/*--------------------------------*- C++ -*----------------------------------*\
  =========                 |
  \\      /  F ield         | OpenFOAM: The Open Source CFD Toolbox
   \\    /   O peration     | Website:  https://openfoam.org
    \\  /    A nd           | Version:  7
     \\/     M anipulation  |
\*---------------------------------------------------------------------------*/
FoamFile
{
    version     2.0;
    format      ascii;
    class       volVectorField;
    location    "0.00131";
    object      U;
}
// * * * * * * * * * * * * * * * * * * * * * * * * * * * * * * * * * * * * * //

dimensions      [0 1 -1 0 0 0 0];

internalField   nonuniform List<vector> 
5000
(
(0.0061073941 -1.8337241e-18 0)
(0.0070337453 -2.0931052e-18 0)
(0.0072596889 0 0)
(0.0075485261 0 0)
(0.0078502919 1.1587678e-18 0)
(0.0081657672 -1.3663475e-33 1.201852e-18)
(0.0084953965 -1.2466663e-18 2.6574291e-33)
(0.008839633 0 -3.879774e-18)
(0.0091989526 0 -1.3416767e-18)
(0.009573852 1.3919738e-18 2.7839477e-18)
(0.0099648478 2.8884055e-18 2.8884055e-18)
(0.010372476 -1.4984183e-18 -1.4984183e-18)
(0.01079729 -1.5546768e-18 1.3255972e-32)
(0.011239866 1.6130362e-18 1.4212027e-32)
(0.011700795 0 -3.347112e-18)
(0.012180689 1.7362969e-18 3.4725937e-18)
(0.012680179 -5.0982658e-47 -2.5491329e-47)
(0.013199917 -1.8686925e-18 1.6464545e-32)
(0.013740573 0 1.9384761e-18)
(0.014302837 -2.0107385e-18 -4.0214771e-18)
(0.014887422 2.0855478e-18 -2.0855478e-18)
(0.01549506 2.1629735e-18 0)
(0.016126505 -4.4861728e-18 0)
(0.016782533 2.325959e-18 2.325959e-18)
(0.017463943 2.4116651e-18 -2.0563093e-32)
(0.018171555 2.0608047e-32 2.0608047e-32)
(0.018906213 -2.5918804e-18 2.5918804e-18)
(0.019668785 -2.6865447e-18 -2.6865447e-18)
(0.020460162 5.5687051e-18 -2.7843525e-18)
(0.021281259 -5.0024621e-32 2.885385e-18)
(0.022133017 5.225845e-32 -5.225845e-32)
(0.023016401 -3.0974559e-18 2.6410497e-32)
(0.023932401 -6.4173277e-18 3.2086639e-18)
(0.024882036 6.6468713e-18 -3.3234356e-18)
(0.025866348 -5.9672355e-32 -3.4418596e-18)
(0.026886406 3.0996483e-31 0)
(0.027943308 1.279497e-31 0)
(0.029038179 -7.6398989e-18 3.8199494e-18)
(0.030172171 7.907788e-18 3.953894e-18)
(0.031346465 8.1839074e-18 -4.0919537e-18)
(0.03256227 -8.4684502e-18 7.100291e-32)
(0.033820825 3.013142e-31 4.3808062e-18)
(0.035123398 9.0635928e-18 -4.5317964e-18)
(0.036471286 -4.6872962e-18 7.9266478e-32)
(0.037865818 -1.4542222e-17 4.8474075e-18)
(0.039308353 5.0122332e-18 -5.0122332e-18)
(0.040800279 5.1818777e-18 1.7820616e-31)
(0.042343017 3.6689686e-31 -1.8344843e-31)
(0.04393802 1.1072091e-17 1.903861e-31)
(0.045586771 0 -9.7556665e-32)
(0.047290786 -5.910768e-18 -5.910768e-18)
(0.049051613 -8.6773035e-34 0)
(0.050870835 6.3069185e-18 0)
(0.052750065 -1.3026613e-17 0)
(0.05469095 2.3511078e-31 0)
(0.056695172 1.3886542e-17 0)
(0.058764445 -7.1670752e-18 0)
(0.060900518 2.5543301e-31 0)
(0.063105174 7.6329016e-18 0)
(0.06538023 0 0)
(0.067727537 -8.123793e-18 0)
(0.070148982 -2.8577224e-31 0)
(0.072646486 -2.4558308e-33 0)
(0.075222004 -8.9091789e-18 8.9091789e-18)
(0.077877529 9.1845265e-18 9.1845265e-18)
(0.080615086 -3.3094873e-31 -9.4668481e-18)
(0.083436736 -9.7562629e-18 1.6776025e-31)
(0.086344577 1.005289e-17 -1.4453392e-47)
(0.08934074 1.0356849e-17 -1.0356849e-17)
(0.092427392 -1.0668259e-17 0)
(0.095606735 -1.0987239e-17 0)
(0.098881008 1.1313909e-17 1.1313909e-17)
(0.10225248 1.1648386e-17 1.1648386e-17)
(0.10572347 -2.3981582e-17 0)
(0.1092963 -1.234124e-17 -1.234124e-17)
(0.11297337 1.2699852e-17 -4.3855607e-31)
(0.11675707 0 1.3066743e-17)
(0.12064987 -1.3442031e-17 1.3442031e-17)
(0.12465423 1.9647686e-33 -1.382583e-17)
(0.12877268 1.4218256e-17 -2.8436511e-17)
(0.13300776 -1.4619422e-17 2.9238844e-17)
(0.13736206 4.2716243e-33 -8.5432486e-33)
(0.14183819 -4.3907072e-33 -4.6345282e-17)
(0.14643879 -1.5876489e-17 3.1752978e-17)
(0.15116656 -1.6313736e-17 1.6970112e-30)
(0.15602419 -5.8353577e-31 -3.3520554e-17)
(0.16101445 1.7216218e-17 5.1648655e-17)
(0.16614009 0 -1.7681665e-17)
(0.17140393 1.815672e-17 -1.815672e-17)
(0.17680881 1.9338535e-30 1.8641485e-17)
(0.18235759 6.6897184e-31 -1.913606e-17)
(0.18805317 -1.9640543e-17 -1.9640543e-17)
(0.19389846 -2.015503e-17 -7.0172951e-31)
(0.19989643 4.1359229e-17 4.1359229e-17)
(0.20605006 1.4681812e-30 1.4681812e-30)
(0.21236234 -2.1759439e-17 2.1759439e-17)
(0.21883631 0 2.2314854e-17)
(0.22547503 0 8.0313178e-31)
(0.23228158 2.3457113e-17 -1.6333936e-30)
(0.23925907 1.6674348e-30 -4.8088235e-17)
(0.24641062 -4.9283614e-17 -2.4641807e-17)
(0.25373938 2.5250255e-17 2.5250255e-17)
(0.26124854 5.1739065e-17 -3.6762817e-33)
(0.26894126 0 -2.6499706e-17)
(0.27682078 -2.7140839e-17 0)
(0.28489032 -2.7792993e-17 2.7792993e-17)
(0.29315313 2.8456226e-17 9.9074888e-31)
(0.30161247 2.9130592e-17 -2.9130592e-17)
(0.31027161 0 2.9816141e-17)
(0.31913387 0 3.051292e-17)
(0.32820254 -3.1220973e-17 -6.2441946e-17)
(0.33748094 -3.194034e-17 -3.194034e-17)
(0.3469724 0 9.801317e-17)
(0.35668027 3.3413155e-17 3.3413155e-17)
(0.3666079 -1.1944222e-30 -1.0249999e-16)
(0.37675864 -3.4931607e-17 3.4931607e-17)
(0.38713586 3.5708005e-17 3.5708005e-17)
(0.39774294 -1.0372751e-32 2.0745503e-32)
(0.40858324 1.3037927e-30 3.7295226e-17)
(0.41966014 -3.9261377e-47 -1.1431821e-16)
(0.43097704 -7.7856811e-17 2.7217731e-30)
(0.44253729 1.6951661e-32 7.9524472e-17)
(0.45434429 4.0607555e-17 -8.1215111e-17)
(0.46640142 0 -4.1464354e-17)
(0.47871204 4.2332618e-17 4.2332618e-17)
(0.49127954 -4.3212329e-17 -4.3212329e-17)
(0.50410727 -4.4103465e-17 4.4103465e-17)
(0.51719859 9.0011996e-17 9.0011996e-17)
(0.53055685 4.5919896e-17 -4.5919896e-17)
(0.54418539 -9.3690248e-17 -1.6176735e-30)
(0.55808754 -4.778164e-17 -4.778164e-17)
(0.57226662 4.8729399e-17 -9.7458798e-17)
(0.58672592 4.9688351e-17 4.9688351e-17)
(0.60146874 5.0658442e-17 5.0658442e-17)
(0.61649834 0 5.1639612e-17)
(0.63181799 -5.2631798e-17 1.8324599e-30)
(0.6474309 -5.3634931e-17 1.8597636e-30)
(0.6633403 5.4648939e-17 -1.9026899e-30)
(0.67954937 1.9304584e-30 -1.1134749e-16)
(0.69606129 -5.6709265e-17 -5.6709265e-17)
(0.7128792 5.7755416e-17 5.7755416e-17)
(0.73000622 5.8812104e-17 1.1762421e-16)
(0.74744544 0 5.9879236e-17)
(0.76519991 -6.0956712e-17 6.0956712e-17)
(0.78327269 -6.2044427e-17 -4.3027172e-30)
(0.80166676 6.3142274e-17 -1.2628455e-16)
(0.8203851 -6.4250139e-17 1.8260988e-32)
(0.83943064 3.7157353e-32 -1.8578676e-32)
(0.8588063 6.6495455e-17 4.8914837e-46)
(0.87851492 -6.7632659e-17 -6.7632659e-17)
(0.89855935 6.8779391e-17 4.76978e-30)
(0.91894238 -4.8698329e-30 -9.7396658e-30)
(0.93966675 -7.1100897e-17 -7.1100897e-17)
(0.96073518 7.2275394e-17 7.2275394e-17)
(0.98215034 -7.3458862e-17 -7.3458862e-17)
(1.0039149 -7.4651153e-17 -2.5884903e-30)
(1.0260313 7.5852114e-17 7.5852114e-17)
(1.0485022 0 -7.7061589e-17)
(1.0713301 0 1.1124175e-32)
(1.0945174 7.9505444e-17 7.9505444e-17)
(1.1180666 8.0739496e-17 0)
(1.1419799 -8.1981405e-17 -8.1981405e-17)
(1.1662596 -8.3231e-17 -5.7601564e-30)
(1.1909081 8.4488106e-17 1.6897621e-16)
(1.2159274 5.9468507e-30 -8.5752544e-17)
(1.2413198 -8.7024134e-17 2.4733747e-32)
(1.2670874 8.8302691e-17 8.8302691e-17)
(1.2932321 8.958803e-17 -8.958803e-17)
(1.319756 0 9.0879961e-17)
(1.346661 -9.2178293e-17 -9.2178293e-17)
(1.3739489 -9.3482832e-17 3.8950768e-29)
(1.4016216 0 2.6295294e-29)
(1.4296808 9.6109745e-17 -9.6109745e-17)
(1.4581283 9.7431721e-17 1.9486344e-16)
(1.4869656 0 0)
(1.5161943 -1.000917e-16 6.9412566e-30)
(1.545816 -2.1102053e-29 2.1102053e-29)
(1.5758322 1.0277169e-16 -1.0277169e-16)
(1.6062441 -1.0411867e-16 -1.0411867e-16)
(1.6370533 -1.0547002e-16 -7.2692727e-30)
(1.6682608 1.0682554e-16 1.0682554e-16)
(1.699868 7.4717708e-30 -1.0818501e-16)
(1.731876 -7.534785e-30 -7.534785e-30)
(1.7642859 -4.7285887e-32 -4.7285887e-32)
(1.7970988 -1.1228499e-16 -1.5557741e-29)
(1.8303155 1.1365813e-16 2.2731626e-16)
(1.8639369 1.5954999e-29 -1.1503415e-16)
(1.8979641 -8.0069363e-30 -1.1641282e-16)
(1.9323976 8.1019304e-30 8.1019304e-30)
(1.9672382 -1.1917728e-16 -8.2140137e-30)
(2.0024865 0 2.5065551e-29)
(2.0381432 0 -8.4224315e-30)
(2.0742087 1.2333849e-16 1.2333849e-16)
(2.1106836 1.2472856e-16 0)
(2.1475681 0 0)
(2.1848627 0 0)
(2.2225676 -1.2890472e-16 0)
(2.260683 6.6410125e-47 1.3029803e-16)
(2.2992089 1.3169162e-16 -2.7454178e-29)
(2.3381456 0 -1.3308526e-16)
(2.3774931 -1.3447874e-16 -1.3447874e-16)
(2.4172511 1.3587184e-16 1.3587184e-16)
(2.4574198 3.8037558e-29 1.3726437e-16)
(2.4979988 -2.7731219e-16 -2.7731219e-16)
(2.538988 1.4004682e-16 -9.6922007e-30)
(2.5803869 2.9365092e-29 2.9365092e-29)
(2.6221954 2.0296568e-32 1.428244e-16)
(2.664413 1.4421085e-16 1.4421085e-16)
(2.7070391 -1.4559546e-16 -1.4559546e-16)
(2.7500733 2.0886835e-32 0)
(2.7935149 2.0534834e-29 -1.4835836e-16)
(2.8373633 -1.0362776e-29 -1.0362776e-29)
(2.8816177 1.511115e-16 1.511115e-16)
(2.9262774 0 1.524839e-16)
(2.9713416 -1.5385327e-16 -2.1426588e-29)
(3.0168094 -1.0742249e-29 -1.5521941e-16)
(3.0626798 -4.3457491e-29 3.1316427e-16)
(3.1089517 -1.5794124e-16 -1.5794124e-16)
(3.1556243 0 -1.5929655e-16)
(3.2026962 1.6064788e-16 1.6064788e-16)
(3.2501665 1.6199503e-16 -1.6199503e-16)
(3.2980338 0 0)
(3.3462968 0 0)
(3.3949543 0 0)
(3.4440049 -1.6733835e-16 -1.6733835e-16)
(3.4934471 -1.1672566e-29 1.6866197e-16)
(3.5432795 1.6998037e-16 3.3996073e-16)
(3.5935004 0 -1.7129336e-16)
(3.6441085 0 1.1994216e-29)
(3.6951019 -1.739025e-16 -1.739025e-16)
(3.7464791 -1.7519832e-16 -1.7519832e-16)
(3.7982383 1.7648809e-16 3.5297617e-16)
(3.8503777 1.7777165e-16 -5.0525741e-32)
(3.9028955 0 5.0888744e-32)
(3.95579 -1.8031954e-16 -1.8031954e-16)
(4.009059 -1.8158356e-16 -1.8158356e-16)
(4.0627008 1.8284078e-16 3.6568156e-16)
(4.1167133 1.8409104e-16 -2.6160911e-32)
(4.1710945 0 3.8610885e-29)
(4.2258422 -1.8657013e-16 -1.8657013e-16)
(4.2809545 5.2147958e-29 1.0429592e-28)
(4.3364291 1.3108324e-29 2.6216647e-29)
(4.3922638 -1.9023313e-16 -1.9023313e-16)
(4.4484564 1.9143875e-16 1.9143875e-16)
(4.5050046 1.9263647e-16 0)
(4.5619061 0 1.9382616e-16)
(4.6191586 -1.9500771e-16 -1.9500771e-16)
(4.6767596 2.7265656e-29 -1.9618098e-16)
(4.7347068 -1.9734586e-16 1.9734586e-16)
(4.7929976 -2.7531851e-29 0)
(4.8516297 3.9929997e-16 1.9964998e-16)
(4.9106005 -2.00789e-16 -2.00789e-16)
(4.9699074 2.8005775e-29 -2.0191918e-16)
(5.0295478 7.0489778e-29 7.0489778e-29)
(5.0895191 1.412876e-29 4.0830516e-16)
(5.1498187 2.052556e-16 4.105112e-16)
(5.2104439 -2.0634936e-16 -6.1904808e-16)
(5.271392 -2.0743376e-16 -4.1486753e-16)
(5.3326602 0 0)
(5.3942458 2.0957412e-16 4.1914825e-16)
(5.4561459 2.1062989e-16 2.1062989e-16)
(5.5183578 0 -2.1167593e-16)
(5.5808787 -2.1271216e-16 -2.1271216e-16)
(5.6437055 -2.1373849e-16 -2.1373849e-16)
(5.7068355 4.2950965e-16 4.2950965e-16)
(5.7702657 2.157611e-16 4.315222e-16)
(5.8339932 -2.1675722e-16 -2.1675722e-16)
(5.898015 -2.1774312e-16 -4.3548624e-16)
(5.9623281 -6.0671673e-29 -6.0671673e-29)
(6.0269294 2.1968394e-16 4.3936788e-16)
(6.091816 -2.2063871e-16 -2.2063871e-16)
(6.1569848 1.5366551e-29 3.0733101e-29)
(6.2224327 2.2251663e-16 2.2251663e-16)
(6.2881566 -2.2343963e-16 -4.4687926e-16)
(6.3541533 1.5590457e-29 2.2435191e-16)
(6.4204198 -1.5685113e-29 -3.1370226e-29)
(6.4869529 6.4274005e-32 -2.2614405e-16)
(6.5537493 1.5679341e-29 2.2702378e-16)
(6.620806 -2.2789254e-16 -2.2789254e-16)
(6.6881196 0 4.5750053e-16)
(6.755687 0 -9.5794877e-29)
(6.8235048 2.304324e-16 -4.6086481e-16)
(6.8915699 2.312567e-16 4.6251341e-16)
(6.959879 0 1.606082e-29)
(7.0284287 0 -2.328715e-16)
(7.0972157 0 0)
(7.1662367 0 0)
(7.2354884 -2.3520843e-16 -2.3520843e-16)
(7.3049673 -1.6263296e-29 2.3596447e-16)
(7.3746702 4.7341794e-16 4.7341794e-16)
(7.4445936 -1.0122756e-31 -2.3744188e-16)
(7.5147342 -2.3816316e-16 6.7690042e-32)
(7.5850885 -2.3887277e-16 -2.3887277e-16)
(7.655653 3.3262001e-29 -2.3957065e-16)
(7.7264244 3.3288978e-29 2.4025678e-16)
(7.7973993 3.423837e-32 0)
(7.868574 2.415936e-16 2.415936e-16)
(7.9399452 2.4224421e-16 2.4224421e-16)
(8.0115094 2.4288291e-16 0)
(8.083263 -4.8701931e-16 -4.8701931e-16)
(8.1552026 -7.3237323e-16 -2.4412441e-16)
(8.2273246 2.4472714e-16 4.8945429e-16)
(8.2996255 4.9063563e-16 -1.6977676e-29)
(8.3721018 0 6.9887959e-32)
(8.4447499 -2.4646284e-16 -2.4646284e-16)
(8.5175662 -2.4701713e-16 -2.4701713e-16)
(8.5905471 2.4755923e-16 2.4755923e-16)
(8.6636891 -7.0511161e-32 -2.4808909e-16)
(8.7369886 1.0598741e-31 2.486067e-16)
(8.810442 -7.0801893e-32 -1.4160379e-31)
(8.8840455 -2.4960501e-16 -4.9921002e-16)
(8.9577957 -2.5008565e-16 2.5008565e-16)
(9.0316889 2.505539e-16 2.505539e-16)
(9.1057214 5.0201949e-16 2.5100975e-16)
(9.1798896 -2.5145315e-16 3.4876034e-29)
(9.2541899 1.778218e-47 -2.5188407e-16)
(9.3286184 -2.5230249e-16 0)
(9.4031716 -7.0028441e-29 0)
(9.4778458 5.0620342e-16 2.5310171e-16)
(9.5526372 0 -3.5193515e-29)
(9.6275422 0 7.0453175e-29)
(9.702557 -5.0841206e-16 3.5330103e-29)
(9.7776779 1.4136629e-28 -2.5454882e-16)
(9.8529011 5.0975782e-16 2.5487891e-16)
(9.928223 0 -3.626557e-32)
(10.00364 -2.5550086e-16 -2.5550086e-16)
(10.079148 -2.5579266e-16 0)
(10.154743 2.5607164e-16 0)
(10.230421 -3.6427789e-32 0)
(10.30618 3.5625112e-29 0)
(10.382014 -3.6497936e-32 0)
(10.457921 -2.5705881e-16 0)
(10.533895 2.5727327e-16 0)
(10.609934 2.5747474e-16 2.5747474e-16)
(10.686034 0 0)
(10.762191 -2.578386e-16 -2.578386e-16)
(10.838401 3.5820862e-29 0)
(10.914659 2.5815015e-16 2.5815015e-16)
(10.990963 -5.1657248e-16 7.164754e-29)
(11.067308 7.1681639e-29 -2.5840917e-16)
(11.143691 2.585189e-16 0)
(11.220107 7.1812351e-29 0)
(11.296552 5.1739731e-16 2.5869866e-16)
(11.373024 -5.1753726e-16 3.5927449e-29)
(11.449516 -2.5882529e-16 -2.5882529e-16)
(11.526027 2.588686e-16 0)
(11.602552 3.6791696e-32 0)
(11.679086 2.5891508e-16 2.5891508e-16)
(11.755627 0 2.5891815e-16)
(11.832169 0 -2.5890739e-16)
(11.908709 -2.5888254e-16 -2.5888254e-16)
(11.985243 3.5901113e-29 0)
(12.061767 5.1758327e-16 2.5879163e-16)
(12.138277 -3.6767144e-32 -3.6767144e-32)
(12.214769 -7.7593886e-16 -2.5864629e-16)
(12.291238 2.5855312e-16 2.5855312e-16)
(12.367682 2.5844625e-16 2.5844625e-16)
(12.444095 -5.166513e-16 -2.5832565e-16)
(12.520473 2.5819128e-16 -2.5819128e-16)
(12.596813 -2.5804311e-16 0)
(12.67311 -5.1576223e-16 2.5788111e-16)
(12.749361 2.5770525e-16 2.5770525e-16)
(12.825561 2.575155e-16 -2.575155e-16)
(12.901706 2.5731181e-16 -2.5731181e-16)
(12.977792 -2.5709417e-16 0)
(13.053815 -2.8499263e-47 2.5686254e-16)
(13.129771 2.5661689e-16 2.5661689e-16)
(13.205655 -2.5635719e-16 -2.5635719e-16)
(13.281463 2.560834e-16 -2.560834e-16)
(13.357192 -2.5579549e-16 0)
(13.432836 -7.0800214e-29 0)
(13.508392 -7.2525727e-32 0)
(13.583856 -2.5484678e-16 0)
(13.659223 5.0900422e-16 0)
(13.734489 -2.5414317e-16 0)
(13.80965 -7.0466861e-29 0)
(13.884702 7.0287227e-29 0)
(13.959639 2.5298045e-16 2.5298045e-16)
(14.034459 5.051283e-16 3.6903027e-46)
(14.109157 -7.5640032e-16 -2.5213344e-16)
(14.183728 -6.9817296e-29 0)
(14.258169 1.393796e-28 0)
(14.332474 -6.9487019e-29 0)
(14.40664 5.0053192e-16 2.5026596e-16)
(14.480662 -4.995256e-16 3.4641587e-29)
(14.554536 6.913956e-29 -2.4924508e-16)
(14.628258 4.9742555e-16 2.4871278e-16)
(14.701823 0 -3.4455361e-29)
(14.775226 0 3.5186691e-32)
(14.848465 -2.4702813e-16 3.4297399e-29)
(14.921533 3.4180344e-29 -2.4643728e-16)
(14.994428 2.4583174e-16 2.4583174e-16)
(15.067144 2.452115e-16 -2.452115e-16)
(15.139676 -2.4457655e-16 1.3589759e-28)
(15.212022 -7.3178059e-16 2.4392686e-16)
(15.284176 2.4326244e-16 -2.4326244e-16)
(15.356134 2.4258326e-16 0)
(15.427891 6.874908e-32 0)
(15.499443 2.4118061e-16 2.4118061e-16)
(15.570786 0 3.3385079e-29)
(15.641915 -4.7943772e-16 -2.3971886e-16)
(15.712827 -4.7793162e-16 2.3896581e-16)
(15.783515 2.3819798e-16 2.3819798e-16)
(15.853977 4.7483073e-16 0)
(15.924207 2.3661797e-16 -2.3661797e-16)
(15.994202 -4.7161161e-16 -2.3580581e-16)
(16.063956 -4.6995775e-16 2.3497887e-16)
(16.133466 4.6827437e-16 6.4981965e-29)
(16.202727 4.6656151e-16 -1.7552847e-46)
(16.271735 0 3.226776e-29)
(16.340485 -4.6304745e-16 -2.3152372e-16)
(16.408972 2.3062316e-16 2.3062316e-16)
(16.477193 4.5941586e-16 7.4629022e-46)
(16.545143 -2.2877805e-16 3.1763556e-29)
(16.612818 -2.2783356e-16 2.2783356e-16)
(16.680214 3.2240803e-32 0)
(16.747325 -3.1364087e-29 0)
(16.814148 -2.2491272e-16 -2.2491272e-16)
(16.880678 2.2391011e-16 -3.181954e-32)
(16.946911 2.2289307e-16 9.274443e-29)
(17.012843 -2.2186165e-16 -2.2186165e-16)
(17.07847 3.0626711e-29 0)
(17.143786 3.1229188e-32 0)
(17.208789 3.0330692e-29 2.1868163e-16)
(17.273473 2.1759323e-16 -6.0328545e-29)
(17.337834 -2.1649074e-16 -2.1649074e-16)
(17.401869 8.9707709e-29 0)
(17.465572 2.9745617e-29 0)
(17.528941 5.9143195e-29 0)
(17.59197 2.1194134e-16 2.1194134e-16)
(17.654656 -2.1076953e-16 -2.9952152e-32)
(17.716994 2.9098668e-29 -2.0958411e-16)
(17.778981 5.7775575e-29 2.0838517e-16)
(17.840613 2.9441028e-32 -2.0717282e-16)
(17.901884 4.1189431e-16 5.7245961e-29)
(17.962792 2.0470829e-16 4.0941658e-16)
(18.023333 -2.0345634e-16 -2.0345634e-16)
(18.083502 -4.0438284e-16 -8.42168e-29)
(18.143296 2.7894861e-29 -2.7894861e-29)
(18.202711 3.9924633e-16 2.7715691e-29)
(18.261743 1.983201e-16 1.983201e-16)
(18.320389 -3.9400918e-16 0)
(18.378644 -1.9567678e-16 0)
(18.436505 1.9433681e-16 -1.9433681e-16)
(18.493968 1.9298485e-16 -2.6794027e-29)
(18.55103 5.3182123e-29 5.3182123e-29)
(18.607687 -1.9024559e-16 -6.8039373e-47)
(18.663937 0 1.8885862e-16)
(18.719774 0 -1.8746033e-16)
(18.775197 -1.860509e-16 -1.860509e-16)
(18.830201 0 0)
(18.884784 1.8319937e-16 1.8319937e-16)
(18.938941 -1.8175766e-16 2.5235243e-29)
(18.992671 -2.5622966e-32 -1.803056e-16)
(19.04597 4.9635834e-29 0)
(19.098835 0 0)
(19.151263 1.7588939e-16 1.7588939e-16)
(19.203251 -1.7439806e-16 -4.9566909e-32)
(19.254796 -1.7289748e-16 -7.3740181e-47)
(19.305896 3.4277577e-16 1.7138788e-16)
(19.356547 1.6986953e-16 -1.6986953e-16)
(19.406748 -1.6834265e-16 2.3324857e-29)
(19.456496 0 -2.3159565e-29)
(19.505788 0 4.5867148e-29)
(19.554621 1.6371353e-16 1.6371353e-16)
(19.602995 -4.505032e-29 -1.6215522e-16)
(19.650906 -1.6058971e-16 4.4592568e-29)
(19.698352 0 -4.4178543e-29)
(19.745331 0 4.373986e-29)
(19.791842 1.5585299e-16 1.5585299e-16)
(19.837882 -6.4275008e-29 -1.5426165e-16)
(19.88345 -1.526646e-16 4.2391921e-29)
(19.928543 0 -2.101641e-29)
(19.973161 0 0)
(20.017302 0 1.4784228e-16)
(20.060965 0 -1.4622552e-16)
(20.104147 0 2.0076915e-29)
(20.146848 0 -2.0318675e-32)
(20.189068 0 1.9625296e-29)
(20.230804 0 -1.941867e-29)
(20.272056 -2.7617317e-16 -1.3808658e-16)
(20.312823 -7.5740203e-29 1.3645015e-16)
(20.353105 1.3481165e-16 1.3481165e-16)
(20.3929 -1.3317144e-16 -1.3317144e-16)
(20.432209 1.3152986e-16 -1.3152986e-16)
(20.471031 -1.2988729e-16 0)
(20.509365 3.5647279e-29 1.2824408e-16)
(20.547212 1.2660061e-16 1.2660061e-16)
(20.584572 3.4698138e-29 0)
(20.621444 1.2331433e-16 -1.2331433e-16)
(20.657828 0 1.6892984e-29)
(20.693726 0 -1.7057491e-32)
(20.729137 -1.1839217e-16 -1.642075e-29)
(20.764062 -3.2420507e-29 1.1675488e-16)
(20.798501 1.1511994e-16 -1.1511994e-16)
(20.832456 0 -1.5740513e-29)
(20.865926 0 3.1060907e-29)
(20.898914 0 1.1023296e-16)
(20.93142 0 1.0861117e-16)
(20.963445 0 -2.1398724e-16)
(20.99499 0 1.4975495e-32)
(21.026057 0 -1.4393064e-29)
(21.056648 -2.0434026e-16 -1.0217013e-16)
(21.086764 8.3724419e-29 1.0057327e-16)
(21.116407 1.9796502e-16 -1.3742737e-29)
(21.145578 -9.7398227e-17 -9.7398227e-17)
(21.174281 -1.3616952e-32 0)
(21.202515 -9.4250533e-17 0)
(21.230285 5.1396112e-29 0)
(21.257592 1.8226616e-16 9.1133081e-17)
(21.284438 8.9586586e-17 8.9586586e-17)
(21.310827 7.4167486e-47 -8.8048711e-17)
(21.33676 -2.595594e-16 -8.6519801e-17)
(21.36224 0 0)
(21.38727 1.6698047e-16 8.3490233e-17)
(21.411854 0 8.1990241e-17)
(21.435993 0 -8.0500544e-17)
(21.459692 -1.5804293e-16 -7.9021463e-17)
(21.482953 2.1512969e-29 0)
(21.50578 2.2828918e-16 7.6096394e-17)
(21.528175 -7.4651015e-17 7.4651015e-17)
(21.550143 -7.3217466e-17 -7.3217466e-17)
(21.571687 7.1796034e-17 -1.993633e-29)
(21.59281 -7.0387e-17 7.0387e-17)
(21.613517 6.8990636e-17 0)
(21.633811 1.8753961e-29 0)
(21.653696 -6.6236969e-17 0)
(21.673175 6.4880173e-17 0)
(21.692254 0 -6.3537057e-17)
(21.710936 6.2207855e-17 1.7256203e-29)
(21.729225 -6.089279e-17 6.089279e-17)
(21.747125 -1.1918416e-16 -5.9592078e-17)
(21.764641 5.8305925e-17 -8.0951975e-30)
(21.781777 5.7034525e-17 7.9267814e-30)
(21.798538 5.5778069e-17 -6.0268623e-47)
(21.814927 5.4536734e-17 -5.4536734e-17)
(21.83095 -1.0662138e-16 -5.3310689e-17)
(21.846611 -5.2100093e-17 1.0420019e-16)
(21.861915 5.0905096e-17 7.067666e-30)
(21.876866 0 -6.8968716e-30)
(21.891468 -4.8562451e-17 4.8562451e-17)
(21.905728 4.7415054e-17 0)
(21.919649 4.6283757e-17 -4.6283757e-17)
(21.933236 -1.3550599e-16 -4.5168662e-17)
(21.946494 -1.2525407e-32 4.4069859e-17)
(21.959428 8.5974859e-17 1.1924536e-29)
(21.972043 -4.1921446e-17 -4.1921446e-17)
(21.984343 -5.6746661e-30 0)
(21.996335 -3.9839047e-17 0)
(22.008021 1.1034082e-32 3.8822726e-17)
(22.019408 7.5646073e-17 -5.2459773e-30)
(22.030501 -3.6840001e-17 -3.6840001e-17)
(22.041304 0 0)
(22.051822 9.6976812e-30 3.4923933e-17)
(22.06206 4.8303971e-33 -4.8303971e-33)
(22.072024 3.3074512e-17 9.1841338e-30)
(22.081718 -3.2174751e-17 4.4625717e-30)
(22.091147 8.6890493e-30 -3.1291581e-17)
(22.100316 4.2198795e-30 3.0424961e-17)
(22.109229 4.2028374e-33 -4.2028374e-33)
(22.117893 2.8741157e-17 7.9808473e-30)
(22.126311 -2.7923846e-17 2.7923846e-17)
(22.134489 -3.820805e-47 -2.7122831e-17)
(22.142431 7.3135464e-30 -7.3135464e-30)
(22.150143 3.6336226e-33 -3.6336226e-33)
(22.157628 4.9633372e-17 3.4455499e-30)
(22.164892 3.3398382e-30 2.407994e-17)
(22.171939 -2.3358997e-17 -2.3358997e-17)
(22.178775 0 0)
(22.185403 0 1.2194824e-29)
(22.191828 2.1289738e-17 2.9528428e-30)
(22.198056 8.584319e-30 8.584319e-30)
(22.204089 -1.9986856e-17 2.8403031e-33)
(22.209934 1.9357966e-17 1.9357966e-17)
(22.215594 -2.6024044e-30 -1.8743903e-17)
(22.221074 -1.1409397e-46 -1.1409397e-46)
(22.226378 2.4379756e-30 2.4379756e-30)
(22.23151 -1.698902e-17 -4.7175128e-30)
(22.236474 -1.6432588e-17 2.2815013e-30)
(22.241276 -2.2039275e-30 -3.1780249e-17)
(22.245918 1.5361444e-17 1.5361444e-17)
(22.250405 0 1.4846356e-17)
(22.254741 0 1.9916149e-30)
(22.25893 -1.3856194e-17 -1.9237947e-30)
(22.262975 1.3380726e-17 -2.6761452e-17)
(22.266882 -1.0753926e-29 1.2918065e-17)
(22.270652 -1.2468011e-17 1.2468011e-17)
(22.274291 1.2030356e-17 -2.0782691e-47)
(22.277802 0 0)
(22.281187 -1.1191414e-17 -1.9627888e-47)
(22.284452 -1.0789707e-17 1.0789707e-17)
(22.287599 1.0399561e-17 -1.0399561e-17)
(22.290632 1.0020761e-17 -1.7972406e-47)
(22.293554 0 1.3388646e-30)
(22.296369 -9.2963507e-18 1.3210909e-33)
(22.299079 -8.950309e-18 8.950309e-18)
(22.301687 1.7229514e-17 -1.7229514e-17)
(22.304198 8.2894784e-18 -2.3018232e-30)
(22.306613 -7.9742603e-18 7.9742603e-18)
(22.308936 -7.6688867e-18 -1.0636588e-30)
(22.31117 -1.0226399e-30 1.0226399e-30)
(22.313317 -7.0868206e-18 -7.0868206e-18)
(22.315381 -1.8909187e-30 6.809702e-18)
(22.317364 1.3083158e-17 5.0790103e-47)
(22.319268 0 2.6175722e-30)
(22.321097 0 -1.6756784e-30)
(22.322852 0 1.6066911e-30)
(22.324536 -5.5548572e-18 1.5424733e-30)
(22.326152 -5.3285907e-18 -1.0706411e-47)
(22.327702 0 0)
(22.329189 4.8991365e-18 -4.8991365e-18)
(22.330613 6.5059616e-31 0)
(22.331978 -4.4991365e-18 0)
(22.333286 0 4.3096973e-18)
(22.334539 0 1.1459978e-30)
(22.335738 3.9509885e-18 -3.9509885e-18)
(22.336886 5.2446497e-31 0)
(22.337985 -5.0128629e-31 0)
(22.339036 3.4605797e-18 6.9211594e-18)
(22.340041 -3.3090981e-18 2.7547311e-30)
(22.341002 1.3162382e-30 -6.3266411e-18)
(22.34192 3.023075e-18 3.023075e-18)
(22.342797 0 -4.1043718e-34)
(22.343636 2.7585147e-18 3.8299232e-31)
(22.344436 3.6568736e-31 2.6338751e-18)
(22.3452 -2.514117e-18 0)
(22.345929 2.3990849e-18 0)
(22.346625 -2.2886292e-18 0)
(22.347289 -2.1826e-18 2.1826e-18)
(22.347921 2.0808525e-18 5.7721991e-31)
(22.348525 0 -1.9832436e-18)
(22.349099 -1.8896362e-18 0)
(22.349647 -1.7998946e-18 0)
(22.350168 1.713885e-18 1.713885e-18)
(22.350665 1.6314808e-18 -2.3184737e-34)
(22.351137 0 -1.5525545e-18)
(22.351587 1.4769843e-18 0)
(22.352014 -1.4046498e-18 0)
(22.352421 -1.3354355e-18 1.3354355e-18)
(22.352807 1.2692292e-18 3.5207894e-31)
(22.353174 2.411838e-18 3.3503108e-31)
(22.353523 -6.3610963e-31 -3.1805482e-31)
(22.353854 -3.2627015e-18 -1.0875672e-18)
(22.354169 -2.5989513e-48 1.0323203e-18)
(22.354467 9.7956102e-19 -2.718654e-31)
(22.35475 1.8583884e-18 2.578867e-31)
(22.355019 -4.8884339e-31 -2.444217e-31)
(22.355273 -1.6705515e-18 -8.3527573e-19)
(22.355514 7.9154818e-19 0)
(22.355743 -7.4986177e-19 0)
(22.355959 7.1013621e-19 7.1013621e-19)
(22.356164 6.7229327e-19 4.4444654e-47)
(22.356358 -1.2725115e-18 -6.3625573e-19)
(22.356542 0 0)
(22.356715 0 0)
(22.356879 1.0765231e-18 5.3826153e-19)
(22.357034 1.1084892e-47 2.2169785e-47)
(22.357181 -9.6135634e-19 -4.8067817e-19)
(22.357319 0 0)
(22.35745 0 0)
(22.357573 8.0930738e-19 4.0465369e-19)
(22.35769 8.5597343e-48 1.7119469e-47)
(22.3578 -7.2036948e-19 -3.6018474e-19)
(22.357903 0 0)
(22.358001 0 0)
(22.358093 6.0340804e-19 3.0170402e-19)
(22.35818 2.8419537e-19 -4.0386591e-35)
(22.358261 -5.3519292e-19 -2.6759646e-19)
(22.358338 -2.5185832e-19 2.5185832e-19)
(22.35841 0 -6.5825256e-32)
(22.358478 4.4554495e-19 6.1891142e-32)
(22.358542 -1.1625286e-31 -5.8126432e-32)
(22.358602 -3.9311549e-19 -1.9655774e-19)
(22.358658 1.8441069e-19 0)
(22.358711 0 0)
(22.35876 -1.6180656e-19 0)
(22.358806 1.5125734e-19 0)
(22.358849 -2.00585e-35 0)
(22.358889 -1.3143489e-19 1.3143489e-19)
(22.358927 1.2207203e-19 -3.3879626e-32)
(22.358961 -1.1301419e-19 -1.1301419e-19)
(22.358993 -1.0421765e-19 0)
(22.359023 9.5639279e-20 0)
(22.359049 8.7235813e-20 0)
(22.359074 -2.1927479e-32 0)
(22.359096 -7.0788919e-20 0)
(22.359115 6.2664101e-20 0)
(22.359132 1.5147197e-32 0)
(22.359147 -4.6412375e-20 4.6412375e-20)
(22.35916 3.9350902e-20 -2.1842741e-32)
(22.359172 -3.4082555e-20 -3.4082555e-20)
(22.35918 -2.8434011e-20 0)
(22.359189 2.5594875e-20 0)
(22.359204 3.0476422e-20 0)
(22.35922 -9.3597512e-33 0)
(22.359227 -2.9929535e-20 0)
(22.359236 3.5493556e-20 0)
(22.359258 -7.0189397e-36 0)
(22.35928 -5.0246108e-20 5.0246108e-20)
(22.359293 4.3300664e-20 -1.2017579e-32)
(22.359304 -5.1295936e-20 -5.1295936e-20)
(22.35933 -6.7175202e-20 0)
(22.359358 6.9088413e-20 0)
(22.359377 1.1992194e-19 5.9960969e-20)
(22.359393 -3.2642798e-32 -1.6321399e-32)
(22.359413 -1.3207961e-19 -6.6039803e-20)
(22.359438 6.9045869e-20 0)
(22.359458 -9.3336083e-36 0)
(22.359476 -1.2835109e-19 0)
(22.359494 -1.9640312e-35 6.9103204e-20)
(22.359516 7.4226185e-20 2.0621683e-32)
(22.359541 0 -7.3906129e-20)
(22.359561 -6.9060862e-20 0)
(22.359579 0 0)
(22.3596 6.964648e-20 0)
(22.359625 0 0)
(22.359648 0 0)
(22.359668 0 0)
(22.359688 6.7940805e-20 0)
(22.359711 7.9825948e-51 6.9197283e-20)
(22.359734 -6.8028613e-20 -9.6674473e-36)
(22.359754 0 -6.6260251e-20)
(22.359773 -6.6345379e-20 0)
(22.359794 1.8588026e-32 0)
(22.359816 6.6030402e-20 0)
(22.359836 0 0)
(22.359856 0 0)
(22.359875 0 0)
(22.359895 6.025343e-20 0)
(22.359915 -1.6333226e-32 5.8820296e-20)
(22.359934 -5.7077013e-20 8.1111315e-36)
(22.359952 0 -5.5168237e-20)
(22.359968 -5.3115349e-20 0)
(22.359983 -1.409266e-32 0)
(22.359998 4.8167689e-20 0)
(22.360011 0 4.5368134e-20)
(22.360025 -4.2242488e-20 -2.3453794e-32)
(22.360036 3.8714407e-20 -3.8714407e-20)
(22.360047 -1.9439902e-32 0)
(22.360057 -3.1108453e-20 3.1108453e-20)
(22.360066 2.7003385e-20 7.5021402e-33)
(22.360074 0 -2.2823804e-20)
(22.360082 2.026119e-20 0)
(22.360091 6.0089574e-33 0)
(22.360102 -2.3983116e-20 2.3983116e-20)
(22.360108 0 2.1624368e-20)
(22.360112 -1.7817857e-20 -1.7817857e-20)
(22.360121 2.1348042e-20 -2.1348042e-20)
(22.360137 1.6874477e-32 0)
(22.360152 -3.3472493e-20 0)
(22.360162 1.6128388e-32 0)
(22.360168 3.7171082e-36 0)
(22.360178 -8.5123162e-33 -3.0639437e-20)
(22.360193 5.8411552e-36 5.8411552e-36)
(22.360214 4.9069936e-20 9.8139873e-20)
(22.360231 0 4.6333351e-20)
(22.360239 -4.1952496e-20 -8.3904992e-20)
(22.360248 1.2888493e-32 -9.2877323e-20)
(22.360266 1.4297811e-32 5.1516591e-20)
(22.360281 -5.5383701e-49 4.7613413e-20)
(22.360291 1.1401248e-32 0)
(22.3603 0 0)
(22.360317 9.717795e-20 0)
(22.360336 1.3610098e-32 0)
(22.360351 -4.3732261e-20 4.3732261e-20)
(22.360364 4.0412563e-20 1.1227508e-32)
(22.360377 -1.142839e-32 -4.1177749e-20)
(22.360391 -4.1447464e-20 0)
(22.360405 -3.9616051e-20 0)
(22.360416 -1.063726e-32 0)
(22.360425 1.1371931e-32 0)
(22.360439 -4.4496581e-20 0)
(22.360453 4.3843415e-20 0)
(22.360465 3.9384162e-20 0)
(22.360473 0 0)
(22.360481 3.7174504e-20 0)
(22.360493 -1.0752734e-32 0)
(22.360505 -3.7988353e-20 0)
(22.360514 0 0)
(22.360522 0 0)
(22.360531 0 0)
(22.360543 6.8984199e-20 3.44921e-20)
(22.360554 -3.7940672e-32 -1.8970336e-32)
(22.360561 -6.251003e-20 -3.1255015e-20)
(22.360567 0 0)
(22.360577 0 0)
(22.360591 0 -3.4607658e-20)
(22.360602 0 9.2503979e-33)
(22.360609 0 -4.1556707e-36)
(22.360618 0 2.6763339e-20)
(22.360629 0 2.7153155e-20)
(22.360642 5.6922171e-20 1.580211e-32)
(22.360654 -1.574605e-32 -7.8730251e-33)
(22.360665 -5.3303846e-20 -2.6651923e-20)
(22.360677 -2.5444418e-20 0)
(22.360689 2.6575346e-20 0)
(22.360702 2.9137978e-20 0)
(22.360716 -8.2458526e-33 0)
(22.360729 -1.5236854e-32 0)
(22.360737 -2.6489357e-20 2.6489357e-20)
(22.360745 2.7824535e-20 -1.5448685e-32)
(22.360753 -2.8328562e-20 -2.8328562e-20)
(22.36076 -2.888994e-20 0)
(22.360767 3.1721991e-20 0)
(22.360775 3.4753171e-20 0)
(22.360781 -1.9620076e-32 0)
(22.360788 -3.526073e-20 0)
(22.360793 -3.769353e-20 0)
(22.360801 1.1427844e-32 0)
(22.36081 4.1113235e-20 4.1113235e-20)
(22.360814 3.9148527e-20 -2.1730407e-32)
(22.360816 -3.813407e-20 -3.813407e-20)
(22.360818 -3.8308437e-20 0)
(22.360816 3.6222248e-20 0)
(22.360817 -2.9371664e-20 0)
(22.360819 0 0)
(22.360821 1.0353335e-20 0)
(22.360831 1.1560591e-20 0)
(22.360845 -3.7523074e-33 0)
(22.360855 -1.1589871e-20 1.1589871e-20)
(22.360865 1.068096e-20 -8.8946342e-33)
(22.360878 -1.1163465e-20 -1.1163465e-20)