/*--------------------------------*- C++ -*----------------------------------*\
  =========                 |
  \\      /  F ield         | OpenFOAM: The Open Source CFD Toolbox
   \\    /   O peration     | Website:  https://openfoam.org
    \\  /    A nd           | Version:  7
     \\/     M anipulation  |
\*---------------------------------------------------------------------------*/
FoamFile
{
    version     2.0;
    format      ascii;
    class       volScalarField;
    location    "0.00209";
    object      mag(U);
}
// * * * * * * * * * * * * * * * * * * * * * * * * * * * * * * * * * * * * * //

dimensions      [0 1 -1 0 0 0 0];

internalField   nonuniform List<scalar> 
5000
(
0.07662381
0.078503182
0.073872611
0.078074976
0.07650164
0.076635272
0.076524609
0.076552409
0.07664204
0.076624861
0.07660909
0.076608935
0.076608948
0.076607063
0.07660534
0.076603974
0.076602723
0.07660151
0.076600332
0.076599176
0.076598046
0.076596921
0.076595802
0.076594721
0.076593671
0.076592637
0.07659162
0.076590625
0.076589654
0.076588706
0.076587779
0.076586867
0.076585973
0.076585105
0.07658426
0.076583436
0.076582635
0.076581852
0.076581084
0.076580338
0.076579617
0.076578919
0.076578245
0.076577587
0.076576947
0.076576326
0.076575718
0.076575127
0.076574567
0.076574031
0.076573508
0.076573003
0.076572518
0.076572054
0.076571616
0.076571197
0.076570797
0.076570416
0.076570052
0.076569711
0.076569386
0.076569072
0.076568785
0.076568521
0.076568315
0.076568168
0.07656796
0.076567708
0.076567504
0.076567363
0.076567339
0.076567346
0.076567199
0.076566998
0.076566902
0.076566898
0.076566914
0.076566881
0.076566826
0.076566817
0.076566824
0.076566832
0.076566865
0.07656692
0.076566998
0.076567106
0.076567239
0.076567392
0.076567567
0.076567762
0.076567975
0.076568208
0.076568458
0.076568727
0.076569013
0.076569317
0.076569639
0.076569978
0.076570336
0.076570711
0.076571104
0.076571514
0.076571945
0.076572396
0.076572868
0.076573366
0.076573888
0.076574439
0.076575008
0.076575592
0.076576183
0.076576727
0.076577224
0.076577784
0.076578431
0.076579097
0.076579746
0.076580407
0.076581106
0.076581826
0.076582558
0.076583307
0.076584077
0.076584863
0.076585667
0.076586487
0.076587327
0.076588183
0.07658906
0.076589957
0.076590877
0.076591826
0.076592803
0.076593815
0.076594857
0.076595912
0.076596966
0.076597972
0.076598864
0.076599758
0.076600798
0.076601983
0.076603187
0.076604299
0.07660538
0.076606525
0.076607724
0.076608929
0.076610145
0.076611381
0.076612643
0.076613922
0.076615221
0.076616545
0.076617894
0.076619277
0.076620693
0.076622143
0.076623632
0.076625146
0.076626656
0.076628118
0.076629461
0.076630719
0.076632077
0.076633668
0.076635411
0.076637105
0.076638626
0.076640145
0.076641777
0.076643483
0.076645175
0.076646872
0.076648596
0.076650358
0.076652151
0.076653965
0.076655816
0.076657713
0.076659652
0.076661628
0.076663627
0.076665617
0.076667547
0.076669367
0.076671114
0.076672943
0.076675001
0.07667727
0.076679555
0.076681665
0.076683675
0.076685788
0.076688025
0.076690298
0.076692553
0.076694821
0.076697144
0.076699513
0.076701919
0.076704369
0.076706866
0.076709407
0.076711977
0.076714546
0.076717067
0.076719497
0.07672186
0.07672427
0.076726884
0.076729744
0.076732708
0.07673553
0.076738185
0.076740887
0.076743754
0.076746717
0.07674967
0.076752617
0.076755614
0.076758678
0.076761796
0.076764961
0.076768175
0.076771432
0.076774714
0.076777988
0.076781209
0.076784364
0.0767875
0.076790745
0.076794227
0.076797946
0.07680169
0.076805235
0.076808666
0.076812221
0.076815974
0.076819796
0.076823586
0.076827385
0.076831261
0.07683522
0.076839235
0.076843296
0.076847399
0.076851536
0.07685568
0.076859806
0.076863906
0.076868019
0.076872218
0.0768766
0.076881184
0.076885839
0.07689039
0.076894832
0.076899348
0.076904045
0.076908852
0.076913662
0.076918476
0.076923354
0.076928324
0.076933365
0.076938452
0.076943579
0.076948739
0.076953918
0.076959101
0.076964303
0.076969558
0.076974925
0.076980458
0.07698613
0.076991827
0.076997446
0.077003044
0.077008759
0.07701463
0.077020578
0.077026536
0.077032524
0.077038592
0.07704475
0.077050974
0.077057242
0.077063554
0.077069904
0.077076285
0.077082702
0.077089177
0.077095748
0.077102454
0.077109291
0.077116185
0.077123052
0.077129906
0.07713685
0.077143943
0.077151135
0.077158357
0.077165609
0.077172934
0.077180354
0.077187847
0.077195392
0.077202984
0.077210628
0.077218327
0.077226088
0.077233928
0.077241866
0.077249915
0.077258055
0.077266243
0.077274448
0.077282699
0.07729105
0.077299517
0.077308065
0.077316661
0.077325313
0.077334045
0.077342864
0.077351755
0.077360706
0.077369718
0.077378795
0.077387946
0.077397181
0.07740651
0.077415939
0.077425457
0.077435039
0.077444665
0.077454349
0.077464129
0.07747402
0.077483998
0.077494038
0.077504143
0.077514331
0.077524608
0.077534964
0.077545393
0.077555894
0.077566476
0.077577144
0.077587904
0.077598759
0.077609708
0.07762074
0.07763184
0.077643009
0.077654265
0.077665626
0.077677086
0.077688626
0.077700242
0.077711942
0.077723735
0.077735619
0.077747587
0.07775964
0.077771783
0.077784023
0.077796361
0.077808796
0.077821324
0.077833941
0.077846643
0.077859435
0.077872327
0.077885323
0.077898418
0.077911603
0.077924879
0.077938252
0.077951727
0.0779653
0.077978971
0.077992741
0.078006614
0.078020592
0.078034676
0.078048863
0.078063151
0.078077537
0.078092026
0.078106625
0.078121335
0.078136154
0.078151076
0.078166104
0.078181242
0.078196491
0.078211852
0.078227323
0.078242907
0.078258606
0.078274422
0.078290353
0.0783064
0.078322562
0.07833884
0.078355238
0.078371761
0.07838841
0.078405185
0.07842209
0.078439134
0.078456333
0.078473705
0.078491276
0.078509079
0.078527159
0.078545571
0.078564369
0.078583603
0.078603309
0.078623498
0.078644151
0.078665213
0.078686601
0.078708228
0.078730028
0.078751971
0.078774068
0.078796354
0.078818857
0.078841574
0.078864462
0.078887437
0.078910406
0.078933361
0.078956432
0.07897977
0.079003335
0.079026861
0.079050156
0.079073391
0.079096935
0.079120913
0.079145068
0.079169153
0.079193356
0.079218107
0.079243548
0.079269334
0.079295094
0.079320894
0.079347114
0.079373902
0.079400969
0.079427973
0.079454966
0.079482281
0.079510047
0.079538012
0.079565878
0.079593643
0.079621518
0.079649636
0.079677978
0.079706527
0.079735297
0.079764224
0.079793188
0.079822231
0.079851632
0.079881637
0.079912168
0.079942957
0.079973957
0.080005488
0.080037846
0.080070883
0.080104134
0.08013736
0.080170794
0.080204786
0.080239328
0.080274091
0.080308877
0.080343849
0.08037925
0.080415077
0.080451158
0.080487459
0.080524143
0.080561312
0.080598825
0.080636496
0.080674375
0.080712751
0.080751825
0.080791497
0.080831552
0.080872003
0.080913148
0.080955247
0.080998235
0.081041874
0.081086128
0.081131252
0.081177479
0.08122472
0.081272718
0.081321428
0.081371098
0.081421935
0.081473855
0.081526651
0.081580319
0.081635077
0.081691097
0.081748355
0.081806772
0.081866406
0.081927417
0.081989905
0.082053883
0.082119372
0.082186457
0.082255196
0.082325579
0.082397602
0.082471367
0.082547034
0.0826247
0.082704371
0.082786059
0.082869862
0.082955918
0.083044331
0.083135175
0.083228551
0.08332461
0.083423532
0.083525498
0.083630671
0.083739167
0.083851058
0.083966418
0.084085347
0.084207935
0.084334259
0.084464445
0.084598689
0.084737165
0.084879899
0.08502682
0.085177916
0.08533331
0.085493176
0.08565768
0.085827036
0.086001594
0.086181824
0.086368206
0.086561129
0.086760882
0.086967688
0.087181724
0.08740314
0.087632109
0.087868817
0.088113385
0.088365901
0.088626617
0.088895978
0.089174317
0.089461618
0.089757738
0.09006282
0.090377353
0.090701915
0.091037007
0.091383174
0.091741112
0.092111553
0.092495041
0.092891801
0.093301839
0.093725161
0.094161984
0.094612848
0.095078561
0.095559911
0.096057351
0.096571061
0.097101394
0.097649104
0.098215017
0.098799586
0.099402926
0.10002524
0.1006671
0.10132944
0.10201329
0.10271963
0.10344912
0.10420212
0.10497887
0.10577971
0.1066052
0.10745604
0.10833315
0.10923759
0.11017042
0.11113248
0.1121244
0.11314686
0.11420065
0.1152865
0.116405
0.11755676
0.11874275
0.1199643
0.12122274
0.12251903
0.12385371
0.12522735
0.126641
0.12809602
0.12959365
0.13113476
0.13272017
0.13435096
0.13602828
0.13775295
0.13952575
0.14134791
0.1432213
0.14514763
0.14712785
0.1491624
0.15125209
0.15339842
0.15560318
0.15786791
0.16019382
0.16258186
0.16503295
0.16754828
0.1701296
0.17277908
0.1754986
0.1782892
0.18115133
0.18408568
0.18709383
0.19017793
0.19334005
0.19658173
0.1999042
0.20330879
0.20679714
0.21037096
0.21403182
0.21778115
0.22162042
0.22555126
0.22957544
0.23369468
0.23791065
0.24222494
0.24663919
0.25115512
0.25577454
0.26049926
0.26533093
0.27027102
0.27532106
0.28048287
0.28575858
0.2911503
0.29665978
0.30228846
0.30803778
0.31390945
0.31990544
0.32602782
0.33227852
0.33865934
0.34517199
0.35181816
0.3585996
0.36551812
0.37257564
0.37977406
0.38711526
0.39460102
0.40223306
0.41001314
0.41794303
0.42602455
0.4342596
0.44265014
0.45119804
0.45990496
0.46877246
0.47780224
0.48699623
0.49635644
0.50588466
0.51558242
0.52545124
0.53549291
0.54570939
0.55610253
0.56667391
0.57742494
0.58835715
0.59947238
0.61077253
0.62225928
0.63393408
0.64579829
0.65785344
0.67010125
0.68254345
0.69518155
0.70801692
0.72105092
0.73428504
0.74772082
0.76135971
0.77520301
0.78925198
0.80350805
0.81797268
0.83264728
0.84753308
0.86263122
0.87794288
0.89346927
0.90921158
0.92517098
0.94134866
0.95774581
0.97436358
0.99120291
1.0082646
1.0255497
1.0430593
1.0607944
1.0787561
1.096945
1.1153619
1.1340075
1.1528828
1.1719887
1.1913261
1.2108955
1.2306974
1.2507323
1.2710011
1.2915045
1.3122431
1.3332173
1.3544275
1.375874
1.3975574
1.4194783
1.4416372
1.4640341
1.4866694
1.5095433
1.5326561
1.5560081
1.5795994
1.6034303
1.6275008
1.6518113
1.6763616
1.7011518
1.7261818
1.7514515
1.7769611
1.8027106
1.8286999
1.8549287
1.8813967
1.9081038
1.93505
1.962235
1.9896586
2.0173204
2.0452199
2.0733568
2.1017307
2.1303416
2.1591888
2.1882719
2.2175902
2.2471432
2.2769305
2.3069518
2.3372063
2.3676935
2.3984124
2.4293626
2.4605434
2.4919543
2.5235946
2.5554634
2.5875598
2.619883
2.6524324
2.6852072
2.7182066
2.7514296
2.7848752
2.8185425
2.8524308
2.8865393
2.9208671
2.9554131
2.990176
3.0251547
3.0603483
3.095756
3.1313768
3.1672097
3.2032534
3.2395069
3.2759689
3.3126384
3.3495141
3.3865951
3.4238801
3.461368
3.4990576
3.5369476
3.5750368
3.6133241
3.6518082
3.690488
3.7293621
3.768429
3.8076876
3.8471367
3.8867752
3.9266015
3.9666144
4.0068124
4.0471942
4.0877587
4.1285046
4.1694304
4.2105347
4.2518161
4.2932732
4.3349048
4.3767097
4.4186863
4.4608331
4.5031487
4.5456317
4.5882808
4.6310948
4.6740723
4.7172116
4.7605113
4.8039699
4.8475861
4.8913585
4.9352858
4.9793666
5.0235993
5.0679824
5.1125144
5.1571941
5.20202
5.2469907
5.2921048
5.3373608
5.382757
5.4282921
5.4739647
5.5197736
5.5657174
5.6117944
5.6580031
5.7043421
5.7508098
5.7974049
5.8441262
5.8909722
5.9379414
5.9850323
6.0322434
6.0795734
6.1270208
6.1745842
6.2222622
6.2700533
6.3179562
6.3659694
6.4140914
6.4623209
6.5106564
6.5590967
6.6076403
6.6562857
6.7050315
6.7538761
6.8028183
6.8518568
6.9009902
6.9502172
6.9995363
7.0489459
7.0984446
7.1480313
7.1977044
7.2474629
7.2973052
7.34723
7.3972357
7.447321
7.4974846
7.5477252
7.5980415
7.6484322
7.6988958
7.7494309
7.8000361
7.8507103
7.9014521
7.9522603
8.0031334
8.0540701
8.105069
8.1561287
8.2072482
8.2584261
8.3096612
8.360952
8.4122971
8.4636953
8.5151453
8.566646
8.618196
8.6697941
8.7214389
8.7731289
8.8248631
8.8766402
8.9284591
8.9803183
9.0322167
9.0841528
9.1361254
9.1881333
9.2401755
9.2922505
9.3443571
9.3964941
9.4486601
9.500854
9.5530745
9.6053206
9.6575908
9.709884
9.7621989
9.8145343
9.8668891
9.919262
9.9716517
10.024057
10.076477
10.12891
10.181355
10.233812
10.286277
10.338752
10.391233
10.443721
10.496213
10.54871
10.601209
10.653709
10.706209
10.758708
10.811206
10.863699
10.916189
10.968672
11.021149
11.073617
11.126077
11.178526
11.230964
11.283388
11.335799
11.388195
11.440575
11.492937
11.545281
11.597606
11.649909
11.702191
11.754449
11.806684
11.858893
11.911075
11.96323
12.015356
12.067452
12.119517
12.171549
12.223549
12.275514
12.327443
12.379335
12.431189
12.483005
12.53478
12.586514
12.638205
12.689853
12.741456
12.793013
12.844524
12.895986
12.947399
12.998762
13.050073
13.101331
13.152536
13.203685
13.254779
13.305816
13.356794
13.407713
13.458572
13.509369
13.560103
13.610773
13.661379
13.711918
13.76239
13.812793
13.863127
13.913391
13.963582
14.013701
14.063746
14.113716
14.163609
14.213426
14.263164
14.312822
14.362399
14.411895
14.461308
14.510637
14.55988
14.609037
14.658107
14.707089
14.75598
14.804782
14.853491
14.902107
14.950629
14.999056
15.047387
15.09562
15.143755
15.19179
15.239724
15.287557
15.335286
15.382912
15.430432
15.477846
15.525153
15.572351
15.61944
15.666418
15.713284
15.760037
15.806676
15.853201
15.899609
15.9459
15.992072
16.038125
16.084058
16.129869
16.175557
16.221121
16.266561
16.311875
16.357061
16.40212
16.447049
16.491848
16.536516
16.581052
16.625454
16.669722
16.713854
16.75785
16.801708
16.845427
16.889007
16.932445
16.975742
17.018897
17.061907
17.104772
17.147492
17.190064
17.232489
17.274765
17.316891
17.358865
17.400688
17.442358
17.483874
17.525235
17.56644
17.607488
17.648379
17.68911
17.729682
17.770093
17.810343
17.85043
17.890353
17.930112
17.969705
18.009133
18.048393
18.087485
18.126408
18.165161
18.203743
18.242154
18.280392
18.318457
18.356348
18.394064
18.431604
18.468967
18.506153
18.54316
18.579989
18.616637
18.653105
18.689391
18.725496
18.761417
18.797154
18.832707
18.868076
18.903258
18.938253
18.973062
19.007682
19.042114
19.076357
19.11041
19.144272
19.177943
19.211423
19.24471
19.277804
19.310705
19.343412
19.375924
19.408241
19.440363
19.472288
19.504016
19.535548
19.566882
19.598018
19.628955
19.659694
19.690233
19.720572
19.750712
19.78065
19.810389
19.839925
19.869261
19.898395
19.927326
19.956055
19.984582
20.012906
20.041027
20.068944
20.096658
20.124168
20.151475
20.178577
20.205475
20.23217
20.25866
20.284945
20.311026
20.336902
20.362574
20.388042
20.413305
20.438363
20.463217
20.487866
20.512311
20.536552
20.560589
20.584422
20.608051
20.631476
20.654698
20.677716
20.700532
20.723144
20.745554
20.767762
20.789767
20.811571
20.833174
20.854575
20.875776
20.896776
20.917577
20.938178
20.95858
20.978783
20.998789
21.018596
21.038207
21.057621
21.076838
21.095861
21.114688
21.133321
21.15176
21.170006
21.18806
21.205921
21.223592
21.241072
21.258362
21.275464
21.292377
21.309102
21.325641
21.341994
21.358162
21.374145
21.389945
21.405562
21.420997
21.436252
21.451326
21.466221
21.480938
21.495478
21.509842
21.52403
21.538044
21.551884
21.565552
21.579048
21.592375
21.605532
21.61852
21.631342
21.643997
21.656487
21.668814
21.680977
21.692979
21.70482
21.716501
21.728025
21.739391
21.750601
21.761656
21.772557
21.783306
21.793904
21.804351
21.81465
21.824801
21.834806
21.844665
21.85438
21.863953
21.873384
21.882674
21.891826
21.90084
21.909718
21.91846
21.927068
21.935544
21.943888
21.952102
21.960187
21.968145
21.975976
21.983682
21.991265
21.998725
22.006064
22.013284
22.020385
22.027368
22.034236
22.040988
22.047628
22.054155
22.060572
22.066879
22.073077
22.079169
22.085155
22.091036
22.096815
22.102491
22.108067
22.113544
22.118922
22.124204
22.129389
22.134481
22.139479
22.144385
22.149201
22.153927
22.158565
22.163116
22.167581
22.171961
22.176258
22.180472
22.184605
22.188659
22.192633
22.19653
22.20035
22.204095
22.207766
22.211363
22.214889
22.218344
22.221728
22.225044
22.228293
22.231474
22.234591
22.237642
22.24063
22.243556
22.246421
22.249225
22.251969
22.254655
22.257284
22.259857
22.262373
22.264836
22.267244
22.269601
22.271905
22.274158
22.276362
22.278517
22.280623
22.282682
22.284695
22.286662
22.288585
22.290463
22.292299
22.294092
22.295844
22.297555
22.299226
22.300858
22.302452
22.304008
22.305527
22.30701
22.308457
22.30987
22.311249
22.312594
22.313907
22.315188
22.316437
22.317656
22.318845
22.320004
22.321134
22.322236
22.323311
22.324358
22.325379
22.326374
22.327344
22.328289
22.32921
22.330107
22.330981
22.331832
22.332661
22.333468
22.334254
22.33502
22.335765
22.336491
22.337197
22.337884
22.338553
22.339204
22.339838
22.340454
22.341053
22.341636
22.342203
22.342755
22.343291
22.343813
22.34432
22.344813
22.345292
22.345757
22.34621
22.34665
22.347077
22.347492
22.347895
22.348287
22.348667
22.349037
22.349396
22.349744
22.350082
22.350411
22.350729
22.351039
22.351339
22.35163
22.351913
22.352187
22.352453
22.352711
22.352961
22.353204
22.353439
22.353668
22.353889
22.354103
22.354311
22.354513
22.354708
22.354897
22.35508
22.355258
22.35543
22.355597
22.355758
22.355915
22.356066
22.356212
22.356354
22.356492
22.356625
22.356753
22.356878
22.356998
22.357115
22.357227
22.357336
22.357442
22.357544
22.357642
22.357738
22.35783
22.357919
22.358005
22.358088
22.358169
22.358246
22.358321
22.358394
22.358464
22.358531
22.358597
22.35866
22.358721
22.358779
22.358836
22.358891
22.358944
22.358995
22.359044
22.359091
22.359137
22.359181
22.359223
22.359264
22.359304
22.359342
22.359379
22.359414
22.359448
22.359481
22.359513
22.359543
22.359572
22.359601
22.359628
22.359654
22.359679
22.359703
22.359726
22.359749
22.35977
22.359791
22.359811
22.35983
22.359849
22.359866
22.359883
22.359899
22.359915
22.35993
22.359945
22.359959
22.359972
22.359985
22.359997
22.360009
22.36002
22.360031
22.360041
22.360051
22.360061
22.36007
22.360079
22.360087
22.360095
22.360103
22.36011
22.360117
22.360124
22.36013
22.360136
22.360142
22.360148
22.360153
22.360159
22.360163
22.360168
22.360173
22.360177
22.360181
22.360185
22.360189
22.360192
22.360196
22.360199
22.360202
22.360205
22.360208
22.36021
22.360213
22.360215
22.360218
22.36022
22.360222
22.360224
22.360226
22.360228
22.360229
22.360231
22.360233
22.360234
22.360235
22.360237
22.360238
22.360239
22.36024
22.360241
22.360242
22.360243
22.360244
22.360245
22.360246
22.360247
22.360247
22.360248
22.360249
22.360249
22.36025
22.36025
22.360251
22.360251
22.360252
22.360252
22.360253
22.360253
22.360253
22.360254
22.360254
22.360254
22.360255
22.360255
22.360255
22.360255
22.360255
22.360256
22.360256
22.360256
22.360256
22.360256
22.360256
22.360256
22.360256
22.360257
22.360257
22.360257
22.360257
22.360257
22.360257
22.360257
22.360257
22.360257
22.360257
22.360257
22.360257
22.360257
22.360256
22.360256
22.360256
22.360256
22.360256
22.360256
22.360256
22.360256
22.360256
22.360256
22.360256
22.360256
22.360255
22.360255
22.360255
22.360255
22.360255
22.360255
22.360255
22.360254
22.360254
22.360254
22.360254
22.360254
22.360254
22.360253
22.360253
22.360253
22.360253
22.360253
22.360252
22.360252
22.360252
22.360252
22.360252
22.360251
22.360251
22.360251
22.360251
22.36025
22.36025
22.36025
22.36025
22.36025
22.360249
22.360249
22.360249
22.360249
22.360248
22.360248
22.360248
22.360248
22.360247
22.360247
22.360247
22.360247
22.360246
22.360246
22.360246
22.360245
22.360245
22.360245
22.360245
22.360244
22.360244
22.360244
22.360244
22.360243
22.360243
22.360243
22.360242
22.360242
22.360242
22.360242
22.360241
22.360241
22.360241
22.360241
22.36024
22.36024
22.36024
22.360239
22.360239
22.360239
22.360239
22.360238
22.360238
22.360238
22.360237
22.360237
22.360237
22.360237
22.360236
22.360236
22.360236
22.360235
22.360235
22.360235
22.360234
22.360234
22.360234
22.360234
22.360233
22.360233
22.360233
22.360232
22.360232
22.360232
22.360231
22.360231
22.360231
22.360231
22.36023
22.36023
22.36023
22.360229
22.360229
22.360229
22.360228
22.360228
22.360228
22.360228
22.360227
22.360227
22.360227
22.360226
22.360226
22.360226
22.360225
22.360225
22.360225
22.360225
22.360224
22.360224
22.360223
22.360223
22.360223
22.360223
22.360222
22.360222
22.360222
22.360221
22.360221
22.360221
22.360221
22.36022
22.36022
22.36022
22.360219
22.360219
22.360219
22.360218
22.360218
22.360218
22.360217
22.360217
22.360217
22.360216
22.360216
22.360216
22.360216
22.360215
22.360215
22.360215
22.360214
22.360214
22.360214
22.360214
22.360213
22.360213
22.360213
22.360212
22.360212
22.360212
22.360211
22.360211
22.360211
22.36021
22.36021
22.36021
22.36021
22.360209
22.360209
22.360209
22.360208
22.360208
22.360208
22.360208
22.360207
22.360207
22.360207
22.360206
22.360206
22.360206
22.360205
22.360205
22.360205
22.360205
22.360204
22.360204
22.360204
22.360203
22.360203
22.360203
22.360203
22.360202
22.360202
22.360202
22.360201
22.360201
22.360201
22.360201
22.3602
22.3602
22.3602
22.360199
22.360199
22.360199
22.360199
22.360198
22.360198
22.360198
22.360198
22.360197
22.360197
22.360197
22.360196
22.360196
22.360196
22.360196
22.360195
22.360195
22.360195
22.360195
22.360194
22.360194
22.360194
22.360194
22.360193
22.360193
22.360193
22.360193
22.360192
22.360192
22.360192
22.360192
22.360191
22.360191
22.360191
22.360191
22.36019
22.36019
22.36019
22.36019
22.360189
22.360189
22.360189
22.360189
22.360189
22.360188
22.360188
22.360188
22.360188
22.360187
22.360187
22.360187
22.360187
22.360187
22.360186
22.360186
22.360186
22.360186
22.360186
22.360185
22.360185
22.360185
22.360185
22.360185
22.360184
22.360184
22.360184
22.360184
22.360184
22.360183
22.360183
22.360183
22.360183
22.360183
22.360182
22.360182
22.360182
22.360182
22.360182
22.360182
22.360181
22.360181
22.360181
22.360181
22.360181
22.36018
22.36018
22.36018
22.36018
22.36018
22.36018
22.360179
22.360179
22.360179
22.360179
22.360179
22.360178
22.360178
22.360178
22.360178
22.360178
22.360178
22.360177
22.360177
22.360177
22.360177
22.360176
22.360176
22.360176
22.360176
22.360176
22.360175
22.360175
22.360175
22.360175
22.360175
22.360174
22.360174
22.360174
22.360174
22.360173
22.360173
22.360173
22.360173
22.360173
22.360172
22.360172
22.360172
22.360172
22.360171
22.360171
22.360171
22.360171
22.36017
22.36017
22.36017
22.36017
22.360169
22.360169
22.360169
22.360168
22.360168
22.360168
22.360168
22.360167
22.360167
22.360167
22.360166
22.360166
22.360166
22.360165
22.360165
22.360165
22.360165
22.360164
22.360164
22.360164
22.360163
22.360163
22.360163
22.360162
22.360162
22.360162
22.360161
22.360161
22.360161
22.36016
22.36016
22.36016
22.360159
22.360159
22.360159
22.360158
22.360158
22.360158
22.360157
22.360157
22.360157
22.360156
22.360156
22.360156
22.360155
22.360155
22.360155
22.360154
22.360154
22.360153
22.360153
22.360153
22.360152
22.360152
22.360152
22.360151
22.360151
22.360151
22.36015
22.36015
22.36015
22.360149
22.360149
22.360149
22.360148
22.360148
22.360148
22.360147
22.360147
22.360147
22.360146
22.360146
22.360145
22.360145
22.360145
22.360144
22.360144
22.360144
22.360143
22.360143
22.360143
22.360142
22.360142
22.360142
22.360141
22.360141
22.360141
22.36014
22.36014
22.36014
22.360139
22.360139
22.360139
22.360139
22.360138
22.360138
22.360138
22.360137
22.360137
22.360137
22.360136
22.360136
22.360136
22.360135
22.360135
22.360135
22.360135
22.360134
22.360134
22.360134
22.360133
22.360133
22.360133
22.360133
22.360132
22.360132
22.360132
22.360131
22.360131
22.360131
22.360131
22.36013
22.36013
22.36013
22.36013
22.360129
22.360129
22.360129
22.360129
22.360128
22.360128
22.360128
22.360127
22.360127
22.360127
22.360127
22.360127
22.360126
22.360126
22.360126
22.360126
22.360125
22.360125
22.360125
22.360125
22.360124
22.360124
22.360124
22.360124
22.360123
22.360123
22.360123
22.360123
22.360123
22.360122
22.360122
22.360122
22.360122
22.360122
22.360121
22.360121
22.360121
22.360121
22.360121
22.36012
22.36012
22.36012
22.36012
22.36012
22.360119
22.360119
22.360119
22.360119
22.360119
22.360118
22.360118
22.360118
22.360118
22.360118
22.360118
22.360117
22.360117
22.360117
22.360117
22.360117
22.360117
22.360116
22.360116
22.360116
22.360116
22.360116
22.360116
22.360115
22.360115
22.360115
22.360115
22.360115
22.360114
22.360114
22.360114
22.360114
22.360114
22.360114
22.360113
22.360113
22.360113
22.360113
22.360113
22.360113
22.360112
22.360112
22.360112
22.360112
22.360112
22.360112
22.360111
22.360111
22.360111
22.360111
22.360111
22.36011
22.36011
22.36011
22.36011
22.36011
22.36011
22.360109
22.360109
22.360109
22.360109
22.360109
22.360108
22.360108
22.360108
22.360108
22.360108
22.360107
22.360107
22.360107
22.360107
22.360107
22.360107
22.360106
22.360106
22.360106
22.360106
22.360105
22.360105
22.360105
22.360105
22.360105
22.360104
22.360104
22.360104
22.360104
22.360103
22.360103
22.360103
22.360103
22.360103
22.360102
22.360102
22.360102
22.360102
22.360101
22.360101
22.360101
22.360101
22.3601
22.3601
22.3601
22.3601
22.3601
22.360099
22.360099
22.360099
22.360099
22.360098
22.360098
22.360098
22.360098
22.360097
22.360097
22.360097
22.360097
22.360096
22.360096
22.360096
22.360096
22.360095
22.360095
22.360095
22.360095
22.360095
22.360094
22.360094
22.360094
22.360094
22.360093
22.360093
22.360093
22.360093
22.360092
22.360092
22.360092
22.360092
22.360092
22.360091
22.360091
22.360091
22.360091
22.36009
22.36009
22.36009
22.36009
22.36009
22.360089
22.360089
22.360089
22.360089
22.360088
22.360088
22.360088
22.360088
22.360088
22.360087
22.360087
22.360087
22.360087
22.360087
22.360086
22.360086
22.360086
22.360086
22.360086
22.360085
22.360085
22.360085
22.360085
22.360085
22.360084
22.360084
22.360084
22.360084
22.360084
22.360083
22.360083
22.360083
22.360083
22.360083
22.360083
22.360082
22.360082
22.360082
22.360082
22.360082
22.360081
22.360081
22.360081
22.360081
22.360081
22.360081
22.36008
22.36008
22.36008
22.36008
22.36008
22.36008
22.360079
22.360079
22.360079
22.360079
22.360079
22.360078
22.360078
22.360078
22.360078
22.360078
22.360078
22.360077
22.360077
22.360077
22.360077
22.360077
22.360077
22.360076
22.360076
22.360076
22.360076
22.360076
22.360076
22.360075
22.360075
22.360075
22.360075
22.360075
22.360075
22.360074
22.360074
22.360074
22.360074
22.360074
22.360074
22.360073
22.360073
22.360073
22.360073
22.360073
22.360073
22.360072
22.360072
22.360072
22.360072
22.360072
22.360072
22.360071
22.360071
22.360071
22.360071
22.360071
22.360071
22.36007
22.36007
22.36007
22.36007
22.36007
22.36007
22.360069
22.360069
22.360069
22.360069
22.360069
22.360068
22.360068
22.360068
22.360068
22.360068
22.360068
22.360067
22.360067
22.360067
22.360067
22.360067
22.360066
22.360066
22.360066
22.360066
22.360066
22.360065
22.360065
22.360065
22.360065
22.360065
22.360064
22.360064
22.360064
22.360064
22.360063
22.360063
22.360063
22.360063
22.360062
22.360062
22.360062
22.360062
22.360061
22.360061
22.360061
22.360061
22.36006
22.36006
22.36006
22.36006
22.360059
22.360059
22.360059
22.360058
22.360058
22.360058
22.360058
22.360057
22.360057
22.360057
22.360056
22.360056
22.360056
22.360055
22.360055
22.360055
22.360054
22.360054
22.360054
22.360053
22.360053
22.360053
22.360052
22.360052
22.360052
22.360051
22.360051
22.360051
22.36005
22.36005
22.360049
22.360049
22.360049
22.360048
22.360048
22.360048
22.360047
22.360047
22.360046
22.360046
22.360046
22.360045
22.360045
22.360044
22.360044
22.360044
22.360043
22.360043
22.360042
22.360042
22.360041
22.360041
22.360041
22.36004
22.36004
22.360039
22.360039
22.360039
22.360038
22.360038
22.360037
22.360037
22.360036
22.360036
22.360036
22.360035
22.360035
22.360034
22.360034
22.360033
22.360033
22.360033
22.360032
22.360032
22.360031
22.360031
22.360031
22.36003
22.36003
22.360029
22.360029
22.360029
22.360028
22.360028
22.360027
22.360027
22.360027
22.360026
22.360026
22.360026
22.360025
22.360025
22.360024
22.360024
22.360024
22.360023
22.360023
22.360023
22.360022
22.360022
22.360022
22.360021
22.360021
22.360021
22.36002
22.36002
22.36002
22.36002
22.360019
22.360019
22.360019
22.360018
22.360018
22.360018
22.360018
22.360017
22.360017
22.360017
22.360017
22.360016
22.360016
22.360016
22.360016
22.360015
22.360015
22.360015
22.360015
22.360014
22.360014
22.360014
22.360014
22.360014
22.360013
22.360013
22.360013
22.360013
22.360013
22.360012
22.360012
22.360012
22.360012
22.360012
22.360011
22.360011
22.360011
22.360011
22.360011
22.360011
22.36001
22.36001
22.36001
22.36001
22.36001
22.36001
22.36001
22.360009
22.360009
22.360009
22.360009
22.360009
22.360009
22.360009
22.360009
22.360008
22.360008
22.360008
22.360008
22.360008
22.360008
22.360008
22.360007
22.360007
22.360007
22.360007
22.360007
22.360007
22.360007
22.360007
22.360006
22.360006
22.360006
22.360006
22.360006
22.360006
22.360006
22.360006
22.360006
22.360005
22.360005
22.360005
22.360005
22.360005
22.360005
22.360005
22.360004
22.360004
22.360004
22.360004
22.360004
22.360004
22.360003
22.360003
22.360003
22.360003
22.360003
22.360003
22.360002
22.360002
22.360002
22.360002
22.360002
22.360002
22.360002
22.360002
22.360001
22.360001
22.360001
22.360001
22.360001
22.36
22.36
22.36
22.36
22.36
22.359999
22.359999
22.359999
22.359998
22.359998
22.359998
22.359997
22.359997
22.359998
22.359998
22.359999
22.36
22.360001
22.360002
22.360002
22.360002
22.36
22.359997
22.359993
22.359988
22.359982
22.359977
22.359974
22.359975
22.359984
22.360007
22.360059
22.360183
22.360468
22.361305
22.361095
22.36001
22.359823
22.359973
22.35998
22.359947
22.359935
22.359934
22.359934
22.359937
22.359944
22.359953
22.359963
22.359973
22.359982
22.35999
22.359997
22.360002
22.360006
22.360009
22.360011
22.360013
22.360013
22.360014
22.360014
22.360014
22.360014
22.360014
22.360014
22.360013
22.360013
22.360013
22.360013
22.360013
22.360013
22.360012
22.360012
22.360012
22.360012
22.360012
22.360011
22.360011
22.360009
22.360005
22.360007
22.360011
22.360011
22.360011
22.360011
22.360011
22.360011
22.360011
22.36001
22.36001
22.36001
22.36001
22.36001
22.36001
22.36001
22.36001
22.36001
22.36001
22.360009
22.360009
22.360009
22.360009
22.360009
22.360009
22.360008
22.360008
22.360008
22.360008
22.360008
22.360007
22.360007
22.360007
22.360007
22.360007
22.360006
22.360006
22.360006
22.360006
22.360006
22.360005
22.360005
22.360005
22.360005
22.360005
22.360004
22.360004
22.360004
22.360004
22.360004
22.360003
22.360003
22.360003
22.360003
22.360003
22.360002
22.360002
22.360002
22.360002
22.360001