/*--------------------------------*- C++ -*----------------------------------*\
  =========                 |
  \\      /  F ield         | OpenFOAM: The Open Source CFD Toolbox
   \\    /   O peration     | Website:  https://openfoam.org
    \\  /    A nd           | Version:  7
     \\/     M anipulation  |
\*---------------------------------------------------------------------------*/
FoamFile
{
    version     2.0;
    format      ascii;
    class       volScalarField;
    location    "0.00209";
    object      p;
}
// * * * * * * * * * * * * * * * * * * * * * * * * * * * * * * * * * * * * * //

dimensions      [1 -1 -2 0 0 0 0];

internalField   nonuniform List<scalar> 
5000
(
99788.903
99788.906
99788.907
99788.907
99788.909
99788.91
99788.911
99788.912
99788.913
99788.914
99788.915
99788.916
99788.917
99788.918
99788.919
99788.92
99788.921
99788.922
99788.923
99788.924
99788.925
99788.927
99788.928
99788.929
99788.93
99788.931
99788.932
99788.933
99788.934
99788.935
99788.936
99788.937
99788.938
99788.939
99788.94
99788.941
99788.942
99788.943
99788.944
99788.945
99788.946
99788.947
99788.948
99788.95
99788.951
99788.952
99788.953
99788.954
99788.955
99788.956
99788.957
99788.958
99788.959
99788.96
99788.961
99788.962
99788.963
99788.964
99788.965
99788.966
99788.968
99788.969
99788.97
99788.971
99788.972
99788.973
99788.974
99788.975
99788.976
99788.977
99788.978
99788.979
99788.98
99788.982
99788.983
99788.984
99788.985
99788.986
99788.987
99788.988
99788.989
99788.99
99788.991
99788.992
99788.994
99788.995
99788.996
99788.997
99788.998
99788.999
99789
99789.001
99789.002
99789.004
99789.005
99789.006
99789.007
99789.008
99789.009
99789.01
99789.011
99789.013
99789.014
99789.015
99789.016
99789.017
99789.018
99789.019
99789.021
99789.022
99789.023
99789.024
99789.025
99789.026
99789.028
99789.029
99789.03
99789.031
99789.032
99789.033
99789.035
99789.036
99789.037
99789.038
99789.039
99789.041
99789.042
99789.043
99789.044
99789.046
99789.047
99789.048
99789.049
99789.05
99789.052
99789.053
99789.054
99789.055
99789.057
99789.058
99789.059
99789.06
99789.062
99789.063
99789.064
99789.066
99789.067
99789.068
99789.069
99789.071
99789.072
99789.073
99789.075
99789.076
99789.077
99789.079
99789.08
99789.081
99789.083
99789.084
99789.085
99789.087
99789.088
99789.09
99789.091
99789.092
99789.094
99789.095
99789.097
99789.098
99789.1
99789.101
99789.102
99789.104
99789.105
99789.107
99789.108
99789.11
99789.111
99789.113
99789.114
99789.116
99789.117
99789.119
99789.12
99789.122
99789.124
99789.125
99789.127
99789.128
99789.13
99789.131
99789.133
99789.135
99789.136
99789.138
99789.14
99789.141
99789.143
99789.145
99789.146
99789.148
99789.15
99789.152
99789.153
99789.155
99789.157
99789.159
99789.161
99789.162
99789.164
99789.166
99789.168
99789.17
99789.172
99789.174
99789.175
99789.177
99789.179
99789.181
99789.183
99789.185
99789.187
99789.189
99789.191
99789.193
99789.195
99789.197
99789.2
99789.202
99789.204
99789.206
99789.208
99789.21
99789.212
99789.215
99789.217
99789.219
99789.221
99789.224
99789.226
99789.228
99789.231
99789.233
99789.235
99789.238
99789.24
99789.243
99789.245
99789.247
99789.25
99789.252
99789.255
99789.257
99789.26
99789.263
99789.265
99789.268
99789.27
99789.273
99789.276
99789.279
99789.281
99789.284
99789.287
99789.29
99789.292
99789.295
99789.298
99789.301
99789.304
99789.307
99789.31
99789.313
99789.316
99789.319
99789.322
99789.325
99789.328
99789.331
99789.334
99789.337
99789.341
99789.344
99789.347
99789.35
99789.354
99789.357
99789.36
99789.364
99789.367
99789.37
99789.374
99789.377
99789.381
99789.384
99789.388
99789.391
99789.395
99789.398
99789.402
99789.406
99789.409
99789.413
99789.417
99789.421
99789.425
99789.428
99789.432
99789.436
99789.44
99789.444
99789.448
99789.452
99789.456
99789.46
99789.464
99789.468
99789.472
99789.476
99789.481
99789.485
99789.489
99789.493
99789.498
99789.502
99789.506
99789.511
99789.515
99789.52
99789.524
99789.529
99789.533
99789.538
99789.543
99789.547
99789.552
99789.557
99789.561
99789.566
99789.571
99789.576
99789.581
99789.586
99789.59
99789.595
99789.6
99789.606
99789.611
99789.616
99789.621
99789.626
99789.631
99789.636
99789.642
99789.647
99789.652
99789.658
99789.663
99789.669
99789.674
99789.68
99789.685
99789.691
99789.696
99789.702
99789.708
99789.714
99789.719
99789.725
99789.731
99789.737
99789.743
99789.749
99789.755
99789.761
99789.767
99789.773
99789.779
99789.785
99789.792
99789.798
99789.804
99789.811
99789.817
99789.823
99789.83
99789.836
99789.843
99789.85
99789.856
99789.863
99789.87
99789.877
99789.883
99789.89
99789.897
99789.904
99789.911
99789.918
99789.925
99789.932
99789.94
99789.947
99789.954
99789.962
99789.969
99789.976
99789.984
99789.991
99789.999
99790.007
99790.014
99790.022
99790.03
99790.038
99790.046
99790.053
99790.061
99790.07
99790.078
99790.086
99790.094
99790.102
99790.111
99790.119
99790.127
99790.136
99790.145
99790.153
99790.162
99790.171
99790.179
99790.188
99790.197
99790.206
99790.215
99790.224
99790.234
99790.243
99790.252
99790.262
99790.271
99790.281
99790.29
99790.3
99790.31
99790.32
99790.329
99790.339
99790.35
99790.36
99790.37
99790.38
99790.391
99790.401
99790.411
99790.422
99790.433
99790.444
99790.455
99790.465
99790.477
99790.488
99790.499
99790.51
99790.522
99790.533
99790.545
99790.557
99790.569
99790.581
99790.593
99790.605
99790.617
99790.63
99790.642
99790.655
99790.668
99790.681
99790.694
99790.707
99790.72
99790.734
99790.748
99790.761
99790.776
99790.79
99790.804
99790.819
99790.833
99790.848
99790.863
99790.879
99790.894
99790.91
99790.926
99790.942
99790.958
99790.975
99790.992
99791.009
99791.027
99791.044
99791.062
99791.081
99791.099
99791.118
99791.138
99791.157
99791.177
99791.198
99791.219
99791.24
99791.262
99791.284
99791.306
99791.329
99791.353
99791.377
99791.401
99791.427
99791.452
99791.479
99791.506
99791.533
99791.562
99791.59
99791.62
99791.651
99791.682
99791.714
99791.747
99791.781
99791.815
99791.851
99791.888
99791.925
99791.964
99792.004
99792.045
99792.087
99792.131
99792.175
99792.221
99792.269
99792.318
99792.368
99792.42
99792.473
99792.529
99792.586
99792.644
99792.705
99792.767
99792.832
99792.899
99792.967
99793.038
99793.112
99793.187
99793.265
99793.346
99793.429
99793.516
99793.605
99793.696
99793.791
99793.889
99793.991
99794.096
99794.204
99794.316
99794.431
99794.551
99794.674
99794.802
99794.934
99795.07
99795.211
99795.356
99795.507
99795.662
99795.822
99795.988
99796.16
99796.337
99796.519
99796.708
99796.903
99797.105
99797.313
99797.528
99797.75
99797.98
99798.216
99798.461
99798.713
99798.974
99799.243
99799.52
99799.807
99800.102
99800.407
99800.722
99801.047
99801.382
99801.727
99802.083
99802.451
99802.829
99803.22
99803.623
99804.038
99804.465
99804.906
99805.36
99805.828
99806.31
99806.807
99807.318
99807.845
99808.387
99808.945
99809.52
99810.112
99810.72
99811.347
99811.991
99812.655
99813.337
99814.038
99814.76
99815.501
99816.264
99817.048
99817.854
99818.682
99819.533
99820.407
99821.305
99822.228
99823.175
99824.148
99825.146
99826.172
99827.224
99828.304
99829.413
99830.55
99831.717
99832.913
99834.141
99835.399
99836.689
99838.012
99839.368
99840.758
99842.182
99843.641
99845.136
99846.667
99848.236
99849.842
99851.486
99853.169
99854.892
99856.656
99858.461
99860.307
99862.196
99864.129
99866.105
99868.126
99870.193
99872.305
99874.465
99876.672
99878.928
99881.233
99883.587
99885.992
99888.449
99890.958
99893.519
99896.135
99898.804
99901.529
99904.31
99907.147
99910.042
99912.996
99916.008
99919.08
99922.212
99925.406
99928.662
99931.98
99935.362
99938.809
99942.321
99945.898
99949.542
99953.254
99957.033
99960.882
99964.8
99968.788
99972.848
99976.979
99981.183
99985.46
99989.811
99994.237
99998.738
100003.32
100007.97
100012.7
100017.51
100022.4
100027.37
100032.42
100037.55
100042.76
100048.05
100053.43
100058.89
100064.43
100070.06
100075.77
100081.57
100087.46
100093.43
100099.49
100105.64
100111.88
100118.21
100124.63
100131.13
100137.73
100144.42
100151.2
100158.08
100165.04
100172.1
100179.26
100186.5
100193.85
100201.28
100208.82
100216.45
100224.17
100231.99
100239.91
100247.93
100256.04
100264.25
100272.56
100280.96
100289.47
100298.08
100306.78
100315.58
100324.49
100333.49
100342.59
100351.8
100361.1
100370.51
100380.01
100389.62
100399.33
100409.14
100419.05
100429.06
100439.17
100449.39
100459.71
100470.13
100480.65
100491.27
100501.99
100512.82
100523.75
100534.77
100545.91
100557.14
100568.47
100579.91
100591.44
100603.08
100614.82
100626.66
100638.61
100650.65
100662.79
100675.03
100687.38
100699.82
100712.37
100725.01
100737.75
100750.6
100763.54
100776.58
100789.72
100802.96
100816.29
100829.73
100843.26
100856.89
100870.61
100884.43
100898.35
100912.36
100926.47
100940.68
100954.98
100969.37
100983.86
100998.44
101013.12
101027.89
101042.75
101057.71
101072.75
101087.89
101103.12
101118.43
101133.84
101149.34
101164.93
101180.61
101196.37
101212.22
101228.16
101244.19
101260.3
101276.5
101292.79
101309.16
101325.61
101342.15
101358.77
101375.48
101392.27
101409.14
101426.09
101443.12
101460.23
101477.42
101494.69
101512.04
101529.47
101546.98
101564.56
101582.22
101599.95
101617.76
101635.65
101653.61
101671.65
101689.75
101707.93
101726.18
101744.51
101762.9
101781.37
101799.9
101818.51
101837.18
101855.92
101874.73
101893.61
101912.55
101931.55
101950.63
101969.77
101988.97
102008.23
102027.56
102046.95
102066.4
102085.92
102105.49
102125.12
102144.82
102164.57
102184.38
102204.24
102224.17
102244.15
102264.19
102284.28
102304.43
102324.63
102344.88
102365.19
102385.55
102405.96
102426.43
102446.94
102467.5
102488.12
102508.78
102529.49
102550.25
102571.05
102591.9
102612.8
102633.74
102654.73
102675.76
102696.84
102717.96
102739.12
102760.32
102781.57
102802.85
102824.18
102845.54
102866.95
102888.39
102909.87
102931.39
102952.95
102974.54
102996.17
103017.83
103039.53
103061.26
103083.02
103104.82
103126.65
103148.51
103170.41
103192.33
103214.29
103236.27
103258.28
103280.33
103302.4
103324.49
103346.62
103368.77
103390.94
103413.15
103435.37
103457.62
103479.9
103502.19
103524.51
103546.86
103569.22
103591.6
103614.01
103636.43
103658.88
103681.34
103703.82
103726.32
103748.84
103771.37
103793.92
103816.49
103839.07
103861.66
103884.27
103906.89
103929.53
103952.18
103974.84
103997.51
104020.19
104042.89
104065.59
104088.3
104111.03
104133.76
104156.5
104179.24
104201.99
104224.75
104247.52
104270.29
104293.06
104315.84
104338.62
104361.41
104384.2
104406.99
104429.78
104452.58
104475.37
104498.17
104520.97
104543.76
104566.55
104589.34
104612.13
104634.92
104657.7
104680.48
104703.26
104726.03
104748.79
104771.55
104794.3
104817.05
104839.79
104862.52
104885.24
104907.95
104930.66
104953.35
104976.04
104998.71
105021.37
105044.02
105066.66
105089.28
105111.89
105134.49
105157.07
105179.64
105202.19
105224.73
105247.25
105269.75
105292.24
105314.7
105337.15
105359.58
105381.99
105404.39
105426.76
105449.11
105471.43
105493.74
105516.02
105538.28
105560.52
105582.73
105604.92
105627.09
105649.22
105671.34
105693.42
105715.48
105737.51
105759.51
105781.49
105803.43
105825.35
105847.23
105869.09
105890.91
105912.7
105934.46
105956.19
105977.88
105999.54
106021.17
106042.76
106064.32
106085.84
106107.32
106128.77
106150.18
106171.55
106192.89
106214.18
106235.44
106256.65
106277.83
106298.97
106320.06
106341.11
106362.12
106383.09
106404.01
106424.89
106445.73
106466.52
106487.26
106507.96
106528.61
106549.22
106569.78
106590.29
106610.75
106631.16
106651.52
106671.84
106692.1
106712.31
106732.47
106752.58
106772.64
106792.64
106812.59
106832.48
106852.32
106872.11
106891.84
106911.51
106931.13
106950.69
106970.19
106989.64
107009.02
107028.35
107047.62
107066.83
107085.97
107105.06
107124.09
107143.05
107161.95
107180.79
107199.56
107218.27
107236.92
107255.5
107274.02
107292.47
107310.86
107329.17
107347.42
107365.61
107383.72
107401.77
107419.75
107437.66
107455.5
107473.26
107490.96
107508.59
107526.14
107543.63
107561.04
107578.38
107595.64
107612.83
107629.95
107646.99
107663.96
107680.85
107697.66
107714.4
107731.07
107747.65
107764.16
107780.59
107796.94
107813.22
107829.41
107845.53
107861.57
107877.52
107893.4
107909.19
107924.91
107940.54
107956.09
107971.56
107986.95
108002.25
108017.47
108032.61
108047.66
108062.63
108077.52
108092.32
108107.04
108121.67
108136.21
108150.67
108165.05
108179.34
108193.54
108207.65
108221.68
108235.62
108249.47
108263.24
108276.92
108290.51
108304.01
108317.42
108330.75
108343.98
108357.13
108370.19
108383.16
108396.04
108408.83
108421.53
108434.14
108446.66
108459.09
108471.43
108483.68
108495.84
108507.91
108519.89
108531.77
108543.57
108555.28
108566.89
108578.42
108589.85
108601.2
108612.45
108623.61
108634.68
108645.66
108656.55
108667.35
108678.06
108688.67
108699.2
108709.64
108719.98
108730.24
108740.4
108750.47
108760.46
108770.35
108780.16
108789.87
108799.49
108809.03
108818.47
108827.83
108837.1
108846.28
108855.37
108864.37
108873.28
108882.1
108890.84
108899.49
108908.05
108916.52
108924.91
108933.21
108941.43
108949.55
108957.6
108965.55
108973.42
108981.21
108988.91
108996.53
109004.06
109011.51
109018.88
109026.16
109033.36
109040.48
109047.52
109054.47
109061.35
109068.14
109074.85
109081.48
109088.04
109094.51
109100.91
109107.22
109113.46
109119.62
109125.71
109131.72
109137.65
109143.5
109149.28
109154.99
109160.62
109166.18
109171.67
109177.08
109182.42
109187.69
109192.89
109198.01
109203.07
109208.06
109212.97
109217.82
109222.6
109227.32
109231.96
109236.54
109241.06
109245.51
109249.89
109254.21
109258.47
109262.66
109266.79
109270.86
109274.86
109278.81
109282.69
109286.52
109290.29
109293.99
109297.64
109301.24
109304.77
109308.25
109311.67
109315.04
109318.35
109321.61
109324.82
109327.97
109331.07
109334.12
109337.12
109340.07
109342.96
109345.81
109348.61
109351.36
109354.07
109356.72
109359.33
109361.89
109364.41
109366.89
109369.31
109371.7
109374.04
109376.34
109378.6
109380.81
109382.99
109385.12
109387.22
109389.28
109391.29
109393.27
109395.21
109397.11
109398.98
109400.81
109402.61
109404.37
109406.09
109407.79
109409.44
109411.07
109412.66
109414.22
109415.75
109417.25
109418.72
109420.16
109421.56
109422.94
109424.29
109425.61
109426.91
109428.18
109429.42
109430.63
109431.82
109432.98
109434.12
109435.23
109436.32
109437.38
109438.42
109439.44
109440.44
109441.41
109442.36
109443.29
109444.2
109445.09
109445.96
109446.81
109447.64
109448.45
109449.24
109450.01
109450.77
109451.51
109452.23
109452.93
109453.62
109454.29
109454.94
109455.58
109456.2
109456.81
109457.4
109457.98
109458.55
109459.1
109459.64
109460.16
109460.67
109461.17
109461.65
109462.13
109462.59
109463.04
109463.48
109463.9
109464.32
109464.73
109465.12
109465.51
109465.88
109466.25
109466.6
109466.95
109467.28
109467.61
109467.93
109468.24
109468.54
109468.84
109469.13
109469.4
109469.68
109469.94
109470.2
109470.44
109470.69
109470.92
109471.15
109471.37
109471.59
109471.8
109472.01
109472.21
109472.4
109472.59
109472.77
109472.95
109473.12
109473.29
109473.45
109473.61
109473.76
109473.91
109474.05
109474.19
109474.33
109474.46
109474.59
109474.71
109474.83
109474.95
109475.06
109475.17
109475.28
109475.38
109475.48
109475.58
109475.67
109475.76
109475.85
109475.94
109476.02
109476.1
109476.18
109476.25
109476.33
109476.4
109476.47
109476.53
109476.6
109476.66
109476.72
109476.78
109476.83
109476.89
109476.94
109476.99
109477.04
109477.09
109477.14
109477.18
109477.23
109477.27
109477.31
109477.35
109477.38
109477.42
109477.46
109477.49
109477.52
109477.56
109477.59
109477.62
109477.64
109477.67
109477.7
109477.72
109477.75
109477.77
109477.8
109477.82
109477.84
109477.86
109477.88
109477.9
109477.92
109477.94
109477.96
109477.97
109477.99
109478
109478.02
109478.03
109478.05
109478.06
109478.07
109478.09
109478.1
109478.11
109478.12
109478.13
109478.14
109478.15
109478.16
109478.17
109478.18
109478.19
109478.2
109478.2
109478.21
109478.22
109478.23
109478.23
109478.24
109478.25
109478.25
109478.26
109478.26
109478.27
109478.27
109478.28
109478.28
109478.29
109478.29
109478.3
109478.3
109478.3
109478.31
109478.31
109478.31
109478.32
109478.32
109478.32
109478.33
109478.33
109478.33
109478.33
109478.34
109478.34
109478.34
109478.34
109478.35
109478.35
109478.35
109478.35
109478.35
109478.36
109478.36
109478.36
109478.36
109478.36
109478.36
109478.36
109478.37
109478.37
109478.37
109478.37
109478.37
109478.37
109478.37
109478.37
109478.37
109478.37
109478.38
109478.38
109478.38
109478.38
109478.38
109478.38
109478.38
109478.38
109478.38
109478.38
109478.38
109478.38
109478.38
109478.38
109478.38
109478.38
109478.39
109478.39
109478.39
109478.39
109478.39
109478.39
109478.39
109478.39
109478.39
109478.39
109478.39
109478.39
109478.39
109478.39
109478.39
109478.39
109478.39
109478.39
109478.39
109478.39
109478.39
109478.39
109478.39
109478.39
109478.39
109478.39
109478.39
109478.39
109478.39
109478.39
109478.39
109478.39
109478.39
109478.39
109478.39
109478.39
109478.4
109478.4
109478.4
109478.4
109478.4
109478.4
109478.4
109478.4
109478.4
109478.4
109478.4
109478.4
109478.4
109478.4
109478.4
109478.4
109478.4
109478.4
109478.4
109478.4
109478.4
109478.4
109478.4
109478.4
109478.4
109478.4
109478.4
109478.4
109478.4
109478.4
109478.4
109478.4
109478.4
109478.4
109478.4
109478.4
109478.4
109478.4
109478.4
109478.4
109478.4
109478.4
109478.4
109478.4
109478.4
109478.4
109478.4
109478.4
109478.4
109478.4
109478.4
109478.4
109478.4
109478.4
109478.4
109478.4
109478.4
109478.4
109478.4
109478.4
109478.4
109478.4
109478.4
109478.4
109478.4
109478.4
109478.4
109478.4
109478.4
109478.4
109478.4
109478.4
109478.4
109478.4
109478.4
109478.4
109478.4
109478.4
109478.4
109478.4
109478.4
109478.4
109478.4
109478.4
109478.4
109478.4
109478.4
109478.4
109478.4
109478.4
109478.4
109478.4
109478.4
109478.4
109478.4
109478.4
109478.4
109478.4
109478.4
109478.4
109478.4
109478.4
109478.4
109478.4
109478.4
109478.4
109478.4
109478.4
109478.4
109478.4
109478.4
109478.4
109478.4
109478.4
109478.4
109478.4
109478.4
109478.4
109478.4
109478.4
109478.4
109478.4
109478.4
109478.4
109478.4
109478.4
109478.4
109478.4
109478.4
109478.4
109478.4
109478.4
109478.4
109478.4
109478.4
109478.4
109478.4
109478.4
109478.4
109478.4
109478.4
109478.4
109478.4
109478.4
109478.4
109478.4
109478.41
109478.41
109478.41
109478.41
109478.41
109478.41
109478.41
109478.41
109478.41
109478.41
109478.41
109478.41
109478.41
109478.41
109478.41
109478.41
109478.41
109478.41
109478.41
109478.41
109478.41
109478.41
109478.41
109478.41
109478.41
109478.41
109478.41
109478.41
109478.41
109478.41
109478.41
109478.41
109478.41
109478.41
109478.41
109478.41
109478.41
109478.41
109478.41
109478.41
109478.41
109478.41
109478.41
109478.41
109478.41
109478.41
109478.41
109478.41
109478.41
109478.41
109478.41
109478.41
109478.41
109478.41
109478.41
109478.41
109478.41
109478.41
109478.41
109478.41
109478.41
109478.41
109478.41
109478.41
109478.41
109478.41
109478.41
109478.41
109478.41
109478.41
109478.41
109478.41
109478.41
109478.41
109478.41
109478.41
109478.41
109478.41
109478.41
109478.41
109478.41
109478.41
109478.41
109478.41
109478.41
109478.41
109478.41
109478.41
109478.41
109478.41
109478.41
109478.41
109478.41
109478.41
109478.41
109478.41
109478.41
109478.41
109478.41
109478.41
109478.41
109478.41
109478.41
109478.41
109478.41
109478.41
109478.41
109478.41
109478.41
109478.41
109478.41
109478.41
109478.41
109478.41
109478.41
109478.41
109478.41
109478.41
109478.41
109478.41
109478.41
109478.41
109478.41
109478.41
109478.41
109478.41
109478.41
109478.41
109478.41
109478.41
109478.41
109478.41
109478.41
109478.41
109478.41
109478.41
109478.41
109478.41
109478.41
109478.41
109478.41
109478.41
109478.41
109478.41
109478.41
109478.41
109478.41
109478.41
109478.41
109478.41
109478.41
109478.41
109478.41
109478.41
109478.41
109478.41
109478.41
109478.41
109478.41
109478.41
109478.41
109478.41
109478.41
109478.41
109478.41
109478.41
109478.42
109478.42
109478.42
109478.42
109478.42
109478.42
109478.42
109478.42
109478.42
109478.42
109478.42
109478.42
109478.42
109478.42
109478.42
109478.42
109478.42
109478.42
109478.42
109478.42
109478.42
109478.42
109478.42
109478.42
109478.42
109478.42
109478.42
109478.42
109478.42
109478.42
109478.42
109478.42
109478.42
109478.42
109478.42
109478.42
109478.42
109478.42
109478.42
109478.42
109478.42
109478.42
109478.42
109478.42
109478.42
109478.42
109478.42
109478.42
109478.42
109478.42
109478.42
109478.42
109478.42
109478.42
109478.42
109478.42
109478.42
109478.42
109478.42
109478.42
109478.42
109478.42
109478.42
109478.42
109478.42
109478.42
109478.42
109478.42
109478.42
109478.42
109478.42
109478.42
109478.42
109478.42
109478.42
109478.42
109478.42
109478.42
109478.42
109478.42
109478.42
109478.42
109478.41
109478.41
109478.41
109478.41
109478.41
109478.41
109478.41
109478.41
109478.41
109478.41
109478.41
109478.41
109478.41
109478.41
109478.41
109478.41
109478.41
109478.41
109478.41
109478.41
109478.41
109478.41
109478.41
109478.41
109478.41
109478.41
109478.41
109478.41
109478.41
109478.41
109478.41
109478.41
109478.41
109478.41
109478.41
109478.41
109478.41
109478.42
109478.42
109478.42
109478.42
109478.42
109478.42
109478.42
109478.42
109478.42
109478.42
109478.42
109478.42
109478.42
109478.42
109478.42
109478.42
109478.42
109478.42
109478.42
109478.42
109478.42
109478.42
109478.42
109478.42
109478.42
109478.42
109478.42
109478.42
109478.42
109478.42
109478.42
109478.42
109478.42
109478.42
109478.42
109478.42
109478.42
109478.42
109478.42
109478.42
109478.42
109478.42
109478.42
109478.42
109478.42
109478.42
109478.42
109478.42
109478.42
109478.42
109478.42
109478.42
109478.42
109478.42
109478.42
109478.42
109478.42
109478.42
109478.42
109478.42
109478.42
109478.42
109478.42
109478.42
109478.42
109478.42
109478.42
109478.42
109478.42
109478.42
109478.42
109478.42
109478.42
109478.42
109478.42
109478.42
109478.42
109478.42
109478.42
109478.42
109478.42
109478.42
109478.42
109478.42
109478.42
109478.42
109478.42
109478.42
109478.42
109478.42
109478.42
109478.42
109478.42
109478.42
109478.42
109478.42
109478.42
109478.42
109478.42
109478.42
109478.42
109478.42
109478.42
109478.42
109478.42
109478.42
109478.42
109478.42
109478.42
109478.42
109478.42
109478.42
109478.42
109478.42
109478.42
109478.42
109478.42
109478.42
109478.42
109478.42
109478.42
109478.42
109478.42
109478.42
109478.42
109478.42
109478.42
109478.42
109478.42
109478.42
109478.42
109478.42
109478.42
109478.42
109478.42
109478.42
109478.42
109478.42
109478.42
109478.42
109478.42
109478.42
109478.42
109478.42
109478.42
109478.42
109478.42
109478.42
109478.42
109478.42
109478.42
109478.42
109478.42
109478.42
109478.42
109478.42
109478.42
109478.42
109478.42
109478.42
109478.42
109478.42
109478.42
109478.42
109478.42
109478.42
109478.42
109478.42
109478.42
109478.42
109478.42
109478.42
109478.42
109478.42
109478.42
109478.42
109478.42
109478.42
109478.42
109478.42
109478.42
109478.42
109478.42
109478.42
109478.42
109478.42
109478.42
109478.42
109478.42
109478.42
109478.42
109478.42
109478.42
109478.42
109478.42
109478.42
109478.42
109478.42
109478.42
109478.42
109478.42
109478.42
109478.42
109478.42
109478.42
109478.42
109478.42
109478.42
109478.42
109478.42
109478.42
109478.42
109478.42
109478.42
109478.42
109478.42
109478.42
109478.42
109478.42
109478.42
109478.42
109478.42
109478.42
109478.42
109478.42
109478.42
109478.42
109478.42
109478.42
109478.42
109478.42
109478.42
109478.42
109478.42
109478.42
109478.42
109478.42
109478.42
109478.42
109478.42
109478.42
109478.42
109478.42
109478.42
109478.42
109478.42
109478.42
109478.42
109478.42
109478.42
109478.42
109478.42
109478.42
109478.42
109478.42
109478.42
109478.42
109478.42
109478.42
109478.42
109478.42
109478.42
109478.42
109478.42
109478.42
109478.42
109478.42
109478.42
109478.42
109478.42
109478.42
109478.42
109478.42
109478.42
109478.42
109478.42
109478.42
109478.42
109478.42
109478.42
109478.42
109478.42
109478.42
109478.42
109478.42
109478.42
109478.42
109478.42
109478.42
109478.42
109478.42
109478.42
109478.42
109478.42
109478.42
109478.42
109478.42
109478.42
109478.42
109478.42
109478.42
109478.42
109478.42
109478.42
109478.42
109478.42
109478.42
109478.42
109478.42
109478.42
109478.42
109478.42
109478.42
109478.43
109478.43
109478.43
109478.43
109478.43
109478.43
109478.43
109478.43
109478.43
109478.43
109478.43
109478.43
109478.43
109478.43
109478.43
109478.43
109478.43
109478.43
109478.43
109478.43
109478.43
109478.43
109478.43
109478.43
109478.43
109478.43
109478.43
109478.43
109478.43
109478.43
109478.43
109478.43
109478.43
109478.43
109478.43
109478.43
109478.43
109478.43
109478.43
109478.43
109478.43
109478.43
109478.43
109478.43
109478.43
109478.43
109478.43
109478.43
109478.43
109478.43
109478.43
109478.43
109478.43
109478.43
109478.43
109478.43
109478.43
109478.43
109478.43
109478.43
109478.43
109478.43
109478.43
109478.43
109478.43
109478.43
109478.43
109478.43
109478.43
109478.43
109478.43
109478.43
109478.43
109478.43
109478.43
109478.43
109478.43
109478.43
109478.43
109478.43
109478.43
109478.43
109478.43
109478.43
109478.43
109478.43
109478.43
109478.43
109478.43
109478.43
109478.43
109478.43
109478.43
109478.43
109478.43
109478.43
109478.43
109478.43
109478.43
109478.43
109478.43
109478.43
109478.43
109478.43
109478.43
109478.43
109478.43
109478.43
109478.43
109478.43
109478.43
109478.43
109478.43
109478.43
109478.43
109478.43
109478.43
109478.43
109478.43
109478.43
109478.43
109478.43
109478.43
109478.43
109478.43
109478.43
109478.43
109478.43
109478.43
109478.43
109478.43
109478.43
109478.43
109478.43
109478.43
109478.43
109478.43
109478.43
109478.43
109478.43
109478.43
109478.43
109478.43
109478.43
109478.43
109478.43
109478.43
109478.43
109478.43
109478.43
109478.43
109478.43
109478.43
109478.43
109478.43
109478.43
109478.43
109478.43
109478.43
109478.43
109478.43
109478.43
109478.42
109478.42
109478.42
109478.42
109478.42
109478.42
109478.42
109478.42
109478.42
109478.42
109478.42
109478.42
109478.42
109478.42
109478.42
109478.42
109478.42
109478.42
109478.42
109478.42
109478.42
109478.42
109478.42
109478.42
109478.42
109478.42
109478.42
109478.42
109478.42
109478.42
109478.42
109478.42
109478.42
109478.42
109478.42
109478.42
109478.42
109478.42
109478.42
109478.42
109478.42
109478.42
109478.42
109478.42
109478.42
109478.42
109478.42
109478.42
109478.42
109478.42
109478.42
109478.42
109478.42
109478.42
109478.42
109478.42
109478.42
109478.42
109478.42
109478.42
109478.42
109478.42
109478.42
109478.42
109478.42
109478.42
109478.42
109478.42
109478.42
109478.42
109478.42
109478.42
109478.42
109478.42
109478.42
109478.42
109478.42
109478.42
109478.42
109478.42
109478.42
109478.42
109478.42
109478.42
109478.42
109478.42
109478.42
109478.42
109478.42
109478.42
109478.42
109478.42
109478.42
109478.42
109478.42
109478.42
109478.42
109478.43
109478.43
109478.43
109478.43
109478.43
109478.43
109478.43
109478.43
109478.43
109478.43
109478.43
109478.43
109478.43
109478.43
109478.43
109478.43
109478.43
109478.43
109478.43
109478.43
109478.43
109478.43
109478.43
109478.43
109478.43
109478.43
109478.43
109478.43
109478.43
109478.43
109478.43
109478.43
109478.43
109478.43
109478.43
109478.43
109478.43
109478.43
109478.43
109478.43
109478.43
109478.43
109478.43
109478.43
109478.43
109478.43
109478.43
109478.43
109478.43
109478.43
109478.43
109478.43
109478.43
109478.43
109478.43
109478.43
109478.43
109478.43
109478.43
109478.42
109478.42
109478.42
109478.42
109478.43
109478.43
109478.43
109478.43
109478.43
109478.44
109478.44
109478.44
109478.44
109478.43
109478.43
109478.42
109478.42
109478.42
109478.4
109478.43
109478.44
109478.43
109478.43
109478.43
109478.42
109478.42
109478.42
109478.42
109478.42
109478.42
109478.43
109478.43
109478.43
109478.43
109478.43
109478.43
109478.43
109478.43
109478.43
109478.43
109478.43
109478.43
109478.43
109478.43
109478.43
109478.43
109478.43
109478.43
109478.43
109478.43
109478.43
109478.43
109478.43
109478.43
109478.43
109478.43
109478.43
109478.43
109478.43
109478.43
109478.43
109478.43
109478.43
109478.43
109478.43
109478.43
109478.43
109478.43
109478.43
109478.43
109478.43
109478.43
109478.43
109478.43
109478.43
109478.43
109478.43
109478.43
109478.43
109478.43
109478.43
109478.43
109478.43
109478.43
109478.43
109478.43
109478.43
109478.43
109478.43
109478.43
109478.43
109478.43
109478.43
109478.43
109478.43
109478.43
109478.43
109478.43
109478.43
109478.43
109478.43
109478.43
109478.43
109478.43
109478.43
109478.43
109478.43
109478.43
109478.43
109478.43
109478.43
109478.43
109478.43
109478.43
109478.43
109478.43
109478.43
109478.43
109478.43
109478.43
109478.43
109478.43
109478.43
109478.43
109478.43
109478.43
109478.43
109478.43
109478.43
109478.43
109478.43
109478.43
109478.43
109478.43
109478.43
109478.43
109478.43
109478.43
109478.43
109478.43
109478.43
109478.43
109478.43
109478.43
109478.43
109478.43
109478.43
109478.43
109478.43
109478.43
109478.43
109478.43
109478.43
109478.43
109478.43
109478.43
109478.43
109478.43
109478.43
109478.43
109478.43
109478.43
109478.43
109478.43
109478.43
109478.43
109478.43
109478.43
109478.43
109478.43
109478.43
109478.43
109478.43
109478.43
109478.43
109478.43
109478.43
109478.43
109478.43
109478.43
109478.43
109478.43
109478.43
109478.43
109478.43
109478.43
109478.43
109478.43
109478.43
109478.43
109478.43
109478.43
109478.43
109478.43
109478.43
109478.43
109478.43
109478.43
109478.43
109478.43
109478.43
109478.43
109478.43
109478.43
109478.43
109478.43
109478.43
109478.43
109478.43
109478.43
109478.43
109478.43
109478.43
109478.43
109478.43
109478.43
109478.43
109478.43
109478.43
109478.43
109478.43
109478.43
109478.43
109478.43
109478.43
109478.43
109478.43
109478.43
109478.43
109478.43
109478.43
109478.43
109478.43
109478.43
109478.43
109478.43
109478.43
109478.43
109478.43
109478.43
109478.43
109478.43
109478.43
109478.43
109478.43
109478.43
109478.43
109478.43
109478.43
109478.43
109478.43
109478.43
109478.43
109478.43
109478.43
109478.43