/*--------------------------------*- C++ -*----------------------------------*\
  =========                 |
  \\      /  F ield         | OpenFOAM: The Open Source CFD Toolbox
   \\    /   O peration     | Website:  https://openfoam.org
    \\  /    A nd           | Version:  7
     \\/     M anipulation  |
\*---------------------------------------------------------------------------*/
FoamFile
{
    version     2.0;
    format      ascii;
    class       volScalarField;
    location    "0.00209";
    object      T;
}
// * * * * * * * * * * * * * * * * * * * * * * * * * * * * * * * * * * * * * //

dimensions      [0 0 0 1 0 0 0];

internalField   nonuniform List<scalar> 
5000
(
277.93637
277.93638
277.9363
277.93624
277.9362
277.93616
277.93613
277.93611
277.9361
277.93609
277.93608
277.93608
277.93608
277.93608
277.93608
277.93608
277.93608
277.93608
277.93608
277.93608
277.93608
277.93608
277.93608
277.93608
277.93609
277.93609
277.93609
277.93609
277.93609
277.93609
277.93609
277.93609
277.9361
277.9361
277.9361
277.9361
277.9361
277.9361
277.9361
277.9361
277.93611
277.93611
277.93611
277.93611
277.93611
277.93611
277.93611
277.93612
277.93612
277.93612
277.93612
277.93612
277.93612
277.93612
277.93613
277.93613
277.93613
277.93613
277.93613
277.93613
277.93614
277.93614
277.93614
277.93614
277.93614
277.93614
277.93614
277.93615
277.93615
277.93615
277.93615
277.93615
277.93615
277.93616
277.93616
277.93616
277.93616
277.93616
277.93616
277.93617
277.93617
277.93617
277.93617
277.93617
277.93617
277.93618
277.93618
277.93618
277.93618
277.93618
277.93618
277.93619
277.93619
277.93619
277.93619
277.93619
277.93619
277.9362
277.9362
277.9362
277.9362
277.9362
277.9362
277.93621
277.93621
277.93621
277.93621
277.93621
277.93621
277.93622
277.93622
277.93622
277.93622
277.93622
277.93623
277.93623
277.93623
277.93623
277.93623
277.93623
277.93624
277.93624
277.93624
277.93624
277.93624
277.93624
277.93625
277.93625
277.93625
277.93625
277.93625
277.93625
277.93626
277.93626
277.93626
277.93626
277.93626
277.93627
277.93627
277.93627
277.93627
277.93627
277.93627
277.93627
277.93628
277.93628
277.93628
277.93628
277.93628
277.93629
277.93629
277.93629
277.93629
277.93629
277.93629
277.9363
277.9363
277.9363
277.9363
277.9363
277.9363
277.93631
277.93631
277.93631
277.93631
277.93631
277.93631
277.93632
277.93632
277.93632
277.93632
277.93632
277.93632
277.93632
277.93633
277.93633
277.93633
277.93633
277.93633
277.93633
277.93634
277.93634
277.93634
277.93634
277.93634
277.93635
277.93635
277.93635
277.93635
277.93635
277.93635
277.93636
277.93636
277.93636
277.93636
277.93636
277.93636
277.93637
277.93637
277.93637
277.93637
277.93637
277.93637
277.93638
277.93638
277.93638
277.93638
277.93638
277.93638
277.93639
277.93639
277.93639
277.93639
277.93639
277.9364
277.9364
277.9364
277.9364
277.9364
277.9364
277.93641
277.93641
277.93641
277.93641
277.93641
277.93641
277.93642
277.93642
277.93642
277.93642
277.93642
277.93643
277.93643
277.93643
277.93643
277.93643
277.93644
277.93644
277.93644
277.93644
277.93644
277.93645
277.93645
277.93645
277.93645
277.93645
277.93646
277.93646
277.93646
277.93646
277.93646
277.93647
277.93647
277.93647
277.93647
277.93648
277.93648
277.93648
277.93648
277.93648
277.93649
277.93649
277.93649
277.93649
277.9365
277.9365
277.9365
277.9365
277.93651
277.93651
277.93651
277.93651
277.93651
277.93652
277.93652
277.93652
277.93652
277.93653
277.93653
277.93653
277.93654
277.93654
277.93654
277.93654
277.93655
277.93655
277.93655
277.93655
277.93656
277.93656
277.93656
277.93657
277.93657
277.93657
277.93657
277.93658
277.93658
277.93658
277.93659
277.93659
277.93659
277.93659
277.9366
277.9366
277.9366
277.93661
277.93661
277.93661
277.93662
277.93662
277.93662
277.93663
277.93663
277.93663
277.93664
277.93664
277.93664
277.93665
277.93665
277.93665
277.93666
277.93666
277.93666
277.93667
277.93667
277.93667
277.93668
277.93668
277.93669
277.93669
277.93669
277.9367
277.9367
277.9367
277.93671
277.93671
277.93672
277.93672
277.93672
277.93673
277.93673
277.93674
277.93674
277.93674
277.93675
277.93675
277.93676
277.93676
277.93676
277.93677
277.93677
277.93678
277.93678
277.93678
277.93679
277.93679
277.9368
277.9368
277.93681
277.93681
277.93682
277.93682
277.93683
277.93683
277.93683
277.93684
277.93684
277.93685
277.93685
277.93686
277.93686
277.93687
277.93687
277.93688
277.93688
277.93689
277.93689
277.9369
277.9369
277.93691
277.93691
277.93692
277.93692
277.93693
277.93693
277.93694
277.93694
277.93695
277.93695
277.93696
277.93697
277.93697
277.93698
277.93698
277.93699
277.93699
277.937
277.93701
277.93701
277.93702
277.93702
277.93703
277.93703
277.93704
277.93705
277.93705
277.93706
277.93706
277.93707
277.93708
277.93708
277.93709
277.9371
277.9371
277.93711
277.93711
277.93712
277.93713
277.93713
277.93714
277.93715
277.93715
277.93716
277.93717
277.93717
277.93718
277.93719
277.9372
277.9372
277.93721
277.93722
277.93722
277.93723
277.93724
277.93725
277.93725
277.93726
277.93727
277.93728
277.93728
277.93729
277.9373
277.93731
277.93732
277.93732
277.93733
277.93734
277.93735
277.93736
277.93736
277.93737
277.93738
277.93739
277.9374
277.93741
277.93741
277.93742
277.93743
277.93744
277.93745
277.93746
277.93747
277.93748
277.93749
277.9375
277.9375
277.93751
277.93752
277.93753
277.93754
277.93755
277.93756
277.93757
277.93758
277.93759
277.9376
277.93761
277.93762
277.93763
277.93764
277.93766
277.93767
277.93768
277.93769
277.9377
277.93771
277.93772
277.93773
277.93775
277.93776
277.93777
277.93778
277.93779
277.93781
277.93782
277.93783
277.93785
277.93786
277.93787
277.93789
277.9379
277.93791
277.93793
277.93794
277.93796
277.93797
277.93799
277.938
277.93802
277.93803
277.93805
277.93807
277.93808
277.9381
277.93812
277.93814
277.93816
277.93817
277.93819
277.93821
277.93823
277.93825
277.93827
277.93829
277.93832
277.93834
277.93836
277.93839
277.93841
277.93844
277.93846
277.93849
277.93851
277.93854
277.93857
277.9386
277.93863
277.93866
277.93869
277.93872
277.93875
277.93879
277.93882
277.93886
277.9389
277.93894
277.93898
277.93902
277.93906
277.9391
277.93915
277.93919
277.93924
277.93929
277.93934
277.93939
277.93944
277.9395
277.93956
277.93961
277.93968
277.93974
277.9398
277.93987
277.93994
277.94001
277.94008
277.94016
277.94024
277.94032
277.94041
277.94049
277.94058
277.94068
277.94077
277.94087
277.94097
277.94108
277.94119
277.9413
277.94142
277.94154
277.94166
277.94179
277.94193
277.94207
277.94221
277.94236
277.94251
277.94266
277.94283
277.94299
277.94316
277.94334
277.94353
277.94372
277.94391
277.94411
277.94432
277.94454
277.94476
277.94499
277.94523
277.94547
277.94573
277.94599
277.94625
277.94653
277.94682
277.94711
277.94741
277.94773
277.94805
277.94838
277.94873
277.94908
277.94944
277.94982
277.9502
277.9506
277.95101
277.95143
277.95187
277.95232
277.95278
277.95325
277.95374
277.95424
277.95476
277.95529
277.95583
277.95639
277.95697
277.95757
277.95818
277.9588
277.95945
277.96011
277.9608
277.9615
277.96222
277.96295
277.96371
277.96449
277.96529
277.96611
277.96695
277.96782
277.96871
277.96962
277.97055
277.97151
277.97249
277.97349
277.97453
277.97559
277.97667
277.97778
277.97892
277.98009
277.98129
277.98251
277.98377
277.98505
277.98637
277.98771
277.98909
277.9905
277.99194
277.99342
277.99493
277.99647
277.99806
277.99967
278.00132
278.00301
278.00474
278.0065
278.00831
278.01015
278.01203
278.01395
278.01592
278.01792
278.01997
278.02206
278.02419
278.02637
278.02859
278.03086
278.03317
278.03553
278.03794
278.04039
278.0429
278.04545
278.04805
278.0507
278.0534
278.05615
278.05896
278.06182
278.06473
278.06769
278.07071
278.07378
278.07691
278.08009
278.08333
278.08663
278.08999
278.0934
278.09687
278.10041
278.104
278.10765
278.11137
278.11514
278.11898
278.12288
278.12685
278.13088
278.13497
278.13913
278.14335
278.14763
278.15199
278.15641
278.1609
278.16545
278.17008
278.17477
278.17953
278.18436
278.18927
278.19424
278.19928
278.2044
278.20959
278.21484
278.22018
278.22558
278.23106
278.23661
278.24223
278.24793
278.2537
278.25955
278.26547
278.27147
278.27755
278.2837
278.28992
278.29623
278.30261
278.30907
278.3156
278.32222
278.32891
278.33568
278.34252
278.34945
278.35645
278.36354
278.3707
278.37794
278.38526
278.39266
278.40014
278.4077
278.41533
278.42305
278.43085
278.43873
278.44669
278.45472
278.46284
278.47104
278.47932
278.48768
278.49611
278.50463
278.51323
278.52191
278.53067
278.53951
278.54842
278.55742
278.5665
278.57566
278.58489
278.59421
278.6036
278.61308
278.62263
278.63226
278.64198
278.65177
278.66163
278.67158
278.68161
278.69171
278.70189
278.71215
278.72248
278.73289
278.74338
278.75395
278.76459
278.77531
278.7861
278.79697
278.80792
278.81894
278.83003
278.8412
278.85244
278.86376
278.87515
278.88661
278.89815
278.90976
278.92144
278.9332
278.94502
278.95692
278.96888
278.98092
278.99303
279.00521
279.01746
279.02977
279.04216
279.05461
279.06713
279.07972
279.09238
279.1051
279.11789
279.13074
279.14366
279.15664
279.16969
279.18281
279.19599
279.20923
279.22253
279.2359
279.24933
279.26282
279.27637
279.28998
279.30365
279.31738
279.33118
279.34503
279.35893
279.3729
279.38693
279.40101
279.41514
279.42934
279.44359
279.4579
279.47226
279.48667
279.50114
279.51566
279.53024
279.54486
279.55954
279.57427
279.58906
279.60389
279.61877
279.6337
279.64868
279.66371
279.67879
279.69392
279.70909
279.72431
279.73958
279.75489
279.77025
279.78565
279.8011
279.81659
279.83212
279.84769
279.86331
279.87897
279.89468
279.91042
279.9262
279.94203
279.95789
279.97379
279.98974
280.00572
280.02173
280.03779
280.05388
280.07001
280.08617
280.10237
280.1186
280.13487
280.15117
280.16751
280.18388
280.20028
280.21671
280.23318
280.24967
280.2662
280.28276
280.29934
280.31596
280.33261
280.34928
280.36598
280.38271
280.39947
280.41625
280.43306
280.44989
280.46675
280.48364
280.50055
280.51748
280.53444
280.55142
280.56842
280.58544
280.60249
280.61956
280.63664
280.65375
280.67088
280.68803
280.7052
280.72238
280.73958
280.75681
280.77404
280.7913
280.80857
280.82586
280.84316
280.86048
280.87782
280.89517
280.91253
280.92991
280.9473
280.9647
280.98211
280.99954
281.01698
281.03443
281.05189
281.06936
281.08683
281.10432
281.12182
281.13933
281.15684
281.17436
281.19189
281.20943
281.22697
281.24452
281.26208
281.27964
281.2972
281.31477
281.33235
281.34993
281.36751
281.38509
281.40268
281.42026
281.43785
281.45545
281.47304
281.49063
281.50822
281.52582
281.54341
281.561
281.57859
281.59618
281.61377
281.63135
281.64893
281.66651
281.68408
281.70165
281.71921
281.73677
281.75432
281.77187
281.78942
281.80695
281.82448
281.842
281.85952
281.87702
281.89452
281.91201
281.92949
281.94696
281.96441
281.98186
281.9993
282.01673
282.03415
282.05155
282.06895
282.08633
282.10369
282.12105
282.13839
282.15571
282.17302
282.19032
282.2076
282.22486
282.24211
282.25934
282.27656
282.29376
282.31094
282.3281
282.34524
282.36237
282.37948
282.39656
282.41363
282.43068
282.44771
282.46471
282.4817
282.49866
282.5156
282.53252
282.54941
282.56628
282.58313
282.59995
282.61675
282.63353
282.65028
282.667
282.6837
282.70037
282.71701
282.73363
282.75022
282.76679
282.78332
282.79983
282.81631
282.83275
282.84917
282.86556
282.88192
282.89825
282.91454
282.93081
282.94704
282.96324
282.9794
282.99554
283.01164
283.02771
283.04374
283.05974
283.0757
283.09163
283.10752
283.12338
283.1392
283.15498
283.17073
283.18643
283.2021
283.21774
283.23333
283.24888
283.2644
283.27987
283.29531
283.3107
283.32605
283.34136
283.35663
283.37186
283.38705
283.40219
283.41729
283.43235
283.44736
283.46233
283.47726
283.49214
283.50697
283.52176
283.5365
283.5512
283.56585
283.58045
283.59501
283.60952
283.62398
283.63839
283.65275
283.66706
283.68133
283.69554
283.7097
283.72382
283.73788
283.75189
283.76585
283.77976
283.79362
283.80742
283.82117
283.83487
283.84851
283.8621
283.87564
283.88912
283.90254
283.91592
283.92923
283.94249
283.9557
283.96885
283.98194
283.99498
284.00795
284.02087
284.03374
284.04654
284.05929
284.07197
284.0846
284.09717
284.10968
284.12213
284.13452
284.14685
284.15912
284.17132
284.18347
284.19556
284.20758
284.21954
284.23144
284.24328
284.25505
284.26677
284.27841
284.29
284.30152
284.31298
284.32437
284.3357
284.34697
284.35817
284.36931
284.38038
284.39139
284.40233
284.4132
284.42401
284.43476
284.44543
284.45605
284.46659
284.47707
284.48748
284.49782
284.5081
284.51831
284.52846
284.53853
284.54854
284.55848
284.56836
284.57816
284.5879
284.59757
284.60717
284.61671
284.62617
284.63557
284.6449
284.65416
284.66335
284.67247
284.68152
284.69051
284.69943
284.70827
284.71705
284.72576
284.73441
284.74298
284.75148
284.75992
284.76828
284.77658
284.78481
284.79297
284.80106
284.80909
284.81704
284.82493
284.83274
284.84049
284.84817
284.85579
284.86333
284.87081
284.87821
284.88555
284.89283
284.90003
284.90717
284.91424
284.92124
284.92818
284.93504
284.94185
284.94858
284.95525
284.96185
284.96839
284.97486
284.98126
284.9876
284.99387
285.00008
285.00622
285.0123
285.01831
285.02426
285.03015
285.03597
285.04173
285.04742
285.05305
285.05862
285.06412
285.06957
285.07495
285.08027
285.08552
285.09072
285.09585
285.10093
285.10594
285.1109
285.11579
285.12063
285.12541
285.13012
285.13478
285.13938
285.14393
285.14841
285.15284
285.15722
285.16153
285.16579
285.17
285.17415
285.17824
285.18228
285.18627
285.1902
285.19408
285.19791
285.20168
285.2054
285.20907
285.21269
285.21626
285.21977
285.22324
285.22666
285.23003
285.23334
285.23662
285.23984
285.24301
285.24614
285.24922
285.25226
285.25524
285.25819
285.26109
285.26394
285.26675
285.26951
285.27223
285.27491
285.27755
285.28014
285.28269
285.28521
285.28768
285.29011
285.2925
285.29485
285.29716
285.29943
285.30167
285.30386
285.30602
285.30815
285.31023
285.31228
285.3143
285.31628
285.31823
285.32014
285.32201
285.32386
285.32567
285.32745
285.32919
285.3309
285.33259
285.33424
285.33586
285.33745
285.33901
285.34054
285.34205
285.34352
285.34497
285.34639
285.34778
285.34914
285.35048
285.35179
285.35308
285.35434
285.35558
285.35679
285.35798
285.35914
285.36028
285.36139
285.36249
285.36356
285.36461
285.36564
285.36664
285.36763
285.36859
285.36954
285.37046
285.37137
285.37225
285.37312
285.37397
285.3748
285.37561
285.3764
285.37718
285.37794
285.37868
285.37941
285.38012
285.38081
285.38149
285.38215
285.3828
285.38343
285.38405
285.38465
285.38524
285.38582
285.38638
285.38693
285.38747
285.388
285.38851
285.38901
285.3895
285.38997
285.39044
285.39089
285.39134
285.39177
285.39219
285.3926
285.393
285.39339
285.39377
285.39415
285.39451
285.39486
285.39521
285.39554
285.39587
285.39619
285.3965
285.39681
285.3971
285.39739
285.39767
285.39794
285.39821
285.39847
285.39872
285.39897
285.39921
285.39944
285.39967
285.39989
285.4001
285.40031
285.40051
285.40071
285.4009
285.40109
285.40127
285.40145
285.40162
285.40179
285.40195
285.40211
285.40226
285.40241
285.40256
285.4027
285.40284
285.40297
285.4031
285.40323
285.40335
285.40347
285.40358
285.4037
285.4038
285.40391
285.40401
285.40411
285.40421
285.4043
285.40439
285.40448
285.40457
285.40465
285.40473
285.40481
285.40489
285.40496
285.40503
285.4051
285.40517
285.40524
285.4053
285.40536
285.40542
285.40548
285.40554
285.40559
285.40565
285.4057
285.40575
285.4058
285.40584
285.40589
285.40593
285.40597
285.40602
285.40605
285.40609
285.40613
285.40617
285.4062
285.40624
285.40627
285.4063
285.40633
285.40636
285.40639
285.40642
285.40645
285.40647
285.4065
285.40652
285.40655
285.40657
285.40659
285.40662
285.40664
285.40666
285.40668
285.4067
285.40671
285.40673
285.40675
285.40677
285.40678
285.4068
285.40681
285.40683
285.40684
285.40686
285.40687
285.40688
285.4069
285.40691
285.40692
285.40693
285.40695
285.40696
285.40697
285.40698
285.40699
285.407
285.40701
285.40702
285.40703
285.40704
285.40704
285.40705
285.40706
285.40707
285.40707
285.40708
285.40709
285.4071
285.4071
285.40711
285.40711
285.40712
285.40713
285.40713
285.40714
285.40714
285.40715
285.40716
285.40716
285.40717
285.40717
285.40718
285.40718
285.40719
285.40719
285.40719
285.4072
285.4072
285.40721
285.40721
285.40721
285.40722
285.40722
285.40723
285.40723
285.40723
285.40724
285.40724
285.40725
285.40725
285.40725
285.40726
285.40726
285.40726
285.40727
285.40727
285.40727
285.40727
285.40728
285.40728
285.40728
285.40729
285.40729
285.40729
285.40729
285.4073
285.4073
285.4073
285.40731
285.40731
285.40732
285.40732
285.40732
285.40732
285.40733
285.40733
285.40733
285.40733
285.40734
285.40734
285.40734
285.40734
285.40735
285.40735
285.40735
285.40736
285.40736
285.40736
285.40736
285.40737
285.40737
285.40737
285.40737
285.40738
285.40738
285.40738
285.40738
285.40739
285.40739
285.40739
285.40739
285.4074
285.4074
285.4074
285.4074
285.40741
285.40741
285.40741
285.40741
285.40742
285.40742
285.40742
285.40742
285.40743
285.40743
285.40743
285.40744
285.40744
285.40744
285.40744
285.40745
285.40745
285.40745
285.40745
285.40746
285.40746
285.40746
285.40746
285.40746
285.40747
285.40747
285.40747
285.40748
285.40748
285.40748
285.40748
285.40749
285.40749
285.40749
285.4075
285.4075
285.4075
285.4075
285.40751
285.40751
285.40751
285.40751
285.40752
285.40752
285.40752
285.40752
285.40753
285.40753
285.40753
285.40753
285.40754
285.40754
285.40754
285.40754
285.40755
285.40755
285.40755
285.40755
285.40756
285.40756
285.40756
285.40756
285.40757
285.40757
285.40757
285.40758
285.40758
285.40758
285.40759
285.40759
285.40759
285.40759
285.4076
285.4076
285.4076
285.4076
285.40761
285.40761
285.40761
285.40761
285.40762
285.40762
285.40762
285.40763
285.40763
285.40763
285.40763
285.40764
285.40764
285.40764
285.40765
285.40765
285.40765
285.40765
285.40766
285.40766
285.40766
285.40766
285.40767
285.40767
285.40767
285.40767
285.40768
285.40768
285.40768
285.40768
285.40769
285.40769
285.40769
285.4077
285.4077
285.4077
285.40771
285.40771
285.40771
285.40772
285.40772
285.40772
285.40772
285.40773
285.40773
285.40773
285.40774
285.40774
285.40774
285.40774
285.40775
285.40775
285.40775
285.40776
285.40776
285.40776
285.40777
285.40777
285.40777
285.40777
285.40778
285.40778
285.40778
285.40779
285.40779
285.40779
285.4078
285.4078
285.4078
285.4078
285.40781
285.40781
285.40781
285.40781
285.40782
285.40782
285.40782
285.40783
285.40783
285.40783
285.40784
285.40784
285.40784
285.40785
285.40785
285.40785
285.40786
285.40786
285.40786
285.40787
285.40787
285.40787
285.40788
285.40788
285.40788
285.40788
285.40789
285.40789
285.40789
285.4079
285.4079
285.4079
285.40791
285.40791
285.40791
285.40792
285.40792
285.40792
285.40793
285.40793
285.40793
285.40793
285.40794
285.40794
285.40794
285.40795
285.40795
285.40795
285.40796
285.40796
285.40796
285.40797
285.40797
285.40797
285.40798
285.40798
285.40798
285.40799
285.40799
285.40799
285.408
285.408
285.40801
285.40801
285.40801
285.40802
285.40802
285.40802
285.40803
285.40803
285.40803
285.40804
285.40804
285.40804
285.40805
285.40805
285.40805
285.40806
285.40806
285.40806
285.40807
285.40807
285.40807
285.40808
285.40808
285.40808
285.40809
285.40809
285.40809
285.4081
285.4081
285.40811
285.40811
285.40811
285.40812
285.40812
285.40812
285.40813
285.40813
285.40813
285.40814
285.40814
285.40814
285.40815
285.40815
285.40815
285.40816
285.40816
285.40817
285.40817
285.40817
285.40818
285.40818
285.40819
285.40819
285.40819
285.4082
285.4082
285.4082
285.40821
285.40821
285.40821
285.40822
285.40822
285.40823
285.40823
285.40823
285.40824
285.40824
285.40824
285.40825
285.40825
285.40826
285.40826
285.40826
285.40827
285.40827
285.40828
285.40828
285.40828
285.40829
285.40829
285.4083
285.4083
285.4083
285.40831
285.40831
285.40831
285.40832
285.40832
285.40833
285.40833
285.40833
285.40834
285.40834
285.40835
285.40835
285.40835
285.40836
285.40836
285.40837
285.40837
285.40837
285.40838
285.40838
285.40839
285.40839
285.40839
285.4084
285.4084
285.40841
285.40841
285.40842
285.40842
285.40842
285.40843
285.40843
285.40844
285.40844
285.40845
285.40845
285.40845
285.40846
285.40846
285.40847
285.40847
285.40847
285.40848
285.40848
285.40849
285.40849
285.4085
285.4085
285.4085
285.40851
285.40851
285.40852
285.40852
285.40852
285.40853
285.40853
285.40854
285.40854
285.40855
285.40855
285.40856
285.40856
285.40857
285.40857
285.40857
285.40858
285.40858
285.40859
285.40859
285.4086
285.4086
285.40861
285.40861
285.40861
285.40862
285.40862
285.40863
285.40863
285.40864
285.40864
285.40864
285.40865
285.40865
285.40866
285.40866
285.40867
285.40867
285.40868
285.40868
285.40869
285.40869
285.4087
285.4087
285.40871
285.40871
285.40872
285.40872
285.40872
285.40873
285.40873
285.40874
285.40874
285.40875
285.40875
285.40876
285.40876
285.40877
285.40877
285.40877
285.40878
285.40878
285.40879
285.40879
285.4088
285.4088
285.40881
285.40882
285.40882
285.40883
285.40883
285.40884
285.40884
285.40885
285.40885
285.40886
285.40886
285.40886
285.40887
285.40887
285.40888
285.40889
285.40889
285.4089
285.4089
285.40891
285.40891
285.40892
285.40892
285.40893
285.40893
285.40894
285.40894
285.40895
285.40895
285.40896
285.40896
285.40897
285.40897
285.40898
285.40898
285.40899
285.40899
285.409
285.40901
285.40901
285.40902
285.40902
285.40903
285.40903
285.40904
285.40904
285.40905
285.40906
285.40906
285.40907
285.40907
285.40908
285.40908
285.40909
285.4091
285.4091
285.40911
285.40911
285.40912
285.40912
285.40913
285.40913
285.40914
285.40914
285.40915
285.40916
285.40916
285.40917
285.40917
285.40918
285.40918
285.40919
285.4092
285.4092
285.40921
285.40921
285.40922
285.40923
285.40923
285.40924
285.40925
285.40925
285.40926
285.40926
285.40927
285.40928
285.40928
285.40929
285.40929
285.4093
285.40931
285.40931
285.40932
285.40932
285.40933
285.40934
285.40934
285.40935
285.40935
285.40936
285.40937
285.40937
285.40938
285.40939
285.40939
285.4094
285.40941
285.40941
285.40942
285.40942
285.40943
285.40944
285.40944
285.40945
285.40946
285.40946
285.40947
285.40948
285.40948
285.40949
285.4095
285.4095
285.40951
285.40952
285.40952
285.40953
285.40954
285.40954
285.40955
285.40956
285.40957
285.40957
285.40958
285.40959
285.40959
285.4096
285.40961
285.40961
285.40962
285.40963
285.40963
285.40964
285.40965
285.40965
285.40966
285.40967
285.40967
285.40968
285.40969
285.4097
285.4097
285.40971
285.40972
285.40972
285.40973
285.40974
285.40975
285.40976
285.40976
285.40977
285.40978
285.40979
285.40979
285.4098
285.40981
285.40982
285.40982
285.40983
285.40984
285.40985
285.40985
285.40986
285.40987
285.40988
285.40988
285.40989
285.4099
285.40991
285.40991
285.40992
285.40993
285.40994
285.40995
285.40996
285.40996
285.40997
285.40998
285.40999
285.41
285.41
285.41001
285.41002
285.41003
285.41004
285.41005
285.41005
285.41006
285.41007
285.41008
285.41009
285.41009
285.4101
285.41011
285.41012
285.41013
285.41013
285.41014
285.41015
285.41016
285.41017
285.41018
285.41019
285.4102
285.4102
285.41021
285.41022
285.41023
285.41024
285.41025
285.41026
285.41027
285.41028
285.41029
285.4103
285.4103
285.41031
285.41032
285.41033
285.41034
285.41035
285.41036
285.41037
285.41037
285.41038
285.41039
285.4104
285.41041
285.41042
285.41043
285.41044
285.41045
285.41046
285.41047
285.41048
285.41049
285.4105
285.41051
285.41052
285.41053
285.41054
285.41055
285.41056
285.41057
285.41058
285.41059
285.4106
285.41061
285.41062
285.41063
285.41064
285.41065
285.41066
285.41067
285.41068
285.41069
285.4107
285.41071
285.41072
285.41073
285.41075
285.41076
285.41077
285.41078
285.41079
285.4108
285.41081
285.41082
285.41083
285.41084
285.41085
285.41086
285.41087
285.41088
285.41089
285.41091
285.41092
285.41093
285.41094
285.41095
285.41096
285.41097
285.41099
285.411
285.41101
285.41102
285.41103
285.41104
285.41106
285.41107
285.41108
285.41109
285.4111
285.41112
285.41113
285.41114
285.41115
285.41116
285.41118
285.41119
285.4112
285.41121
285.41123
285.41124
285.41125
285.41126
285.41128
285.41129
285.4113
285.41131
285.41133
285.41134
285.41135
285.41137
285.41138
285.41139
285.41141
285.41142
285.41143
285.41145
285.41146
285.41147
285.41149
285.4115
285.41151
285.41153
285.41154
285.41155
285.41157
285.41158
285.41159
285.41161
285.41162
285.41164
285.41165
285.41167
285.41168
285.41169
285.41171
285.41172
285.41174
285.41175
285.41177
285.41178
285.4118
285.41181
285.41183
285.41184
285.41186
285.41187
285.41189
285.41191
285.41192
285.41194
285.41195
285.41197
285.41199
285.412
285.41202
285.41203
285.41205
285.41206
285.41208
285.41209
285.41211
285.41213
285.41214
285.41216
285.41218
285.41219
285.41221
285.41223
285.41225
285.41226
285.41228
285.4123
285.41232
285.41233
285.41235
285.41237
285.41239
285.4124
285.41242
285.41244
285.41246
285.41247
285.41249
285.41251
285.41253
285.41255
285.41257
285.41258
285.4126
285.41262
285.41264
285.41266
285.41268
285.4127
285.41272
285.41274
285.41276
285.41278
285.4128
285.41282
285.41284
285.41286
285.41288
285.4129
285.41292
285.41294
285.41297
285.41299
285.41301
285.41303
285.41305
285.41307
285.41309
285.41311
285.41314
285.41316
285.41318
285.4132
285.41322
285.41324
285.41327
285.41329
285.41331
285.41334
285.41336
285.41338
285.41341
285.41343
285.41345
285.41348
285.4135
285.41352
285.41355
285.41357
285.4136
285.41362
285.41365
285.41367
285.4137
285.41372
285.41375
285.41378
285.4138
285.41383
285.41386
285.41389
285.41391
285.41394
285.41397
285.41399
285.41402
285.41405
285.41407
285.4141
285.41413
285.41416
285.41418
285.41421
285.41424
285.41427
285.4143
285.41433
285.41436
285.41439
285.41442
285.41446
285.41449
285.41452
285.41455
285.41458
285.41462
285.41465
285.41468
285.41471
285.41474
285.41477
285.4148
285.41484
285.41487
285.4149
285.41493
285.41496
285.415
285.41503
285.41507
285.4151
285.41514
285.41517
285.41521
285.41525
285.41528
285.41532
285.41536
285.4154
285.41544
285.41548
285.41552
285.41556
285.4156
285.41564
285.41568
285.41572
285.41576
285.41581
285.41585
285.41589
285.41593
285.41598
285.41602
285.41606
285.41611
285.41615
285.4162
285.41624
285.41629
285.41633
285.41638
285.41643
285.41647
285.41652
285.41657
285.41662
285.41667
285.41672
285.41677
285.41682
285.41688
285.41693
285.41698
285.41703
285.41709
285.41714
285.41719
285.41725
285.4173
285.41736
285.41742
285.41748
285.41753
285.41759
285.41765
285.41772
285.41778
285.41784
285.4179
285.41797
285.41803
285.4181
285.41816
285.41823
285.4183
285.41837
285.41844
285.41851
285.41858
285.41865
285.41873
285.4188
285.41888
285.41895
285.41903
285.41911
285.41919
285.41927
285.41936
285.41944
285.41952
285.41961
285.41969
285.41978
285.41987
285.41995
285.42004
285.42014
285.42023
285.42033
285.42042
285.42052
285.42062
285.42073
285.42083
285.42094
285.42104
285.42115
285.42126
285.42137
285.42148
285.42159
285.4217
285.42181
285.42192
285.42204
285.42215
285.42227
285.42238
285.4225
285.42262
285.42273
285.42285
285.42296
285.42308
285.42319
285.4233
285.4234
285.4235
285.4236
285.42369
285.42378
285.42386
285.42394
285.42401
285.42407
285.42413
285.42417
285.42421
285.42424
285.42426
285.42428
285.42429
285.42429
285.42429
285.42429
285.42429
285.42427
285.42425
285.42422
285.4242
285.42418
285.42417
285.42416
285.42416
285.42416
285.42416
285.42417
285.42419
285.42424
285.42433
285.42445
285.42459
285.42474
285.42491
285.4251
285.42531
285.42553
285.42577
285.42601
285.42627
285.42653
285.4268
285.42706
285.42733
285.42759
285.42784
285.42808
285.42831
285.42853
285.42873
285.42892
285.42908
285.42921
285.42932
285.42941
285.42946
285.4295
285.42953
285.42958
285.42967
285.42987
285.43031
285.43135
285.43388
285.4401
285.45543
285.4935
285.58697
285.81834
286.22501
286.74464
287.37104
288.09396
288.8987
289.76718
290.6792
291.61376
292.55024
293.46949
294.35467
295.19183
295.97025
296.6825
297.3243
297.89423
298.39331
298.82451
299.19228
299.50206
299.75985
299.97189
300.14429
300.28291
300.39313
300.47982
300.54725
300.59913
300.63859
300.66825
300.69026
300.70638
300.71801
300.72625
300.73196
300.73581
300.73831
300.73985
300.7407
300.7411
300.74121
300.7412
300.74106
300.74064
300.74008
300.73954
300.73904
300.73856
300.73811
300.73768
300.73727
300.73688
300.73651
300.73614
300.73578
300.73542
300.73506
300.73469
300.73431
300.73392
300.73352
300.73311
300.73268
300.73224
300.73178
300.73131
300.73083
300.73034
300.72985
300.72935
300.72886
300.72836
300.72787
300.72739
300.72692
300.72647
300.72602
300.7256
300.72518
300.72479
300.72441
300.72405
300.7237
300.72338
300.72306
300.72277
300.72249
300.72222
300.72196
300.72172
300.72149
300.72127
300.72105
300.72085
300.72065
300.72047
300.72029
300.72011
300.71994
300.71978
300.71962
300.71946
300.71931
300.71917
300.71902
300.71888
300.71875
300.71861
300.71848
300.71836
300.71823
300.71811
300.71799
300.71787
300.71775
300.71764
300.71753
300.71742
300.71731
300.7172
300.71709
300.71699
300.71689
300.71679
300.71669
300.71659
300.71649
300.7164
300.71631
300.71622
300.71612
300.71604
300.71595
300.71586
300.71578
300.71569
300.71561
300.71553
300.71545
300.71537
300.71529
300.71521
300.71513
300.71506
300.71498
300.71491
300.71484
300.71476
300.71469
300.71462
300.71455
300.71448
300.71442
300.71435
300.71428
300.71422
300.71415
300.71409
300.71403
300.71397
300.7139
300.71384
300.71378
300.71372
300.71366
300.71361
300.71355
300.71349
300.71343
300.71338
300.71332
300.71327
300.71321
300.71316
300.71311
300.71305
300.713
300.71295
300.7129
300.71285
300.7128
300.71275
300.7127
300.71265
300.7126
300.71255
300.71251
300.71246
300.71241
300.71237
300.71232
300.71228
300.71223
300.71219
300.71214
300.7121
300.71206
300.71202
300.71197
300.71193
300.71189
300.71185
300.71181
300.71177
300.71173
300.71169
300.71165
300.71161
300.71157
300.71153
300.71149
300.71145
300.71142
300.71138
300.71134
300.71131
300.71127
300.71123
300.7112
300.71116
300.71113
300.71109
300.71106
300.71102
300.71099
300.71095
300.71092
300.71089
300.71085
300.71082
300.71079
300.71075
300.71072
300.71069
300.71066
300.71063
300.7106
300.71057
300.71054
300.71051