/*--------------------------------*- C++ -*----------------------------------*\
| =========                 |                                                 |
| \\      /  F ield         | OpenFOAM: The Open Source CFD Toolbox           |
|  \\    /   O peration     | Version:  4.x                                   |
|   \\  /    A nd           | Web:      www.OpenFOAM.org                      |
|    \\/     M anipulation  |                                                 |
\*---------------------------------------------------------------------------*/
FoamFile
{
    version     2.0;
    format      ascii;
    class       volScalarField;
    location    "0.36";
    object      T;
}
// * * * * * * * * * * * * * * * * * * * * * * * * * * * * * * * * * * * * * //

dimensions      [0 0 0 1 0 0 0];

internalField   nonuniform List<scalar> 
6394
(
300.0000133
300.0000024
300.0000012
300.0000011
300.0000011
299.999999
299.9999976
299.9999981
300.0000165
300.0000057
300.0000045
300.0000041
300.0000023
300
299.9999997
299.9999999
300.0000093
300.0000024
300.0000019
300.000002
300.000001
299.9999997
299.9999994
299.9999994
300.0000026
300.0000004
300.0000008
300.0000017
300.0000008
299.9999999
299.9999995
299.9999995
300.0000001
299.9999996
300.0000012
300.0000018
300.0000011
300.0000002
299.9999998
299.9999996
300.000001
300.0000007
300.000002
300.0000028
300.000002
300.0000008
300
299.9999997
300.0000283
300.0000121
300.0000102
300.0000075
300.0000051
299.9999999
299.9999958
299.9999954
300.0000296
300.0000151
300.0000125
300.0000112
300.0000064
299.9999995
299.9999963
299.9999964
300.0000168
300.0000092
300.0000086
300.000008
300.0000033
299.9999963
299.9999949
299.999995
300.0000061
300.0000041
300.0000057
300.000006
300.0000012
299.9999958
299.9999942
299.9999944
300.0000037
300.0000026
300.000006
300.0000056
300.0000005
299.9999964
299.9999942
299.9999943
300.0000076
300.0000066
300.0000089
300.0000075
300.0000018
299.999997
299.9999938
299.9999936
300.0000485
300.0000352
300.0000352
300.0000304
300.0000223
300.0000076
299.9999949
299.9999874
300.0000529
300.0000406
300.0000402
300.0000377
300.0000239
300.0000043
299.9999862
299.999979
300.0000353
300.000032
300.000033
300.0000303
300.0000158
299.999996
299.9999772
299.9999729
300.0000215
300.0000244
300.0000278
300.0000237
300.0000077
299.9999847
299.9999714
299.999968
300.0000197
300.0000197
300.0000239
300.0000179
299.9999996
299.9999787
299.9999655
299.9999622
300.0000235
300.0000216
300.0000227
300.0000123
299.9999904
299.9999704
299.999957
299.9999541
300.0001275
300.0001144
300.0001138
300.0001192
300.0001091
300.0000787
300.0000357
300.0000016
299.9999874
300.0001645
300.0001478
300.0001461
300.0001569
300.0001468
300.000099
300.0000351
299.9999883
299.9999645
300.000138
300.0001223
300.0001271
300.0001372
300.0001256
300.0000779
300.0000147
299.9999633
299.9999406
300.0001115
300.0000994
300.0001078
300.0001176
300.0001006
300.0000482
299.9999839
299.9999275
299.999914
300.0000906
300.000076
300.0000836
300.000092
300.0000675
300.0000079
299.9999314
299.9998832
299.9998765
300.0000698
300.000059
300.0000636
300.0000646
300.0000304
299.9999584
299.9998833
299.9998395
299.9998369
300.0002222
300.0002264
300.0002366
300.000238
300.0002102
300.0001496
300.000078
300.000023
300.0000004
300.0004078
300.0004015
300.0004251
300.0004377
300.0003844
300.0002597
300.0001138
300.0000093
299.9999714
300.0004018
300.0003817
300.0004079
300.0004265
300.0003706
300.0002346
300.000076
299.9999707
299.9999372
300.0003522
300.0003229
300.0003513
300.0003706
300.0003065
300.0001604
300.0000043
299.9999138
299.9998953
300.000273
300.0002297
300.0002628
300.0002791
300.0002019
300.000051
299.999909
299.9998257
299.9998278
300.0001849
300.0001488
300.0001774
300.0001817
300.0000934
299.9999543
299.9998063
299.9997356
299.9997535
300.0002851
300.0003039
300.0003245
300.0003221
300.000282
300.0002063
300.0001237
300.0000626
300.0000376
300.0006326
300.0006592
300.0007034
300.0006963
300.0005927
300.0004074
300.0002084
300.0000647
300.0000143
300.000692
300.0007059
300.0007521
300.0007467
300.0006198
300.0003955
300.000162
300.0000091
299.9999671
300.0006275
300.000621
300.0006695
300.0006672
300.0005296
300.0002915
300.0000564
299.999932
299.9999159
300.0004999
300.0004724
300.0005215
300.0005154
300.0003658
300.0001273
299.999921
299.9998242
299.9998368
300.0003484
300.0003265
300.000371
300.0003568
300.0002026
299.9999761
299.9997909
299.9997107
299.9997494
300.0002824
300.0002951
300.0003233
300.000353
300.0003601
300.0003247
300.0002528
300.0001742
300.0001187
300.0000983
300.0006877
300.0007298
300.0007907
300.0008559
300.0008512
300.0007349
300.0005354
300.0003281
300.0001848
300.0001365
300.0008164
300.0008662
300.0009176
300.0009846
300.0009679
300.0008076
300.0005488
300.0002909
300.0001239
300.0000883
300.0007959
300.0008257
300.0008566
300.0009165
300.0008919
300.0007131
300.0004363
300.0001705
300.000023
300.0000252
300.0007054
300.0006979
300.0007061
300.0007525
300.0007147
300.0005211
300.0002406
299.9999872
299.9998801
299.9999268
300.0005445
300.0005068
300.0005148
300.0005587
300.0005167
300.0003226
300.0000465
299.9998202
299.9997399
299.9998144
300.0002605
300.0002485
300.0002501
300.0002647
300.0003013
300.0003446
300.0003637
300.0003418
300.0002859
300.0002213
300.0001755
300.0001574
300.0006625
300.0006532
300.0006745
300.0007211
300.0007991
300.000887
300.0009071
300.0008201
300.0006494
300.0004648
300.0003398
300.0003009
300.000854
300.0008343
300.0008437
300.0009007
300.0009838
300.0010804
300.0010835
300.0009415
300.0006993
300.0004544
300.0003068
300.0002838
300.0009153
300.0008846
300.0008689
300.0009124
300.0009762
300.0010522
300.0010276
300.0008517
300.0005828
300.0003249
300.0001909
300.0002084
300.0009118
300.0008628
300.0008134
300.0008259
300.0008594
300.0009026
300.000847
300.0006459
300.0003641
300.0001119
300.0000082
300.0000766
300.0006556
300.0006253
300.000649
300.0006834
300.0006221
300.0004195
300.00014
299.9999046
299.9998278
299.999934
300.0002379
300.0002084
300.0002012
300.0002112
300.0002522
300.0003077
300.0003416
300.0003338
300.000293
300.0002433
300.000206
300.000188
300.0006318
300.0005897
300.000582
300.0006249
300.0007325
300.0008534
300.0009008
300.0008475
300.0007216
300.0005737
300.0004671
300.0004277
300.0008537
300.0008123
300.0008001
300.0008545
300.0009644
300.0010834
300.0011144
300.0010194
300.0008257
300.0006142
300.0004826
300.0004569
300.0009632
300.0009164
300.0008799
300.0009164
300.0009971
300.0010877
300.001085
300.0009475
300.0007147
300.0004805
300.0003591
300.0003704
300.0009905
300.0009451
300.0008797
300.0008758
300.000915
300.0009616
300.0009132
300.000734
300.0004728
300.0002339
300.0001373
300.0002002
300.0007317
300.0006896
300.0007068
300.0007313
300.0006681
300.000479
300.0002141
299.9999907
299.9999211
300.0000281
300.0002077
300.0001782
300.0001679
300.0001694
300.0001986
300.0002461
300.0002862
300.0002953
300.0002701
300.0002317
300.0002016
300.0001852
300.0005734
300.0005131
300.0004835
300.0005062
300.0006058
300.0007467
300.00084
300.0008241
300.0007254
300.0006059
300.0005164
300.0004745
300.0008322
300.0007573
300.0007091
300.0007428
300.0008722
300.0010275
300.0010922
300.0010314
300.00089
300.0007256
300.0006092
300.000569
300.0010017
300.0009334
300.0008639
300.0008766
300.0009675
300.00107
300.001087
300.0009984
300.0008257
300.0006329
300.0005194
300.0005032
300.0010795
300.0010226
300.0009173
300.0008777
300.0009128
300.0009628
300.0009377
300.0008095
300.0006035
300.0004019
300.0003101
300.0003339
300.0007882
300.0007135
300.0007146
300.0007331
300.0006845
300.0005347
300.0003191
300.0001391
300.0000843
300.0001552
300.0001902
300.0001654
300.0001537
300.0001457
300.0001542
300.000179
300.0002067
300.0002174
300.0002045
300.0001824
300.0001663
300.0001573
300.0005265
300.0004675
300.0004339
300.0004306
300.0004862
300.0005893
300.0006841
300.000713
300.0006595
300.0005709
300.0004995
300.0004607
300.0007984
300.0007191
300.0006578
300.00066
300.0007465
300.0008842
300.0009897
300.0009837
300.0008808
300.0007516
300.0006527
300.0006004
300.0010133
300.0009373
300.000846
300.0008218
300.0008854
300.00099
300.0010452
300.000999
300.0008885
300.0007487
300.0006378
300.0005864
300.0011515
300.0010813
300.0009412
300.0008617
300.0008733
300.0009256
300.0009339
300.0008756
300.0007482
300.0006013
300.0004994
300.0004678
300.0008445
300.0007232
300.0007002
300.0007154
300.0006991
300.0006224
300.000498
300.000377
300.0003131
300.000319
300.000183
300.0001621
300.0001497
300.0001342
300.000124
300.0001263
300.0001352
300.0001378
300.0001323
300.0001295
300.0001334
300.0001377
300.000494
300.0004428
300.0004138
300.0003875
300.0003906
300.0004334
300.0004858
300.0005066
300.0004872
300.0004531
300.000426
300.0004077
300.0007593
300.0006902
300.0006362
300.0006092
300.0006341
300.0007101
300.0007894
300.0008218
300.0007864
300.0007112
300.0006354
300.0005835
300.0010004
300.0009287
300.0008374
300.0007851
300.0007994
300.0008647
300.0009301
300.0009487
300.0008869
300.00079
300.0006877
300.0006172
300.0011608
300.0010927
300.0009508
300.0008449
300.000821
300.0008567
300.0008986
300.0008982
300.0008475
300.000744
300.0006292
300.000561
300.0009034
300.0007411
300.0006924
300.0007083
300.0007312
300.0007365
300.0006957
300.0006083
300.0005081
300.000463
300.0001792
300.0001621
300.0001512
300.0001337
300.0001132
300.0001018
300.0000988
300.0000978
300.0001017
300.0001156
300.0001341
300.0001456
300.0004732
300.0004337
300.00041
300.0003718
300.0003382
300.0003314
300.0003427
300.0003502
300.0003536
300.0003682
300.0003881
300.0003942
300.000706
300.0006586
300.0006252
300.0005842
300.0005571
300.0005697
300.0006044
300.0006288
300.0006325
300.0006189
300.0005921
300.0005623
300.0009379
300.0008861
300.0008214
300.0007634
300.0007338
300.0007496
300.0007939
300.0008328
300.0008354
300.0007769
300.0006881
300.0006222
300.0011104
300.0010579
300.000942
300.0008377
300.0007881
300.0007982
300.0008473
300.0008851
300.0008687
300.0007887
300.0006727
300.0006026
300.0009363
300.0007699
300.0007015
300.0007108
300.0007642
300.0008128
300.0008081
300.0007253
300.0006018
300.0005433
300.0001815
300.0001719
300.0001637
300.000148
300.0001247
300.000109
300.0001021
300.0001024
300.0001146
300.0001391
300.0001675
300.0001825
300.0004715
300.0004429
300.000423
300.0003827
300.0003373
300.0003072
300.0002959
300.0002993
300.000323
300.0003678
300.0004115
300.0004298
300.0006713
300.0006447
300.0006279
300.0005863
300.0005357
300.0005067
300.0005029
300.0005169
300.0005472
300.0005805
300.0005896
300.000575
300.0008316
300.0008167
300.0008044
300.0007614
300.0007079
300.0006792
300.0006865
300.0007161
300.0007385
300.0007264
300.000675
300.000629
300.0009576
300.0009471
300.0009105
300.0008415
300.0007823
300.0007601
300.0007891
300.0008367
300.0008393
300.0007717
300.0006678
300.0006145
300.0010435
300.0010486
300.0009512
300.0008183
300.0007397
300.0007283
300.000768
300.0008162
300.0008158
300.0007324
300.0006119
300.0005647
300.0000032
300.0000019
300.0000029
300.000004
300.0000032
300.0000019
300.0000004
300
300.0000051
300.0000022
300.0000038
300.0000054
300.0000049
300.0000028
300.0000006
299.9999999
300.0000067
300.0000035
300.0000056
300.0000066
300.0000052
300.0000024
299.9999999
299.9999994
300.0000072
300.0000049
300.0000064
300.000006
300.0000035
300.0000009
299.999999
299.9999989
300.000007
300.0000047
300.0000055
300.0000046
300.0000024
300.0000004
299.9999987
299.999999
300.0000056
300.0000037
300.0000048
300.0000047
300.0000035
300.0000021
300.000001
300.0000005
300.0000032
300.0000035
300.0000064
300.0000074
300.0000061
300.0000041
300.0000022
300.0000009
300.0000023
300.0000078
300.0000162
300.0000178
300.0000139
300.0000082
300.0000024
299.9999992
299.9999996
300.0000124
300.0000111
300.000012
300.0000099
300.0000031
299.9999977
299.999994
299.9999937
300.0000169
300.0000135
300.0000149
300.0000129
300.0000051
299.9999988
299.9999944
299.9999938
300.0000189
300.0000165
300.0000179
300.0000147
300.0000062
299.9999994
299.9999951
299.9999939
300.0000199
300.0000183
300.0000192
300.0000151
300.0000068
300.0000004
299.9999954
299.9999925
300.0000207
300.0000186
300.0000187
300.0000146
300.0000075
300.0000026
299.9999988
299.9999943
300.0000215
300.0000182
300.000018
300.0000146
300.000009
300.0000045
299.9999997
299.9999936
300.0000195
300.0000184
300.0000184
300.0000148
300.0000093
300.000003
299.9999975
299.9999923
300.0000209
300.0000276
300.0000312
300.000026
300.0000156
300.0000057
299.9999954
299.9999885
299.9999879
300.0000275
300.0000229
300.0000208
300.0000077
299.9999863
299.9999661
299.9999531
299.9999508
300.000029
300.0000243
300.000023
300.0000119
299.9999901
299.9999715
299.999959
299.9999558
300.0000284
300.00003
300.0000322
300.0000252
300.0000071
299.9999872
299.9999742
299.9999688
300.000035
300.0000404
300.0000447
300.0000396
300.0000246
300.0000104
299.9999986
299.9999897
300.0000472
300.0000506
300.0000533
300.000048
300.0000345
300.0000216
300.0000089
299.9999972
300.000059
300.0000571
300.0000532
300.0000439
300.0000311
300.0000176
300.000003
299.9999887
300.0000627
300.000058
300.0000452
300.000028
300.0000133
299.9999974
299.9999787
299.9999653
300.0000624
300.000065
300.0000466
300.0000176
299.9999941
299.9999735
299.9999543
299.9999467
299.9999366
300.0000447
300.0000447
300.0000479
300.0000434
300.0000078
299.9999345
299.9998638
299.9998242
299.9998228
300.000016
300.000033
300.0000449
300.0000457
300.0000186
299.9999591
299.9998959
299.9998596
299.9998551
300.0000414
300.0000646
300.0000783
300.000067
300.0000289
299.9999854
299.9999483
299.9999345
300.0000735
300.0001096
300.0001348
300.0001345
300.0001056
300.0000654
300.0000269
300.0000014
300.0001277
300.0001621
300.0001823
300.0001792
300.0001497
300.0001062
300.0000599
300.0000234
300.0001793
300.0001943
300.0001842
300.0001601
300.0001261
300.0000817
300.0000349
300.0000018
300.0002072
300.0001963
300.0001421
300.0000843
300.0000406
300.0000022
299.9999673
299.9999503
300.0001999
300.0001875
300.0001081
300.0000239
299.9999548
299.9999091
299.9998857
299.9998949
299.99988
300.0000941
300.0000881
300.0001143
300.0001137
300.0000329
299.9999056
299.99977
299.9997082
299.9997291
300.0000124
300.0000491
300.0001013
300.0001188
300.0000608
299.9999582
299.9998404
299.9997817
299.9997926
300.000072
300.0001596
300.0002082
300.0001871
300.0001044
300.0000062
299.9999467
299.9999327
300.0001629
300.0002807
300.0003511
300.0003486
300.0002766
300.0001782
300.0000976
300.0000508
300.0003138
300.0004171
300.0004629
300.0004407
300.0003577
300.000252
300.0001627
300.0001029
300.0004602
300.0005061
300.0004736
300.0003948
300.0002917
300.0001876
300.0001058
300.0000547
300.000546
300.000522
300.0003849
300.0002283
300.0001053
300.0000184
299.9999694
299.9999559
300.0005254
300.000481
300.0002835
300.0000751
299.9999363
299.9998598
299.9998386
299.9998771
299.9998756
300.0001748
300.0001881
300.0002472
300.0002428
300.0001094
299.9999135
299.999743
299.9996734
299.9997194
300.0000241
300.0000951
300.0002028
300.000236
300.0001495
299.9999821
299.9998307
299.9997632
299.999795
300.0001124
300.0002647
300.0003435
300.0003092
300.0001817
300.0000388
299.9999616
299.9999644
300.0002369
300.0004196
300.0005196
300.0005014
300.0003838
300.0002405
300.0001533
300.0001349
300.0004512
300.0005996
300.0006554
300.000605
300.0004701
300.0003197
300.0002245
300.0001938
300.0006549
300.0007185
300.0006657
300.000535
300.0003709
300.0002288
300.000149
300.0001274
300.0007792
300.0007451
300.0005515
300.0003138
300.0001236
300.0000145
299.9999728
299.9999848
300.0007531
300.0006707
300.0003957
300.0001017
299.9999118
299.9998233
299.9998198
299.9998865
299.9999029
300.0003184
300.0002573
300.0002989
300.0003745
300.0003612
300.0002014
299.9999585
299.9997576
299.99969
299.9997726
300.0000795
300.0000251
300.0001345
300.000275
300.000318
300.0002188
300.0000246
299.999844
299.9997795
299.9998565
299.9999524
299.9999304
300.000111
300.0003065
300.0004009
300.0003557
300.0002063
300.0000502
299.9999881
300.0000484
299.999983
300.0000201
300.0002408
300.0004554
300.0005645
300.0005346
300.0003966
300.0002426
300.0001689
300.000207
300.0001465
300.0002522
300.000476
300.0006395
300.0006938
300.0006276
300.0004729
300.0003142
300.0002326
300.0002513
300.0003514
300.0005029
300.0006925
300.000757
300.0006947
300.0005434
300.0003603
300.0002143
300.0001531
300.0001792
300.0005045
300.000668
300.0008202
300.0007711
300.0005625
300.0003035
300.0000935
299.9999821
299.9999732
300.0000323
300.0005333
300.0006771
300.0007878
300.0006797
300.0003883
300.000077
299.9998626
299.9997832
299.9998212
299.9999243
299.9999642
300.0003582
300.0003067
300.0003714
300.0004483
300.0004238
300.0002586
300.0000117
299.9998065
299.9997487
299.9998732
300.0000562
299.999998
300.0001363
300.0002938
300.0003359
300.0002329
300.000037
299.9998645
299.99982
299.999947
299.9999025
299.9998548
300.0000698
300.0002944
300.0003917
300.0003398
300.0001839
300.0000352
299.9999996
300.0001154
299.9999538
299.9999629
300.0001896
300.0004209
300.0005285
300.0004878
300.0003383
300.0001923
300.0001533
300.0002434
300.0001397
300.0002174
300.0004201
300.000584
300.0006315
300.0005514
300.0003827
300.0002395
300.0002051
300.0002749
300.000361
300.000473
300.0006207
300.000673
300.0006059
300.0004451
300.000252
300.0001376
300.0001387
300.0002168
300.0005302
300.0006397
300.0007226
300.0006511
300.0004463
300.000187
299.9999833
299.9999243
299.9999824
300.0000983
300.0005697
300.0006493
300.0006772
300.0005354
300.0002534
299.9999559
299.9997677
299.9997615
299.9998475
300.000007
300.0000548
300.0003781
300.0003275
300.0003901
300.0004596
300.0004316
300.0002775
300.0000478
299.9998616
299.9998181
299.9999531
299.9999887
299.9999414
300.0001051
300.0002683
300.0003049
300.0002032
300.0000297
299.9998872
299.9998657
300.0000131
299.9997795
299.9997258
299.9999521
300.0002045
300.0002997
300.0002405
300.000103
300.0000071
300.0000108
300.0001505
299.9998429
299.9998099
300.0000228
300.0002629
300.000359
300.00031
300.0001891
300.0001148
300.0001356
300.0002535
300.0000658
300.0000722
300.0002147
300.0003626
300.000397
300.0003203
300.0002032
300.0001482
300.000182
300.0002839
300.0003143
300.0003282
300.0003709
300.0003869
300.0003246
300.0001997
300.0000922
300.0000766
300.0001431
300.00026
300.0005078
300.0004983
300.0004252
300.0002997
300.0001279
299.9999548
299.9998699
299.9999142
300.0000288
300.0002022
300.0005672
300.0005248
300.0003738
300.0001618
299.9999277
299.9997468
299.9997038
299.9997845
299.9999385
300.0001636
300.0002373
300.0004109
300.0003394
300.0003812
300.0004376
300.0004174
300.0002971
300.0001095
299.9999667
299.9999515
300.0000685
299.9999694
299.9999147
300.0000479
300.0001907
300.000229
300.0001685
300.0000422
299.9999453
299.999957
300.0000985
299.9996988
299.9996486
299.9998491
300.0000717
300.0001642
300.0001445
300.0000736
300.00002
300.0000498
300.0001872
299.9997222
299.9996916
299.9998777
300.000089
300.0001797
300.0001701
300.0001259
300.0001073
300.0001491
300.0002645
299.9999448
299.9999296
300.0000339
300.0001546
300.0001916
300.0001651
300.0001321
300.0001386
300.0001968
300.0003024
300.0002391
300.0002021
300.0001751
300.0001558
300.0001092
300.000055
300.0000403
300.0000868
300.0001899
300.0003246
300.0004956
300.0004076
300.000223
300.0000443
299.9999017
299.9998259
299.9998497
299.9999625
300.0001568
300.0003587
300.0005856
300.000468
300.0001887
299.9999081
299.9997083
299.9996432
299.9997139
299.9998896
300.0001542
300.0004074
300.0005211
300.0004751
300.0003627
300.0003733
300.0004166
300.0004204
300.0003508
300.0002545
300.0001937
300.0001845
300.0002334
299.9999952
299.999926
300.000034
300.0001546
300.0002085
300.0001848
300.0001221
300.0001079
300.0001533
300.0002305
299.9996978
299.9996459
299.9998203
300.000016
300.0001165
300.0001372
300.000113
300.0001166
300.0001762
300.0002645
299.9996916
299.9996664
299.9998271
300.0000165
300.0001173
300.0001493
300.000149
300.0001718
300.0002313
300.0003062
299.9998922
299.9998829
299.9999657
300.0000724
300.0001267
300.0001441
300.0001549
300.0002039
300.0002821
300.000357
300.0002168
300.000174
300.0001151
300.000075
300.0000461
300.0000399
300.0000732
300.0001818
300.0003309
300.000445
300.0005233
300.0004108
300.0001776
299.9999606
299.9998318
299.9998152
299.9999035
300.0001271
300.0003885
300.0005693
300.0006706
300.0004943
300.0001613
299.9998366
299.9996517
299.9996475
299.9998012
300.0001324
300.0004688
300.0006919
300.0008157
300.0006091
300.0004269
300.0003913
300.0004265
300.0004584
300.0004871
300.0004949
300.0004654
300.0004117
300.0003973
300.0001183
300.0000026
300.0000606
300.0001649
300.0002358
300.0002828
300.0003485
300.0003889
300.0003851
300.0003853
299.9997806
299.9997115
299.9998451
300.0000218
300.0001335
300.0002052
300.0002936
300.0003761
300.0004038
300.0003995
299.9997328
299.9997036
299.9998412
300.0000181
300.0001313
300.0002106
300.000307
300.0004049
300.0004461
300.0004272
299.9999058
299.9998977
299.9999722
300.0000748
300.0001453
300.0002104
300.0003149
300.0004365
300.0005023
300.0005016
300.0002343
300.0002003
300.0001317
300.0000823
300.0000675
300.0001133
300.000249
300.0004366
300.0005825
300.0006452
300.0006023
300.000484
300.000213
299.9999718
299.9998515
299.9998941
300.0001075
300.0004119
300.0006739
300.0008083
300.0007888
300.0006087
300.0002181
299.9998626
299.9996878
299.9997527
300.0000463
300.0004455
300.0007811
300.0009412
300.0010158
300.0007541
300.0005319
300.0004533
300.0004786
300.0005602
300.0006489
300.000685
300.0006406
300.0005437
300.000504
300.0003937
300.0001992
300.0001694
300.0002405
300.0003595
300.000508
300.0006083
300.0006192
300.0005525
300.0005179
300.0000682
299.999936
299.9999772
300.0001059
300.0002591
300.0004432
300.000604
300.0006587
300.0006251
300.0005717
299.9999235
299.9998672
299.9999484
300.0000934
300.0002447
300.0004309
300.0006174
300.0007086
300.0007098
300.0006463
299.9999995
299.9999952
300.000051
300.0001418
300.0002484
300.0004021
300.0005811
300.0007205
300.0007742
300.0007501
300.0002902
300.0002909
300.0002153
300.0001498
300.0001586
300.0002628
300.000457
300.0006928
300.0008506
300.0008932
300.0006577
300.0005866
300.0003125
300.0000461
299.999939
300.0000285
300.000301
300.0006693
300.0009403
300.0010333
300.0008458
300.0007155
300.000342
299.9999666
299.9998102
299.9999289
300.0002769
300.0007177
300.0010129
300.0011113
300.0010907
300.0010028
300.0010171
300.0009052
300.0007353
300.0006254
300.000616
300.0006724
300.0007359
300.0007451
300.000663
300.0005601
300.0005334
300.0009079
300.0008937
300.0007463
300.0005495
300.0004333
300.0004387
300.0005322
300.000651
300.0007039
300.0006544
300.0005697
300.00055
300.0007867
300.0007166
300.0005329
300.0003584
300.0002772
300.0003187
300.0004542
300.0006303
300.0007294
300.0007232
300.0006559
300.0006309
300.0006155
300.0005103
300.0003485
300.0002337
300.0002161
300.0002938
300.0004588
300.0006718
300.000817
300.0008485
300.0008045
300.0007578
300.0004342
300.0003298
300.0002473
300.000228
300.0002474
300.0003163
300.0004584
300.0006578
300.000838
300.000933
300.0009467
300.000909
300.0004151
300.0003517
300.0003592
300.0003917
300.0003522
300.0002935
300.0003384
300.0005103
300.0007551
300.0009734
300.001061
300.001055
300.0005959
300.0006009
300.000667
300.000653
300.00046
300.0001857
300.0001063
300.00029
300.0006379
300.000979
300.0011338
300.0011487
300.0007864
300.000814
300.0008531
300.0007792
300.0005
300.0001588
300.0000514
300.0002471
300.0006148
300.0009646
300.0011309
300.0011545
300.0010584
299.9999985
299.9999983
299.9999976
299.999997
299.999996
299.9999959
299.9999999
299.9999994
299.9999986
299.9999969
299.9999949
299.9999953
299.9999993
299.9999992
299.9999985
299.9999964
299.9999951
299.9999963
299.9999996
299.9999998
299.9999995
299.9999979
299.9999972
299.9999983
300
300.0000005
300.0000005
300
299.9999999
300.0000001
300.0000004
300.0000014
300.0000016
300.0000016
300.0000017
300.0000006
299.9999956
299.9999955
299.9999968
299.999996
299.9999938
299.9999944
299.9999965
299.999996
299.9999959
299.9999939
299.9999923
299.9999952
299.9999954
299.9999951
299.9999946
299.9999938
299.9999938
299.9999971
299.9999956
299.9999962
299.9999957
299.9999965
299.999998
300.0000002
299.9999958
299.9999971
299.9999972
299.9999988
300.0000017
300.0000023
299.9999959
299.9999976
299.9999984
299.9999999
300.0000027
300.0000016
299.9999882
299.9999954
300.0000012
300.0000027
300.0000017
300.0000007
299.9999811
299.9999921
300.0000003
300.0000024
300.0000037
300.0000057
299.9999756
299.9999863
299.9999971
300.0000007
300.0000037
300.0000072
299.9999715
299.9999824
299.9999959
300.0000016
300.0000062
300.0000089
299.9999656
299.9999749
299.9999903
300.0000009
300.0000077
300.0000089
299.9999587
299.9999668
299.9999808
299.999997
300.0000055
300.0000066
299.99999
300.0000042
300.0000213
300.0000306
300.0000301
300.0000158
299.9999726
299.9999999
300.0000267
300.0000456
300.0000539
300.0000359
299.9999561
299.99999
300.0000179
300.000037
300.0000493
300.0000399
299.9999391
299.9999813
300.0000101
300.0000287
300.0000418
300.0000387
299.9999082
299.9999595
299.9999963
300.0000189
300.0000353
300.0000358
299.9998717
299.9999282
299.9999775
300.0000079
300.0000292
300.0000335
300.0000055
300.0000294
300.0000531
300.0000615
300.0000543
300.0000258
299.9999849
300.0000342
300.0000953
300.0001258
300.0001211
300.0000609
299.9999621
300.0000203
300.0000872
300.0001296
300.0001369
300.0000751
299.9999394
300.0000043
300.000066
300.0001119
300.0001335
300.0000822
299.9998953
299.9999737
300.0000378
300.0000874
300.000124
300.0000851
299.9998385
299.9999327
300.0000076
300.0000693
300.0001191
300.0000872
300.0000454
300.0000675
300.0000803
300.0000795
300.0000672
300.0000325
300.0000394
300.0001132
300.0001696
300.000185
300.0001618
300.0000771
300.0000131
300.0001131
300.0001994
300.0002288
300.0002071
300.0001008
299.9999856
300.0000995
300.0002023
300.0002465
300.0002353
300.0001168
299.9999342
300.000063
300.0001795
300.0002468
300.0002517
300.0001252
299.9998679
300.0000115
300.0001461
300.0002391
300.000261
300.0001295
300.0001039
300.000113
300.0001095
300.0000999
300.0000861
300.0000433
300.0001709
300.0002237
300.0002421
300.0002305
300.0001985
300.0000998
300.0001641
300.0002652
300.0003114
300.0003042
300.0002598
300.0001289
300.0001445
300.0002877
300.0003611
300.000364
300.0003089
300.0001443
300.0000906
300.000272
300.0003769
300.0003998
300.0003406
300.0001488
300.0000098
300.000226
300.0003667
300.0004123
300.0003555
300.0001496
300.0001572
300.0001581
300.0001509
300.0001416
300.0001259
300.00006
300.0003235
300.0003467
300.0003352
300.0003073
300.0002744
300.0001397
300.0003537
300.0004179
300.0004243
300.000392
300.0003432
300.0001723
300.0003334
300.0004486
300.0004866
300.0004576
300.0003821
300.000177
300.0002617
300.0004316
300.0005079
300.0004931
300.0003945
300.0001669
300.0001642
300.0003867
300.0005019
300.0005034
300.0003946
300.0001579
300.0001834
300.0001835
300.0001841
300.0001833
300.00016
300.0000678
300.0004331
300.0004432
300.0004377
300.0004245
300.0003778
300.0001701
300.0005025
300.0005427
300.0005444
300.0005229
300.0004618
300.0002093
300.000469
300.0005549
300.0005812
300.0005565
300.000472
300.0002061
300.0003644
300.0005109
300.000573
300.0005508
300.0004425
300.0001835
300.0002482
300.0004523
300.0005497
300.0005334
300.0004096
300.0001642
300.0001789
300.000179
300.0001847
300.0001884
300.0001596
300.0000617
300.0004658
300.0004715
300.0004829
300.0004854
300.0004148
300.0001682
300.0005796
300.0006031
300.0006209
300.0006186
300.0005269
300.0002147
300.0005509
300.0006087
300.0006439
300.0006384
300.0005329
300.0002146
300.0004353
300.0005469
300.0006083
300.0005999
300.0004834
300.0001925
300.0003116
300.000478
300.000564
300.0005474
300.0004245
300.0001714
300.0001526
300.0001531
300.0001624
300.0001665
300.000135
300.0000478
300.0004471
300.000452
300.0004715
300.0004763
300.0003914
300.0001449
300.0005887
300.0006043
300.0006317
300.0006347
300.0005225
300.0001982
300.0005875
300.0006255
300.0006708
300.0006713
300.0005414
300.0002066
300.0005006
300.0005769
300.0006421
300.0006381
300.0005004
300.0001914
300.0003947
300.0005097
300.0005852
300.0005725
300.0004451
300.0001767
300.000136
300.0001333
300.0001378
300.0001403
300.000116
300.000044
300.0003941
300.0003937
300.000414
300.0004184
300.0003392
300.0001335
300.0005611
300.0005685
300.0006005
300.000601
300.0004804
300.0001865
300.0005973
300.0006252
300.0006697
300.0006645
300.0005221
300.000199
300.0005591
300.0006158
300.0006699
300.0006501
300.0004977
300.000188
300.0004919
300.000576
300.0006322
300.0006046
300.000461
300.0001789
300.0001446
300.0001385
300.0001397
300.0001439
300.0001257
300.0000527
300.0003845
300.0003774
300.0003902
300.0003999
300.000342
300.0001479
300.0005409
300.0005417
300.0005673
300.0005708
300.0004728
300.000197
300.0006014
300.0006236
300.0006586
300.000647
300.0005139
300.0002037
300.0005965
300.000644
300.0006792
300.0006476
300.000495
300.0001891
300.0005623
300.000627
300.0006597
300.0006186
300.0004675
300.0001784
300.0001779
300.0001661
300.0001649
300.0001715
300.0001526
300.0000622
300.0004191
300.0004049
300.0004154
300.0004348
300.0003916
300.0001701
300.0005558
300.0005529
300.0005768
300.0005888
300.0005094
300.0002174
300.0006139
300.000631
300.0006605
300.0006519
300.000532
300.0002157
300.0006153
300.0006527
300.0006767
300.0006447
300.0005
300.0001913
300.00059
300.0006381
300.0006581
300.000614
300.000465
300.0001736
300.000001
300.000002
300.0000019
300.0000016
300.0000012
299.9999996
300.0000008
300.0000013
300.0000006
299.9999996
299.9999986
299.9999972
300
299.9999998
299.9999985
299.9999961
299.9999945
299.9999947
299.9999991
299.9999981
299.9999954
299.9999921
299.9999906
299.9999924
299.9999988
299.9999968
299.9999931
299.9999896
299.9999883
299.9999912
299.9999993
299.9999969
299.9999927
299.999989