-1.25 	300 	0.1165204660773776 	101372.5528258147
-1.247497497497497 	300.0347424112987 	0.1167133396112609 	101372.7625322539
-1.244994994994995 	300.0402288144277 	0.1174143552350941 	101372.9580522516
-1.242492492492492 	300.0407134030914 	0.1180255567570384 	101373.1456398729
-1.23998998998999 	300.0408723674914 	0.1183635017339535 	101373.3244640034
-1.237487487487487 	300.0410136156295 	0.1188054802085425 	101373.4943375641
-1.234984984984985 	300.0411496386185 	0.119204870325017 	101373.6552686584
-1.232482482482482 	300.0412781358389 	0.1195739396518605 	101373.8072362148
-1.22997997997998 	300.041399034393 	0.1199251674206591 	101373.9502169
-1.227477477477477 	300.0415123163287 	0.1202535319288119 	101374.0841901503
-1.224974974974975 	300.0416179594351 	0.120558634270048 	101374.2091338469
-1.222472472472472 	300.0417159521535 	0.120842169146443 	101374.3250230266
-1.21996996996997 	300.0418062840378 	0.1211047761831619 	101374.43185145
-1.217467467467467 	300.0418889446298 	0.1213454235443755 	101374.5296175951
-1.214964964964965 	300.0419639245038 	0.1215610809795132 	101374.6182994187
-1.212462462462462 	300.0420312062179 	0.121755131410859 	101374.6978704611
-1.20995995995996 	300.0420907546786 	0.1219274740041497 	101374.7682968185
-1.207457457457457 	300.04214253866 	0.1220778934085325 	101374.8295431133
-1.204954954954955 	300.0421865368615 	0.1222069186087572 	101374.8815803063
-1.202452452452452 	300.0422227371846 	0.1223110909930512 	101374.9243962292
-1.19994994994995 	300.0422511366301 	0.1223925503543088 	101374.9579894782
-1.197447447447447 	300.0422717588309 	0.1224522804428756 	101374.9823871597
-1.194944944944945 	300.0422846295986 	0.1224907211850127 	101374.997617508
-1.192442442442442 	300.0422897692636 	0.1225071635305856 	101375.0037004348
-1.18993993993994 	300.0422871755936 	0.1224984160060368 	101375.0006359205
-1.187437437437437 	300.0422768130308 	0.1224671703728016 	101374.9883857102
-1.184934934934935 	300.0422586624435 	0.1224142189751097 	101374.9669243821
-1.182432432432432 	300.0422327100283 	0.1223391900505252 	101374.9362356622
-1.17992992992993 	300.0421989704519 	0.1222421902429476 	101374.8963400639
-1.177427427427427 	300.0421574633208 	0.1221217542412977 	101374.8472618781
-1.174924924924925 	300.0421082011489 	0.1219788159287534 	101374.7890108808
-1.172422422422422 	300.0420511921761 	0.1218137275991443 	101374.7215943091
-1.16991991991992 	300.0419864257574 	0.1216265989100155 	101374.6450036853
-1.167417417417417 	300.0419139229504 	0.1214171345710297 	101374.5592681454
-1.164914914914915 	300.0418337057937 	0.1211845876754634 	101374.464414479
-1.162412412412412 	300.0417458062943 	0.1209296256192283 	101374.3604758615
-1.15990990990991 	300.0416502598659 	0.1206524662805616 	101374.2474884113
-1.157407407407407 	300.0415470695052 	0.1203535360806118 	101374.1254549265
-1.154904904904904 	300.0414362507609 	0.1200326491492356 	101373.9943982713
-1.152402402402403 	300.0413177994239 	0.119689598314253 	101373.8543195706
-1.1498998998999 	300.0411917154838 	0.1193246065527495 	101373.705220977
-1.147397397397397 	300.0410580334383 	0.1189374368739122 	101373.5471410537
-1.144894894894895 	300.0409167749272 	0.1185284731162038 	101373.3801004615
-1.142392392392392 	300.0407679888345 	0.1180973273563944 	101373.204152022
-1.13988988988989 	300.0406117207588 	0.1176444823555236 	101373.0193488022
-1.137387387387387 	300.0404479819546 	0.1171701331021059 	101372.825705672
-1.134884884884885 	300.0402768153822 	0.1166738937193612 	101372.6232767188
-1.132382382382382 	300.0400982427681 	0.1161566144501422 	101372.4120899549
-1.12987987987988 	300.0399122726565 	0.1156177738935952 	101372.1921562629
-1.127377377377377 	300.0397189565025 	0.1150583999327902 	101371.9635384126
-1.124874874874875 	300.039518315667 	0.1144780420540272 	101371.726261341
-1.122372372372372 	300.0393103766205 	0.1138752321638349 	101371.4803562004
-1.11986986986987 	300.0390952190347 	0.1132517514570373 	101371.2259168985
-1.117367367367367 	300.0388728696494 	0.1126070860862498 	101370.962973339
-1.114864864864865 	300.0386433568098 	0.1119429657498567 	101370.6915603236
-1.112362362362362 	300.0384067653417 	0.1112585352548379 	101370.4117773038
-1.10985985985986 	300.0381631025177 	0.1105513039330166 	101370.1236330261
-1.107357357357357 	300.037912381064 	0.1098247322548648 	101369.8271423744
-1.104854854854855 	300.0376546967834 	0.1090783516634554 	101369.5224173543
-1.102352352352353 	300.0373900588784 	0.1083129948692933 	101369.209470432
-1.09984984984985 	300.0371184796665 	0.1075276721893871 	101368.8883152439
-1.097347347347347 	300.0368401067256 	0.1067199993926951 	101368.5591266649
-1.094844844844845 	300.0365549886026 	0.1058934081793099 	101368.2219627332
-1.092342342342342 	300.0362631096339 	0.105047553203435 	101367.8768039737
-1.08983983983984 	300.0359646173758 	0.1041831304726022 	101367.5238259317
-1.087337337337337 	300.0356595629383 	0.1032995585737265 	101367.1630888104
-1.084834834834835 	300.0353478249829 	0.1023954061346098 	101366.7944491713
-1.082332332332332 	300.035029528127 	0.1014736983252378 	101366.4180538539
-1.07982982982983 	300.0347048939688 	0.1005338038787813 	101366.0341647395
-1.077327327327327 	300.0343738445627 	0.09957494459019052 	101365.6426908113
-1.074824824824825 	300.0340363767899 	0.09859820491326887 	101365.2436283598
-1.072322322322323 	300.033692723263 	0.09760268283535711 	101364.8372524456
-1.06981981981982 	300.0333428421488 	0.09658822351618855 	101364.4235127295
-1.067317317317317 	300.0329866214983 	0.09555607326425125 	101364.002277324
-1.064814814814815 	300.0326244124461 	0.09450690068177689 	101363.5739623202
-1.062312312312312 	300.032256453467 	0.09344166509130014 	101363.1388493536
-1.05980980980981 	300.0318824238615 	0.09235873279830151 	101362.696559026
-1.057307307307307 	300.0315023083884 	0.09125694119011261 	101362.2470730045
-1.054804804804805 	300.0311166383274 	0.09013908938872829 	101361.7910200407
-1.052302302302302 	300.0307254378611 	0.08900581782276831 	101361.3284288197
-1.0497997997998 	300.0303282478422 	0.08785588466910146 	101360.8587563638
-1.047297297297297 	300.0299252417491 	0.08668891886312531 	101360.3822083671
-1.044794794794795 	300.0295170144185 	0.08550571015119891 	101359.8994873817
-1.042292292292292 	300.0291035292785 	0.08430732973565327 	101359.410550742
-1.03978978978979 	300.0286843461895 	0.08309338504682585 	101358.9148786229
-1.037287287287287 	300.0282596272744 	0.08186372352670465 	101358.4126618957
-1.034784784784785 	300.027830057984 	0.08061970912466329 	101357.9047113113
-1.032282282282283 	300.0273957196507 	0.07936119221182668 	101357.39112304
-1.02977977977978 	300.0269560196715 	0.07808715415716133 	101356.8711972244
-1.027277277277277 	300.0265109567642 	0.07679822344939709 	101356.3449320821
-1.024774774774775 	300.0260612039834 	0.07549538150565843 	101355.8131221763
-1.022272272272272 	300.0256070565716 	0.07417993934368022 	101355.2761181696
-1.01976976976977 	300.0251481934362 	0.07285070047011383 	101354.7335410934
-1.017267267267267 	300.0246843054701 	0.07150668742744516 	101354.1850244688
-1.014764764764765 	300.0242156296406 	0.0701493395522491 	101353.6308465588
-1.012262262262262 	300.0237425978266 	0.06877886559650698 	101353.0715189937
-1.00975975975976 	300.0232654989633 	0.06739761635426034 	101352.5073880824
-1.007257257257257 	300.0227843725034 	0.06600439945828727 	101351.9384986949
-1.004754754754755 	300.0222990009826 	0.06459705586133828 	101351.3645896731
-1.002252252252252 	300.0218090149183 	0.06317735621970946 	101350.7852224374
-0.9997497497497498 	300.0213144357363 	0.06174471784650558 	101350.2004260392
-0.9972472472472473 	300.0208160404256 	0.0603026317728289 	101349.6111271095
-0.9947447447447449 	300.0203148108879 	0.05885159557300255 	101349.0184838324
-0.9922422422422421 	300.0198107215042 	0.05738953104873736 	101348.4224567016
-0.9897397397397399 	300.0193025309475 	0.05591666405145006 	101347.8215729924
-0.9872372372372376 	300.0187890885379 	0.05442920328037486 	101347.2144784478
-0.9847347347347346 	300.0182709980853 	0.05293023265574519 	101346.60190097
-0.9822322322322323 	300.0177504060978 	0.0514235031517046 	101345.9863806437
-0.9797297297297296 	300.0172289483217 	0.04991105082210582 	101345.3698402648
-0.9772272272272275 	300.0167059240402 	0.0483944193791435 	101344.7514365771
-0.9747247247247248 	300.0161787667594 	0.04686644491749922 	101344.1281337066
-0.9722222222222224 	300.0156456000491 	0.04532259064774215 	101343.4977285381
-0.9697197197197196 	300.0151071298682 	0.04376441436492952 	101342.8610708948
-0.9672172172172175 	300.0145662894987 	0.04219859507255868 	101342.2216317217
-0.9647147147147147 	300.0140258613054 	0.04063333490917224 	101341.5826865156
-0.9622122122122124 	300.013486190337 	0.03906923440812474 	101340.94462476
-0.9597097097097099 	300.0129451286718 	0.03750087763568236 	101340.304899985
-0.9572072072072073 	300.0123997495131 	0.03592001105391047 	101339.6600613011
-0.9547047047047047 	300.011848420735 	0.03432240651913254 	101339.0081986305
-0.9522022022022023 	300.0112919596713 	0.0327111162040318 	101338.3502937485
-0.9496996996996998 	300.010732962629 	0.03109254695182814 	101337.6894151375
-0.9471971971971973 	300.0101740322636 	0.02947397276119959 	101337.028624715
-0.9446946946946947 	300.009616461705 	0.02785941064635515 	101336.3694316438
-0.9421921921921923 	300.0090598644367 	0.02624690122724465 	101335.7113664478
-0.93968968968969 	300.0085025956238 	0.02463151412678407 	101335.0524883938
-0.9371871871871872 	300.0079427430486 	0.02300906207823224 	101334.3905532678
-0.9346846846846848 	300.0073791711218 	0.02137645123905475 	101333.7242356625
-0.9321821821821823 	300.006811888246 	0.01973419613905267 	101333.0535560984
-0.9296796796796799 	300.0062417679588 	0.01808339493755017 	101332.3795489229
-0.9271771771771771 	300.0056699412199 	0.01642604057354898 	101331.703543397
-0.9246746746746748 	300.0050974225405 	0.01476709884837842 	101331.0267259777
-0.9221721721721724 	300.0045249218336 	0.01310887901787298 	101330.3499217517
-0.9196696696696698 	300.0039527920667 	0.01145225182393735 	101329.6735367423
-0.9171671671671672 	300.0033809983637 	0.009796471581826638 	101328.9975269535
-0.9146646646646649 	300.0028092957517 	0.008139595938860338 	101328.3216065358
-0.9121621621621623 	300.002237380903 	0.006482118679185644 	101327.6454247511
-0.9096596596596597 	300.001665038832 	0.004824045766876922 	101326.9687350502
-0.9071571571571573 	300.0010921842223 	0.003164321514913641 	101326.291442417
-0.9046546546546547 	300.0005188220068 	0.001503437761487018 	101325.6135569465
-0.9021521521521524 	299.9999450496356 	0.000810680246692098 	101324.9351962728
-0.8996496496496498 	299.9993710495665 	0.001822416668685947 	101324.2565777492
-0.8971471471471473 	299.99879700407 	0.003485211023303286 	101323.5779165396
-0.894644644644645 	299.9982230638936 	0.005147970900496366 	101322.899390726
-0.892142142142142 	299.9976493657041 	0.006808649941197363 	101322.2211625114
-0.8896396396396397 	299.9970760462684 	0.008468962490206521 	101321.5433892101
-0.8871371371371374 	299.9965032370729 	0.01012935136584866 	101320.8662258699
-0.8846346346346349 	299.995931065451 	0.01178711091715698 	101320.1898206626
-0.8821321321321324 	299.9953596427209 	0.01344347308792765 	101319.5143045117
-0.8796296296296297 	299.9947890660507 	0.01509541246026939 	101318.8397951596
-0.8771271271271271 	299.9942194349534 	0.01674493717501439 	101318.1664101064
-0.8746246246246248 	299.9936508519295 	0.01839323417461096 	101317.4942690912
-0.8721221221221224 	299.9930834209734 	0.02003692792548343 	101316.8234929666
-0.8696196196196196 	299.9925172468973 	0.02167733172720401 	101316.1542028619
-0.8671171171171175 	299.9919524333413 	0.0233124780105972 	101315.4865222
-0.8646146146146148 	299.991389088112 	0.024943926995578 	101314.8205800927
-0.8621121121121121 	299.990827322267 	0.02657262649648534 	101314.1565098747
-0.8596096096096097 	299.9902672466882 	0.02819548385477372 	101313.4944430871
-0.857107107107107 	299.9897089668237 	0.02981304883815405 	101312.8345047918
-0.8546046046046049 	299.9891525861798 	0.0314245323299139 	101312.1768157472
-0.8521021021021022 	299.9885982082318 	0.0330302965605417 	101311.5214950147
-0.8495995995995997 	299.9880459321332 	0.03463054085498139 	101310.8686591051
-0.8470970970970974 	299.9874958531211 	0.03622407403600512 	101310.2184199739
-0.8445945945945946 	299.9869480609827 	0.03781104252247261 	101309.5708856848
-0.8420920920920922 	299.9864026488262 	0.03939079344628378 	101308.9261694161
-0.8395895895895897 	299.9858597219483 	0.04096352577001926 	101308.284396774
-0.8370870870870872 	299.9853193931268 	0.04252907957100895 	101307.645700985
-0.8345845845845846 	299.9847817763641 	0.04408666658206517 	101307.0102155762
-0.8320820820820823 	299.9842469812993 	0.04563613417710907 	101306.378069168
-0.8295795795795798 	299.9837151103424 	0.0471768179457674 	101305.749380569
-0.8270770770770772 	299.9831862579336 	0.04870880732394014 	101305.1242595869
-0.8245745745745746 	299.9826605119982 	0.0502318831487036 	101304.5028105518
-0.8220720720720721 	299.9821379575654 	0.0517457208660263 	101303.8851345684
-0.8195695695695699 	299.9816186806651 	0.05325021954527911 	101303.2713353992
-0.817067067067067 	299.9811027735398 	0.05474482772868291 	101302.6615228428
-0.8145645645645651 	299.9805903307752 	0.05622912962837935 	101302.0558086691
-0.8120620620620621 	299.9800814478244 	0.05770326936904262 	101301.4543063364
-0.8095595595595597 	299.9795762251413 	0.05916739796548667 	101300.8571351677
-0.8070570570570572 	299.9790747684109 	0.0606204404399846 	101300.2644201181
-0.8045545545545546 	299.9785771855183 	0.06206188323141658 	101299.6762874468
-0.8020520520520523 	299.9780835802272 	0.06349076824378694 	101299.0928584311
-0.7995495495495494 	299.9775940460402 	0.06490818569508583 	101298.5142427201
-0.7970470470470474 	299.9771086665615 	0.06631541555196027 	101297.9405370413
-0.7945445445445446 	299.9766275146354 	0.06771009820063972 	101297.371828938
-0.7920420420420423 	299.9761506589479 	0.06909163926833807 	101296.8082013011
-0.7895395395395397 	299.9756781722136 	0.07045994864496925 	101296.2497400376
-0.7870370370370371 	299.9752101375956 	0.07181508784185778 	101295.6965436603
-0.7845345345345348 	299.9747466543821 	0.07315826039850931 	101295.1487291687
-0.7820320320320323 	299.9742878324107 	0.07448799552071006 	101294.6064263671
-0.7795295295295296 	299.9738337745272 	0.07580316452806377 	101294.0697565256
-0.7770270270270272 	299.9733845631694 	0.07710461834493988 	101293.538816856
-0.7745245245245247 	299.9729402689085 	0.07839056837581156 	101293.0136906002
-0.7720220220220222 	299.972500967114 	0.07966290736953405 	101292.4944668008
-0.7695195195195199 	299.9720667429563 	0.08092196752040018 	101291.9812468539
-0.767017017017017 	299.9716376827113 	0.08216502218348198 	101291.4741319533
-0.7645145145145147 	299.971213858088 	0.08339326613206621 	101290.9732068689
-0.7620120120120122 	299.9707953341369 	0.08460427781903679 	101290.4785491775
-0.7595095095095097 	299.9703821948515 	0.08580061590900583 	101289.9902569026
-0.7570070070070072 	299.9699745403736 	0.08698242279243197 	101289.5084493985
-0.7545045045045048 	299.9695724598131 	0.08814714637764383 	101289.0332308216
-0.7520020020020022 	299.9691760077843 	0.08929670582155527 	101288.5646659969
-0.7494994994994997 	299.9687852277883 	0.09042795500166953 	101288.1028060291
-0.7469969969969972 	299.9684001820117 	0.09154308265141142 	101287.6477244173
-0.7444944944944945 	299.968020948501 	0.09264290054259348 	101287.1995151023
-0.7419919919919924 	299.9676476028022 	0.09372458023419508 	101286.7582658738
-0.7394894894894897 	299.9672802105409 	0.09478902537265316 	101286.3240541632
-0.7369869869869872 	299.9669188507306 	0.09583523617662641 	101285.8969727149
-0.7344844844844846 	299.9665636203487 	0.09686396060179286 	101285.477136053
-0.7319819819819822 	299.9662146061585 	0.09787532688736852 	101285.0646478044
-0.7294794794794797 	299.9658718653753 	0.09886827353088301 	101284.6595755136
-0.7269769769769773 	299.9655354390447 	0.09984315481454152 	101284.2619673741
-0.7244744744744747 	299.9652053739285 	0.1007993382518925 	101283.8718786606
-0.721971971971972 	299.9648817218115 	0.1017372292549155 	101283.4893694808
-0.7194694694694695 	299.9645645275447 	0.1026566236827479 	101283.1144930029
-0.7169669669669674 	299.9642538400014 	0.1035568482468736 	101282.7473071439
-0.7144644644644647 	299.9639497257721 	0.1044379040986222 	101282.3878909079
-0.711961961961962 	299.9636522624909 	0.1052992189183169 	101282.0363373928
-0.7094594594594597 	299.9633615278275 	0.1061412120182219 	101281.6927380795
-0.7069569569569573 	299.9630775890676 	0.1069636518793431 	101281.3571709668
-0.7044544544544545 	299.9628004943371 	0.1077663214702373 	101281.0296909318
-0.7019519519519523 	299.9625302800202 	0.1085493732850015 	101280.7103415994
-0.6994494494494495 	299.9622669896397 	0.1093122838187759 	101280.3991762405
-0.6969469469469471 	299.9620106678312 	0.1100551732813986 	101280.096248483
-0.6944444444444446 	299.9617613483781 	0.1107777206542819 	101279.8015993344
-0.6919419419419421 	299.9615190700522 	0.1114798751035246 	101279.5152719831
-0.6894394394394396 	299.9612838740234 	0.1121614149153403 	101279.2373146522
-0.6869369369369374 	299.9610558025052 	0.1128218825911618 	101278.967776468
-0.6844344344344344 	299.9608349105445 	0.1134611532496878 	101278.7067217173
-0.6819319319319321 	299.9606212542528 	0.1140795229676433 	101278.4542179686
-0.6794294294294296 	299.9604148717814 	0.1146776692487702 	101278.2103113863
-0.6769269269269272 	299.9602158017532 	0.1152547327250471 	101277.9750493898
-0.6744244244244245 	299.9600240952441 	0.1158103106399733 	101277.7484924693
-0.6719219219219222 	299.9598397903943 	0.1163435049710756 	101277.5306847667
-0.6694194194194195 	299.9596629078138 	0.1168552486949119 	101277.3216462169
-0.6669169169169172 	299.9594934583647 	0.1173471673002228 	101277.1213893489
-0.6644144144144146 	299.9593314617578 	0.1178170229506866 	101276.9299402773
-0.661911911911912 	299.9591769602164 	0.118264061554227 	101276.7473474462
-0.6594094094094097 	299.9590299840696 	0.1186894079938273 	101276.5736487861
-0.656906906906907 	299.9588905498541 	0.1190925093436559 	101276.4088664454
-0.6544044044044046 	299.9587586966073 	0.1194749355044225 	101276.2530442711
-0.6519019019019021 	299.9586344714279 	0.11983609659229 	101276.1062390468
-0.6493993993993996 	299.9585179058204 	0.1201739658213272 	101275.9684873065
-0.6468968968968971 	299.9584090095172 	0.120489900854054 	101275.8397975117
-0.6443943943943946 	299.9583077755094 	0.1207815538741004 	101275.7201619745
-0.6418918918918921 	299.958214213638 	0.1210520652588757 	101275.609591295
-0.6393893893893897 	299.9581283507643 	0.1213020665914892 	101275.5081167571
-0.6368868868868871 	299.9580502027097 	0.1215282285702338 	101275.4157574348
-0.6343843843843846 	299.9579797754463 	0.1217325649056043 	101275.3325217253
-0.6318818818818821 	299.9579170913512 	0.1219127853493223 	101275.2584365388
-0.6293793793793795 	299.9578621846046 	0.1220717804756795 	101275.1935433453
-0.6268768768768773 	299.9578150724647 	0.1222093218984301 	101275.1378673719
-0.6243743743743745 	299.9577756963661 	0.1223232147479622 	101275.0914110033
-0.6218718718718721 	299.9577441715227 	0.1224154192347254 	101275.0541617674
-0.6193693693693696 	299.9577204866272 	0.1224837377590876 	101275.0261142598
-0.6168668668668671 	299.9577045637025 	0.1225296609341038 	101275.0072814087
-0.6143643643643645 	299.9576964189075 	0.1225535054038714 	101274.9976599079
-0.6118618618618621 	299.957696050815 	0.1225543922741173 	101274.9972279455
-0.6093593593593596 	299.9577034503962 	0.1225330276657479 	101275.0059732077
-0.6068568568568571 	299.9577186283162 	0.1224887603283123 	101275.0239083439
-0.6043543543543546 	299.9577416118671 	0.1224222635398829 	101275.0510651562
-0.6018518518518521 	299.957772416239 	0.1223334010100803 	101275.0874626693
-0.5993493493493496 	299.9578110229648 	0.1222217251235524 	101275.1330816853
-0.5968468468468471 	299.957857403343 	0.1220875539426459 	101275.1878906443
-0.5943443443443446 	299.9579115528912 	0.1219304387785643 	101275.2518834507
-0.591841841841842 	299.9579734739705 	0.1217509488893274 	101275.3250626541
-0.5893393393393397 	299.9580431465307 	0.1215490405044563 	101275.4074045518
-0.5868368368368371 	299.9581205202372 	0.1213247905184219 	101275.4988481937
-0.5843343343343346 	299.9582055554446 	0.1210785180955838 	101275.5993464406
-0.5818318318318321 	299.95829826352 	0.1208098261186415 	101275.7089113501
-0.5793293293293297 	299.9583986880909 	0.1205193991113805 	101275.8275939664
-0.5768268268268271 	299.9585068300386 	0.1202062937150805 	101275.9553954325
-0.5743243243243245 	299.9586226208493 	0.1198705298215232 	101276.092235143
-0.5718218218218221 	299.9587459835062 	0.1195130957884983 	101276.2380223727
-0.5693193193193196 	299.9588769143785 	0.1191334976121652 	101276.3927530348
-0.5668168168168171 	299.9590154698479 	0.1187319221320612 	101276.5564947938
-0.5643143143143147 	299.9591616676488 	0.1183082278357383 	101276.7292684423
-0.5618118118118121 	299.9593154077625 	0.117863148363079 	101276.9109550027
-0.5593093093093094 	299.9594765403721 	0.1173968639903259 	101277.1013803456
-0.5568068068068072 	299.9596450082476 	0.1169089802390956 	101277.3004756677
-0.5543043043043046 	299.9598208812997 	0.116399163457279 	101277.5083229588
-0.551801801801802 	299.9600042356628 	0.1158673015065548 	101277.7250123431
-0.5492992992992995 	299.9601950304207 	0.115314663873863 	101277.9504942201
-0.5467967967967969 	299.9603931129474 	0.1147410300719103 	101278.1845892688
-0.5442942942942947 	299.96059837622 	0.1141464487333512 	101278.427170889
-0.5417917917917919 	299.9608108590484 	0.1135302214640205 	101278.6782856038
-0.5392892892892895 	299.9610306710316 	0.1128924811517369 	101278.9380624394
-0.536786786786787 	299.9612578193562 	0.112235424337289 	101279.2065090232
-0.5342842842842846 	299.9614921273522 	0.1115575720937619 	101279.4834184783
-0.531781781781782 	299.9617333437374 	0.1108583809002346 	101279.7684920625
-0.5292792792792794 	299.9619813545248 	0.1101399991244426 	101280.0615961651
-0.526776776776777 	299.9622363051288 	0.1093997639781691 	101280.3629029633
-0.5242742742742745 	299.9624984412667 	0.1086400204129383 	101280.672701661
-0.521771771771772 	299.9627677800736 	0.1078614143698223 	101280.9910142159
-0.5192692692692695 	299.9630439770473 	0.1070612971353655 	101281.317432411
-0.516766766766767 	299.9633266114728 	0.1062427368253947 	101281.6514587065
-0.5142642642642645 	299.9636156424393 	0.105403385314888 	101281.993046211
-0.511761761761762 	299.9639114148511 	0.1045461948095566 	101282.3426011729
-0.5092592592592596 	299.9642141969285 	0.1036705927574323 	101282.7004426326
-0.506756756756757 	299.9645239015638 	0.1027732843714066 	101283.0664658502
-0.5042542542542544 	299.9648401291502 	0.1018575083992875 	101283.4401982502
-0.5017517517517521 	299.9651624148243 	0.1009230327642501 	101283.8210916389
-0.4992492492492494 	299.9654906436065 	0.09997180860657012 	101284.2090097375
-0.496746746746747 	299.9658251956143 	0.09900285202203421 	101284.6044034502
-0.4942442442442445 	299.9661664797312 	0.09801419682335159 	101285.0077547621
-0.4917417417417421 	299.9665145182748 	0.09700655363174658 	101285.4190892264
-0.4892392392392395 	299.9668689008043 	0.09597999586581168 	101285.8379221871
-0.486736736736737 	299.9672289533065 	0.09493722861134031 	101286.2634573214
-0.4842342342342345 	299.9675942813604 	0.09387897263734699 	101286.6952298134
-0.481731731731732 	299.9679651144789 	0.09280422615722669 	101287.1335095444
-0.4792292292292296 	299.9683420165144 	0.09171187787087889 	101287.5789637732
-0.4767267267267268 	299.9687254835516 	0.09060030366479635 	101288.0321786374
-0.4742242242242246 	299.969115456206 	0.0894706238716796 	101288.4930829034
-0.471721721721722 	299.9695112363611 	0.08832443588463865 	101288.9608536353
-0.4692192192192195 	299.969912021341 	0.08716369137062768 	101289.4345405331
-0.4667167167167169 	299.9703174077405 	0.08598954135275892 	101289.913667186
-0.4642142142142145 	299.9707276947404 	0.08480073221989463 	101290.3985865629
-0.461711711711712 	299.9711435794138 	0.08359593727738987 	101290.8901242822
-0.4592092092092094 	299.9715656342383 	0.08237332169383657 	101291.3889578177
-0.456706706706707 	299.97199379484 	0.08113302417046453 	101291.8950100735
-0.4542042042042045 	299.9724273941567 	0.07987705145183918 	101292.4074921143
-0.451701701701702 	299.9728655599652 	0.0786074860677289 	101292.9253706713
-0.4491991991991995 	299.9733076847966 	0.07732709026699726 	101293.4479297225
-0.4466966966966969 	299.9737538182829 	0.07603431133501019 	101293.9752299156
-0.4441941941941945 	299.974204580056 	0.07472765936272154 	101294.5080040388
-0.441691691691692 	299.9746607172894 	0.0734064124435727 	101295.0471355689
-0.4391891891891895 	299.9751226117982 	0.07206863075637299 	101295.5930725335
-0.436686686686687 	299.9755899912782 	0.07071517873859101 	101296.1454921604
-0.4341841841841846 	299.9760620263978 	0.06934777021916765 	101296.7034156121
-0.431681681681682 	299.976537780722 	0.06796964652460387 	101297.2657381051
-0.4291791791791794 	299.977016686846 	0.06658229851529703 	101297.8317912866
-0.426676676676677 	299.9774987393058 	0.06518525692093366 	101298.4015662126
-0.4241741741741744 	299.977984546352 	0.06377715832317671 	101298.975779669
-0.421671671671672 	299.9784748275804 	0.06235591023804558 	101299.5552811002
-0.4191691691691694 	299.9789701236876 	0.0609215250031518 	101300.140711496
-0.4166666666666669 	299.9794704367544 	0.0594729468091177 	101300.7320772427
-0.4141641641641645 	299.9799752716979 	0.05801081815538971 	101301.3287939012
-0.411661661661662 	299.9804837770462 	0.05653733699897545 	101301.9298516779
-0.4091591591591594 	299.9809950913016 	0.05505435955800934 	101302.5342296986
-0.406656656656657 	299.9815087112856 	0.05356694026086167 	101303.1413308666
-0.4041541541541545 	299.9820246255389 	0.05207350146199898 	101303.7511443315
-0.401651651651652 	299.9825432058693 	0.0505706144394818 	101304.3641148334
-0.3991491491491494 	299.9830651083844 	0.04905883345217393 	101304.9810198881
-0.396646646646647 	299.9835908134609 	0.04753417504597179 	101305.6024276022
-0.3941441441441444 	299.9841205874501 	0.04599967951432683 	101306.2286449324
-0.3916416416416419 	299.9846543277069 	0.04445555962693818 	101306.8595489204
-0.3891391391391395 	299.9851915703925 	0.04289925946554402 	101307.4945891633
-0.3866366366366368 	299.9857316279471 	0.04133492067298682 	101308.1329588888
-0.3841341341341344 	299.9862738849857 	0.03976291069903492 	101308.773936568
-0.381631631631632 	299.9868178186987 	0.03818708982390176 	101309.4169061862
-0.3791291291291294 	299.9873631462452 	0.03660753606659004 	101310.0615292702
-0.3766266266266269 	299.9879099374181 	0.03502316912477341 	101310.7078815116
-0.3741241241241244 	299.9884584299248 	0.0334347591267497 	101311.3562400111
-0.371621621621622 	299.989008874929 	0.0318397377773036 	101312.0069038984
-0.3691191191191194 	299.9895615320582 	0.03023889964821461 	101312.6601857036
-0.366616616616617 	299.9901166457608 	0.02863111707190719 	101313.3163826219
-0.3641141141141143 	299.9906743022141 	0.0270155852770998 	101313.9755977412
-0.3616116116116119 	299.9912343872144 	0.02539323892465192 	101314.6376910306
-0.3591091091091095 	299.9917966295167 	0.02376405722579726 	101315.3023338005
-0.356606606606607 	299.9923607415152 	0.02212988469258948 	101315.9691794543
-0.3541041041041044 	299.9929264132799 	0.02049131904128004 	101316.6378620324
-0.3516016016016019 	299.9934933344915 	0.01884899441325031 	101317.3080214069
-0.3490990990990994 	299.9940612285234 	0.01720403790266093 	101317.9793410644
-0.346596596596597 	299.9946299049306 	0.0155566046531194 	101318.6516012445
-0.3440940940940944 	299.9951991753092 	0.01390768877755262 	101319.3245768882
-0.3415915915915919 	299.9957690016867 	0.01225706954201845 	101319.9982149073
-0.3390890890890895 	299.9963393317399 	0.01060481131827306 	101320.6724423422
-0.3365865865865869 	299.9969101289543 	0.008951208029105802 	101321.347211276
-0.3340840840840844 	299.9974813018665 	0.007296239295364749 	101322.022416886
-0.3315815815815819 	299.9980528305471 	0.005640934412306454 	101322.6980442422
-0.3290790790790794 	299.9986244428312 	0.003984847692501747 	101323.3737832257
-0.3265765765765769 	299.9991962611277 	0.002328397004080978 	101324.0497838922
-0.3240740740740744 	299.999768096797 	0.0006720660950340563 	101324.7258215894
-0.3215715715715718 	300.0003399829991 	0.001102423758463638 	101325.4019267569
-0.3190690690690695 	300.0009119386272 	0.002641628633692385 	101326.0781101356
-0.3165665665665668 	300.001483886144 	0.004298740776256104 	101326.7542706512
-0.3140640640640644 	300.0020557134106 	0.005955091443460323 	101327.4302754079
-0.311561561561562 	300.0026272903867 	0.007610544058030736 	101328.1059798152
-0.3090590590590593 	300.0031984764254 	0.009265159424992413 	101328.7812275777
-0.3065565565565568 	300.0037691222877 	0.0109182394593527 	101329.455853836
-0.3040540540540545 	300.00433908696 	0.01256973856786239 	101330.1296963578
-0.3015515515515518 	300.0049082498813 	0.01421826484891845 	101330.8026081657
-0.2990490490490494 	300.005476509077 	0.01586407611037869 	101331.474461009
-0.2965465465465469 	300.0060437766062 	0.01750753841440159 	101332.1451375845
-0.2940440440440444 	300.006609960154 	0.01914813638702301 	101332.8145206727
-0.2915415415415418 	300.007174958685 	0.02078591648488021 	101333.4824875998
-0.2890390390390395 	300.0077386624623 	0.02241829048622852 	101334.148910752