/*--------------------------------*- C++ -*----------------------------------*\
  =========                 |
  \\      /  F ield         | OpenFOAM: The Open Source CFD Toolbox
   \\    /   O peration     | Website:  https://openfoam.org
    \\  /    A nd           | Version:  7
     \\/     M anipulation  |
\*---------------------------------------------------------------------------*/
FoamFile
{
    version     2.0;
    format      ascii;
    class       volScalarField;
    location    "0.00049";
    object      rho;
}
// * * * * * * * * * * * * * * * * * * * * * * * * * * * * * * * * * * * * * //

dimensions      [1 -3 0 0 0 0 0];

internalField   nonuniform List<scalar> 
5000
(
1.4235637
1.4235637
1.4235637
1.4235637
1.4235637
1.4235637
1.4235637
1.4235637
1.4235637
1.4235637
1.4235637
1.4235637
1.4235637
1.4235637
1.4235637
1.4235637
1.4235637
1.4235637
1.4235637
1.4235637
1.4235637
1.4235637
1.4235637
1.4235637
1.4235637
1.4235637
1.4235637
1.4235637
1.4235637
1.4235637
1.4235637
1.4235637
1.4235637
1.4235637
1.4235637
1.4235637
1.4235637
1.4235637
1.4235637
1.4235637
1.4235637
1.4235637
1.4235637
1.4235637
1.4235637
1.4235637
1.4235637
1.4235637
1.4235637
1.4235637
1.4235637
1.4235637
1.4235637
1.4235637
1.4235637
1.4235637
1.4235637
1.4235637
1.4235637
1.4235637
1.4235637
1.4235637
1.4235637
1.4235637
1.4235637
1.4235637
1.4235637
1.4235637
1.4235637
1.4235637
1.4235637
1.4235637
1.4235637
1.4235637
1.4235637
1.4235637
1.4235637
1.4235637
1.4235637
1.4235637
1.4235637
1.4235637
1.4235637
1.4235637
1.4235637
1.4235637
1.4235637
1.4235637
1.4235637
1.4235637
1.4235637
1.4235637
1.4235637
1.4235637
1.4235637
1.4235637
1.4235637
1.4235637
1.4235637
1.4235637
1.4235637
1.4235637
1.4235637
1.4235637
1.4235637
1.4235637
1.4235637
1.4235637
1.4235637
1.4235637
1.4235637
1.4235637
1.4235637
1.4235637
1.4235637
1.4235637
1.4235637
1.4235637
1.4235637
1.4235637
1.4235637
1.4235637
1.4235637
1.4235637
1.4235637
1.4235637
1.4235637
1.4235637
1.4235637
1.4235637
1.4235637
1.4235637
1.4235637
1.4235637
1.4235637
1.4235637
1.4235637
1.4235637
1.4235637
1.4235637
1.4235637
1.4235637
1.4235637
1.4235637
1.4235637
1.4235637
1.4235637
1.4235637
1.4235637
1.4235637
1.4235637
1.4235637
1.4235637
1.4235637
1.4235637
1.4235637
1.4235637
1.4235637
1.4235637
1.4235637
1.4235637
1.4235637
1.4235637
1.4235637
1.4235637
1.4235637
1.4235637
1.4235637
1.4235637
1.4235637
1.4235637
1.4235637
1.4235637
1.4235637
1.4235637
1.4235637
1.4235637
1.4235637
1.4235637
1.4235637
1.4235637
1.4235637
1.4235637
1.4235637
1.4235637
1.4235637
1.4235637
1.4235637
1.4235637
1.4235637
1.4235637
1.4235637
1.4235637
1.4235637
1.4235637
1.4235637
1.4235637
1.4235637
1.4235637
1.4235637
1.4235637
1.4235637
1.4235637
1.4235637
1.4235637
1.4235637
1.4235637
1.4235637
1.4235637
1.4235637
1.4235637
1.4235637
1.4235637
1.4235637
1.4235637
1.4235637
1.4235637
1.4235637
1.4235637
1.4235637
1.4235637
1.4235637
1.4235637
1.4235637
1.4235637
1.4235637
1.4235637
1.4235637
1.4235637
1.4235637
1.4235637
1.4235637
1.4235637
1.4235637
1.4235637
1.4235637
1.4235637
1.4235637
1.4235637
1.4235637
1.4235637
1.4235637
1.4235637
1.4235637
1.4235637
1.4235637
1.4235637
1.4235637
1.4235637
1.4235637
1.4235637
1.4235637
1.4235637
1.4235637
1.4235637
1.4235637
1.4235637
1.4235637
1.4235637
1.4235637
1.4235637
1.4235637
1.4235637
1.4235637
1.4235637
1.4235637
1.4235637
1.4235637
1.4235637
1.4235637
1.4235637
1.4235637
1.4235637
1.4235637
1.4235637
1.4235637
1.4235637
1.4235637
1.4235637
1.4235637
1.4235637
1.4235637
1.4235637
1.4235637
1.4235637
1.4235637
1.4235637
1.4235637
1.4235637
1.4235637
1.4235637
1.4235637
1.4235637
1.4235637
1.4235637
1.4235637
1.4235637
1.4235637
1.4235637
1.4235637
1.4235637
1.4235637
1.4235637
1.4235637
1.4235637
1.4235637
1.4235637
1.4235637
1.4235637
1.4235637
1.4235637
1.4235637
1.4235637
1.4235637
1.4235637
1.4235637
1.4235637
1.4235637
1.4235637
1.4235637
1.4235637
1.4235637
1.4235637
1.4235637
1.4235637
1.4235637
1.4235637
1.4235637
1.4235637
1.4235637
1.4235637
1.4235637
1.4235637
1.4235637
1.4235637
1.4235637
1.4235637
1.4235637
1.4235637
1.4235637
1.4235637
1.4235637
1.4235637
1.4235637
1.4235637
1.4235637
1.4235637
1.4235637
1.4235637
1.4235637
1.4235637
1.4235637
1.4235637
1.4235637
1.4235637
1.4235637
1.4235637
1.4235637
1.4235637
1.4235637
1.4235637
1.4235637
1.4235637
1.4235637
1.4235637
1.4235637
1.4235637
1.4235637
1.4235637
1.4235637
1.4235637
1.4235637
1.4235637
1.4235637
1.4235637
1.4235637
1.4235637
1.4235637
1.4235637
1.4235637
1.4235637
1.4235637
1.4235637
1.4235637
1.4235637
1.4235637
1.4235637
1.4235637
1.4235637
1.4235637
1.4235637
1.4235637
1.4235637
1.4235637
1.4235637
1.4235637
1.4235637
1.4235637
1.4235637
1.4235637
1.4235637
1.4235637
1.4235637
1.4235637
1.4235637
1.4235637
1.4235637
1.4235637
1.4235637
1.4235637
1.4235637
1.4235637
1.4235637
1.4235637
1.4235637
1.4235637
1.4235637
1.4235637
1.4235637
1.4235637
1.4235637
1.4235637
1.4235637
1.4235637
1.4235637
1.4235637
1.4235637
1.4235637
1.4235637
1.4235637
1.4235637
1.4235637
1.4235637
1.4235637
1.4235637
1.4235637
1.4235637
1.4235637
1.4235637
1.4235637
1.4235637
1.4235637
1.4235637
1.4235637
1.4235637
1.4235637
1.4235637
1.4235637
1.4235637
1.4235637
1.4235637
1.4235637
1.4235637
1.4235637
1.4235637
1.4235637
1.4235637
1.4235637
1.4235637
1.4235637
1.4235637
1.4235637
1.4235637
1.4235637
1.4235637
1.4235637
1.4235637
1.4235637
1.4235637
1.4235637
1.4235637
1.4235637
1.4235637
1.4235637
1.4235637
1.4235637
1.4235637
1.4235637
1.4235637
1.4235637
1.4235637
1.4235637
1.4235637
1.4235637
1.4235637
1.4235637
1.4235637
1.4235637
1.4235637
1.4235637
1.4235637
1.4235637
1.4235637
1.4235637
1.4235637
1.4235637
1.4235637
1.4235637
1.4235637
1.4235637
1.4235637
1.4235637
1.4235637
1.4235637
1.4235637
1.4235637
1.4235637
1.4235637
1.4235637
1.4235637
1.4235637
1.4235637
1.4235637
1.4235637
1.4235637
1.4235637
1.4235637
1.4235637
1.4235637
1.4235637
1.4235637
1.4235637
1.4235637
1.4235637
1.4235637
1.4235637
1.4235637
1.4235637
1.4235637
1.4235637
1.4235637
1.4235637
1.4235637
1.4235637
1.4235637
1.4235637
1.4235637
1.4235637
1.4235637
1.4235637
1.4235637
1.4235637
1.4235637
1.4235637
1.4235637
1.4235637
1.4235637
1.4235637
1.4235637
1.4235637
1.4235637
1.4235637
1.4235637
1.4235637
1.4235637
1.4235637
1.4235637
1.4235637
1.4235637
1.4235637
1.4235637
1.4235637
1.4235637
1.4235637
1.4235637
1.4235637
1.4235637
1.4235637
1.4235637
1.4235637
1.4235637
1.4235637
1.4235637
1.4235637
1.4235637
1.4235637
1.4235637
1.4235637
1.4235637
1.4235637
1.4235637
1.4235637
1.4235637
1.4235637
1.4235637
1.4235637
1.4235637
1.4235637
1.4235637
1.4235637
1.4235637
1.4235637
1.4235637
1.4235637
1.4235637
1.4235637
1.4235637
1.4235637
1.4235637
1.4235637
1.4235637
1.4235637
1.4235637
1.4235637
1.4235637
1.4235637
1.4235637
1.4235637
1.4235637
1.4235637
1.4235637
1.4235637
1.4235637
1.4235637
1.4235637
1.4235637
1.4235637
1.4235637
1.4235637
1.4235637
1.4235637
1.4235637
1.4235637
1.4235637
1.4235637
1.4235637
1.4235637
1.4235637
1.4235637
1.4235637
1.4235637
1.4235637
1.4235637
1.4235637
1.4235637
1.4235637
1.4235637
1.4235637
1.4235637
1.4235637
1.4235637
1.4235637
1.4235637
1.4235637
1.4235637
1.4235637
1.4235637
1.4235637
1.4235637
1.4235637
1.4235637
1.4235637
1.4235637
1.4235637
1.4235637
1.4235637
1.4235637
1.4235637
1.4235637
1.4235637
1.4235637
1.4235637
1.4235637
1.4235637
1.4235637
1.4235637
1.4235637
1.4235637
1.4235637
1.4235637
1.4235637
1.4235637
1.4235637
1.4235637
1.4235637
1.4235637
1.4235637
1.4235637
1.4235637
1.4235637
1.4235637
1.4235637
1.4235637
1.4235637
1.4235637
1.4235637
1.4235637
1.4235637
1.4235637
1.4235637
1.4235637
1.4235637
1.4235637
1.4235637
1.4235637
1.4235637
1.4235637
1.4235637
1.4235637
1.4235637
1.4235637
1.4235637
1.4235637
1.4235637
1.4235637
1.4235637
1.4235637
1.4235637
1.4235637
1.4235637
1.4235637
1.4235637
1.4235637
1.4235637
1.4235637
1.4235637
1.4235637
1.4235637
1.4235637
1.4235637
1.4235637
1.4235637
1.4235637
1.4235637
1.4235637
1.4235637
1.4235637
1.4235637
1.4235637
1.4235637
1.4235637
1.4235637
1.4235637
1.4235637
1.4235637
1.4235637
1.4235637
1.4235637
1.4235637
1.4235637
1.4235637
1.4235637
1.4235637
1.4235637
1.4235637
1.4235637
1.4235637
1.4235637
1.4235637
1.4235637
1.4235637
1.4235637
1.4235637
1.4235637
1.4235637
1.4235637
1.4235637
1.4235637
1.4235637
1.4235637
1.4235637
1.4235637
1.4235637
1.4235637
1.4235637
1.4235637
1.4235637
1.4235637
1.4235637
1.4235637
1.4235637
1.4235637
1.4235637
1.4235637
1.4235637
1.4235637
1.4235637
1.4235637
1.4235637
1.4235637
1.4235637
1.4235637
1.4235637
1.4235637
1.4235637
1.4235637
1.4235637
1.4235637
1.4235637
1.4235637
1.4235637
1.4235637
1.4235637
1.4235637
1.4235637
1.4235637
1.4235637
1.4235637
1.4235637
1.4235637
1.4235637
1.4235637
1.4235637
1.4235637
1.4235637
1.4235637
1.4235637
1.4235637
1.4235637
1.4235637
1.4235637
1.4235637
1.4235637
1.4235637
1.4235637
1.4235637
1.4235637
1.4235637
1.4235637
1.4235637
1.4235637
1.4235637
1.4235637
1.4235637
1.4235637
1.4235637
1.4235637
1.4235637
1.4235637
1.4235637
1.4235637
1.4235637
1.4235637
1.4235637
1.4235637
1.4235637
1.4235637
1.4235637
1.4235637
1.4235637
1.4235637
1.4235637
1.4235637
1.4235637
1.4235637
1.4235637
1.4235637
1.4235637
1.4235637
1.4235637
1.4235637
1.4235637
1.4235637
1.4235637
1.4235637
1.4235637
1.4235637
1.4235637
1.4235637
1.4235637
1.4235637
1.4235637
1.4235637
1.4235637
1.4235637
1.4235637
1.4235637
1.4235637
1.4235637
1.4235637
1.4235637
1.4235637
1.4235637
1.4235637
1.4235637
1.4235637
1.4235637
1.4235637
1.4235637
1.4235637
1.4235637
1.4235637
1.4235637
1.4235637
1.4235637
1.4235637
1.4235637
1.4235637
1.4235637
1.4235637
1.4235637
1.4235637
1.4235637
1.4235637
1.4235637
1.4235637
1.4235637
1.4235637
1.4235637
1.4235637
1.4235637
1.4235637
1.4235637
1.4235637
1.4235637
1.4235637
1.4235637
1.4235637
1.4235637
1.4235637
1.4235637
1.4235637
1.4235637
1.4235637
1.4235637
1.4235637
1.4235637
1.4235637
1.4235637
1.4235637
1.4235637
1.4235637
1.4235637
1.4235637
1.4235637
1.4235637
1.4235637
1.4235637
1.4235637
1.4235637
1.4235637
1.4235637
1.4235637
1.4235637
1.4235637
1.4235637
1.4235637
1.4235637
1.4235637
1.4235637
1.4235637
1.4235637
1.4235637
1.4235637
1.4235637
1.4235637
1.4235637
1.4235637
1.4235637
1.4235637
1.4235637
1.4235637
1.4235637
1.4235637
1.4235637
1.4235637
1.4235637
1.4235637
1.4235637
1.4235637
1.4235637
1.4235637
1.4235637
1.4235637
1.4235637
1.4235637
1.4235637
1.4235637
1.4235637
1.4235637
1.4235637
1.4235637
1.4235637
1.4235637
1.4235637
1.4235637
1.4235637
1.4235637
1.4235637
1.4235637
1.4235637
1.4235637
1.4235637
1.4235637
1.4235637
1.4235637
1.4235637
1.4235637
1.4235637
1.4235637
1.4235637
1.4235637
1.4235637
1.4235637
1.4235637
1.4235637
1.4235637
1.4235637
1.4235637
1.4235637
1.4235637
1.4235637
1.4235637
1.4235637
1.4235637
1.4235637
1.4235637
1.4235637
1.4235637
1.4235637
1.4235637
1.4235637
1.4235637
1.4235637
1.4235637
1.4235637
1.4235637
1.4235637
1.4235637
1.4235637
1.4235637
1.4235637
1.4235637
1.4235637
1.4235637
1.4235637
1.4235637
1.4235637
1.4235637
1.4235637
1.4235637
1.4235637
1.4235637
1.4235637
1.4235637
1.4235637
1.4235637
1.4235637
1.4235637
1.4235637
1.4235637
1.4235637
1.4235637
1.4235637
1.4235637
1.4235637
1.4235637
1.4235637
1.4235637
1.4235637
1.4235637
1.4235637
1.4235637
1.4235637
1.4235637
1.4235637
1.4235637
1.4235637
1.4235637
1.4235637
1.4235637
1.4235637
1.4235637
1.4235637
1.4235637
1.4235637
1.4235637
1.4235637
1.4235637
1.4235637
1.4235637
1.4235637
1.4235637
1.4235637
1.4235637
1.4235637
1.4235637
1.4235637
1.4235637
1.4235637
1.4235637
1.4235637
1.4235637
1.4235637
1.4235637
1.4235637
1.4235637
1.4235637
1.4235637
1.4235637
1.4235637
1.4235637
1.4235637
1.4235637
1.4235637
1.4235637
1.4235637
1.4235637
1.4235637
1.4235637
1.4235637
1.4235637
1.4235637
1.4235637
1.4235637
1.4235637
1.4235637
1.4235637
1.4235637
1.4235637
1.4235637
1.4235637
1.4235637
1.4235637
1.4235637
1.4235637
1.4235637
1.4235637
1.4235637
1.4235637
1.4235637
1.4235637
1.4235637
1.4235637
1.4235637
1.4235637
1.4235637
1.4235637
1.4235637
1.4235637
1.4235637
1.4235637
1.4235637
1.4235637
1.4235637
1.4235637
1.4235637
1.4235637
1.4235637
1.4235637
1.4235637
1.4235637
1.4235637
1.4235637
1.4235637
1.4235637
1.4235637
1.4235637
1.4235637
1.4235637
1.4235637
1.4235637
1.4235637
1.4235637
1.4235637
1.4235637
1.4235637
1.4235637
1.4235637
1.4235637
1.4235637
1.4235637
1.4235637
1.4235637
1.4235637
1.4235637
1.4235637
1.4235637
1.4235637
1.4235637
1.4235637
1.4235637
1.4235637
1.4235637
1.4235637
1.4235637
1.4235637
1.4235637
1.4235637
1.4235637
1.4235637
1.4235637
1.4235637
1.4235637
1.4235637
1.4235637
1.4235637
1.4235637
1.4235637
1.4235637
1.4235637
1.4235637
1.4235637
1.4235637
1.4235637
1.4235637
1.4235637
1.4235637
1.4235637
1.4235637
1.4235637
1.4235637
1.4235637
1.4235637
1.4235637
1.4235637
1.4235637
1.4235637
1.4235637
1.4235637
1.4235637
1.4235637
1.4235637
1.4235637
1.4235637
1.4235637
1.4235637
1.4235637
1.4235637
1.4235637
1.4235637
1.4235637
1.4235637
1.4235637
1.4235637
1.4235637
1.4235637
1.4235637
1.4235637
1.4235637
1.4235637
1.4235637
1.4235637
1.4235637
1.4235637
1.4235637
1.4235637
1.4235637
1.4235637
1.4235637
1.4235637
1.4235637
1.4235637
1.4235637
1.4235637
1.4235637
1.4235637
1.4235637
1.4235637
1.4235637
1.4235637
1.4235637
1.4235637
1.4235637
1.4235637
1.4235637
1.4235637
1.4235637
1.4235637
1.4235637
1.4235637
1.4235637
1.4235637
1.4235637
1.4235637
1.4235637
1.4235637
1.4235637
1.4235637
1.4235637
1.4235637
1.4235637
1.4235637
1.4235637
1.4235637
1.4235637
1.4235637
1.4235637
1.4235637
1.4235637
1.4235637
1.4235637
1.4235637
1.4235637
1.4235637
1.4235637
1.4235637
1.4235637
1.4235637
1.4235637
1.4235637
1.4235637
1.4235637
1.4235637
1.4235637
1.4235637
1.4235637
1.4235637
1.4235637
1.4235637
1.4235637
1.4235637
1.4235637
1.4235637
1.4235637
1.4235637
1.4235637
1.4235637
1.4235637
1.4235637
1.4235637
1.4235637
1.4235637
1.4235637
1.4235637
1.4235637
1.4235637
1.4235637
1.4235637
1.4235637
1.4235637
1.4235637
1.4235637
1.4235637
1.4235637
1.4235637
1.4235637
1.4235637
1.4235637
1.4235637
1.4235637
1.4235637
1.4235637
1.4235637
1.4235637
1.4235637
1.4235637
1.4235637
1.4235637
1.4235637
1.4235637
1.4235637
1.4235637
1.4235637
1.4235637
1.4235637
1.4235637
1.4235637
1.4235637
1.4235637
1.4235637
1.4235637
1.4235637
1.4235637
1.4235637
1.4235637
1.4235637
1.4235637
1.4235637
1.4235637
1.4235637
1.4235637
1.4235637
1.4235637
1.4235637
1.4235637
1.4235637
1.4235637
1.4235637
1.4235637
1.4235637
1.4235637
1.4235637
1.4235637
1.4235637
1.4235637
1.4235637
1.4235637
1.4235637
1.4235637
1.4235637
1.4235637
1.4235637
1.4235637
1.4235637
1.4235637
1.4235637
1.4235637
1.4235637
1.4235637
1.4235637
1.4235637
1.4235637
1.4235637
1.4235637
1.4235637
1.4235637
1.4235637
1.4235637
1.4235637
1.4235637
1.4235637
1.4235637
1.4235637
1.4235637
1.4235637
1.4235637
1.4235637
1.4235637
1.4235637
1.4235637
1.4235637
1.4235637
1.4235636
1.4235636
1.4235636
1.4235636
1.4235636
1.4235636
1.4235636
1.4235636
1.4235636
1.4235636
1.4235636
1.4235636
1.4235636
1.4235636
1.4235636
1.4235636
1.4235636
1.4235636
1.4235636
1.4235636
1.4235636
1.4235636
1.4235635
1.4235635
1.4235635
1.4235635
1.4235635
1.4235635
1.4235635
1.4235634
1.4235634
1.4235634
1.4235634
1.4235633
1.4235633
1.4235633
1.4235632
1.4235632
1.4235632
1.4235631
1.4235631
1.423563
1.423563
1.4235629
1.4235628
1.4235628
1.4235627
1.4235626
1.4235625
1.4235624
1.4235623
1.4235622
1.423562
1.4235619
1.4235617
1.4235616
1.4235614
1.4235612
1.423561
1.4235608
1.4235605
1.4235603
1.42356
1.4235597
1.4235594
1.423559
1.4235586
1.4235582
1.4235578
1.4235573
1.4235568
1.4235563
1.4235557
1.4235551
1.4235544
1.4235537
1.4235529
1.4235521
1.4235512
1.4235502
1.4235492
1.4235481
1.4235469
1.4235456
1.4235443
1.4235429
1.4235413
1.4235397
1.4235379
1.423536
1.423534
1.4235319
1.4235296
1.4235271
1.4235245
1.4235217
1.4235188
1.4235156
1.4235123
1.4235087
1.4235049
1.4235009
1.4234966
1.423492
1.4234872
1.4234821
1.4234766
1.4234708
1.4234647
1.4234582
1.4234513
1.423444
1.4234362
1.423428
1.4234194
1.4234102
1.4234005
1.4233903
1.4233794
1.423368
1.423356
1.4233432
1.4233298
1.4233156
1.4233007
1.423285
1.4232684
1.423251
1.4232326
1.4232134
1.4231931
1.4231717
1.4231493
1.4231258
1.4231011
1.4230752
1.423048
1.4230195
1.4229896
1.4229583
1.4229255
1.4228912
1.4228552
1.4228177
1.4227784
1.4227373
1.4226944
1.4226496
1.4226028
1.422554
1.4225031
1.42245
1.4223947
1.4223371
1.4222771
1.4222146
1.4221496
1.422082
1.4220117
1.4219386
1.4218627
1.4217839
1.4217021
1.4216172
1.4215292
1.4214379
1.4213432
1.4212452
1.4211437
1.4210386
1.4209299
1.4208175
1.4207012
1.420581
1.4204569
1.4203287
1.4201963
1.4200598
1.4199189
1.4197737
1.4196239
1.4194697
1.4193108
1.4191473
1.4189789
1.4188058
1.4186277
1.4184447
1.4182565
1.4180633
1.4178649
1.4176613
1.4174523
1.4172379
1.4170182
1.4167929
1.4165621
1.4163257
1.4160837
1.415836
1.4155825
1.4153233
1.4150582
1.4147873
1.4145105
1.4142278
1.4139392
1.4136445
1.4133439
1.4130372
1.4127246
1.4124058
1.412081
1.4117502
1.4114132
1.4110702
1.4107211
1.4103659
1.4100047
1.4096374
1.409264
1.4088846
1.4084992
1.4081079
1.4077105
1.4073073
1.4068981
1.406483
1.4060622
1.4056355
1.4052031
1.404765
1.4043212
1.4038718
1.4034169
1.4029565
1.4024906
1.4020194
1.4015429
1.4010612
1.4005743
1.4000824
1.3995854
1.3990834
1.3985767
1.3980652
1.3975489
1.3970281
1.3965028
1.3959731
1.3954391
1.3949009
1.3943585
1.3938121
1.3932619
1.3927078
1.39215
1.3915886
1.3910238
1.3904556
1.3898841
1.3893095
1.3887319
1.3881514
1.3875681
1.3869822
1.3863938
1.3858029
1.3852098
1.3846145
1.3840172
1.383418
1.3828171
1.3822146
1.3816105
1.3810052
1.3803986
1.3797909
1.3791824
1.378573
1.377963
1.3773524
1.3767415
1.3761304
1.3755192
1.374908
1.3742971
1.3736865
1.3730765
1.3724671
1.3718584
1.3712508
1.3706442
1.3700389
1.3694349
1.3688325
1.3682318
1.3676329
1.3670361
1.3664413
1.3658489
1.3652588
1.3646714
1.3640867
1.3635048
1.362926
1.3623503
1.361778
1.3612091
1.3606438
1.3600823
1.3595246
1.358971
1.3584215
1.3578763
1.3573356
1.3567994
1.3562679
1.3557412
1.3552195
1.3547029
1.3541915
1.3536854
1.3531848
1.3526897
1.3522003
1.3517167
1.351239
1.3507673
1.3503017
1.3498422
1.3493891
1.3489423
1.3485021
1.3480683
1.3476412
1.3472208
1.3468072
1.3464004
1.3460005
1.3456075
1.3452216
1.3448427
1.3444709
1.3441062
1.3437488
1.3433985
1.3430554
1.3427195
1.3423909
1.3420696
1.3417554
1.3414486
1.3411489
1.3408565
1.3405713
1.3402932
1.3400223
1.3397585
1.3395018
1.3392521
1.3390093
1.3387734
1.3385444
1.3383222
1.3381066
1.3378977
1.3376954
1.3374995
1.33731
1.3371268
1.3369497
1.3367788
1.3366138
1.3364548
1.3363015
1.3361538
1.3360117
1.3358751
1.3357437
1.3356176
1.3354965
1.3353804
1.3352691
1.3351625
1.3350605
1.3349629
1.3348696
1.3347806
1.3346956
1.3346145
1.3345373
1.3344637
1.3343938
1.3343272
1.334264
1.334204
1.334147
1.3340931
1.334042
1.3339936
1.3339478
1.3339046
1.3338638
1.3338253
1.333789
1.3337547
1.3337226
1.3336923
1.3336638
1.3336371
1.333612
1.3335885
1.3335665
1.3335459
1.3335266
1.3335086
1.3334918
1.3334761
1.3334615
1.3334479
1.3334352
1.3334235
1.3334125
1.3334024
1.3333929
1.3333842
1.3333761
1.3333687
1.3333617
1.3333554
1.3333495
1.333344
1.333339
1.3333344
1.3333302
1.3333263
1.3333228
1.3333195
1.3333165
1.3333137
1.3333112
1.3333089
1.3333068
1.3333049
1.3333032
1.3333016
1.3333001
1.3332988
1.3332976
1.3332965
1.3332956
1.3332947
1.3332939
1.3332931
1.3332925
1.3332919
1.3332913
1.3332908
1.3332904
1.33329
1.3332897
1.3332893
1.3332891
1.3332888
1.3332886
1.3332884
1.3332882
1.333288
1.3332879
1.3332877
1.3332876
1.3332875
1.3332874
1.3332873
1.3332872
1.3332871
1.333287
1.3332868
1.3332867
1.3332865
1.3332864
1.3332863
1.3332861
1.3332859
1.3332858
1.3332857
1.3332855
1.3332853
1.3332852
1.3332851
1.3332849
1.3332848
1.3332846
1.3332845
1.3332843
1.3332842
1.333284
1.3332839
1.3332837
1.3332836
1.3332834
1.3332833
1.3332831
1.333283
1.3332829
1.3332827
1.3332826
1.3332825
1.3332824
1.3332823
1.3332822
1.3332821
1.333282
1.3332819
1.3332817
1.3332817
1.3332816
1.3332814
1.3332813
1.3332813
1.3332812
1.333281
1.3332809
1.3332808
1.3332807
1.3332806
1.3332804
1.3332803
1.3332802
1.3332801
1.33328
1.3332799
1.3332798
1.3332798
1.3332796
1.3332795
1.3332794
1.3332794
1.3332793
1.3332792
1.3332791
1.333279
1.3332789
1.3332789
1.3332788
1.3332787
1.3332786
1.3332785
1.3332784
1.3332783
1.3332783
1.3332782
1.3332781
1.333278
1.3332779
1.3332778
1.3332777
1.3332776
1.3332775
1.3332774
1.3332773
1.3332772
1.3332771
1.3332771
1.333277
1.333277
1.3332769
1.3332769
1.3332768
1.3332767
1.3332767
1.3332766
1.3332765
1.3332764
1.3332763
1.3332762
1.3332762
1.3332761
1.333276
1.3332759
1.3332758
1.3332758
1.3332757
1.3332756
1.3332755
1.3332755
1.3332755
1.3332754
1.3332754
1.3332753
1.3332753
1.3332753
1.3332752
1.3332752
1.3332751
1.3332751
1.333275
1.3332749
1.3332748
1.3332748
1.3332747
1.3332746
1.3332745
1.3332744
1.3332743
1.3332742
1.3332741
1.3332741
1.333274
1.333274
1.3332739
1.3332739
1.3332739
1.3332739
1.3332738
1.3332738
1.3332738
1.3332738
1.3332737
1.3332737
1.3332736
1.3332736
1.3332735
1.3332735
1.3332735
1.3332735
1.3332735
1.3332734
1.3332733
1.3332733
1.3332732
1.3332732
1.3332732
1.3332731
1.3332731
1.333273
1.3332729
1.3332729
1.3332728
1.3332728
1.3332728
1.3332727
1.3332727
1.3332726
1.3332726
1.3332725
1.3332725
1.3332724
1.3332724
1.3332723
1.3332723
1.3332722
1.3332722
1.3332721
1.3332721
1.333272
1.333272
1.333272
1.3332719
1.3332719
1.3332718
1.3332718
1.3332718
1.3332718
1.3332718
1.3332717
1.3332717
1.3332717
1.3332717
1.3332716
1.3332716
1.3332716
1.3332716
1.3332716
1.3332716
1.3332715
1.3332715
1.3332715
1.3332715
1.3332715
1.3332715
1.3332714
1.3332714
1.3332714
1.3332714
1.3332713
1.3332713
1.3332712
1.3332712
1.3332711
1.3332711
1.3332711
1.3332711
1.3332711
1.333271
1.333271
1.333271
1.3332709
1.3332709
1.3332709
1.3332709
1.3332708
1.3332708
1.3332708
1.3332707
1.3332706
1.3332706
1.3332706
1.3332705
1.3332705
1.3332705
1.3332705
1.3332704
1.3332704
1.3332703
1.3332703
1.3332703
1.3332702
1.3332702
1.3332701
1.3332701
1.33327
1.33327
1.33327
1.33327
1.3332699
1.3332699
1.3332698
1.3332698
1.3332697
1.3332697
1.3332696
1.3332696
1.3332695
1.3332695
1.3332694
1.3332693
1.3332693
1.3332693
1.3332693
1.3332692
1.3332691
1.3332691
1.333269
1.333269
1.333269
1.3332689
1.3332689
1.3332688
1.3332687
1.3332687
1.3332686
1.3332686
1.3332685
1.3332685
1.3332685
1.3332684
1.3332684
1.3332684
1.3332683
1.3332683
1.3332682
1.3332681
1.3332681
1.333268
1.333268
1.333268
1.3332679
1.3332679
1.3332678
1.3332678
1.3332677
1.3332677
1.3332677
1.3332676
1.3332675
1.3332675
1.3332674
1.3332674
1.3332674
1.3332673
1.3332673
1.3332672
1.3332672
1.3332671
1.3332671
1.333267
1.333267
1.3332669
1.3332669
1.3332668
1.3332668
1.3332667
1.3332666
1.3332666
1.3332665
1.3332664
1.3332664
1.3332664
1.3332663
1.3332663
1.3332662
1.3332661
1.333266
1.333266
1.3332659
1.3332658
1.3332657
1.3332657
1.3332656
1.3332655
1.3332655
1.3332654
1.3332653
1.3332653
1.3332652
1.3332652
1.3332651
1.3332651
1.333265
1.3332649
1.3332648
1.3332648
1.3332647
1.3332646
1.3332646
1.3332645
1.3332644
1.3332643
1.3332642
1.3332641
1.3332641
1.333264
1.3332639
1.3332639
1.3332638
1.3332637
1.3332637
1.3332636
1.3332635
1.3332635
1.3332634
1.3332633
1.3332632
1.3332631
1.3332631
1.333263
1.3332629
1.3332628
1.3332627
1.3332627
1.3332626
1.3332625
1.3332623
1.3332622
1.3332622
1.3332621
1.333262
1.333262
1.3332619
1.3332618
1.3332617
1.3332616
1.3332614
1.3332613
1.3332613
1.3332612
1.333261
1.333261
1.3332609
1.3332608
1.3332607
1.3332606
1.3332605
1.3332604
1.3332603
1.3332602
1.3332601
1.33326
1.3332599
1.3332598
1.3332597
1.3332596
1.3332595
1.3332594
1.3332592
1.3332591
1.333259
1.3332589
1.3332588
1.3332587
1.3332586
1.3332585
1.3332584
1.3332583
1.3332582
1.3332581
1.333258
1.3332578
1.3332577
1.3332576
1.3332575
1.3332573
1.3332572
1.333257
1.3332569
1.3332568
1.3332567
1.3332566
1.3332565
1.3332564
1.3332563
1.3332562
1.3332561
1.3332559
1.3332558
1.3332556
1.3332554
1.3332553
1.3332552
1.333255
1.3332549
1.3332548
1.3332546
1.3332545
1.3332544
1.3332542
1.333254
1.3332538
1.3332537
1.3332535
1.3332534
1.3332533
1.3332532
1.333253
1.3332529
1.3332528
1.3332526
1.3332525
1.3332523
1.3332521
1.333252
1.3332518
1.3332517
1.3332515
1.3332513
1.3332511
1.3332509
1.3332508
1.3332506
1.3332505
1.3332503
1.3332501
1.3332498
1.3332496
1.3332494
1.3332492
1.3332491
1.3332489
1.3332487
1.3332485
1.3332483
1.3332481
1.3332479
1.3332477
1.3332475
1.3332472
1.3332471
1.3332469
1.3332467
1.3332465
1.3332463
1.333246
1.3332458
1.3332456
1.3332454
1.3332452
1.3332449
1.3332447
1.3332444
1.3332442
1.3332439
1.3332437
1.3332435
1.3332432
1.333243
1.3332428
1.3332425
1.3332422
1.3332419
1.3332417
1.3332414
1.3332412
1.333241
1.3332407
1.3332404
1.3332401
1.3332398
1.3332395
1.3332392
1.3332389
1.3332386
1.3332383
1.333238
1.3332377
1.3332374
1.333237
1.3332367
1.3332364
1.3332361
1.3332358
1.3332354
1.3332351
1.3332348
1.3332344
1.3332341
1.3332337
1.3332333
1.3332329
1.3332325
1.3332321
1.3332317
1.3332314
1.333231
1.3332306
1.3332302
1.3332298
1.3332293
1.3332289
1.3332284
1.333228
1.3332276
1.3332272
1.3332268
1.3332264
1.3332259
1.3332254
1.3332249
1.3332243
1.3332238
1.3332232
1.3332227
1.3332222
1.3332216
1.3332211
1.3332206
1.3332201
1.3332196
1.3332191
1.3332186
1.333218
1.3332175
1.3332169
1.3332164
1.3332158
1.3332153
1.3332148
1.3332142
1.3332136
1.3332131
1.3332125
1.333212
1.3332116
1.3332112
1.3332109
1.3332105
1.3332102
1.33321
1.3332097
1.3332094
1.3332092
1.3332091
1.333209
1.3332089
1.3332089
1.3332089
1.3332089
1.333209
1.3332091
1.3332094
1.3332096
1.3332099
1.3332101
1.3332104
1.3332106
1.3332107
1.3332109
1.3332109
1.333211
1.333211
1.3332109
1.3332109
1.3332106
1.3332101
1.3332093
1.3332085
1.3332075
1.3332063
1.3332051
1.3332038
1.3332024
1.3332011
1.3331997
1.3331985
1.3331972
1.333196
1.3331947
1.3331934
1.3331921
1.3331907
1.3331892
1.3331878
1.3331866
1.3331855
1.3331847
1.3331842
1.3331838
1.3331836
1.3331835
1.3331835
1.3331835
1.3331834
1.3331831
1.3331827
1.3331823
1.3331819
1.3331815
1.3331807
1.3331791
1.3331753
1.3331659
1.3331413
1.3330756
1.3329008
1.3324367
1.3312207
1.3280506
1.3214188
1.3135083
1.3052612
1.297305
1.2900979
1.283909
1.2788376
1.2748527
1.2718394
1.2696405
1.2680891
1.2670292
1.2663275
1.2658774
1.2655977
1.2654298
1.2653328
1.2652795
1.2652522
1.2652399
1.2652359
1.2652357
1.2652373
1.2652429
1.2652507
1.2652582
1.2652656
1.2652726
1.2652794
1.2652856
1.2652913
1.2652963
1.2653006
1.2653043
1.2653074
1.26531
1.2653123
1.2653143
1.2653161
1.2653178
1.2653195
1.2653212
1.2653229
1.2653246
1.2653262
1.2653278
1.2653293
1.2653308
1.2653321
1.2653334
1.2653347
1.2653359
1.2653372
1.2653385
1.2653399
1.2653414
1.265343
1.2653447
1.2653466
1.2653486
1.2653507
1.2653529
1.2653552
1.2653576
1.2653599
1.2653622
1.2653645
1.2653667
1.2653689
1.2653711
1.2653731
1.2653751
1.2653769
1.2653787
1.2653803
1.2653819
1.2653833
1.2653847
1.2653859
1.2653871
1.2653882
1.2653892
1.2653902
1.2653912
1.2653921
1.265393
1.2653939
1.2653947
1.2653955
1.2653962
1.2653969
1.2653976
1.2653983
1.265399
1.2653996
1.2654002
1.2654009
1.2654015
1.265402
1.2654026
1.2654032
1.2654037
1.2654043
1.2654048
1.2654053
1.2654059
1.2654064
1.2654069
1.2654073
1.2654078
1.2654083
1.2654087
1.2654091
1.2654096
1.26541
1.2654105
1.2654109
1.2654113
1.2654118
1.2654122
1.2654126
1.265413
1.2654134
1.2654138
1.2654142
1.2654145
1.2654149
1.2654152
1.2654156
1.2654159
1.2654162
1.2654166
1.265417
1.2654173
1.2654176
1.265418
1.2654183
1.2654186
1.2654189
1.2654192
1.2654195
1.2654198
1.2654201
1.2654204
1.2654207
1.265421
1.2654213
1.2654215
1.2654218
1.2654221
1.2654224
1.2654226
1.2654229
1.2654231
1.2654234
1.2654236
1.2654239
1.2654242
1.2654244
1.2654246
1.2654249
1.2654251
1.2654253
1.2654256
1.2654258
1.265426
1.2654263
1.2654265
1.2654267
1.265427
1.2654272
1.2654274
1.2654276
1.2654278
1.265428
1.2654282
1.2654284
1.2654286
1.2654288
1.265429
1.2654292
1.2654294
1.2654296
1.2654298
1.26543
1.2654302
1.2654304
1.2654306
1.2654307
1.2654309
1.2654311
1.2654313
1.2654314
1.2654316
1.2654318
1.2654319
1.2654321
1.2654323
1.2654324
1.2654326
1.2654327
1.2654329
1.2654331
1.2654332
1.2654334
1.2654336
1.2654337
1.2654339
1.265434
1.2654342
1.2654343
1.2654345
1.2654346
1.2654348
1.2654349
1.265435
1.2654351
1.2654353
1.2654354
1.2654355
1.2654357
1.2654358
1.265436
1.2654361
1.2654362
1.2654364
1.2654365
1.2654367
1.2654368
1.2654369
1.265437
1.2654371
1.2654372
1.2654373
1.2654375
1.2654376
1.2654377
1.2654379
1.265438
1.2654381
1.2654382
1.2654383
1.2654384
1.2654385
1.2654387
1.2654388
1.2654389
1.265439
1.2654391
1.2654392
1.2654394
1.2654395
1.2654396
1.2654397
1.2654398
1.2654399
1.26544
1.2654401
1.2654402
1.2654403
1.2654404
1.2654405
1.2654406
1.2654407
1.2654408
1.2654409
1.265441
1.2654411
1.2654413
1.2654414
1.2654415
1.2654416
1.2654417
1.2654417
1.2654418
1.2654419
1.265442
1.2654421
1.2654422
1.2654423
1.2654424
1.2654425
1.2654426
1.2654427
1.2654427
1.2654428
1.2654429
1.265443
1.2654431
1.2654432
1.2654433
1.2654434
1.2654435
1.2654436
1.2654437
1.2654438
1.2654438
1.2654439
1.265444
1.265444
1.2654441
1.2654442
1.2654443
1.2654444
1.2654445
1.2654446
1.2654446
1.2654447
1.2654448
1.2654449
1.2654449
1.265445
1.2654451
1.2654452
1.2654453
1.2654454
1.2654454
1.2654455
1.2654456
1.2654456
1.2654457
1.2654457
1.2654458
1.2654458
1.2654459
1.265446
1.2654461
1.2654461
1.2654462
1.2654463
1.2654463
1.2654464
1.2654465
1.2654465
1.2654466
1.2654467
1.2654467
1.2654468
1.2654468
1.2654469
1.2654469
1.265447
1.2654471
1.2654471
1.2654472
1.2654473
1.2654473
1.2654474
1.2654474
1.2654475
1.2654476
1.2654476
1.2654477
1.2654478
1.2654478
1.2654479
1.2654479
1.265448
1.265448
1.2654481
1.2654481
1.2654482
1.2654482
1.2654483
1.2654483
1.2654484
1.2654484
1.2654485
1.2654486
1.2654487
1.2654487
1.2654488
1.2654488
1.2654488
1.2654489
1.2654489
1.2654489
1.265449
1.265449
1.2654491
1.2654491
1.2654492
1.2654493
1.2654493
1.2654494
1.2654494
1.2654495
1.2654495
1.2654496
1.2654496
1.2654497
1.2654497
1.2654497
1.2654498
1.2654498
1.2654498