/*--------------------------------*- C++ -*----------------------------------*\
  =========                 |
  \\      /  F ield         | OpenFOAM: The Open Source CFD Toolbox
   \\    /   O peration     | Website:  https://openfoam.org
    \\  /    A nd           | Version:  7
     \\/     M anipulation  |
\*---------------------------------------------------------------------------*/
FoamFile
{
    version     2.0;
    format      ascii;
    class       volVectorField;
    location    "0.00318";
    object      U;
}
// * * * * * * * * * * * * * * * * * * * * * * * * * * * * * * * * * * * * * //

dimensions      [0 1 -1 0 0 0 0];

internalField   nonuniform List<vector> 
5000
(
(-89.685971 1.6598642e-17 0)
(-89.611142 1.5863955e-17 0)
(-89.56873 0 0)
(-89.524203 0 0)
(-89.480308 -8.4509028e-18 0)
(-89.436403 9.5993801e-33 -8.443704e-18)
(-89.392514 8.4376571e-18 -1.7985948e-32)
(-89.348634 0 2.5296583e-17)
(-89.304759 0 8.42758e-18)
(-89.260886 -8.4235463e-18 -1.6847093e-17)
(-89.217012 -1.6840298e-17 -1.6840298e-17)
(-89.173133 8.4170685e-18 8.4170685e-18)
(-89.129248 8.4143292e-18 -7.1744886e-32)
(-89.085354 -8.41163e-18 -7.41126e-32)
(-89.041454 0 1.6818112e-17)
(-88.997546 -8.4063609e-18 -1.6812722e-17)
(-88.953631 -1.9918904e-48 -9.959452e-49)
(-88.909709 8.4007939e-18 -7.4017127e-32)
(-88.865781 0 -8.3978613e-18)
(-88.821847 8.394693e-18 1.6789386e-17)
(-88.777909 -8.3914629e-18 8.3914629e-18)
(-88.733968 -8.3879957e-18 0)
(-88.690023 1.6768957e-17 0)
(-88.646076 -8.3807427e-18 -8.3807427e-18)
(-88.602128 -8.3769782e-18 7.1426412e-32)
(-88.558179 -6.9012961e-32 -6.9012961e-32)
(-88.514229 8.3690754e-18 -8.3690754e-18)
(-88.470279 8.3649601e-18 8.3649601e-18)
(-88.426329 -1.6721741e-17 8.3608705e-18)
(-88.38238 1.4488104e-31 -8.3566368e-18)
(-88.338431 -1.4599521e-31 1.4599521e-31)
(-88.294484 8.3481053e-18 -7.1180227e-32)
(-88.250538 1.6687632e-17 -8.3438162e-18)
(-88.206593 -1.6678802e-17 8.339401e-18)
(-88.16265 1.445066e-31 8.3350395e-18)
(-88.118709 -7.245125e-31 0)
(-88.07477 -2.8870481e-31 0)
(-88.030833 1.6643242e-17 -8.3216211e-18)
(-87.986899 -1.6634333e-17 -8.3171663e-18)
(-87.942967 -1.6625219e-17 8.3126095e-18)
(-87.899037 1.6616254e-17 -1.3931739e-31)
(-87.855109 -5.7112243e-31 -8.3035472e-18)
(-87.811185 -1.659809e-17 8.2990451e-18)
(-87.767263 8.2944486e-18 -1.4026673e-31)
(-87.723343 2.4869797e-17 -8.2899323e-18)
(-87.679426 -8.285324e-18 8.285324e-18)
(-87.635512 -8.2807977e-18 -2.8477886e-31)
(-87.591601 -5.6688798e-31 2.8344399e-31)
(-87.547692 -1.6543298e-17 -2.8446423e-31)
(-87.503786 0 1.4097784e-31)
(-87.459883 8.2624911e-18 8.2624911e-18)
(-87.415983 1.1735135e-33 0)
(-87.372085 -8.2533274e-18 0)
(-87.328191 1.6497402e-17 0)
(-87.284299 -2.8820513e-31 0)
(-87.24041 -1.6479064e-17 0)
(-87.196524 8.2349901e-18 0)
(-87.152641 -2.8421399e-31 0)
(-87.10876 -8.2258217e-18 0)
(-87.064883 0 0)
(-87.021008 8.2166581e-18 0)
(-86.977136 2.8008013e-31 0)
(-86.933267 2.332712e-33 0)
(-86.889401 8.2028821e-18 -8.2028821e-18)
(-86.845537 -8.1983493e-18 -8.1983493e-18)
(-86.801677 2.8644225e-31 8.1937323e-18)
(-86.757819 8.1892006e-18 -1.408144e-31)
(-86.713965 -8.1845855e-18 -1.9824705e-49)
(-86.670113 -8.1800556e-18 8.1800556e-18)
(-86.626263 8.1754427e-18 0)
(-86.582417 8.1709165e-18 0)
(-86.538574 -8.1663089e-18 -8.1663089e-18)
(-86.494733 -8.1617869e-18 -8.1617869e-18)
(-86.450895 1.6314367e-17 0)
(-86.40706 8.1526679e-18 8.1526679e-18)
(-86.363228 -8.1480692e-18 2.813722e-31)
(-86.319399 0 -8.1435528e-18)
(-86.275572 8.1389565e-18 -8.1389565e-18)
(-86.231749 -1.1559748e-33 8.1344497e-18)
(-86.187928 -8.1298577e-18 1.6259715e-17)
(-86.144109 8.1253457e-18 -1.6250691e-17)
(-86.100294 -2.3080601e-33 4.6161202e-33)
(-86.056481 2.3067854e-33 2.4348838e-17)
(-86.012671 8.1116976e-18 -1.6223395e-17)
(-85.968864 8.1071896e-18 -8.4333789e-31)
(-85.92506 2.8210586e-31 1.6205253e-17)
(-85.881258 -8.0981545e-18 -2.4294464e-17)
(-85.837459 0 8.0935544e-18)
(-85.793663 -8.0890264e-18 8.0890264e-18)
(-85.74987 -8.3867627e-31 -8.0844652e-18)
(-85.706079 -2.8246567e-31 8.0799815e-18)
(-85.662291 8.075356e-18 8.075356e-18)
(-85.618506 8.0708535e-18 2.8099963e-31)
(-85.574724 -1.6132776e-17 -1.6132776e-17)
(-85.530945 -5.5793593e-31 -5.5793593e-31)
(-85.487168 8.0571506e-18 -8.0571506e-18)
(-85.443395 0 -8.0526774e-18)
(-85.399624 0 -2.824968e-31)
(-85.355856 -8.0436738e-18 5.6010665e-31)
(-85.312091 -5.5750246e-31 1.6078175e-17)
(-85.268328 1.6069179e-17 8.0345896e-18)
(-85.224569 -8.0300221e-18 -8.0300221e-18)
(-85.180812 -1.6051066e-17 1.1404968e-33)
(-85.137058 0 8.020972e-18)
(-85.093307 8.0164852e-18 0)
(-85.049559 8.0119332e-18 -8.0119332e-18)
(-85.005814 -8.0074495e-18 -2.7879212e-31)
(-84.962071 -8.0029061e-18 8.0029061e-18)
(-84.918331 0 -7.998424e-18)
(-84.874594 0 -7.9938894e-18)
(-84.830859 7.9894086e-18 1.5978817e-17)
(-84.787128 7.9848831e-18 7.9848831e-18)
(-84.743399 0 -2.394121e-17)
(-84.699672 -7.9758869e-18 -7.9758869e-18)
(-84.655949 2.7867005e-31 2.3914221e-17)
(-84.612228 7.9668988e-18 -7.9668988e-18)
(-84.56851 -7.9624169e-18 -7.9624169e-18)
(-84.524795 2.2617757e-33 -4.5235515e-33)
(-84.481082 -2.7804158e-31 -7.9534295e-18)
(-84.437373 -2.0263427e-49 2.3846805e-17)
(-84.393666 1.5888888e-17 -5.5545493e-31)
(-84.349961 -3.3850072e-33 -1.5879914e-17)
(-84.30626 -7.9354604e-18 1.5870921e-17)
(-84.262561 0 7.9309821e-18)
(-84.218865 -7.9264827e-18 -7.9264827e-18)
(-84.175172 7.9220132e-18 7.9220132e-18)
(-84.131481 7.9175078e-18 -7.9175078e-18)
(-84.087794 -1.5826101e-17 -1.5826101e-17)
(-84.044109 -7.9085436e-18 7.9085436e-18)
(-84.000427 1.5808181e-17 2.7294704e-31)
(-83.956748 7.8995759e-18 7.8995759e-18)
(-83.913071 -7.8951387e-18 1.5790277e-17)
(-83.869397 -7.8906358e-18 -7.8906358e-18)
(-83.825726 -7.8862079e-18 -7.8862079e-18)
(-83.782058 0 -7.8817189e-18)
(-83.738393 7.8772986e-18 -2.7426071e-31)
(-83.69473 7.8727847e-18 -2.7298476e-31)
(-83.65107 -7.8683627e-18 2.7394959e-31)
(-83.607413 -2.7267563e-31 1.5727739e-17)
(-83.563758 7.8594583e-18 7.8594583e-18)
(-83.520106 -7.8549707e-18 -7.8549707e-18)
(-83.476457 -7.8505617e-18 -1.5701123e-17)
(-83.432811 0 -7.8460765e-18)
(-83.389167 7.8416701e-18 -7.8416701e-18)
(-83.345527 7.8371879e-18 5.4350092e-31)
(-83.301889 -7.8327847e-18 1.5665569e-17)
(-83.258253 7.8283066e-18 -2.2249386e-33)
(-83.214621 -4.4473768e-33 2.2236884e-33)
(-83.170991 -7.8194354e-18 1.7382189e-48)
(-83.127364 7.8150428e-18 7.8150428e-18)
(-83.08374 -7.8105766e-18 -5.4165545e-31)
(-83.040118 5.4356993e-31 1.0871399e-30)
(-82.9965 7.8017312e-18 7.8017312e-18)
(-82.952884 -7.7973519e-18 -7.7973519e-18)
(-82.909271 7.7928997e-18 7.7928997e-18)
(-82.86566 7.7885272e-18 2.7006317e-31)
(-82.822052 -7.7840819e-18 -7.7840819e-18)
(-82.778447 0 7.7797165e-18)
(-82.734845 0 -1.1049335e-33)
(-82.691245 -7.7709205e-18 -7.7709205e-18)
(-82.647649 -7.7664903e-18 0)
(-82.604055 7.76214e-18 7.76214e-18)
(-82.560463 7.7577178e-18 5.3688731e-31)
(-82.516874 -7.7533751e-18 -1.550675e-17)
(-82.473288 -5.3738245e-31 7.7489606e-18)
(-82.429705 7.7446251e-18 -2.2011549e-33)
(-82.386125 -7.7402175e-18 -7.7402175e-18)
(-82.342547 -7.7358881e-18 7.7358881e-18)
(-82.298972 0 -7.7314864e-18)
(-82.255399 7.7271624e-18 7.7271624e-18)
(-82.211829 7.722766e-18 -3.2177851e-30)
(-82.168263 0 -2.1410655e-30)
(-82.124698 -7.7140569e-18 7.7140569e-18)
(-82.081137 -7.7097447e-18 -1.5419489e-17)
(-82.037578 0 0)
(-81.994022 7.7010578e-18 -5.3406043e-31)
(-81.950469 1.6012714e-30 -1.6012714e-30)
(-81.906918 -7.6923907e-18 7.6923907e-18)
(-81.863371 7.6880287e-18 7.6880287e-18)
(-81.819826 7.6837471e-18 5.2958417e-31)
(-81.776283 -7.6793976e-18 -7.6793976e-18)
(-81.732744 -5.3008088e-31 7.6751288e-18)
(-81.689207 5.2760121e-31 5.2760121e-31)
(-81.645673 3.268441e-33 3.268441e-33)
(-81.602141 7.6622127e-18 1.0616443e-30)
(-81.558613 -7.6579692e-18 -1.5315938e-17)
(-81.515086 -1.0615467e-30 7.6536585e-18)
(-81.471563 5.2613176e-31 7.649428e-18)
(-81.428042 -5.258362e-31 -5.258362e-31)
(-81.384524 7.6409143e-18 5.2663203e-31)
(-81.341009 0 -1.5876925e-30)
(-81.297496 0 5.2713197e-31)
(-81.253986 -7.6281652e-18 -7.6281652e-18)
(-81.210478 -7.6239813e-18 0)
(-81.166974 0 0)
(-81.123471 0 0)
(-81.079972 7.6113394e-18 0)
(-81.036475 1.9437963e-49 -7.6071933e-18)
(-80.99298 -7.6029846e-18 1.5850188e-30)
(-80.949488 0 7.5988586e-18)
(-80.905999 7.5946703e-18 7.5946703e-18)
(-80.862512 -7.590565e-18 -7.590565e-18)
(-80.819028 -2.1022794e-30 -7.5863979e-18)
(-80.775547 1.5164628e-17 1.5164628e-17)
(-80.732067 -7.5781687e-18 5.2446128e-31)
(-80.688591 -1.5725405e-30 -1.5725405e-30)
(-80.645117 -1.0757594e-33 -7.5699837e-18)
(-80.601645 -7.5659439e-18 -7.5659439e-18)
(-80.558176 7.5618437e-18 7.5618437e-18)
(-80.514709 -1.0740318e-33 0)
(-80.471245 -1.0455427e-30 7.5537504e-18)
(-80.427783 5.2249502e-31 5.2249502e-31)
(-80.384324 -7.5457046e-18 -7.5457046e-18)
(-80.340867 0 -7.5417352e-18)
(-80.297413 7.537706e-18 1.049749e-30)
(-80.253961 5.2138788e-31 7.5337598e-18)
(-80.210511 2.0897928e-30 -1.5059508e-17)
(-80.167063 7.5258314e-18 7.5258314e-18)
(-80.123618 0 7.5218498e-18)
(-80.080176 -7.517952e-18 -7.517952e-18)
(-80.036736 -7.5139962e-18 7.5139962e-18)
(-79.993297 0 0)
(-79.949862 0 0)
(-79.906428 0 0)
(-79.862997 7.4984536e-18 7.4984536e-18)
(-79.819568 5.1868057e-31 -7.4946408e-18)
(-79.776142 -7.4907737e-18 -1.4981547e-17)
(-79.732717 0 7.486994e-18)
(-79.689295 0 -5.2001296e-31)
(-79.645875 7.4794166e-18 7.4794166e-18)
(-79.602457 7.4756194e-18 7.4756194e-18)
(-79.559041 -7.4719104e-18 -1.4943821e-17)
(-79.515627 -7.4681498e-18 2.1225758e-33)
(-79.472216 0 -2.1215323e-33)
(-79.428806 7.4607563e-18 7.4607563e-18)
(-79.385398 7.4571249e-18 7.4571249e-18)
(-79.341993 -7.4534449e-18 -1.490689e-17)
(-79.298589 -7.4498563e-18 1.0586883e-33)
(-79.255188 0 -1.5512795e-30)
(-79.211788 7.4426757e-18 7.4426757e-18)
(-79.16839 -2.0656856e-30 -4.1313711e-30)
(-79.124994 -5.1565009e-31 -1.0313002e-30)
(-79.0816 7.4320371e-18 7.4320371e-18)
(-79.038207 -7.4285831e-18 -7.4285831e-18)
(-78.994817 -7.4250839e-18 0)
(-78.951428 0 -7.4216792e-18)
(-78.908041 7.4182314e-18 7.4182314e-18)
(-78.864656 -1.030536e-30 7.4148797e-18)
(-78.821272 7.4114867e-18 -7.4114867e-18)
(-78.77789 1.0275008e-30 0)
(-78.734509 -1.480971e-17 -7.4048549e-18)
(-78.69113 7.4016167e-18 7.4016167e-18)
(-78.647753 -1.0261344e-30 7.398339e-18)
(-78.604376 -2.5673863e-30 -2.5673863e-30)
(-78.561002 -5.115731e-31 -1.4783884e-17)
(-78.517628 -7.3888231e-18 -1.4777646e-17)
(-78.474256 7.3856669e-18 2.2157001e-17)
(-78.430886 7.3826108e-18 1.4765222e-17)
(-78.387516 0 0)
(-78.344148 -7.3765274e-18 -1.4753055e-17)
(-78.300781 -7.3735014e-18 -7.3735014e-18)
(-78.257414 0 7.3705776e-18)
(-78.214049 7.3676204e-18 7.3676204e-18)
(-78.170685 7.3647667e-18 7.3647667e-18)
(-78.127322 -1.4723762e-17 -1.4723762e-17)
(-78.08396 -7.3590997e-18 -1.4718199e-17)
(-78.040598 7.3562874e-18 7.3562874e-18)
(-77.997237 7.3535802e-18 1.470716e-17)
(-77.953877 2.0390934e-30 2.0390934e-30)
(-77.910518 -7.3482094e-18 -1.4696419e-17)
(-77.867159 7.3455458e-18 7.3455458e-18)
(-77.823801 -5.092286e-31 -1.0184572e-30)
(-77.780444 -7.3403982e-18 -7.3403982e-18)
(-77.737086 7.3379149e-18 1.467583e-17)
(-77.69373 -5.0974505e-31 -7.3354026e-18)
(-77.650373 5.1061999e-31 1.02124e-30)
(-77.607017 -2.0834715e-33 7.3305635e-18)
(-77.563662 -5.0612283e-31 -7.3282363e-18)
(-77.520306 7.3258854e-18 7.3258854e-18)
(-77.476951 0 -1.4647281e-17)
(-77.433595 0 3.0546981e-30)
(-77.39024 -7.3191948e-18 1.463839e-17)
(-77.346885 -7.3169977e-18 -1.4633995e-17)
(-77.30353 0 -5.0624205e-31)
(-77.260174 0 7.3128006e-18)
(-77.216818 0 0)
(-77.173462 0 0)
(-77.130106 7.3068599e-18 7.3068599e-18)
(-77.086749 5.0347443e-31 -7.3049202e-18)
(-77.043392 -1.4606181e-17 -1.4606181e-17)
(-77.000033 3.1127045e-33 7.3012369e-18)
(-76.956675 7.2994933e-18 -2.0746408e-33)
(-76.913316 7.2977269e-18 7.2977269e-18)
(-76.869957 -1.012987e-30 7.2960721e-18)
(-76.826596 -1.010681e-30 -7.2943955e-18)
(-76.783235 -1.0363742e-33 0)
(-76.739872 -7.2912551e-18 -7.2912551e-18)
(-76.696509 -7.2897878e-18 -7.2897878e-18)
(-76.653145 -7.2882985e-18 0)
(-76.60978 1.4573837e-17 1.4573837e-17)
(-76.566412 2.1856548e-17 7.2855159e-18)
(-76.523045 -7.2842241e-18 -1.4568448e-17)
(-76.479675 -1.456582e-17 5.0402734e-31)
(-76.436305 0 -2.0695853e-33)
(-76.392933 7.2804793e-18 7.2804793e-18)
(-76.34956 7.2793627e-18 7.2793627e-18)
(-76.306184 -7.278223e-18 -7.278223e-18)
(-76.262808 2.0683027e-33 7.2771931e-18)
(-76.219429 -3.1020051e-33 -7.2761401e-18)
(-76.176049 2.0677352e-33 4.1354705e-33)
(-76.132667 7.2742298e-18 1.454846e-17)
(-76.089283 7.2733721e-18 -7.2733721e-18)
(-76.045897 -7.2724907e-18 -7.2724907e-18)
(-76.00251 -1.4543436e-17 -7.271718e-18)
(-75.959119 7.270921e-18 -1.0084618e-30)
(-75.915728 2.7960128e-50 7.2702319e-18)
(-75.872333 7.2695177e-18 0)
(-75.828937 2.0142999e-30 0)
(-75.785538 -1.4536555e-17 -7.2682773e-18)
(-75.742137 0 1.0090547e-30)
(-75.698733 0 -2.0169226e-30)
(-75.655327 1.4533487e-17 -1.0099477e-30)
(-75.611918 -4.0353931e-30 7.2662626e-18)
(-75.568507 -1.4531767e-17 -7.2658837e-18)
(-75.525092 0 1.0324858e-33)
(-75.481676 7.265162e-18 7.265162e-18)
(-75.438256 7.264817e-18 0)
(-75.394834 -7.2645697e-18 0)
(-75.351408 1.0323172e-33 0)
(-75.307981 -1.0085479e-30 0)
(-75.264549 1.0322586e-33 0)
(-75.221116 7.2637431e-18 0)
(-75.177678 -7.2635731e-18 0)
(-75.134239 -7.2634957e-18 -7.2634957e-18)
(-75.090795 0 0)
(-75.04735 7.2633496e-18 7.2633496e-18)
(-75.0039 -1.008434e-30 0)
(-74.960448 -7.2632962e-18 -7.2632962e-18)
(-74.916992 1.4526536e-17 -2.0148006e-30)
(-74.873533 -2.0148164e-30 7.2633247e-18)
(-74.83007 -7.2633327e-18 0)
(-74.786605 -2.0169079e-30 0)
(-74.743136 -1.452692e-17 -7.2634599e-18)
(-74.699664 1.4527151e-17 -1.0084752e-30)
(-74.656188 7.2636353e-18 7.2636353e-18)
(-74.612709 -7.2637697e-18 0)
(-74.569226 -1.0322544e-33 0)
(-74.52574 -7.2639906e-18 -7.2639906e-18)
(-74.482251 0 -7.2640737e-18)
(-74.438758 0 7.2642248e-18)
(-74.395261 7.26431e-18 7.26431e-18)
(-74.351762 -1.0075657e-30 0)
(-74.308258 -1.4529084e-17 -7.2645418e-18)
(-74.264752 1.0323739e-33 1.0323739e-33)
(-74.221242 2.1794275e-17 7.2647584e-18)
(-74.177728 -7.2648908e-18 -7.2648908e-18)
(-74.134211 -7.2649492e-18 -7.2649492e-18)
(-74.090691 1.4530129e-17 7.2650645e-18)
(-74.047167 -7.2651029e-18 7.2651029e-18)
(-74.00364 7.2651952e-18 0)
(-73.960109 1.4530415e-17 -7.2652076e-18)
(-73.916575 -7.265271e-18 -7.265271e-18)
(-73.873037 -7.2652516e-18 7.2652516e-18)
(-73.829496 -7.2652804e-18 7.2652804e-18)
(-73.785952 7.2652238e-18 0)
(-73.742405 -6.4676031e-51 -7.2652131e-18)
(-73.698854 -7.2651148e-18 -7.2651148e-18)
(-73.655301 7.2650604e-18 7.2650604e-18)
(-73.611743 -7.2649162e-18 7.2649162e-18)
(-73.568183 7.2648138e-18 0)
(-73.52462 2.0131108e-30 0)
(-73.481054 2.0646849e-33 0)
(-73.437484 7.2642142e-18 0)
(-73.393912 -1.4528001e-17 0)
(-73.350336 7.2636894e-18 0)
(-73.306758 2.0169048e-30 0)
(-73.263177 -2.0147354e-30 0)
(-73.219593 -7.2626846e-18 -7.2626846e-18)
(-73.176006 -1.4524466e-17 -4.9805776e-50)
(-73.132416 2.1785429e-17 7.2618096e-18)
(-73.088824 2.0142494e-30 0)
(-73.045229 -4.0282196e-30 0)
(-73.001632 2.011877e-30 0)
(-72.958032 -1.4519161e-17 -7.2595804e-18)
(-72.914429 1.4517769e-17 -1.0067924e-30)
(-72.870825 -2.0133978e-30 7.2582109e-18)
(-72.827217 -1.4514852e-17 -7.257426e-18)
(-72.783608 0 1.0075152e-30)
(-72.739997 0 -1.0311088e-33)
(-72.696383 7.254923e-18 -1.0072739e-30)
(-72.652767 -1.0061077e-30 7.2539481e-18)
(-72.60915 -7.2529895e-18 -7.2529895e-18)
(-72.56553 -7.2519146e-18 7.2519146e-18)
(-72.521909 7.2508544e-18 -4.0288968e-30)
(-72.478285 2.174903e-17 -7.2496767e-18)
(-72.43466 -7.2485127e-18 7.2485127e-18)
(-72.391034 -7.2472301e-18 0)
(-72.347406 -2.0594258e-33 0)
(-72.303776 -7.2445708e-18 -7.2445708e-18)
(-72.260145 0 -1.0056453e-30)
(-72.216512 1.448339e-17 7.241695e-18)
(-72.172879 1.4480415e-17 -7.2402077e-18)
(-72.129244 -7.2385992e-18 -7.2385992e-18)
(-72.085608 -1.4474001e-17 0)
(-72.041971 -7.2352803e-18 7.2352803e-18)
(-71.998333 1.4467139e-17 7.2335694e-18)
(-71.954694 1.4463473e-17 -7.2317367e-18)
(-71.911054 -1.4459826e-17 -2.0065756e-30)
(-71.867414 -1.4455936e-17 3.0259124e-49)
(-71.823773 0 -1.0032627e-30)
(-71.780132 1.4447951e-17 7.2239753e-18)
(-71.73649 -7.2219279e-18 -7.2219279e-18)
(-71.692847 -1.4439518e-17 -1.3835357e-48)
(-71.649204 7.2175994e-18 -1.0020919e-30)
(-71.605561 7.2153183e-18 -7.2153183e-18)
(-71.561918 -1.0250347e-33 0)
(-71.518275 1.0011245e-30 0)
(-71.474632 7.2082242e-18 7.2082242e-18)
(-71.430989 -7.2056936e-18 1.0239906e-33)
(-71.387346 -7.2031724e-18 -2.9971956e-30)
(-71.343703 7.2005309e-18 7.2005309e-18)
(-71.300061 -9.9833381e-31 0)
(-71.256419 -1.022492e-33 0)
(-71.212778 -9.9757207e-31 -7.1924071e-18)
(-71.169137 -7.1895476e-18 1.9933292e-30)
(-71.125497 7.1866992e-18 7.1866992e-18)
(-71.081857 -2.9921696e-30 0)
(-71.038218 -9.9697969e-31 0)
(-70.994581 -1.9920867e-30 0)
(-70.950944 -7.1746502e-18 -7.1746502e-18)
(-70.907308 7.1714774e-18 1.0191282e-33)
(-70.863673 -9.952498e-31 7.1683192e-18)
(-70.820039 -1.9865366e-30 -7.1650479e-18)
(-70.776406 -1.017752e-33 7.1617928e-18)
(-70.732775 -1.4316853e-17 -1.9897872e-30)
(-70.689145 -7.1550784e-18 -1.4310157e-17)
(-70.645517 7.1516207e-18 7.1516207e-18)
(-70.601889 1.4296365e-17 2.977362e-30)
(-70.558264 -9.9196158e-31 9.9196158e-31)
(-70.51464 -1.4282219e-17 -9.9147197e-31)
(-70.471017 -7.1374757e-18 -7.1374757e-18)
(-70.427396 1.4267726e-17 0)
(-70.383777 7.1301444e-18 0)
(-70.34016 -7.1264479e-18 7.1264479e-18)
(-70.296544 -7.1226472e-18 9.889087e-31)
(-70.252931 -1.975757e-30 -1.975757e-30)
(-70.209319 7.1149916e-18 1.6875566e-49)
(-70.16571 0 -7.1111386e-18)
(-70.122102 0 7.1071861e-18)
(-70.078497 7.1032612e-18 7.1032612e-18)
(-70.034894 0 0)
(-69.991293 -7.095245e-18 -7.095245e-18)
(-69.947694 7.0911546e-18 -9.8453627e-31)
(-69.904097 1.0071366e-33 7.0870941e-18)
(-69.860503 -1.9657844e-30 0)
(-69.816911 0 0)
(-69.773322 -7.0745924e-18 -7.0745924e-18)
(-69.729735 7.0704045e-18 2.0095298e-33)
(-69.686151 7.0661247e-18 1.8806057e-49)
(-69.642569 -1.4123758e-17 -7.0618791e-18)
(-69.59899 -7.0575441e-18 7.0575441e-18)
(-69.555413 7.0532456e-18 -9.7726832e-31)
(-69.511839 0 9.7866412e-31)
(-69.468268 0 -1.95512e-30)
(-69.424699 -7.0400798e-18 -7.0400798e-18)
(-69.381133 1.9546696e-30 7.0356853e-18)
(-69.33757 7.0312058e-18 -1.9524259e-30)
(-69.29401 0 1.9521912e-30)
(-69.250453 0 -1.9509338e-30)
(-69.206898 -7.0177523e-18 -7.0177523e-18)
(-69.163347 2.9221289e-30 7.0131834e-18)
(-69.119798 7.0086547e-18 -1.946164e-30)
(-69.076252 0 9.7443291e-31)
(-69.032709 0 0)
(-68.989169 0 -6.9948472e-18)
(-68.945632 0 6.9902519e-18)
(-68.902099 0 -9.6987899e-31)
(-68.858568 0 9.9205556e-34)
(-68.81504 0 -9.6858615e-31)
(-68.771515 0 9.6893004e-31)
(-68.727994 1.3933776e-17 6.9668881e-18)
(-68.684475 3.8645574e-30 -6.9622134e-18)
(-68.64096 -6.9574433e-18 -6.9574433e-18)
(-68.597447 6.9527072e-18 6.9527072e-18)
(-68.553938 -6.9479212e-18 6.9479212e-18)
(-68.510432 6.9431906e-18 0)
(-68.46693 -1.9286145e-30 -6.9383529e-18)
(-68.42343 -6.9335699e-18 -6.9335699e-18)
(-68.379934 -1.9239833e-30 0)
(-68.336441 -6.9240254e-18 6.9240254e-18)
(-68.292951 0 -9.6065558e-31)
(-68.249464 0 9.8258606e-34)
(-68.205981 6.9095639e-18 9.5834229e-31)
(-68.162501 1.9173202e-30 -6.9047808e-18)
(-68.119023 -6.8997988e-18 6.8997988e-18)
(-68.07555 0 9.5631024e-31)
(-68.03208 0 -1.9132172e-30)
(-67.988613 0 -6.8852016e-18)
(-67.945149 0 -6.8803338e-18)
(-67.901688 0 1.3750968e-17)
(-67.858231 0 -9.7636328e-34)
(-67.814777 0 9.5225242e-31)
(-67.771326 1.3721453e-17 6.8607265e-18)
(-67.727879 -5.7072957e-30 -6.8558422e-18)
(-67.684435 -1.3701826e-17 9.5118111e-31)
(-67.640994 6.8460075e-18 6.8460075e-18)
(-67.597557 9.7217423e-34 0)
(-67.554123 6.8361481e-18 0)
(-67.510692 -3.7879566e-30 0)
(-67.467265 -1.365256e-17 -6.8262801e-18)
(-67.42384 -6.8213385e-18 -6.8213385e-18)
(-67.38042 -2.2750373e-49 6.8164007e-18)
(-67.337002 2.0434368e-17 6.811456e-18)
(-67.293588 0 0)
(-67.250177 -1.3603126e-17 -6.8015631e-18)
(-67.206769 0 -6.7966114e-18)
(-67.163365 0 6.7916604e-18)
(-67.119964 1.3573406e-17 6.7867029e-18)
(-67.076566 -1.8812291e-30 0)
(-67.033172 -2.0330358e-17 -6.7767861e-18)
(-66.989781 6.7718283e-18 -6.7718283e-18)
(-66.946393 6.7668623e-18 6.7668623e-18)
(-66.903009 -6.7619013e-18 1.8776454e-30)
(-66.859627 6.7569319e-18 -6.7569319e-18)
(-66.816249 -6.7519677e-18 0)
(-66.772875 -1.8715885e-30 0)
(-66.729503 6.7420271e-18 0)
(-66.686135 -6.7370504e-18 0)
(-66.642771 0 6.7320796e-18)
(-66.599409 -6.7270997e-18 -1.8660698e-30)
(-66.556051 6.7221262e-18 -6.7221262e-18)
(-66.512696 1.3434288e-17 6.717144e-18)
(-66.469345 -6.7121689e-18 9.3191787e-31)
(-66.425997 -6.7071855e-18 -9.3217913e-31)
(-66.382652 -6.7022099e-18 2.3037506e-49)
(-66.33931 -6.6972267e-18 6.6972267e-18)
(-66.295972 1.3384502e-17 6.6922512e-18)
(-66.252637 6.6872689e-18 -1.3374538e-17)
(-66.209305 -6.682294e-18 -9.2777003e-31)
(-66.165977 0 9.2612956e-31)
(-66.122651 6.6723385e-18 -6.6723385e-18)
(-66.079329 -6.6673587e-18 0)
(-66.036011 -6.6623843e-18 6.6623843e-18)
(-65.992695 1.9972216e-17 6.6574054e-18)
(-65.949383 1.8907345e-33 -6.6524305e-18)
(-65.906074 -1.3294904e-17 -1.8439759e-30)
(-65.862768 6.6424762e-18 6.6424762e-18)
(-65.819466 9.2155053e-31 0)
(-65.776166 6.6325207e-18 0)
(-65.73287 -1.8836608e-33 -6.6275421e-18)
(-65.689577 -1.3245128e-17 9.1853597e-31)
(-65.646288 6.6175854e-18 6.6175854e-18)
(-65.603002 0 0)
(-65.559718 -1.8348072e-30 -6.6076292e-18)
(-65.516439 -9.382932e-34 9.382932e-34)
(-65.473162 -6.5976759e-18 -1.8320433e-30)
(-65.429888 6.5927e-18 -9.1439392e-31)
(-65.386618 -1.8292808e-30 6.5877273e-18)
(-65.343351 -9.1301443e-31 -6.5827539e-18)
(-65.300087 -9.3475935e-34 9.3475935e-34)
(-65.256827 -6.5728134e-18 -1.8251395e-30)
(-65.213569 6.5678461e-18 -6.5678461e-18)
(-65.170315 2.2920348e-49 6.5628771e-18)
(-65.127064 -1.8210015e-30 1.8210015e-30)
(-65.083816 -9.3122926e-34 9.3122926e-34)
(-65.040571 -1.3095957e-17 -9.0912164e-31)
(-64.997329 -9.0750213e-31 -6.5430108e-18)
(-64.95409 6.5380461e-18 6.5380461e-18)
(-64.910855 0 0)
(-64.867623 0 -3.6245273e-30)
(-64.824394 -6.5231475e-18 -9.0474713e-31)
(-64.781168 -2.7121759e-30 -2.7121759e-30)
(-64.737945 6.513217e-18 -9.2558381e-34)
(-64.694725 -6.5082538e-18 -6.5082538e-18)
(-64.651509 9.0291686e-31 6.5032881e-18)
(-64.608295 9.1911878e-49 9.1911878e-49)
(-64.565085 -9.0153868e-31 -9.0153868e-31)
(-64.521878 6.4884013e-18 1.8016999e-30)
(-64.478674 6.4834391e-18 -9.0016101e-31)
(-64.435473 8.9855198e-31 1.2956962e-17)
(-64.392276 -6.4735212e-18 -6.4735212e-18)
(-64.349081 0 -6.4685657e-18)
(-64.305889 0 -8.9740774e-31)
(-64.262701 6.4586556e-18 8.9672007e-31)
(-64.219516 -6.4537009e-18 1.2907402e-17)
(-64.176334 5.3684032e-30 -6.4487503e-18)
(-64.133154 6.4437978e-18 -6.4437978e-18)
(-64.089978 -6.4388493e-18 2.292955e-49)
(-64.046805 0 0)
(-64.003635 6.4289524e-18 2.292238e-49)
(-63.960469 6.424004e-18 -6.424004e-18)
(-63.917305 -6.4190597e-18 6.4190597e-18)
(-63.874144 -6.4141134e-18 2.2850775e-49)
(-63.830986 0 -8.8893884e-31)
(-63.787832 6.4042268e-18 -9.1009537e-34)
(-63.74468 6.3992862e-18 -6.3992862e-18)
(-63.701531 -1.2788687e-17 1.2788687e-17)
(-63.658386 -6.3894046e-18 1.7742105e-30)
(-63.615243 6.3844634e-18 -6.3844634e-18)
(-63.572104 6.3795259e-18 8.8482712e-31)
(-63.528967 8.8414202e-31 -8.8414202e-31)
(-63.485834 6.3696508e-18 6.3696508e-18)
(-63.442703 1.7673542e-30 -6.3647133e-18)
(-63.399576 -1.271956e-17 -9.1517675e-49)
(-63.356451 0 -2.6478239e-30)
(-63.31333 0 1.764147e-30)
(-63.270211 0 -1.7609731e-30)
(-63.227096 6.3400514e-18 -1.7605061e-30)
(-63.183983 6.3351205e-18 2.2800151e-49)
(-63.140874 0 0)
(-63.097767 -6.3252641e-18 6.3252641e-18)
(-63.054664 -8.7571977e-31 0)
(-63.011563 6.3154109e-18 0)
(-62.968466 0 -6.310487e-18)
(-62.925371 0 -1.7509289e-30)
(-62.88228 -6.3006392e-18 6.3006392e-18)
(-62.839191 -8.7320279e-31 0)
(-62.796105 8.7162648e-31 0)
(-62.753022 -6.285875e-18 -1.257175e-17)
(-62.709943 6.2809583e-18 -5.2287211e-30)
(-62.666866 -2.6114216e-30 1.2552081e-17)
(-62.623792 -6.2711265e-18 -6.2711265e-18)
(-62.580721 0 8.9048219e-34)
(-62.537653 -6.2613001e-18 -8.6931922e-31)
(-62.494588 -8.6863711e-31 -6.2563872e-18)
(-62.451526 6.2514779e-18 0)
(-62.408466 -6.2465665e-18 0)
(-62.36541 6.2416585e-18 0)
(-62.322357 6.2367483e-18 -6.2367483e-18)
(-62.279306 -6.2318415e-18 -1.7286872e-30)
(-62.236259 0 6.2269327e-18)
(-62.193214 6.2220276e-18 0)
(-62.150172 6.2171209e-18 0)
(-62.107133 -6.2122184e-18 -6.2122184e-18)
(-62.064097 -6.2073147e-18 8.8211248e-34)
(-62.021064 0 6.2024157e-18)
(-61.978034 -6.1975157e-18 0)
(-61.935007 6.1926205e-18 0)
(-61.891983 6.1877243e-18 -6.1877243e-18)
(-61.848961 -6.1828326e-18 -1.7150923e-30)
(-61.805943 -1.2355879e-17 -1.7163688e-30)
(-61.762927 3.4282668e-30 1.7141334e-30)
(-61.719914 1.8504481e-17 6.1681604e-18)
(-61.676904 2.2711627e-49 -6.1632737e-18)
(-61.633897 -6.1583849e-18 1.7091858e-30)
(-61.590893 -1.2306999e-17 -1.7078299e-30)
(-61.547891 3.4111994e-30 1.7055997e-30)
(-61.504893 1.2287456e-17 6.143728e-18)
(-61.461897 -6.1388417e-18 0)
(-61.418904 6.1339589e-18 0)
(-61.375914 -6.1290741e-18 -6.1290741e-18)
(-61.332927 -6.1241931e-18 -5.6739578e-48)
(-61.289943 1.2238621e-17 6.1193103e-18)
(-61.246961 0 0)
(-61.203983 0 0)
(-61.161007 -1.2209352e-17 -6.104676e-18)
(-61.118034 -1.8080239e-48 -3.6160478e-48)
(-61.075064 1.2189855e-17 6.0949274e-18)
(-61.032097 0 0)
(-60.989133 0 0)
(-60.946171 -1.2160635e-17 -6.0803174e-18)
(-60.903213 -1.8103095e-48 -3.6206189e-48)
(-60.860257 1.2141176e-17 6.0705878e-18)
(-60.817304 0 0)
(-60.774353 0 0)
(-60.731406 -1.2112016e-17 -6.0560081e-18)
(-60.688461 -6.0511492e-18 8.5992003e-34)
(-60.645519 1.209259e-17 6.046295e-18)
(-60.60258 6.0414388e-18 -6.0414388e-18)
(-60.559644 0 1.677098e-30)
(-60.51671 -1.2063467e-17 -1.6757496e-30)
(-60.473779 3.3470919e-30 1.6735459e-30)
(-60.430851 1.2044067e-17 6.0220335e-18)
(-60.387926 -6.0171869e-18 0)
(-60.345003 0 0)
(-60.302083 6.0074935e-18 0)
(-60.259166 -6.0026469e-18 0)
(-60.216252 8.5233927e-34 0)
(-60.17334 5.9929603e-18 -5.9929603e-18)
(-60.130432 -5.9881202e-18 1.6619309e-30)
(-60.087526 5.983279e-18 5.983279e-18)
(-60.044622 5.9784413e-18 0)
(-60.001722 -5.9736026e-18 0)
(-59.958824 -5.9687671e-18 0)
(-59.915929 1.656065e-30 0)
(-59.873037 5.9590981e-18 0)
(-59.830148 -5.9542653e-18 0)
(-59.787261 -1.6520399e-30 0)
(-59.744377 5.9446066e-18 -5.9446066e-18)
(-59.701496 -5.93978e-18 3.2970292e-30)
(-59.658617 5.9349539e-18 5.9349539e-18)
(-59.615741 5.9301297e-18 0)
(-59.572868 -5.925306e-18 0)
(-59.529998 -5.9204841e-18 0)
(-59.48713 1.642662e-30 0)
(-59.444265 5.9108443e-18 0)
(-59.401403 -5.9060267e-18 0)
(-59.358543 8.3861246e-34 0)
(-59.315686 5.8963953e-18 -5.8963953e-18)
(-59.272832 -5.8915812e-18 1.6351376e-30)
(-59.229981 5.886768e-18 5.886768e-18)
(-59.187132 5.8819564e-18 0)
(-59.144286 -5.8771467e-18 0)
(-59.101443 -1.1744678e-17 -5.872339e-18)
(-59.058602 3.260262e-30 1.630131e-30)
(-59.015764 1.1725457e-17 5.8627284e-18)
(-58.972929 -5.8579245e-18 0)
(-58.930096 8.3177852e-34 0)
(-58.887266 1.1696636e-17 0)
(-58.844439 1.6608271e-33 -5.8435158e-18)
(-58.801615 -5.8387155e-18 -1.6221248e-30)
(-58.758793 0 5.8339176e-18)
(-58.715973 5.8291221e-18 0)
(-58.673157 0 0)
(-58.630343 -5.8195362e-18 0)
(-58.587532 0 0)
(-58.544723 0 0)
(-58.501917 0 0)
(-58.459114 -5.800371e-18 0)
(-58.416313 -2.2291197e-49 -5.7955835e-18)
(-58.373515 5.7907986e-18 8.2292197e-34)
(-58.33072 0 5.7860157e-18)
(-58.287927 5.7812337e-18 0)
(-58.245137 -1.6040056e-30 0)
(-58.202349 -5.7716684e-18 0)
(-58.159564 0 0)
(-58.116782 0 0)
(-58.074003 0 0)
(-58.031226 -5.7525458e-18 0)
(-57.988451 1.5960421e-30 -5.7477726e-18)
(-57.94568 5.7430016e-18 -8.1612961e-34)
(-57.902911 0 5.738231e-18)
(-57.860144 5.7334595e-18 0)
(-57.81738 1.5899281e-30 0)
(-57.774619 -5.7239129e-18 0)
(-57.73186 0 -5.7191406e-18)
(-57.689104 5.7143716e-18 3.1727225e-30)
(-57.646351 -5.7096068e-18 5.7096068e-18)
(-57.6036 3.1698658e-30 0)
(-57.560852 5.7000874e-18 -5.7000874e-18)
(-57.518106 -5.695329e-18 -1.5822889e-30)
(-57.475363 0 5.6905689e-18)
(-57.432622 -5.6858068e-18 0)
(-57.389884 -1.5775128e-30 0)
(-57.347149 5.6762823e-18 -5.6762823e-18)
(-57.304416 0 -5.6715242e-18)
(-57.261686 5.6667708e-18 5.6667708e-18)
(-57.218958 -5.6620215e-18 5.6620215e-18)
(-57.176233 -3.1418251e-30 0)
(-57.13351 5.652527e-18 0)
(-57.09079 -3.135748e-30 0)
(-57.048073 -8.0192191e-34 0)
(-57.005358 1.5664361e-30 5.6382681e-18)
(-56.962646 -8.0057022e-34 -8.0057022e-34)
(-56.919936 -5.6287584e-18 -1.1257517e-17)
(-56.877229 0 -5.6240089e-18)
(-56.834524 5.6192645e-18 1.1238529e-17)
(-56.791822 -1.5582438e-30 1.1229049e-17)
(-56.749123 -1.5569289e-30 -5.6097866e-18)
(-56.706426 2.2111829e-49 -5.6050483e-18)
(-56.663731 -1.5550938e-30 0)
(-56.62104 0 0)
(-56.57835 -1.1181623e-17 0)
(-56.535663 -1.5511374e-30 0)
(-56.492979 5.5813072e-18 -5.5813072e-18)
(-56.450298 -5.5765595e-18 -1.5492921e-30)
(-56.407619 1.5463911e-30 5.5718178e-18)
(-56.364942 5.5670821e-18 0)
(-56.322268 5.5623494e-18 0)
(-56.279596 1.5432391e-30 0)
(-56.236927 -1.5419225e-30 0)
(-56.19426 5.5481212e-18 0)
(-56.151596 -5.5433579e-18 0)
(-56.108935 -5.5385872e-18 0)
(-56.066276 0 0)
(-56.02362 -5.5290509e-18 0)
(-55.980967 1.5339876e-30 0)
(-55.938316 5.5195574e-18 0)
(-55.895667 0 0)
(-55.853021 0 0)
(-55.810378 0 0)
(-55.767736 -1.1001183e-17 -5.5005913e-18)
(-55.725098 6.104317e-30 3.0521585e-30)
(-55.682462 1.0982071e-17 5.4910355e-18)
(-55.639829 0 0)
(-55.597198 0 0)
(-55.554571 0 5.4767495e-18)
(-55.511945 0 -1.5194751e-30)
(-55.469322 0 7.7695603e-34)
(-55.426702 0 -5.4626627e-18)
(-55.384083 0 -5.4579866e-18)
(-55.341467 -1.0906611e-17 -3.0277739e-30)
(-55.298853 3.027493e-30 1.5137465e-30)
(-55.256242 1.0887841e-17 5.4439203e-18)
(-55.213633 5.4392275e-18 0)
(-55.171027 -5.4345513e-18 0)
(-55.128424 -5.4299077e-18 0)
(-55.085823 1.5072717e-30 0)
(-55.043225 3.0073969e-30 0)
(-55.000629 5.4162754e-18 -5.4162754e-18)
(-54.958034 -5.4118248e-18 3.004743e-30)
(-54.915441 5.4073988e-18 5.4073988e-18)