/*--------------------------------*- C++ -*----------------------------------*\
  =========                 |
  \\      /  F ield         | OpenFOAM: The Open Source CFD Toolbox
   \\    /   O peration     | Website:  https://openfoam.org
    \\  /    A nd           | Version:  7
     \\/     M anipulation  |
\*---------------------------------------------------------------------------*/
FoamFile
{
    version     2.0;
    format      ascii;
    class       surfaceScalarField;
    location    "0.00162";
    object      phi;
}
// * * * * * * * * * * * * * * * * * * * * * * * * * * * * * * * * * * * * * //

dimensions      [1 0 -1 0 0 0 0];

internalField   nonuniform List<scalar> 
4999
(
0.0092403414
0.012301035
0.015361728
0.01842244
0.021483167
0.024543934
0.027604769
0.030665696
0.033726739
0.036787923
0.039849273
0.042910813
0.04597257
0.049034567
0.052096832
0.055159389
0.058222267
0.061285491
0.06434909
0.067413091
0.070477522
0.073542413
0.076607792
0.07967369
0.082740137
0.085807164
0.088874802
0.091943083
0.095012041
0.098081707
0.10115212
0.1042233
0.1072953
0.11036815
0.11344187
0.11651652
0.11959212
0.12266872
0.12574635
0.12882505
0.13190486
0.13498582
0.13806797
0.14115135
0.144236
0.14732196
0.15040928
0.15349799
0.15658814
0.15967977
0.16277293
0.16586765
0.16896399
0.17206198
0.17516167
0.17826311
0.18136633
0.18447138
0.18757831
0.19068717
0.19379798
0.19691081
0.2000257
0.20314268
0.20626181
0.20938312
0.21250667
0.21563249
0.21876062
0.22189112
0.22502402
0.22815936
0.23129719
0.23443755
0.23758048
0.24072601
0.24387419
0.24702505
0.25017864
0.25333498
0.25649412
0.2596561
0.26282094
0.26598867
0.26915934
0.27233298
0.27550961
0.27868926
0.28187197
0.28505776
0.28824665
0.29143868
0.29463386
0.29783223
0.30103379
0.30423857
0.30744659
0.31065787
0.31387242
0.31709025
0.32031139
0.32353584
0.32676361
0.32999472
0.33322916
0.33646694
0.33970808
0.34295256
0.3462004
0.34945159
0.35270613
0.35596402
0.35922524
0.3624898
0.36575769
0.36902889
0.3723034
0.37558119
0.37886226
0.38214658
0.38543415
0.38872493
0.39201891
0.39531606
0.39861637
0.40191979
0.40522631
0.40853589
0.41184851
0.41516412
0.4184827
0.4218042
0.42512859
0.42845583
0.43178588
0.4351187
0.43845423
0.44179244
0.44513328
0.4484767
0.45182265
0.45517107
0.45852192
0.46187513
0.46523066
0.46858844
0.47194841
0.47531053
0.47867471
0.48204091
0.48540905
0.48877907
0.49215091
0.49552449
0.49889975
0.50227661
0.505655
0.50903486
0.5124161
0.51579866
0.51918245
0.52256739
0.52595342
0.52934044
0.53272838
0.53611716
0.53950669
0.54289689
0.54628768
0.54967897
0.55307067
0.5564627
0.55985497
0.56324738
0.56663986
0.5700323
0.57342462
0.57681673
0.58020853
0.58359993
0.58699083
0.59038114
0.59377076
0.5971596
0.60054756
0.60393454
0.60732044
0.61070516
0.61408861
0.61747069
0.62085129
0.62423031
0.62760765
0.6309832
0.63435688
0.63772856
0.64109816
0.64446555
0.64783065
0.65119334
0.65455352
0.65791108
0.66126592
0.66461793
0.667967
0.67131302
0.6746559
0.67799551
0.68133176
0.68466453
0.68799372
0.69131921
0.69464089
0.69795866
0.70127241
0.70458203
0.70788739
0.71118841
0.71448495
0.71777692
0.72106421
0.72434669
0.72762426
0.73089681
0.73416422
0.73742638
0.74068319
0.74393452
0.74718027
0.75042032
0.75365456
0.75688288
0.76010516
0.7633213
0.76653117
0.76973466
0.77293167
0.77612207
0.77930576
0.78248261
0.78565253
0.78881539
0.79197108
0.79511948
0.79826049
0.80139399
0.80451986
0.807638
0.81074828
0.81385061
0.81694485
0.82003091
0.82310866
0.826178
0.82923881
0.83229098
0.83533439
0.83836894
0.84139452
0.84441101
0.8474183
0.85041627
0.85340483
0.85638386
0.85935324
0.86231288
0.86526266
0.86820246
0.87113219
0.87405173
0.87696098
0.87985983
0.88274817
0.88562589
0.8884929
0.89134908
0.89419433
0.89702854
0.89985162
0.90266345
0.90546394
0.90825297
0.91103046
0.9137963
0.91655039
0.91929263
0.92202292
0.92474116
0.92744725
0.9301411
0.93282262
0.93549169
0.93814824
0.94079217
0.94342338
0.94604178
0.94864728
0.95123979
0.95381922
0.95638548
0.95893849
0.96147815
0.96400438
0.9665171
0.96901622
0.97150166
0.97397334
0.97643118
0.9788751
0.98130502
0.98372086
0.98612254
0.98851001
0.99088317
0.99324196
0.99558631
0.99791615
1.0002314
1.002532
1.0048179
1.007089
1.0093453
1.0115867
1.0138131
1.0160245
1.0182209
1.0204021
1.0225681
1.0247189
1.0268544
1.0289746
1.0310794
1.0331687
1.0352426
1.037301
1.0393438
1.041371
1.0433826
1.0453785
1.0473587
1.0493232
1.0512719
1.0532049
1.055122
1.0570232
1.0589086
1.0607781
1.0626317
1.0644693
1.0662911
1.0680968
1.0698866
1.0716604
1.0734182
1.07516
1.0768859
1.0785957
1.0802895
1.0819673
1.0836291
1.085275
1.0869048
1.0885187
1.0901166
1.0916986
1.0932646
1.0948147
1.0963489
1.0978673
1.0993698
1.1008564
1.1023273
1.1037824
1.1052218
1.1066454
1.1080534
1.1094458
1.1108225
1.1121837
1.1135294
1.1148597
1.1161745
1.117474
1.1187581
1.120027
1.1212807
1.1225192
1.1237426
1.124951
1.1261444
1.1273229
1.1284866
1.1296355
1.1307697
1.1318892
1.1329942
1.1340847
1.1351608
1.1362225
1.13727
1.1383033
1.1393225
1.1403276
1.1413189
1.1422963
1.14326
1.1442099
1.1451463
1.1460693
1.1469788
1.147875
1.148758
1.149628
1.1504849
1.1513289
1.1521601
1.1529786
1.1537845
1.1545778
1.1553588
1.1561275
1.156884
1.1576284
1.1583609
1.1590815
1.1597903
1.1604875
1.1611732
1.1618474
1.1625103
1.1631621
1.1638027
1.1644324
1.1650512
1.1656593
1.1662568
1.1668437
1.1674203
1.1679865
1.1685427
1.1690887
1.1696248
1.1701512
1.1706678
1.1711748
1.1716724
1.1721606
1.1726396
1.1731095
1.1735704
1.1740224
1.1744657
1.1749003
1.1753263
1.175744
1.1761534
1.1765545
1.1769476
1.1773328
1.1777101
1.1780797
1.1784416
1.1787961
1.1791432
1.1794829
1.1798156
1.1801411
1.1804598
1.1807715
1.1810766
1.181375
1.1816669
1.1819524
1.1822316
1.1825046
1.1827715
1.1830324
1.1832874
1.1835367
1.1837802
1.1840182
1.1842506
1.1844777
1.1846995
1.184916
1.1851275
1.1853339
1.1855355
1.1857322
1.1859242
1.1861115
1.1862943
1.1864726
1.1866465
1.1868161
1.1869816
1.1871429
1.1873001
1.1874534
1.1876028
1.1877484
1.1878903
1.1880286
1.1881632
1.1882944
1.1884222
1.1885466
1.1886677
1.1887857
1.1889005
1.1890122
1.189121
1.1892268
1.1893297
1.1894299
1.1895273
1.189622
1.1897142
1.1898037
1.1898908
1.1899755
1.1900578
1.1901377
1.1902154
1.1902909
1.1903643
1.1904355
1.1905047
1.1905718
1.1906371
1.1907004
1.1907618
1.1908215
1.1908794
1.1909356
1.1909901
1.1910429
1.1910942
1.1911439
1.1911922
1.1912389
1.1912842
1.1913282
1.1913707
1.191412
1.191452
1.1914907
1.1915283
1.1915646
1.1915998
1.1916339
1.1916669
1.1916988
1.1917297
1.1917597
1.1917886
1.1918166
1.1918438
1.19187
1.1918953
1.1919199
1.1919436
1.1919665
1.1919887
1.1920101
1.1920308
1.1920508
1.1920702
1.1920888
1.1921069
1.1921243
1.1921411
1.1921574
1.1921731
1.1921882
1.1922028
1.1922169
1.1922305
1.1922437
1.1922563
1.1922686
1.1922804
1.1922917
1.1923027
1.1923132
1.1923234
1.1923332
1.1923427
1.1923518
1.1923606
1.192369
1.1923772
1.192385
1.1923926
1.1923999
1.1924069
1.1924136
1.1924201
1.1924263
1.1924323
1.1924381
1.1924436
1.192449
1.1924541
1.192459
1.1924638
1.1924683
1.1924727
1.1924769
1.192481
1.1924848
1.1924885
1.1924921
1.1924956
1.1924989
1.192502
1.192505
1.192508
1.1925107
1.1925134
1.192516
1.1925184
1.1925208
1.192523
1.1925252
1.1925273
1.1925293
1.1925311
1.1925329
1.1925347
1.1925363
1.1925379
1.1925394
1.1925409
1.1925423
1.1925436
1.1925448
1.192546
1.1925472
1.1925483
1.1925493
1.1925503
1.1925512
1.1925521
1.192553
1.1925538
1.1925546
1.1925553
1.192556
1.1925566
1.1925573
1.1925579
1.1925584
1.1925589
1.1925594
1.1925599
1.1925604
1.1925608
1.1925612
1.1925615
1.1925619
1.1925622
1.1925625
1.1925628
1.192563
1.1925633
1.1925635
1.1925637
1.1925639
1.192564
1.1925642
1.1925643
1.1925644
1.1925645
1.1925646
1.1925647
1.1925648
1.1925648
1.1925649
1.1925649
1.1925649
1.192565
1.192565
1.192565
1.1925649
1.1925649
1.1925649
1.1925649
1.1925648
1.1925648
1.1925647
1.1925647
1.1925646
1.1925646
1.1925645
1.1925644
1.1925643
1.1925642
1.1925642
1.1925641
1.192564
1.1925639
1.1925638
1.1925637
1.1925636
1.1925634
1.1925633
1.1925632
1.1925631
1.192563
1.1925629
1.1925628
1.1925627
1.1925626
1.1925624
1.1925623
1.1925622
1.1925621
1.192562
1.1925618
1.1925617
1.1925616
1.1925615
1.1925614
1.1925613
1.1925611
1.192561
1.1925609
1.1925608
1.1925607
1.1925606
1.1925605
1.1925604
1.1925603
1.1925602
1.1925601
1.19256
1.1925599
1.1925598
1.1925597
1.1925596
1.1925595
1.1925595
1.1925594
1.1925593
1.1925593
1.1925592
1.1925591
1.1925591
1.192559
1.192559
1.192559
1.1925589
1.1925589
1.1925588
1.1925588
1.1925588
1.1925588
1.1925587
1.1925587
1.1925587
1.1925587
1.1925587
1.1925586
1.1925586
1.1925586
1.1925586
1.1925586
1.1925586
1.1925586
1.1925585
1.1925585
1.1925585
1.1925585
1.1925585
1.1925584
1.1925584
1.1925584
1.1925584
1.1925584
1.1925583
1.1925583
1.1925583
1.1925582
1.1925582
1.1925582
1.1925581
1.1925581
1.192558
1.192558
1.1925579
1.1925579
1.1925578
1.1925578
1.1925577
1.1925576
1.1925576
1.1925575
1.1925575
1.1925574
1.1925573
1.1925573
1.1925572
1.1925571
1.1925571
1.192557
1.1925569
1.1925568
1.1925568
1.1925567
1.1925566
1.1925565
1.1925565
1.1925564
1.1925563
1.1925562
1.1925562
1.1925561
1.192556
1.1925559
1.1925559
1.1925558
1.1925557
1.1925556
1.1925555
1.1925554
1.1925554
1.1925553
1.1925552
1.1925551
1.192555
1.192555
1.1925549
1.1925548
1.1925547
1.1925546
1.1925545
1.1925545
1.1925544
1.1925543
1.1925542
1.1925541
1.192554
1.192554
1.1925539
1.1925538
1.1925537
1.1925537
1.1925536
1.1925535
1.1925534
1.1925534
1.1925533
1.1925532
1.1925531
1.1925531
1.192553
1.1925529
1.1925529
1.1925528
1.1925527
1.1925527
1.1925526
1.1925526
1.1925525
1.1925525
1.1925524
1.1925524
1.1925523
1.1925523
1.1925522
1.1925522
1.1925521
1.1925521
1.192552
1.192552
1.1925519
1.1925519
1.1925518
1.1925518
1.1925517
1.1925517
1.1925517
1.1925516
1.1925516
1.1925515
1.1925515
1.1925514
1.1925514
1.1925513
1.1925513
1.1925512
1.1925512
1.1925511
1.1925511
1.192551
1.192551
1.1925509
1.1925509
1.1925508
1.1925508
1.1925507
1.1925507
1.1925506
1.1925506
1.1925505
1.1925504
1.1925504
1.1925503
1.1925502
1.1925502
1.1925501
1.19255
1.19255
1.1925499
1.1925498
1.1925498
1.1925497
1.1925496
1.1925496
1.1925495
1.1925494
1.1925494
1.1925493
1.1925492
1.1925492
1.1925491
1.192549
1.192549
1.1925489
1.1925488
1.1925488
1.1925487
1.1925486
1.1925486
1.1925485
1.1925484
1.1925484
1.1925483
1.1925482
1.1925482
1.1925481
1.1925481
1.192548
1.1925479
1.1925479
1.1925478
1.1925478
1.1925477
1.1925476
1.1925476
1.1925475
1.1925475
1.1925474
1.1925474
1.1925473
1.1925473
1.1925472
1.1925472
1.1925471
1.1925471
1.192547
1.192547
1.1925469
1.1925469
1.1925468
1.1925468
1.1925467
1.1925467
1.1925466
1.1925466
1.1925465
1.1925465
1.1925464
1.1925464
1.1925463
1.1925463
1.1925462
1.1925462
1.1925461
1.1925461
1.192546
1.192546
1.1925459
1.1925459
1.1925458
1.1925458
1.1925457
1.1925457
1.1925456
1.1925456
1.1925455
1.1925455
1.1925454
1.1925454
1.1925453
1.1925453
1.1925452
1.1925452
1.1925451
1.1925451
1.192545
1.192545
1.1925449
1.1925449
1.1925448
1.1925448
1.1925447
1.1925447
1.1925446
1.1925446
1.1925445
1.1925445
1.1925444
1.1925444
1.1925443
1.1925443
1.1925442
1.1925442
1.1925441
1.1925441
1.192544
1.192544
1.1925439
1.1925439
1.1925438
1.1925438
1.1925437
1.1925437
1.1925436
1.1925436
1.1925435
1.1925434
1.1925434
1.1925433
1.1925433
1.1925432
1.1925432
1.1925431
1.1925431
1.192543
1.192543
1.1925429
1.1925429
1.1925428
1.1925428
1.1925427
1.1925427
1.1925426
1.1925426
1.1925425
1.1925425
1.1925424
1.1925424
1.1925423
1.1925423
1.1925422
1.1925422
1.1925422
1.1925421
1.1925421
1.192542
1.192542
1.1925419
1.1925419
1.1925418
1.1925418
1.1925417
1.1925417
1.1925417
1.1925416
1.1925416
1.1925415
1.1925415
1.1925415
1.1925414
1.1925414
1.1925413
1.1925413
1.1925413
1.1925412
1.1925412
1.1925412
1.1925411
1.1925411
1.1925411
1.192541
1.192541
1.192541
1.1925409
1.1925409
1.1925409
1.1925408
1.1925408
1.1925408
1.1925407
1.1925407
1.1925407
1.1925406
1.1925406
1.1925406
1.1925405
1.1925405
1.1925405
1.1925405
1.1925404
1.1925404
1.1925403
1.1925403
1.1925403
1.1925402
1.1925402
1.1925402
1.1925401
1.1925401
1.1925401
1.19254
1.19254
1.19254
1.1925399
1.1925399
1.1925399
1.1925398
1.1925398
1.1925397
1.1925397
1.1925397
1.1925396
1.1925396
1.1925395
1.1925395
1.1925394
1.1925394
1.1925394
1.1925393
1.1925393
1.1925392
1.1925392
1.1925391
1.1925391
1.192539
1.192539
1.1925389
1.1925389
1.1925388
1.1925388
1.1925387
1.1925387
1.1925386
1.1925386
1.1925385
1.1925385
1.1925384
1.1925384
1.1925383
1.1925383
1.1925382
1.1925382
1.1925381
1.1925381
1.192538
1.1925379
1.1925379
1.1925378
1.1925378
1.1925377
1.1925377
1.1925376
1.1925375
1.1925375
1.1925374
1.1925374
1.1925373
1.1925373
1.1925372
1.1925372
1.1925371
1.192537
1.192537
1.1925369
1.1925369
1.1925368
1.1925368
1.1925367
1.1925366
1.1925366
1.1925365
1.1925365
1.1925364
1.1925363
1.1925363
1.1925362
1.1925362
1.1925361
1.1925361
1.192536
1.1925359
1.1925359
1.1925358
1.1925358
1.1925357
1.1925356
1.1925356
1.1925355
1.1925355
1.1925354
1.1925354
1.1925353
1.1925353
1.1925352
1.1925352
1.1925351
1.1925351
1.192535
1.192535
1.1925349
1.1925349
1.1925348
1.1925348
1.1925347
1.1925347
1.1925346
1.1925346
1.1925346
1.1925345
1.1925345
1.1925344
1.1925344
1.1925343
1.1925343
1.1925343
1.1925342
1.1925342
1.1925342
1.1925341
1.1925341
1.192534
1.192534
1.192534
1.1925339
1.1925339
1.1925339
1.1925338
1.1925338
1.1925338
1.1925337
1.1925337
1.1925337
1.1925337
1.1925336
1.1925336
1.1925336
1.1925335
1.1925335
1.1925335
1.1925334
1.1925334
1.1925334
1.1925334
1.1925333
1.1925333
1.1925333
1.1925332
1.1925332
1.1925332
1.1925332
1.1925331
1.1925331
1.1925331
1.192533
1.192533
1.192533
1.1925329
1.1925329
1.1925329
1.1925328
1.1925328
1.1925327
1.1925327
1.1925327
1.1925326
1.1925326
1.1925326
1.1925325
1.1925325
1.1925324
1.1925324
1.1925324
1.1925323
1.1925323
1.1925322
1.1925322
1.1925322
1.1925321
1.1925321
1.192532
1.192532
1.1925319
1.1925319
1.1925319
1.1925318
1.1925318
1.1925317
1.1925317
1.1925316
1.1925316
1.1925315
1.1925315
1.1925315
1.1925314
1.1925314
1.1925313
1.1925313
1.1925313
1.1925312
1.1925312
1.1925311
1.1925311
1.192531
1.192531
1.192531
1.1925309
1.1925309
1.1925308
1.1925308
1.1925308
1.1925307
1.1925307
1.1925306
1.1925306
1.1925306
1.1925305
1.1925305
1.1925305
1.1925304
1.1925304
1.1925304
1.1925303
1.1925303
1.1925303
1.1925302
1.1925302
1.1925302
1.1925301
1.1925301
1.1925301
1.19253
1.19253
1.19253
1.19253
1.1925299
1.1925299
1.1925299
1.1925298
1.1925298
1.1925298
1.1925297
1.1925297
1.1925297
1.1925296
1.1925296
1.1925296
1.1925296
1.1925295
1.1925295
1.1925295
1.1925294
1.1925294
1.1925294
1.1925293
1.1925293
1.1925293
1.1925292
1.1925292
1.1925292
1.1925291
1.1925291
1.1925291
1.192529
1.192529
1.192529
1.1925289
1.1925289
1.1925289
1.1925288
1.1925288
1.1925288
1.1925287
1.1925287
1.1925287
1.1925286
1.1925286
1.1925285
1.1925285
1.1925285
1.1925284
1.1925284
1.1925284
1.1925283
1.1925283
1.1925282
1.1925282
1.1925282
1.1925281
1.1925281
1.192528
1.192528
1.192528
1.1925279
1.1925279
1.1925278
1.1925278
1.1925277
1.1925277
1.1925276
1.1925276
1.1925276
1.1925275
1.1925275
1.1925274
1.1925274
1.1925273
1.1925273
1.1925272
1.1925272
1.1925272
1.1925271
1.1925271
1.192527
1.192527
1.192527
1.1925269
1.1925269
1.1925268
1.1925268
1.1925267
1.1925267
1.1925267
1.1925266
1.1925266
1.1925265
1.1925265
1.1925265
1.1925264
1.1925264
1.1925264
1.1925263
1.1925263
1.1925262
1.1925262
1.1925262
1.1925261
1.1925261
1.1925261
1.192526
1.192526
1.192526
1.1925259
1.1925259
1.1925259
1.1925258
1.1925258
1.1925257
1.1925257
1.1925257
1.1925256
1.1925256
1.1925256
1.1925255
1.1925255
1.1925255
1.1925254
1.1925254
1.1925254
1.1925253
1.1925253
1.1925253
1.1925252
1.1925252
1.1925252
1.1925251
1.1925251
1.1925251
1.192525
1.192525
1.192525
1.1925249
1.1925249
1.1925249
1.1925248
1.1925248
1.1925248
1.1925247
1.1925247
1.1925247
1.1925246
1.1925246
1.1925246
1.1925245
1.1925245
1.1925245
1.1925244
1.1925244
1.1925244
1.1925243
1.1925243
1.1925243
1.1925242
1.1925242
1.1925241
1.1925241
1.1925241
1.192524
1.192524
1.192524
1.1925239
1.1925239
1.1925239
1.1925238
1.1925238
1.1925238
1.1925237
1.1925237
1.1925236
1.1925236
1.1925236
1.1925235
1.1925235
1.1925235
1.1925234
1.1925234
1.1925234
1.1925233
1.1925233
1.1925233
1.1925232
1.1925232
1.1925232
1.1925231
1.1925231
1.192523
1.192523
1.192523
1.1925229
1.1925229
1.1925229
1.1925228
1.1925228
1.1925228
1.1925227
1.1925227
1.1925227
1.1925226
1.1925226
1.1925226
1.1925225
1.1925225
1.1925225
1.1925224
1.1925224
1.1925224
1.1925223
1.1925223
1.1925223
1.1925223
1.1925222
1.1925222
1.1925222
1.1925221
1.1925221
1.1925221
1.1925221
1.192522
1.192522
1.192522
1.1925219
1.1925219
1.1925219
1.1925219
1.1925218
1.1925218
1.1925218
1.1925218
1.1925217
1.1925217
1.1925217
1.1925217
1.1925216
1.1925216
1.1925216
1.1925216
1.1925215
1.1925215
1.1925215
1.1925215
1.1925214
1.1925214
1.1925214
1.1925214
1.1925214
1.1925213
1.1925213
1.1925213
1.1925213
1.1925212
1.1925212
1.1925212
1.1925212
1.1925211
1.1925211
1.1925211
1.192521
1.192521
1.192521
1.192521
1.1925209
1.1925209
1.1925209
1.1925209
1.1925208
1.1925208
1.1925208
1.1925208
1.1925207
1.1925207
1.1925207
1.1925206
1.1925206
1.1925206
1.1925205
1.1925205
1.1925205
1.1925204
1.1925204
1.1925204
1.1925203
1.1925203
1.1925203
1.1925202
1.1925202
1.1925201
1.1925201
1.19252
1.19252
1.1925199
1.1925199
1.1925199
1.1925198
1.1925198
1.1925197
1.1925197
1.1925196
1.1925196
1.1925195
1.1925195
1.1925194
1.1925194
1.1925193
1.1925193
1.1925192
1.1925191
1.1925191
1.192519
1.192519
1.1925189
1.1925189
1.1925188
1.1925187
1.1925187
1.1925186
1.1925186
1.1925185
1.1925184
1.1925184
1.1925183
1.1925183
1.1925182
1.1925181
1.1925181
1.192518
1.192518
1.1925179
1.1925178
1.1925178
1.1925177
1.1925176
1.1925176
1.1925175
1.1925174
1.1925174
1.1925173
1.1925172
1.1925172
1.1925171
1.1925171
1.192517
1.1925169
1.1925169
1.1925168
1.1925168
1.1925167
1.1925167
1.1925166
1.1925165
1.1925165
1.1925164
1.1925164
1.1925163
1.1925163
1.1925162
1.1925162
1.1925161
1.1925161
1.192516
1.192516
1.1925159
1.1925159
1.1925158
1.1925158
1.1925157
1.1925157
1.1925156
1.1925156
1.1925155
1.1925155
1.1925155
1.1925154
1.1925154
1.1925154
1.1925153
1.1925153
1.1925152
1.1925152
1.1925152
1.1925151
1.1925151
1.1925151
1.192515
1.192515
1.192515
1.1925149
1.1925149
1.1925149
1.1925148
1.1925148
1.1925148
1.1925147
1.1925147
1.1925147
1.1925146
1.1925146
1.1925146
1.1925146
1.1925145
1.1925145
1.1925145
1.1925145
1.1925144
1.1925144
1.1925144
1.1925144
1.1925143
1.1925143
1.1925143
1.1925142
1.1925142
1.1925142
1.1925142
1.1925141
1.1925141
1.1925141
1.1925141
1.192514
1.192514
1.192514
1.192514
1.1925139
1.1925139
1.1925139
1.1925139
1.1925138
1.1925138
1.1925138
1.1925137
1.1925137
1.1925137
1.1925137
1.1925136
1.1925136
1.1925136
1.1925135
1.1925135
1.1925135
1.1925135
1.1925134
1.1925134
1.1925134
1.1925133
1.1925133
1.1925133
1.1925133
1.1925132
1.1925132
1.1925132
1.1925131
1.1925131
1.1925131
1.192513
1.192513
1.192513
1.192513
1.1925129
1.1925129
1.1925129
1.1925128
1.1925128
1.1925127
1.1925127
1.1925127
1.1925127
1.1925126
1.1925126
1.1925126
1.1925125
1.1925125
1.1925125
1.1925124
1.1925124
1.1925124
1.1925123
1.1925123
1.1925122
1.1925122
1.1925122
1.1925121
1.1925121
1.1925121
1.192512
1.192512
1.192512
1.1925119
1.1925119
1.1925119
1.1925118
1.1925118
1.1925117
1.1925117
1.1925117
1.1925116
1.1925116
1.1925116
1.1925115
1.1925115
1.1925115
1.1925114
1.1925114
1.1925113
1.1925113
1.1925113
1.1925112
1.1925112
1.1925112
1.1925111
1.1925111
1.192511
1.192511
1.192511
1.1925109
1.1925109
1.1925109
1.1925108
1.1925108
1.1925107
1.1925107
1.1925107
1.1925106
1.1925106
1.1925106
1.1925105
1.1925105
1.1925104
1.1925104
1.1925104
1.1925103
1.1925103
1.1925103
1.1925102
1.1925102
1.1925102
1.1925101
1.1925101
1.19251
1.19251
1.19251
1.1925099
1.1925099
1.1925098
1.1925098
1.1925098
1.1925097
1.1925097
1.1925097
1.1925096
1.1925096
1.1925095
1.1925095
1.1925095
1.1925094
1.1925094
1.1925094
1.1925093
1.1925093
1.1925093
1.1925092
1.1925092
1.1925091
1.1925091
1.1925091
1.192509
1.192509
1.192509
1.1925089
1.1925089
1.1925089
1.1925088
1.1925088
1.1925088
1.1925087
1.1925087
1.1925086
1.1925086
1.1925086
1.1925085
1.1925085
1.1925084
1.1925084
1.1925084
1.1925083
1.1925083
1.1925083
1.1925082
1.1925082
1.1925081
1.1925081
1.1925081
1.192508
1.192508
1.1925079
1.1925079
1.1925079
1.1925078
1.1925078
1.1925077
1.1925077
1.1925077
1.1925076
1.1925076
1.1925075
1.1925075
1.1925075
1.1925074
1.1925074
1.1925073
1.1925073
1.1925072
1.1925072
1.1925071
1.1925071
1.1925071
1.192507
1.192507
1.1925069
1.1925069
1.1925068
1.1925068
1.1925068
1.1925067
1.1925067
1.1925066
1.1925066
1.1925065
1.1925065
1.1925064
1.1925064
1.1925063
1.1925063
1.1925062
1.1925062
1.1925062
1.1925061
1.1925061
1.192506
1.192506
1.1925059
1.1925059
1.1925058
1.1925058
1.1925058
1.1925057
1.1925057
1.1925056
1.1925056
1.1925055
1.1925055
1.1925054
1.1925054
1.1925053
1.1925053
1.1925053
1.1925052
1.1925052
1.1925051
1.1925051
1.192505
1.192505
1.192505
1.1925049
1.1925049
1.1925048
1.1925048
1.1925047
1.1925047
1.1925047
1.1925046
1.1925046
1.1925045
1.1925045
1.1925045
1.1925044
1.1925044
1.1925043
1.1925043
1.1925042
1.1925042
1.1925042
1.1925041
1.1925041
1.192504
1.192504
1.192504
1.1925039
1.1925039
1.1925039
1.1925038
1.1925038
1.1925037
1.1925037
1.1925037
1.1925036
1.1925036
1.1925035
1.1925035
1.1925035
1.1925034
1.1925034
1.1925033
1.1925033
1.1925033
1.1925032
1.1925032
1.1925031
1.1925031
1.192503
1.192503
1.1925029
1.1925029
1.1925029
1.1925028
1.1925028
1.1925027
1.1925027
1.1925026
1.1925026
1.1925026
1.1925025
1.1925025
1.1925024
1.1925024
1.1925023
1.1925023
1.1925022
1.1925022
1.1925021
1.1925021
1.192502
1.192502
1.1925019
1.1925019
1.1925018
1.1925018
1.1925017
1.1925017
1.1925016
1.1925015
1.1925015
1.1925014
1.1925014
1.1925013
1.1925013
1.1925012
1.1925012
1.1925011
1.192501
1.192501
1.1925009
1.1925009
1.1925008
1.1925008
1.1925007
1.1925006
1.1925006
1.1925005
1.1925005
1.1925004
1.1925003
1.1925003
1.1925002
1.1925002
1.1925001
1.1925
1.1925
1.1924999
1.1924999
1.1924998
1.1924998
1.1924997
1.1924996
1.1924996
1.1924995
1.1924995
1.1924994
1.1924993
1.1924993
1.1924992
1.1924992
1.1924991
1.1924991
1.192499
1.1924989
1.1924989
1.1924988
1.1924988
1.1924987
1.1924986
1.1924986
1.1924985
1.1924985
1.1924984
1.1924984
1.1924983
1.1924983
1.1924982
1.1924982
1.1924981
1.192498
1.192498
1.1924979
1.1924979
1.1924978
1.1924978
1.1924977
1.1924977
1.1924976
1.1924976
1.1924975
1.1924975
1.1924974
1.1924974
1.1924973
1.1924973
1.1924972
1.1924972
1.1924971
1.1924971
1.192497
1.192497
1.1924969
1.1924969
1.1924968
1.1924968
1.1924967
1.1924967
1.1924966
1.1924966
1.1924965
1.1924965
1.1924965
1.1924964
1.1924964
1.1924963
1.1924963
1.1924962
1.1924962
1.1924961
1.1924961
1.192496
1.192496
1.1924959
1.1924959
1.1924958
1.1924958
1.1924957
1.1924957
1.1924956
1.1924956
1.1924956
1.1924955
1.1924955
1.1924954
1.1924954
1.1924953
1.1924953
1.1924952
1.1924952
1.1924951
1.1924951
1.192495
1.192495
1.1924949
1.1924949
1.1924948
1.1924948
1.1924947
1.1924947
1.1924946
1.1924946
1.1924945
1.1924945
1.1924944
1.1924944
1.1924943
1.1924943
1.1924942
1.1924942
1.1924941
1.192494
1.192494
1.1924939
1.1924939
1.1924938
1.1924938
1.1924937
1.1924937
1.1924936
1.1924935
1.1924935
1.1924934
1.1924934
1.1924933
1.1924932
1.1924932
1.1924931
1.192493
1.192493
1.1924929
1.1924929
1.1924928
1.1924927
1.1924927
1.1924926
1.1924925
1.1924925
1.1924924
1.1924924
1.1924923
1.1924922
1.1924922
1.1924921
1.192492
1.192492
1.1924919
1.1924918
1.1924917
1.1924917
1.1924916
1.1924915
1.1924915
1.1924914
1.1924913
1.1924913
1.1924912
1.1924911
1.192491
1.192491
1.1924909
1.1924908
1.1924907
1.1924907
1.1924906
1.1924905
1.1924904
1.1924904
1.1924903
1.1924902
1.1924901
1.1924901
1.19249
1.1924899
1.1924898
1.1924897
1.1924897
1.1924896
1.1924895
1.1924894
1.1924894
1.1924893
1.1924892
1.1924891
1.192489
1.192489
1.1924889
1.1924888
1.1924887
1.1924886
1.1924886
1.1924885
1.1924884
1.1924883
1.1924882
1.1924881
1.1924881
1.192488
1.1924879
1.1924878
1.1924877
1.1924877
1.1924876
1.1924875
1.1924874
1.1924873
1.1924872
1.1924872
1.1924871
1.192487
1.1924869
1.1924868
1.1924867
1.1924867
1.1924866
1.1924865
1.1924864
1.1924863
1.1924862
1.1924861
1.192486
1.1924859
1.1924859
1.1924858
1.1924857
1.1924856
1.1924855
1.1924854
1.1924853
1.1924853
1.1924852
1.1924851
1.192485
1.1924849
1.1924848
1.1924847
1.1924847
1.1924846
1.1924845
1.1924844
1.1924843
1.1924842
1.1924841
1.192484
1.1924839
1.1924838
1.1924837
1.1924836
1.1924835
1.1924834
1.1924834
1.1924833
1.1924832
1.1924831
1.192483
1.1924829
1.1924828
1.1924827
1.1924826
1.1924825
1.1924824
1.1924823
1.1924822
1.1924821
1.192482
1.1924819
1.1924818
1.1924817
1.1924816
1.1924815
1.1924814
1.1924813
1.1924812
1.1924811
1.192481
1.1924809
1.1924808
1.1924807
1.1924806
1.1924805
1.1924804
1.1924802
1.1924801
1.19248
1.1924799
1.1924798
1.1924797
1.1924796
1.1924795
1.1924794
1.1924793
1.1924792
1.1924791
1.192479
1.1924788
1.1924787
1.1924786
1.1924785
1.1924784
1.1924783
1.1924781
1.192478
1.1924779
1.1924778
1.1924777
1.1924776
1.1924774
1.1924773
1.1924772
1.1924771
1.192477
1.1924768
1.1924767
1.1924766
1.1924764
1.1924763
1.1924762
1.192476
1.1924759
1.1924758
1.1924757
1.1924755
1.1924754
1.1924753
1.1924752
1.192475
1.1924749
1.1924748
1.1924746
1.1924745
1.1924744
1.1924742
1.1924741
1.1924739
1.1924738
1.1924736
1.1924735
1.1924733
1.1924732
1.192473
1.1924729
1.1924727
1.1924726
1.1924724
1.1924723
1.1924722
1.192472
1.1924719
1.1924717
1.1924716
1.1924714
1.1924713
1.1924711
1.192471
1.1924708
1.1924707
1.1924705
1.1924703
1.1924702
1.19247
1.1924698
1.1924697
1.1924695
1.1924693
1.1924691
1.1924689
1.1924688
1.1924686
1.1924684
1.1924682
1.192468
1.1924678
1.1924676
1.1924674
1.1924673
1.1924671
1.1924669
1.1924667
1.1924665
1.1924663
1.1924661
1.1924659
1.1924657
1.1924655
1.1924653
1.192465
1.1924648
1.1924646
1.1924644
1.1924642
1.192464
1.1924637
1.1924635
1.1924633
1.1924631
1.1924628
1.1924626
1.1924623
1.1924621
1.1924619
1.1924616
1.1924614
1.1924611
1.1924609
1.1924606
1.1924604
1.1924601
1.1924599
1.1924596
1.1924593
1.1924591
1.1924588
1.1924585
1.1924582
1.1924579
1.1924576
1.1924574
1.1924571
1.1924568
1.1924565
1.1924562
1.1924559
1.1924555
1.1924552
1.1924549
1.1924546
1.1924543
1.1924539
1.1924536
1.1924532
1.1924529
1.1924526
1.1924522
1.1924518
1.1924515
1.1924511
1.1924507
1.1924503
1.19245
1.1924496
1.1924492
1.1924488
1.1924484
1.192448
1.1924476
1.1924472
1.1924468
1.1924463
1.1924459
1.1924455
1.192445
1.1924445
1.1924441
1.1924436
1.1924431
1.1924426
1.1924421
1.1924417
1.1924412
1.1924407
1.1924402
1.1924397
1.1924392
1.1924387
1.1924382
1.1924377
1.1924372
1.1924367
1.1924361
1.1924356
1.1924351
1.1924346
1.1924341
1.1924336
1.1924331
1.1924327
1.1924322
1.1924318
1.1924314
1.1924311
1.1924307
1.1924304
1.1924301
1.1924298
1.1924296
1.1924294
1.1924293
1.1924292
1.1924291
1.192429
1.192429
1.192429
1.1924289
1.192429
1.192429
1.1924291
1.1924293
1.1924294
1.1924294
1.1924295
1.1924296
1.1924296
1.1924296
1.1924295
1.1924295
1.1924294
1.1924293
1.1924289
1.1924284
1.1924278
1.1924271
1.1924263
1.1924255
1.1924246
1.1924237
1.1924227
1.1924216
1.1924205
1.1924193
1.1924181
1.1924169
1.1924157
1.1924145
1.1924134
1.1924124
1.1924114
1.1924105
1.1924096
1.1924089
1.1924083
1.1924077
1.1924072
1.1924068
1.1924063
1.1924059
1.1924055
1.1924051
1.1924045
1.1924038
1.1924028
1.1924012
1.1923977
1.1923893
1.1923685
1.1923159
1.1921838
1.1918518
1.1910299
1.1891305
1.1865813
1.1834949
1.1799574
1.1760748
1.1719664
1.1677555
1.1635599
1.1594849
1.1556181
1.1520268
1.1487573
1.1458358
1.1432708
1.1410561
1.1391741
1.1375988
1.1362994
1.1352427
1.134395
1.133724
1.1331998
1.1327956
1.1324879
1.1322569
1.1320856
1.1319606
1.1318706
1.131807
1.1317629
1.1317331
1.1317136
1.1317013
1.1316942
1.1316905
1.1316889
1.1316886
1.1316887
1.1316901
1.131693
1.1316957
1.1316983
1.1317006
1.1317027
1.1317048
1.1317066
1.1317084
1.13171
1.1317116
1.131713
1.1317144
1.1317158
1.1317171
1.1317184
1.1317196
1.1317209
1.1317222
1.1317236
1.131725
1.1317264
1.1317279
1.1317295
1.1317312
1.1317329
1.1317346
1.1317365
1.1317383
1.1317402
1.1317421
1.131744
1.1317459
1.1317478
1.1317496
1.1317514
1.1317531
1.1317548
1.1317565
1.131758
1.1317595
1.1317609
1.1317623
1.1317636
1.1317648
1.1317659
1.131767
1.131768
1.131769
1.13177
1.1317708
1.1317717
1.1317725
1.1317733
1.131774
1.1317747
1.1317754
1.131776
1.1317767
1.1317773
1.1317779
1.1317784
1.131779
1.1317796
1.1317801
1.1317806
1.1317811
1.1317816
1.1317821
1.1317826
1.131783
1.1317835
1.1317839
1.1317844
1.1317848
1.1317852
1.1317856
1.131786
1.1317864
1.1317868
1.1317872
1.1317876
1.131788
1.1317883
1.1317887
1.131789
1.1317894
1.1317897
1.1317901
1.1317904
1.1317907
1.131791
1.1317914
1.1317917
1.131792
1.1317923
1.1317926
1.1317929
1.1317932
1.1317935
1.1317937
1.131794
1.1317943
1.1317946
1.1317948
1.1317951
1.1317953
1.1317956
1.1317958
1.1317961
1.1317963
1.1317966
1.1317968
1.1317971
1.1317973
1.1317975
1.1317977
1.131798
1.1317982
1.1317984
1.1317986
1.1317988
1.131799
1.1317992
1.1317994
1.1317997
1.1317999
1.1318
1.1318002
1.1318004
1.1318006
1.1318008
1.131801
1.1318012
1.1318014
1.1318016
1.1318017
1.1318019
1.1318021
1.1318023
1.1318024
1.1318026
1.1318028
1.1318029
1.1318031
1.1318033
1.1318034
1.1318036
1.1318037
1.1318039
1.1318041
1.1318042
1.1318044
1.1318045
1.1318047
1.1318048
1.131805
1.1318051
1.1318052
1.1318054
1.1318055
1.1318057
1.1318058
1.1318059
1.1318061
1.1318062
1.1318063
1.1318065
1.1318066
1.1318067
1.1318069
1.131807
1.1318071
1.1318073
1.1318074
1.1318075
1.1318076
1.1318077
1.1318079
1.131808
1.1318081
1.1318082
1.1318083
1.1318084
1.1318086
1.1318087
1.1318088
1.1318089
1.131809
1.1318091
1.1318092
1.1318094
1.1318095
1.1318096
1.1318097
1.1318098
1.1318099
1.13181
1.1318101
1.1318102
1.1318103
1.1318104
1.1318105
1.1318106
1.1318107
1.1318108
1.1318109
1.131811
1.1318111
1.1318112
1.1318113
1.1318113
1.1318114
1.1318115
1.1318116
1.1318117
1.1318118
1.1318119
1.131812