/*--------------------------------*- C++ -*----------------------------------*\
  =========                 |
  \\      /  F ield         | OpenFOAM: The Open Source CFD Toolbox
   \\    /   O peration     | Website:  https://openfoam.org
    \\  /    A nd           | Version:  7
     \\/     M anipulation  |
\*---------------------------------------------------------------------------*/
FoamFile
{
    version     2.0;
    format      ascii;
    class       volScalarField;
    location    "0.00302";
    object      mag(U);
}
// * * * * * * * * * * * * * * * * * * * * * * * * * * * * * * * * * * * * * //

dimensions      [0 1 -1 0 0 0 0];

internalField   nonuniform List<scalar> 
5000
(
23.099989
23.099989
23.099988
23.099988
23.099988
23.099988
23.099988
23.099988
23.099987
23.099987
23.099987
23.099987
23.099986
23.099986
23.099986
23.099986
23.099985
23.099985
23.099985
23.099985
23.099984
23.099984
23.099984
23.099984
23.099984
23.099983
23.099983
23.099983
23.099983
23.099982
23.099982
23.099982
23.099982
23.099982
23.099981
23.099981
23.099981
23.099981
23.09998
23.09998
23.09998
23.09998
23.099979
23.099979
23.099979
23.099979
23.099979
23.099978
23.099978
23.099978
23.099978
23.099977
23.099977
23.099977
23.099977
23.099977
23.099976
23.099976
23.099976
23.099976
23.099975
23.099975
23.099975
23.099975
23.099974
23.099974
23.099974
23.099974
23.099974
23.099973
23.099973
23.099973
23.099973
23.099972
23.099972
23.099972
23.099972
23.099971
23.099971
23.099971
23.099971
23.099971
23.09997
23.09997
23.09997
23.09997
23.099969
23.099969
23.099969
23.099969
23.099968
23.099968
23.099968
23.099968
23.099968
23.099967
23.099967
23.099967
23.099967
23.099966
23.099966
23.099966
23.099966
23.099965
23.099965
23.099965
23.099965
23.099965
23.099964
23.099964
23.099964
23.099964
23.099963
23.099963
23.099963
23.099963
23.099962
23.099962
23.099962
23.099962
23.099962
23.099961
23.099961
23.099961
23.099961
23.09996
23.09996
23.09996
23.09996
23.09996
23.099959
23.099959
23.099959
23.099959
23.099958
23.099958
23.099958
23.099958
23.099958
23.099957
23.099957
23.099957
23.099957
23.099956
23.099956
23.099956
23.099956
23.099956
23.099956
23.099957
23.099957
23.099955
23.099954
23.099954
23.099954
23.099954
23.099954
23.099953
23.099953
23.099953
23.099953
23.099953
23.099952
23.099952
23.099952
23.099952
23.099951
23.099951
23.099951
23.099951
23.099951
23.09995
23.09995
23.09995
23.09995
23.09995
23.099949
23.099949
23.099949
23.099949
23.099949
23.099948
23.099948
23.099948
23.099948
23.099948
23.099947
23.099947
23.099947
23.099947
23.099947
23.099946
23.099946
23.099946
23.099946
23.099946
23.099945
23.099945
23.099945
23.099945
23.099945
23.099944
23.099944
23.099944
23.099944
23.099944
23.099943
23.099943
23.099943
23.099943
23.099943
23.099943
23.099942
23.099942
23.099942
23.099942
23.099942
23.099941
23.099941
23.099941
23.099941
23.099941
23.09994
23.09994
23.09994
23.09994
23.09994
23.099939
23.099939
23.099939
23.099939
23.099939
23.099939
23.099938
23.099938
23.099938
23.099938
23.099938
23.099937
23.099937
23.099937
23.099937
23.099937
23.099937
23.099936
23.099936
23.099936
23.099936
23.099936
23.099935
23.099935
23.099935
23.099935
23.099935
23.099935
23.099934
23.099934
23.099934
23.099934
23.099934
23.099934
23.099933
23.099933
23.099933
23.099933
23.099933
23.099932
23.099932
23.099932
23.099932
23.099932
23.099932
23.099931
23.099931
23.099931
23.099931
23.099931
23.099931
23.09993
23.09993
23.09993
23.09993
23.09993
23.099929
23.099929
23.099929
23.099929
23.099929
23.099929
23.099928
23.099928
23.099928
23.099928
23.099928
23.099928
23.099927
23.099927
23.099927
23.099927
23.099927
23.099926
23.099926
23.099926
23.099926
23.099926
23.099926
23.099925
23.099925
23.099925
23.099925
23.099925
23.099925
23.099924
23.099924
23.099924
23.099924
23.099924
23.099924
23.099923
23.099923
23.099923
23.099923
23.099923
23.099922
23.099922
23.099922
23.099922
23.099922
23.099922
23.099921
23.099921
23.099921
23.099921
23.099921
23.099921
23.09992
23.09992
23.09992
23.09992
23.09992
23.09992
23.099919
23.099919
23.099919
23.099919
23.099919
23.099919
23.099918
23.099918
23.099918
23.099918
23.099918
23.099917
23.099917
23.099917
23.099917
23.099917
23.099917
23.099916
23.099916
23.099916
23.099916
23.099916
23.099916
23.099915
23.099915
23.099915
23.099915
23.099915
23.099915
23.099914
23.099914
23.099914
23.099914
23.099914
23.099914
23.099913
23.099913
23.099913
23.099913
23.099913
23.099913
23.099912
23.099912
23.099912
23.099912
23.099912
23.099912
23.099911
23.099911
23.099911
23.099911
23.099911
23.099911
23.09991
23.09991
23.09991
23.09991
23.09991
23.09991
23.099909
23.099909
23.099909
23.099909
23.099909
23.099909
23.099908
23.099908
23.099908
23.099908
23.099908
23.099908
23.099907
23.099907
23.099907
23.099907
23.099907
23.099907
23.099906
23.099906
23.099906
23.099906
23.099906
23.099906
23.099905
23.099905
23.099905
23.099905
23.099905
23.099905
23.099904
23.099904
23.099904
23.099904
23.099904
23.099904
23.099903
23.099903
23.099903
23.099903
23.099903
23.099903
23.099902
23.099902
23.099902
23.099902
23.099902
23.099902
23.099901
23.099901
23.099901
23.099901
23.099901
23.099901
23.0999
23.0999
23.0999
23.0999
23.0999
23.0999
23.0999
23.099899
23.099899
23.099899
23.099899
23.099899
23.099899
23.099898
23.099898
23.099898
23.099898
23.099898
23.099898
23.099897
23.099897
23.099897
23.099897
23.099897
23.099897
23.099897
23.099896
23.099896
23.099896
23.099896
23.099896
23.099896
23.099895
23.099895
23.099895
23.099895
23.099895
23.099895
23.099894
23.099894
23.099894
23.099894
23.099894
23.099894
23.099894
23.099893
23.099893
23.099893
23.099893
23.099893
23.099893
23.099892
23.099892
23.099892
23.099892
23.099892
23.099892
23.099892
23.099891
23.099891
23.099891
23.099891
23.099891
23.099891
23.099891
23.09989
23.09989
23.09989
23.09989
23.09989
23.09989
23.099889
23.099889
23.099889
23.099889
23.099889
23.099889
23.099889
23.099888
23.099888
23.099888
23.099888
23.099888
23.099888
23.099888
23.099887
23.099887
23.099887
23.099887
23.099887
23.099887
23.099887
23.099886
23.099886
23.099886
23.099886
23.099886
23.099886
23.099885
23.099885
23.099885
23.099885
23.099885
23.099885
23.099885
23.099884
23.099884
23.099884
23.099884
23.099884
23.099884
23.099884
23.099883
23.099883
23.099883
23.099883
23.099883
23.099883
23.099883
23.099882
23.099882
23.099882
23.099882
23.099882
23.099882
23.099882
23.099881
23.099881
23.099881
23.099881
23.099881
23.099881
23.099881
23.09988
23.09988
23.09988
23.09988
23.09988
23.09988
23.099879
23.099879
23.099879
23.099879
23.099879
23.099879
23.099879
23.099878
23.099878
23.099878
23.099878
23.099878
23.099878
23.099878
23.099877
23.099877
23.099877
23.099877
23.099877
23.099877
23.099877
23.099876
23.099876
23.099876
23.099876
23.099876
23.099876
23.099876
23.099875
23.099875
23.099875
23.099875
23.099875
23.099875
23.099875
23.099874
23.099874
23.099874
23.099874
23.099874
23.099874
23.099874
23.099874
23.099873
23.099873
23.099873
23.099873
23.099873
23.099873
23.099873
23.099872
23.099872
23.099872
23.099872
23.099872
23.099872
23.099872
23.099872
23.099871
23.099871
23.099871
23.099871
23.099871
23.099871
23.099871
23.09987
23.09987
23.09987
23.09987
23.09987
23.09987
23.09987
23.099869
23.099869
23.099869
23.099869
23.099869
23.099869
23.099869
23.099869
23.099868
23.099868
23.099868
23.099868
23.099868
23.099868
23.099868
23.099867
23.099867
23.099867
23.099867
23.099867
23.099867
23.099867
23.099867
23.099866
23.099866
23.099866
23.099866
23.099866
23.099866
23.099866
23.099866
23.099865
23.099865
23.099865
23.099865
23.099865
23.099865
23.099865
23.099865
23.099865
23.099864
23.099864
23.099864
23.099864
23.099864
23.099864
23.099864
23.099864
23.099864
23.099863
23.099863
23.099863
23.099863
23.099863
23.099863
23.099863
23.099863
23.099862
23.099862
23.099862
23.099862
23.099862
23.099862
23.099862
23.099862
23.099861
23.099861
23.099861
23.099861
23.099861
23.099861
23.099861
23.099861
23.099861
23.09986
23.09986
23.09986
23.09986
23.09986
23.09986
23.09986
23.09986
23.09986
23.09986
23.099859
23.099859
23.099859
23.099859
23.099859
23.099859
23.099859
23.099859
23.099859
23.099858
23.099858
23.099858
23.099858
23.099858
23.099858
23.099858
23.099858
23.099858
23.099857
23.099857
23.099857
23.099857
23.099857
23.099857
23.099857
23.099857
23.099857
23.099856
23.099856
23.099856
23.099856
23.099856
23.099856
23.099856
23.099856
23.099856
23.099855
23.099855
23.099855
23.099855
23.099855
23.099855
23.099855
23.099855
23.099855
23.099854
23.099854
23.099854
23.099854
23.099854
23.099854
23.099854
23.099854
23.099854
23.099853
23.099853
23.099853
23.099853
23.099853
23.099853
23.099853
23.099853
23.099853
23.099852
23.099852
23.099852
23.099852
23.099852
23.099852
23.099852
23.099852
23.099852
23.099851
23.099851
23.099851
23.099851
23.099851
23.099851
23.099851
23.099851
23.099851
23.09985
23.09985
23.09985
23.09985
23.09985
23.09985
23.09985
23.09985
23.09985
23.099849
23.099849
23.099849
23.099849
23.099849
23.099849
23.099849
23.099849
23.099849
23.099848
23.099848
23.099848
23.099848
23.099848
23.099848
23.099848
23.099848
23.099848
23.099847
23.099847
23.099847
23.099847
23.099847
23.099847
23.099847
23.099847
23.099846
23.099846
23.099846
23.099846
23.099846
23.099846
23.099846
23.099846
23.099846
23.099845
23.099845
23.099845
23.099845
23.099845
23.099845
23.099845
23.099845
23.099845
23.099844
23.099844
23.099844
23.099844
23.099844
23.099844
23.099844
23.099844
23.099844
23.099843
23.099843
23.099843
23.099843
23.099843
23.099843
23.099843
23.099843
23.099842
23.099842
23.099842
23.099842
23.099842
23.099842
23.099842
23.099842
23.099842
23.099841
23.099841
23.099841
23.099841
23.099841
23.099841
23.099841
23.099841
23.099841
23.09984
23.09984
23.09984
23.09984
23.09984
23.09984
23.09984
23.09984
23.09984
23.09984
23.099839
23.099839
23.099839
23.099839
23.099839
23.099839
23.099839
23.099839
23.099839
23.099838
23.099838
23.099838
23.099838
23.099838
23.099838
23.099838
23.099838
23.099838
23.099838
23.099837
23.099837
23.099837
23.099837
23.099837
23.099837
23.099837
23.099837
23.099837
23.099836
23.099836
23.099836
23.099836
23.099836
23.099836
23.099836
23.099836
23.099836
23.099836
23.099835
23.099835
23.099835
23.099835
23.099835
23.099835
23.099835
23.099835
23.099835
23.099835
23.099835
23.099834
23.099834
23.099834
23.099834
23.099834
23.099834
23.099834
23.099834
23.099834
23.099834
23.099833
23.099833
23.099833
23.099833
23.099833
23.099833
23.099833
23.099833
23.099833
23.099833
23.099833
23.099832
23.099832
23.099832
23.099832
23.099832
23.099832
23.099832
23.099832
23.099832
23.099832
23.099832
23.099831
23.099831
23.099831
23.099831
23.099831
23.099831
23.099831
23.099831
23.099831
23.099831
23.099831
23.09983
23.09983
23.09983
23.09983
23.09983
23.09983
23.09983
23.09983
23.09983
23.09983
23.099829
23.099829
23.099829
23.099829
23.099829
23.099829
23.099829
23.099829
23.099829
23.099829
23.099829
23.099828
23.099828
23.099828
23.099828
23.099828
23.099828
23.099828
23.099828
23.099828
23.099828
23.099827
23.099827
23.099827
23.099827
23.099827
23.099827
23.099827
23.099827
23.099827
23.099827
23.099826
23.099826
23.099826
23.099826
23.099826
23.099826
23.099826
23.099826
23.099826
23.099826
23.099825
23.099825
23.099825
23.099825
23.099825
23.099825
23.099825
23.099825
23.099825
23.099825
23.099824
23.099824
23.099824
23.099824
23.099824
23.099824
23.099824
23.099824
23.099824
23.099824
23.099823
23.099823
23.099823
23.099823
23.099823
23.099823
23.099823
23.099823
23.099823
23.099823
23.099822
23.099822
23.099822
23.099822
23.099822
23.099822
23.099822
23.099822
23.099822
23.099822
23.099821
23.099821
23.099821
23.099821
23.099821
23.099821
23.099821
23.099821
23.099821
23.099821
23.09982
23.09982
23.09982
23.09982
23.09982
23.09982
23.09982
23.09982
23.09982
23.09982
23.099819
23.099819
23.099819
23.099819
23.099819
23.099819
23.099819
23.099819
23.099819
23.099819
23.099818
23.099818
23.099818
23.099818
23.099818
23.099818
23.099818
23.099818
23.099818
23.099818
23.099817
23.099817
23.099817
23.099817
23.099817
23.099817
23.099817
23.099817
23.099817
23.099817
23.099816
23.099816
23.099816
23.099816
23.099816
23.099816
23.099816
23.099816
23.099816
23.099816
23.099816
23.099815
23.099815
23.099815
23.099815
23.099815
23.099815
23.099815
23.099815
23.099815
23.099815
23.099814
23.099814
23.099814
23.099814
23.099814
23.099814
23.099814
23.099814
23.099814
23.099814
23.099814
23.099813
23.099813
23.099813
23.099813
23.099813
23.099813
23.099813
23.099813
23.099813
23.099813
23.099813
23.099812
23.099812
23.099812
23.099812
23.099812
23.099812
23.099812
23.099812
23.099812
23.099812
23.099811
23.099811
23.099811
23.099811
23.099811
23.099811
23.099811
23.099811
23.099811
23.099811
23.099811
23.09981
23.09981
23.09981
23.09981
23.09981
23.09981
23.09981
23.09981
23.09981
23.09981
23.09981
23.099809
23.099809
23.099809
23.099809
23.099809
23.099809
23.099809
23.099809
23.099809
23.099809
23.099808
23.099808
23.099808
23.099808
23.099808
23.099808
23.099808
23.099808
23.099808
23.099808
23.099808
23.099807
23.099807
23.099807
23.099807
23.099807
23.099807
23.099807
23.099807
23.099807
23.099807
23.099807
23.099806
23.099806
23.099806
23.099806
23.099806
23.099806
23.099806
23.099806
23.099806
23.099806
23.099805
23.099805
23.099805
23.099805
23.099805
23.099805
23.099805
23.099805
23.099805
23.099805
23.099805
23.099804
23.099804
23.099804
23.099804
23.099804
23.099804
23.099804
23.099804
23.099804
23.099804
23.099804
23.099803
23.099803
23.099803
23.099803
23.099803
23.099803
23.099803
23.099803
23.099803
23.099803
23.099803
23.099803
23.099803
23.099802
23.099802
23.099802
23.099802
23.099802
23.099802
23.099802
23.099802
23.099802
23.099802
23.099802
23.099802
23.099802
23.099801
23.099801
23.099801
23.099801
23.099801
23.099801
23.099801
23.099801
23.099801
23.099801
23.099801
23.099801
23.099801
23.099801
23.0998
23.0998
23.0998
23.0998
23.0998
23.0998
23.0998
23.0998
23.0998
23.0998
23.0998
23.0998
23.0998
23.0998
23.0998
23.0998
23.0998
23.099799
23.099799
23.099799
23.099799
23.099799
23.099799
23.099799
23.099799
23.099799
23.099799
23.099799
23.099799
23.099799
23.099799
23.099799
23.099799
23.099799
23.099799
23.099799
23.099799
23.099799
23.099798
23.099798
23.099798
23.099798
23.099798
23.099798
23.099798
23.099798
23.099798
23.099798
23.099798
23.099798
23.099798
23.099798
23.099798
23.099798
23.099798
23.099798
23.099798
23.099798
23.099798
23.099798
23.099798
23.099798
23.099798
23.099798
23.099797
23.099797
23.099797
23.099797
23.099797
23.099797
23.099797
23.099797
23.099797
23.099797
23.099797
23.099797
23.099797
23.099797
23.099797
23.099797
23.099797
23.099797
23.099797
23.099797
23.099797
23.099797
23.099797
23.099797
23.099797
23.099797
23.099797
23.099796
23.099796
23.099796
23.099796
23.099796
23.099796
23.099796
23.099796
23.099796
23.099796
23.099796
23.099796
23.099796
23.099796
23.099796
23.099796
23.099796
23.099796
23.099796
23.099796
23.099796
23.099796
23.099796
23.099795
23.099795
23.099795
23.099795
23.099795
23.099795
23.099795
23.099795
23.099795
23.099795
23.099795
23.099795
23.099795
23.099795
23.099795
23.099795
23.099795
23.099795
23.099795
23.099795
23.099794
23.099794
23.099794
23.099794
23.099794
23.099794
23.099794
23.099794
23.099794
23.099794
23.099794
23.099794
23.099794
23.099794
23.099794
23.099794
23.099794
23.099794
23.099793
23.099793
23.099793
23.099793
23.099793
23.099793
23.099793
23.099793
23.099793
23.099793
23.099793
23.099793
23.099793
23.099793
23.099793
23.099793
23.099792
23.099792
23.099792
23.099792
23.099792
23.099792
23.099792
23.099792
23.099792
23.099792
23.099792
23.099792
23.099792
23.099792
23.099791
23.099791
23.099791
23.099791
23.099791
23.099791
23.099791
23.099791
23.099791
23.099791
23.099791
23.099791
23.099791
23.099791
23.09979
23.09979
23.09979
23.09979
23.09979
23.09979
23.09979
23.09979
23.09979
23.09979
23.09979
23.09979
23.09979
23.09979
23.099789
23.099789
23.099789
23.099789
23.099789
23.099789
23.099789
23.099789
23.099789
23.099789
23.099789
23.099789
23.099789
23.099789
23.099788
23.099788
23.099788
23.099788
23.099788
23.099788
23.099788
23.099788
23.099788
23.099788
23.099788
23.099788
23.099788
23.099788
23.099787
23.099787
23.099787
23.099787
23.099787
23.099787
23.099787
23.099787
23.099787
23.099787
23.099787
23.099787
23.099787
23.099787
23.099786
23.099786
23.099786
23.099786
23.099786
23.099786
23.099786
23.099786
23.099786
23.099786
23.099786
23.099786
23.099786
23.099786
23.099786
23.099786
23.099785
23.099785
23.099785
23.099785
23.099785
23.099785
23.099785
23.099785
23.099785
23.099785
23.099785
23.099785
23.099785
23.099785
23.099785
23.099785
23.099785
23.099785
23.099784
23.099784
23.099784
23.099784
23.099784
23.099784
23.099784
23.099784
23.099784
23.099784
23.099784
23.099784
23.099784
23.099784
23.099784
23.099784
23.099784
23.099784
23.099784
23.099784
23.099784
23.099784
23.099784
23.099783
23.099783
23.099783
23.099783
23.099783
23.099783
23.099783
23.099783
23.099783
23.099783
23.099783
23.099783
23.099783
23.099783
23.099783
23.099783
23.099783
23.099783
23.099783
23.099783
23.099783
23.099783
23.099783
23.099783
23.099783
23.099783
23.099783
23.099783
23.099782
23.099782
23.099782
23.099782
23.099782
23.099782
23.099782
23.099782
23.099782
23.099782
23.099782
23.099782
23.099782
23.099782
23.099782
23.099782
23.099782
23.099782
23.099782
23.099782
23.099782
23.099782
23.099782
23.099782
23.099782
23.099782
23.099782
23.099782
23.099782
23.099782
23.099782
23.099782
23.099782
23.099782
23.099782
23.099782
23.099781
23.099781
23.099781
23.099781
23.099781
23.099781
23.099781
23.099781
23.099781
23.099781
23.099781
23.099781
23.099781
23.099781
23.099781
23.099781
23.099781
23.099781
23.099781
23.099781
23.099781
23.099781
23.099781
23.099781
23.099781
23.099781
23.099781
23.099781
23.099781
23.099781
23.099781
23.099781
23.099781
23.099781
23.099781
23.099781
23.099781
23.099781
23.099781
23.09978
23.09978
23.09978
23.09978
23.09978
23.09978
23.09978
23.09978
23.09978
23.09978
23.09978
23.09978
23.09978
23.09978
23.09978
23.09978
23.09978
23.09978
23.09978
23.09978
23.09978
23.09978
23.09978
23.09978
23.09978
23.09978
23.09978
23.09978
23.09978
23.09978
23.09978
23.09978
23.09978
23.09978
23.09978
23.09978
23.09978
23.09978
23.09978
23.09978
23.09978
23.09978
23.09978
23.09978
23.09978
23.09978
23.09978
23.09978
23.09978
23.09978
23.09978
23.09978
23.09978
23.09978
23.09978
23.09978
23.09978
23.099779
23.099779
23.099779
23.099779
23.099779
23.099779
23.099779
23.099779
23.099779
23.099779
23.099779
23.099779
23.099779
23.099779
23.099779
23.099779
23.099779
23.099779
23.099779
23.099779
23.099779
23.099779
23.099779
23.099779
23.099779
23.099779
23.099779
23.099779
23.099779
23.099779
23.099779
23.099779
23.099779
23.099779
23.099779
23.099779
23.099779
23.099779
23.099779
23.099779
23.099779
23.099779
23.099779
23.099779
23.099779
23.099779
23.099779
23.099779
23.099779
23.099779
23.099779
23.099779
23.099779
23.099779
23.099779
23.099779
23.099779
23.099779
23.099779
23.099779
23.099779
23.099779
23.099779
23.099779
23.099779
23.099779
23.099779
23.099779
23.099779
23.099779
23.099779
23.099779
23.099778
23.099778
23.099778
23.099778
23.099778
23.099778
23.099778
23.099778
23.099778
23.099778
23.099778
23.099778
23.099778
23.099778
23.099778
23.099778
23.099778
23.099778
23.099778
23.099778
23.099778
23.099778
23.099778
23.099778
23.099778
23.099778
23.099778
23.099778
23.099778
23.099778
23.099778
23.099778
23.099778
23.099778
23.099778
23.099778
23.099778
23.099778
23.099778
23.099778
23.099778
23.099778
23.099778
23.099778
23.099778
23.099778
23.099778
23.099778
23.099778
23.099778
23.099778
23.099778
23.099778
23.099778
23.099778
23.099778
23.099779
23.099779
23.099779
23.099779
23.099779
23.099779
23.099779
23.099779
23.099779
23.099779
23.09978
23.09978
23.09978
23.09978
23.09978
23.09978
23.09978
23.099781
23.099781
23.099781
23.099781
23.099782
23.099782
23.099782
23.099782
23.099783
23.099783
23.099783
23.099784
23.099784
23.099784
23.099785
23.099785
23.099786
23.099786
23.099787
23.099787
23.099788
23.099788
23.099789
23.099789
23.09979
23.099791
23.099791
23.099792
23.099793
23.099794
23.099795
23.099795
23.099796
23.099797
23.099798
23.099799
23.099801
23.099802
23.099803
23.099804
23.099805
23.099807
23.099808
23.09981
23.099811
23.099813
23.099815
23.099816
23.099818
23.09982
23.099822
23.099824
23.099827
23.099829
23.099831
23.099834
23.099836
23.099839
23.099842
23.099845
23.099848
23.099851
23.099855
23.099858
23.099862
23.099865
23.099869
23.099873
23.099878
23.099882
23.099886
23.099891
23.099896
23.099901
23.099907
23.099912
23.099918
23.099924
23.09993
23.099937
23.099943
23.09995
23.099958
23.099965
23.099973
23.099981
23.09999
23.099998
23.100008
23.100017
23.100027
23.100037
23.100048
23.100058
23.10007
23.100082
23.100094
23.100106
23.10012
23.100133
23.100147
23.100162
23.100177
23.100193
23.100209
23.100226
23.100244
23.100262
23.10028
23.1003
23.10032
23.100341
23.100362
23.100385
23.100408
23.100432
23.100456
23.100482
23.100509
23.100536
23.100564
23.100594
23.100624
23.100655
23.100688
23.100721
23.100756
23.100792
23.100829
23.100867
23.100907
23.100948
23.10099
23.101034
23.101079
23.101126
23.101174
23.101223
23.101275
23.101328
23.101382
23.101439
23.101497
23.101557
23.101619
23.101683
23.101749
23.101818
23.101888
23.10196
23.102035
23.102112
23.102192
23.102274
23.102359
23.102446
23.102536
23.102628
23.102723
23.102822
23.102923
23.103027
23.103135
23.103245
23.103359
23.103477
23.103597
23.103722
23.10385
23.103982
23.104117
23.104257
23.104401
23.104548
23.1047
23.104857
23.105018
23.105183
23.105353
23.105528
23.105708
23.105893
23.106083
23.106278
23.106479
23.106685
23.106897
23.107114
23.107338
23.107568
23.107804
23.108046
23.108295
23.10855
23.108812
23.109081
23.109357
23.109641
23.109931
23.11023
23.110536
23.11085
23.111172
23.111502
23.111841
23.112188
23.112544
23.112909
23.113283
23.113667
23.11406
23.114462
23.114875
23.115298
23.11573
23.116174
23.116628
23.117093
23.117569
23.118056
23.118555
23.119066
23.119589
23.120123
23.120671
23.12123
23.121803
23.122389
23.122988
23.1236
23.124227
23.124867
23.125522
23.126191
23.126875
23.127574
23.128288
23.129018
23.129764
23.130525
23.131303
23.132097
23.132908
23.133736
23.134581
23.135444
23.136324
23.137223
23.13814
23.139076
23.14003
23.141004
23.141997
23.14301
23.144042
23.145095
23.146169
23.147263
23.148378
23.149514
23.150672
23.151852
23.153054
23.154278
23.155525
23.156795
23.158088
23.159405
23.160745
23.16211
23.163498
23.164911
23.166349
23.167812
23.1693
23.170814
23.172354
23.17392
23.175512
23.17713
23.178776
23.180448
23.182148
23.183876
23.185631
23.187414
23.189226
23.191066
23.192934
23.194832
23.196759
23.198715
23.200701
23.202716
23.204762
23.206837
23.208943
23.21108
23.213247
23.215445
23.217675
23.219935
23.222227
23.224551
23.226906
23.229293
23.231712
23.234163
23.236647
23.239162
23.241711
23.244291
23.246905
23.249551
23.25223
23.254942
23.257687
23.260465
23.263276
23.266121
23.268998
23.271909
23.274853
23.27783
23.280841
23.283884
23.286961
23.290071
23.293215
23.296391
23.299601
23.302844
23.30612
23.309428
23.312769
23.316143
23.31955
23.322989
23.326461
23.329965
23.333501
23.337069
23.340668
23.3443
23.347962
23.351656
23.355381
23.359137
23.362924
23.366741
23.370588
23.374465
23.378371
23.382307
23.386272
23.390265
23.394288
23.398338
23.402417
23.406523
23.410656
23.414816
23.419002
23.423214
23.427452
23.431715
23.436004
23.440317
23.444654
23.449015
23.453399
23.457805
23.462234
23.466685
23.471158
23.475651
23.480165
23.484699
23.489252
23.493824
23.498414
23.503023
23.507648
23.512291
23.51695
23.521625
23.526314
23.531018
23.535736
23.540467
23.545212
23.549969
23.554737
23.559515
23.564304
23.569103
23.573911
23.578728
23.583553
23.588384
23.593222
23.598065
23.602914
23.607768
23.612626
23.617487
23.62235
23.627215
23.632081
23.636948
23.641815
23.646681
23.651546
23.656407
23.661266
23.666122
23.670973
23.67582
23.680661
23.685495
23.690322
23.695142
23.699953
23.704756
23.709548
23.71433
23.7191
23.723859
23.728606
23.733339
23.738058
23.742763
23.747452
23.752126
23.756784
23.761424
23.766046
23.77065
23.775234
23.779799
23.784344
23.788867
23.793369
23.797849
23.802306
23.806739
23.811148
23.815533
23.819892
23.824226
23.828533
23.832813
23.837065
23.84129
23.845486
23.849653
23.85379
23.857898
23.861974
23.86602
23.870033
23.874014
23.877963
23.881879
23.885762
23.88961
23.893424
23.897203
23.900947
23.904655
23.908327
23.911963
23.915562
23.919124
23.922649
23.926135
23.929584
23.932994
23.936365
23.939697
23.94299
23.946243
23.949456
23.952629
23.955761
23.958853
23.961904
23.964913
23.967882
23.970809
23.973695
23.976538
23.97934
23.982099
23.984816
23.987491
23.990123
23.992712
23.995259
23.997763
24.000225
24.002643
24.005018
24.007351
24.00964
24.011886
24.014089
24.016249
24.018365
24.020439
24.02247
24.024458
24.026403
24.028305
24.030164
24.03198
24.033753
24.035484
24.037173
24.038819
24.040423
24.041985
24.043504
24.044982
24.046418
24.047813
24.049166
24.050478
24.051749
24.052979
24.054169
24.055318
24.056426
24.057495
24.058524
24.059513
24.060463
24.061373
24.062245
24.063078
24.063873
24.06463
24.065348
24.066029
24.066672
24.067279
24.067848
24.068381
24.068878
24.069338
24.069763
24.070152
24.070507
24.070826
24.071111
24.071361
24.071578
24.071761
24.07191
24.072027
24.072111
24.072163
24.072184
24.072172
24.07213
24.072055
24.07195
24.071814
24.071648
24.071451
24.071225
24.07097
24.070686
24.070372
24.070031
24.069661
24.069265
24.068841
24.06839
24.067912
24.067408
24.066877
24.066321
24.065739
24.065133
24.064502
24.063846
24.063166
24.062461
24.061734
24.060983
24.060209
24.059413
24.058594
24.057754
24.056891
24.056007
24.055102
24.054176
24.053229
24.052262
24.051274
24.050267
24.049241
24.048196
24.047132
24.046048
24.044947
24.043827
24.042689
24.041534
24.040362
24.039172
24.037966
24.036743
24.035503
24.034248
24.032976
24.031689
24.030387
24.02907
24.027738
24.026392
24.02503
24.023655
24.022265
24.020862
24.019445
24.018015
24.016572
24.015116
24.013647
24.012166
24.010672
24.009166
24.007649
24.00612
24.00458
24.003028
24.001465
23.999891
23.998306
23.996711
23.995106
23.99349
23.991865
23.990229
23.988584
23.98693
23.985266
23.983593
23.981911
23.980221
23.978522
23.976814
23.975098
23.973374
23.971642
23.969902
23.968154
23.966399
23.964636
23.962866
23.96109
23.959306
23.957516
23.955719
23.953915
23.952105
23.950289
23.948467
23.946639
23.944805
23.942965
23.94112
23.93927
23.937414
23.935553
23.933687
23.931816
23.929941
23.928061
23.926176
23.924287
23.922394
23.920497
23.918596
23.916691
23.914782
23.912869
23.910953
23.909034
23.907111
23.905186
23.903257
23.901325
23.899391
23.897454
23.895514
23.893571
23.891626
23.889679
23.88773
23.885779
23.883827
23.881872
23.879915
23.877957
23.875997
23.874036
23.872074
23.87011
23.868146
23.86618
23.864214
23.862247
23.860279
23.858311
23.856342
23.854372
23.852403
23.850433
23.848464
23.846494
23.844524
23.842555
23.840586
23.838617
23.836649
23.834682
23.832715
23.830748
23.828783
23.826819
23.824856
23.822894
23.820933
23.818974
23.817015
23.815059
23.813104
23.81115
23.809199
23.807249
23.805301
23.803356
23.801412
23.79947
23.797531
23.795594
23.79366
23.791728
23.789798
23.787872
23.785947
23.784026
23.782108
23.780193
23.77828
23.776371
23.774465
23.772563
23.770663
23.768767
23.766875
23.764986
23.763101
23.761219
23.759341
23.757467
23.755597
23.753731
23.751869
23.750011
23.748157
23.746307
23.744462
23.742621
23.740785
23.738953
23.737125
23.735302
23.733484
23.73167
23.729861
23.728057
23.726258
23.724464
23.722674
23.72089
23.719111
23.717337
23.715568
23.713804
23.712046
23.710293
23.708545
23.706803
23.705066
23.703335
23.70161
23.699889
23.698175
23.696466
23.694763
23.693066
23.691374
23.689688
23.688008
23.686335
23.684667
23.683005
23.681349
23.679699
23.678056
23.676418
23.674786
23.673161
23.671542
23.669929
23.668323
23.666722
23.665128
23.66354
23.661958
23.660382
23.658811
23.657246
23.655687
23.654134
23.652587
23.651045
23.649512
23.647986
23.646468
23.64496
23.643458
23.641965
23.640474
23.638982
23.63749
23.635999
23.634514
23.633035
23.631578
23.630134
23.62871
23.627306
23.625902
23.624497
23.623094
23.621692
23.62032
23.618964
23.617606
23.616242
23.614873
23.613503
23.612141
23.610798
23.609466
23.608137
23.606809
23.605479
23.604163
23.602864
23.601561
23.600272
23.599016
23.597794
23.596764
23.595923
23.594435
23.592478
23.591328
23.590201
23.58896
23.58771
23.586509
23.585302
23.584094
23.582896
23.581706
23.580522
23.579346
23.578177
23.577016
23.575862
23.574714
23.573573
23.572439
23.57131
23.570188
23.569072
23.567962
23.566858
23.56576
23.564667
23.563581
23.562502
23.561428
23.560361
23.559299
23.558245
23.557197
23.556154
23.555118
23.554088
23.553065
23.552047
23.551036
23.550031
23.549032
23.54804
23.547053
23.546073
23.545098
23.54413
23.543168
23.542212
23.541261
23.540314
23.539375
23.538446
23.537522
23.536601
23.535687
23.534779
23.533876
23.53298
23.532089
23.531205
23.530326
23.529453
23.528586
23.527724
23.526868
23.526019
23.525174
23.524336
23.523503
23.522676
23.521855
23.521039
23.520229
23.519425
23.518626
23.517833
23.517045
23.516263
23.515486
23.514715
23.51395
23.513189
23.512435
23.511685
23.510942
23.510203
23.50947
23.508743
23.50802
23.507303
23.506591
23.505885
23.505184
23.504488
23.503797
23.503112
23.502432
23.501757
23.501087
23.500422
23.499762
23.499108
23.498458
23.497814
23.497175
23.49654
23.495911
23.495287
23.494667
23.494053
23.493443
23.492839
23.492239
23.491644
23.491054
23.490469
23.489888
23.489313
23.488742
23.488176
23.487614
23.487058
23.486506
23.485958
23.485415
23.484877
23.484344
23.483815
23.483291
23.482771
23.482255
23.481745
23.481238
23.480737
23.480239
23.479746
23.479257
23.478773