/*--------------------------------*- C++ -*----------------------------------*\
| =========                 |                                                 |
| \\      /  F ield         | OpenFOAM: The Open Source CFD Toolbox           |
|  \\    /   O peration     | Version:  4.x                                   |
|   \\  /    A nd           | Web:      www.OpenFOAM.org                      |
|    \\/     M anipulation  |                                                 |
\*---------------------------------------------------------------------------*/
FoamFile
{
    version     2.0;
    format      ascii;
    class       volScalarField;
    location    "0.02";
    object      p;
}
// * * * * * * * * * * * * * * * * * * * * * * * * * * * * * * * * * * * * * //

dimensions      [1 -1 -2 0 0 0 0];

internalField   nonuniform List<scalar> 
25344
(
99999.59379
99999.59334
99999.59325
99999.59312
99999.59306
99999.59301
99999.59334
99999.59287
99999.59279
99999.59266
99999.5926
99999.59255
99999.59325
99999.59279
99999.5927
99999.59257
99999.59251
99999.59247
99999.59312
99999.59266
99999.59257
99999.59244
99999.59238
99999.59234
99999.59306
99999.5926
99999.59251
99999.59238
99999.59233
99999.59228
99999.59301
99999.59255
99999.59247
99999.59234
99999.59228
99999.59224
99999.59261
99999.59251
99999.59247
99999.5924
99999.59236
99999.59233
99999.59251
99999.59241
99999.59237
99999.5923
99999.59226
99999.59223
99999.59247
99999.59237
99999.59233
99999.59226
99999.59222
99999.59219
99999.5924
99999.5923
99999.59226
99999.5922
99999.59216
99999.59213
99999.59236
99999.59226
99999.59222
99999.59216
99999.59212
99999.5921
99999.59233
99999.59223
99999.59219
99999.59213
99999.5921
99999.59207
99999.59303
99999.59297
99999.59294
99999.5929
99999.59288
99999.59286
99999.59297
99999.5929
99999.59288
99999.59284
99999.59282
99999.5928
99999.59295
99999.59288
99999.59286
99999.59282
99999.5928
99999.59278
99999.59291
99999.59284
99999.59282
99999.59279
99999.59276
99999.59275
99999.59288
99999.59282
99999.5928
99999.59276
99999.59274
99999.59273
99999.59287
99999.5928
99999.59278
99999.59275
99999.59273
99999.59273
99999.59318
99999.59317
99999.59316
99999.59314
99999.59314
99999.59314
99999.59317
99999.59315
99999.59314
99999.59313
99999.59312
99999.59312
99999.59316
99999.59314
99999.59313
99999.59312
99999.59311
99999.59312
99999.59314
99999.59313
99999.59312
99999.59311
99999.59311
99999.59311
99999.59314
99999.59312
99999.59312
99999.59311
99999.59311
99999.59311
99999.59314
99999.59312
99999.59312
99999.59311
99999.59311
99999.59312
99999.59383
99999.59382
99999.59383
99999.59383
99999.59385
99999.59386
99999.59382
99999.59382
99999.59382
99999.59383
99999.59384
99999.59386
99999.59383
99999.59382
99999.59383
99999.59384
99999.59385
99999.59387
99999.59383
99999.59383
99999.59384
99999.59384
99999.59386
99999.59388
99999.59384
99999.59384
99999.59385
99999.59386
99999.59388
99999.5939
99999.59386
99999.59386
99999.59387
99999.59388
99999.5939
99999.59393
99999.59465
99999.59466
99999.59468
99999.5947
99999.59473
99999.59477
99999.59466
99999.59467
99999.59469
99999.59471
99999.59474
99999.59478
99999.59468
99999.59469
99999.5947
99999.59473
99999.59476
99999.5948
99999.5947
99999.59471
99999.59473
99999.59476
99999.59479
99999.59483
99999.59473
99999.59474
99999.59476
99999.59479
99999.59483
99999.59487
99999.59477
99999.59478
99999.5948
99999.59483
99999.59487
99999.59491
99999.59567
99999.59568
99999.59571
99999.59575
99999.5958
99999.59586
99999.59568
99999.5957
99999.59573
99999.59577
99999.59582
99999.59588
99999.59571
99999.59573
99999.59576
99999.5958
99999.59585
99999.59591
99999.59575
99999.59577
99999.5958
99999.59585
99999.5959
99999.59596
99999.5958
99999.59582
99999.59586
99999.5959
99999.59596
99999.59602
99999.59586
99999.59588
99999.59591
99999.59597
99999.59603
99999.5961
99999.59686
99999.59688
99999.59692
99999.59698
99999.59706
99999.59714
99999.59688
99999.5969
99999.59695
99999.59701
99999.59708
99999.59717
99999.59692
99999.59695
99999.59699
99999.59706
99999.59713
99999.59721
99999.59698
99999.59701
99999.59706
99999.59712
99999.5972
99999.59729
99999.59706
99999.59708
99999.59713
99999.5972
99999.59729
99999.59738
99999.59714
99999.59717
99999.59722
99999.59729
99999.59739
99999.59749
99999.5982
99999.59823
99999.59829
99999.59837
99999.59847
99999.59859
99999.59823
99999.59826
99999.59833
99999.59841
99999.59851
99999.59863
99999.59829
99999.59833
99999.59839
99999.59848
99999.59858
99999.5987
99999.59838
99999.59841
99999.59848
99999.59857
99999.59868
99999.5988
99999.59848
99999.59852
99999.59859
99999.59868
99999.5988
99999.59894
99999.59859
99999.59863
99999.5987
99999.59881
99999.59894
99999.59909
99999.59968
99999.59972
99999.5998
99999.59991
99999.60004
99999.60018
99999.59972
99999.59976
99999.59984
99999.59996
99999.60009
99999.60024
99999.5998
99999.59985
99999.59993
99999.60005
99999.60019
99999.60035
99999.59991
99999.59996
99999.60005
99999.60017
99999.60033
99999.60049
99999.60004
99999.6001
99999.60019
99999.60033
99999.60049
99999.60068
99999.60019
99999.60025
99999.60035
99999.6005
99999.60068
99999.60088
99999.60126
99999.60131
99999.60141
99999.60155
99999.60173
99999.60192
99999.60131
99999.60137
99999.60147
99999.60162
99999.6018
99999.60199
99999.60141
99999.60147
99999.60159
99999.60174
99999.60193
99999.60214
99999.60156
99999.60162
99999.60174
99999.60191
99999.60211
99999.60234
99999.60173
99999.6018
99999.60193
99999.60212
99999.60234
99999.60259
99999.60192
99999.602
99999.60214
99999.60234
99999.60259
99999.60287
99999.60291
99999.60298
99999.60311
99999.60329
99999.60351
99999.60375
99999.60298
99999.60305
99999.60319
99999.60337
99999.6036
99999.60385
99999.60311
99999.60319
99999.60333
99999.60353
99999.60378
99999.60404
99999.60329
99999.60338
99999.60353
99999.60375
99999.60402
99999.60432
99999.60351
99999.6036
99999.60378
99999.60402
99999.60432
99999.60465
99999.60375
99999.60386
99999.60405
99999.60432
99999.60466
99999.60504
99999.60459
99999.60467
99999.60484
99999.60506
99999.60534
99999.60564
99999.60467
99999.60477
99999.60494
99999.60518
99999.60546
99999.60578
99999.60484
99999.60494
99999.60512
99999.60538
99999.60569
99999.60604
99999.60506
99999.60517
99999.60538
99999.60566
99999.60601
99999.6064
99999.60534
99999.60546
99999.60569
99999.60601
99999.6064
99999.60684
99999.60565
99999.60579
99999.60604
99999.6064
99999.60685
99999.60736
99999.60625
99999.60636
99999.60656
99999.60684
99999.60718
99999.60755
99999.60636
99999.60647
99999.60668
99999.60698
99999.60733
99999.60773
99999.60656
99999.60668
99999.60691
99999.60723
99999.60762
99999.60806
99999.60683
99999.60697
99999.60723
99999.60759
99999.60803
99999.60853
99999.60717
99999.60733
99999.60762
99999.60803
99999.60853
99999.60912
99999.60755
99999.60773
99999.60806
99999.60854
99999.60912
99999.6098
99999.59298
99999.59253
99999.59244
99999.59232
99999.59226
99999.59222
99999.59297
99999.59251
99999.59243
99999.5923
99999.59225
99999.59221
99999.59296
99999.5925
99999.59242
99999.5923
99999.59225
99999.59221
99999.59296
99999.5925
99999.59242
99999.5923
99999.59225
99999.59221
99999.59296
99999.5925
99999.59242
99999.5923
99999.59225
99999.59222
99999.59296
99999.59251
99999.59243
99999.59231
99999.59225
99999.59222
99999.59296
99999.59251
99999.59243
99999.59231
99999.59226
99999.59222
99999.59296
99999.59251
99999.59243
99999.59231
99999.59226
99999.59222
99999.59296
99999.5925
99999.59242
99999.5923
99999.59225
99999.59222
99999.59295
99999.5925
99999.59242
99999.5923
99999.59225
99999.59222
99999.59296
99999.5925
99999.59242
99999.5923
99999.59226
99999.59222
99999.59297
99999.59251
99999.59243
99999.59231
99999.59227
99999.59223
99999.59231
99999.59221
99999.59218
99999.59212
99999.59208
99999.59206
99999.5923
99999.59221
99999.59217
99999.59211
99999.59208
99999.59206
99999.5923
99999.5922
99999.59217
99999.59211
99999.59208
99999.59206
99999.5923
99999.5922
99999.59217
99999.59211
99999.59208
99999.59206
99999.5923
99999.59221
99999.59217
99999.59212
99999.59209
99999.59207
99999.59231
99999.59221
99999.59218
99999.59212
99999.59209
99999.59207
99999.59231
99999.59221
99999.59218
99999.59212
99999.59209
99999.59208
99999.59231
99999.59221
99999.59218
99999.59212
99999.59209
99999.59207
99999.5923
99999.59221
99999.59217
99999.59212
99999.59209
99999.59207
99999.5923
99999.5922
99999.59217
99999.59212
99999.59209
99999.59207
99999.59229
99999.5922
99999.59217
99999.59212
99999.59209
99999.59207
99999.5923
99999.5922
99999.59217
99999.59212
99999.59209
99999.59207
99999.59286
99999.5928
99999.59278
99999.59275
99999.59273
99999.59272
99999.59285
99999.59279
99999.59278
99999.59275
99999.59273
99999.59273
99999.59286
99999.5928
99999.59278
99999.59275
99999.59274
99999.59274
99999.59286
99999.59281
99999.59279
99999.59276
99999.59275
99999.59275
99999.59287
99999.59281
99999.5928
99999.59277
99999.59276
99999.59276
99999.59287
99999.59282
99999.5928
99999.59278
99999.59276
99999.59276
99999.59288
99999.59282
99999.59281
99999.59278
99999.59277
99999.59276
99999.59287
99999.59282
99999.5928
99999.59278
99999.59276
99999.59276
99999.59287
99999.59281
99999.5928
99999.59277
99999.59276
99999.59276
99999.59286
99999.5928
99999.59279
99999.59276
99999.59275
99999.59275
99999.59285
99999.5928
99999.59278
99999.59276
99999.59274
99999.59274
99999.59285
99999.59279
99999.59278
99999.59275
99999.59274
99999.59274
99999.59314
99999.59313
99999.59312
99999.59312
99999.59312
99999.59314
99999.59315
99999.59314
99999.59313
99999.59313
99999.59314
99999.59315
99999.59316
99999.59315
99999.59315
99999.59315
99999.59315
99999.59317
99999.59317
99999.59316
99999.59316
99999.59316
99999.59317
99999.59319
99999.59318
99999.59317
99999.59317
99999.59317
99999.59318
99999.5932
99999.59319
99999.59318
99999.59318
99999.59318
99999.59319
99999.59321
99999.59319
99999.59318
99999.59318
99999.59318
99999.59319
99999.59321
99999.59319
99999.59318
99999.59318
99999.59318
99999.59319
99999.59321
99999.59318
99999.59317
99999.59317
99999.59317
99999.59318
99999.5932
99999.59317
99999.59316
99999.59316
99999.59316
99999.59317
99999.59318
99999.59315
99999.59314
99999.59314
99999.59314
99999.59315
99999.59316
99999.59314
99999.59313
99999.59313
99999.59313
99999.59313
99999.59315
99999.59388
99999.59388
99999.59389
99999.5939
99999.59393
99999.59396
99999.5939
99999.5939
99999.59391
99999.59393
99999.59396
99999.59399
99999.59392
99999.59392
99999.59394
99999.59396
99999.59399
99999.59402
99999.59394
99999.59394
99999.59396
99999.59398
99999.59401
99999.59405
99999.59396
99999.59396
99999.59397
99999.594
99999.59403
99999.59406
99999.59397
99999.59397
99999.59398
99999.59401
99999.59404
99999.59408
99999.59397
99999.59397
99999.59399
99999.59401
99999.59404
99999.59408
99999.59397
99999.59397
99999.59398
99999.594
99999.59403
99999.59407
99999.59395
99999.59396
99999.59397
99999.59399
99999.59402
99999.59405
99999.59393
99999.59394
99999.59395
99999.59397
99999.594
99999.59403
99999.59391
99999.59391
99999.59392
99999.59394
99999.59397
99999.594
99999.59388
99999.59388
99999.5939
99999.59391
99999.59394
99999.59397
99999.5948
99999.59481
99999.59484
99999.59487
99999.59492
99999.59497
99999.59484
99999.59485
99999.59488
99999.59492
99999.59496
99999.59502
99999.59487
99999.59489
99999.59492
99999.59496
99999.59501
99999.59507
99999.5949
99999.59492
99999.59495
99999.59499
99999.59504
99999.5951
99999.59493
99999.59494
99999.59497
99999.59501
99999.59507
99999.59513
99999.59494
99999.59495
99999.59498
99999.59503
99999.59508
99999.59515
99999.59494
99999.59496
99999.59499
99999.59503
99999.59508
99999.59515
99999.59494
99999.59495
99999.59498
99999.59502
99999.59507
99999.59514
99999.59492
99999.59493
99999.59496
99999.595
99999.59505
99999.59511
99999.59489
99999.5949
99999.59493
99999.59497
99999.59502
99999.59507
99999.59485
99999.59486
99999.59489
99999.59493
99999.59497
99999.59503
99999.59481
99999.59482
99999.59485
99999.59488
99999.59492
99999.59498
99999.59592
99999.59594
99999.59598
99999.59603
99999.5961
99999.59618
99999.59597
99999.59599
99999.59604
99999.5961
99999.59617
99999.59626
99999.59602
99999.59605
99999.59609
99999.59616
99999.59624
99999.59632
99999.59607
99999.59609
99999.59614
99999.59621
99999.59629
99999.59638
99999.5961
99999.59612
99999.59617
99999.59624
99999.59632
99999.59642
99999.59612
99999.59614
99999.59619
99999.59626
99999.59634
99999.59644
99999.59612
99999.59615
99999.59619
99999.59626
99999.59634
99999.59644
99999.59611
99999.59613
99999.59618
99999.59625
99999.59633
99999.59642
99999.59608
99999.5961
99999.59615
99999.59621
99999.59629
99999.59638
99999.59603
99999.59606
99999.5961
99999.59616
99999.59624
99999.59633
99999.59598
99999.596
99999.59605
99999.5961
99999.59618
99999.59626
99999.59592
99999.59594
99999.59598
99999.59604
99999.59611
99999.59618
99999.59722
99999.59725
99999.59731
99999.59739
99999.59749
99999.5976
99999.5973
99999.59733
99999.5974
99999.59748
99999.59759
99999.59771
99999.59737
99999.59741
99999.59747
99999.59757
99999.59768
99999.59781
99999.59743
99999.59747
99999.59754
99999.59764
99999.59776
99999.59789
99999.59747
99999.59751
99999.59759
99999.59769
99999.59781
99999.59795
99999.5975
99999.59754
99999.59761
99999.59771
99999.59784
99999.59798
99999.5975
99999.59754
99999.59761
99999.59771
99999.59784
99999.59798
99999.59748
99999.59752
99999.59759
99999.59769
99999.59781
99999.59795
99999.59744
99999.59748
99999.59755
99999.59764
99999.59776
99999.59789
99999.59738
99999.59741
99999.59748
99999.59757
99999.59768
99999.59781
99999.5973
99999.59734
99999.5974
99999.59749
99999.59759
99999.59771
99999.59722
99999.59725
99999.59731
99999.59739
99999.59749
99999.59761
99999.5987
99999.59875
99999.59883
99999.59894
99999.59909
99999.59924
99999.59881
99999.59886
99999.59895
99999.59907
99999.59923
99999.59939
99999.59891
99999.59896
99999.59905
99999.59919
99999.59935
99999.59953
99999.59899
99999.59904
99999.59914
99999.59928
99999.59945
99999.59964
99999.59905
99999.5991
99999.59921
99999.59935
99999.59953
99999.59972
99999.59908
99999.59914
99999.59924
99999.59939
99999.59957
99999.59976
99999.59908
99999.59914
99999.59924
99999.59939
99999.59957
99999.59976
99999.59905
99999.59911
99999.59921
99999.59935
99999.59953
99999.59972
99999.599
99999.59905
99999.59915
99999.59929
99999.59945
99999.59964
99999.59891
99999.59897
99999.59906
99999.59919
99999.59935
99999.59953
99999.59881
99999.59886
99999.59895
99999.59907
99999.59923
99999.5994
99999.5987
99999.59874
99999.59883
99999.59894
99999.59909
99999.59925
99999.60034
99999.6004
99999.60052
99999.60068
99999.60088
99999.6011
99999.60048
99999.60055
99999.60068
99999.60085
99999.60107
99999.6013
99999.60062
99999.60069
99999.60082
99999.60101
99999.60124
99999.60149
99999.60072
99999.6008
99999.60094
99999.60114
99999.60138
99999.60165
99999.6008
99999.60088
99999.60103
99999.60123
99999.60148
99999.60176
99999.60085
99999.60093
99999.60108
99999.60128
99999.60154
99999.60182
99999.60085
99999.60093
99999.60108
99999.60128
99999.60154
99999.60182
99999.60081
99999.60089
99999.60104
99999.60124
99999.60148
99999.60176
99999.60073
99999.60081
99999.60095
99999.60115
99999.60138
99999.60165
99999.60062
99999.6007
99999.60083
99999.60102
99999.60124
99999.6015
99999.60049
99999.60056
99999.60068
99999.60086
99999.60107
99999.60131
99999.60034
99999.6004
99999.60051
99999.60068
99999.60088
99999.6011
99999.60212
99999.6022
99999.60236
99999.60258
99999.60286
99999.60316
99999.60231
99999.6024
99999.60257
99999.60282
99999.60311
99999.60345
99999.60248
99999.60258
99999.60277
99999.60303
99999.60335
99999.6037
99999.60262
99999.60273
99999.60293
99999.6032
99999.60354
99999.60392
99999.60272
99999.60283
99999.60304
99999.60333
99999.60368
99999.60407
99999.60278
99999.60289
99999.6031
99999.60339
99999.60375
99999.60415
99999.60278
99999.60289
99999.6031
99999.6034
99999.60375
99999.60415
99999.60273
99999.60284
99999.60305
99999.60333
99999.60368
99999.60407
99999.60263
99999.60274
99999.60294
99999.60321
99999.60355
99999.60392
99999.60249
99999.60259
99999.60278
99999.60304
99999.60335
99999.60371
99999.60231
99999.60241
99999.60258
99999.60282
99999.60312
99999.60346
99999.60211
99999.6022
99999.60236
99999.60259
99999.60286
99999.60317
99999.604
99999.60412
99999.60434
99999.60464
99999.60501
99999.60544
99999.60425
99999.60438
99999.60461
99999.60495
99999.60536
99999.60582
99999.60447
99999.60461
99999.60487
99999.60523
99999.60567
99999.60618
99999.60465
99999.6048
99999.60507
99999.60546
99999.60593
99999.60647
99999.60478
99999.60494
99999.60522
99999.60563
99999.60612
99999.60668
99999.60485
99999.60501
99999.6053
99999.60571
99999.60622
99999.60679
99999.60486
99999.60502
99999.60531
99999.60572
99999.60622
99999.60679
99999.60479
99999.60495
99999.60523
99999.60563
99999.60612
99999.60668
99999.60466
99999.60481
99999.60509
99999.60547
99999.60594
99999.60647
99999.60448
99999.60462
99999.60488
99999.60524
99999.60568
99999.60619
99999.60426
99999.60438
99999.60462
99999.60496
99999.60537
99999.60584
99999.604
99999.60412
99999.60434
99999.60464
99999.60502
99999.60545
99999.60596
99999.60612
99999.60641
99999.60682
99999.60732
99999.60791
99999.60627
99999.60645
99999.60676
99999.60722
99999.60778
99999.60843
99999.60655
99999.60674
99999.60709
99999.60759
99999.6082
99999.60891
99999.60678
99999.60699
99999.60736
99999.60789
99999.60854
99999.60931
99999.60695
99999.60716
99999.60755
99999.60811
99999.60879
99999.6096
99999.60704
99999.60726
99999.60765
99999.60823
99999.60893
99999.60975
99999.60704
99999.60726
99999.60766
99999.60823
99999.60893
99999.60975
99999.60696
99999.60717
99999.60756
99999.60812
99999.6088
99999.6096
99999.6068
99999.607
99999.60737
99999.6079
99999.60855
99999.60932
99999.60657
99999.60676
99999.6071
99999.6076
99999.60821
99999.60892
99999.60628
99999.60646
99999.60677
99999.60723
99999.60779
99999.60845
99999.60597
99999.60612
99999.60641
99999.60682
99999.60733
99999.60793
99999.60795
99999.60815
99999.60852
99999.60907
99999.60974
99999.61054
99999.60833
99999.60856
99999.60898
99999.60959
99999.61034
99999.61123
99999.60868
99999.60893
99999.60939
99999.61007
99999.61089
99999.61188
99999.60897
99999.60924
99999.60973
99999.61046
99999.61135
99999.61242
99999.60918
99999.60946
99999.60998
99999.61074
99999.61169
99999.61282
99999.60929
99999.60958
99999.61011
99999.61089
99999.61187
99999.61303
99999.60929
99999.60958
99999.61011
99999.6109
99999.61187
99999.61303
99999.60919
99999.60947
99999.60998
99999.61075
99999.61169
99999.61282
99999.60898
99999.60925
99999.60974
99999.61047
99999.61136
99999.61243
99999.60869
99999.60894
99999.6094
99999.61007
99999.6109
99999.61189
99999.60834
99999.60857
99999.60898
99999.6096
99999.61035
99999.61125
99999.60795
99999.60815
99999.60853
99999.60908
99999.60975
99999.61056
99999.59299
99999.59253
99999.59245
99999.59233
99999.59229
99999.59225
99999.59303
99999.59257
99999.59249
99999.59237
99999.59232
99999.59229
99999.59308
99999.59262
99999.59254
99999.59242
99999.59237
99999.59234
99999.5932
99999.59274
99999.59266
99999.59254
99999.59249
99999.59245
99999.59329
99999.59283
99999.59274
99999.59262
99999.59257
99999.59253
99999.59375
99999.59329
99999.5932
99999.59308
99999.59303
99999.59299
99999.59231
99999.59222
99999.59218
99999.59213
99999.5921
99999.59208
99999.59234
99999.59224
99999.5922
99999.59215
99999.59212
99999.5921
99999.59237
99999.59227
99999.59224
99999.59218
99999.59215
99999.59213
99999.59243
99999.59233
99999.59229
99999.59224
99999.5922
99999.59218
99999.59246
99999.59237
99999.59233
99999.59227
99999.59224
99999.59222
99999.59256
99999.59246
99999.59243
99999.59237
99999.59234
99999.59231
99999.59285
99999.59279
99999.59278
99999.59275
99999.59274
99999.59274
99999.59286
99999.5928
99999.59279
99999.59276
99999.59275
99999.59274
99999.59288
99999.59282
99999.5928
99999.59277
99999.59276
99999.59275
99999.59291
99999.59285
99999.59283
99999.5928
99999.59278
99999.59278
99999.59292
99999.59286
99999.59285
99999.59282
99999.5928
99999.59279
99999.59299
99999.59293
99999.59291
99999.59288
99999.59286
99999.59285
99999.59313
99999.59312
99999.59312
99999.59311
99999.59312
99999.59313
99999.59312
99999.59311
99999.59311
99999.5931
99999.59311
99999.59312
99999.59312
99999.59311
99999.5931
99999.5931
99999.5931
99999.59311
99999.59312
99999.59311
99999.59311
99999.5931
99999.5931
99999.59311
99999.59313
99999.59312
99999.59311
99999.59311
99999.59311
99999.59311
99999.59314
99999.59313
99999.59313
99999.59312
99999.59312
99999.59312
99999.59386
99999.59386
99999.59387
99999.59389
99999.59391
99999.59394
99999.59384
99999.59384
99999.59384
99999.59386
99999.59388
99999.59391
99999.59382
99999.59381
99999.59382
99999.59384
99999.59386
99999.59388
99999.5938
99999.5938
99999.59381
99999.59382
99999.59384
99999.59386
99999.59379
99999.59379
99999.5938
99999.59381
99999.59383
99999.59385
99999.5938
99999.59379
99999.5938
99999.59381
99999.59383
99999.59385
99999.59477
99999.59478
99999.5948
99999.59483
99999.59488
99999.59492
99999.59472
99999.59474
99999.59476
99999.59479
99999.59483
99999.59487
99999.59469
99999.5947
99999.59472
99999.59475
99999.59478
99999.59483
99999.59466
99999.59467
99999.59469
99999.59471
99999.59475
99999.59479
99999.59463
99999.59464
99999.59466
99999.59469
99999.59473
99999.59476
99999.59463
99999.59463
99999.59465
99999.59468
99999.59471
99999.59475
99999.59586
99999.59588
99999.59591
99999.59597
99999.59603
99999.59611
99999.59579
99999.59581
99999.59585
99999.5959
99999.59596
99999.59603
99999.59574
99999.59575
99999.59579
99999.59584
99999.5959
99999.59596
99999.59569
99999.59571
99999.59574
99999.59579
99999.59584
99999.5959
99999.59565
99999.59567
99999.5957
99999.59575
99999.5958
99999.59586
99999.59564
99999.59565
99999.59569
99999.59573
99999.59578
99999.59584
99999.59713
99999.59716
99999.59722
99999.59729
99999.59739
99999.5975
99999.59704
99999.59707
99999.59712
99999.5972
99999.59729
99999.59739
99999.59696
99999.59699
99999.59704
99999.59711
99999.59719
99999.59729
99999.5969
99999.59692
99999.59697
99999.59704
99999.59712
99999.59721
99999.59685
99999.59687
99999.59692
99999.59699
99999.59706
99999.59715
99999.59683
99999.59685
99999.5969
99999.59696
99999.59704
99999.59712
99999.59858
99999.59862
99999.5987
99999.59881
99999.59894
99999.59909
99999.59846
99999.5985
99999.59857
99999.59868
99999.5988
99999.59894
99999.59835
99999.59839
99999.59846
99999.59856
99999.59867
99999.5988
99999.59827
99999.5983
99999.59837
99999.59846
99999.59857
99999.59869
99999.5982
99999.59824
99999.5983
99999.59839
99999.59849
99999.59861
99999.59817
99999.5982
99999.59827
99999.59835
99999.59845
99999.59857
99999.60018
99999.60024
99999.60034
99999.6005
99999.60068
99999.60089
99999.60002
99999.60008
99999.60018
99999.60032
99999.60049
99999.60068
99999.59989
99999.59994
99999.60003
99999.60016
99999.60032
99999.60049
99999.59977
99999.59982
99999.59991
99999.60003
99999.60018
99999.60034
99999.59969
99999.59973
99999.59982
99999.59993
99999.60007
99999.60023
99999.59965
99999.59969
99999.59977
99999.59988
99999.60002
99999.60017
99999.60191
99999.60199
99999.60214
99999.60234
99999.6026
99999.60288
99999.60171
99999.60178
99999.60192
99999.60211
99999.60234
99999.6026
99999.60153
99999.6016
99999.60172
99999.6019
99999.60211
99999.60234
99999.60139
99999.60145
99999.60156
99999.60172
99999.60192
99999.60213
99999.60128
99999.60134
99999.60145
99999.6016
99999.60178
99999.60198
99999.60123
99999.60128
99999.60139
99999.60153
99999.60171
99999.6019
99999.60374
99999.60385
99999.60405
99999.60432
99999.60466
99999.60505
99999.60349
99999.60359
99999.60377
99999.60402
99999.60432
99999.60466
99999.60327
99999.60335
99999.60352
99999.60374
99999.60401
99999.60432
99999.60308
99999.60316
99999.60331
99999.60352
99999.60376
99999.60404
99999.60295
99999.60303
99999.60317
99999.60335
99999.60358
99999.60384
99999.60289
99999.60295
99999.60309
99999.60327
99999.60349
99999.60374
99999.60564
99999.60578
99999.60604
99999.60641
99999.60686
99999.60738
99999.60533
99999.60545
99999.60568
99999.60601
99999.6064
99999.60686
99999.60505
99999.60516
99999.60537
99999.60565
99999.60601
99999.6064
99999.60482
99999.60492
99999.60511
99999.60537
99999.60568
99999.60604
99999.60466
99999.60475
99999.60492
99999.60516
99999.60545
99999.60577
99999.60457
99999.60466
99999.60482
99999.60505
99999.60532
99999.60563
99999.60755
99999.60773
99999.60806
99999.60854
99999.60913
99999.60982
99999.60717
99999.60733
99999.60762
99999.60803
99999.60854
99999.60913
99999.60683
99999.60697
99999.60723
99999.60759
99999.60803
99999.60854
99999.60655
99999.60668
99999.60691
99999.60723
99999.60762
99999.60806
99999.60635
99999.60647
99999.60668
99999.60697
99999.60733
99999.60773
99999.60625
99999.60635
99999.60656
99999.60683
99999.60717
99999.60755
99999.59298
99999.59297
99999.59296
99999.59296
99999.59296
99999.59296
99999.59296
99999.59297
99999.59297
99999.59298
99999.59299
99999.59301
99999.59252
99999.59251
99999.5925
99999.59251
99999.5925
99999.59251
99999.59251
99999.59251
99999.59252
99999.59252
99999.59253
99999.59255
99999.59244
99999.59243
99999.59242
99999.59242
99999.59242
99999.59242
99999.59243
99999.59243
99999.59243
99999.59244
99999.59245
99999.59247
99999.59232
99999.5923
99999.5923
99999.5923
99999.5923
99999.59231
99999.59231
99999.59231
99999.59231
99999.59232
99999.59232
99999.59234
99999.59226
99999.59225
99999.59225
99999.59225
99999.59225
99999.59225
99999.59226
99999.59226
99999.59226
99999.59226
99999.59227
99999.59229
99999.59222
99999.59221
99999.59221
99999.59222
99999.59222
99999.59222
99999.59222
99999.59222
99999.59222
99999.59222
99999.59223
99999.59224
99999.59231
99999.5923
99999.5923
99999.59231
99999.59231
99999.59231
99999.59231
99999.59231
99999.59232
99999.59232
99999.59233
99999.59234
99999.59222
99999.59221
99999.59221
99999.59221
99999.59221
99999.59221
99999.59222
99999.59222
99999.59222
99999.59222
99999.59223
99999.59224
99999.59218
99999.59217
99999.59217
99999.59217
99999.59217
99999.59218
99999.59218
99999.59218
99999.59218
99999.59219
99999.59219
99999.5922
99999.59212
99999.59211
99999.59211
99999.59211
99999.59212
99999.59212
99999.59212
99999.59213
99999.59213
99999.59213
99999.59213
99999.59214
99999.59208
99999.59208
99999.59208
99999.59209
99999.59209
99999.59209
99999.5921
99999.5921
99999.5921
99999.5921
99999.5921
99999.59211
99999.59206
99999.59206
99999.59206
99999.59207
99999.59207
99999.59208
99999.59208
99999.59208
99999.59208
99999.59207
99999.59207
99999.59208
99999.59286
99999.59286
99999.59286
99999.59287
99999.59288
99999.59288
99999.59288
99999.59288
99999.59288
99999.59288
99999.59288
99999.59288
99999.5928
99999.5928
99999.5928
99999.59281
99999.59282
99999.59282
99999.59282
99999.59282
99999.59282
99999.59282
99999.59282
99999.59282
99999.59278
99999.59278
99999.59278
99999.59279
99999.5928
99999.5928
99999.59281
99999.59281
99999.59281
99999.5928
99999.5928
99999.59281
99999.59275
99999.59275
99999.59275
99999.59276
99999.59277
99999.59278
99999.59278
99999.59278
99999.59278
99999.59278
99999.59277
99999.59277
99999.59273
99999.59274
99999.59274
99999.59275
99999.59276
99999.59277
99999.59277
99999.59277
99999.59277
99999.59276
99999.59275
99999.59275
99999.59273
99999.59273
99999.59274
99999.59275
99999.59276
99999.59277
99999.59277
99999.59277
99999.59276
99999.59275
99999.59275
99999.59275
99999.59315
99999.59316
99999.59317
99999.59318
99999.59319
99999.5932
99999.5932
99999.5932
99999.59319
99999.59318
99999.59318
99999.59317
99999.59313
99999.59314
99999.59315
99999.59317
99999.59318
99999.59319
99999.59319
99999.59319
99999.59318
99999.59317
99999.59316
99999.59316
99999.59313
99999.59314
99999.59315
99999.59316
99999.59317
99999.59318
99999.59319
99999.59319
99999.59318
99999.59317
99999.59316
99999.59315
99999.59312
99999.59313
99999.59315
99999.59316
99999.59317
99999.59318
99999.59319
99999.59319
99999.59318
99999.59317
99999.59316
99999.59314
99999.59313
99999.59314
99999.59316
99999.59317
99999.59319
99999.5932
99999.5932
99999.59319
99999.59319
99999.59317
99999.59316
99999.59315
99999.59314
99999.59315
99999.59317
99999.5932
99999.59321
99999.59321
99999.59322
99999.59321
99999.5932
99999.59318
99999.59317
99999.59315
99999.59388
99999.59391
99999.59393
99999.59395
99999.59396
99999.59397
99999.59397
99999.59397
99999.59396
99999.59394
99999.59392
99999.5939
99999.59388
99999.5939
99999.59393
99999.59395
99999.59396
99999.59397
99999.59398
99999.59397
99999.59396
99999.59394
99999.59392
99999.5939
99999.59389
99999.59391
99999.59393
99999.59395
99999.59398
99999.59399
99999.59399
99999.59399
99999.59397
99999.59396
99999.59393
99999.59391
99999.5939
99999.59393
99999.59395
99999.59397
99999.594
99999.59401
99999.59401
99999.59401
99999.59399
99999.59397
99999.59395
99999.59392
99999.59393
99999.59395
99999.59398
99999.59401
99999.59403
99999.59404
99999.59404
99999.59404
99999.59402
99999.594
99999.59397
99999.59395
99999.59396
99999.59399
99999.59402
99999.59405
99999.59407
99999.59408
99999.59408
99999.59407
99999.59406
99999.59403
99999.594
99999.59398
99999.5948
99999.59484
99999.59489
99999.5949
99999.59493
99999.59494
99999.59494
99999.59494
99999.59492
99999.59489
99999.59485
99999.59482
99999.59481
99999.59485
99999.59489
99999.59491
99999.59494
99999.59496
99999.59496
99999.59495
99999.59493
99999.5949
99999.59487
99999.59483
99999.59483
99999.59487
99999.59491
99999.59494
99999.59497
99999.59499
99999.59499
99999.59498
99999.59496
99999.59493
99999.59489
99999.59485
99999.59487
99999.5949
99999.59495
99999.59498
99999.59501
99999.59503
99999.59503
99999.59502
99999.595
99999.59497
99999.59493
99999.59489
99999.59491
99999.59496
99999.595
99999.59504
99999.59507
99999.59508
99999.59509
99999.59508
99999.59505
99999.59502
99999.59497
99999.59493
99999.59497
99999.59501
99999.59506
99999.5951
99999.59513
99999.59515
99999.59515
99999.59514
99999.59511
99999.59507
99999.59503
99999.59498
99999.59592
99999.59598