/*--------------------------------*- C++ -*----------------------------------*\
  =========                 |
  \\      /  F ield         | OpenFOAM: The Open Source CFD Toolbox
   \\    /   O peration     | Website:  https://openfoam.org
    \\  /    A nd           | Version:  7
     \\/     M anipulation  |
\*---------------------------------------------------------------------------*/
FoamFile
{
    version     2.0;
    format      ascii;
    class       volVectorField;
    location    "0.00062";
    object      U;
}
// * * * * * * * * * * * * * * * * * * * * * * * * * * * * * * * * * * * * * //

dimensions      [0 1 -1 0 0 0 0];

internalField   nonuniform List<vector> 
5000
(
(-1.9816283e-14 6.7552933e-29 0)
(-2.0418883e-13 3.039882e-28 0)
(-3.1609316e-13 0 0)
(-3.3882867e-13 0 0)
(-3.4354437e-13 -5.06647e-29 0)
(-2.8442851e-13 -2.3039638e-43 2.026588e-28)
(8.3927709e-14 -2.241296e-43 1.9990525e-56)
(2.2264728e-13 0 4.559823e-28)
(2.2235656e-13 0 5.06647e-29)
(1.8569855e-13 5.06647e-29 1.013294e-28)
(2.4774346e-13 2.026588e-28 2.026588e-28)
(4.9591884e-13 1.519941e-28 1.519941e-28)
(5.0635046e-13 1.013294e-28 -8.6398642e-43)
(6.1141808e-13 2.026588e-28 1.7855719e-42)
(3.151073e-13 0 2.026588e-28)
(1.4630143e-13 -3.039882e-28 -6.079764e-28)
(3.2109621e-13 2.3418399e-55 1.1709199e-55)
(1.5290274e-13 4.053176e-28 -3.5711439e-42)
(7.7048836e-14 0 -3.039882e-28)
(-5.2254167e-14 3.546529e-28 7.093058e-28)
(-3.2270607e-14 -3.039882e-28 3.039882e-28)
(7.4381802e-14 1.013294e-28 0)
(-1.6101552e-13 -6.079764e-28 0)
(-4.3060909e-13 2.026588e-28 2.026588e-28)
(-6.0069206e-13 1.013294e-28 -8.6398642e-43)
(-7.5032391e-13 1.6703738e-42 1.6703738e-42)
(-1.1505907e-12 -3.039882e-28 3.039882e-28)
(-1.2726917e-12 -1.013294e-28 -1.013294e-28)
(-1.359238e-12 -1.013294e-28 5.06647e-29)
(-1.5333585e-12 -2.6351586e-42 1.519941e-28)
(-1.1046185e-12 3.5423443e-42 -3.5423443e-42)
(-9.8360713e-13 -1.013294e-28 8.6398642e-43)
(-7.146169e-13 -3.039882e-28 1.519941e-28)
(-7.6962213e-13 -3.039882e-28 1.519941e-28)
(-7.9093188e-13 1.7567724e-42 1.013294e-28)
(-7.0899226e-13 4.4063308e-42 0)
(-6.9345426e-13 -1.7567724e-42 0)
(-4.0945391e-13 -4.053176e-28 2.026588e-28)
(-4.2582413e-13 5.06647e-28 2.533235e-28)
(-2.7547224e-13 2.026588e-28 -1.013294e-28)
(-1.7762862e-13 -3.039882e-28 2.54876e-42)
(-1.455515e-13 1.3938981e-41 2.026588e-28)
(-9.2661033e-14 5.06647e-28 -2.533235e-28)
(-3.0302754e-13 -2.533235e-28 4.2839327e-42)
(-2.6919293e-13 -4.559823e-28 1.519941e-28)
(-1.813659e-13 -5.06647e-29 5.06647e-29)
(-2.7044479e-13 -3.039882e-28 -1.0454236e-41)
(-1.7387137e-13 -2.0822073e-41 1.0411036e-41)
(-1.6334337e-13 -3.039882e-28 -5.2271179e-42)
(-2.1253929e-13 0 4.3199321e-42)
(-2.3152406e-13 3.039882e-28 3.039882e-28)
(-9.0852216e-14 -2.4308653e-59 0)
(-2.466056e-13 5.06647e-29 0)
(2.7038237e-14 6.079764e-28 0)
(-7.8141864e-14 -1.4169377e-41 0)
(-7.7026241e-14 1.013294e-28 0)
(-1.985618e-13 -4.559823e-28 0)
(-7.4775724e-14 6.99829e-42 0)
(-2.2362999e-14 -5.06647e-29 0)
(-2.5161791e-13 0 0)
(-1.2984647e-13 -2.026588e-28 0)
(3.4146785e-14 -1.7279728e-42 0)
(-2.0878608e-13 2.168935e-59 0)
(-1.3514224e-13 5.06647e-29 -5.06647e-29)
(-1.8613936e-14 -1.013294e-28 -1.013294e-28)
(-2.4933717e-14 1.0627033e-41 3.039882e-28)
(1.7890867e-14 6.586411e-28 -1.1325422e-41)
(-1.1400041e-13 -5.573117e-28 -1.4636499e-56)
(-7.4712732e-15 -1.013294e-28 1.013294e-28)
(-1.508242e-14 -3.546529e-28 0)
(8.0491232e-14 -4.053176e-28 0)
(7.3082845e-14 3.546529e-28 3.546529e-28)
(-7.0164096e-14 2.026588e-28 2.026588e-28)
(-1.9670353e-13 -4.053176e-28 0)
(-2.9432295e-13 -1.519941e-28 -1.519941e-28)
(-3.2630729e-13 -1.013294e-28 3.499145e-42)
(-1.3843292e-13 0 -1.013294e-28)
(-5.0203102e-14 8.5528471e-44 -8.5528471e-44)
(1.0664533e-13 3.5999434e-44 -2.533235e-28)
(2.5989348e-13 2.533235e-28 -5.06647e-28)
(2.3738928e-13 -4.053176e-28 8.106352e-28)
(1.4915688e-13 1.5839751e-43 -3.1679502e-43)
(1.3295697e-14 -1.2959796e-43 -1.3679469e-27)
(-2.2895702e-13 -2.026588e-28 4.053176e-28)
(-2.7981605e-13 3.546529e-28 -3.689222e-41)
(-1.2552482e-13 1.7639723e-41 1.013294e-27)
(2.760869e-13 -5.06647e-28 -1.519941e-27)
(1.8843684e-13 0 5.573117e-28)
(1.9535814e-13 -3.039882e-28 3.039882e-28)
(3.48385e-13 -1.0511835e-41 -1.013294e-28)
(1.0996688e-13 8.1091602e-56 -2.0367207e-42)
(-1.6220806e-14 -5.06647e-29 -5.06647e-29)
(4.9899851e-14 -5.06647e-29 -1.7639723e-42)
(5.2672539e-14 5.06647e-28 5.06647e-28)
(-3.6233144e-14 7.0126898e-42 7.0126898e-42)
(-1.1405783e-13 3.039882e-28 -3.039882e-28)
(-3.0923609e-13 0 -4.053176e-28)
(-5.950875e-13 0 -1.0670232e-41)
(-8.0322262e-13 -2.533235e-28 1.7639723e-41)
(-8.9716972e-13 -1.7567724e-41 5.06647e-28)
(-8.0371791e-13 -7.0541842e-42 -3.5152958e-42)
(-5.8349556e-13 1.013294e-28 1.013294e-28)
(-8.3203315e-13 -2.026588e-28 1.4399774e-44)
(-8.3383653e-13 0 -2.9315606e-42)
(-8.6359295e-13 -2.026588e-28 0)
(-9.7770237e-13 -5.06647e-28 5.06647e-28)
(-9.3769612e-13 5.06647e-28 1.7639723e-41)
(-1.0652466e-12 1.013294e-28 -1.013294e-28)
(-9.6086887e-13 0 -1.013294e-28)
(-9.8339577e-13 0 -3.039882e-28)
(-1.0384711e-12 3.546529e-28 7.093058e-28)
(-8.8663503e-13 3.546529e-28 3.546529e-28)
(-7.0907895e-13 0 -1.2159528e-27)
(-8.6514883e-13 -3.546529e-28 -3.546529e-28)
(-9.4558955e-13 5.3135165e-42 4.559823e-28)
(-7.7025412e-13 -3.039882e-28 3.039882e-28)
(-6.4125721e-13 2.026588e-28 2.026588e-28)
(-7.8348143e-13 1.1519819e-43 -2.3039638e-43)
(-7.9358702e-13 -2.1254066e-41 -6.079764e-28)
(-5.2200135e-13 -1.5198709e-69 1.8239292e-27)
(-3.2447361e-13 1.1146234e-27 -3.8965788e-41)
(-3.8810592e-14 -1.7279728e-43 -8.106352e-28)
(1.9261623e-14 -3.039882e-28 6.079764e-28)
(1.9474444e-13 0 4.053176e-28)
(2.4056076e-13 -5.06647e-28 -5.06647e-28)
(1.0771235e-13 2.026588e-28 2.026588e-28)
(3.9876904e-13 -1.013294e-28 1.013294e-28)
(4.9751619e-13 5.06647e-28 5.06647e-28)
(1.6261658e-13 3.039882e-28 -3.039882e-28)
(7.6479882e-14 -1.013294e-28 -1.7495725e-42)
(-3.0123948e-13 1.013294e-28 1.013294e-28)
(-2.7948956e-13 -6.9225758e-42 1.3845152e-41)
(1.1608931e-13 2.026588e-28 2.026588e-28)
(1.6144239e-13 3.546529e-28 3.546529e-28)
(1.4582386e-14 0 3.546529e-28)
(-2.7712594e-13 -3.546529e-28 1.2347806e-41)
(-2.5393838e-13 -2.026588e-28 7.0270896e-42)
(-2.1245392e-13 -1.013294e-28 3.5279446e-42)
(-2.7447869e-13 -1.3026502e-55 7.5201698e-42)
(-2.8917706e-13 -2.533235e-28 -2.533235e-28)
(-3.1760673e-13 5.06647e-29 5.06647e-29)
(-1.4229339e-13 -2.026588e-28 -4.053176e-28)
(-2.0087514e-13 0 -1.519941e-28)
(-2.1027659e-13 -5.06647e-29 5.06647e-29)
(-2.7678827e-13 -5.06647e-29 -3.5135448e-42)
(-2.707664e-13 -3.039882e-28 6.079764e-28)
(-1.2304996e-13 4.053176e-28 -1.1519819e-43)
(-1.2122391e-13 -2.8799547e-43 1.4399774e-43)
(-2.317093e-13 -5.573117e-28 1.3172849e-55)
(-5.7859484e-13 3.546529e-28 3.546529e-28)
(-5.7060396e-13 -3.039882e-28 -2.1081269e-41)
(-3.9579708e-13 1.0583834e-41 2.1167667e-41)
(-3.8237192e-13 -5.06647e-29 -5.06647e-29)
(-8.8098624e-14 -1.7753423e-42 -1.7694442e-42)
(-3.8828874e-14 2.026588e-28 2.026588e-28)
(-4.6382719e-14 1.519941e-28 5.2703172e-42)
(1.0889422e-13 5.06647e-29 5.06647e-29)
(1.0460802e-13 0 -1.519941e-28)
(-5.2682066e-14 0 7.1998869e-45)
(-2.0875618e-13 -2.533235e-28 -2.533235e-28)
(-5.9333014e-14 -4.053176e-28 0)
(-3.6344543e-13 4.559823e-28 4.559823e-28)
(-4.8742401e-13 3.546529e-28 2.4544414e-41)
(-6.2054103e-13 -5.06647e-29 -1.013294e-28)
(-7.3949345e-13 7.0270896e-42 -1.013294e-28)
(-6.3527712e-13 -2.026588e-28 5.7599095e-44)
(-7.7096869e-13 2.533235e-28 2.533235e-28)
(-7.3368394e-13 1.519941e-28 -1.519941e-28)
(-4.4114768e-13 0 -5.06647e-29)
(-2.2352868e-13 3.039882e-28 3.039882e-28)
(-8.0473099e-14 2.026588e-28 -8.4440273e-41)
(-1.5391557e-13 0 -1.4054179e-41)
(-6.1694968e-14 -1.013294e-28 1.013294e-28)
(-1.5440996e-13 -1.013294e-28 -2.026588e-28)
(-2.0865808e-13 0 0)
(-2.9783242e-13 -5.06647e-29 3.5135448e-42)
(-4.830768e-13 -3.1621903e-41 3.1621903e-41)
(-3.6427852e-13 2.026588e-28 -2.026588e-28)
(-6.5390983e-13 -2.533235e-28 -2.533235e-28)
(-9.1446147e-13 -5.06647e-29 -3.4919451e-42)
(-8.6044988e-13 1.013294e-28 1.013294e-28)
(-8.2370029e-13 1.399658e-41 -2.026588e-28)
(-8.1043343e-13 -2.7877962e-41 -2.7877962e-41)
(-7.0446358e-13 -1.2959796e-43 -1.2959796e-43)
(-8.9375139e-13 -1.519941e-28 -2.1059669e-41)
(-1.0241867e-12 1.519941e-28 3.039882e-28)
(-7.0674204e-13 -7.0270896e-42 5.06647e-29)
(-6.6100214e-13 -6.9694905e-42 -1.013294e-28)
(-5.1797154e-13 2.0908471e-41 2.0908471e-41)
(-5.8570762e-13 -3.546529e-28 -2.4443616e-41)
(-5.2896223e-13 0 6.3200607e-41)
(-3.4904387e-13 0 -3.499145e-42)
(-6.0449692e-13 -3.039882e-28 -3.039882e-28)
(-7.9730571e-13 -2.026588e-28 0)
(-9.0554256e-13 0 0)
(-9.3820632e-13 0 0)
(-6.8735408e-13 3.546529e-28 0)
(-4.8900802e-13 2.4394166e-56 -5.06647e-29)
(-1.548954e-13 1.519941e-28 -3.1686702e-41)
(-2.4636339e-13 0 5.06647e-29)
(-3.5352924e-13 1.4187265e-41 1.4187265e-41)
(-1.3173338e-13 2.533235e-28 2.533235e-28)
(-1.8385199e-13 2.8079559e-41 1.013294e-28)
(-3.7470152e-13 7.093058e-28 7.093058e-28)
(1.9802111e-14 -4.053176e-28 2.8050759e-41)
(8.8300949e-14 -2.1038069e-41 -2.1038069e-41)
(3.1445746e-13 1.4399774e-44 1.013294e-28)
(5.2494882e-13 2.026588e-28 2.026588e-28)
(3.2363689e-14 -2.533235e-28 -2.533235e-28)
(2.1194187e-13 2.1599661e-44 0)
(3.5944704e-13 2.1038069e-41 -1.519941e-28)
(1.4275342e-13 -7.0126898e-42 -7.0126898e-42)
(1.500334e-13 -1.013294e-28 -1.013294e-28)
(4.2992444e-13 0 -5.06647e-29)
(2.0783971e-13 5.06647e-29 7.0558891e-42)
(4.2436393e-13 3.5063449e-42 5.06647e-29)
(4.3328601e-13 -4.2184137e-41 3.039882e-28)
(6.7530874e-13 -2.026588e-28 -2.026588e-28)
(7.0149481e-13 0 -2.026588e-28)
(5.2366052e-13 3.546529e-28 3.546529e-28)
(7.182022e-13 4.053176e-28 -4.053176e-28)
(4.764701e-13 0 0)
(2.7462084e-13 0 0)
(-1.7048105e-13 0 0)
(-3.0661243e-13 -2.533235e-28 -2.533235e-28)
(-4.0982336e-13 -3.5063449e-42 5.06647e-29)
(-2.6394223e-13 2.533235e-28 5.06647e-28)
(-1.1813216e-13 0 -2.026588e-28)
(-2.0125519e-13 0 -1.7603723e-41)
(-2.31462e-13 3.546529e-28 3.546529e-28)
(-2.7153801e-13 1.519941e-28 1.519941e-28)
(-1.7968834e-13 1.013294e-28 2.026588e-28)
(-3.5290484e-14 2.026588e-28 -5.7599095e-44)
(-7.2172633e-14 0 1.4399774e-44)
(6.3024974e-14 1.519941e-28 1.519941e-28)
(-2.766107e-14 1.013294e-28 1.013294e-28)
(-1.3081903e-13 -2.533235e-28 -5.06647e-28)
(-2.0878079e-13 -3.039882e-28 4.3199321e-44)
(-3.3918621e-13 0 -3.1665102e-41)
(-4.0894986e-13 5.06647e-29 5.06647e-29)
(-2.0428983e-13 7.0342895e-41 1.4068579e-40)
(-1.8270635e-13 2.4594814e-41 4.9189627e-41)
(3.5258064e-16 -3.546529e-28 -3.546529e-28)
(1.1478253e-14 5.06647e-28 5.06647e-28)
(3.9233712e-13 4.053176e-28 0)
(4.6221007e-13 0 -7.0092095e-42)
(2.8801613e-13 1.013294e-28 1.013294e-28)
(3.9422091e-13 -1.2481278e-55 8.9804894e-43)
(4.7332384e-13 -5.06647e-29 5.06647e-29)
(6.6647953e-13 -2.1081269e-41 0)
(1.3670664e-13 4.053176e-28 2.026588e-28)
(2.1319739e-13 -1.519941e-28 -1.519941e-28)
(1.8155974e-13 2.1081269e-41 -1.519941e-28)
(4.2451673e-14 1.7589324e-41 1.7589324e-41)
(1.5549378e-13 -1.0519035e-41 -3.039882e-28)
(-1.9484654e-13 -1.013294e-28 -2.026588e-28)
(-5.8648425e-14 1.013294e-28 3.039882e-28)
(2.6348667e-14 2.533235e-28 5.06647e-28)
(-2.2822393e-13 0 0)
(-1.9597179e-13 -3.546529e-28 -7.093058e-28)
(-4.0470347e-13 -1.519941e-28 -1.519941e-28)
(-3.6986431e-13 0 2.533235e-28)
(-1.5410142e-13 4.559823e-28 4.559823e-28)
(-2.2151991e-15 3.039882e-28 3.039882e-28)
(9.357272e-15 6.079764e-28 6.079764e-28)
(2.2148513e-13 7.599705e-28 1.519941e-27)
(-1.2537481e-13 -4.559823e-28 -4.559823e-28)
(-2.7266984e-13 -3.039882e-28 -6.079764e-28)
(-1.5601001e-13 -1.5459597e-40 -1.5459597e-40)
(-2.4270425e-13 4.053176e-28 8.106352e-28)
(-1.9615812e-13 -1.013294e-28 -1.013294e-28)
(-5.1877527e-14 -1.0540634e-41 -2.1081269e-41)
(1.2855126e-13 -2.026588e-28 -2.026588e-28)
(3.1597045e-13 1.013294e-28 2.026588e-28)
(1.7732099e-13 7.0414894e-42 1.013294e-28)
(1.4906444e-13 -1.0583834e-41 -2.1167667e-41)
(1.8410929e-13 -7.1998869e-44 2.533235e-28)
(4.1654359e-13 -3.1492305e-41 -4.559823e-28)
(5.3968202e-13 3.039882e-28 3.039882e-28)
(7.8580122e-13 0 2.026588e-28)
(7.2189209e-13 0 -4.2277736e-41)
(6.9442708e-13 7.0187953e-42 -1.4061183e-41)
(4.698628e-13 4.053176e-28 8.106352e-28)
(4.2634843e-13 0 3.1557104e-41)
(7.6505215e-13 0 5.06647e-29)
(3.2354187e-13 0 0)
(3.7806397e-13 0 0)
(1.1640355e-13 -6.4687584e-42 -6.4687584e-42)
(8.7333611e-14 1.0475835e-41 -1.519941e-28)
(1.7654194e-13 -2.026588e-28 -2.026588e-28)
(6.194127e-14 2.1599661e-44 5.06647e-29)
(-7.9871335e-14 1.013294e-28 -2.8799547e-44)
(-2.185448e-13 1.519941e-28 1.519941e-28)
(-2.602375e-13 -4.2205737e-41 3.039882e-28)
(-2.6887346e-13 -4.9139228e-41 -3.546529e-28)
(-3.7310256e-13 -4.33787e-59 0)
(-2.3294587e-13 1.013294e-28 1.013294e-28)
(-1.3006139e-13 7.4700303e-42 7.4700303e-42)
(9.9078772e-15 3.039882e-28 0)
(-6.5133533e-14 -7.093058e-28 -7.093058e-28)
(-9.2167363e-14 -4.559823e-28 -1.519941e-28)
(1.1864493e-13 1.519941e-28 3.039882e-28)
(-2.2948146e-13 3.039882e-28 -1.0519035e-41)
(-3.9724418e-13 0 4.3199321e-44)
(-5.8972885e-13 -1.3450688e-41 -1.3450688e-41)
(-5.5476017e-13 7.0423879e-42 7.0187953e-42)
(-4.2742684e-13 1.013294e-28 1.013294e-28)
(-5.3852598e-13 2.8799547e-44 1.013294e-28)
(-2.3506609e-13 -8.6398642e-44 -2.026588e-28)
(-4.5396601e-13 7.1998869e-44 1.4399774e-43)
(-4.5203034e-13 3.039882e-28 6.079764e-28)
(-6.4028823e-13 3.039882e-28 -3.039882e-28)
(-5.1566251e-13 -4.053176e-28 -4.053176e-28)
(-2.3905617e-13 -7.093058e-28 -3.546529e-28)
(-1.5194612e-13 5.06647e-29 -7.0270896e-42)
(-1.4416059e-13 -1.9515332e-56 1.013294e-28)
(-1.4893358e-13 2.026588e-28 0)
(-3.2666111e-13 5.6159118e-41 0)
(-2.553746e-13 -9.119646e-28 -4.559823e-28)
(-2.6833195e-13 0 8.4411474e-41)
(-3.930797e-13 0 -1.5467517e-40)
(-3.1268595e-13 1.013294e-27 -7.0414894e-41)
(-6.0985992e-13 -1.9696011e-40 3.546529e-28)
(-7.2930799e-13 -2.026588e-28 -1.013294e-28)
(-8.6357376e-13 0 2.8799547e-44)
(-9.7784746e-13 3.546529e-28 3.546529e-28)
(-8.9362786e-13 2.533235e-28 0)
(-7.1436899e-13 -1.013294e-28 0)
(-6.9463436e-13 7.1998869e-45 0)
(-5.6834708e-13 -7.0342895e-42 0)
(-5.1312051e-13 7.1998869e-45 0)
(-3.5858416e-13 2.533235e-28 0)
(-4.3912986e-13 -2.026588e-28 0)
(-1.9586064e-13 0 0)
(-5.4376845e-13 0 0)
(-6.0250216e-13 -4.559823e-28 -4.559823e-28)
(-3.5820859e-13 3.5171447e-41 0)
(-2.8601347e-13 1.013294e-28 1.013294e-28)
(-3.7680723e-13 1.013294e-28 -1.4054179e-41)
(-4.9313962e-13 -7.0270896e-41 2.533235e-28)
(-7.0601336e-13 -4.053176e-28 0)
(-8.8128009e-13 -8.4411474e-41 0)
(-7.9170176e-13 -1.4348737e-41 -7.1861646e-42)
(-7.6937863e-13 -1.9192891e-41 1.4894588e-54)
(-9.4871892e-13 4.559823e-28 4.559823e-28)
(-9.6393966e-13 -5.06647e-28 0)
(-1.0422648e-12 7.1998869e-45 0)
(-1.0915414e-12 3.039882e-28 3.039882e-28)
(-1.063173e-12 0 3.039882e-28)
(-1.1449477e-12 0 2.1652131e-41)
(-1.2120989e-12 -1.519941e-28 -1.519941e-28)
(-1.2517573e-12 7.0270896e-41 0)
(-1.1216656e-12 1.013294e-28 5.06647e-29)
(-1.3658212e-12 1.4399774e-44 1.4399774e-44)
(-1.5985642e-12 -4.559823e-28 -1.519941e-28)
(-1.763525e-12 3.039882e-28 3.039882e-28)
(-1.7711086e-12 2.026588e-28 2.026588e-28)
(-2.0658245e-12 1.013294e-28 5.06647e-29)
(-2.2888232e-12 -1.519941e-28 1.519941e-28)
(-2.0830345e-12 1.013294e-28 0)
(-2.0742148e-12 3.039882e-28 -1.519941e-28)
(-2.0038807e-12 -2.533235e-28 -2.533235e-28)
(-1.9996873e-12 -2.026588e-28 2.026588e-28)
(-1.8385753e-12 -3.546529e-28 3.546529e-28)
(-2.0195608e-12 4.053176e-28 0)
(-1.9515059e-12 3.9030665e-56 -1.013294e-28)
(-1.9976067e-12 5.06647e-29 5.06647e-29)
(-2.0824081e-12 -1.3150002e-42 -1.3150002e-42)
(-2.0360107e-12 -5.06647e-29 5.06647e-29)
(-1.5743101e-12 1.013294e-28 0)
(-1.5364911e-12 -4.2119338e-41 0)
(-1.4723637e-12 -4.3199321e-44 0)
(-1.4687737e-12 1.519941e-28 0)
(-1.9021102e-12 -3.039882e-28 0)
(-1.553979e-12 -2.533235e-28 0)
(-1.6498837e-12 -7.0342895e-41 0)
(-1.6759329e-12 -1.4054179e-41 0)
(-1.5238908e-12 1.81748e-43 1.81748e-43)
(-1.6974517e-12 -2.026588e-28 1.5612266e-55)
(-1.8079339e-12 1.0639587e-27 3.546529e-28)
(-1.5818219e-12 7.0270896e-41 0)
(-1.4867737e-12 -2.8108358e-41 0)
(-1.3426215e-12 1.7905149e-54 0)
(-1.3870739e-12 -3.039882e-28 -1.519941e-28)
(-1.576447e-12 6.079764e-28 -4.2162538e-41)
(-1.4245628e-12 4.2162538e-41 -1.519941e-28)
(-1.1853937e-12 8.106352e-28 4.053176e-28)
(-1.1015307e-12 0 -5.6274316e-41)
(-7.4549172e-13 0 7.9198756e-44)
(-6.2518401e-13 -4.053176e-28 5.6274316e-41)
(-6.5717147e-13 1.4054179e-41 -1.013294e-28)
(-7.1719592e-13 -5.06647e-29 -5.06647e-29)
(-3.8859219e-13 -4.559823e-28 4.559823e-28)
(-4.7417622e-13 4.559823e-28 -2.5336402e-40)
(-4.4326449e-13 -4.559823e-28 1.519941e-28)
(-3.3999244e-13 4.053176e-28 -4.053176e-28)
(-2.6229823e-13 3.039882e-28 0)
(-2.3972774e-13 8.6398642e-44 0)
(-9.2206566e-14 4.053176e-28 4.053176e-28)
(-4.1023615e-13 0 3.5171447e-41)
(-6.2785505e-13 -2.026588e-28 -1.013294e-28)
(-6.9305796e-13 -6.079764e-28 3.039882e-28)
(-6.9876712e-13 6.586411e-28 6.586411e-28)
(-6.6889758e-13 1.2159528e-27 0)
(-8.745291e-13 3.546529e-28 -3.546529e-28)
(-8.0600171e-13 -2.026588e-28 -1.013294e-28)
(-4.7053297e-13 2.8331767e-41 -1.4171781e-41)
(-5.3685669e-13 2.026588e-28 2.8122758e-41)
(-5.8429702e-13 6.079764e-28 7.806133e-56)
(-4.6206434e-13 0 4.2205737e-41)
(-6.0194184e-13 -1.341972e-41 -6.7098598e-42)
(-8.4391477e-13 -1.519941e-28 -1.519941e-28)
(-1.0626175e-12 -4.053176e-28 -3.0851744e-68)
(-1.1277644e-12 1.013294e-28 -1.4068579e-41)
(-1.4494934e-12 -1.519941e-28 1.519941e-28)
(-1.2539081e-12 3.5999434e-44 0)
(-1.4832672e-12 -3.5171447e-41 0)
(-9.6605334e-13 -3.546529e-28 -3.546529e-28)
(-8.4099189e-13 4.559823e-28 -6.4798982e-44)
(-9.8091556e-13 3.039882e-28 1.2648761e-40)
(-7.7989075e-13 1.013294e-28 1.013294e-28)
(-7.1761083e-13 3.2960352e-54 0)
(-6.615067e-13 3.5999434e-44 0)
(-7.2274918e-13 -2.1081269e-41 -1.519941e-28)
(-5.6431585e-13 -3.546529e-28 9.8328855e-41)
(-6.9427998e-13 4.88473e-43 5.1206559e-43)
(-6.1730624e-13 4.2205737e-41 0)
(-6.3636302e-13 -7.0342895e-42 0)
(-6.4144296e-13 2.8122758e-41 0)
(-4.1282838e-13 4.053176e-28 4.053176e-28)
(-2.4577018e-13 -2.026588e-28 -2.8799547e-44)
(4.2108169e-14 -1.4068579e-41 1.013294e-28)
(-1.2614309e-13 -4.0208363e-54 -1.4466338e-41)
(2.4483369e-13 1.4399774e-44 -1.013294e-28)
(-2.6034927e-14 3.039882e-28 4.2248936e-41)
(-4.0917033e-13 1.013294e-28 2.026588e-28)
(-3.844022e-13 5.06647e-29 5.06647e-29)
(-5.2547508e-13 -2.026588e-28 -4.2205737e-41)
(-3.004243e-13 3.5171447e-41 -3.5171447e-41)
(-2.7969768e-13 4.053176e-28 2.8137158e-41)
(-2.5621725e-13 3.8598335e-43 3.8598335e-43)
(-1.2219874e-13 8.4794742e-41 0)
(-3.4566461e-13 -4.559823e-28 0)
(-3.1540779e-13 7.093058e-28 -7.093058e-28)
(-3.2195087e-13 6.586411e-28 -9.1445763e-41)
(-5.8362702e-14 1.1249103e-40 1.1249103e-40)
(2.0619313e-13 -5.06647e-29 -1.4636499e-56)
(2.4745904e-13 0 -7.0305916e-42)
(3.4309285e-13 0 -1.013294e-28)
(2.6786872e-13 -2.026588e-28 -2.026588e-28)
(5.4732347e-13 0 0)
(5.188463e-13 -2.533235e-28 -2.533235e-28)
(3.1203515e-13 5.06647e-29 -7.0342895e-42)
(2.0012444e-13 1.4399774e-44 1.013294e-28)
(2.4543384e-13 -5.6245516e-41 0)
(-7.0955255e-14 0 0)
(-7.0699612e-14 1.013294e-28 1.013294e-28)
(-9.0983335e-14 3.039882e-28 8.6398642e-44)
(-1.2274426e-14 2.026588e-28 1.9515332e-56)
(-3.5871931e-14 -4.4902447e-43 -2.2451224e-43)
(-2.4353926e-13 1.013294e-28 -1.013294e-28)
(-2.4239291e-14 -1.519941e-28 2.1059669e-41)
(-2.0949134e-13 0 -2.1102868e-41)
(-1.3526526e-13 0 -7.8051056e-54)
(-3.2009755e-13 -1.519941e-28 -1.519941e-28)
(-1.1882719e-13 2.8151558e-41 1.013294e-28)
(-2.6087111e-13 5.06647e-29 -1.4068579e-41)
(-2.4720344e-13 0 -1.7821282e-56)
(-2.6979375e-13 0 1.4075779e-41)
(-3.7745377e-13 -1.013294e-28 -1.013294e-28)
(-5.4230379e-13 8.4440273e-41 2.026588e-28)
(-7.3980917e-13 1.519941e-28 -4.2205737e-41)
(-8.344471e-13 0 -7.0486892e-42)
(-1.0911786e-12 0 0)
(-1.0499554e-12 0 -1.519941e-28)
(-1.0594708e-12 0 1.519941e-28)
(-8.3302982e-13 0 2.1102868e-41)
(-1.0862555e-12 0 -7.1998869e-45)
(-1.276395e-12 0 -4.2205737e-41)
(-1.1756697e-12 0 7.0414894e-42)
(-9.7493992e-13 -9.119646e-28 -4.559823e-28)
(-1.0668732e-12 -8.4368274e-41 1.519941e-28)
(-1.1113715e-12 -5.06647e-29 -5.06647e-29)
(-1.140312e-12 -2.026588e-28 -2.026588e-28)
(-1.4162596e-12 3.039882e-28 -3.039882e-28)
(-1.5345424e-12 -1.519941e-28 0)
(-1.2384107e-12 2.8165957e-41 1.013294e-28)
(-1.1542006e-12 4.053176e-28 4.053176e-28)
(-1.1262465e-12 7.0342895e-41 0)
(-1.2760681e-12 3.1004071e-43 -3.1004071e-43)
(-1.1119689e-12 0 -7.0342895e-42)
(-1.2132127e-12 0 7.1998869e-44)
(-1.0424313e-12 6.586411e-28 9.1352165e-41)
(-9.0756491e-13 7.0342895e-41 -2.533235e-28)
(-8.7638972e-13 5.06647e-29 -5.06647e-29)
(-6.1974217e-13 0 -2.1081269e-41)
(-6.9441016e-13 0 4.2205737e-41)
(-6.3346453e-13 0 5.06647e-29)
(-3.5723799e-13 0 5.06647e-29)
(-6.0558981e-13 0 -1.013294e-28)
(-3.8443321e-13 0 -5.0399208e-44)
(-7.6970838e-13 0 4.9189627e-41)
(-7.4478779e-13 4.053176e-28 2.026588e-28)
(-5.4027735e-13 -2.9523856e-40 -3.546529e-28)
(-5.2709713e-13 -6.079764e-28 4.2205737e-41)
(-6.2617197e-13 1.013294e-28 1.013294e-28)
(-8.2725181e-13 -1.4399774e-44 0)
(-4.8720183e-13 -2.026588e-28 0)
(-6.5555755e-13 1.1237583e-40 0)
(-4.9439411e-13 -1.013294e-28 -5.06647e-29)
(-3.3281586e-13 -4.559823e-28 -4.559823e-28)
(-4.4483285e-13 4.8788331e-57 6.586411e-28)
(-3.3175023e-13 1.519941e-27 5.06647e-28)
(-1.1472869e-13 0 0)
(-3.2374408e-13 -5.1317082e-43 -2.5658541e-43)
(-1.2888405e-13 0 0)
(-2.1442096e-13 0 -1.013294e-28)
(-1.5631274e-13 -5.06647e-28 -2.533235e-28)
(-2.871216e-13 9.8379254e-41 0)
(-1.3712752e-13 9.119646e-28 3.039882e-28)
(-1.9085406e-13 -5.06647e-29 5.06647e-29)
(-2.4034137e-13 2.026588e-28 2.026588e-28)
(-1.6055099e-13 -2.026588e-28 5.6274316e-41)
(-4.2915309e-13 -1.013294e-28 1.013294e-28)
(-4.0867368e-13 1.519941e-28 0)
(-1.67852e-13 -4.2162538e-41 0)
(-2.6377185e-13 3.546529e-28 0)
(-3.3714108e-13 -5.573117e-28 0)
(-2.5300462e-13 0 5.573117e-28)
(-1.394302e-13 -2.533235e-28 -7.0270896e-41)
(-7.9097946e-14 2.026588e-28 -2.026588e-28)
(-1.845951e-13 7.093058e-28 3.546529e-28)
(2.5962263e-14 -2.533235e-28 3.5171447e-41)
(-1.0781475e-13 -7.8383192e-42 -1.0984774e-54)
(-9.8071601e-14 2.533235e-28 1.4636499e-56)
(-1.1395672e-13 3.546529e-28 -3.546529e-28)
(-2.7160852e-13 -1.013294e-28 -5.06647e-29)
(-1.3212677e-13 2.533235e-28 -5.06647e-28)
(1.116684e-13 -2.026588e-28 -2.8137158e-41)
(2.4045896e-13 0 2.8108358e-41)
(4.7554648e-13 2.533235e-28 -2.533235e-28)
(6.4237148e-13 -1.519941e-28 0)
(5.0725525e-13 5.06647e-29 -5.06647e-29)
(6.4418815e-13 -3.039882e-28 -1.013294e-28)
(6.7628696e-13 7.1998869e-44 -2.533235e-28)
(5.0600948e-13 -7.093058e-28 -9.8379254e-41)
(5.2055301e-13 1.519941e-28 1.519941e-28)
(7.4745316e-13 4.2205737e-41 0)
(8.7848118e-13 5.573117e-28 0)
(6.2404865e-13 -5.7599095e-44 -2.026588e-28)
(6.2966754e-13 3.039882e-28 -2.1081269e-41)
(5.4242579e-13 5.06647e-29 5.06647e-29)
(4.3001459e-13 0 0)
(6.4815519e-13 -4.2205737e-41 -1.519941e-28)
(4.8946841e-13 -7.1998869e-45 7.1998869e-45)
(4.2732598e-13 -1.3896024e-41 -3.8711467e-54)
(5.7003195e-13 2.026588e-28 -2.8108358e-41)
(8.8896375e-13 1.4068579e-41 -5.06647e-29)
(1.0644011e-12 2.8108358e-41 2.026588e-28)
(1.0485496e-12 -7.1998869e-45 7.1998869e-45)
(1.2976011e-12 -5.06647e-29 -1.4068579e-41)
(1.5461867e-12 -2.7381267e-59 8.2143802e-59)
(1.4524419e-12 -1.9515332e-56 2.026588e-28)
(1.6349665e-12 -4.2205737e-41 4.2205737e-41)
(1.6319168e-12 -3.5999434e-44 3.5999434e-44)
(1.3831193e-12 -9.119646e-28 -6.3308605e-41)
(9.9934295e-13 -5.6216717e-41 -4.053176e-28)
(1.0368708e-12 4.559823e-28 4.559823e-28)
(1.0872667e-12 0 0)
(9.1093811e-13 0 -5.6259916e-41)
(1.1454637e-12 -1.519941e-28 -2.1081269e-41)
(1.2714405e-12 -1.4756888e-40 -1.4756888e-40)
(1.4077264e-12 2.533235e-28 -3.5999434e-44)
(1.1490814e-12 -1.013294e-28 -1.013294e-28)
(1.1300463e-12 2.1102868e-41 1.519941e-28)
(1.1312247e-12 3.9030665e-56 3.9030665e-56)
(1.0917741e-12 1.4068579e-41 1.4068579e-41)
(9.7409507e-13 -5.06647e-29 -1.4068579e-41)
(1.1509362e-12 8.9804894e-43 -1.2468516e-55)
(1.0846614e-12 -8.4521188e-56 -1.2187807e-42)
(1.0669706e-12 5.06647e-29 5.06647e-29)
(1.0923257e-12 0 2.533235e-28)
(1.1048548e-12 0 6.3308605e-41)
(9.2993106e-13 -5.06647e-28 -7.0342895e-41)
(9.4452963e-13 3.546529e-28 -7.093058e-28)
(1.1470505e-12 -2.9523856e-40 3.546529e-28)
(1.0618251e-12 -3.546529e-28 3.546529e-28)
(8.5759623e-13 4.053176e-28 1.9515332e-56)
(8.101218e-13 0 0)
(8.4526863e-13 -2.533235e-28 -2.4394166e-56)
(8.1121274e-13 -1.013294e-28 1.013294e-28)
(6.4116176e-13 1.013294e-28 -1.013294e-28)
(6.9354741e-13 2.533235e-28 2.4394166e-56)
(9.5890858e-13 0 4.2162538e-41)
(7.2959847e-13 -1.013294e-28 1.4399774e-44)
(6.1044199e-13 -2.026588e-28 2.026588e-28)
(5.1202331e-13 8.106352e-28 -8.106352e-28)
(6.5594436e-13 5.573117e-28 -1.5475437e-40)
(5.9668654e-13 -4.053176e-28 4.053176e-28)
(5.5740819e-13 -4.559823e-28 -6.3243806e-41)
(6.5967753e-13 -6.3243806e-41 6.3243806e-41)
(9.4101142e-13 -1.013294e-28 -1.013294e-28)
(1.043721e-12 -9.4998218e-56 3.4211388e-43)
(9.1767061e-13 -1.013294e-28 1.9515332e-56)
(7.6000785e-13 0 -2.1110068e-41)
(8.3488132e-13 0 -4.2227337e-41)
(8.6444641e-13 0 5.6245516e-41)
(6.1395622e-13 -5.06647e-29 1.4068579e-41)
(8.0521718e-13 1.013294e-28 -9.7576662e-57)
(7.7607476e-13 0 0)
(5.9854249e-13 5.06647e-29 -5.06647e-29)
(5.5374635e-13 1.4039779e-41 0)
(4.5811613e-13 1.013294e-28 0)
(1.9445313e-13 0 -1.519941e-28)
(8.5122387e-14 0 -2.8137158e-41)
(4.83895e-15 1.013294e-28 -1.013294e-28)
(-5.4708787e-15 2.8108358e-41 0)
(5.4116757e-14 -1.4039779e-41 0)
(-1.1850026e-13 -2.026588e-28 -4.053176e-28)
(-1.361505e-13 2.533235e-28 -2.1088469e-40)
(1.5667519e-16 -1.4756888e-40 7.093058e-28)
(-3.0584577e-14 -3.546529e-28 -3.546529e-28)
(-7.6927948e-14 0 1.4399774e-44)
(1.2150379e-13 -1.519941e-28 -2.1102868e-41)
(2.0726634e-13 -2.1102868e-41 -1.519941e-28)
(1.2842609e-13 -5.06647e-29 0)
(1.494039e-13 5.06647e-29 0)
(1.3088121e-13 -5.06647e-29 0)
(-5.3013433e-15 5.06647e-29 -5.06647e-29)
(-5.5994594e-13 -2.026588e-28 -5.6216717e-41)
(-5.6887861e-13 0 5.06647e-29)
(-5.9701778e-13 2.026588e-28 0)
(-7.4491395e-13 1.519941e-28 0)
(-9.0525874e-13 5.06647e-29 5.06647e-29)
(-9.6731088e-13 5.06647e-29 -7.1998869e-45)
(-8.1809207e-13 0 -2.533235e-28)
(-1.117317e-12 1.013294e-28 0)
(-9.3937189e-13 -3.039882e-28 0)
(-1.2010678e-12 -5.06647e-28 5.06647e-28)
(-1.2354755e-12 2.026588e-28 5.6216717e-41)
(-9.6586309e-13 -2.8906129e-41 -4.0547893e-54)
(-9.2837826e-13 5.6274316e-41 2.8137158e-41)
(-7.2239944e-13 -6.079764e-28 -2.026588e-28)
(-6.1396132e-13 4.8788331e-57 5.573117e-28)
(-2.5669847e-13 5.573117e-28 -1.5467517e-40)
(-2.6186947e-13 1.013294e-27 1.4061379e-40)
(-1.0351212e-13 -1.9675851e-40 -9.8379254e-41)
(1.2128753e-14 -3.039882e-28 -1.519941e-28)
(-1.2368673e-13 5.06647e-29 0)
(-5.0892129e-15 9.621953e-44 0)
(7.7815202e-14 5.06647e-29 5.06647e-29)
(6.6397959e-14 -2.026588e-28 7.3182497e-55)
(4.5266332e-13 9.119646e-28 4.559823e-28)
(4.3426739e-13 0 0)
(2.0848229e-13 0 0)
(7.1739849e-14 -4.053176e-28 -2.026588e-28)
(-1.1780764e-13 -1.1709199e-55 -2.3418399e-55)
(1.4588915e-14 -2.026588e-28 -1.013294e-28)
(-2.4759886e-13 0 0)
(-7.5959795e-14 0 0)
(-8.033343e-15 -3.039882e-28 -1.519941e-28)
(2.3114007e-13 -7.806133e-56 -1.5612266e-55)
(4.6240803e-13 2.026588e-28 1.013294e-28)
(6.1446744e-13 0 0)
(5.3483289e-13 0 0)
(5.7310652e-13 2.886853e-41 1.4434265e-41)
(7.9755609e-13 1.519941e-28 -2.1599661e-44)
(4.0266579e-13 1.013294e-28 5.06647e-29)
(4.3967147e-13 2.026588e-28 -2.026588e-28)
(4.4082055e-13 0 4.2227337e-41)
(5.9555693e-13 -2.026588e-28 -2.8151558e-41)
(4.192751e-13 2.8137158e-41 1.4068579e-41)
(1.6072601e-13 -1.013294e-28 -5.06647e-29)
(1.9057893e-13 3.039882e-28 0)
(1.9984189e-13 0 0)
(3.1164417e-13 1.519941e-28 0)
(2.140536e-13 -1.013294e-28 0)
(-3.3837576e-14 1.4399774e-44 0)
(-3.0336456e-13 2.533235e-28 -2.533235e-28)
(1.0747352e-13 -2.533235e-28 7.0306895e-41)
(-5.022687e-14 -1.1796295e-44 -1.1796295e-44)
(1.9750648e-14 -1.519941e-28 0)
(2.7109687e-13 2.533235e-28 0)
(-4.0354653e-14 5.06647e-28 0)
(1.8607639e-13 -1.9696011e-40 0)
(-1.5122402e-13 -3.546529e-28 0)
(-9.8225772e-14 -5.06647e-29 0)
(-1.7721366e-13 -1.4068579e-41 0)
(-4.4030363e-13 1.519941e-28 -1.519941e-28)
(-5.8870166e-13 -1.013294e-28 5.6245516e-41)
(-7.0476999e-13 1.013294e-28 1.013294e-28)
(-6.8257312e-13 3.546529e-28 0)
(-8.2533383e-13 -4.559823e-28 0)
(-6.9677773e-13 -4.053176e-28 0)
(-7.5179425e-13 7.0342895e-41 0)
(-6.0361815e-13 1.519941e-28 0)
(-6.7875253e-13 -3.039882e-28 0)
(-6.5326756e-13 5.7599095e-44 0)
(-5.9152929e-13 3.039882e-28 -3.039882e-28)
(-6.8419242e-13 -1.013294e-28 2.8122758e-41)
(-7.0442394e-13 -2.533235e-28 -2.533235e-28)
(-5.6989957e-13 -4.559823e-28 0)
(-5.2677565e-13 1.519941e-28 0)
(-3.5099698e-13 -4.053176e-28 -2.026588e-28)
(-5.2007566e-13 1.4075779e-40 7.0378894e-41)
(-3.2736833e-13 1.013294e-28 5.06647e-29)
(-2.1593459e-13 3.546529e-28 0)
(-5.7540025e-14 -3.5999434e-44 0)
(-3.7016778e-14 -2.026588e-28 0)
(4.3409216e-14 -1.1519819e-43 4.053176e-28)
(2.6945829e-13 5.573117e-28 1.5483357e-40)
(5.8929982e-14 0 -5.573117e-28)
(2.8539236e-13 -5.573117e-28 0)
(1.8789533e-13 0 0)
(5.7898703e-15 6.079764e-28 0)
(3.0175788e-13 0 0)
(3.3131078e-13 0 0)
(3.0236258e-13 0 0)
(3.2180719e-13 -5.06647e-29 0)
(3.9122842e-13 -4.1180461e-71 8.5528471e-44)
(5.1937124e-13 1.519941e-28 2.1599661e-44)
(4.2841458e-13 0 2.026588e-28)
(4.9427841e-13 2.026588e-28 0)
(5.5155152e-13 -4.2205737e-41 0)
(3.9936e-13 0 0)
(2.8650018e-13 0 0)
(2.1723355e-13 0 0)
(3.2278557e-13 0 0)
(3.8076918e-13 -3.039882e-28 0)
(3.8742706e-13 9.8480053e-41 -3.546529e-28)
(4.7058404e-13 3.039882e-28 -4.3199321e-44)
(4.6830678e-13 0 2.533235e-28)
(4.1808411e-13 2.026588e-28 0)
(2.5002783e-13 4.2184137e-41 0)
(6.7584741e-14 -2.026588e-28 0)
(3.1325536e-13 0 -2.026588e-28)
(1.4359885e-13 2.026588e-28 1.1251983e-40)
(1.4064812e-13 -5.06647e-29 5.06647e-29)
(8.4352774e-14 -1.4075779e-40 0)
(-4.9961213e-14 -4.053176e-28 4.053176e-28)
(-3.6394443e-13 4.053176e-28 1.1260623e-40)
(-6.1301891e-13 0 -3.039882e-28)
(-4.5778603e-13 1.013294e-28 0)
(-3.6454749e-13 1.4068579e-41 0)