/*--------------------------------*- C++ -*----------------------------------*\
  =========                 |
  \\      /  F ield         | OpenFOAM: The Open Source CFD Toolbox
   \\    /   O peration     | Website:  https://openfoam.org
    \\  /    A nd           | Version:  7
     \\/     M anipulation  |
\*---------------------------------------------------------------------------*/
FoamFile
{
    version     2.0;
    format      ascii;
    class       volScalarField;
    location    "0.00112";
    object      Uy;
}
// * * * * * * * * * * * * * * * * * * * * * * * * * * * * * * * * * * * * * //

dimensions      [0 1 -1 0 0 0 0];

internalField   nonuniform List<scalar> 
5000
(
8.1901401e-17
8.9200094e-17
0
0
-4.7193172e-17
5.3686042e-32
4.7257976e-17
0
0
-4.7321914e-17
-9.4667571e-17
4.7341714e-17
4.7344859e-17
-4.7344607e-17
0
-4.733321e-17
-6.8468183e-48
4.7306069e-17
0
4.7263956e-17
-4.7239301e-17
-4.7215229e-17
9.4384986e-17
-4.7174148e-17
-4.7160507e-17
-3.8866165e-31
4.7153973e-17
4.7162244e-17
-9.4350761e-17
8.182212e-31
-8.2530245e-31
4.723983e-17
9.4525376e-17
-9.4570011e-17
8.2011634e-31
-4.1154597e-30
-1.6412177e-30
9.4682907e-17
-9.4692827e-17
-9.4697923e-17
9.469586e-17
-3.2564615e-30
-9.4681424e-17
4.733545e-17
1.4198453e-16
-4.7321164e-17
-4.7312587e-17
-3.2401929e-30
-9.4590738e-17
0
4.7277342e-17
6.717283e-33
-4.7258937e-17
9.4500347e-17
-1.6514622e-30
-9.4463162e-17
4.7221772e-17
-1.6303767e-30
-4.7203198e-17
0
4.7184705e-17
1.6089876e-30
1.340548e-32
4.7157722e-17
-4.7148113e-17
1.6479376e-30
4.7129973e-17
-4.7121397e-17
-4.7111736e-17
4.710299e-17
4.7093045e-17
-4.7083878e-17
-4.7073356e-17
9.4126898e-17
4.7052009e-17
-4.704102e-17
0
4.7016018e-17
-6.6793776e-33
-4.6988206e-17
4.6972801e-17
-1.3346235e-32
1.3341591e-32
4.6926026e-17
4.6909464e-17
1.6326958e-30
-4.6878373e-17
0
-4.6850396e-17
-4.8590118e-30
-1.6370312e-30
4.681903e-17
4.6811456e-17
-9.361315e-17
-3.2390548e-30
4.6801324e-17
0
0
-4.6805841e-17
-3.2462983e-30
9.3632423e-17
-4.682335e-17
-9.3659858e-17
0
4.6844896e-17
4.6852763e-17
-4.6859156e-17
-4.6866031e-17
0
0
4.6879709e-17
4.6882975e-17
0
-4.68854e-17
1.6390225e-30
4.6883546e-17
-4.6880334e-17
1.3323402e-32
-1.6386213e-30
-6.8833748e-50
9.3724921e-17
-1.9976198e-32
-4.6849293e-17
0
-4.6834027e-17
4.6826091e-17
4.6817043e-17
-9.3616561e-17
-4.6798644e-17
9.357837e-17
4.6779066e-17
-4.6769026e-17
-4.675851e-17
-4.6748009e-17
0
4.6726355e-17
4.6715338e-17
-4.6704335e-17
-1.6190651e-30
4.6682281e-17
-4.6671357e-17
-4.6660599e-17
0
4.6639755e-17
4.6629804e-17
-4.6620258e-17
4.6611174e-17
-2.6490521e-32
-4.6594641e-17
4.6587299e-17
-4.6580633e-17
3.2431434e-30
4.656946e-17
-4.6564993e-17
4.6561281e-17
4.6558314e-17
-4.6556074e-17
0
0
-4.6553344e-17
-4.6553584e-17
4.6554259e-17
4.655531e-17
-4.6556694e-17
-3.2287728e-30
4.6560156e-17
-4.6562067e-17
-4.6563991e-17
0
4.6567565e-17
4.6569074e-17
0
-4.6571169e-17
-4.6571613e-17
0
4.6571181e-17
9.6887986e-30
-4.6568843e-17
4.6566926e-17
4.6564505e-17
-4.6561585e-17
-3.2155288e-30
3.2020288e-30
1.9845433e-32
4.6545155e-17
-4.6539953e-17
-6.4542199e-30
3.2002483e-30
-3.199815e-30
4.6515485e-17
0
0
-4.6494012e-17
-4.6486392e-17
0
0
4.646245e-17
2.1436685e-49
-4.644577e-17
0
4.6428659e-17
-4.6419972e-17
-1.2861088e-29
9.2804765e-17
-4.6393496e-17
-9.6303886e-30
-6.5903643e-33
-4.6366532e-17
4.6357455e-17
-6.5864951e-33
-6.4139789e-30
3.2063531e-30
-4.6320754e-17
0
4.6302167e-17
3.2037801e-30
1.2845404e-29
4.627396e-17
0
-4.6254916e-17
-4.6245315e-17
0
0
0
4.6206345e-17
3.1971119e-30
-4.6186511e-17
0
0
4.615635e-17
4.6146202e-17
-4.6136017e-17
-4.6125804e-17
0
4.6105333e-17
4.6095099e-17
-4.6084885e-17
-4.6074706e-17
0
4.6054529e-17
-1.278566e-29
-3.1924604e-30
4.6025005e-17
-4.6015447e-17
-4.6006067e-17
0
4.5987931e-17
-6.3902908e-30
4.5970765e-17
6.3749174e-30
-9.1909448e-17
4.5947166e-17
-6.3717742e-30
-1.5946626e-29
-3.1784277e-30
-4.5920273e-17
4.5914412e-17
4.5908895e-17
0
-4.5898868e-17
-4.5894335e-17
0
4.588615e-17
4.5882456e-17
-9.1757987e-17
-4.5875737e-17
4.5872656e-17
4.5869718e-17
1.2723283e-29
-4.5864093e-17
4.5861338e-17
-3.1802456e-30
-4.5855795e-17
4.5852933e-17
-3.1861632e-30
3.1924615e-30
-1.3029516e-32
-3.165929e-30
4.5836234e-17
0
0
-4.5823072e-17
-4.5817979e-17
0
0
0
0
4.5786151e-17
3.1551672e-30
-9.1540225e-17
1.9509228e-32
4.575202e-17
4.5742179e-17
-6.349405e-30
-6.3348931e-30
-6.4956948e-33
-4.569735e-17
-4.5684749e-17
-4.5671581e-17
9.1315686e-17
1.3693059e-16
-4.5628639e-17
-9.122633e-17
0
4.5580445e-17
4.5563186e-17
-4.5545318e-17
1.2939504e-32
-1.9401108e-32
1.2928459e-32
4.546757e-17
4.5446509e-17
-4.5424771e-17
-9.0804687e-17
4.5379209e-17
9.8922949e-49
4.5330749e-17
1.2554651e-29
-9.0558472e-17
0
0
9.0391709e-17
-2.5083583e-29
-9.0271798e-17
0
4.5072189e-17
4.5038849e-17
-4.5004477e-17
6.3904846e-33
-6.2384301e-30
6.3799371e-33
4.485596e-17
-4.4815889e-17
-4.4774561e-17
0
4.4687973e-17
-6.1981843e-30
-4.4595848e-17
8.909519e-17
-1.2343512e-29
-4.444647e-17
-1.2327191e-29
-8.8677704e-17
8.8564957e-17
4.4224324e-17
-4.4164331e-17
-6.2673344e-33
-4.4038607e-17
0
0
4.3834784e-17
-6.0697731e-30
-8.7376035e-17
6.1975212e-33
1.3059584e-16
-4.3450255e-17
-4.3366027e-17
8.6558397e-17
-4.3189699e-17
4.3097454e-17
8.6004781e-17
-4.2904434e-17
-4.2803509e-17
-4.2699538e-17
4.2592445e-17
1.0465982e-47
-4.236858e-17
4.225165e-17
-4.2131282e-17
4.2007395e-17
1.1605412e-29
1.1865706e-32
4.1613815e-17
-8.2950087e-17
4.1332346e-17
1.1436433e-29
-1.1382898e-29
-4.0879884e-17
-8.1441334e-17
1.2167135e-16
1.1203783e-29
-2.2311885e-29
1.1095452e-29
-7.9715883e-17
7.9343007e-17
-1.0951658e-29
-7.8568187e-17
0
0
3.8665464e-17
-5.3327886e-30
-3.8227126e-17
-3.799995e-17
3.7767334e-17
1.1258761e-16
-3.7285483e-17
-3.7036096e-17
-1.045378e-32
-3.6520028e-17
0
7.1960819e-17
7.140317e-17
-3.5416654e-17
-7.0251086e-17
-3.4828181e-17
6.9048994e-17
6.8428839e-17
-6.7795757e-17
-6.7149609e-17
0
6.5817561e-17
-3.2565696e-17
-6.4431612e-17
3.1859047e-17
3.1495353e-17
-4.4230806e-33
4.2689031e-30
3.0362046e-17
-2.9970003e-17
-2.9570727e-17
2.9164163e-17
-3.987602e-30
-4.0257888e-33
-3.8697065e-30
-2.7464038e-17
2.7020311e-17
-1.1066534e-29
-3.6251335e-30
-7.1170827e-30
-2.516947e-17
2.4687627e-17
-3.3596631e-30
-6.5711425e-30
-3.2963259e-33
-4.5366203e-17
-2.2162628e-17
2.1634411e-17
4.2196908e-17
-2.8538249e-30
-4.0006727e-17
-1.9444261e-17
3.7754963e-17
1.8303053e-17
-1.7721008e-17
-1.7131382e-17
-4.5888731e-30
1.5929557e-17
0
0
1.4071146e-17
0
-1.2795786e-17
1.2147385e-17
1.6331028e-33
-3.0056059e-30
0
-9.484163e-18
8.8013888e-18
8.1120152e-18
-1.4832285e-17
-6.7138757e-18
6.0053229e-18
0
0
-3.8431216e-18
8.6424026e-31
2.37333e-18
0
0
-9.1891732e-20
-2.758167e-31
-1.4264796e-18
0
0
0
0
0
0
0
0
-1.7028253e-17
-5.1742785e-30
1.0133211e-17
-1.0948127e-17
1.1765935e-17
-1.2586495e-17
3.7275267e-30
1.4236701e-17
4.1834483e-30
1.5896777e-17
0
0
-1.8403497e-17
-5.3432691e-30
2.0083034e-17
0
0
0
0
0
0
0
-5.3691374e-17
2.3053766e-29
5.7081494e-17
-2.9387958e-17
-4.2965922e-33
-3.1080967e-17
1.7703702e-29
6.5543248e-17
3.3615306e-17
-4.0458484e-47
-1.0589882e-16
0
7.3955746e-17
0
0
-7.8964021e-17
1.1182589e-29
1.2342279e-16
-4.1966536e-17
-4.2789893e-17
4.3610505e-17
-4.4427908e-17
4.5242461e-17
1.2775204e-29
-4.6862063e-17
4.766668e-17
0
4.9265775e-17
-5.0059371e-17
-1.0169863e-16
5.1635302e-17
5.241683e-17
5.3194229e-17
5.3967576e-17
-1.0947242e-16
-5.5500058e-17
5.6259483e-17
0
-5.7763484e-17
5.8508063e-17
5.9247787e-17
-1.7994613e-16
-1.7255064e-32
1.2286911e-16
-6.2152725e-17
-8.7281896e-30
-6.3571954e-17
1.8267575e-32
1.299372e-16
-6.5657861e-17
0
1.8609817e-29
9.6193349e-33
6.8355162e-17
-6.9014196e-17
1.9345042e-29
9.7522152e-30
1.0082952e-32
7.1585839e-17
-7.2212356e-17
2.9247095e-47
2.0394459e-29
1.0523492e-32
1.4930445e-16
1.0436386e-29
-7.5831803e-17
0
0
7.7548795e-17
3.2499928e-29
-7.8658343e-17
7.9202533e-17
-1.1071066e-29
9.9102835e-47
1.1217171e-29
-8.1307545e-17
-8.1815806e-17
-1.1417136e-29
8.2809938e-17
0
0
-8.4246191e-17
8.470994e-17
-7.0898649e-29
-8.5615376e-17
8.6056646e-17
0
-8.6916705e-17
-8.7335213e-17
8.7746091e-17
8.8149466e-17
0
-8.8932844e-17
-8.9313118e-17
1.7937098e-16
9.0050038e-17
-9.0406985e-17
-9.0755938e-17
-1.2634968e-29
-9.1430408e-17
-2.547874e-29
1.8414623e-16
0
0
0
-9.3263347e-17
-9.3540778e-17
0
9.4071592e-17
1.3069246e-29
-9.4569821e-17
0
0
9.5256056e-17
1.3241276e-29
-1.3255974e-29
9.5868212e-17
-9.6055742e-17
4.0042719e-29
9.6405638e-17
0
9.6722061e-17
1.3449113e-29
-9.7004854e-17
9.7133472e-17
-9.7253678e-17
-9.7365349e-17
9.7468403e-17
0
-9.7648925e-17
-9.7726193e-17
9.7794907e-17
9.7854916e-17
0
9.7948794e-17
-9.7982501e-17
-9.8007164e-17
9.8023169e-17
1.9606018e-16
-5.4440872e-29
-2.9405261e-16
-1.9855825e-48
9.7969172e-17
1.958637e-16
-5.430598e-29
-1.9565956e-16
9.7765437e-17
-9.7691858e-17
9.7609168e-17
9.7517567e-17
-1.9483337e-16
0
0
1.9411821e-16
6.1173649e-47
-1.9354922e-16
0
0
1.9255618e-16
7.9111166e-47
-1.9180019e-16
0
0
1.9052534e-16
9.5031146e-17
-1.8958028e-16
-9.4539563e-17
0
1.8801895e-16
-5.2053949e-29
-1.8688201e-16
9.3142143e-17
0
-9.251524e-17
9.2187238e-17
-1.3052583e-32
-9.1501665e-17
9.114414e-17
-9.077679e-17
-9.0399521e-17
9.00123e-17
8.9615183e-17
-2.4771335e-29
-8.8791186e-17
8.8364157e-17
2.4415617e-29
-8.7480171e-17
8.7023195e-17
-8.6556143e-17
-8.6079045e-17
8.5591947e-17
8.5094809e-17
-2.3488287e-29
-8.4070273e-17
8.3542955e-17
-1.1795807e-32
-8.24582e-17
8.1900725e-17
-8.1333248e-17
-8.0755788e-17
8.0168316e-17
1.5914169e-16
-4.3875597e-29
-1.566923e-16
7.7718944e-17
-1.0953987e-32
-1.5286979e-16
-2.1537463e-32
7.5111786e-17
0
-7.3749831e-17
0
7.2349559e-17
0
0
0
6.9435896e-17
3.6814649e-47
-6.7923705e-17
0
-6.6375566e-17
1.8212549e-29
6.4792206e-17
0
0
0
6.1523474e-17
-1.6851218e-29
-5.9840041e-17
0
-5.812536e-17
-1.5890899e-29
5.6380617e-17
0
-5.4607085e-17
5.3709931e-17
-2.9341423e-29
-5.1895807e-17
5.0979173e-17
0
4.9127751e-17
1.3382342e-29
-4.7253483e-17
0
-4.5358024e-17
4.4402915e-17
2.4126605e-29
-4.2479007e-17
2.3047489e-29
5.7608634e-33
-1.0991361e-29
5.4830071e-33
3.7600732e-17
0
-3.5627262e-17
9.6130257e-30
9.3375448e-30
-4.8014849e-47
8.7896299e-30
0
5.9316413e-17
7.9580866e-30
-2.7659734e-17
2.666012e-17
-7.1218039e-30
-2.4661617e-17
-2.3663325e-17
-6.2939117e-30
6.0173562e-30
-2.0675784e-17
1.9683394e-17
1.8693221e-17
0
1.6720745e-17
-4.3704211e-30
-1.476077e-17
0
0
0
2.1775564e-17
-1.1030603e-29
-1.7958926e-17
0
0
0
0
0
0
0
3.1673956e-18
-3.8223063e-31
3.9328345e-19
1.0732721e-18
-1.9417386e-18
-2.8019275e-18
1.0149959e-30
2.4942732e-30
5.3292224e-18
-6.1532706e-18
6.9678272e-18
7.7726949e-18
-8.567686e-18
-9.3526291e-18
5.6214565e-30
1.0891742e-17
1.1645607e-17
-3.4366076e-30
-1.312126e-17
-1.3842811e-17
1.4553368e-17
1.5252829e-17
-1.5941093e-17
1.6618074e-17
0
-1.7937911e-17
-1.8580657e-17
5.3292967e-30
1.983154e-17
-2.0439606e-17
2.1036059e-17
2.1620889e-17
-2.2194094e-17
2.2755674e-17
6.4715133e-30
-2.384402e-17
-2.4370839e-17
-3.5365319e-33
5.0779869e-17
1.4370323e-29
-2.636331e-17
-2.6833021e-17
0
2.7738817e-17
0
0
0
2.9418452e-17
2.9811462e-17
-3.0193946e-17
-3.056602e-17
0
3.127946e-17
-8.7850467e-30
-3.1952899e-17
0
0
3.2890607e-17
-1.8419908e-29
-3.3469258e-17
0
0
3.4270684e-17
-1.9161627e-29
-3.4762502e-17
0
3.5221905e-17
-9.8409424e-30
9.8942838e-30
-9.9556929e-30
-3.6048739e-17
0
-3.6418883e-17
2.0307101e-29
3.6761988e-17
0
3.7079391e-17
-3.7228867e-17
-3.7372416e-17
7.5020394e-17
1.0463235e-29
-7.5538178e-17
1.0521444e-29
3.8006821e-17
0
0
3.8326514e-17
-1.0664085e-29
-3.8516893e-17
0
3.8690492e-17
-3.8771363e-17
-3.8848466e-17
3.8921926e-17
0
-3.9058414e-17
3.9121652e-17
2.174897e-29
-2.1780994e-29
3.9293368e-17
-3.2763381e-29
3.9391724e-17
-3.9438056e-17
1.0957687e-29
-2.1949348e-29
-7.9122402e-17
1.0984317e-29
3.963225e-17
0
0
0
-7.9498138e-17
-3.977413e-17
7.9593335e-17
3.9816381e-17
0
0
3.9872287e-17
-8.602889e-49
-3.9902846e-17
0
-7.9859484e-17
-3.9941819e-17
7.990583e-17
3.9962568e-17
0
-7.9958032e-17
-1.1364609e-32
1.1997426e-16
-1.1094771e-29
-8.0000844e-17
4.0004299e-17
2.2741649e-32
-4.0010669e-17
1.1116665e-29
2.2200288e-29
4.0017025e-17
0
4.001742e-17
-2.2217777e-29
-8.0029389e-17
4.0012634e-17
-6.6614149e-29
-4.0007299e-17
8.0011324e-17
-5.6849319e-33
-4.0002411e-17
0
0
0
-3.999042e-17
3.9985134e-17
7.9957375e-17
-3.9971117e-17
-1.1096927e-29
-1.108337e-29
-3.9947662e-17
0
3.9933578e-17
-5.6737112e-33
-7.9832514e-17
3.9912143e-17
2.2144294e-29
-3.9894902e-17
-3.9906208e-17
2.2191435e-29
7.9867506e-17
0
3.9920884e-17
3.9913624e-17
0
-3.9898503e-17
-3.9891015e-17
3.988367e-17
0
-3.9869403e-17
0
0
3.984872e-17
-3.3178641e-29
-3.9835459e-17
0
0
3.9816155e-17
3.980981e-17
-3.9803491e-17
-3.9797152e-17
3.9790816e-17
3.9784515e-17
-7.955648e-17
-3.977197e-17
1.1047797e-29
3.975945e-17
-2.2054748e-29
-2.2051284e-29
3.9740719e-17
-3.9734486e-17
3.9728262e-17
-3.9722043e-17
-3.3863755e-32
3.9709628e-17
-7.9406862e-17
-3.9697239e-17
-3.9691057e-17
7.9369757e-17
7.9357411e-17
-3.9672538e-17
3.9666374e-17
-3.9660212e-17
2.2022283e-29
7.92958e-17
-3.9641714e-17
1.1000372e-29
-1.1009917e-29
-3.9623174e-17
0
0
3.9604614e-17
3.9598844e-17
0
-3.9586115e-17
-3.957975e-17
0
-3.9567755e-17
1.0985471e-29
3.9555425e-17
-3.9549254e-17
1.096909e-29
3.9536928e-17
0
3.9524612e-17
2.1941363e-29
-3.9512308e-17
3.9506165e-17
-1.095153e-29
-3.9493879e-17
-3.9487746e-17
-1.0957645e-29
3.9475471e-17
0
-3.9463224e-17
3.9457146e-17
-1.1212669e-32
2.1906143e-29
3.9438737e-17
-3.9432609e-17
0
-7.8840828e-17
8.7511725e-29
3.9408183e-17
2.1871141e-29
7.8791912e-17
-7.8779696e-17
-7.876746e-17
7.8755245e-17
7.874306e-17
3.9365395e-17
0
-3.9353235e-17
-7.8694192e-17
5.5907048e-33
-3.9335224e-17
3.9329137e-17
3.932287e-17
-3.9316782e-17
7.8621743e-17
-7.8609849e-17
-6.5452835e-29
7.8585814e-17
-7.8573827e-17
2.1803904e-29
-3.9274954e-17
3.9268982e-17
3.9263018e-17
-3.9257051e-17
-1.0888091e-29
-7.8490283e-17
7.8478374e-17
7.8466486e-17
-7.8454606e-17
-1.0885413e-29
-3.9215382e-17
2.1775358e-29
3.9203482e-17
1.0878804e-29
6.1459415e-49
3.9185624e-17
7.8359332e-17
-3.9173714e-17
-1.3926877e-48
-3.9161794e-17
-6.5225658e-29
3.9149881e-17
-7.8287834e-17
2.1724542e-29
7.8264006e-17
1.5476523e-49
-3.9120085e-17
0
0
-3.9102211e-17
3.9096261e-17
7.8180606e-17
0
0
0
-3.9066522e-17
-3.9060581e-17
0
3.904871e-17
-3.9042779e-17
-6.5016359e-29
7.8061877e-17
0
0
0
-3.9007308e-17
-3.9001422e-17
3.8995535e-17
-3.8989652e-17
-2.1650037e-29
7.795582e-17
0
0
-7.792071e-17
1.1071539e-32
3.8948683e-17
-3.8942865e-17
3.8937051e-17
-3.8931247e-17
2.1617646e-29
7.7839317e-17
0
0
-3.8902329e-17
-3.8896577e-17
0
0
3.8879361e-17
3.887364e-17
0
-3.8862237e-17
-3.8856535e-17
3.8850845e-17
-3.8845167e-17
-3.8839507e-17
3.8833867e-17
3.8828251e-17
-2.1560552e-29
-3.8817031e-17
3.881143e-17
1.0770097e-29
-3.8800283e-17
0
-3.8789182e-17
2.1533366e-29
3.8778061e-17
-3.877253e-17
2.1524176e-29
3.8761682e-17
0
-3.8750833e-17
1.075881e-29
5.5052725e-33
-3.8734555e-17
3.8729196e-17
3.8723835e-17
0
-7.7426309e-17
4.2993583e-29
3.8702527e-17
5.4992097e-33
7.7383983e-17
-7.7373485e-17
-7.7363022e-17
7.7352614e-17
3.8671142e-17
0
-7.7321625e-17
6.4359424e-29
7.7300643e-17
0
-7.7278843e-17
-2.1455858e-29
3.8629007e-17
1.0725188e-29
7.7239646e-17
-7.7229951e-17
-9.6434852e-29
7.7207661e-17
-7.7197339e-17
2.1417131e-29
7.7178859e-17
3.8584449e-17
-7.7158499e-17
-3.8574231e-17
7.7138754e-17
-7.7129007e-17
-9.6310369e-29
7.7109537e-17
-7.709984e-17
1.0703194e-29
-3.8540167e-17
4.2758158e-29
1.155916e-16
-2.1384708e-29
-7.7041723e-17
3.8515976e-17
7.7022323e-17
-3.850646e-17
2.137696e-29
-3.8497419e-17
-4.2754658e-29
3.8487822e-17
-7.6965878e-17
3.2042973e-29
-4.27171e-29
2.1342398e-29
3.8464713e-17
0
3.8455703e-17
3.8451034e-17
0
0
0
0
0
-3.8423863e-17
-3.8419381e-17
0
3.8410605e-17
-3.8406192e-17
-6.3969554e-29
7.6794762e-17
0
0
0
-3.8379871e-17
-3.8375542e-17
3.8371187e-17
3.8366846e-17
-7.6725097e-17
-6.3907949e-29
7.6707927e-17
0
-7.6690803e-17
-6.3868557e-29
3.8336911e-17
-3.8332657e-17
3.8328431e-17
-3.8324215e-17
-2.1270511e-29
7.6631582e-17
0
0
-3.8303249e-17
-3.8299056e-17
0
-3.8290754e-17
-1.088171e-32
-3.8282465e-17
3.8278328e-17
1.1482263e-16
0
7.6531982e-17
7.6523764e-17
0
-1.1476107e-16
-7.6499188e-17
7.6491012e-17
-3.8241427e-17
-3.8237348e-17
1.1469984e-16
3.8229227e-17
5.4321246e-33
3.8221122e-17
-3.821707e-17
-3.8213024e-17
-3.8208981e-17
-6.8975579e-50
-3.8200904e-17
-3.8196876e-17
3.8192854e-17
0
7.6369623e-17
7.6361584e-17
0
-3.8172758e-17
-7.6337476e-17
-2.11789e-29
-3.8160723e-17
-7.631345e-17
7.6305444e-17
7.6297423e-17
3.8144708e-17
3.8140708e-17
0
-3.8132688e-17
-1.1438604e-16
3.8124686e-17
7.3216244e-48
-1.1435005e-16
7.6225341e-17
3.8108669e-17
3.810466e-17
7.6201297e-17
-7.619327e-17
-3.8092617e-17
3.8088592e-17
3.8084562e-17
3.8080543e-17
-1.1422958e-16
-3.8072491e-17
1.1420535e-16
3.8064405e-17
-3.8060362e-17
-7.6112616e-17
3.8052248e-17
-3.8048188e-17
6.3341316e-29
-6.3356156e-29
-1.1410788e-16
3.803187e-17
3.8027772e-17
7.6047326e-17
3.8019553e-17
-7.6030855e-17
-1.080346e-32
-3.8007158e-17
3.8003005e-17
1.1399655e-16
-1.1398404e-16
-3.7990503e-17
1.1395897e-16
0
-1.1393365e-16
-3.7973674e-17
1.1390829e-16
-3.7965189e-17
-7.5921881e-17
-2.1068834e-29
4.2127525e-29
3.7948069e-17
0
7.5878883e-17
7.5870203e-17
-3.7930753e-17
-3.7926404e-17
-7.5844016e-17
3.7917591e-17
3.7913183e-17
-7.5817529e-17
0
7.5799797e-17
7.5790752e-17
-3.7890876e-17
-7.5772847e-17
2.1027325e-29
3.7877323e-17
-7.5745601e-17
3.7868233e-17
-1.2610313e-28
-7.5718081e-17
3.7854425e-17
0
7.5690226e-17
0
-8.4017578e-29
-3.7831012e-17
-7.5652658e-17
1.1346472e-16
-1.0748175e-32
-7.5624049e-17
0
7.5604768e-17
3.7797544e-17
-7.5585453e-17
4.195561e-29
3.7782907e-17
-7.5556059e-17
3.7773137e-17
-6.2881829e-29
-7.5526275e-17
3.7758207e-17
-3.7753234e-17
7.5496318e-17
1.132293e-16
0
-1.1319911e-16
-7.5455784e-17
1.1316833e-16
7.5435406e-17
-3.7712569e-17
-7.5414703e-17
3.7702159e-17
3.7697022e-17
-7.5383671e-17
3.7686553e-17
7.5362544e-17
-3.7676064e-17
5.353348e-33
-7.5331017e-17
-7.5320297e-17
1.1296455e-16
-3.7649577e-17
-6.2696926e-29
1.1291642e-16
0
-1.1288419e-16
-7.524541e-17
3.7617264e-17
3.761178e-17
3.7606332e-17
0
3.7595495e-17
-2.0865298e-29
-7.5168905e-17
2.0853835e-29
3.7573484e-17
0
3.7562433e-17
-7.5113699e-17
-1.1265388e-16
7.5091533e-17
1.1262068e-16
3.7534636e-17
-3.7529008e-17
-7.5046788e-17
3.7517815e-17
-3.7512233e-17
-3.7506611e-17
7.5001915e-17
-7.4990595e-17
-3.7489657e-17
1.124521e-16
7.4956788e-17
-3.7472722e-17
-1.1240109e-16
8.3175563e-29
-8.3162969e-29
-3.7450004e-17
-4.1568888e-29
-3.7438613e-17
3.7432895e-17
3.7427181e-17
3.7421477e-17
-3.7415778e-17
-3.7410066e-17
1.12213e-16
-3.7398594e-17
-7.4785717e-17
1.1216139e-16
1.0624434e-32
-3.7375672e-17
7.4739847e-17
3.7364167e-17
0
-3.7352667e-17
-3.7346922e-17
-7.468235e-17
3.733542e-17
-1.2432476e-28
-1.1197166e-16
3.7318128e-17
3.7312371e-17
3.7306614e-17
-3.7300852e-17
-3.7295083e-17
1.1186794e-16
-3.7283544e-17
-7.455556e-17
-6.2076996e-29
-3.7266252e-17
7.4520969e-17
1.1176414e-16
2.06707e-29
-2.0672791e-29
-5.2917541e-33
-3.7231644e-17
-7.4451757e-17
-3.722011e-17
1.1164302e-16
-4.1307171e-29
-7.4405618e-17
0
0
3.7185521e-17
-2.063759e-29
2.0629108e-29
3.7168231e-17
-7.4324944e-17
-3.7156714e-17
-4.1232649e-29
3.7145199e-17
1.1141833e-16
3.7133686e-17
0
0
0
-1.1133203e-16
-7.4209856e-17
1.1129754e-16
-4.1189886e-29
-7.417536e-17
0
0
7.414086e-17
-8.2294844e-29
-4.1130497e-29
7.4106311e-17
-3.704739e-17
-7.4083244e-17
-7.4071712e-17
3.7030093e-17
1.1107301e-16
3.7018593e-17
0
0
0
-1.1098708e-16
-7.3979944e-17
1.1095274e-16
-8.2103569e-29
-3.6972815e-17
5.2533424e-33
-3.6961409e-17
7.3911406e-17
-4.10201e-29
-3.6944265e-17
7.3877121e-17
0
-2.0502646e-29
-7.384296e-17
-7.3831499e-17
1.1073012e-16
7.3808749e-17
-3.689871e-17
-2.0473179e-29
3.6887283e-17
-1.1064476e-16
-7.3751862e-17
3.6870268e-17
3.6864566e-17
-3.6858851e-17
-3.6853166e-17
3.684751e-17
3.6841842e-17
-2.0446854e-29
2.0438445e-29
3.6824723e-17
0
3.68134e-17
-7.3615416e-17
-1.1040599e-16
7.3592611e-17
7.358131e-17
3.6785025e-17
-4.0825468e-29
-7.3547384e-17
3.6768007e-17
-3.6762342e-17
-3.6756693e-17
7.3502083e-17
-7.3490752e-17
-3.6739705e-17
3.673404e-17
7.3456768e-17
3.6722726e-17
-7.3434107e-17
2.0367168e-29
-3.6705705e-17
-3.6700054e-17
1.1008321e-16
-3.6688746e-17
-3.66831e-17
1.1003243e-16
-5.2113845e-33
-1.0999866e-16
-3.6660568e-17
1.0996478e-16
-3.6649305e-17
-1.6886546e-47
-6.1000302e-29
-7.3264858e-17
7.3253606e-17
7.3242351e-17
-3.6615555e-17
4.0642601e-29
7.3208656e-17
-3.6598701e-17
-1.0977923e-16
-3.6587464e-17
3.6581852e-17
0
3.6570593e-17
7.3129948e-17
-5.1953973e-33
-1.0966119e-16
-3.654809e-17
7.3084928e-17
-5.1921981e-33
-7.3062436e-17
7.3051156e-17
-6.0824413e-29
-7.3028652e-17
1.0952611e-16
7.3006147e-17
0
0
-3.6486231e-17
-1.0944182e-16
-3.6474977e-17
1.0940806e-16
-4.0480288e-29
-7.291624e-17
7.2905001e-17
7.2893766e-17
-3.6441265e-17
-7.2871305e-17
3.6430046e-17
3.6424436e-17
-1.0925651e-16
-3.6413244e-17
-6.0637404e-29
2.0195584e-29
3.6396548e-17
-3.6391021e-17
7.2771047e-17
1.0914015e-16
0
-1.0910754e-16
-7.2727535e-17
1.0907505e-16
-1.0332122e-32
-3.6347452e-17
7.2683858e-17
-3.6336357e-17
-3.6330726e-17
-4.0326326e-29
3.6319379e-17
7.2627479e-17
-3.6308149e-17
-7.2605283e-17
-7.2594373e-17
4.0299586e-29
3.6286043e-17
-3.6280394e-17
7.2549652e-17
1.0880795e-16
0
-1.0877468e-16
-7.2505299e-17
1.0874125e-16
-4.0243898e-29
-3.6235953e-17
3.6230379e-17
3.6224808e-17
-2.0094141e-29
-7.2427403e-17
2.0098285e-29
7.2405295e-17
-4.0179169e-29
-4.0173043e-29
-7.2372203e-17
-1.0854182e-16
7.2350226e-17
-4.0164037e-29
-1.2043259e-28
3.6158532e-17
3.6152971e-17
7.2294828e-17
-1.0842559e-16
-3.6136324e-17
7.2261601e-17
-7.2250557e-17
-2.053169e-32
1.0834248e-16
3.6108604e-17
-3.6103083e-17
-1.0829269e-16
1.2021313e-28
7.2172907e-17
3.6080902e-17
-7.2150736e-17
-1.0820948e-16
1.0819284e-16
3.6058745e-17
4.0014317e-29
3.6047696e-17
-7.2084264e-17
2.0003034e-29
-3.6031025e-17
3.6025491e-17
-1.1998333e-28
-1.0804321e-16
1.0802655e-16
1.0800986e-16
0
0
0
-3.5981079e-17
-1.0792648e-16
-3.5969923e-17
-3.9925928e-29
-3.5958831e-17
1.0785973e-16
3.5947626e-17
-3.5942019e-17
-3.593645e-17
-3.5930904e-17
7.1850678e-17
-3.5919732e-17
3.5914098e-17
-1.1959153e-28
-7.1805652e-17
1.0769165e-16
7.1783233e-17
0
-7.1760692e-17
-3.9826321e-29
3.5868964e-17
-1.0758988e-16
-3.5857632e-17
3.5851959e-17
0
0
3.5834732e-17
7.1657987e-17
-7.9538518e-29
-7.163497e-17
-3.5811663e-17
3.5805817e-17
-3.5799977e-17
3.5794149e-17
1.8758885e-47
-5.9596026e-29
1.0732934e-16
0
0
-7.1517053e-17
-7.1505014e-17
-3.5746421e-17
3.9672076e-29
1.0720247e-16
-3.967369e-29
-7.1443701e-17
0
7.1418562e-17
3.5702925e-17
-7.1393116e-17
3.5690166e-17
3.5683706e-17
-1.0703148e-16
3.5670554e-17
-1.1877712e-28
-7.1314503e-17
1.069515e-16
7.1287289e-17
0
0
0
-1.0684675e-16
-7.1216709e-17
1.0680304e-16
7.1187181e-17
0
-7.1157112e-17
3.9489111e-29
3.5563114e-17
-7.1110349e-17
3.5547105e-17
-3.5538925e-17
-3.5530652e-17
1.0656684e-16
-7.1027527e-17
-7.1010141e-17
3.5496203e-17
-3.5487178e-17
7.0956024e-17
1.0640613e-16
0
-1.0634874e-16
-7.0879386e-17
3.5429598e-17
3.5419327e-17
-3.9309248e-29
3.5398246e-17
-1.1787613e-28
-3.537619e-17
-1.9635164e-29
-1.8373e-48
3.5341284e-17
0
3.5316754e-17
-7.0608041e-17
-1.0587295e-16
1.05833e-16
1.0579221e-16
0
-7.0471754e-17
-7.0442469e-17
7.0412467e-17
-3.5190886e-17
-3.5175182e-17
1.0547726e-16
-7.0285144e-17
-7.0251237e-17
3.5108231e-17
7.0180842e-17
3.5072184e-17
-1.0516047e-16
-3.5034302e-17
-5.8307294e-29
6.998877e-17
1.9880221e-32
-1.0485722e-16
6.9861241e-17
1.0472481e-16
3.4885327e-17
-1.0458533e-16
-6.9675229e-17
1.0443851e-16
-7.7248556e-29
-6.9522734e-17
-3.4734621e-17
1.926512e-29
6.9358052e-17
-3.8466945e-29
3.462056e-17
3.4590198e-17
-1.0367716e-16
-3.4527112e-17
-3.8293989e-29
6.8921594e-17
-1.1465553e-28
-1.0317326e-16
6.8709821e-17
-3.8117527e-29
-3.808508e-29
-7.6034999e-29
-3.4201033e-17
1.0248048e-16
-3.4118299e-17
-5.6733667e-29
-1.1334045e-28
-1.0195962e-16
3.3940497e-17
6.7786757e-17
-3.7573266e-29
3.3795792e-17
3.3745257e-17
-6.7387082e-17
-6.7281289e-17
3.7281418e-29
1.0059384e-16
-3.7152545e-29
-3.341694e-17
6.6715664e-17
-3.3297411e-17
-3.3235666e-17
1.8403881e-29
-1.8377553e-29
3.3042389e-17
-6.5950416e-17
3.2906613e-17
-1.0937947e-28
-1.0912277e-28
9.8076517e-17
-6.5235493e-17
9.2489427e-33
6.4928788e-17
-3.2385443e-17
-9.6914855e-17
-3.22229e-17
9.6417815e-17
-3.5584869e-29
-3.1967228e-17
6.3757581e-17
-6.3577443e-17
-1.5837525e-28
3.1603635e-17
-3.1508605e-17
3.1411904e-17
-6.262703e-17
3.1213419e-17
9.3334818e-17
0
0
-6.1591707e-17
-8.721808e-33
6.1153307e-17
-3.0464409e-17
-9.1051223e-17
-3.0234654e-17
9.0351414e-17
8.5259003e-33
3.3167748e-29
5.9507785e-17
-8.888772e-17
-1.4739513e-28
2.9374625e-17
-2.9244654e-17
-2.9112897e-17
3.218796e-29
2.8844032e-17
-5.7413885e-17
5.7136195e-17
-9.4676536e-29
-5.6570295e-17
8.4423122e-17
5.5990377e-17
-2.7847608e-17
-8.3094954e-17
-2.7547325e-17
2.7394632e-17
0
-2.7084172e-17
2.6926443e-17
8.0301249e-17
1.476841e-29
-5.2887035e-17
2.6279326e-17
2.6113546e-17
-5.18924e-17
2.577732e-17
-2.5606935e-17
-5.0870131e-17
7.5785174e-17
-8.3550913e-29
5.5316407e-29
4.9466126e-17
-4.9108099e-17
-2.4373695e-17
-2.4192028e-17
-2.6674188e-29
2.3824845e-17
-4.7278758e-17
4.6905413e-17
6.9794589e-17
0
-2.2885797e-17
1.2597244e-29
6.3955715e-33
-6.6927587e-17
-2.2115008e-17
6.5759668e-17
-2.1723869e-17
-1.0218276e-45
6.3987794e-17
-2.1130767e-17
-6.2794583e-17
-2.0731579e-17
4.1061902e-17
-2.0329684e-17
2.0127828e-17
-6.6360778e-29
-3.9445078e-17
5.8557534e-17
2.1453994e-29
-8.4876239e-29
3.7813377e-17
-3.7403762e-17
-2.0534286e-29
1.8291555e-17
-3.6172221e-17
-1.788054e-17
0
0
3.4527094e-17
-3.7873783e-29
-9.5794796e-33
-1.8480713e-29
-1.6441817e-17
-1.6236853e-17
1.6032154e-17
1.5827756e-17
-3.1247413e-17
3.0840125e-17
-1.6893042e-29
-3.0028356e-17
2.9624022e-17
4.8659317e-29
-1.5996629e-29
1.4209048e-17
-2.8018776e-17
1.3810473e-17
-3.0223536e-29
-2.6830059e-17
0
2.6045979e-17
1.2828331e-17
-2.5269275e-17
-1.2441956e-17
1.2250323e-17
-2.0085695e-29
-1.1870332e-17
0
0
2.2618041e-17
2.2248724e-17
0
-2.1517824e-17
-1.0578184e-17
1.0398827e-17
-1.0220868e-17
1.004433e-17
0
-1.9391256e-17
0
0
9.1839301e-18
-1.000966e-29
-8.850616e-18
0
8.5237737e-18
4.6420073e-30
-8.2035612e-18
0
1.5780192e-17
1.5471884e-17
-7.5835287e-18
-8.2505567e-30
7.2839692e-18
-1.4273689e-17
-1.3983012e-17
1.3695931e-17
1.9060247e-33
1.458105e-29
1.827002e-33
-1.2583824e-17
6.1574704e-18
-6.6885207e-30
5.8941059e-18
-5.7651788e-18
-1.6914283e-17
1.6538578e-17
5.389478e-18
-5.2679463e-18
-5.7146154e-30
-5.0304023e-18
9.8287696e-18
9.6004126e-18
-9.3757323e-18
-1.5243392e-29
-4.4686747e-18
-4.3617983e-18
8.5134425e-18
-4.1534415e-18
4.4977121e-30
-2.1949284e-30
3.8543423e-18
7.5163694e-18
-7.3275415e-18
-7.142179e-18
0
3.3908982e-18
3.6672414e-30
-6.4350605e-18
-3.4785085e-30
9.1525425e-18
5.9399453e-18
0
-5.626198e-18
-6.0763499e-30
-2.6626194e-18
-2.5897254e-18
7.5551181e-18
-1.3587828e-30
-4.760485e-18
2.3134353e-18
4.4962017e-18
-2.1842115e-18
-4.2434957e-18
-2.0606979e-18
0
3.8855733e-18
-1.8858907e-18
-5.4910145e-18
1.7761008e-18
1.723153e-18
3.3429546e-18
1.6210591e-18
-3.1437633e-18
-1.5239265e-18
-1.4771756e-18
1.5893028e-30
1.3871984e-18
1.3439196e-18
2.6035039e-18
1.2606798e-18
0
0
0
-2.2140052e-18
-2.1422622e-18
2.0724616e-18
1.1126886e-30
1.0760472e-30
-1.0401662e-30
-2.0119083e-30
1.7514726e-18
0
-1.6354324e-18
-7.8994825e-19
7.6298967e-19
-7.3682664e-19
-7.1144202e-19
0
0
1.2794802e-18
-2.0557623e-30
-1.3221224e-30
1.1486945e-18
-1.1077608e-18
-1.0681069e-18
0
9.9250621e-19
-5.3078713e-31
-9.216125e-19
8.8785613e-19
4.7481852e-31
-8.2359567e-19
0
7.6348445e-19
3.674559e-19
-7.0728931e-19
3.4029481e-19
7.270993e-31
-6.2985827e-19
6.0578354e-19
5.8254319e-19
0
0
0
-4.9735141e-19
-4.7787912e-19
4.5910574e-19
0
-4.2356243e-19
0
-1.9525811e-19
3.7488714e-19
1.799181e-19
-1.7267111e-19
3.3138074e-19
1.5896514e-19
-3.0497645e-19
-1.4625701e-19
-1.5573941e-31
1.3451246e-19
-2.8635949e-31
7.0280761e-35
2.3700987e-19
0
-1.0882152e-19
-2.08536e-19
-9.98991e-20
0
0
0
-8.4071348e-20
1.6099163e-19
7.7063551e-20
-7.3770784e-20
-7.0614317e-20
6.7589758e-20
6.4690636e-20
-1.2381978e-19
0
1.1336393e-19
1.0845512e-19
0
0
-9.49436e-20
-5.0413516e-32
-4.3437865e-20
-4.1546289e-20
3.9733407e-20
-3.7997458e-20
3.6337671e-20
6.9505358e-20
3.3238595e-20
0
-6.0802601e-20
-3.2265226e-32
2.7800443e-20
-2.6589898e-20
-2.54365e-20
-4.866789e-20
4.6553352e-20
2.2261933e-20
-6.0512328e-36
2.0367122e-20
-3.8981951e-20
1.8656773e-20
-1.7857795e-20
-1.7379439e-48
1.6353887e-20
-3.1299898e-20
2.9964103e-20
2.8699943e-20
0
-1.317087e-20
-2.5229396e-20
6.7047511e-33
1.1566941e-20
1.1083256e-20
-2.1255196e-20
-2.0388068e-20
9.7766999e-21
1.8744616e-20
1.7960933e-20
-8.6050343e-21
-1.650267e-20
7.9193607e-21
-7.6031476e-21
1.2149304e-32
6.9984467e-21
-1.3414116e-20
1.2854429e-20
6.841197e-33
-3.2844315e-32
1.1360326e-20
-1.0898796e-20
-2.3188478e-32
4.9982049e-21
-9.5664983e-21
4.5815514e-21
-1.2481556e-36
1.8685828e-32
4.0266685e-21
-7.6921875e-21
8.1426536e-33
-1.9393269e-33
3.3314459e-21
-9.0270351e-37
-6.0486536e-21
5.7463034e-21
1.5476459e-36
-1.1434659e-32
4.8649296e-21
-4.5895431e-21
-4.7941232e-33
4.046612e-21
-1.8875149e-21
-1.7551514e-21
-1.6283419e-21
1.4491908e-21
-1.4553872e-33
-2.4699044e-21
0
0
1.7687588e-21
2.168306e-37
-1.3070797e-21
5.4588111e-22
-4.8143859e-34
3.1674644e-22
4.3796503e-34
-1.6041456e-22
0
1.3842907e-22
-4.9445172e-22
-3.5852666e-22
1.0508611e-33
-5.8849145e-22
1.3983203e-21
-8.0290457e-22
1.0025958e-33
2.0122514e-21
0
0
-1.335578e-21
7.9799541e-34
-1.5326012e-21
1.6273033e-21
5.1793048e-21
-5.4957547e-21
-1.9397069e-21
4.0803312e-21
-2.1300693e-21
-3.6882996e-33
-2.3030478e-21
1.3624195e-36
8.3137445e-33
-2.5954993e-21
5.3698719e-21
2.7634677e-21
0
2.9199705e-21
-3.0060788e-21
-3.0960043e-21
-3.1834115e-21
7.2372418e-33
-3.6918539e-33
3.7657444e-33
6.9281813e-21
-3.5417468e-21
-6.0298733e-33
7.3856723e-21
-5.3341221e-37
-3.8095467e-21
-7.736665e-21
-7.8632011e-21
7.9977606e-21
4.5153688e-33
4.1214765e-21
4.1681347e-21
-8.4275592e-21
8.5271874e-21