/*--------------------------------*- C++ -*----------------------------------*\
  =========                 |
  \\      /  F ield         | OpenFOAM: The Open Source CFD Toolbox
   \\    /   O peration     | Website:  https://openfoam.org
    \\  /    A nd           | Version:  7
     \\/     M anipulation  |
\*---------------------------------------------------------------------------*/
FoamFile
{
    version     2.0;
    format      ascii;
    class       volScalarField;
    location    "0.00235";
    object      mag(U);
}
// * * * * * * * * * * * * * * * * * * * * * * * * * * * * * * * * * * * * * //

dimensions      [0 1 -1 0 0 0 0];

internalField   nonuniform List<scalar> 
5000
(
23.100429
23.100427
23.100426
23.100425
23.100424
23.100424
23.100424
23.100423
23.100423
23.100422
23.100421
23.100421
23.10042
23.100419
23.100419
23.100418
23.100418
23.100417
23.100416
23.100416
23.100415
23.100415
23.100414
23.100413
23.100413
23.100412
23.100412
23.100411
23.10041
23.10041
23.100409
23.100408
23.100408
23.100407
23.100407
23.100406
23.100406
23.100405
23.100404
23.100404
23.100403
23.100403
23.100402
23.100401
23.100401
23.1004
23.1004
23.100399
23.100398
23.100398
23.100397
23.100397
23.100396
23.100396
23.100395
23.100395
23.100394
23.100394
23.100393
23.100392
23.100392
23.100391
23.100391
23.10039
23.10039
23.100389
23.100389
23.100388
23.100387
23.100387
23.100386
23.100386
23.100386
23.100386
23.100386
23.100384
23.100382
23.100382
23.100382
23.100381
23.10038
23.10038
23.10038
23.100379
23.100379
23.100378
23.100377
23.100377
23.100376
23.100376
23.100375
23.100375
23.100374
23.100374
23.100373
23.100373
23.100372
23.100372
23.100371
23.10037
23.10037
23.100369
23.100369
23.100368
23.100368
23.100367
23.100367
23.100366
23.100365
23.100365
23.100365
23.100364
23.100364
23.100363
23.100363
23.100362
23.100362
23.100361
23.100361
23.10036
23.10036
23.100359
23.100358
23.100358
23.100358
23.100357
23.100357
23.100356
23.100356
23.100355
23.100355
23.100354
23.100354
23.100353
23.100353
23.100352
23.100352
23.100351
23.100351
23.10035
23.10035
23.100349
23.100349
23.100348
23.100348
23.100347
23.100347
23.100347
23.100346
23.100346
23.100345
23.100345
23.100344
23.100344
23.100343
23.100343
23.100342
23.100342
23.100341
23.100341
23.10034
23.10034
23.100339
23.100339
23.100339
23.100338
23.100338
23.100337
23.100337
23.100336
23.100336
23.100335
23.100335
23.100334
23.100334
23.100334
23.100333
23.100333
23.100332
23.100332
23.100331
23.100331
23.10033
23.10033
23.10033
23.100329
23.100329
23.100328
23.100328
23.100327
23.100327
23.100326
23.100326
23.100326
23.100325
23.100325
23.100324
23.100324
23.100323
23.100323
23.100323
23.100322
23.100322
23.100321
23.100321
23.10032
23.10032
23.10032
23.100319
23.100319
23.100318
23.100318
23.100317
23.100317
23.100317
23.100316
23.100316
23.100315
23.100315
23.100314
23.100314
23.100313
23.100313
23.100313
23.100312
23.100312
23.100311
23.100311
23.10031
23.10031
23.10031
23.100309
23.100309
23.100308
23.100308
23.100308
23.100307
23.100307
23.100306
23.100306
23.100306
23.100305
23.100305
23.100304
23.100304
23.100303
23.100303
23.100303
23.100302
23.100302
23.100301
23.100301
23.1003
23.1003
23.1003
23.100299
23.100299
23.100298
23.100298
23.100298
23.100297
23.100297
23.100296
23.100296
23.100295
23.100295
23.100295
23.100294
23.100294
23.100293
23.100293
23.100292
23.100292
23.100292
23.100291
23.100291
23.10029
23.10029
23.10029
23.100289
23.100289
23.100288
23.100288
23.100287
23.100287
23.100287
23.100286
23.100286
23.100285
23.100285
23.100284
23.100284
23.100284
23.100283
23.100283
23.100282
23.100282
23.100281
23.100281
23.10028
23.10028
23.10028
23.100279
23.100279
23.100278
23.100278
23.100277
23.100277
23.100277
23.100277
23.100276
23.100276
23.100275
23.100274
23.100274
23.100274
23.100273
23.100273
23.100273
23.100272
23.100272
23.100271
23.100271
23.10027
23.10027
23.10027
23.100269
23.100269
23.100268
23.100268
23.100267
23.100267
23.100267
23.100266
23.100266
23.100265
23.100265
23.100265
23.100264
23.100264
23.100263
23.100263
23.100262
23.100262
23.100262
23.100261
23.100261
23.10026
23.10026
23.100259
23.100259
23.100259
23.100258
23.100258
23.100258
23.100257
23.100257
23.100256
23.100256
23.100255
23.100255
23.100255
23.100254
23.100254
23.100253
23.100253
23.100253
23.100252
23.100252
23.100251
23.100251
23.10025
23.10025
23.10025
23.100249
23.100249
23.100248
23.100248
23.100247
23.100247
23.100247
23.100247
23.100246
23.100246
23.100245
23.100245
23.100244
23.100244
23.100244
23.100243
23.100243
23.100242
23.100242
23.100242
23.100241
23.100241
23.100241
23.10024
23.10024
23.100239
23.100239
23.100239
23.100238
23.100238
23.100237
23.100237
23.100236
23.100236
23.100236
23.100235
23.100235
23.100235
23.100234
23.100234
23.100233
23.100233
23.100233
23.100232
23.100232
23.100231
23.100231
23.100231
23.10023
23.10023
23.100229
23.100229
23.100229
23.100229
23.100228
23.100228
23.100227
23.100227
23.100226
23.100226
23.100226
23.100226
23.100225
23.100225
23.100224
23.100224
23.100223
23.100223
23.100223
23.100223
23.100222
23.100222
23.100221
23.100221
23.10022
23.10022
23.10022
23.10022
23.100219
23.100219
23.100218
23.100218
23.100218
23.100217
23.100217
23.100216
23.100216
23.100216
23.100215
23.100215
23.100215
23.100214
23.100214
23.100214
23.100213
23.100213
23.100213
23.100212
23.100212
23.100211
23.100211
23.100211
23.10021
23.10021
23.10021
23.100209
23.100209
23.100209
23.100208
23.100208
23.100207
23.100207
23.100207
23.100206
23.100206
23.100206
23.100205
23.100205
23.100204
23.100204
23.100204
23.100204
23.100203
23.100203
23.100202
23.100202
23.100202
23.100202
23.100201
23.100201
23.1002
23.1002
23.100199
23.100199
23.100199
23.100199
23.100198
23.100198
23.100197
23.100197
23.100197
23.100197
23.100196
23.100196
23.100196
23.100195
23.100195
23.100194
23.100194
23.100194
23.100194
23.100193
23.100193
23.100192
23.100192
23.100192
23.100192
23.100191
23.100191
23.10019
23.10019
23.10019
23.10019
23.100189
23.100189
23.100189
23.100188
23.100188
23.100188
23.100187
23.100187
23.100187
23.100186
23.100186
23.100186
23.100185
23.100185
23.100185
23.100184
23.100184
23.100184
23.100183
23.100183
23.100183
23.100182
23.100182
23.100182
23.100182
23.100181
23.100181
23.100181
23.10018
23.10018
23.10018
23.100179
23.100179
23.100179
23.100178
23.100178
23.100178
23.100177
23.100177
23.100177
23.100176
23.100176
23.100176
23.100176
23.100175
23.100175
23.100174
23.100174
23.100174
23.100174
23.100174
23.100173
23.100173
23.100172
23.100172
23.100172
23.100172
23.100172
23.100171
23.100171
23.10017
23.10017
23.10017
23.100169
23.100169
23.100169
23.100169
23.100169
23.100168
23.100168
23.100168
23.100167
23.100167
23.100167
23.100167
23.100166
23.100166
23.100165
23.100165
23.100165
23.100165
23.100165
23.100164
23.100164
23.100163
23.100163
23.100163
23.100163
23.100163
23.100162
23.100162
23.100162
23.100161
23.100161
23.100161
23.100161
23.10016
23.10016
23.10016
23.100159
23.100159
23.100159
23.100159
23.100158
23.100158
23.100158
23.100158
23.100157
23.100157
23.100157
23.100156
23.100156
23.100156
23.100156
23.100155
23.100155
23.100155
23.100154
23.100154
23.100154
23.100154
23.100153
23.100153
23.100153
23.100152
23.100152
23.100152
23.100152
23.100151
23.100151
23.100151
23.100151
23.10015
23.10015
23.10015
23.100149
23.100149
23.100149
23.100149
23.100148
23.100148
23.100148
23.100148
23.100147
23.100147
23.100147
23.100146
23.100146
23.100146
23.100146
23.100145
23.100145
23.100145
23.100145
23.100144
23.100144
23.100144
23.100143
23.100143
23.100143
23.100143
23.100142
23.100142
23.100142
23.100141
23.100141
23.100141
23.100141
23.10014
23.10014
23.10014
23.10014
23.100139
23.100139
23.100139
23.100138
23.100138
23.100138
23.100138
23.100137
23.100137
23.100137
23.100136
23.100136
23.100136
23.100136
23.100135
23.100135
23.100135
23.100134
23.100134
23.100134
23.100133
23.100133
23.100133
23.100133
23.100132
23.100132
23.100132
23.100131
23.100131
23.100131
23.100131
23.10013
23.10013
23.10013
23.100129
23.100129
23.100129
23.100128
23.100128
23.100128
23.100127
23.100127
23.100127
23.100126
23.100126
23.100126
23.100125
23.100125
23.100125
23.100125
23.100124
23.100124
23.100124
23.100123
23.100123
23.100122
23.100122
23.100122
23.100121
23.100121
23.100121
23.10012
23.10012
23.10012
23.100119
23.100119
23.100119
23.100118
23.100118
23.100118
23.100117
23.100117
23.100116
23.100116
23.100116
23.100115
23.100115
23.100115
23.100114
23.100114
23.100113
23.100113
23.100113
23.100112
23.100112
23.100111
23.100111
23.100111
23.10011
23.10011
23.10011
23.100109
23.100109
23.100108
23.100108
23.100108
23.100107
23.100107
23.100106
23.100106
23.100105
23.100105
23.100105
23.100104
23.100104
23.100103
23.100103
23.100102
23.100102
23.100102
23.100101
23.100101
23.1001
23.1001
23.100099
23.100099
23.100098
23.100098
23.100098
23.100097
23.100097
23.100096
23.100096
23.100095
23.100095
23.100094
23.100094
23.100093
23.100093
23.100093
23.100092
23.100092
23.100091
23.100091
23.10009
23.10009
23.100089
23.100089
23.100088
23.100088
23.100087
23.100087
23.100086
23.100086
23.100085
23.100085
23.100084
23.100084
23.100083
23.100083
23.100082
23.100082
23.100081
23.100081
23.10008
23.10008
23.100079
23.100079
23.100078
23.100078
23.100077
23.100077
23.100076
23.100076
23.100075
23.100075
23.100074
23.100074
23.100073
23.100073
23.100072
23.100071
23.100071
23.10007
23.10007
23.100069
23.100069
23.100068
23.100068
23.100067
23.100067
23.100066
23.100066
23.100065
23.100065
23.100064
23.100063
23.100063
23.100062
23.100062
23.100061
23.100061
23.10006
23.10006
23.100059
23.100058
23.100058
23.100057
23.100057
23.100056
23.100055
23.100055
23.100054
23.100054
23.100053
23.100053
23.100052
23.100051
23.100051
23.10005
23.10005
23.100049
23.100048
23.100048
23.100047
23.100047
23.100046
23.100045
23.100045
23.100044
23.100044
23.100043
23.100042
23.100042
23.100041
23.10004
23.10004
23.100039
23.100039
23.100038
23.100037
23.100037
23.100036
23.100035
23.100035
23.100034
23.100033
23.100033
23.100032
23.100031
23.100031
23.10003
23.100029
23.100029
23.100028
23.100027
23.100026
23.100026
23.100025
23.100024
23.100024
23.100023
23.100022
23.100021
23.100021
23.10002
23.100019
23.100018
23.100018
23.100017
23.100016
23.100015
23.100015
23.100014
23.100013
23.100012
23.100012
23.100011
23.10001
23.100009
23.100008
23.100008
23.100007
23.100006
23.100005
23.100004
23.100003
23.100002
23.100002
23.100001
23.1
23.099999
23.099998
23.099997
23.099996
23.099995
23.099994
23.099993
23.099993
23.099992
23.099991
23.09999
23.099989
23.099988
23.099987
23.099986
23.099984
23.099983
23.099982
23.099981
23.09998
23.099979
23.099978
23.099977
23.099976
23.099975
23.099973
23.099972
23.099971
23.09997
23.099968
23.099967
23.099966
23.099964
23.099963
23.099962
23.09996
23.099959
23.099957
23.099956
23.099954
23.099953
23.099951
23.09995
23.099948
23.099946
23.099945
23.099943
23.099941
23.099939
23.099937
23.099935
23.099933
23.099931
23.099929
23.099927
23.099925
23.099923
23.09992
23.099918
23.099915
23.099913
23.09991
23.099908
23.099905
23.099902
23.099899
23.099896
23.099893
23.09989
23.099887
23.099884
23.09988
23.099877
23.099873
23.099869
23.099865
23.099861
23.099857
23.099853
23.099849
23.099844
23.09984
23.099835
23.09983
23.099825
23.09982
23.099814
23.099809
23.099803
23.099797
23.099791
23.099785
23.099778
23.099772
23.099765
23.099758
23.09975
23.099743
23.099735
23.099727
23.099718
23.09971
23.099701
23.099692
23.099682
23.099673
23.099663
23.099652
23.099641
23.09963
23.099619
23.099607
23.099595
23.099582
23.09957
23.099556
23.099542
23.099528
23.099514
23.099498
23.099483
23.099467
23.09945
23.099433
23.099416
23.099397
23.099379
23.099359
23.099339
23.099319
23.099298
23.099276
23.099253
23.09923
23.099206
23.099182
23.099156
23.09913
23.099103
23.099076
23.099047
23.099018
23.098987
23.098956
23.098924
23.098891
23.098857
23.098822
23.098786
23.098749
23.09871
23.098671
23.098631
23.098589
23.098546
23.098502
23.098457
23.09841
23.098362
23.098313
23.098262
23.09821
23.098156
23.098101
23.098044
23.097986
23.097926
23.097865
23.097802
23.097737
23.09767
23.097601
23.097531
23.097459
23.097385
23.097308
23.09723
23.09715
23.097067
23.096983
23.096896
23.096807
23.096716
23.096622
23.096526
23.096427
23.096326
23.096223
23.096116
23.096007
23.095896
23.095781
23.095664
23.095544
23.095421
23.095295
23.095166
23.095033
23.094898
23.094759
23.094617
23.094472
23.094323
23.094171
23.094015
23.093855
23.093692
23.093525
23.093355
23.09318
23.093002
23.092819
23.092633
23.092442
23.092247
23.092048
23.091844
23.091636
23.091424
23.091207
23.090986
23.090759
23.090528
23.090292
23.090051
23.089806
23.089555
23.089299
23.089038
23.088771
23.088499
23.088222
23.087939
23.087651
23.087357
23.087057
23.086751
23.08644
23.086123
23.085799
23.08547
23.085134
23.084792
23.084444
23.084089
23.083728
23.08336
23.082985
23.082604
23.082216
23.081822
23.08142
23.081011
23.080595
23.080172
23.079742
23.079304
23.078859
23.078406
23.077946
23.077479
23.077003
23.07652
23.076029
23.07553
23.075023
23.074508
23.073985
23.073454
23.072914
23.072366
23.07181
23.071245
23.070672
23.07009
23.069499
23.0689
23.068291
23.067674
23.067048
23.066413
23.065769
23.065116
23.064453
23.063781
23.0631
23.06241
23.06171
23.061
23.060281
23.059553
23.058814
23.058066
23.057309
23.056541
23.055764
23.054976
23.054179
23.053371
23.052554
23.051726
23.050889
23.050041
23.049183
23.048314
23.047435
23.046546
23.045646
23.044736
23.043816
23.042885
23.041943
23.040991
23.040028
23.039055
23.038071
23.037076
23.036071
23.035054
23.034027
23.03299
23.031941
23.030882
23.029811
23.02873
23.027639
23.026536
23.025422
23.024297
23.023162
23.022016
23.020858
23.01969
23.018511
23.017321
23.01612
23.014908
23.013685
23.012451
23.011207
23.009951
23.008685
23.007407
23.006119
23.00482
23.00351
23.00219
23.000858
22.999516
22.998163
22.996799
22.995425
22.99404
22.992644
22.991238
22.989821
22.988394
22.986956
22.985508
22.984049
22.98258
22.9811
22.97961
22.97811
22.976599
22.975079
22.973548
22.972007
22.970457
22.968896
22.967325
22.965744
22.964154
22.962554
22.960944
22.959325
22.957695
22.956057
22.954409
22.952751
22.951085
22.949409
22.947724
22.946029
22.944326
22.942614
22.940893
22.939163
22.937424
22.935677
22.933921
22.932157
22.930384
22.928603
22.926814
22.925016
22.923211
22.921397
22.919576
22.917747
22.91591
22.914065
22.912213
22.910354
22.908487
22.906613
22.904731
22.902843
22.900948
22.899046
22.897137
22.895221
22.893299
22.891371
22.889436
22.887495
22.885548
22.883594
22.881635
22.87967
22.877699
22.875723
22.873741
22.871754
22.869761
22.867763
22.865761
22.863753
22.86174
22.859723
22.857701
22.855675
22.853644
22.851609
22.849569
22.847526
22.845479
22.843428
22.841373
22.839314
22.837253
22.835187
22.833119
22.831047
22.828973
22.826895
22.824815
22.822732
22.820646
22.818559
22.816468
22.814376
22.812281
22.810185
22.808087
22.805987
22.803885
22.801782
22.799678
22.797572
22.795465
22.793357
22.791248
22.789139
22.787029
22.784918
22.782807
22.780695
22.778583
22.776471
22.77436
22.772248
22.770136
22.768025
22.765915
22.763804
22.761695
22.759587
22.757479
22.755372
22.753267
22.751163
22.74906
22.746958
22.744859
22.742761
22.740664
22.73857
22.736477
22.734387
22.732299
22.730213
22.72813
22.726049
22.72397
22.721895
22.719822
22.717752
22.715685
22.713622
22.711561
22.709504
22.70745
22.7054
22.703353
22.70131
22.699271
22.697235
22.695204
22.693177
22.691153
22.689134
22.687119
22.685109
22.683103
22.681101
22.679105
22.677113
22.675125
22.673143
22.671165
22.669193
22.667226
22.665263
22.663306
22.661355
22.659408
22.657468
22.655532
22.653603
22.651679
22.64976
22.647848
22.645941
22.64404
22.642146
22.640257
22.638374
22.636498
22.634627
22.632763
22.630906
22.629054
22.627209
22.625371
22.623539
22.621713
22.619895
22.618083
22.616277
22.614479
22.612687
22.610902
22.609123
22.607352
22.605588
22.603831
22.60208
22.600337
22.598601
22.596872
22.59515
22.593435
22.591728
22.590028
22.588335
22.586649
22.58497
22.583299
22.581636
22.57998
22.578331
22.576689
22.575055
22.573429
22.571809
22.570198
22.568594
22.566997
22.565408
22.563827
22.562253
22.560686
22.559128
22.557576
22.556033
22.554497
22.552968
22.551447
22.549934
22.548428
22.54693
22.54544
22.543957
22.542482
22.541014
22.539554
22.538102
22.536657
22.53522
22.53379
22.532368
22.530954
22.529547
22.528148
22.526756
22.525372
22.523995
22.522626
22.521265
22.51991
22.518564
22.517225
22.515893
22.514569
22.513252
22.511943
22.510641
22.509347
22.508059
22.50678
22.505507
22.504242
22.502984
22.501734
22.500491
22.499255
22.498026
22.496805
22.495591
22.494384
22.493184
22.491991
22.490806
22.489627
22.488456
22.487291
22.486134
22.484984
22.483841
22.482705
22.481575
22.480453
22.479338
22.478229
22.477128
22.476033
22.474945
22.473864
22.47279
22.471722
22.470661
22.469607
22.46856
22.467519
22.466485
22.465458
22.464437
22.463423
22.462415
22.461414
22.46042
22.459431
22.45845
22.457475
22.456506
22.455544
22.454588
22.453639
22.452695
22.451759
22.450828
22.449904
22.448986
22.448074
22.447169
22.446269
22.445376
22.444489
22.443609
22.442734
22.441865
22.441003
22.440146
22.439296
22.438451
22.437613
22.43678
22.435954
22.435133
22.434319
22.43351
22.432707
22.43191
22.431119
22.430333
22.429554
22.42878
22.428012
22.427249
22.426493
22.425742
22.424997
22.424257
22.423523
22.422795
22.422072
22.421355
22.420644
22.419938
22.419238
22.418543
22.417853
22.417169
22.416491
22.415818
22.415151
22.414488
22.413832
22.41318
22.412534
22.411894
22.411258
22.410628
22.410004
22.409384
22.40877
22.408161
22.407557
22.406959
22.406365
22.405777
22.405194
22.404616
22.404043
22.403476
22.402913
22.402355
22.401803
22.401255
22.400713
22.400175
22.399643
22.399115
22.398592
22.398074
22.397561
22.397053
22.39655
22.396052
22.395558
22.395069
22.394585
22.394106
22.393631
22.393161
22.392696
22.392236
22.39178
22.391329
22.390882
22.39044
22.390002
22.389569
22.389141
22.388717
22.388298
22.387883
22.387472
22.387066
22.386664
22.386267
22.385874
22.385485
22.3851
22.38472
22.384344
22.383973
22.383605
22.383242
22.382883
22.382528
22.382177
22.38183
22.381487
22.381148
22.380814
22.380483
22.380156
22.379833
22.379514
22.379199
22.378888
22.378581
22.378277
22.377978
22.377682
22.377389
22.377101
22.376816
22.376534
22.376257
22.375983
22.375712
22.375445
22.375182
22.374922
22.374666
22.374413
22.374163
22.373917
22.373674
22.373434
22.373198
22.372965
22.372735
22.372509
22.372285
22.372065
22.371848
22.371634
22.371423
22.371215
22.371011
22.370809
22.37061
22.370414
22.370221
22.370031
22.369844
22.369659
22.369477
22.369298
22.369122
22.368949
22.368778
22.36861
22.368444
22.368281
22.368121
22.367963
22.367808
22.367655
22.367505
22.367357
22.367211
22.367068
22.366928
22.366789
22.366653
22.366519
22.366388
22.366258
22.366131
22.366006
22.365883
22.365762
22.365643
22.365527
22.365412
22.365299
22.365189
22.36508
22.364973
22.364869
22.364766
22.364664
22.364565
22.364468
22.364372
22.364278
22.364186
22.364095
22.364007
22.363919
22.363834
22.36375
22.363668
22.363587
22.363508
22.36343
22.363354
22.363279
22.363206
22.363134
22.363064
22.362995
22.362927
22.362861
22.362796
22.362732
22.36267
22.362609
22.362549
22.362491
22.362433
22.362377
22.362322
22.362268
22.362215
22.362164
22.362113
22.362064
22.362015
22.361968
22.361922
22.361876
22.361832
22.361789
22.361746
22.361705
22.361664
22.361624
22.361586
22.361548
22.361511
22.361474
22.361439
22.361404
22.361371
22.361337
22.361305
22.361274
22.361243
22.361213
22.361184
22.361155
22.361127
22.3611
22.361073
22.361047
22.361022
22.360997
22.360973
22.360949
22.360926
22.360904
22.360882
22.36086
22.36084
22.360819
22.3608
22.36078
22.360762
22.360743
22.360726
22.360708
22.360691
22.360675
22.360659
22.360643
22.360628
22.360613
22.360599
22.360585
22.360571
22.360558
22.360545
22.360532
22.36052
22.360508
22.360497
22.360486
22.360475
22.360464
22.360454
22.360444
22.360434
22.360425
22.360415
22.360406
22.360398
22.360389
22.360381
22.360373
22.360366
22.360358
22.360351
22.360344
22.360337
22.36033
22.360324
22.360318
22.360312
22.360306
22.3603
22.360295
22.360289
22.360284
22.360279
22.360274
22.36027
22.360265
22.360261
22.360256
22.360252
22.360248
22.360244
22.360241
22.360237
22.360233
22.36023
22.360227
22.360224
22.360221
22.360218
22.360215
22.360212
22.360209
22.360207
22.360204
22.360202
22.360199
22.360197
22.360195
22.360193
22.360191
22.360189
22.360187
22.360185
22.360183
22.360182
22.36018
22.360178
22.360177
22.360175
22.360174
22.360173
22.360171
22.36017
22.360169
22.360168
22.360166
22.360165
22.360164
22.360163
22.360162
22.360161
22.36016
22.360159
22.360158
22.360158
22.360157
22.360156
22.360155
22.360154
22.360154
22.360153
22.360152
22.360152
22.360151
22.36015
22.36015
22.360149
22.360149
22.360148
22.360147
22.360147
22.360146
22.360146
22.360145
22.360145
22.360144
22.360144
22.360143
22.360143
22.360143
22.360142
22.360142
22.360141
22.360141
22.36014
22.36014
22.36014
22.360139
22.360139
22.360138
22.360138
22.360138
22.360137
22.360137
22.360136
22.360136
22.360136
22.360135
22.360135
22.360135
22.360134
22.360134
22.360133
22.360133
22.360133
22.360132
22.360132
22.360131
22.360131
22.360131
22.36013
22.36013
22.36013
22.360129
22.360129
22.360128
22.360128
22.360128
22.360127
22.360127
22.360126
22.360126
22.360126
22.360125
22.360125
22.360124
22.360124
22.360124
22.360123
22.360123
22.360122
22.360122
22.360121
22.360121
22.360121
22.36012
22.36012
22.360119
22.360119
22.360119
22.360118
22.360118
22.360117
22.360117
22.360116
22.360116
22.360116
22.360115
22.360115
22.360114
22.360114
22.360113
22.360113
22.360113
22.360112
22.360112
22.360111
22.360111
22.360111
22.36011
22.36011
22.360109
22.360109
22.360108
22.360108
22.360108
22.360107
22.360107
22.360106
22.360106
22.360106
22.360105
22.360105
22.360105
22.360104
22.360104
22.360103
22.360103
22.360103
22.360102
22.360102
22.360102
22.360101
22.360101
22.360101
22.3601
22.3601
22.3601
22.360099
22.360099
22.360099
22.360098
22.360098
22.360098
22.360097
22.360097
22.360097
22.360097
22.360096
22.360096
22.360096
22.360095
22.360095
22.360095
22.360095
22.360095
22.360094
22.360094
22.360094
22.360094
22.360093
22.360093
22.360093
22.360093
22.360092
22.360092
22.360092
22.360092
22.360092
22.360091
22.360091
22.360091
22.360091
22.360091
22.360091
22.36009
22.36009
22.36009
22.36009
22.36009
22.36009
22.36009
22.360089
22.360089
22.360089
22.360089
22.360089
22.360089
22.360089
22.360088
22.360088
22.360088
22.360088
22.360088
22.360088
22.360088
22.360088
22.360088
22.360087
22.360087
22.360087
22.360087
22.360087
22.360087
22.360087
22.360087
22.360087
22.360086
22.360086
22.360086
22.360086
22.360086
22.360086
22.360086
22.360086
22.360086
22.360086
22.360086
22.360085
22.360085
22.360085
22.360085
22.360085
22.360085
22.360085
22.360085
22.360085
22.360085
22.360084
22.360084
22.360084
22.360084
22.360084
22.360084
22.360084
22.360084
22.360084
22.360083
22.360083
22.360083
22.360083
22.360083
22.360083
22.360083
22.360083
22.360082
22.360082
22.360082
22.360082
22.360082
22.360082
22.360082
22.360082
22.360081
22.360081
22.360081
22.360081
22.360081
22.360081
22.360081
22.360081
22.36008
22.36008
22.36008
22.36008
22.36008
22.36008
22.360079
22.360079
22.360079
22.360079
22.360079
22.360079
22.360078
22.360078
22.360078
22.360078
22.360078
22.360078
22.360077
22.360077
22.360077
22.360077
22.360077
22.360077
22.360076
22.360076
22.360076
22.360076
22.360076
22.360075
22.360075
22.360075
22.360075
22.360075
22.360075
22.360074
22.360074
22.360074
22.360074
22.360074
22.360073
22.360073
22.360073
22.360073
22.360073
22.360072
22.360072
22.360072
22.360072
22.360072
22.360072
22.360071
22.360071
22.360071
22.360071
22.360071
22.36007
22.36007
22.36007
22.36007
22.36007
22.360069
22.360069
22.360069
22.360069
22.360069
22.360068
22.360068
22.360068
22.360068
22.360068
22.360068
22.360067
22.360067
22.360067
22.360067
22.360067
22.360066
22.360066
22.360066
22.360066
22.360066
22.360065
22.360065
22.360065
22.360065
22.360065
22.360065
22.360064
22.360064
22.360064
22.360064
22.360064
22.360063
22.360063
22.360063
22.360063
22.360063
22.360062
22.360062
22.360062
22.360062
22.360062
22.360062
22.360061
22.360061
22.360061
22.360061
22.360061
22.360061
22.36006
22.36006
22.36006
22.36006
22.36006
22.360059
22.360059
22.360059
22.360059
22.360059
22.360059
22.360058
22.360058
22.360058
22.360058
22.360058
22.360058
22.360057
22.360057
22.360057
22.360057
22.360057
22.360056
22.360056
22.360056
22.360056
22.360056
22.360056
22.360055
22.360055
22.360055
22.360055
22.360055
22.360055
22.360054
22.360054
22.360054
22.360054
22.360054
22.360054
22.360053
22.360053
22.360053
22.360053
22.360053
22.360053
22.360052
22.360052
22.360052
22.360052
22.360052
22.360052
22.360051
22.360051
22.360051
22.360051
22.360051
22.360051
22.36005
22.36005
22.36005
22.36005
22.36005
22.36005
22.360049
22.360049
22.360049
22.360049
22.360049
22.360049
22.360048
22.360048
22.360048
22.360048
22.360048
22.360048
22.360047
22.360047
22.360047
22.360047
22.360047
22.360047
22.360046
22.360046
22.360046
22.360046
22.360046
22.360046
22.360045
22.360045
22.360045
22.360045
22.360045
22.360045
22.360044
22.360044
22.360044
22.360044
22.360044
22.360044
22.360043
22.360043
22.360043
22.360043
22.360043
22.360043
22.360043
22.360042
22.360042
22.360042
22.360042
22.360042
22.360042
22.360042
22.360041
22.360041
22.360041
22.360041
22.360041
22.360041
22.360041
22.36004
22.36004
22.36004
22.36004
22.36004
22.36004
22.36004
22.360039
22.360039
22.360039
22.360039
22.360039
22.360039
22.360039
22.360039
22.360038
22.360038
22.360038
22.360038
22.360038
22.360038
22.360038
22.360038
22.360037
22.360037
22.360037
22.360037
22.360037
22.360037
22.360037
22.360037
22.360036
22.360036
22.360036
22.360036
22.360036
22.360036
22.360036
22.360035
22.360035
22.360035
22.360035
22.360035
22.360035
22.360035
22.360035
22.360034
22.360034
22.360034
22.360034
22.360034
22.360034
22.360034
22.360033
22.360033
22.360033
22.360033
22.360033
22.360033
22.360033
22.360032
22.360032
22.360032
22.360032
22.360032
22.360032
22.360031
22.360031
22.360031
22.360031
22.360031
22.360031
22.36003
22.36003
22.36003
22.36003
22.36003
22.360029
22.360029
22.360029
22.360029
22.360029
22.360028
22.360028
22.360028
22.360028
22.360027
22.360027
22.360027
22.360027
22.360027
22.360026
22.360026
22.360026
22.360026
22.360025
22.360025
22.360025
22.360025
22.360024
22.360024
22.360024
22.360024
22.360023
22.360023
22.360023
22.360022
22.360022
22.360022
22.360022
22.360021
22.360021
22.360021
22.360021
22.36002
22.36002
22.36002
22.360019
22.360019
22.360019
22.360019
22.360018
22.360018
22.360018
22.360017
22.360017
22.360017
22.360017
22.360016
22.360016
22.360016
22.360015
22.360015
22.360015
22.360014
22.360014
22.360014
22.360014
22.360013
22.360013
22.360013
22.360012
22.360012
22.360012
22.360012
22.360011
22.360011
22.360011
22.360011
22.36001
22.36001
22.36001
22.360009
22.360009
22.360009
22.360009
22.360008
22.360008
22.360008
22.360008
22.360007
22.360007
22.360007
22.360007
22.360006
22.360006
22.360006
22.360006
22.360005
22.360005
22.360005
22.360005
22.360004
22.360004
22.360004
22.360004
22.360004
22.360003
22.360003
22.360003
22.360003
22.360003
22.360002
22.360002
22.360002
22.360002
22.360002
22.360002
22.360002
22.360001
22.360001
22.360001
22.360001
22.360001
22.360001
22.36
22.36
22.36
22.36
22.36
22.359999
22.359999
22.359999
22.359998
22.359998
22.359998
22.359998
22.359998
22.359998
22.359999
22.359999
22.36
22.36
22.36
22.359999
22.359998
22.359996
22.359994
22.359992
22.35999
22.359988
22.359988
22.359988
22.359991
22.359996
22.360005
22.360019
22.36004
22.360078
22.360162
22.360342
22.360918
22.360843
22.360122
22.359849
22.359985
22.36002
22.359991
22.359971
22.359966
22.35996
22.359956
22.359956
22.359958
22.359963
22.359969
22.359976
22.359983
22.359989
22.359995
22.360001
22.360005
22.360008
22.360011
22.360013
22.360014
22.360015
22.360015
22.360016
22.360016
22.360016
22.360016
22.360016
22.360016
22.360016
22.360016
22.360015
22.360015
22.360015
22.360015
22.360015
22.360015
22.360015
22.360015
22.360015
22.360014
22.360014
22.360012
22.36001
22.360011
22.360014
22.360014
22.360014
22.360013
22.360013
22.360013
22.360013
22.360013
22.360013
22.360013
22.360013
22.360012
22.360012
22.360012
22.360012
22.360012
22.360012
22.360012
22.360011
22.360011
22.360011
22.360011
22.360011
22.360011
22.36001
22.36001
22.36001
22.36001
22.36001
22.36001
22.360009
22.360009
22.360009
22.360009
22.360009
22.360008
22.360008
22.360008
22.360008
22.360008
22.360007
22.360007
22.360007
22.360007
22.360007
22.360006
22.360006
22.360006
22.360006
22.360006
22.360005
22.360005
22.360005
22.360005
22.360005
22.360004
22.360004
22.360004
22.360004
22.360003
22.360003
22.360003
22.360003
22.360003
22.360002
22.360002
22.360002
22.360002
22.360002
22.360001
22.360001
22.360001
22.360001
22.360001
22.360001
22.36
22.36
22.36
22.36
22.36
22.359999
22.359999
22.359999
22.359999
22.359999
22.359999
22.359998
22.359998
22.359998
22.359998
22.359998
22.359998
22.359997
22.359997
22.359997
22.359997
22.359997
22.359997
22.359996
22.359996
22.359996
22.359996
22.359996
22.359996
22.359995
22.359995
22.359995
22.359995
22.359995
22.359995
22.359995
22.359994
22.359994
22.359994
22.359994
22.359994
22.359994
22.359993
22.359993
22.359993
22.359993
22.359993
22.359993
22.359993
22.359992
22.359992
22.359992
22.359992
22.359992
22.359992
22.359991
22.359991
22.359991
22.359991
22.359991
22.359991
22.359991
22.35999
22.35999
22.35999
22.35999
22.35999
22.35999
22.359989
22.359989
22.359989
22.359989
22.359989
22.359989
22.359989
22.359988
22.359988
22.359988
22.359988
22.359988
22.359988
22.359987
22.359987
22.359987
22.359987
22.359987
22.359987
22.359986
22.359986
22.359986
22.359986
22.359986
22.359986