-1.25 	300 	0.07298528372445875 	101354.3892626141
-1.247497497497497 	300.0245406685956 	0.0813702294463053 	101359.9732278074
-1.244994994994995 	300.0331850133185 	0.0964751147615085 	101364.4196037456
-1.242492492492492 	300.036685471783 	0.1065830349631893 	101368.3306461264
-1.23998998998999 	300.0392896601639 	0.1134051701969254 	101371.4521459
-1.237487487487487 	300.0411424397078 	0.1189336547688945 	101373.6453932569
-1.234984984984985 	300.0422135827527 	0.1220755431569748 	101374.9121928049
-1.232482482482482 	300.0425995721764 	0.1231314198733837 	101375.3686333277
-1.22997997997998 	300.0422209725343 	0.1219872102294891 	101374.9207762268
-1.227477477477477 	300.0410091661741 	0.1185006667661449 	101373.4877687706
-1.224974974974975 	300.0390129868262 	0.1127391539577162 	101371.1271776429
-1.222472472472472 	300.0362852472428 	0.1048346773796805 	101367.9015878672
-1.21996996996997 	300.0328656855778 	0.09493895911189228 	101363.8580303707
-1.217467467467467 	300.0288368047909 	0.08332033746551684 	101359.0939246789
-1.214964964964965 	300.0243197782038 	0.07027165014457809 	101353.752794607
-1.212462462462462 	300.019389438086 	0.05601558911260857 	101347.9231303279
-1.20995995995996 	300.0141135362705 	0.0407819484828438 	101341.6851610802
-1.207457457457457 	300.0085995885568 	0.0248130826782048 	101335.1660772697
-1.204954954954955 	300.0029302261812 	0.008427917264202441 	101328.463466033
-1.202452452452452 	299.9971844387663 	0.008633684384772735 	101321.6707672318
-1.19994994994995 	299.991478243942 	0.02470207763636751 	101314.9253096683
-1.197447447447447 	299.9859279334609 	0.0407557135951773 	101308.3643481079
-1.194944944944945 	299.9806153276684 	0.05612878226084128 	101302.0846714376
-1.192442442442442 	299.975613010012 	0.07055406170597123 	101296.172103392
-1.18993993993994 	299.9710566228022 	0.08368116957735808 	101290.7866272275
-1.187437437437437 	299.9670753242451 	0.09521601934211363 	101286.0811700437
-1.184934934934935 	299.9637263682475 	0.1048842472380223 	101282.1230958131
-1.182432432432432 	299.9610506161035 	0.1125871607405761 	101278.9607457041
-1.17992992992993 	299.9590901983573 	0.1182560048585598 	101276.6439456666
-1.177427427427427 	299.9578529772436 	0.1218297408839212 	101275.1816061013
-1.174924924924925 	299.957379667097 	0.1232085511822659 	101274.6222496737
-1.172422422422422 	299.9577235213187 	0.1222269582334667 	101275.0285221773
-1.16991991991992 	299.9588786151807 	0.1188718020196401 	101276.3935161728
-1.167417417417417 	299.9608132649541 	0.1132429533831679 	101278.6799180919
-1.164914914914915 	299.9634937921759 	0.1055355771842996 	101281.8476560582
-1.162412412412412 	299.9668300358135 	0.09592630250005207 	101285.7905588983
-1.15990990990991 	299.9707428284864 	0.08456795379267375 	101290.4149199161
-1.157407407407407 	299.9751729039264 	0.0717208125406049 	101295.6509209842
-1.154904904904904 	299.9800532161058 	0.05756858664595069 	101301.4193743921
-1.152402402402403 	299.9853119951899 	0.04238853808935779 	101307.6352404306
-1.1498998998999 	299.9908451715669 	0.02650673674024268 	101314.1758756973
-1.147397397397397 	299.9964878114291 	0.01016202870397461 	101320.8461485959
-1.144894894894895 	300.0021505652055 	0.008673705900111208 	101327.540619563
-1.142392392392392 	300.0078072284091 	0.02264855558870794 	101334.2282641029
-1.13988988988989 	300.0133719573436 	0.03872940045616816 	101340.8073576453
-1.137387387387387 	300.0187263937317 	0.05418563984793509 	101347.1382358707
-1.134884884884885 	300.0237386410835 	0.06865312500795957 	101353.064710103
-1.132382382382382 	300.0282940840867 	0.08182005582343164 	101358.4513909985
-1.12987987987988 	300.0323137642236 	0.09343027540293596 	101363.2047667196
-1.127377377377377 	300.0357420720507 	0.103352374532086 	101367.258819043
-1.124874874874875 	300.0385329226655 	0.1114280292590416 	101370.5592438773
-1.122372372372372 	300.0406361644598 	0.1174920348177845 	101373.0464994652
-1.11986986986987 	300.041994132015 	0.121412721183772 	101374.6525700069
-1.117367367367367 	300.0425624622873 	0.1230369065431462 	101375.3248005208
-1.114864864864865 	300.0423167633152 	0.1223243720382258 	101375.0341894576
-1.112362362362362 	300.041262583338 	0.1192893895562741 	101373.7876306974
-1.10985985985986 	300.0394422674586 	0.1140176199453001 	101371.6349831802
-1.107357357357357 	300.0369040089932 	0.1066641107735757 	101368.6334513317
-1.104854854854855 	300.0336868426754 	0.09735175754780959 	101364.8291432539
-1.102352352352353 	300.0298447241612 	0.08625687472985188 	101360.2858053548
-1.09984984984985 	300.0254467584664 	0.07355352587255454 	101355.0854294864
-1.097347347347347 	300.0205808079159 	0.05949006496662608 	101349.3318116003
-1.094844844844845 	300.0153569216906 	0.04438880599399755 	101343.1553087848
-1.092342342342342 	300.0098757260916 	0.02852981419800998 	101336.6748866582
-1.08983983983984 	300.0042288099881 	0.01223105482863147 	101329.9987127507
-1.087337337337337 	299.998511614995 	0.008731776613135251 	101323.2398125336
-1.084834834834835 	299.9927933655165 	0.02089034399012686 	101316.4799719867
-1.082332332332332 	299.9871715712234 	0.0371404441145249 	101309.8344512247
-1.07982982982983 	299.9817768701835 	0.05273434805824324 	101303.4577431365
-1.077327327327327 	299.9767215931068 	0.06730940061344076 	101297.4824231851
-1.074824824824825 	299.9721150993798 	0.08060978323854212 	101292.0377356836
-1.072322322322323 	299.9680390675713 	0.09243538645183377 	101287.2202636882
-1.06981981981982 	299.9645396570874 	0.1025382214647526 	101283.0843364594
-1.067317317317317 	299.9616742479528 	0.1107801337760103 	101279.6979097465
-1.064814814814815 	299.959513269783 	0.1169993529285232 	101277.1440039533
-1.062312312312312 	299.9581094161749 	0.1210511604970703 	101275.4847406846
-1.05980980980981 	299.957510296015 	0.1228335620909013 	101274.7767237086
-1.057307307307307 	299.9577216145803 	0.1222518917090102 	101275.0263358657
-1.054804804804805 	299.9587074705155 	0.1193583040722462 	101276.1913873841
-1.052302302302302 	299.9604526436181 	0.1142713882405309 	101278.2538220689
-1.0497997997998 	299.9629359426378 	0.1071425858020394 	101281.1884650384
-1.047297297297297 	299.9660904208777 	0.09805012220240841 	101284.9165460263
-1.044794794794795 	299.9698643728809 	0.08709334038648577 	101289.3767499136
-1.042292292292292 	299.974185291123 	0.07456507617353648 	101294.4837184442
-1.03978978978979 	299.9789597847496 	0.06072030956083703 	101300.1270092066
-1.037287287287287 	299.984123253318 	0.04585980124152231 	101306.2301744589
-1.034784784784785 	299.9895748180336 	0.03021047614686512 	101312.6742791643
-1.032282282282283 	299.9951703922307 	0.01397072045717924 	101319.2888132662
-1.02977977977978 	300.0008213075782 	0.008381041180209129 	101325.9692282228
-1.027277277277277 	300.0064826792661 	0.01882414828560871 	101332.6623171232
-1.024774774774775 	300.0120583425302 	0.03493385344255676 	101339.2542989119
-1.022272272272272 	300.0174172295062 	0.05042361414021541 	101345.5903687105
-1.01976976976977 	300.0224541899466 	0.06497769681695804 	101351.5459737573
-1.017267267267267 	300.0270929241349 	0.07836884916579352 	101357.0310837152
-1.014764764764765 	300.0312563993609 	0.09036382935753157 	101361.9544136219
-1.012262262262262 	300.0348635554292 	0.1007868653682186 	101366.2199623094
-1.00975975975976 	300.0378402324119 	0.1093956214747747 	101369.7401105204
-1.007257257257257 	300.0401157648054 	0.1159760115317489 	101372.4311187028
-1.004754754754755 	300.0416392407888 	0.1203918812160502 	101374.2328751426
-1.002252252252252 	300.0423818628743 	0.1225193096074694 	101375.1112285688
-0.9997497497497498 	300.0423279231865 	0.1223784744668706 	101375.0474226738
-0.9972472472472473 	300.0414865435403 	0.119958332275182 	101374.0524776691
-0.9947447447447449 	300.0398851925484 	0.1152911629624959 	101372.1588364333
-0.9922422422422421 	300.0375418010394 	0.1084828716680426 	101369.3876633721
-0.9897397397397399 	300.0344913434394 	0.09963831378474945 	101365.7804716292
-0.9872372372372376 	300.0307926120596 	0.08894933906237008 	101361.4067452809
-0.9847347347347346 	300.0265179118992 	0.07661358156293914 	101356.3519961778
-0.9822322322322323 	300.0217600283752 	0.06287296646766778 	101350.7262044438
-0.9797297297297296 	300.0166155876666 	0.0479895597679608 	101344.6434819738
-0.9772272272272275 	300.0111629365674 	0.03224099001254716 	101338.1967292844
-0.9747247247247248 	300.0055131650459 	0.01594170324590502 	101331.5172281044
-0.9722222222222224 	299.999786063636 	0.008058350527479099 	101324.746444162
-0.9697197197197196 	299.9940663403503 	0.01722369177850209 	101317.9848620516
-0.9672172172172175 	299.9884524333614 	0.03346713755427479 	101311.348537039
-0.9647147147147147 	299.9830399662014 	0.04911969242295534 	101304.9507409307
-0.9622122122122124 	299.9779160216386 	0.06389171841943785 	101298.8942912934
-0.9597097097097099 	299.9731917811328 	0.07755388567831785 	101293.310322609
-0.9572072072072073 	299.9689635544199 	0.08981169380214203 	101288.3129684938
-0.9547047047047047 	299.9653045832081 	0.1003405911064593 	101283.9884062026
-0.9522022022022023 	299.9622978795509 	0.1089901070079019 	101280.4349478133
-0.9496996996996998 	299.9600030621073 	0.1156040393027725 	101277.7229215886
-0.9471971971971973 	299.9584585041603 	0.120084317569417 	101275.8973491406
-0.9446946946946947 	299.9576984355805 	0.1223371820935093 	101274.999103633
-0.9421921921921923 	299.9577266188571 	0.1222572747409834 	101275.0323123057
-0.93968968968969 	299.9585263614464 	0.1198869273355496 	101275.9773980202
-0.9371871871871872 	299.9601042062448 	0.1153136468763626 	101277.8420802016
-0.9346846846846848 	299.9624242880462 	0.1086546647241563 	101280.5838353162
-0.9321821821821823 	299.9654247697677 	0.09999687015269583 	101284.1298897922
-0.9296796796796799 	299.9690473506491 	0.0894767652924453 	101288.4111779309
-0.9271771771771771 	299.9732262925488 	0.07734515427854816 	101293.3502809934
-0.9246746746746748 	299.977887433951 	0.06382245931726706 	101298.8595434272
-0.9221721721721724 	299.9829773731852 	0.04919493875482944 	101304.8757544829
-0.9196696696696698 	299.9883684751917 	0.03368420584901084 	101311.248313454
-0.9171671671671672 	299.9939281428331 	0.0175606055978335 	101317.820357502
-0.9146646646646649 	299.9995455929627 	0.00721688501715893 	101324.4611091471
-0.9121621621621623 	300.0051614042136 	0.01497663423883461 	101331.1002754076
-0.9096596596596597 	300.0107075092224 	0.03100999777269529 	101337.6572463271
-0.9071571571571573 	300.0160816283385 	0.04654623955215711 	101344.0112182483
-0.9046546546546547 	300.0211852057303 	0.06129129178646804 	101350.0455633413
-0.9021521521521524 	300.025925906933 	0.07498366519369992 	101355.6511533995
-0.8996496496496498 	300.0302087877504 	0.08734842166932157 	101360.7156320138
-0.8971471471471473 	300.0339501935387 	0.09816749439959871 	101365.1399129818
-0.894644644644645 	300.0370773336218 	0.1071993461250274 	101368.8379292183
-0.892142142142142 	300.0395224588989 	0.1142612061897822 	101371.7295116522
-0.8896396396396397 	300.0412332937881 	0.1192001613462536 	101373.7528214011
-0.8871371371371374 	300.0421729157689 	0.1219009878415513 	101374.8641453101
-0.8846346346346349 	300.0423181092368 	0.1223346341913324 	101375.0358540163
-0.8821321321321324 	300.0416751669444 	0.1204771146219618 	101374.2755298945
-0.8796296296296297 	300.0402648112897 	0.1163801036745059 	101372.6077713303
-0.8771271271271271 	300.0381082523687 	0.1101296780712722 	101370.0575606395
-0.8746246246246248 	300.0352407539128 	0.1018316988751345 	101366.6667041954
-0.8721221221221224 	300.0317110354451 	0.09163063365097353 	101362.492796247
-0.8696196196196196 	300.0275783001106 	0.07969124664639127 	101357.6058747187
-0.8671171171171175 	300.0229287665883 	0.06624576307098046 	101352.1081516995
-0.8646146146146148 	300.0178551437804 	0.05156639060839024 	101346.1091376685
-0.8621121121121121 	300.0124531190307 	0.03597407975161179 	101339.7221811177
-0.8596096096096097 	300.006842419038 	0.0197817145728392 	101333.0887590788
-0.857107107107107 	300.0011404821067 	0.006441700196717311 	101326.3476490361
-0.8546046046046049 	299.9954224364461 	0.01329135494974487 	101319.5879870919
-0.8521021021021022 	299.9897752886499 	0.02963234401939404 	101312.9123193363
-0.8495995995995997 	299.9842903000271 	0.04546844846426897 	101306.4287473434
-0.8470970970970974 	299.9790767519172 	0.06050365779506309 	101300.2662923544
-0.8445945945945946 	299.974253944576 	0.07446154578593467 	101294.5657488091
-0.8420920920920922 	299.9699158145427 	0.08703235878687089 	101289.4384877368
-0.8395895895895897 	299.9661343264187 	0.09792480317041241 	101284.9690984718
-0.8370870870870872 	299.962993276929 	0.1069762749472441 	101281.2568714824
-0.8345845845845846 	299.9605443027068 	0.1140292562617796 	101278.3626341103
-0.8320820820820823 	299.9588395146164 	0.1189759780730155 	101276.3476585693
-0.8295795795795798 	299.9579129816409 	0.1217109826668964 	101275.2527081125
-0.8270770770770772 	299.9577665292341 	0.1221226738113395 	101275.0795213588
-0.8245745745745746 	299.9583863137914 	0.1202634117881052 	101275.8119815301
-0.8220720720720721 	299.9597888850458 	0.1162172772204258 	101277.4695209147
-0.8195695695695699 	299.9619276780574 	0.110076870340219 	101279.9969599955
-0.817067067067067 	299.9647657278622 	0.101888878807761 	101283.3510751278
-0.8145645645645651 	299.9682496641622 	0.09176538205732857 	101287.4684512987
-0.8120620620620621 	299.9723149138853 	0.07996656760407252 	101292.2731829401
-0.8095595595595597 	299.9768748129932 	0.06674476834054086 	101297.6627360164
-0.8070570570570572 	299.9818753239612 	0.05241078787161944 	101303.5731290914
-0.8045545545545546 	299.9871690668522 	0.03714710925368019 	101309.8306003613
-0.8020520520520523 	299.9926573100915 	0.02122370194884407 	101316.3181043241
-0.7995495495495494 	299.9982223256907 	0.005186642260109119 	101322.896846886
-0.7970470470470474 	300.003804278626 	0.01105653078525798 	101329.4959041974
-0.7945445445445446 	300.0093494982389 	0.0270868104302405 	101336.0516762926
-0.7920420420420423 	300.014756802978 	0.0427100139246388 	101342.4448871028
-0.7895395395395397 	300.0199201803259 	0.05762180513020502 	101348.549818293
-0.7870370370370371 	300.0247453766057 	0.07156292821342031 	101354.2553088895
-0.7845345345345348 	300.0291379965909 	0.08425259810289727 	101359.4495029092
-0.7820320320320323 	300.0330148110684 	0.09546941175413486 	101364.0337866687
-0.7795295295295296 	300.0362955418559 	0.1049454808384447 	101367.9134823492
-0.7770270270270272 	300.0389061249845 	0.112480106310847 	101371.0006609182
-0.7745245245245247 	300.0407907616255 	0.1179251526264726 	101373.2295419648
-0.7720220220220222 	300.0419162202525 	0.1211623133936596 	101374.5606347976
-0.7695195195195199 	300.0422616857174 	0.1221724607771605 	101374.9691345101
-0.767017017017017 	300.0418300955237 	0.1209169563134948 	101374.4587970835
-0.7645145145145147 	300.0406278441569 	0.1174229325023416 	101373.0370849879
-0.7620120120120122 	300.0386647392295 	0.1117407187281226 	101370.7157012145
-0.7595095095095097 	300.0359678270255 	0.1039425723715515 	101367.5265554311
-0.7570070070070072 	300.0325846705451 	0.09416612574685627 	101363.5258622957
-0.7545045045045048 	300.0285758336437 	0.08258421481088238 	101358.785506775
-0.7520020020020022 	300.0240317475355 	0.06944369304329087 	101353.4123448515
-0.7494994994994997 	300.0190446179737 	0.05501879386592076 	101347.5156054918
-0.7469969969969972 	300.013713198146 	0.03962140644534022 	101341.2120633464
-0.7444944944944945 	300.0081500028065 	0.02355475795310377 	101334.6346565678
-0.7419919919919924 	300.0024678605124 	0.007103593581920885 	101327.9169873103
-0.7394894894894897 	299.996746937282 	0.01075435534951551 	101321.1537507854
-0.7369869869869872 	299.9910724769437 	0.02586712145250391 	101314.4457873743
-0.7344844844844846 	299.9855400224117 	0.04183871099607613 	101307.9060562819
-0.7319819819819822 	299.9802630038548 	0.0570778975205179 	101301.6684210948
-0.7294794794794797 	299.9753508013292 	0.07128941060069 	101295.8622816825
-0.7269769769769773 	299.9708983730093 	0.08416110248273802 	101290.5997826039
-0.7244744744744747 	299.9669920011446 	0.09543478456849995 	101285.9828223719
-0.721971971971972 	299.9637176076772 	0.1048828012883984 	101282.1130122225
-0.7194694694694695 	299.9611283282725 	0.1123585458615721 	101279.0528447499
-0.7169669669669674 	299.9592732493185 	0.1177345027769279 	101276.8603639802
-0.7144644644644647 	299.9581776599562 	0.1209187392914068 	101275.5655111206
-0.711961961961962 	299.9578500633273 	0.1218607810037328 	101275.1783121436
-0.7094594594594597 	299.9582935583712 	0.1205363628343806 	101275.7024732375
-0.7069569569569573 	299.959516224189 	0.1170224505295082 	101277.1473057138
-0.7044544544544545 	299.9614816544666 	0.1113456198446326 	101279.4699294432
-0.7019519519519523 	299.9641612535843 	0.1035956071020985 	101282.636707675
-0.6994494494494495 	299.9674997998119 	0.09393074337682232 	101286.5822827226
-0.6969469469469471 	299.971431722767 	0.08252944551088581 	101291.2294211466
-0.6944444444444446 	299.9758758963339 	0.06968270261151409 	101296.4820776446
-0.6919419419419421 	299.9807554427097 	0.05563609077459555 	101302.2494930896
-0.6894394394394396 	299.9859447712999 	0.0406301380478294 	101308.3834277328
-0.6869369369369374 	299.991359213687 	0.02496749365274826 	101314.7836749047
-0.6844344344344344 	299.9968862375092 	0.008967124033741768 	101321.3174450869
-0.6819319319319321 	300.0024461770274 	0.009608587848811238 	101327.8903423235
-0.6794294294294296 	300.0079865027684 	0.02314780536889271 	101334.4402932139
-0.6769269269269272 	300.0134177847029 	0.0388509990304127 	101340.8617321075
-0.6744244244244245 	300.0186371579841 	0.0539178750658995 	101347.0328487839
-0.6719219219219222 	300.023544677338 	0.06810471197192078 	101352.8356340069
-0.6694194194194195 	300.0280386651745 	0.08108428083814168 	101358.1495849466
-0.6669169169169172 	300.0320342004451 	0.09264742950128073 	101362.8742395254
-0.6644144144144146 	300.0354517807004 	0.1025215484552131 	101366.9157055803
-0.661911911911912 	300.0382212740589 	0.1105023434485913 	101370.1908138168
-0.6594094094094097 	300.0402880548397 	0.116478505842774 	101372.6351094248
-0.656906906906907 	300.0416133975999 	0.1202850585080065 	101374.2025342298
-0.6544044044044046 	300.0421677992001 	0.1219075830632 	101374.8581510898
-0.6519019019019021 	300.0419464588095 	0.1212602753449888 	101374.5964161271
-0.6493993993993996 	300.0409443220087 	0.1183282758342485 	101373.4113751241
-0.6468968968968971 	300.0391668066786 	0.1131941217114283 	101371.3094935688
-0.6443943943943946 	300.0366397730844 	0.1058757406986898 	101368.321201879
-0.6418918918918921 	300.0334103481442 	0.09655316660711025 	101364.5022704538
-0.6393893893893897 	300.0295382432469 	0.08536929759189486 	101359.9235599746
-0.6368868868868871 	300.0251125340314 	0.07255084303936028 	101354.6903522504
-0.6343843843843846 	300.0202190829401 	0.05841188447836999 	101348.904346248
-0.6318818818818821 	300.014958659021 	0.04321774554092487 	101342.6846647259
-0.6293793793793795 	300.0094443232527 	0.0272982462115048 	101336.1649427306
-0.6268768768768773 	300.0037880082369 	0.01092638058464403 	101329.4777170423
-0.6243743743743745 	299.998074476154 	0.009024085769920536 	101322.7227384885
-0.6218718718718721 	299.992379768783 	0.0220938424600198 	101315.9907284047
-0.6193693693693696 	299.9867986196474 	0.03820718085898583 	101309.3937306003
-0.6168668668668671 	299.9814521724709 	0.053648864811713 	101303.0740673915
-0.6143643643643645 	299.9764518967805 	0.06810902981438642 	101297.1637722946
-0.6118618618618621 	299.9718951411324 	0.08127913870456419 	101291.7779290173
-0.6093593593593596 	299.9678735386885 	0.09288222291322802 	101287.0247702567
-0.6068568568568571 	299.9644694718263 	0.1027078817823397 	101283.0016809299
-0.6043543543543546 	299.9617354674142 	0.1106036626593995 	101279.7704179118
-0.6018518518518521 	299.9597210612615 	0.1164396920800081 	101277.3896759021
-0.5993493493493496 	299.9584518641959 	0.1201248496202377 	101275.8896116532
-0.5968468468468471 	299.9579436694293 	0.1215802692616518 	101275.2890183771
-0.5943443443443446 	299.95821265907 	0.1207734364929942 	101275.6069634076
-0.591841841841842 	299.959264232527 	0.1177553466900164 	101276.8495395361
-0.5893393393393397 	299.9610652021458 	0.112537420605578 	101278.9778393271
-0.5868368368368371 	299.9635897913325 	0.1052310174896208 	101281.961370035
-0.5843343343343346 	299.9667839161532 	0.09598501639540521 	101285.7362788194
-0.5818318318318321 	299.9705836998403 	0.08496590165546536 	101290.2272295133
-0.5793293293293297 	299.9749134821568 	0.07247018128274305 	101295.3445690341
-0.5768268268268271 	299.9796851409884 	0.05871801667498561 	101300.9844630985
-0.5743243243243245 	299.9847815958373 	0.04397076735633396 	101307.0085169495
-0.5718218218218221 	299.9901225691111 	0.02853700213932801 	101313.3218985769
-0.5693193193193196 	299.9955994001486 	0.01269012857432836 	101319.7962830201
-0.5668168168168171 	300.00112203526 	0.007404953420185462 	101326.3249272326
-0.5643143143143147 	300.0066488823205 	0.01930367876191975 	101332.8589232502
-0.5618118118118121 	300.0120952814825 	0.03505939725682938 	101339.2981153996
-0.5593093093093094 	300.0173573394114 	0.05024476079382901 	101345.5196834604
-0.5568068068068072 	300.0223305473729 	0.06462546248381758 	101351.4000906772
-0.5543043043043046 	300.0269119838151 	0.07784403686499569 	101356.8173179564
-0.551801801801802 	300.0310189352205 	0.08972063063726336 	101361.6737310329
-0.5492992992992995 	300.0345739245619 	0.09998320565091874 	101365.8776042428
-0.5467967967967969 	300.0375050504401 	0.1084205487583755 	101369.3438846231
-0.5442942942942947 	300.0397538387358 	0.1149338289071506 	101372.0034127819
-0.5417917917917919 	300.0412703228513 	0.1192950341220466 	101373.7968128404
-0.5392892892892895 	300.0420183239709 	0.12149149301154 	101374.6814391283
-0.536786786786787 	300.041991559007 	0.1214148006668592 	101374.6497580854
-0.5342842842842846 	300.0411841445707 	0.1190368814075363 	101373.695043625
-0.531781781781782 	300.0396003767317 	0.1144728340677222 	101371.8222745507
-0.5292792792792794 	300.0372639603299 	0.107687842649756 	101369.05934923
-0.526776776776777 	300.0342108286579 	0.09886561498715524 	101365.4489038251
-0.5242742742742745 	300.0304950885179 	0.08813095273578878 	101361.0550184685
-0.521771771771772 	300.0261996730329 	0.07567646194440167 	101355.9759014347
-0.5192692692692695 	300.0214075740453 	0.06185176144807272 	101350.3096623777
-0.516766766766767 	300.016220126368 	0.04687273704615887 	101344.176185221
-0.5142642642642645 	300.0107528073326 	0.03108587322660481 	101337.7119979926
-0.511761761761762 	300.0051134404545 	0.01477915601317337 	101331.0447153157
-0.5092592592592596 	299.9993985152482 	0.006443754819754365 	101324.2884985977
-0.506756756756757 	299.9936850391359 	0.01829450777766259 	101317.5342633962
-0.5042542542542544 	299.9880698777375 	0.03452589038538281 	101310.8966272964
-0.5017517517517521 	299.9826725735533 	0.05013399985611208 	101304.5166453835
-0.4992492492492494 	299.9775993405972 	0.06479889464298434 	101298.5200423342
-0.496746746746747 	299.9729446450787 	0.07825912074099649 	101293.0184389046
-0.4942442442442445 	299.9688049773462 	0.09019639147846255 	101288.1256722969
-0.4917417417417421 	299.9652629310935 	0.1004259870987439 	101283.9395055209
-0.4892392392392395 	299.9623779115805 	0.1087636301862927 	101280.5297125194
-0.486736736736737 	299.960201594781 	0.1150552609893694 	101277.9576308345
-0.4842342342342345 	299.9587618837602 	0.1192315095819463 	101276.2560612925
-0.481731731731732 	299.9580795696307 	0.121181886846228 	101275.4496661232
-0.4792292292292296 	299.9581784042824 	0.1208861264777534 	101275.5665645208
-0.4767267267267268 	299.9590591604878 	0.1183686943862547 	101276.6072323407
-0.4742242242242246 	299.9606956902064 	0.1136187585069949 	101278.5412002388
-0.471721721721722 	299.963063007621 	0.1067704410384596 	101281.3388638969
-0.4692192192192195 	299.966109900237 	0.0979470943692157 	101284.9397467093
-0.4667167167167169 	299.9697725414476 	0.08732653037071175 	101289.2686071323
-0.4642142142142145 	299.9739798118252 	0.07519914293544114 	101294.2410570865
-0.461711711711712 	299.9786351869924 	0.06175406486063133 	101299.7434801852
-0.4592092092092094 	299.9836373635241 	0.04727751257536628 	101305.6560474429
-0.456706706706707 	299.9889060035538 	0.03205870211063031 	101311.8838603268
-0.4542042042042045 	299.9943372827836 	0.01635608403110268 	101318.3043488709
-0.451701701701702 	299.9998298828068 	0.004405864429738938 	101324.7973647731
-0.4491991991991995 	300.0053398813408 	0.01549820121884679 	101331.311394947
-0.4466966966966969 	300.0107902360632 	0.03126263410619112 	101337.7551972045
-0.4441941941941945 	300.0160827611933 	0.04653463040889217 	101344.0127188195
-0.441691691691692 	300.0211099754512 	0.06107763109283093 	101349.9569289708
-0.4391891891891895 	300.0257722218469 	0.07452897161484884 	101355.4696067025
-0.436686686686687 	300.0299877995571 	0.08673408516553938 	101360.454456622
-0.4341841841841846 	300.0336774356337 	0.09738922123917078 	101364.8174970076
-0.431681681681682 	300.0367673175003 	0.1062950982222527 	101368.4715210157
-0.4291791791791794 	300.0391964852832 	0.1133182408051443 	101371.3443222068
-0.426676676676677 	300.0409036064431 	0.1182237580916317 	101373.3631306422
-0.4241741741741744 	300.0418487527866 	0.1209873133817348 	101374.480950732
-0.421671671671672 	300.0420188261674 	0.1214678005652514 	101374.682037575
-0.4191691691691694 	300.0414027375007 	0.1196556674276589 	101373.9535701978
-0.4166666666666669 	300.040004163015 	0.1156244246940416 	101372.2998017218
-0.4141641641641645 	300.0378469401094 	0.1093525887115512 	101369.7487617118
-0.411661661661662 	300.0349592512042 	0.101018446807173 	101366.3339908225
-0.4091591591591594 	300.0313959676903 	0.09072267309896842 	101362.1203124612
-0.406656656656657 	300.0272338956048 	0.07866121005047863 	101357.1988747277
-0.4041541541541545 	300.0225513705442 	0.06515082948627578 	101351.6621280889
-0.401651651651652 	300.0174483965662 	0.05040782878144246 	101345.6284520798
-0.3991491491491494 	300.0120384056636 	0.03477878066811719 	101339.2320288514
-0.396646646646647 	300.0064234681938 	0.01855242959029563 	101332.5935023754
-0.3941441441441444 	300.0007134038113 	0.003027200671068867 	101325.8430108332
-0.3916416416416419 	299.9949887379123 	0.01453427629749738 	101319.0754581448
-0.3891391391391395 	299.9893463422631 	0.03085064516659088 	101312.4055290518
-0.3866366366366368 	299.9839006963087 	0.04659396762545872 	101305.9683922412
-0.3841341341341344 	299.9787590955345 	0.06144817705118335 	101299.8908588686
-0.381631631631632 	299.974012552396 	0.07516944132504974 	101294.2807014018
-0.3791291291291294 	299.9697600302291 	0.08743711215184406 	101289.2545026388
-0.3766266266266269 	299.9660818265514 	0.09806467405412431 	101284.9073497262
-0.3741241241241244 	299.9630475973757 	0.1068353902020201 	101281.3212501847
-0.371621621621622 	299.9607130176942 	0.1135638090257606 	101278.5620526267
-0.3691191191191194 	299.9591152437615 	0.1182033914576109 	101276.6737610911
-0.366616616616617 	299.9582737245138 	0.1206106766934041 	101275.6791692706
-0.3641141141141143 	299.9582105226443 	0.1208056956931665 	101275.6045613733
-0.3616116116116119 	299.9589167176811 	0.1187831343900661 	101276.4389743986
-0.3591091091091095 	299.9603760573623 	0.1145284065855934 	101278.1634904616
-0.356606606606607 	299.9625657288491 	0.1082011620633424 	101280.7512459149
-0.3541041041041044 	299.9654468973206 	0.09985813440508699 	101284.1562474856
-0.3516016016016019 	299.9689580282102 	0.08969293800104162 	101288.3059879804
-0.3490990990990994 	299.973034544842 	0.07794310964151234 	101293.1238738744
-0.346596596596597 	299.9775751319554 	0.06480018366713883 	101298.4905669452
-0.3440940940940944 	299.9824892732145 	0.05058847828786335 	101304.2990230238
-0.3415915915915919 	299.9876871487467 	0.03557463029473945 	101310.4431462051
-0.3390890890890895 	299.9930699954374 	0.0200216148073127 	101316.8062898773
-0.3365865865865869 	299.9985287968581 	0.004232428475330884 	101323.2592796655
-0.3340840840840844 	300.0040133081866 	0.01223887902619916 	101329.7431200862
-0.3315815815815819 	300.0094601067988 	0.02742461668615333 	101336.1826196218
-0.3290790790790794 	300.0147755236696 	0.04276438632996931 	101342.4671749086
-0.3265765765765769 	300.0198502387303 	0.05744937214748745 	101348.4674564641
-0.3240740740740744 	300.0245908528634 	0.07111962499127439 	101354.0727266868
-0.3215715715715718 	300.0289147453786 	0.08363949814976641 	101359.1856359861
-0.3190690690690695 	300.032737939768 	0.09468079713772715 	101363.7065349472
-0.3165665665665668 	300.0359843866481 	0.1040469975247934 	101367.5457159871
-0.3140640640640644 	300.0385884565503 	0.1115703989338551 	101370.6253115483
-0.311561561561562 	300.0404806277057 	0.1170076714741841 	101372.8629249085
-0.3090590590590593 	300.0416206523965 	0.1203330132609187 	101374.2112516469
-0.3065565565565568 	300.0419874469374 	0.1213755725512917 	101374.6449608361
-0.3040540540540545 	300.0415637747283 	0.1201345996651654 	101374.1440478357
-0.3015515515515518 	300.0403544238006 	0.1166483786870464 	101372.7140400234
-0.2990490490490494 	300.0383801420412 	0.1108944931082049 	101370.3793180015
-0.2965465465465469 	300.0356620147231 	0.1030621208212717 	101367.1650870642
-0.2940440440440444 	300.0322562072211 	0.09321707415571179 	101363.1375639476
-0.2915415415415418 	300.0282321454739 	0.08155800183297002 	101358.3793295879
-0.2890390390390395 	300.0236641136739 	0.06837266880630331 	101352.9778927896