/*--------------------------------*- C++ -*----------------------------------*\
  =========                 |
  \\      /  F ield         | OpenFOAM: The Open Source CFD Toolbox
   \\    /   O peration     | Website:  https://openfoam.org
    \\  /    A nd           | Version:  7
     \\/     M anipulation  |
\*---------------------------------------------------------------------------*/
FoamFile
{
    version     2.0;
    format      ascii;
    class       surfaceScalarField;
    location    "0.00189";
    object      phi;
}
// * * * * * * * * * * * * * * * * * * * * * * * * * * * * * * * * * * * * * //

dimensions      [1 0 -1 0 0 0 0];

internalField   nonuniform List<scalar> 
4999
(
-2.3005512
-2.2995793
-2.2986075
-2.2976356
-2.2966638
-2.2956919
-2.2947201
-2.2937482
-2.2927764
-2.2918045
-2.2908327
-2.2898608
-2.2888889
-2.2879171
-2.2869452
-2.2859734
-2.2850015
-2.2840297
-2.2830578
-2.282086
-2.2811141
-2.2801423
-2.2791704
-2.2781986
-2.2772267
-2.2762549
-2.275283
-2.2743112
-2.2733393
-2.2723675
-2.2713956
-2.2704237
-2.2694519
-2.26848
-2.267508
-2.2665361
-2.2655642
-2.2645923
-2.2636204
-2.2626486
-2.2616768
-2.2607052
-2.2597338
-2.2587624
-2.2577914
-2.2568205
-2.2558496
-2.254879
-2.2539084
-2.2529376
-2.2519671
-2.2509962
-2.2500251
-2.249054
-2.2480823
-2.2471105
-2.2461385
-2.2451658
-2.2441935
-2.2432204
-2.2422473
-2.2412744
-2.2403006
-2.2393277
-2.238354
-2.2373804
-2.2364075
-2.2354329
-2.2344608
-2.2334856
-2.2325137
-2.2315385
-2.2305664
-2.2295917
-2.228619
-2.2276448
-2.2266716
-2.2256979
-2.2247243
-2.2237508
-2.2227772
-2.2218037
-2.22083
-2.2198565
-2.2188829
-2.2179094
-2.2169358
-2.2159622
-2.2149886
-2.2140151
-2.2130415
-2.2120679
-2.2110943
-2.2101208
-2.2091472
-2.2081736
-2.2072
-2.2062265
-2.2052529
-2.2042793
-2.2033057
-2.2023321
-2.2013586
-2.200385
-2.1994114
-2.1984378
-2.1974642
-2.1964906
-2.195517
-2.1945434
-2.1935698
-2.1925963
-2.1916227
-2.1906491
-2.1896755
-2.1887019
-2.1877283
-2.1867547
-2.1857811
-2.1848075
-2.1838339
-2.1828603
-2.1818866
-2.1809131
-2.1799394
-2.1789659
-2.1779922
-2.1770187
-2.176045
-2.1750714
-2.1740978
-2.1731242
-2.1721506
-2.171177
-2.1702033
-2.1692297
-2.1682561
-2.1672825
-2.1663088
-2.1653352
-2.1643616
-2.163388
-2.1624143
-2.1614407
-2.1604671
-2.1594934
-2.1585198
-2.1575462
-2.1565725
-2.1555989
-2.1546253
-2.1536516
-2.152678
-2.1517043
-2.1507307
-2.1497571
-2.1487834
-2.1478098
-2.1468362
-2.1458625
-2.1448889
-2.1439152
-2.1429416
-2.141968
-2.1409943
-2.1400207
-2.1390471
-2.1380735
-2.1370999
-2.1361263
-2.1351527
-2.1341791
-2.1332056
-2.1322321
-2.1312585
-2.130285
-2.1293115
-2.1283381
-2.1273646
-2.1263912
-2.1254178
-2.1244444
-2.1234709
-2.1224975
-2.1215241
-2.1205507
-2.1195772
-2.1186037
-2.1176302
-2.1166566
-2.115683
-2.1147093
-2.1137355
-2.1127616
-2.1117877
-2.1108136
-2.1098395
-2.1088652
-2.1078909
-2.1069165
-2.1059419
-2.1049673
-2.1039926
-2.1030178
-2.1020429
-2.1010679
-2.1000928
-2.0991177
-2.0981426
-2.0971673
-2.0961921
-2.0952167
-2.0942414
-2.093266
-2.0922906
-2.0913151
-2.0903396
-2.0893642
-2.0883886
-2.0874131
-2.0864376
-2.085462
-2.0844865
-2.0835109
-2.0825354
-2.0815598
-2.0805842
-2.0796086
-2.078633
-2.0776574
-2.0766818
-2.0757062
-2.0747305
-2.0737549
-2.0727793
-2.0718037
-2.070828
-2.0698524
-2.0688767
-2.0679011
-2.0669254
-2.0659497
-2.0649741
-2.0639984
-2.0630227
-2.062047
-2.0610713
-2.0600956
-2.0591199
-2.0581442
-2.0571685
-2.0561928
-2.055217
-2.0542413
-2.0532656
-2.0522898
-2.0513141
-2.0503383
-2.0493625
-2.0483868
-2.047411
-2.0464352
-2.0454594
-2.0444836
-2.0435078
-2.042532
-2.0415562
-2.0405803
-2.0396045
-2.0386287
-2.0376528
-2.036677
-2.0357011
-2.0347252
-2.0337493
-2.0327734
-2.0317976
-2.0308216
-2.0298457
-2.0288698
-2.0278939
-2.0269179
-2.025942
-2.024966
-2.0239901
-2.0230141
-2.0220381
-2.0210621
-2.0200861
-2.0191101
-2.0181341
-2.0171581
-2.0161821
-2.015206
-2.01423
-2.0132539
-2.0122778
-2.0113017
-2.0103256
-2.0093495
-2.0083734
-2.0073973
-2.0064212
-2.005445
-2.0044689
-2.0034927
-2.0025165
-2.0015403
-2.0005642
-1.9995879
-1.9986117
-1.9976355
-1.9966593
-1.995683
-1.9947068
-1.9937305
-1.9927543
-1.991778
-1.9908018
-1.9898255
-1.9888492
-1.9878729
-1.9868966
-1.9859204
-1.9849441
-1.9839678
-1.9829915
-1.9820152
-1.9810389
-1.9800626
-1.9790863
-1.97811
-1.9771337
-1.9761574
-1.9751811
-1.9742048
-1.9732285
-1.9722521
-1.9712757
-1.9702993
-1.9693229
-1.9683465
-1.96737
-1.9663934
-1.9654169
-1.9644402
-1.9634636
-1.9624868
-1.96151
-1.9605332
-1.9595563
-1.9585793
-1.9576022
-1.9566251
-1.9556479
-1.9546707
-1.9536933
-1.9527159
-1.9517385
-1.9507609
-1.9497834
-1.9488057
-1.947828
-1.9468502
-1.9458724
-1.9448945
-1.9439166
-1.9429387
-1.9419607
-1.9409827
-1.9400047
-1.9390267
-1.9380486
-1.9370706
-1.9360925
-1.9351144
-1.9341364
-1.9331584
-1.9321803
-1.9312024
-1.9302244
-1.9292465
-1.9282686
-1.9272907
-1.9263129
-1.9253352
-1.9243575
-1.9233798
-1.9224023
-1.9214248
-1.9204473
-1.91947
-1.9184927
-1.9175156
-1.9165385
-1.9155615
-1.9145846
-1.9136078
-1.9126312
-1.9116546
-1.9106782
-1.9097019
-1.9087258
-1.9077498
-1.9067739
-1.9057982
-1.9048226
-1.9038472
-1.902872
-1.901897
-1.9009221
-1.8999474
-1.8989729
-1.8979986
-1.8970245
-1.8960507
-1.895077
-1.8941036
-1.8931304
-1.8921574
-1.8911847
-1.8902122
-1.88924
-1.888268
-1.8872964
-1.886325
-1.8853539
-1.884383
-1.8834125
-1.8824423
-1.8814724
-1.8805028
-1.8795335
-1.8785646
-1.877596
-1.8766278
-1.8756599
-1.8746924
-1.8737253
-1.8727585
-1.8717921
-1.8708261
-1.8698605
-1.8688953
-1.8679305
-1.8669661
-1.8660022
-1.8650386
-1.8640756
-1.8631129
-1.8621507
-1.861189
-1.8602277
-1.8592668
-1.8583065
-1.8573466
-1.8563872
-1.8554283
-1.8544699
-1.853512
-1.8525546
-1.8515977
-1.8506413
-1.8496854
-1.8487301
-1.8477753
-1.846821
-1.8458673
-1.8449141
-1.8439615
-1.8430094
-1.8420579
-1.8411069
-1.8401565
-1.8392067
-1.8382574
-1.8373088
-1.8363607
-1.8354132
-1.8344663
-1.83352
-1.8325744
-1.8316293
-1.8306848
-1.8297409
-1.8287977
-1.8278551
-1.8269131
-1.8259718
-1.825031
-1.8240909
-1.8231515
-1.8222127
-1.8212745
-1.820337
-1.8194002
-1.8184639
-1.8175284
-1.8165935
-1.8156592
-1.8147256
-1.8137927
-1.8128604
-1.8119288
-1.8109978
-1.8100675
-1.8091379
-1.8082089
-1.8072805
-1.8063528
-1.8054258
-1.8044994
-1.8035736
-1.8026485
-1.801724
-1.8008001
-1.7998769
-1.7989543
-1.7980323
-1.7971109
-1.7961901
-1.79527
-1.7943504
-1.7934315
-1.7925131
-1.7915953
-1.7906781
-1.7897615
-1.7888454
-1.78793
-1.787015
-1.7861007
-1.7851868
-1.7842736
-1.7833608
-1.7824486
-1.7815369
-1.7806258
-1.7797151
-1.778805
-1.7778954
-1.7769862
-1.7760776
-1.7751695
-1.7742618
-1.7733546
-1.7724479
-1.7715416
-1.7706359
-1.7697305
-1.7688256
-1.7679212
-1.7670172
-1.7661136
-1.7652105
-1.7643077
-1.7634054
-1.7625035
-1.761602
-1.7607009
-1.7598002
-1.7588999
-1.7579999
-1.7571003
-1.7562011
-1.7553023
-1.7544038
-1.7535056
-1.7526079
-1.7517104
-1.7508133
-1.7499165
-1.74902
-1.7481238
-1.747228
-1.7463324
-1.7454372
-1.7445422
-1.7436475
-1.7427531
-1.741859
-1.7409651
-1.7400715
-1.7391782
-1.7382851
-1.7373922
-1.7364996
-1.7356072
-1.734715
-1.733823
-1.7329313
-1.7320397
-1.7311484
-1.7302572
-1.7293662
-1.7284754
-1.7275848
-1.7266943
-1.725804
-1.7249139
-1.7240239
-1.723134
-1.7222443
-1.7213547
-1.7204652
-1.7195758
-1.7186866
-1.7177974
-1.7169084
-1.7160194
-1.7151305
-1.7142417
-1.713353
-1.7124643
-1.7115757
-1.7106871
-1.7097986
-1.7089101
-1.7080217
-1.7071333
-1.7062449
-1.7053566
-1.7044682
-1.7035799
-1.7026916
-1.7018032
-1.7009149
-1.7000266
-1.6991382
-1.6982499
-1.6973615
-1.696473
-1.6955846
-1.6946961
-1.6938076
-1.692919
-1.6920303
-1.6911417
-1.6902529
-1.6893641
-1.6884752
-1.6875862
-1.6866972
-1.685808
-1.6849188
-1.6840295
-1.68314
-1.6822505
-1.6813608
-1.680471
-1.679581
-1.6786909
-1.6778007
-1.6769103
-1.6760197
-1.675129
-1.674238
-1.6733469
-1.6724556
-1.671564
-1.6706722
-1.6697802
-1.6688879
-1.6679954
-1.6671026
-1.6662095
-1.6653161
-1.6644224
-1.6635284
-1.6626341
-1.6617394
-1.6608443
-1.6599489
-1.6590531
-1.6581569
-1.6572603
-1.6563632
-1.6554657
-1.6545678
-1.6536694
-1.6527706
-1.6518712
-1.6509714
-1.6500711
-1.6491702
-1.6482688
-1.6473668
-1.6464643
-1.6455612
-1.6446575
-1.6437532
-1.6428483
-1.6419428
-1.6410366
-1.6401299
-1.6392224
-1.6383143
-1.6374055
-1.636496
-1.6355859
-1.634675
-1.6337634
-1.6328511
-1.631938
-1.6310242
-1.6301096
-1.6291943
-1.6282781
-1.6273612
-1.6264435
-1.625525
-1.6246057
-1.6236856
-1.6227646
-1.6218428
-1.6209202
-1.6199967
-1.6190723
-1.6181471
-1.617221
-1.616294
-1.6153661
-1.6144373
-1.6135077
-1.6125771
-1.6116456
-1.6107132
-1.6097799
-1.6088456
-1.6079104
-1.6069743
-1.6060372
-1.6050992
-1.6041602
-1.6032202
-1.6022793
-1.6013374
-1.6003946
-1.5994507
-1.5985059
-1.5975601
-1.5966133
-1.5956656
-1.5947168
-1.593767
-1.5928163
-1.5918645
-1.5909118
-1.589958
-1.5890032
-1.5880474
-1.5870906
-1.5861328
-1.585174
-1.5842141
-1.5832532
-1.5822914
-1.5813285
-1.5803645
-1.5793996
-1.5784337
-1.5774667
-1.5764987
-1.5755297
-1.5745597
-1.5735886
-1.5726166
-1.5716435
-1.5706694
-1.5696944
-1.5687183
-1.5677412
-1.5667631
-1.565784
-1.564804
-1.5638229
-1.5628409
-1.5618579
-1.5608739
-1.5598889
-1.558903
-1.5579162
-1.5569283
-1.5559396
-1.5549499
-1.5539592
-1.5529676
-1.5519752
-1.5509818
-1.5499875
-1.5489923
-1.5479962
-1.5469993
-1.5460015
-1.5450028
-1.5440033
-1.5430029
-1.5420017
-1.5409997
-1.5399969
-1.5389933
-1.5379889
-1.5369837
-1.5359777
-1.534971
-1.5339635
-1.5329553
-1.5319464
-1.5309368
-1.5299264
-1.5289154
-1.5279037
-1.5268913
-1.5258782
-1.5248645
-1.5238502
-1.5228352
-1.5218196
-1.5208034
-1.5197866
-1.5187693
-1.5177513
-1.5167328
-1.5157137
-1.5146941
-1.5136739
-1.5126532
-1.511632
-1.5106103
-1.5095881
-1.5085654
-1.5075422
-1.5065185
-1.5054944
-1.5044698
-1.5034448
-1.5024194
-1.5013935
-1.5003672
-1.4993404
-1.4983133
-1.4972857
-1.4962578
-1.4952295
-1.4942008
-1.4931718
-1.4921424
-1.4911126
-1.4900825
-1.489052
-1.4880213
-1.4869902
-1.4859587
-1.484927
-1.483895
-1.4828626
-1.48183
-1.4807971
-1.4797639
-1.4787305
-1.4776968
-1.4766628
-1.4756286
-1.4745942
-1.4735595
-1.4725246
-1.4714894
-1.4704541
-1.4694185
-1.4683827
-1.4673468
-1.4663106
-1.4652743
-1.4642377
-1.463201
-1.4621642
-1.4611271
-1.4600899
-1.4590525
-1.458015
-1.4569774
-1.4559395
-1.4549016
-1.4538635
-1.4528253
-1.451787
-1.4507485
-1.4497099
-1.4486712
-1.4476323
-1.4465934
-1.4455543
-1.4445151
-1.4434758
-1.4424364
-1.4413969
-1.4403573
-1.4393176
-1.4382778
-1.4372379
-1.4361979
-1.4351578
-1.4341176
-1.4330773
-1.4320369
-1.4309964
-1.4299558
-1.4289151
-1.4278744
-1.4268335
-1.4257926
-1.4247515
-1.4237104
-1.4226692
-1.4216279
-1.4205866
-1.4195451
-1.4185036
-1.4174619
-1.4164202
-1.4153784
-1.4143366
-1.4132946
-1.4122526
-1.4112105
-1.4101683
-1.4091261
-1.4080838
-1.4070414
-1.4059989
-1.4049564
-1.4039138
-1.4028712
-1.4018285
-1.4007857
-1.3997428
-1.3986999
-1.3976569
-1.3966139
-1.3955708
-1.3945277
-1.3934845
-1.3924412
-1.3913979
-1.3903545
-1.3893111
-1.3882676
-1.3872241
-1.3861805
-1.3851369
-1.3840932
-1.3830494
-1.3820056
-1.3809618
-1.3799179
-1.3788739
-1.3778299
-1.3767859
-1.3757417
-1.3746976
-1.3736534
-1.3726091
-1.3715647
-1.3705203
-1.3694759
-1.3684314
-1.3673868
-1.3663422
-1.3652975
-1.3642528
-1.363208
-1.3621631
-1.3611182
-1.3600732
-1.3590282
-1.3579831
-1.3569379
-1.3558927
-1.3548474
-1.3538021
-1.3527567
-1.3517112
-1.3506657
-1.3496201
-1.3485745
-1.3475288
-1.346483
-1.3454372
-1.3443913
-1.3433454
-1.3422994
-1.3412533
-1.3402072
-1.3391611
-1.3381149
-1.3370686
-1.3360223
-1.334976
-1.3339296
-1.3328831
-1.3318366
-1.3307901
-1.3297435
-1.3286969
-1.3276502
-1.3266035
-1.3255568
-1.32451
-1.3234632
-1.3224164
-1.3213695
-1.3203226
-1.3192756
-1.3182287
-1.3171817
-1.3161346
-1.3150876
-1.3140405
-1.3129934
-1.3119462
-1.310899
-1.3098518
-1.3088046
-1.3077573
-1.30671
-1.3056627
-1.3046153
-1.3035679
-1.3025205
-1.301473
-1.3004255
-1.299378
-1.2983305
-1.2972829
-1.2962352
-1.2951875
-1.2941398
-1.2930921
-1.2920443
-1.2909964
-1.2899485
-1.2889006
-1.2878526
-1.2868046
-1.2857565
-1.2847084
-1.2836602
-1.282612
-1.2815637
-1.2805153
-1.2794669
-1.2784185
-1.2773699
-1.2763214
-1.2752727
-1.274224
-1.2731753
-1.2721265
-1.2710776
-1.2700286
-1.2689796
-1.2679306
-1.2668814
-1.2658322
-1.264783
-1.2637336
-1.2626843
-1.2616348
-1.2605853
-1.2595357
-1.2584861
-1.2574364
-1.2563867
-1.2553369
-1.254287
-1.2532371
-1.2521871
-1.251137
-1.2500869
-1.2490368
-1.2479866
-1.2469363
-1.245886
-1.2448356
-1.2437852
-1.2427347
-1.2416841
-1.2406335
-1.2395829
-1.2385322
-1.2374815
-1.2364307
-1.2353798
-1.2343289
-1.233278
-1.232227
-1.2311759
-1.2301248
-1.2290737
-1.2280225
-1.2269712
-1.2259199
-1.2248685
-1.2238171
-1.2227656
-1.2217141
-1.2206625
-1.2196109
-1.2185592
-1.2175075
-1.2164557
-1.2154038
-1.2143519
-1.2132999
-1.2122479
-1.2111958
-1.2101436
-1.2090914
-1.2080391
-1.2069868
-1.2059344
-1.2048819
-1.2038294
-1.2027768
-1.2017242
-1.2006715
-1.1996187
-1.1985659
-1.197513
-1.19646
-1.195407
-1.1943539
-1.1933007
-1.1922475
-1.1911942
-1.1901409
-1.1890875
-1.188034
-1.1869805
-1.1859269
-1.1848732
-1.1838195
-1.1827657
-1.1817119
-1.180658
-1.179604
-1.17855
-1.1774959
-1.1764418
-1.1753876
-1.1743333
-1.173279
-1.1722246
-1.1711702
-1.1701157
-1.1690611
-1.1680065
-1.1669518
-1.1658971
-1.1648423
-1.1637875
-1.1627326
-1.1616776
-1.1606226
-1.1595676
-1.1585124
-1.1574572
-1.156402
-1.1553467
-1.1542913
-1.1532359
-1.1521804
-1.1511249
-1.1500693
-1.1490136
-1.1479579
-1.1469021
-1.1458463
-1.1447904
-1.1437344
-1.1426784
-1.1416223
-1.1405662
-1.13951
-1.1384537
-1.1373973
-1.1363409
-1.1352845
-1.1342279
-1.1331713
-1.1321147
-1.131058
-1.1300012
-1.1289444
-1.1278874
-1.1268305
-1.1257734
-1.1247163
-1.1236592
-1.122602
-1.1215447
-1.1204873
-1.1194299
-1.1183725
-1.117315
-1.1162574
-1.1151997
-1.1141421
-1.1130843
-1.1120265
-1.1109686
-1.1099107
-1.1088528
-1.1077947
-1.1067367
-1.1056786
-1.1046204
-1.1035622
-1.1025039
-1.1014456
-1.1003872
-1.0993288
-1.0982704
-1.0972119
-1.0961533
-1.0950948
-1.0940361
-1.0929775
-1.0919188
-1.09086
-1.0898012
-1.0887424
-1.0876835
-1.0866246
-1.0855657
-1.0845067
-1.0834477
-1.0823886
-1.0813295
-1.0802704
-1.0792112
-1.078152
-1.0770927
-1.0760334
-1.074974
-1.0739146
-1.0728552
-1.0717957
-1.0707362
-1.0696767
-1.0686171
-1.0675574
-1.0664977
-1.065438
-1.0643782
-1.0633184
-1.0622585
-1.0611985
-1.0601385
-1.0590785
-1.0580184
-1.0569583
-1.0558981
-1.0548378
-1.0537775
-1.0527171
-1.0516567
-1.0505962
-1.0495357
-1.0484751
-1.0474144
-1.0463537
-1.0452929
-1.0442321
-1.0431712
-1.0421102
-1.0410492
-1.0399881
-1.0389269
-1.0378657
-1.0368044
-1.035743
-1.0346816
-1.0336201
-1.0325586
-1.031497
-1.0304353
-1.0293735
-1.0283117
-1.0272498
-1.0261879
-1.0251258
-1.0240637
-1.0230016
-1.0219394
-1.0208771
-1.0198147
-1.0187523
-1.0176898
-1.0166273
-1.0155647
-1.014502
-1.0134392
-1.0123764
-1.0113135
-1.0102506
-1.0091876
-1.0081245
-1.0070613
-1.0059981
-1.0049349
-1.0038715
-1.0028081
-1.0017446
-1.0006811
-0.99961749
-0.99855382
-0.99749008
-0.99642629
-0.99536242
-0.99429848
-0.99323448
-0.99217041
-0.99110628
-0.99004207
-0.98897781
-0.98791346
-0.98684906
-0.98578459
-0.98472003
-0.98365543
-0.98259075
-0.98152599
-0.98046118
-0.97939629
-0.97833133
-0.97726631
-0.97620121
-0.97513604
-0.97407081
-0.9730055
-0.97194012
-0.97087468
-0.96980917
-0.96874357
-0.96767792
-0.9666122
-0.96554641
-0.96448055
-0.96341462
-0.96234862
-0.96128255
-0.96021642
-0.95915023
-0.95808396
-0.95701763
-0.95595123
-0.95488478
-0.95381825
-0.95275167
-0.95168502
-0.95061832
-0.94955155
-0.94848472
-0.94741783
-0.94635089
-0.9452839
-0.94421684
-0.94314974
-0.94208258
-0.94101537
-0.93994811
-0.9388808
-0.93781344
-0.93674604
-0.93567858
-0.93461109
-0.93354355
-0.93247597
-0.93140835
-0.9303407
-0.929273
-0.92820526
-0.9271375
-0.9260697
-0.92500186
-0.92393399
-0.92286609
-0.92179817
-0.92073021
-0.91966223
-0.91859422
-0.91752618
-0.91645812
-0.91539004
-0.91432194
-0.91325381
-0.91218567
-0.9111175
-0.91004932
-0.90898112
-0.90791289
-0.90684466
-0.9057764
-0.90470813
-0.90363985
-0.90257154
-0.90150323
-0.9004349
-0.89936655
-0.89829819
-0.89722981
-0.89616143
-0.89509302
-0.8940246
-0.89295617
-0.89188772
-0.89081926
-0.88975078
-0.88868229
-0.88761378
-0.88654525
-0.8854767
-0.88440814
-0.88333956
-0.88227096
-0.88120233
-0.88013369
-0.87906503
-0.87799634
-0.87692763
-0.87585889
-0.87479013
-0.87372135
-0.87265253
-0.87158368
-0.87051481
-0.86944591
-0.86837697
-0.867308
-0.86623899
-0.86516996
-0.86410088
-0.86303176
-0.86196261
-0.86089342
-0.85982418
-0.8587549
-0.85768558
-0.85661622
-0.8555468
-0.85447735
-0.85340784
-0.85233828
-0.85126868
-0.85019902
-0.84912931
-0.84805955
-0.84698973
-0.84591986
-0.84484994
-0.84377996
-0.84270992
-0.84163983
-0.84056967
-0.83949946
-0.8384292
-0.83735887
-0.83628848
-0.83521803
-0.83414753
-0.83307696
-0.83200633
-0.83093565
-0.8298649
-0.82879409
-0.82772323
-0.8266523
-0.82558132
-0.82451027
-0.82343916
-0.822368
-0.82129678
-0.8202255
-0.81915417
-0.81808277
-0.81701132
-0.81593982
-0.81486826
-0.81379664
-0.81272498
-0.81165326
-0.81058148
-0.80950966
-0.80843778
-0.80736586
-0.80629389
-0.80522186
-0.8041498
-0.80307768
-0.80200553
-0.80093333
-0.79986108
-0.7987888
-0.79771647
-0.79664411
-0.79557171
-0.79449927
-0.79342679
-0.79235428
-0.79128174
-0.79020916
-0.78913656
-0.78806392
-0.78699126
-0.78591856
-0.78484585
-0.7837731
-0.78270033
-0.78162754
-0.78055473
-0.7794819
-0.77840905
-0.77733618
-0.77626329
-0.77519039
-0.77411747
-0.77304454
-0.77197159
-0.77089864
-0.76982567
-0.76875269
-0.76767971
-0.76660671
-0.76553371
-0.7644607
-0.76338769
-0.76231467
-0.76124164
-0.76016862
-0.75909559
-0.75802255
-0.75694952
-0.75587649
-0.75480345
-0.75373041
-0.75265738
-0.75158435
-0.75051131
-0.74943828
-0.74836526
-0.74729223
-0.74621921
-0.74514619
-0.74407318
-0.74300017
-0.74192716
-0.74085416
-0.73978117
-0.73870818
-0.73763519
-0.73656221
-0.73548923
-0.73441627
-0.7333433
-0.73227035
-0.7311974
-0.73012445
-0.72905152
-0.72797858
-0.72690566
-0.72583274
-0.72475983
-0.72368692
-0.72261402
-0.72154112
-0.72046823
-0.71939534
-0.71832245
-0.71724957
-0.71617669
-0.71510382
-0.71403095
-0.71295807
-0.7118852
-0.71081233
-0.70973946
-0.70866658
-0.70759371
-0.70652083
-0.70544794
-0.70437505
-0.70330215
-0.70222925
-0.70115633
-0.70008341
-0.69901047
-0.69793752
-0.69686456
-0.69579157
-0.69471857
-0.69364556
-0.69257252
-0.69149946
-0.69042638
-0.68935327
-0.68828013
-0.68720696
-0.68613376
-0.68506053
-0.68398727
-0.68291397
-0.68184064
-0.68076726
-0.67969384
-0.67862038
-0.67754687
-0.67647331
-0.6753997
-0.67432603
-0.67325231
-0.67217853
-0.67110469
-0.67003078
-0.66895681
-0.66788277
-0.66680866
-0.66573447
-0.66466021
-0.66358586
-0.66251143
-0.66143692
-0.66036231
-0.65928761
-0.65821281
-0.65713791
-0.65606291
-0.65498781
-0.6539126
-0.65283727
-0.65176182
-0.65068625
-0.64961056
-0.64853474
-0.64745878
-0.64638269
-0.64530647
-0.6442301
-0.64315358
-0.64207691
-0.64100008
-0.63992309
-0.63884593
-0.63776859
-0.63669107
-0.63561338
-0.6345355
-0.63345742
-0.63237915
-0.63130068
-0.63022199
-0.62914309
-0.62806397
-0.62698463
-0.62590505
-0.62482524
-0.62374517
-0.62266486
-0.62158428
-0.62050343
-0.61942231
-0.61834091
-0.61725921
-0.61617722
-0.61509491
-0.6140123
-0.61292936
-0.61184608
-0.61076246
-0.60967848
-0.60859415
-0.60750944
-0.60642435
-0.60533886
-0.60425298
-0.60316668
-0.60207995
-0.60099278
-0.59990516
-0.59881708
-0.59772852
-0.59663947
-0.59554992
-0.59445985
-0.59336926
-0.59227812
-0.59118642
-0.59009415
-0.58900128
-0.58790781
-0.58681372
-0.58571898
-0.58462358
-0.58352751
-0.58243074
-0.58133325
-0.58023503
-0.57913605
-0.57803631
-0.57693577
-0.57583442
-0.57473224
-0.5736292
-0.57252528
-0.57142046
-0.57031471
-0.56920801
-0.56810034
-0.56699167
-0.56588199
-0.56477125
-0.56365944
-0.56254653
-0.5614325
-0.56031731
-0.55920093
-0.55808335
-0.55696453
-0.55584445
-0.55472306
-0.55360035
-0.55247628
-0.55135082
-0.55022393
-0.54909559
-0.54796577
-0.54683442
-0.54570151
-0.54456702
-0.5434309
-0.54229313
-0.54115367
-0.54001247
-0.53886951
-0.53772474
-0.53657813
-0.53542964
-0.53427924
-0.53312687
-0.53197251
-0.53081612
-0.52965766
-0.52849708
-0.52733435
-0.52616942
-0.52500226
-0.52383282
-0.52266106
-0.52148694
-0.52031041
-0.51913144
-0.51794998
-0.51676598
-0.51557942
-0.51439024
-0.5131984
-0.51200385
-0.51080656
-0.50960647
-0.50840355
-0.50719774
-0.50598901
-0.50477731
-0.50356259
-0.50234481
-0.50112393
-0.4998999
-0.49867268
-0.49744222
-0.49620848
-0.49497141
-0.49373097
-0.49248711
-0.49123979
-0.48998897
-0.4887346
-0.48747664
-0.48621504
-0.48494976
-0.48368076
-0.482408
-0.48113142
-0.479851
-0.47856669
-0.47727844
-0.47598622
-0.47468999
-0.4733897
-0.47208531
-0.4707768
-0.46946411
-0.46814721
-0.46682606
-0.46550063
-0.46417087
-0.46283676
-0.46149825
-0.46015531
-0.45880792
-0.45745602
-0.4560996
-0.45473862
-0.45337305
-0.45200285
-0.450628
-0.44924847
-0.44786422
-0.44647524
-0.44508149
-0.44368294
-0.44227958
-0.44087137
-0.4394583
-0.43804034
-0.43661746
-0.43518966
-0.4337569
-0.43231916
-0.43087644
-0.4294287
-0.42797594
-0.42651814
-0.42505528
-0.42358734
-0.42211433
-0.42063621
-0.41915299
-0.41766465
-0.41617119
-0.41467259
-0.41316884
-0.41165995
-0.4101459
-0.40862669
-0.40710231
-0.40557277
-0.40403807
-0.40249819
-0.40095314
-0.39940293
-0.39784755
-0.39628701
-0.39472131
-0.39315046
-0.39157447
-0.38999333
-0.38840706
-0.38681567
-0.38521916
-0.38361755
-0.38201085
-0.38039907
-0.37878223
-0.37716033
-0.3755334
-0.37390144
-0.37226448
-0.37062254
-0.36897562
-0.36732376
-0.36566696
-0.36400526
-0.36233867
-0.3606672
-0.3589909
-0.35730977
-0.35562385
-0.35393315
-0.35223771
-0.35053755
-0.34883269
-0.34712317
-0.34540901
-0.34369024
-0.3419669
-0.340239
-0.33850658
-0.33676968
-0.33502832
-0.33328253
-0.33153235
-0.32977782
-0.32801896
-0.3262558
-0.32448839
-0.32271675
-0.32094093
-0.31916095
-0.31737685
-0.31558868
-0.31379646
-0.31200023
-0.31020003
-0.3083959
-0.30658788
-0.30477599
-0.30296029
-0.30114081
-0.29931759
-0.29749066
-0.29566007
-0.29382585
-0.29198805
-0.2901467
-0.28830184
-0.28645352
-0.28460177
-0.28274662
-0.28088813
-0.27902633
-0.27716126
-0.27529297
-0.27342149
-0.27154686
-0.26966912
-0.26778831
-0.26590448
-0.26401765
-0.26212788
-0.2602352
-0.25833965
-0.25644126
-0.25454008
-0.25263615
-0.2507295
-0.24882017
-0.24690821
-0.24499364
-0.24307652
-0.24115687
-0.23923474
-0.23731015
-0.23538316
-0.23345379
-0.23152209
-0.22958808
-0.22765182
-0.22571333
-0.22377264
-0.2218298
-0.21988484
-0.2179378
-0.2159887
-0.21403759
-0.21208449
-0.21012945
-0.20817249
-0.20621365
-0.20425296
-0.20229045
-0.20032615
-0.19836011
-0.19639234
-0.19442288
-0.19245176
-0.19047902
-0.18850467
-0.18652876
-0.18455131
-0.18257235
-0.18059192
-0.17861003
-0.17662672
-0.17464202
-0.17265594
-0.17066853
-0.1686798
-0.16668979
-0.16469851
-0.16270599
-0.16071225
-0.15871732
-0.15672123
-0.15472399
-0.15272563
-0.15072617
-0.14872564
-0.14672406
-0.14472145
-0.14271783
-0.14071323
-0.13870766
-0.13670114
-0.13469371
-0.13268537
-0.13067615
-0.12866607
-0.12665516
-0.12464343
-0.1226309
-0.12061759
-0.11860353
-0.11658873
-0.11457322
-0.11255699
-0.11054008
-0.10852249
-0.10650423
-0.10448533
-0.10246579
-0.10044562
-0.09842485
-0.096403484
-0.094381542
-0.092359041
-0.090335998
-0.08831243
-0.086288351
-0.084263778
-0.082238722
-0.080213196
-0.078187211
-0.076160777
-0.074133902
-0.072106596
-0.070078869
-0.06805073
-0.066022191
-0.063993265
-0.061963963
-0.0599343
-0.057904291
-0.05587395
-0.053843295
-0.051812337
-0.04978109
-0.047749561
-0.045717755
-0.043685675
-0.04165332
-0.039620694
-0.037587799
-0.035554643
-0.033521235
-0.031487584
-0.029453699
-0.027419586
-0.02538525
-0.023350696
-0.021315937
-0.019280991
-0.01724589
-0.015210673
-0.013175366
-0.011139957
-0.0091043928
-0.007068618
-0.0050326376
-0.0029965067
-0.00096024409
0.0010761639
0.0031126809
0.0051493253
0.0071861419
0.0092231259
0.011260212
0.013297337
0.015334479
0.017371652
0.019408884
0.021446195
0.023483595
0.025521085
0.027558662
0.029596321
0.031634059
0.033671873
0.035709757
0.037747703
0.0397857
0.041823736
0.043861803
0.045899892
0.047938
0.049976127
0.052014275
0.054052446
0.056090645
0.058128872
0.06016713
0.062205416
0.064243728
0.066282063
0.068320417
0.070358785
0.072397162
0.074435546
0.076473933
0.078512322
0.080550714
0.082589109
0.084627507
0.08666591
0.088704317
0.090742727
0.092781139
0.09481955
0.096857954
0.09889635
0.10093473
0.1029731
0.10501144
0.10704977
0.10908808
0.11112636
0.11316463
0.11520288
0.11724111
0.11927933
0.12131753
0.12335571
0.12539389
0.12743205
0.12947019
0.13150833
0.13354644
0.13558454
0.13762263
0.1396607
0.14169875
0.14373678
0.14577478
0.14781277
0.14985074
0.15188868
0.15392659
0.15596448
0.15800235
0.16004019
0.162078
0.16411579
0.16615356
0.1681913
0.17022902
0.17226671
0.17430439
0.17634204
0.17837966
0.18041727
0.18245486
0.18449242
0.18652996
0.18856749
0.19060499
0.19264247
0.19467993
0.19671736
0.19875478
0.20079218
0.20282955
0.20486691
0.20690425
0.20894156
0.21097886
0.21301613
0.21505339
0.21709062
0.21912784
0.22116503
0.22320221
0.22523936
0.22727649
0.2293136
0.23135069
0.23338776
0.23542481
0.23746183
0.23949884
0.24153582
0.24357278
0.24560971
0.24764663
0.24968352
0.25172039
0.25375724
0.25579406
0.25783087
0.25986765
0.26190441
0.26394114
0.26597786
0.26801455
0.27005123
0.27208788
0.27412452
0.27616114
0.27819774
0.28023432
0.28227088
0.28430743
0.28634397
0.2883805
0.29041701
0.29245352
0.29449002
0.29652653
0.29856303
0.30059953
0.30263604
0.30467256
0.3067091
0.30874565
0.31078221
0.3128188
0.31485541
0.31689205
0.31892871
0.3209654
0.32300212
0.32503887
0.32707565
0.32911246
0.33114929
0.33318615
0.33522303
0.33725993
0.33929684
0.34133376
0.34337069
0.34540762
0.34744455
0.34948146
0.35151835
0.35355523
0.35559207
0.35762888
0.35966565
0.36170237
0.36373905
0.36577567
0.36781224
0.36984875
0.3718852
0.3739216
0.37595793
0.37799421
0.38003044
0.38206661
0.38410274
0.38613882
0.38817486
0.39021087
0.39224685
0.3942828
0.39631874
0.39835466
0.40039058
0.40242649
0.40446241
0.40649833
0.40853427
0.41057023
0.4126062
0.41464219
0.41667821
0.41871426
0.42075034
0.42278644
0.42482258
0.42685875
0.42889495
0.43093119
0.43296745
0.43500374
0.43704006
0.43907641
0.44111279
0.44314918
0.4451856
0.44722204
0.4492585
0.45129498
0.45333147
0.45536798
0.4574045
0.45944102
0.46147756
0.4635141
0.46555064
0.46758719
0.46962374
0.47166029
0.47369684
0.47573339
0.47776994
0.47980648
0.48184302
0.48387955
0.48591608
0.4879526
0.48998911
0.49202561
0.4940621
0.49609859
0.49813506
0.50017153
0.50220799
0.50424443
0.50628088
0.50831731
0.51035373
0.51239014
0.51442655
0.51646295
0.51849933
0.52053571
0.52257208
0.52460844
0.52664479
0.52868113
0.53071746
0.53275378
0.5347901
0.5368264
0.5388627
0.540899
0.54293528
0.54497156
0.54700783
0.54904409
0.55108035
0.5531166
0.55515284
0.55718907
0.55922529
0.56126151
0.56329772
0.56533393
0.56737013
0.56940633
0.57144252
0.57347871
0.57551489
0.57755106
0.57958723
0.58162339
0.58365955
0.5856957
0.58773184
0.58976798
0.59180411
0.59384024
0.59587637
0.59791248
0.5999486
0.60198471
0.60402081
0.6060569
0.60809299
0.61012908
0.61216515
0.61420123
0.6162373
0.61827336
0.62030942
0.62234547
0.62438152
0.62641757
0.62845361
0.63048964
0.63252567
0.63456169
0.63659771
0.63863372
0.64066973
0.64270573
0.64474173
0.64677772
0.64881371
0.65084969
0.65288566
0.65492163
0.6569576
0.65899356
0.66102952
0.66306547
0.66510141
0.66713735
0.66917329
0.67120922
0.67324514
0.67528106
0.67731698
0.67935289
0.68138879
0.68342469
0.68546058
0.68749647
0.68953235
0.69156822
0.69360409
0.69563996
0.69767581
0.69971167
0.70174751
0.70378335
0.70581919
0.70785502
0.70989084
0.71192666
0.71396248
0.71599829
0.71803409
0.72006989
0.72210568
0.72414147
0.72617724
0.72821302
0.73024878
0.73228453
0.73432028
0.73635603
0.73839176
0.74042749
0.74246321
0.74449893
0.74653463
0.74857034
0.75060603
0.75264172
0.7546774
0.75671307
0.75874874
0.7607844
0.76282005
0.76485569
0.76689132
0.76892694
0.77096256
0.77299816
0.77503375
0.77706934
0.77910491
0.78114048
0.78317603
0.78521158
0.78724711
0.78928263
0.79131814
0.79335364
0.79538913
0.79742461
0.79946007
0.80149553
0.80353097
0.8055664
0.80760181
0.80963722
0.81167262
0.813708
0.81574337
0.81777873
0.81981408
0.82184942
0.82388475
0.82592007
0.82795538
0.82999067
0.83202595
0.83406121
0.83609646
0.8381317
0.84016692
0.84220212
0.84423731
0.84627249
0.84830765
0.8503428
0.85237793
0.85441305
0.85644816
0.85848324
0.86051831
0.86255337
0.8645884
0.86662342
0.86865842
0.8706934
0.87272836
0.8747633
0.87679822
0.87883312
0.88086801
0.88290287
0.88493772
0.88697255
0.88900737
0.89104216
0.89307693
0.89511167
0.8971464
0.89918111
0.9012158
0.90325046
0.9052851
0.90731973
0.90935432
0.9113889
0.91342346
0.91545799
0.91749251
0.919527
0.92156148
0.92359593
0.92563036
0.92766477
0.92969916
0.93173353
0.93376788
0.9358022
0.9378365
0.93987077
0.94190503
0.94393926
0.94597347
0.94800765
0.95004182
0.95207596
0.95411008
0.95614418
0.95817825
0.96021231
0.96224634
0.96428035
0.96631434
0.96834831
0.97038226
0.97241618
0.97445008
0.97648396
0.97851782
0.98055166
0.98258548
0.98461928
0.98665305
0.98868681
0.99072054
0.99275425
0.99478794
0.9968216
0.99885523
1.0008888
1.0029224
1.004956
1.0069895
1.0090231
1.0110566
1.0130901
1.0151235
1.017157
1.0191904
1.0212238
1.0232572
1.0252905
1.0273238
1.0293572
1.0313904
1.0334237
1.035457
1.0374902
1.0395234
1.0415566
1.0435897
1.0456229
1.047656
1.0496891
1.0517221
1.0537552
1.0557882
1.0578213
1.0598542
1.0618872
1.0639202
1.0659531
1.067986
1.0700189
1.0720518
1.0740846
1.0761175
1.0781503
1.0801831
1.0822159
1.0842486
1.0862814
1.0883141
1.0903468
1.0923795
1.0944121
1.0964448
1.0984774
1.10051
1.1025425
1.1045751
1.1066076
1.1086401
1.1106726
1.1127051
1.1147375
1.1167699
1.1188024
1.1208348
1.1228671
1.1248995
1.1269318
1.1289642
1.1309964
1.1330288
1.135061
1.1370933
1.1391256