/*--------------------------------*- C++ -*----------------------------------*\
  =========                 |
  \\      /  F ield         | OpenFOAM: The Open Source CFD Toolbox
   \\    /   O peration     | Website:  https://openfoam.org
    \\  /    A nd           | Version:  7
     \\/     M anipulation  |
\*---------------------------------------------------------------------------*/
FoamFile
{
    version     2.0;
    format      ascii;
    class       volScalarField;
    location    "0.00126";
    object      mag(U);
}
// * * * * * * * * * * * * * * * * * * * * * * * * * * * * * * * * * * * * * //

dimensions      [0 1 -1 0 0 0 0];

internalField   nonuniform List<scalar> 
5000
(
3.466591e-06
1.3238561e-05
1.9393989e-05
2.605239e-05
3.2779486e-05
3.9603631e-05
4.6544822e-05
5.3623345e-05
6.0859804e-05
6.8275173e-05
7.5890842e-05
8.3728661e-05
9.1810996e-05
0.00010016078
0.00010880154
0.0001177575
0.00012705359
0.0001367155
0.00014676976
0.00015724379
0.00016816594
0.00017956558
0.00019147311
0.0002039201
0.00021693927
0.00023056462
0.00024483145
0.00025977648
0.00027543786
0.00029185531
0.00030907014
0.00032712536
0.00034606576
0.00036593796
0.00038679054
0.00040867411
0.00043164138
0.00045574729
0.00048104907
0.00050760637
0.00053548135
0.00056473878
0.00059544615
0.0006276738
0.00066149502
0.00069698615
0.00073422675
0.00077329969
0.00081429128
0.00085729144
0.00090239378
0.00094969582
0.00099929904
0.0010513091
0.0011058361
0.0011629944
0.0012229031
0.0012856862
0.0013514725
0.0014203962
0.0014925967
0.0015682189
0.0016474136
0.0017303374
0.001817153
0.0019080295
0.0020031427
0.002102675
0.0022068158
0.0023157618
0.0024297173
0.0025488942
0.0026735123
0.0028037997
0.0029399931
0.0030823378
0.0032310882
0.003386508
0.0035488705
0.0037184589
0.0038955667
0.0040804976
0.0042735663
0.0044750988
0.0046854322
0.0049049155
0.00513391
0.0053727891
0.0056219394
0.0058817604
0.0061526652
0.0064350807
0.0067294481
0.0070362234
0.0073558775
0.0076888965
0.0080357828
0.0083970544
0.0087732465
0.009164911
0.0095726173
0.0099969527
0.010438523
0.010897952
0.011375883
0.01187298
0.012389926
0.012927423
0.013486198
0.014066995
0.014670583
0.015297752
0.015949314
0.016626106
0.017328987
0.018058843
0.01881658
0.019603134
0.020419463
0.021266553
0.022145416
0.02305709
0.024002643
0.024983168
0.025999788
0.027053655
0.028145949
0.029277881
0.030450692
0.031665652
0.032924065
0.034227264
0.035576615
0.036973516
0.038419398
0.039915725
0.041463995
0.043065738
0.044722521
0.046435944
0.048207642
0.050039286
0.051932583
0.053889274
0.055911137
0.057999989
0.06015768
0.0623861
0.064687174
0.067062866
0.069515177
0.072046147
0.074657852
0.077352407
0.080131966
0.08299872
0.0859549
0.089002775
0.092144651
0.095382874
0.098719827
0.10215793
0.10569965
0.10934749
0.11310397
0.11697168
0.12095323
0.12505126
0.12926847
0.13360758
0.13807135
0.14266258
0.1473841
0.15223879
0.15722954
0.16235929
0.16763103
0.17304775
0.1786125
0.18432835
0.19019841
0.19622581
0.20241372
0.20876533
0.21528388
0.22197262
0.22883483
0.23587382
0.24309292
0.25049551
0.25808495
0.26586467
0.27383808
0.28200865
0.29037985
0.29895516
0.30773809
0.31673217
0.32594094
0.33536797
0.3450168
0.35489104
0.36499427
0.37533009
0.38590212
0.39671397
0.40776927
0.41907164
0.43062471
0.44243212
0.4544975
0.46682448
0.47941669
0.49227775
0.50541128
0.5188209
0.53251021
0.54648281
0.56074226
0.57529215
0.59013603
0.60527744
0.6207199
0.63646691
0.65252196
0.6688885
0.68556998
0.70256981
0.71989136
0.73753801
0.75551308
0.77381987
0.79246164
0.81144163
0.83076304
0.85042902
0.8704427
0.89080717
0.91152547
0.9326006
0.95403553
0.97583316
0.99799636
1.020528
1.0434307
1.0667074
1.0903607
1.1143931
1.1388073
1.1636058
1.1887911
1.2143655
1.2403314
1.2666911
1.2934468
1.3206007
1.348155
1.3761116
1.4044725
1.4332398
1.4624152
1.4920006
1.5219976
1.552408
1.5832334
1.6144753
1.6461351
1.6782143
1.7107142
1.7436362
1.7769812
1.8107506
1.8449454
1.8795665
1.9146149
1.9500914
1.9859969
2.022332
2.0590973
2.0962935
2.1339211
2.1719804
2.2104718
2.2493957
2.2887523
2.3285416
2.3687639
2.409419
2.450507
2.4920277
2.5339809
2.5763665
2.6191839
2.6624329
2.706113
2.7502236
2.7947642
2.8397341
2.8851325
2.9309587
2.9772119
3.023891
3.0709952
3.1185233
3.1664743
3.214847
3.2636402
3.3128526
3.3624828
3.4125294
3.462991
3.5138661
3.565153
3.6168502
3.6689559
3.7214685
3.774386
3.8277067
3.8814287
3.93555
3.9900686
4.0449824
4.1002894
4.1559875
4.2120743
4.2685477
4.3254054
4.382645
4.4402642
4.4982605
4.5566315
4.6153747
4.6744875
4.7339673
4.7938116
4.8540176
4.9145826
4.9755039
5.0367788
5.0984043
5.1603777
5.222696
5.2853564
5.3483559
5.4116915
5.4753601
5.5393589
5.6036845
5.6683341
5.7333043
5.7985922
5.8641943
5.9301077
5.9963289
6.0628547
6.1296819
6.1968071
6.2642269
6.3319381
6.3999371
6.4682206
6.5367851
6.6056272
6.6747434
6.7441302
6.813784
6.8837014
6.9538787
7.0243125
7.094999
7.1659347
7.2371159
7.308539
7.3802003
7.4520961
7.5242228
7.5965765
7.6691537
7.7419504
7.814963
7.8881877
7.9616207
8.0352582
8.1090963
8.1831313
8.2573592
8.3317763
8.4063786
8.4811623
8.5561234
8.6312581
8.7065624
8.7820324
8.8576641
8.9334536
9.0093969
9.0854901
9.1617291
9.2381099
9.3146285
9.3912809
9.468063
9.5449708
9.6220002
9.6991472
9.7764077
9.8537776
9.9312527
10.008829
10.086502
10.164269
10.242123
10.320063
10.398083
10.476179
10.554347
10.632584
10.710883
10.789242
10.867657
10.946122
11.024634
11.103188
11.181781
11.260407
11.339063
11.417744
11.496446
11.575165
11.653896
11.732635
11.811377
11.890119
11.968855
12.047581
12.126294
12.204988
12.283659
12.362302
12.440914
12.51949
12.598025
12.676514
12.754954
12.833339
12.911666
12.989929
13.068124
13.146247
13.224293
13.302258
13.380136
13.457923
13.535616
13.613208
13.690695
13.768073
13.845337
13.922483
13.999505
14.0764
14.153162
14.229786
14.306269
14.382604
14.458789
14.534817
14.610684
14.686385
14.761916
14.837272
14.912447
14.987438
15.062239
15.136846
15.211254
15.285458
15.359453
15.433235
15.506799
15.580139
15.653251
15.726131
15.798772
15.871172
15.943324
16.015225
16.086868
16.158251
16.229366
16.300211
16.370779
16.441067
16.511069
16.580782
16.650199
16.719316
16.788129
16.856633
16.924823
16.992694
17.060242
17.127462
17.19435
17.260901
17.32711
17.392972
17.458484
17.523641
17.588438
17.652871
17.716935
17.780626
17.843939
17.906871
17.969417
18.031572
18.093333
18.154695
18.215655
18.276208
18.336349
18.396076
18.455384
18.51427
18.572728
18.630757
18.688351
18.745508
18.802224
18.858494
18.914317
18.969687
19.024603
19.079061
19.133056
19.186588
19.239652
19.292245
19.344365
19.396008
19.447172
19.497855
19.548054
19.597766
19.64699
19.695722
19.743961
19.791704
19.83895
19.885697
19.931942
19.977685
20.022924
20.067657
20.111883
20.155601
20.198809
20.241507
20.283694
20.325368
20.36653
20.407179
20.447313
20.486934
20.526041
20.564633
20.602711
20.640275
20.677325
20.713862
20.749885
20.785397
20.820398
20.854888
20.888869
20.922341
20.955307
20.987767
21.019723
21.051177
21.08213
21.112585
21.142543
21.172007
21.200979
21.229461
21.257455
21.284965
21.311994
21.338543
21.364616
21.390216
21.415346
21.44001
21.46421
21.487951
21.511236
21.534069
21.556453
21.578392
21.599891
21.620953
21.641583
21.661784
21.681562
21.70092
21.719863
21.738396
21.756522
21.774248
21.791577
21.808514
21.825065
21.841234
21.857026
21.872446
21.887499
21.902191
21.916526
21.93051
21.944147
21.957444
21.970404
21.983035
21.99534
22.007325
22.018996
22.030358
22.041416
22.052175
22.062642
22.07282
22.082716
22.092335
22.101681
22.110762
22.11958
22.128143
22.136455
22.144521
22.152347
22.159937
22.167297
22.174432
22.181346
22.188045
22.194534
22.200817
22.2069
22.212786
22.218482
22.223991
22.229318
22.234468
22.239446
22.244255
22.2489
22.253386
22.257716
22.261895
22.265927
22.269816
22.273566
22.277182
22.280666
22.284023
22.287256
22.290369
22.293366
22.29625
22.299025
22.301693
22.304259
22.306726
22.309096
22.311373
22.31356
22.315659
22.317674
22.319608
22.321463
22.323241
22.324947
22.326581
22.328147
22.329647
22.331083
22.332458
22.333774
22.335033
22.336237
22.337387
22.338488
22.339539
22.340543
22.341502
22.342418
22.343291
22.344125
22.34492
22.345678
22.3464
22.347089
22.347745
22.348369
22.348964
22.34953
22.350068
22.35058
22.351067
22.35153
22.351969
22.352387
22.352783
22.35316
22.353517
22.353855
22.354177
22.354481
22.35477
22.355043
22.355302
22.355547
22.355778
22.355998
22.356205
22.356401
22.356586
22.356761
22.356926
22.357081
22.357228
22.357366
22.357497
22.357619
22.357735
22.357844
22.357946
22.358042
22.358132
22.358217
22.358296
22.35837
22.35844
22.358505
22.358566
22.358623
22.358676
22.358726
22.358772
22.358815
22.358855
22.358893
22.358928
22.35896
22.35899
22.359018
22.359044
22.359069
22.359091
22.359113
22.359133
22.359152
22.35917
22.359187
22.359203
22.35922
22.359239
22.359259
22.359277
22.359292
22.359315
22.359341
22.359362
22.359377
22.359399
22.359427
22.359451
22.359469
22.359489
22.359514
22.359537
22.359557
22.359574
22.359595
22.359616
22.359634
22.359648
22.359661
22.359674
22.359687
22.359697
22.359704
22.359712
22.359727
22.359741
22.359745
22.359748
22.35977
22.359793
22.3598
22.359803
22.359825
22.359853
22.359868
22.359875
22.359893
22.35992
22.359942
22.359952
22.359967
22.359991
22.360013
22.360029
22.360045
22.360068
22.360091
22.360111
22.360126
22.360144
22.360165
22.360183
22.360199
22.360215
22.360233
22.360251
22.360267
22.360282
22.360298
22.360314
22.360329
22.360343
22.360357
22.360371
22.360385
22.360397
22.360408
22.360418
22.360428
22.360437
22.360444
22.360451
22.360459
22.360467
22.360471
22.360473
22.360484
22.360498
22.360501
22.360501
22.360514
22.360534
22.36054
22.360539
22.360551
22.360572
22.360581
22.360582
22.360591
22.360611
22.360624
22.360629
22.360636
22.360654
22.360671
22.360684
22.360694
22.360711
22.360728
22.360737
22.360745
22.36076
22.36077
22.360773
22.360771
22.360774
22.360784
22.360792
22.360802
22.360814
22.360822
22.360825
22.360825
22.360829
22.360845
22.360859
22.360863
22.360867
22.36088
22.360896
22.360911
22.360923
22.360936
22.360947
22.360955
22.360953
22.360954
22.360968
22.360978
22.360978
22.360982
22.360994
22.361003
22.361007
22.361012
22.361023
22.361033
22.36104
22.361047
22.361056
22.361067
22.361073
22.361078
22.361088
22.361098
22.361106
22.361113
22.361122
22.361133
22.361143
22.361153
22.361163
22.361174
22.361185
22.361192
22.361198
22.361205
22.361212
22.361218
22.361226
22.361234
22.361241
22.361247
22.361255
22.361266
22.361267
22.36126
22.361257
22.361259
22.361256
22.361253
22.361255
22.361257
22.361259
22.361263
22.36126
22.361257
22.361261
22.361266
22.36127
22.361277
22.361286
22.361296
22.361306
22.361316
22.361326
22.361336
22.361346
22.361356
22.361366
22.361372
22.361378
22.361383
22.361388
22.361393
22.361398
22.361403
22.361409
22.361413
22.361418
22.361423
22.361428
22.361432
22.361437
22.36144
22.361444
22.361447
22.36145
22.361454
22.361457
22.36146
22.361463
22.361466
22.361469
22.361472
22.361475
22.361478
22.361481
22.361485
22.361488
22.361492
22.361496
22.3615
22.361503
22.361507
22.361511
22.361515
22.36152
22.361524
22.361523
22.361521
22.361523
22.361525
22.361527
22.361531
22.361533
22.36153
22.36153
22.361533
22.361533
22.361529
22.361529
22.36153
22.36153
22.361529
22.361529
22.361526
22.36152
22.36151
22.361507
22.361507
22.361507
22.361507
22.361504
22.361498
22.361493
22.361493
22.361494
22.361492
22.361489
22.361484
22.361483
22.361483
22.36148
22.361474
22.361472
22.361473
22.361474
22.361472
22.361468
22.361462
22.361463
22.361464
22.361464
22.361462
22.361461
22.361462
22.361462
22.361458
22.361451
22.36145
22.361451
22.361452
22.361452
22.361449
22.361443
22.361437
22.361433
22.361431
22.361427
22.361424
22.36142
22.361418
22.361415
22.361413
22.361412
22.36141
22.361408
22.361406
22.361402
22.361398
22.361396
22.361394
22.361391
22.361387
22.361385
22.361383
22.36138
22.361377
22.361375
22.361374
22.361372
22.361371
22.36137
22.361368
22.361367
22.361365
22.361364
22.361365
22.361364
22.361364
22.361362
22.36136
22.361361
22.361361
22.361361
22.361361
22.36136
22.361359
22.36136
22.361359
22.36136
22.36136
22.36136
22.361359
22.361357
22.361358
22.361358
22.361357
22.361356
22.361355
22.361355
22.361354
22.361351
22.361351
22.361351
22.361351
22.36135
22.361348
22.361345
22.361342
22.361342
22.361342
22.361341
22.361339
22.361337
22.361334
22.361331
22.36133
22.361329
22.361326
22.361323
22.36132
22.361318
22.361316
22.361314
22.36131
22.361306
22.361303
22.361301
22.361299
22.361296
22.361292
22.361288
22.361285
22.361283
22.361281
22.361278
22.361274
22.36127
22.361268
22.361267
22.361264
22.361261
22.361258
22.361254
22.361252
22.361251
22.361249
22.361247
22.361245
22.361242
22.36124
22.361238
22.361236
22.361234
22.361232
22.361231
22.36123
22.361228
22.361226
22.361225
22.361225
22.361224
22.361222
22.361221
22.361219
22.361218
22.361216
22.361216
22.361215
22.361214
22.361213
22.361211
22.361209
22.361208
22.361208
22.361207
22.361205
22.361202
22.3612
22.361198
22.361197
22.361196
22.361194
22.361193
22.361192
22.36119
22.361188
22.361185
22.361183
22.361182
22.36118
22.361178
22.361176
22.361174
22.361172
22.36117
22.361167
22.361165
22.361163
22.361162
22.36116
22.361158
22.361155
22.361153
22.361151
22.361149
22.361147
22.361145
22.361143
22.361141
22.361139
22.361137
22.361135
22.361133
22.361131
22.361129
22.361127
22.361125
22.361123
22.361121
22.361119
22.361117
22.361115
22.361114
22.361112
22.361111
22.361108
22.361106
22.361104
22.361102
22.3611
22.361098
22.361096
22.361095
22.361094
22.361092
22.361089
22.361087
22.361085
22.361084
22.361083
22.361081
22.361078
22.361076
22.361075
22.361073
22.361072
22.36107
22.361068
22.361066
22.361065
22.361064
22.361062
22.361061
22.361059
22.361058
22.361056
22.361055
22.361054
22.361052
22.361051
22.36105
22.361048
22.361047
22.361046
22.361045
22.361044
22.361042
22.361041
22.36104
22.361039
22.361038
22.361036
22.361035
22.361034
22.361033
22.361032
22.361031
22.361029
22.361028
22.361027
22.361026
22.361025
22.361024
22.361023
22.361021
22.36102
22.361019
22.361018
22.361017
22.361015
22.361014
22.361012
22.361011
22.36101
22.361008
22.361007
22.361005
22.361004
22.361003
22.361001
22.360999
22.360998
22.360996
22.360995
22.360993
22.360991
22.360989
22.360988
22.360986
22.360985
22.360983
22.360981
22.360979
22.360978
22.360976
22.360974
22.360972
22.36097
22.360969
22.360967
22.360965
22.360963
22.360961
22.360959
22.360957
22.360956
22.360954
22.360952
22.360949
22.360948
22.360946
22.360944
22.360942
22.36094
22.360937
22.360936
22.360934
22.360933
22.360931
22.360929
22.360927
22.360924
22.360922
22.360921
22.360919
22.360918
22.360916
22.360914
22.360911
22.36091
22.360908
22.360907
22.360905
22.360903
22.360901
22.360899
22.360898
22.360897
22.360896
22.360894
22.360893
22.360891
22.36089
22.360888
22.360887
22.360886
22.360885
22.360884
22.360883
22.360882
22.360881
22.36088
22.360879
22.360878
22.360877
22.360877
22.360876
22.360876
22.360875
22.360874
22.360873
22.360873
22.360873
22.360873
22.360872
22.360871
22.36087
22.36087
22.36087
22.36087
22.36087
22.360869
22.360868
22.360868
22.360867
22.360867
22.360867
22.360867
22.360866
22.360866
22.360865
22.360865
22.360864
22.360864
22.360863
22.360863
22.360862
22.360861
22.36086
22.360859
22.360859
22.360858
22.360858
22.360857
22.360855
22.360854
22.360853
22.360853
22.360852
22.36085
22.360849
22.360847
22.360846
22.360845
22.360844
22.360842
22.360841
22.360839
22.360837
22.360836
22.360834
22.360833
22.360831
22.360829
22.360827
22.360825
22.360824
22.360822
22.360819
22.360817
22.360816
22.360814
22.360812
22.36081
22.360808
22.360805
22.360803
22.360802
22.3608
22.360798
22.360796
22.360794
22.360791
22.360789
22.360788
22.360786
22.360784
22.360782
22.36078
22.360778
22.360777
22.360775
22.360773
22.360772
22.36077
22.360768
22.360767
22.360765
22.360764
22.360762
22.36076
22.360759
22.360758
22.360757
22.360755
22.360754
22.360753
22.360751
22.36075
22.360749
22.360748
22.360747
22.360746
22.360745
22.360744
22.360743
22.360742
22.360741
22.360741
22.36074
22.360739
22.360738
22.360737
22.360736
22.360736
22.360735
22.360735
22.360734
22.360733
22.360732
22.360731
22.360731
22.36073
22.36073
22.360729
22.360728
22.360727
22.360726
22.360726
22.360725
22.360724
22.360723
22.360723
22.360722
22.360721
22.36072
22.36072
22.360719
22.360718
22.360717
22.360716
22.360716
22.360715
22.360713
22.360713
22.360712
22.360712
22.360711
22.36071
22.360709
22.360708
22.360707
22.360706
22.360706
22.360705
22.360704
22.360703
22.360702
22.360702
22.360701
22.3607
22.360699
22.360699
22.360698
22.360697
22.360696
22.360696
22.360695
22.360694
22.360694
22.360693
22.360692
22.360691
22.360691
22.36069
22.36069
22.360689
22.360688
22.360687
22.360687
22.360686
22.360686
22.360685
22.360684
22.360684
22.360683
22.360683
22.360682
22.360681
22.360681
22.36068
22.36068
22.360679
22.360678
22.360678
22.360677
22.360676
22.360676
22.360675
22.360674
22.360674
22.360673
22.360672
22.360672
22.360671
22.36067
22.360669
22.360669
22.360668
22.360667
22.360666
22.360665
22.360665
22.360664
22.360663
22.360662
22.360661
22.36066
22.360659
22.360658
22.360658
22.360657
22.360656
22.360654
22.360654
22.360653
22.360652
22.360651
22.360649
22.360648
22.360647
22.360646
22.360645
22.360644
22.360643
22.360642
22.360641
22.36064
22.360639
22.360637
22.360636
22.360635
22.360634
22.360633
22.360632
22.36063
22.360629
22.360628
22.360627
22.360626
22.360625
22.360623
22.360622
22.360621
22.36062
22.360618
22.360617
22.360616
22.360615
22.360614
22.360613
22.360612
22.36061
22.360609
22.360608
22.360607
22.360606
22.360605
22.360604
22.360603
22.360602
22.360601
22.3606
22.360599
22.360598
22.360597
22.360596
22.360595
22.360594
22.360593
22.360592
22.360591
22.36059
22.360589
22.360588
22.360587
22.360586
22.360586
22.360585
22.360584
22.360583
22.360582
22.360581
22.360581
22.36058
22.360579
22.360578
22.360577
22.360577
22.360576
22.360575
22.360574
22.360574
22.360573
22.360572
22.360571
22.360571
22.36057
22.360569
22.360568
22.360568
22.360567
22.360566
22.360565
22.360565
22.360564
22.360563
22.360563
22.360562
22.360561
22.360561
22.36056
22.360559
22.360558
22.360557
22.360557
22.360556
22.360556
22.360555
22.360554
22.360553
22.360552
22.360552
22.360551
22.360551
22.36055
22.360549
22.360548
22.360547
22.360546
22.360546
22.360545
22.360544
22.360544
22.360543
22.360542
22.360541
22.36054
22.36054
22.360539
22.360539
22.360538
22.360537
22.360536
22.360535
22.360534
22.360534
22.360533
22.360533
22.360532
22.360531
22.36053
22.360529
22.360528
22.360528
22.360527
22.360526
22.360526
22.360525
22.360524
22.360523
22.360522
22.360522
22.360521
22.36052
22.360519
22.360518
22.360518
22.360517
22.360516
22.360516
22.360515
22.360514
22.360513
22.360512
22.360512
22.360511
22.36051
22.360509
22.360509
22.360508
22.360507
22.360506
22.360506
22.360505
22.360504
22.360503
22.360503
22.360502
22.360501
22.360501
22.3605
22.360499
22.360498
22.360498
22.360497
22.360496
22.360495
22.360495
22.360494
22.360493
22.360493
22.360492
22.360491
22.360491
22.36049
22.36049
22.360489
22.360488
22.360487
22.360487
22.360486
22.360486
22.360485
22.360485
22.360484
22.360483
22.360483
22.360482
22.360482
22.360481
22.36048
22.36048
22.360479
22.360479
22.360478
22.360478
22.360477
22.360477
22.360476
22.360475
22.360475
22.360474
22.360474
22.360473
22.360473
22.360472
22.360472
22.360471
22.360471
22.36047
22.36047
22.360469
22.360468
22.360468
22.360468
22.360467
22.360466
22.360466
22.360465
22.360465
22.360464
22.360464
22.360463
22.360463
22.360462
22.360461
22.360461
22.36046
22.36046
22.360459
22.360458
22.360458
22.360457
22.360456
22.360456
22.360455
22.360455
22.360454
22.360453
22.360452
22.360452
22.360451
22.360451
22.36045
22.360449
22.360448
22.360447
22.360447
22.360446
22.360445
22.360444
22.360443
22.360442
22.360442
22.360441
22.36044
22.36044
22.360439
22.360438
22.360437
22.360436
22.360435
22.360434
22.360433
22.360432
22.360431
22.36043
22.360429
22.360428
22.360427
22.360427
22.360426
22.360425
22.360424
22.360423
22.360421
22.360421
22.36042
22.360419
22.360418
22.360417
22.360416
22.360414
22.360413
22.360413
22.360412
22.360411
22.36041
22.360409
22.360408
22.360407
22.360406
22.360405
22.360404
22.360403
22.360402
22.360401
22.3604
22.360399
22.360398
22.360397
22.360396
22.360396
22.360395
22.360394
22.360393
22.360392
22.360391
22.36039
22.36039
22.360389
22.360388
22.360387
22.360386
22.360386
22.360385
22.360384
22.360383
22.360383
22.360382
22.360381
22.36038
22.36038
22.360379
22.360379
22.360378
22.360377
22.360376
22.360376
22.360375
22.360375
22.360374
22.360373
22.360373
22.360372
22.360372
22.360371
22.36037
22.36037
22.360369
22.360369
22.360368
22.360368
22.360367
22.360366
22.360366
22.360365
22.360365
22.360364
22.360363
22.360363
22.360362
22.360362
22.360361
22.360361
22.36036
22.360359
22.360359
22.360358
22.360358
22.360357
22.360356
22.360356
22.360355
22.360355
22.360355
22.360354
22.360353
22.360353
22.360352
22.360351
22.360351
22.36035
22.36035
22.360349
22.360349
22.360348
22.360347
22.360347
22.360346
22.360345
22.360345
22.360344
22.360344
22.360343
22.360342
22.360342
22.360341
22.360341
22.36034
22.36034
22.360339
22.360338
22.360338
22.360337
22.360336
22.360336
22.360335
22.360335
22.360334
22.360333
22.360333
22.360332
22.360332
22.360331
22.36033
22.36033
22.360329
22.360329
22.360328
22.360327
22.360327
22.360326
22.360326
22.360325
22.360324
22.360324
22.360323
22.360323
22.360322
22.360321
22.360321
22.36032
22.36032
22.360319
22.360319
22.360318
22.360317
22.360317
22.360316
22.360316
22.360315
22.360315
22.360314
22.360314
22.360313
22.360312
22.360312
22.360311
22.360311
22.36031
22.360309
22.360309
22.360308
22.360308
22.360307
22.360307
22.360306
22.360305
22.360305
22.360304
22.360304
22.360303
22.360303
22.360302
22.360301
22.360301
22.3603
22.3603
22.360299
22.360299
22.360298
22.360297
22.360297
22.360296
22.360296
22.360295
22.360295
22.360294
22.360293
22.360293
22.360292
22.360292
22.360291
22.36029
22.36029
22.360289
22.360289
22.360288
22.360288
22.360287
22.360286
22.360286
22.360285
22.360285
22.360284
22.360283
22.360283
22.360282
22.360281
22.360281
22.36028
22.36028
22.360279
22.360278
22.360278
22.360277
22.360277
22.360276
22.360275
22.360275
22.360274
22.360273
22.360273
22.360272
22.360272
22.360271
22.36027
22.36027
22.360269
22.360268
22.360268
22.360267
22.360267
22.360266
22.360265
22.360265
22.360264
22.360263
22.360263
22.360262
22.360262
22.360261
22.360261
22.36026
22.360259
22.360258
22.360258
22.360257
22.360257
22.360256
22.360256
22.360255
22.360254
22.360253
22.360253
22.360253
22.360252
22.360252
22.360251
22.36025
22.36025
22.360249
22.360248
22.360248
22.360247
22.360247
22.360246
22.360246
22.360245
22.360245
22.360244
22.360243
22.360243
22.360242
22.360242
22.360241
22.360241
22.36024
22.36024
22.360239
22.360239
22.360238
22.360238
22.360237
22.360237
22.360236
22.360236
22.360235
22.360235
22.360234
22.360234
22.360234
22.360233
22.360233
22.360232
22.360232
22.360231
22.360231
22.360231
22.36023
22.36023
22.360229
22.360229
22.360229
22.360228
22.360228
22.360228
22.360227
22.360227
22.360226
22.360226
22.360226
22.360225
22.360225
22.360225
22.360224
22.360224
22.360224
22.360223
22.360223
22.360223
22.360222
22.360222
22.360221
22.360221
22.360221
22.36022
22.36022
22.36022
22.360219
22.360219
22.360219
22.360218
22.360218
22.360217
22.360217
22.360216
22.360216
22.360216
22.360215
22.360215
22.360214
22.360214
22.360213
22.360213
22.360212
22.360212
22.360211
22.360211
22.36021
22.36021
22.360209
22.360209
22.360208
22.360207
22.360207
22.360206
22.360206
22.360205
22.360205
22.360204
22.360203
22.360202
22.360202
22.360201
22.360201
22.3602
22.360199
22.360198
22.360197
22.360197
22.360196
22.360196
22.360195
22.360194
22.360193
22.360192
22.360191
22.360191
22.36019
22.360189
22.360189
22.360188
22.360187
22.360186
22.360185
22.360184
22.360184
22.360183
22.360182
22.360181
22.36018
22.36018
22.360179
22.360178
22.360177
22.360176
22.360176
22.360175
22.360174
22.360173
22.360172
22.360172
22.360171
22.36017
22.360169
22.360168
22.360168
22.360167
22.360166
22.360166
22.360165
22.360164
22.360163
22.360163
22.360162
22.360161
22.36016
22.36016
22.360159
22.360158
22.360158
22.360157
22.360156
22.360155
22.360155
22.360154
22.360154
22.360153
22.360152
22.360152
22.360151
22.36015
22.36015
22.360149
22.360149
22.360148
22.360147
22.360147
22.360146
22.360146
22.360145
22.360145
22.360144
22.360143
22.360143
22.360142
22.360142
22.360141
22.360141
22.36014
22.36014
22.360139
22.360139
22.360138
22.360138
22.360137
22.360137
22.360136
22.360136
22.360135
22.360134
22.360134
22.360134
22.360133
22.360133
22.360132
22.360131
22.360131
22.36013
22.36013
22.36013
22.360129
22.360128
22.360128
22.360127
22.360127
22.360127
22.360126
22.360125
22.360125
22.360124
22.360124
22.360123
22.360123
22.360122
22.360122
22.360121
22.360121
22.36012
22.36012
22.360119
22.360119
22.360118
22.360118
22.360117
22.360117
22.360116
22.360116
22.360115
22.360114
22.360114
22.360113
22.360113
22.360112
22.360112
22.360111
22.360111
22.36011
22.36011
22.360109
22.360108
22.360108
22.360107
22.360107
22.360106
22.360106
22.360105
22.360104
22.360104
22.360103
22.360103
22.360102
22.360102
22.360101
22.3601
22.3601
22.360099
22.360099
22.360098
22.360098
22.360097
22.360096
22.360096
22.360095
22.360095
22.360094
22.360093
22.360093
22.360092
22.360092
22.360091
22.360091
22.36009
22.360089
22.360089
22.360088
22.360088
22.360087
22.360086
22.360086
22.360085
22.360085
22.360084
22.360084
22.360083
22.360082
22.360082
22.360081
22.360081
22.36008
22.36008
22.360079
22.360078
22.360078
22.360077
22.360077
22.360076
22.360076
22.360075
22.360074
22.360074
22.360073
22.360073
22.360072
22.360072
22.360071
22.360071
22.36007
22.360069
22.360069
22.360068
22.360068
22.360067
22.360067
22.360066
22.360066
22.360065
22.360065
22.360064
22.360064
22.360063
22.360063
22.360062
22.360062
22.360061
22.360061
22.36006
22.36006
22.360059
22.360059
22.360059
22.360058
22.360058
22.360057
22.360057
22.360056
22.360056
22.360056
22.360055
22.360055
22.360054
22.360054
22.360053
22.360053
22.360053
22.360052
22.360052
22.360052
22.360051
22.360051
22.36005
22.36005
22.36005
22.360049
22.360049
22.360049
22.360048
22.360048
22.360048
22.360047
22.360047
22.360047
22.360046
22.360046
22.360046
22.360045
22.360045
22.360045
22.360044
22.360044
22.360044
22.360043
22.360043
22.360043
22.360042
22.360042
22.360042
22.360041
22.360041
22.360041
22.36004
22.36004
22.36004
22.360039
22.360039
22.360039
22.360038
22.360038
22.360038
22.360037
22.360037
22.360037
22.360036
22.360036
22.360036
22.360035
22.360035
22.360035
22.360034
22.360034
22.360034
22.360033
22.360033
22.360033
22.360033
22.360032
22.360031
22.360031
22.360031
22.36003
22.36003
22.36003
22.360029
22.360029
22.360028
22.360027
22.360026
22.360025
22.360024
22.360023
22.360022
22.360022
22.360022
22.360022
22.360023
22.360024
22.360025
22.360027
22.360028
22.360028
22.360027
22.360024
22.36002
22.360014
22.360006
22.359997
22.359988
22.359982
22.359981
22.359988
22.360009
22.360054
22.360147
22.360363
22.360853
22.362348
22.362025
22.360094
22.359663
22.359957
22.359994
22.359938
22.35992
22.359927
22.359936
22.359947
22.359962
22.359977
22.359991
22.360002
22.360012
22.360019
22.360023
22.360026
22.360028
22.360028
22.360028
22.360027
22.360026
22.360025
22.360023
22.360022
22.360021
22.36002
22.360019
22.360019
22.360018
22.360017
22.360016
22.36001
22.360006
22.360011
22.360016
22.360015
22.360014
22.360014
22.360013
22.360013
22.360012
22.360012
22.360011
22.360011
22.36001
22.360009
22.360009
22.360008
22.360007
22.360007
22.360006
22.360005
22.360005
22.360004
22.360003
22.360002
22.360002
22.360001
22.36
22.36
22.359999
22.359998
22.359998
22.359997
22.359996
22.359995
22.359995
22.359994
22.359993
22.359993
22.359992
22.359991
22.359991
22.35999
22.35999
22.359989
22.359988
22.359988
22.359987
22.359987
22.359986
22.359985
22.359985
22.359984
22.359984
22.359983
22.359983
22.359982
22.359982
22.359981
22.359981
22.35998
22.359979
22.359979
22.359978
22.359978
22.359977
22.359977
22.359976
22.359976
22.359976
22.359975
22.359975
22.359974
22.359974
22.359973
22.359973
22.359972
22.359972
22.359971
22.359971
22.35997
22.35997
22.35997
22.359969
22.359969
22.359968
22.359968
22.359967
22.359967
22.359966
22.359966
22.359965
22.359965
22.359965
22.359964
22.359964
22.359963
22.359963
22.359962
22.359962
22.359961
22.359961
22.359961
22.35996
22.35996
22.359959
22.359959
22.359959
22.359958
22.359958
22.359957
22.359957
22.359957
22.359956
22.359956
22.359955
22.359955
22.359955
22.359954
22.359954
22.359954
22.359953
22.359953
22.359952
22.359952
22.359952
22.359951
22.359951
22.35995
22.35995
22.35995
22.359949
22.359949
22.359948
22.359948
22.359947
22.359947
22.359947
22.359946
22.359946
22.359945
22.359945
22.359944
22.359944
22.359943
22.359943
22.359943
22.359942
22.359942
22.359941
22.359941
22.35994
22.35994
22.359939
22.359939
22.359939
22.359938
22.359938
22.359937
22.359937
22.359936
22.359936
22.359935
22.359935
22.359934
22.359934
22.359933
22.359933
22.359933
22.359932
22.359932
22.359931
22.359931
22.35993
22.35993
22.359929
22.359929
22.359929
22.359928
22.359928
22.359927
22.359927
22.359926
22.359926
22.359925
22.359925
22.359925
22.359924
22.359924
22.359923
22.359923
22.359922
22.359922
22.359922
22.359921
22.359921
22.35992
22.35992
22.359919
22.359919
22.359919
22.359918
22.359918
22.359917
22.359917
22.359916
22.359916
22.359916
22.359915
22.359915
22.359914
22.359914
22.359914
22.359913
22.359913
22.359912
22.359912
22.359911
22.359911
22.359911
22.35991
22.35991
22.359909
22.359909
22.359908
22.359908
22.359907
22.359907
22.359907
22.359906
22.359906
22.359905
22.359905
22.359904
22.359904
22.359903
22.359903
22.359902
22.359902
22.359901