/*--------------------------------*- C++ -*----------------------------------*\
  =========                 |
  \\      /  F ield         | OpenFOAM: The Open Source CFD Toolbox
   \\    /   O peration     | Website:  https://openfoam.org
    \\  /    A nd           | Version:  7
     \\/     M anipulation  |
\*---------------------------------------------------------------------------*/
FoamFile
{
    version     2.0;
    format      ascii;
    class       volScalarField;
    location    "0.00126";
    object      Uy;
}
// * * * * * * * * * * * * * * * * * * * * * * * * * * * * * * * * * * * * * //

dimensions      [0 1 -1 0 0 0 0];

internalField   nonuniform List<scalar> 
5000
(
-1.3254703e-21
-5.0440044e-21
0
0
6.2159781e-21
-8.5313053e-36
-8.8123941e-21
0
0
1.2891148e-20
2.8627843e-20
-1.5774334e-20
-1.727612e-20
1.8823093e-20
0
2.206831e-20
-1.3373468e-48
-2.5542396e-20
0
-2.9279526e-20
3.1257956e-20
3.3315887e-20
-7.0916394e-20
3.7689924e-20
4.001627e-20
3.4982456e-34
-4.4974513e-20
-4.7617726e-20
1.0075641e-19
-9.2341834e-34
9.8366553e-34
-5.9426039e-20
-1.2543903e-19
1.3232681e-19
-1.209534e-33
6.395124e-33
2.6863226e-33
-1.6318922e-19
1.7181342e-19
1.8083548e-19
-1.9027376e-19
6.8831184e-33
2.1047575e-19
-1.1063982e-19
-3.4887028e-19
1.2219969e-19
1.2838003e-19
9.2362441e-33
2.832013e-19
0
-1.5605188e-19
-2.3273431e-35
1.7184105e-19
-3.6054609e-19
6.6101096e-33
3.9657554e-19
-2.0790249e-19
7.5261379e-33
2.2843091e-19
0
-2.5081063e-19
-8.9610858e-33
-7.8214735e-35
-2.8818675e-19
3.0174252e-19
-1.104286e-32
-3.3063103e-19
3.4601015e-19
3.6204471e-19
-3.7875986e-19
-3.9618153e-19
4.1433652e-19
4.3325247e-19
-9.0591579e-19
-4.7348222e-19
4.9485578e-19
0
-5.4027665e-19
8.020456e-35
5.8948236e-19
-6.1559072e-19
1.8268076e-34
-1.9070965e-34
-7.003766e-19
-7.3092033e-19
-2.6553635e-32
7.9567291e-19
0
8.6559715e-19
9.3636068e-32
3.2897944e-32
-9.8097018e-19
-1.0224148e-18
2.1308718e-18
7.6825524e-32
-1.1564163e-18
0
0
1.3060503e-18
9.4291454e-32
-2.8305003e-18
1.4728636e-18
3.0651393e-18
0
-1.6585189e-18
-1.7248956e-18
1.7936318e-18
1.8647981e-18
0
0
-2.093606e-18
-2.175229e-18
0
2.3469731e-18
-8.5203293e-32
-2.5305887e-18
2.6270571e-18
-7.7498814e-34
9.8924267e-32
-5.2054973e-48
-6.0920665e-18
1.3469777e-33
3.2766522e-18
0
3.5223636e-18
-3.6511233e-18
-3.7839525e-18
7.8419065e-18
4.0622289e-18
-8.4157691e-18
-4.3580267e-18
4.5127632e-18
4.6722034e-18
4.8364581e-18
0
-5.1798607e-18
-5.3592369e-18
5.543884e-18
1.988207e-31
-5.9294611e-18
6.1306293e-18
6.3375446e-18
0
-6.7691048e-18
-6.9939964e-18
7.2251284e-18
-7.4626263e-18
4.3807044e-33
7.9572266e-18
-8.2145841e-18
8.4788175e-18
-6.0929429e-31
-9.0284289e-18
9.3140664e-18
-9.6070987e-18
-9.9076564e-18
1.021587e-17
0
0
1.1187758e-17
1.1527906e-17
-1.1876364e-17
-1.2233262e-17
1.259873e-17
8.9965716e-31
-1.3355895e-17
1.3747847e-17
1.4148883e-17
0
-1.497871e-17
-1.5407751e-17
0
1.6294704e-17
1.6752857e-17
0
-1.7699114e-17
-3.7838429e-30
1.8686077e-17
-1.9195107e-17
-1.9714649e-17
2.0244812e-17
1.4355593e-30
-1.4675991e-30
-9.3365591e-33
-2.2473739e-17
2.3058536e-17
3.2808372e-30
-1.6687442e-30
1.7112993e-30
-2.551076e-17
0
0
2.7470953e-17
2.8147809e-17
0
0
-3.0249682e-17
3.5141051e-47
3.1710931e-17
0
-3.3220649e-17
3.3993788e-17
9.6377115e-30
-7.11536e-17
3.6386728e-17
7.7253476e-30
5.4063113e-33
3.8890439e-17
-3.9749692e-17
5.772633e-33
5.7448951e-30
-2.9344768e-30
4.3310144e-17
0
-4.5164282e-17
-3.1911116e-30
-1.3063008e-29
-4.8037354e-17
0
5.0013544e-17
5.101974e-17
0
0
0
-5.5163794e-17
-3.8914516e-30
5.730638e-17
0
0
-6.0606564e-17
-6.1729252e-17
6.2863078e-17
6.4007928e-17
0
-6.6330227e-17
-6.7507426e-17
6.869515e-17
6.9893263e-17
0
-7.2320085e-17
2.0422955e-29
5.1863814e-30
-7.6034562e-17
7.7291888e-17
7.8558525e-17
0
-8.1119038e-17
1.1453876e-29
-8.3714688e-17
-1.1792825e-29
1.72688e-16
-8.7670808e-17
1.2344873e-29
3.1366131e-29
6.3460935e-30
9.3054414e-17
-9.4418391e-17
-9.5789183e-17
0
9.8550348e-17
9.9940288e-17
0
-1.0273778e-16
-1.0414489e-16
2.1111453e-16
1.0697469e-16
-1.0839692e-16
-1.0982374e-16
-3.0861652e-29
1.1269018e-16
-1.1412934e-16
8.0148096e-30
1.1701836e-16
-1.1846775e-16
8.3333744e-30
-8.4517329e-30
3.4911104e-32
8.5842103e-30
-1.2575385e-16
0
0
1.3014824e-16
1.3161539e-16
0
0
0
0
-1.3895803e-16
-9.6785504e-30
2.8378777e-16
-6.1118306e-32
-1.4482624e-16
-1.4629053e-16
2.0514069e-29
2.0674494e-29
2.1411932e-32
1.5212974e-16
1.5358393e-16
1.5503542e-16
-3.1296802e-16
-4.7378841e-16
1.5937158e-16
3.2162028e-16
0
-1.6367574e-16
-1.6510236e-16
1.6652459e-16
-4.7732051e-32
7.2200407e-32
-4.8533739e-32
-1.7216557e-16
-1.7356285e-16
1.7495455e-16
3.5268098e-16
-1.7772048e-16
6.4688858e-47
-1.804619e-16
-5.0385263e-29
3.663547e-16
0
0
-3.7439766e-16
1.0469921e-28
3.7968678e-16
0
-1.924573e-16
-1.9375237e-16
1.9503932e-16
-2.7898465e-32
2.7433162e-29
-2.8258275e-32
-2.0010292e-16
2.0134706e-16
2.0258222e-16
0
-2.0502509e-16
2.8633335e-29
2.0743048e-16
-4.1723762e-16
5.8196936e-29
2.1096614e-16
5.8902866e-29
4.2654718e-16
-4.2882417e-16
-2.1554028e-16
2.1665806e-16
3.0946315e-32
2.18862e-16
0
0
-2.2208734e-16
3.0949141e-29
4.4836553e-16
-3.2004801e-32
-6.7870051e-16
2.272419e-16
2.2823888e-16
-4.5844871e-16
2.3019825e-16
-2.3116048e-16
-4.6422197e-16
2.3304969e-16
2.3397651e-16
2.3489138e-16
-2.3579425e-16
8.0538523e-47
2.3756367e-16
-2.384301e-16
2.3928426e-16
-2.4012609e-16
-6.6771591e-29
-6.8715888e-32
-2.4257704e-16
4.8673795e-16
-2.4414831e-16
-6.8008015e-29
6.8147549e-29
2.4641012e-16
4.9427698e-16
-7.4356201e-16
-6.8948579e-29
1.3827977e-28
-6.9256551e-29
5.01173e-16
-5.0247402e-16
6.9868918e-29
5.0499718e-16
0
0
-2.5429174e-16
3.5348951e-29
2.5542056e-16
2.5596487e-16
-2.5649572e-16
-7.7103926e-16
2.5751693e-16
2.580072e-16
7.3465537e-32
2.5894692e-16
0
-5.1966391e-16
-5.2050775e-16
2.6066202e-16
5.2211272e-16
2.6143685e-16
-5.2360693e-16
-5.2431233e-16
5.2498983e-16
5.2563938e-16
0
-5.2685431e-16
2.6370979e-16
5.279566e-16
-2.6423266e-16
-2.6447284e-16
3.7615963e-32
-3.6780191e-29
-2.6510796e-16
2.6529108e-16
2.6545984e-16
-2.6561422e-16
3.6859558e-29
3.7783777e-32
3.6892365e-29
2.6608722e-16
-2.6616917e-16
1.1089288e-28
3.6971614e-29
7.3915953e-29
2.6635071e-16
-2.6635936e-16
3.698047e-29
7.3841341e-29
3.7842667e-32
5.3248416e-16
2.6617512e-16
-2.6609321e-16
-5.319926e-16
3.6915398e-29
5.3151472e-16
2.6561525e-16
-5.3091602e-16
-2.6528559e-16
2.6509797e-16
2.648951e-16
7.3457913e-29
-2.6444351e-16
0
0
-2.6365092e-16
0
2.6304534e-16
-2.6271929e-16
-3.7286112e-32
7.2720644e-29
0
2.6125925e-16
-2.6085513e-16
-2.604353e-16
5.1999945e-16
2.5954838e-16
-2.5908124e-16
0
0
2.5758477e-16
-7.1415359e-29
-2.5650765e-16
0
0
2.5477228e-16
-1.0589964e-28
-2.5353533e-16
0
0
0
0
0
0
0
0
-4.9434632e-16
-1.3676277e-28
2.4558206e-16
-2.4476232e-16
2.4392646e-16
-2.4307449e-16
6.7324743e-29
2.4132227e-16
6.6760417e-29
2.3950576e-16
0
0
-2.3666085e-16
-6.5443815e-29
2.3468446e-16
0
0
0
0
0
0
0
-4.5229524e-16
1.8731481e-28
4.4771555e-16
-2.2268988e-16
-3.1478005e-32
-2.2030854e-16
1.2148999e-28
4.3573418e-16
2.1662406e-16
6.2873233e-47
-6.4228179e-16
0
4.230116e-16
0
0
-4.150341e-16
5.7187825e-29
6.1436539e-16
-2.0340379e-16
-2.0200574e-16
2.0059449e-16
-1.991702e-16
1.9773305e-16
5.4448163e-29
-1.9482095e-16
1.9334638e-16
0
1.9036121e-16
-1.8885104e-16
-3.7465888e-16
1.8579664e-16
1.8425288e-16
1.826984e-16
1.8113345e-16
-3.5911654e-16
-1.7797314e-16
1.7637832e-16
0
-1.7316071e-16
1.7153849e-16
1.6990771e-16
-5.0480603e-16
-4.7356733e-32
3.2993413e-16
-1.6330511e-16
-2.2441573e-29
-1.5996054e-16
4.4985478e-32
3.1318124e-16
-1.5489701e-16
0
4.206694e-29
2.1285845e-32
1.4807317e-16
-1.4635667e-16
4.0162733e-29
1.9821828e-29
2.0064003e-32
1.3945979e-16
-1.3772977e-16
-8.4193249e-47
3.7282869e-29
1.8833948e-32
2.6159677e-16
1.7901011e-29
-1.2733154e-16
0
0
1.2213905e-16
5.0102669e-29
-1.1868741e-16
1.1696584e-16
-1.6000991e-29
-3.3199705e-46
1.5525533e-29
-1.1011766e-16
-1.0841722e-16
-1.4802157e-29
1.0503317e-16
0
0
-1.0000533e-16
9.8343872e-17
-8.0491973e-29
-9.5045079e-17
9.3408533e-17
0
-9.0163082e-17
-8.8554936e-17
8.6957007e-17
8.5369664e-17
0
-8.2228167e-17
-8.0674717e-17
1.5826651e-16
7.7604115e-17
-7.6087623e-17
-7.45841e-17
-1.0137967e-29
-7.1617188e-17
-1.948048e-29
1.3741153e-16
0
0
0
-6.3058197e-17
-6.1684308e-17
0
5.8983761e-17
7.9887868e-30
-5.6347587e-17
0
0
5.2517324e-17
7.1116405e-30
-6.9344975e-30
4.8839737e-17
-4.7648444e-17
1.9337804e-29
4.5318378e-17
0
4.3058943e-17
5.8251586e-30
-4.0870701e-17
3.9803408e-17
-3.8754044e-17
-3.7722631e-17
3.670918e-17
0
-3.4736154e-17
-3.3776547e-17
3.2834841e-17
3.1910993e-17
0
3.0116661e-17
-2.9246045e-17
-2.8393028e-17
2.755752e-17
5.3478853e-17
-1.4405288e-29
-7.5465136e-17
-3.6523332e-47
2.3638939e-17
4.5812321e-17
-1.2310851e-29
-4.298085e-17
2.0807158e-17
-2.0140073e-17
1.9488999e-17
1.8853758e-17
-3.6468336e-17
0
0
3.2934773e-17
2.1253428e-46
-3.0728397e-17
0
0
2.7634474e-17
1.8530788e-46
-2.5710543e-17
0
0
2.3023679e-17
1.1089649e-17
-2.135976e-17
-1.0282298e-17
0
1.9045507e-17
-5.0872771e-30
-1.7618255e-17
8.4689428e-18
0
-7.8206488e-18
7.5120685e-18
-1.0251075e-33
-6.9248713e-18
6.6457897e-18
-6.3760789e-18
-6.1155112e-18
5.8638582e-18
5.6208967e-18
-1.4956967e-30
-5.1601568e-18
4.9419411e-18
1.3138544e-30
-4.528741e-18
4.3333331e-18
-4.1451109e-18
-3.9638682e-18
3.7894054e-18
3.6215244e-18
-9.6078137e-31
-3.3047306e-18
3.1554375e-18
-4.2802634e-34
-2.8741376e-18
2.7417703e-18
-2.6146925e-18
-2.4927316e-18
2.3757215e-18
4.5269938e-18
-1.1979136e-30
-4.1055438e-18
1.9539601e-18
-2.6422485e-34
-3.5373903e-18
-4.7803973e-34
1.5989498e-18
0
-1.44363e-18
0
1.3016938e-18
0
0
0
1.0540871e-18
2.5863758e-48
-9.466052e-19
0
-8.4888294e-19
2.2309826e-31
7.6014039e-19
0
0
0
6.0671753e-19
-1.5907964e-31
-5.4071399e-19
0
-4.8104072e-19
-1.2583711e-31
4.2714771e-19
0
-3.7852525e-19
3.5604235e-19
-1.8597736e-31
-3.1446137e-19
2.9526222e-19
0
2.5981043e-19
6.7607143e-32
-2.2800261e-19
0
-1.9953316e-19
1.8646448e-19
9.670604e-32
-1.6250843e-19
8.4152579e-32
2.0077425e-35
-3.6571407e-32
1.7423202e-35
1.1417176e-19
0
-9.9033502e-20
2.5616242e-32
2.3895748e-32
-2.6053955e-49
2.090034e-32
0
1.3289236e-19
1.7429214e-32
-5.9721723e-20
5.7509013e-20
-1.5504386e-32
-5.5413776e-20
-5.7681503e-20
-1.6823767e-32
1.6725315e-32
-6.0873987e-20
6.6362988e-20
7.0265228e-20
0
6.629392e-20
-1.973281e-32
-7.4688242e-20
0
0
0
1.4337139e-19
-7.6500362e-32
-1.287417e-19
0
0
0
0
0
0
0
7.3141681e-20
-1.7260388e-32
-5.1345763e-20
-2.3972139e-20
2.8989058e-20
3.1537571e-20
-6.3796586e-33
-1.2392809e-32
-3.9221579e-20
4.7326184e-20
-3.5456939e-20
-3.3062759e-20
4.6638969e-20
5.3379603e-20
-2.6149712e-32
-4.5811983e-20
-5.5501374e-20
1.7103192e-32
5.6958383e-20
5.3216704e-20
-5.9042897e-20
-6.4923105e-20
6.2595953e-20
-5.7248965e-20
0
6.1525264e-20
6.2232602e-20
-1.6508023e-32
-5.8856778e-20
6.1218756e-20
-6.1791721e-20
-5.9244711e-20
5.7111226e-20
-5.7349634e-20
-1.5910409e-32
5.5399745e-20
5.3311609e-20
7.4856527e-36
-1.0434776e-19
-2.8050709e-32
4.8426408e-20
4.6800096e-20
0
-4.3781402e-20
0
0
0
-3.4987681e-20
-3.2206135e-20
2.9031185e-20
2.5341622e-20
0
-2.2328738e-20
6.4656526e-33
1.8562792e-20
0
0
-2.4557404e-20
9.5846566e-33
1.4435823e-20
0
0
-2.3884052e-20
1.036053e-32
2.9474989e-20
0
-2.8084832e-20
5.8856649e-33
-7.9033685e-33
9.9947063e-33
3.1266371e-20
0
3.2509788e-20
-2.31614e-32
-4.0278002e-20
0
-2.9155816e-20
2.8037111e-20
2.3959256e-20
-3.850617e-20
-6.010512e-33
6.4572138e-20
-1.177549e-32
-4.1736089e-20
0
0
-1.9451299e-20
6.0431686e-33
3.1010192e-20
0
-3.4504152e-20
2.5998427e-20
1.9059526e-20
-1.9067848e-20
0
2.8230694e-20
-2.0393945e-20
-8.967818e-33
1.0958572e-32
-2.3439419e-20
2.0028169e-32
-2.4202754e-20
2.6342183e-20
-8.134313e-33
1.664352e-32
5.7446798e-20
-8.1491171e-33
-3.0276194e-20
0
0
0
5.3139696e-20
2.4887618e-20
-3.8517195e-20
-1.7037665e-20
0
0
-1.7713688e-20
1.8712513e-49
2.1848336e-20
0
3.9188308e-20
1.9679691e-20
-4.4256806e-20
-2.2697293e-20
0
3.8510943e-20
5.6945764e-36
-6.1240538e-20
5.3599909e-33
3.5824666e-20
-1.7373025e-20
-9.6350175e-36
1.5875866e-20
-4.1457529e-33
-8.2219316e-33
-1.4838647e-20
0
-1.6586945e-20
9.8333756e-33
3.4566499e-20
-1.7404408e-20
3.3501554e-32
2.3186925e-20
-5.3347336e-20
4.1388817e-36
2.9316138e-20
0
0
0
2.7886348e-20
-2.8580065e-20
-5.8618305e-20
2.706789e-20
6.1315498e-33
5.0607547e-33
1.6628039e-20
0
-1.0609832e-20
7.5794762e-37
5.9406118e-21
-2.2045007e-21
-1.126608e-33
1.8759871e-21
1.8942007e-21
-1.3531467e-33
-6.5252186e-21
0
-5.0216049e-21
-5.5319898e-21
0
6.4866847e-21
7.0550891e-21
-7.4772405e-21
0
8.5326951e-21
0
0
-9.1693664e-21
7.8583174e-33
9.6301109e-21
0
0
-8.7146184e-21
-8.3670763e-21
8.0452708e-21
7.63606e-21
-7.1332804e-21
-6.5880102e-21
1.1909781e-20
5.3061399e-21
-1.3319062e-33
-4.3634837e-21
2.1632265e-33
1.9092282e-33
-3.0271108e-21
2.6563747e-21
-2.372009e-21
2.1729931e-21
1.698007e-36
-1.8151599e-21
3.2299347e-21
1.3692722e-21
1.2333844e-21
-2.5475767e-21
-2.7518491e-21
1.4327481e-21
-1.6064634e-21
1.7252438e-21
-1.0679429e-33
-4.9306326e-21
2.8286706e-21
-8.2796408e-34
8.9288846e-34
3.6969866e-21
0
0
-5.4552052e-21
-6.1484323e-21
0
6.3717546e-21
7.0370824e-21
0
7.518864e-21
-2.0756848e-33
-7.2154049e-21
6.7936723e-21
-1.7359259e-33
-6.5507337e-21
0
-8.3968324e-21
-4.6138393e-33
7.5373289e-21
-6.7016453e-21
1.7096167e-33
6.5185395e-21
7.0907276e-21
1.9199597e-33
-6.1205314e-21
0
4.4514153e-21
-4.2959513e-21
1.0740107e-36
-1.5159495e-33
-1.9053902e-21
1.7614586e-21
0
1.6939153e-21
6.5487873e-34
1.2503089e-21
5.7264316e-34
1.1152734e-21
-1.6255411e-21
-3.1465017e-21
5.1050398e-21
5.230915e-21
2.2488129e-21
0
-3.3868496e-21
-7.3380528e-21
3.9078713e-37
-2.2444661e-21
2.2773665e-21
2.2434687e-21
-2.6410787e-21
6.1859794e-21
-6.1698875e-21
-4.3699847e-33
4.1718741e-21
-3.6283483e-21
9.7271535e-34
-1.6317185e-21
1.4166582e-21
1.2236459e-21
-1.112565e-21
-3.0102221e-34
-2.1094243e-21
2.143219e-21
2.8056926e-21
-3.891496e-21
-6.3413679e-34
-2.4800763e-21
1.5910801e-33
3.4263837e-21
1.1035863e-33
-9.283796e-50
4.9706127e-21
1.1136982e-20
-6.2150557e-21
2.5285431e-49
-7.4080646e-21
-1.3408702e-32
8.6856221e-21
-1.8230398e-20
5.3019785e-33
2.0341145e-20
-1.1797736e-50
-1.0309786e-20
0
0
-1.1369903e-20
1.2200785e-20
2.3259063e-20
0
0
0
-1.1916397e-20
-1.2860692e-20
0
1.1138207e-20
-1.1090247e-20
-1.9389406e-32
2.3207556e-20
0
0
0
-1.107534e-20
-1.0945253e-20
1.0448789e-20
-1.1130609e-20
-6.3207712e-33
2.1381495e-20
0
0
-1.8469499e-20
2.3365743e-36
8.1754125e-21
-8.4596461e-21
8.8270569e-21
-8.7903893e-21
4.65086e-33
1.4326821e-20
0
0
-6.6871471e-21
-6.6597029e-21
0
0
5.4121862e-21
5.0066115e-21
0
-4.7789214e-21
-4.4475836e-21
3.9729139e-21
-3.701079e-21
-3.6351582e-21
3.5558201e-21
3.3440257e-21
-1.6803842e-33
-2.7538152e-21
2.6975108e-21
7.7108965e-34
-2.82187e-21
0
-2.5751984e-21
1.3592402e-33
2.5377181e-21
-2.7825771e-21
1.6555044e-33
3.0342837e-21
0
-3.1263061e-21
9.3841868e-34
5.3125236e-37
-4.0377826e-21
4.209521e-21
4.2701788e-21
0
-9.0590721e-21
5.4929894e-33
5.3660445e-21
8.0772594e-37
1.1828577e-20
-1.2228541e-20
-1.2587139e-20
1.2987885e-20
6.6915838e-21
0
-1.3718586e-20
1.1810962e-32
1.4684947e-20
0
-1.4498261e-20
-4.0233178e-33
7.6256838e-21
2.2025168e-33
1.6064639e-20
-1.5991698e-20
-1.9692737e-32
1.5146086e-20
-1.457512e-20
4.0773063e-33
1.5105226e-20
7.6532379e-21
-1.5021613e-20
-7.1198126e-21
1.3456862e-20
-1.3276036e-20
-1.6899615e-32
1.3556926e-20
-1.3296369e-20
1.775941e-33
-6.0431185e-21
6.3919918e-33
1.7076361e-20
-3.1176969e-33
-1.069238e-20
5.1652796e-21
1.0255364e-20
-5.086606e-21
2.7285724e-33
-4.6437857e-21
-4.9818961e-33
4.4649841e-21
-8.9762648e-21
3.6804836e-33
-4.7481667e-33
2.3363175e-33
4.2024984e-21
0
4.077962e-21
3.9696757e-21
0
0
0
0
0
-4.1840158e-21
-4.2401794e-21
0
4.3149276e-21
-4.2761591e-21
-7.1371613e-33
8.7116524e-21
0
0
0
-4.3899753e-21
-4.4364223e-21
4.5219025e-21
4.5399909e-21
-8.9969472e-21
-7.4302798e-33
8.89275e-21
0
-8.6273976e-21
-7.1096484e-33
4.3232646e-21
-4.4066453e-21
4.428841e-21
-4.3888639e-21
-2.4039301e-33
8.5647061e-21
0
0
-4.136315e-21
-4.1304156e-21
0
-4.3825255e-21
-1.2444419e-36
-4.3146196e-21
4.2338689e-21
1.2840224e-20
0
9.2152396e-21
9.2634018e-21
0
-1.3733657e-20
-9.2572226e-21
9.5924029e-21
-4.9582989e-21
-5.0165011e-21
1.5053445e-20
5.0154828e-21
7.2060361e-37
5.2198659e-21
-5.3883679e-21
-5.4937215e-21
-5.5354493e-21
1.6213584e-51
-5.5937633e-21
-5.6190717e-21
5.6996382e-21
0
1.174306e-20
1.1807838e-20
0
-5.837476e-21
-1.1887367e-20
-3.374113e-33
-6.1255666e-21
-1.2157051e-20
1.2044701e-20
1.203842e-20
6.1085532e-21
6.1389484e-21
0
-5.9914843e-21
-1.7857664e-20
5.9894465e-21
4.0543445e-49
-1.7804985e-20
1.1700179e-20
5.7691589e-21
5.7159288e-21
1.1354439e-20
-1.1247839e-20
-5.5701126e-21
5.4902649e-21
5.352264e-21
5.2216466e-21
-1.5478383e-20
-5.1328321e-21
1.5178321e-20
4.9350721e-21
-4.7790363e-21
-9.3466391e-21
4.634732e-21
-4.5926541e-21
7.4650958e-33
-7.1904662e-33
-1.2558564e-20
4.1304638e-21
4.0979588e-21
8.0487141e-21
3.9107915e-21
-7.5558459e-21
-1.0484686e-36
-3.6478729e-21
3.601996e-21
1.0507084e-20
-1.0120751e-20
-3.2831566e-21
9.7059446e-21
0
-9.3679935e-21
-3.0464725e-21
9.0126493e-21
-2.9646149e-21
-5.7659414e-21
-1.5428674e-33
2.9869173e-33
2.6565842e-21
0
5.3013478e-21
5.1512248e-21
-2.4742466e-21
-2.3881133e-21
-4.7155875e-21
2.3735316e-21
2.3705051e-21
-4.6300297e-21
0
4.3214435e-21
4.3004042e-21
-2.1836817e-21
-4.3767811e-21
1.180119e-33
2.0362521e-21
-3.9595761e-21
1.9951474e-21
-6.8459859e-33
-4.2159717e-21
2.1311057e-21
0
4.135915e-21
0
-4.5319884e-33
-2.1044795e-21
-4.4119966e-21
6.8731531e-21
-6.6220771e-37
-4.6520246e-21
0
4.7802538e-21
2.5079899e-21
-5.3201955e-21
3.0816455e-33
2.8265173e-21
-5.7286057e-21
2.9294805e-21
-5.0746954e-33
-6.4384849e-21
3.3956231e-21
-3.5320757e-21
7.2628156e-21
1.1178706e-20
0
-1.186058e-20
-8.1722144e-21
1.2759311e-20
8.8431436e-21
-4.5444107e-21
-9.287358e-21
4.7264379e-21
4.8326918e-21
-9.9576076e-21
5.1363203e-21
1.050647e-20
-5.2356939e-21
7.4360661e-37
-1.0785494e-20
-1.1178228e-20
1.7169516e-20
-5.799083e-21
-9.4079881e-33
1.673463e-20
0
-1.7892081e-20
-1.209516e-20
6.0630634e-21
5.6086805e-21
5.432034e-21
0
5.9602387e-21
-3.3559024e-33
-1.2087111e-20
3.0701899e-33
5.0910954e-21
0
5.4835994e-21
-1.1278483e-20
-1.7109968e-20
1.1322451e-20
1.6521349e-20
5.3395488e-21
-5.278027e-21
-1.0434663e-20
5.0263422e-21
-4.8169485e-21
-4.6982202e-21
9.2556614e-21
-9.0503955e-21
-4.3694159e-21
1.2357986e-20
7.845739e-21
-3.854083e-21
-1.1325666e-20
8.018919e-33
-7.5395061e-33
-3.1642675e-21
-3.3279059e-33
-2.9105624e-21
2.7978861e-21
2.6287944e-21
2.4298994e-21
-2.230138e-21
-2.0704319e-21
5.8529922e-21
-1.8238195e-21
-3.3330773e-21
4.4597598e-21
3.7356934e-37
-1.1820612e-21
2.1592865e-21
9.7017229e-22
0
-6.8368116e-22
-5.6028775e-22
-9.6144816e-22
4.1984879e-22
-1.1010065e-33
-5.8134918e-22
6.9514319e-23
1.9423457e-23
2.5805544e-23
-3.2669132e-23
1.4843075e-24
-2.8655432e-22
2.167401e-22
5.278614e-22
3.4311216e-34
1.1972888e-22
-1.268452e-22
-1.2446147e-22
-2.4506647e-35
3.1968939e-35
6.8674113e-39
-1.0362783e-23
-2.2161036e-22
-2.2343746e-22
9.5721257e-22
-4.2633069e-34
-8.711521e-22
0
0
7.675469e-22
-4.9581046e-34
5.4933406e-34
1.0787314e-21
-2.3796136e-21
-1.3280323e-21
-1.6386768e-33
1.6078331e-21
5.120969e-21
1.8031346e-21
0
0
0
-6.9580528e-21
-4.8352184e-21
7.5326212e-21
-2.9046495e-33
-5.4483843e-21
0
0
5.9884735e-21
-6.8137166e-33
-3.4971475e-33
6.478568e-21
-3.2909127e-21
-6.6117623e-21
-6.6286718e-21
3.3645321e-21
1.0432981e-20
3.5500912e-21
0
0
0
-1.0274671e-20
-7.0370317e-21
1.0845564e-20
-8.1207607e-33
-3.6385161e-21
5.1057608e-37
-3.5347564e-21
7.0087615e-21
-3.9209496e-33
-3.5624487e-21
7.083032e-21
0
-1.8965902e-33
-6.7578482e-21
-6.7722547e-21
1.019177e-20
6.7393163e-21
-3.3013755e-21
-1.7981387e-33
3.2216953e-21
-9.6750486e-21
-6.439891e-21
3.1905191e-21
3.1257769e-21
-3.0806963e-21
-3.0888084e-21
3.0998952e-21
3.0883201e-21
-1.6943789e-33
1.6552998e-33
2.9459767e-21
0
3.0306427e-21
-6.1260841e-21
-9.1649218e-21
6.0553497e-21
6.0244791e-21
3.0038977e-21
-3.336523e-33
-6.0535246e-21
3.0553286e-21
-3.0806871e-21
-3.0932669e-21
6.1978487e-21
-6.2162115e-21
-3.1223855e-21
3.1469645e-21
6.3303574e-21
3.1753042e-21
-6.3718131e-21
1.7760591e-33
-3.2318865e-21
-3.2580941e-21
9.8107328e-21
-3.2835259e-21
-3.2915478e-21
9.9148641e-21
-4.7132774e-37
-9.8935252e-21
-3.285417e-21
9.9557372e-21
-3.3641412e-21
-1.1412946e-49
-5.6206626e-33
-6.6891712e-21
6.6508316e-21
6.6773111e-21
-3.3684808e-21
3.746349e-33
6.6587293e-21
-3.2880378e-21
-9.8889419e-21
-3.3147918e-21
3.3134882e-21
0
3.2103913e-21
6.2999829e-21
-4.4832624e-37
-9.5293125e-21
-3.1745279e-21
6.2788112e-21
-4.3689499e-37
-6.0344427e-21
5.9703894e-21
-4.9512107e-33
-5.8839667e-21
8.6256792e-21
5.6271656e-21
0
0
-2.7153985e-21
-7.9168001e-21
-2.5658683e-21
7.5522765e-21
-2.7624372e-33
-4.9069351e-21
4.780805e-21
4.6121971e-21
-2.2347623e-21
-4.3846961e-21
2.1632654e-21
2.1236292e-21
-6.1816616e-21
-1.9837148e-21
-3.2015087e-33
1.0452946e-33
1.848034e-21
-1.7956341e-21
3.4603827e-21
4.9898531e-21
0
-4.7832378e-21
-3.1282279e-21
4.5194186e-21
-4.0906945e-37
-1.3836255e-21
2.7070951e-21
-1.344118e-21
-1.3241171e-21
-1.4198984e-33
1.2251023e-21
2.3652228e-21
-1.160446e-21
-2.3004155e-21
-2.2689326e-21
1.2247664e-33
1.0700056e-21
-1.0544556e-21
2.1083916e-21
3.1604434e-21
0
-3.0124277e-21
-1.9536211e-21
2.9228441e-21
-1.1011135e-33
-1.0135747e-21
1.0232651e-21
1.0151225e-21
-5.5735464e-34
-2.0117959e-21
5.6377778e-34
2.0591238e-21
-1.1620738e-33
-1.18538e-33
-2.17937e-21
-3.3187313e-21
2.2289024e-21
-1.2485645e-33
-3.8152487e-33
1.1778087e-21
1.2124183e-21
2.475971e-21
-3.7553596e-21
-1.2667097e-21
2.5903296e-21
-2.6701686e-21
-7.8107173e-37
4.1885014e-21
1.4124514e-21
-1.4373616e-21
-4.4246643e-21
5.0697279e-33
3.115894e-21
1.5671415e-21
-3.1424179e-21
-4.7679237e-21
4.8838586e-21
1.6868282e-21
1.921131e-33
1.7456182e-21
-3.491869e-21
9.7054346e-34
-1.7701693e-21
1.8143541e-21
-6.1873577e-33
-5.6447565e-21
5.6612238e-21
5.658427e-21
0
0
0
-1.9821629e-21
-5.9464421e-21
-1.9731191e-21
-2.1919858e-33
-1.9949148e-21
6.0660162e-21
2.0369218e-21
-2.0304309e-21
-2.0128333e-21
-2.0042469e-21
4.0299648e-21
-2.032353e-21
2.0383825e-21
-6.7592738e-33
-4.0140659e-21
5.9914866e-21
4.0297813e-21
0
-4.0303988e-21
-2.1958349e-33
1.9195522e-21
-5.6840498e-21
-1.9259443e-21
1.9756745e-21
0
0
1.9220874e-21
3.7246249e-21
-4.0534546e-33
-3.6749452e-21
-1.8803563e-21
1.9152925e-21
-1.9178765e-21
1.8788969e-21
3.4964329e-49
-2.9210134e-33
5.1607956e-21
0
0
-3.6223768e-21
-3.6257806e-21
-1.7875119e-21
1.9390098e-33
5.1415734e-21
-1.8741208e-33
-3.3468875e-21
0
3.3888949e-21
1.7035536e-21
-3.3830246e-21
1.6561815e-21
1.6204821e-21
-4.775203e-21
1.5805052e-21
-5.3115188e-33
-3.2313393e-21
4.8490623e-21
3.1768617e-21
0
0
0
-4.5024734e-21
-3.0337995e-21
4.5842558e-21
3.0482801e-21
0
-2.9351503e-21
1.5965257e-33
1.4194632e-21
-2.8389011e-21
1.4357399e-21
-1.445274e-21
-1.4326422e-21
4.1903373e-21
-2.7171177e-21
-2.6795354e-21
1.34887e-21
-1.3755644e-21
2.7772631e-21
4.1242018e-21
0
-3.9176239e-21
-2.5848005e-21
1.3044272e-21
1.3306157e-21
-1.4921879e-33
1.3358779e-21
-4.3744309e-33
-1.2925673e-21
-7.1454087e-34
3.7853429e-51
1.3196977e-21
0
1.3232269e-21
-2.6202911e-21
-3.9148906e-21
3.934746e-21
3.9944638e-21
0
-2.693245e-21
-2.6796822e-21
2.6733241e-21
-1.346351e-21
-1.369997e-21
4.1780376e-21
-2.8053818e-21
-2.811815e-21
1.4114189e-21
2.8501491e-21
1.4430097e-21
-4.3777907e-21
-1.4701639e-21
-2.4600283e-33
2.9834702e-21
8.6304066e-37
-4.6235266e-21
3.0906137e-21
4.6294443e-21
1.5429839e-21
-4.6788427e-21
-3.2031865e-21
4.915765e-21
-3.6730836e-33
-3.301023e-21
-1.6395564e-21
9.1237116e-34
3.3501808e-21
-1.9147417e-33
1.7551008e-21
1.7564909e-21
-5.2454641e-21
-1.7357661e-21
-1.9331368e-33
3.5578839e-21
-6.0824491e-33
-5.5634102e-21
3.700643e-21
-2.0409912e-33
-2.0284766e-33
-4.0586381e-33
-1.8589386e-21
5.6817594e-21
-1.9115533e-21
-3.1742662e-33
-6.3059149e-33
-5.644983e-21
1.8837179e-21
3.8201784e-21
-2.1428025e-33
1.9303252e-21
1.9189898e-21
-3.7977025e-21
-3.7731824e-21
2.1054875e-33
5.7356985e-21
-2.126182e-33
-1.9025506e-21
3.751361e-21
-1.854337e-21
-1.853096e-21
1.0371893e-33
-1.0416953e-33
1.8610834e-21
-3.6664739e-21
1.8036336e-21
-5.9233923e-33
-5.8781823e-33
5.2916445e-21
-3.5306392e-21
4.9810461e-37
3.4426672e-21
-1.6855687e-21
-4.942734e-21
-1.6183413e-21
4.826237e-21
-1.7778249e-33
-1.5817974e-21
3.0891222e-21
-2.9961267e-21
-7.2964177e-33
1.4392014e-21
-1.427063e-21
1.4050616e-21
-2.7205777e-21
1.3063048e-21
3.7861924e-21
0
0
-2.3973087e-21
-3.2735881e-37
2.1868114e-21
-1.0377348e-21
-3.010564e-21
-9.8999953e-22
2.9361812e-21
2.6889985e-37
9.8363855e-34
1.6304551e-21
-2.2688676e-21
-3.6296079e-33
7.180382e-22
-7.0896178e-22
-6.8523636e-22
7.1440232e-34
5.8856678e-22
-1.068145e-21
9.7868146e-22
-1.5267953e-33
-8.811708e-22
1.2846777e-21
8.2456191e-22
-3.8560123e-22
-1.0353216e-21
-2.9767628e-22
2.6183767e-22
0
-2.5110554e-22
2.519926e-22
7.1565693e-22
1.1390609e-34
-3.252035e-22
1.3768509e-22
1.4294114e-22
-3.260559e-22
1.7837432e-22
-1.777017e-22
-3.1522035e-22
3.8703524e-22
-3.8804453e-34
2.9121411e-34
3.2083799e-22
-3.7519694e-22
-2.0315942e-22
-2.0396649e-22
-2.1828181e-34
1.9823972e-22
-4.3824923e-22
5.0639401e-22
8.6757812e-22
0
-3.3249276e-22
1.8826624e-34
1.0030754e-37
-1.1476681e-21
-4.2337425e-22
1.3989641e-21
-5.0041185e-22
7.3624862e-50
1.6157451e-21
-5.6449553e-22
-1.8055235e-21
-6.4519993e-22
1.3719538e-21
-7.1811118e-22
7.4415002e-22
-2.5734297e-33
-1.6142332e-21
2.5284178e-21
9.7331866e-34
-4.0261955e-33
1.8736666e-21
-1.9413289e-21
-1.1189932e-33
1.040745e-21
-2.1264231e-21
-1.0812655e-21
0
0
2.3400657e-21
-2.6772193e-33
-6.9847865e-37
-1.37628e-33
-1.2494597e-21
-1.2668618e-21
1.2935424e-21
1.3251367e-21
-2.6991815e-21
2.7217595e-21
-1.5187055e-33
-2.7559195e-21
2.7829393e-21
4.6868142e-33
-1.5754619e-33
1.4255864e-21
-2.8575077e-21
1.4342826e-21
-3.2053934e-33
-2.906118e-21
0
2.8965559e-21
1.4444398e-21
-2.8937293e-21
-1.4554778e-21
1.4592311e-21
-2.4115015e-33
-1.4304989e-21
0
0
2.8481534e-21
2.8653852e-21
0
-2.829578e-21
-1.3988198e-21
1.3878733e-21
-1.3850657e-21
1.3780669e-21
0
-2.6312882e-21
0
0
1.3076853e-21
-1.4744742e-33
-1.3281257e-21
0
1.2780826e-21
6.9308237e-34
-1.2249237e-21
0
2.3790937e-21
2.387729e-21
-1.2067799e-21
-1.3516958e-33
1.2091959e-21
-2.3519381e-21
-2.2693337e-21
2.1963529e-21
3.084313e-37
2.4424974e-33
3.1872833e-37
-2.2667089e-21
1.1234086e-21
-1.2097558e-33
1.0537285e-21
-1.0279538e-21
-3.064134e-21
3.105162e-21
1.0516373e-21
-1.056298e-21
-1.1570347e-33
-1.0152448e-21
1.9825411e-21
1.9545721e-21
-1.952287e-21
-3.2853347e-33
-9.9401303e-22
-9.9006718e-22
1.9510815e-21
-9.60689e-22
1.0570674e-33
-5.2812332e-34
9.538173e-22
1.9047603e-21
-1.8829064e-21
-1.85697e-21
0
9.238476e-22
1.0349752e-33
-1.8708874e-21
-1.0296225e-33
2.7428584e-21
1.8082941e-21
0
-1.8115299e-21
-2.0235912e-33
-9.1369852e-22
-9.112077e-22
2.7227218e-21
-5.0172847e-34
-1.7993671e-21
8.9539155e-22
1.7843265e-21
-8.9269552e-22
-1.7972714e-21
-9.030675e-22
0
1.7845246e-21
-8.8395432e-22
-2.6505792e-21
8.9158527e-22
9.0090946e-22
1.8074158e-21
8.9797129e-22
-1.78146e-21
-8.8987126e-22
-8.9578745e-22
1.0014266e-33
9.0181073e-22
8.9757981e-22
1.7881159e-21
8.9734042e-22
0
0
0
-1.7948313e-21
-1.7802841e-21
1.7897201e-21
1.0125189e-33
1.0299795e-33
-1.0318623e-33
-2.0339978e-33
1.8022301e-21
0
-1.8149178e-21
-9.2791397e-22
9.4168026e-22
-9.4117571e-22
-9.3011235e-22
0
0
1.8570732e-21
-3.1450565e-33
-2.1173032e-33
1.8990213e-21
-1.8832199e-21
-1.876069e-21
0
1.9077062e-21
-1.0671274e-33
-1.9158375e-21
1.8953993e-21
1.0420755e-33
-1.8803735e-21
0
1.9429678e-21
9.7695208e-22
-1.9303579e-21
9.487104e-22
2.0827114e-33
-1.8781819e-21
1.9050966e-21
1.936679e-21
0
0
0
-1.8839195e-21
-1.8789555e-21
1.8879124e-21
0
-1.8965619e-21
0
-9.2890417e-22
1.8459964e-21
9.2335721e-22
-9.280567e-22
1.8512842e-21
9.1089566e-22
-1.7829485e-21
-8.7555882e-22
-9.6549617e-34
8.7376583e-22
-1.9559064e-33
5.0073946e-37
1.7327639e-21
0
-8.2415406e-22
-1.6194148e-21
-8.0002045e-22
0
0
0
-7.971624e-22
1.5584146e-21
7.4516046e-22
-7.1274584e-22
-6.9301626e-22
6.9162983e-22
7.0423046e-22
-1.4254966e-21
0
1.3784377e-21
1.3140171e-21
0
0
-1.2089633e-21
-6.8133113e-34
-6.2388403e-22
-6.2722717e-22
6.1279275e-22
-5.7701538e-22
5.3909268e-22
1.0352428e-21
5.2110689e-22
0
-1.1127244e-21
-6.2206623e-34
5.527161e-22
-5.3589921e-22
-5.1630823e-22
-1.0053419e-21
9.9598985e-22
5.0185151e-22
-1.4553081e-37
5.2294163e-22
-1.0624376e-21
5.3435551e-22
-5.305759e-22
-1.9692305e-50
5.1871167e-22
-1.0464602e-21
1.0731389e-21
1.1115353e-21
0
-5.8170954e-22
-1.1609047e-21
3.2212633e-34
5.8865709e-22
6.0593978e-22
-1.2605164e-21
-1.3040612e-21
6.648091e-22
1.340593e-21
1.3552487e-21
-6.9311392e-22
-1.4328979e-21
7.4391926e-22
-7.6668987e-22
1.2983629e-33
7.9108357e-22
-1.613824e-21
1.6556589e-21
9.4707726e-34
-4.8684859e-33
1.7851175e-21
-1.8100321e-21
-4.0888462e-33
9.426135e-22
-1.942873e-21
9.9627492e-22
-2.8630246e-37
4.503597e-33
1.0225508e-21
-2.0773663e-21
2.3756891e-33
-6.091953e-34
1.1122988e-21
-3.1698763e-37
-2.2237434e-21
2.2298834e-21
6.4499778e-37
-5.181577e-33
2.3769469e-21
-2.3870586e-21
-2.6418922e-33
2.3604788e-21
-1.1768488e-21
-1.1899117e-21
-1.2129746e-21
1.2258601e-21
-1.3567833e-33
-2.4233942e-21
0
0
2.3839888e-21
3.4131099e-37
-2.4032036e-21
1.1877178e-21
-1.2946693e-33
1.1462958e-21
2.5183569e-33
-2.2680356e-21
0
-1.1128089e-21
2.1775553e-21
1.0606413e-21
-2.3059676e-33
1.0280698e-21
-2.0359476e-21
9.9888761e-22
-1.0752131e-33
-1.8672491e-21
0
0
8.7784212e-22
-4.7670589e-34
8.2335392e-22
-7.8257173e-22
-2.2471423e-21
2.1827004e-21
7.1549064e-22
-1.3941454e-21
6.6447037e-22
1.0332948e-33
5.7872794e-22
-3.1449731e-37
-1.8066318e-33
5.3377997e-22
-1.0244427e-21
-4.7265612e-22
0
-3.8304356e-22
3.6579483e-22
3.6372948e-22
3.6045284e-22
-7.649222e-34
3.4444545e-34
-2.9144863e-34
-4.4392951e-22
2.0465672e-22
3.4321756e-34
-4.2080977e-22
2.9208203e-38
1.8676103e-22
3.0773104e-22
2.3503508e-22
-1.8894421e-22
-1.0107024e-34
-9.8300109e-23
-1.0411388e-22
2.0394246e-22
-1.7909104e-22
-6.848567e-23
1.4639094e-22
8.1928625e-23