-1.25 	300.0395458501572 	1.118164799630177 	101372.5528258147
-1.247497497497497 	300.0383695763324 	1.112703631657236 	101370.4180138207
-1.244994994994995 	300.0355711627598 	1.102672687964465 	101367.0387440117
-1.242492492492492 	300.0320395542839 	1.092616710486054 	101362.886435483
-1.23998998998999 	300.027943322257 	1.080807078460622 	101358.0389657109
-1.237487487487487 	300.0233325162269 	1.067468137630747 	101352.5863405227
-1.234984984984985 	300.0182929614942 	1.052902215920932 	101346.6275831145
-1.232482482482482 	300.012917184063 	1.037365047303606 	101340.2716552681
-1.22997997997998 	300.0073036065273 	1.021139548611937 	101333.6349279055
-1.227477477477477 	300.0015547959412 	1.004523550972435 	101326.8386666089
-1.224974974974975 	299.9957766995639 	0.9878225946740964 	101320.0079823589
-1.222472472472472 	299.9900753864902 	0.9713432168101115 	101313.2683241304
-1.21996996996997 	299.9845551171531 	0.9553874818219191 	101306.7429476715
-1.217467467467467 	299.9793177500541 	0.9402495491638811 	101300.5522094297
-1.214964964964965 	299.9744601832724 	0.9262093029326588 	101294.8106439946
-1.212462462462462 	299.9700717372372 	0.9135249964293501 	101289.6237240015
-1.20995995995996 	299.9662326512119 	0.9024292177004607 	101285.0863208872
-1.207457457457457 	299.9630138379407 	0.8931266321561405 	101281.2820994744
-1.204954954954955 	299.9604750229107 	0.8857893703799236 	101278.2815654725
-1.202452452452452 	299.9586625404349 	0.8805516698965408 	101276.1395035214
-1.19994994994995 	299.9576089563443 	0.8775077705508376 	101274.8943397772
-1.197447447447447 	299.9573325454573 	0.8767116461522313 	101274.5679859138
-1.194944944944945 	299.9578386975291 	0.878177124429673 	101275.1662743061
-1.192442442442442 	299.9591185083272 	0.8818767387168371 	101276.678258854
-1.18993993993994 	299.9611468938477 	0.8877404497564572 	101279.0751121371
-1.187437437437437 	299.963885617314 	0.8956580766111234 	101282.311760548
-1.184934934934935 	299.9672841823945 	0.9054829190307827 	101286.3283379676
-1.182432432432432 	299.9712802864055 	0.9170345869996831 	101291.0512182759
-1.17992992992993 	299.9758008075371 	0.9301014530540229 	101296.3940507229
-1.177427427427427 	299.9807625918053 	0.9444436977098583 	101302.2587480611
-1.174924924924925 	299.9860747769933 	0.9597987033978685 	101308.5379040234
-1.172422422422422 	299.9916407109209 	0.9758867112372215 	101315.1172714014
-1.16991991991992 	299.9973590559575 	0.9924146260734807 	101321.8770796893
-1.167417417417417 	300.0031250614787 	1.009080261133208 	101328.6936684457
-1.164914914914915 	300.0088332348736 	1.025578772065229 	101335.4422719641
-1.162412412412412 	300.0143796246999 	1.041609298941973 	101341.9998144871
-1.15990990990991 	300.0196632791819 	1.05688018748156 	101348.2470019372
-1.157407407407407 	300.0245879924443 	1.071113487141535 	101354.0701223023
-1.154904904904904 	300.0290639054363 	1.084049329459983 	101359.362809348
-1.152402402402403 	300.0330089501028 	1.095450525852329 	101364.0278803023
-1.1498998998999 	300.0363506657318 	1.105107960127615 	101367.9796203458
-1.147397397397397 	300.0390280644075 	1.112845435826862 	101371.1459045823
-1.144894894894895 	300.0409925623837 	1.118522166648094 	101373.4691562564
-1.142392392392392 	300.0422080989192 	1.122034133564041 	101374.9067496498
-1.13988988988989 	300.0426523343846 	1.123315743811868 	101375.4319007561
-1.137387387387387 	300.042315922555 	1.122340332650971 	101375.0336464088
-1.134884884884885 	300.0412024467162 	1.119121913608893 	101373.7172457463
-1.132382382382382 	300.0393325324299 	1.11371770338676 	101371.5064177836
-1.12987987987988 	300.0367408208996 	1.106225845660199 	101368.4416144991
-1.127377377377377 	300.0334736847137 	1.096781862832208 	101364.578137173
-1.124874874874875 	300.0295903098233 	1.085556886012778 	101359.9860677451
-1.122372372372372 	300.0251612917929 	1.072755017114182 	101354.7489981501
-1.11986986986987 	300.0202673956588 	1.058609682778597 	101348.9624728529
-1.117367367367367 	300.0149983223885 	1.04337987261684 	101342.7324553253
-1.114864864864865 	300.0094510762811 	1.027346144491841 	101336.1737849838
-1.112362362362362 	300.0037283961246 	1.010805423372308 	101329.4080475972
-1.10985985985986 	299.9979363059053 	0.9940643045719868 	101322.5607198355
-1.107357357357357 	299.9921820513616 	0.9774325468397467 	101315.7584550485
-1.104854854854855 	299.986572144483 	0.9612178523939731 	101309.1270206469
-1.102352352352353 	299.9812104262775 	0.9457207048908376 	101302.789279476
-1.09984984984985 	299.9761963651619 	0.9312284015041898 	101296.8627038986
-1.097347347347347 	299.9716227271965 	0.9180091834924711 	101291.4569078043
-1.094844844844845 	299.967573952168 	0.9063070501878083 	101286.6715913969
-1.092342342342342 	299.9641243872978 	0.8963369495337841 	101282.5946186367
-1.08983983983984 	299.9613367864281 	0.8882804437587067 	101279.3001543005
-1.087337337337337 	299.9592613627598 	0.8822823944321903 	101276.847329594
-1.084834834834835 	299.957934709103 	0.8784488989091234 	101275.2794624187
-1.082332332332332 	299.95737966584 	0.8768463943183393 	101274.6235836918
-1.07982982982983 	299.9576054228226 	0.877501871803221 	101274.8906875155
-1.077327327327327 	299.9586082649998 	0.8804014046530519 	101276.075638592
-1.074824824824825 	299.9603679822612 	0.8854876282907684 	101278.1547751534
-1.072322322322323 	299.9628496949513 	0.8926621492300285 	101281.0875891963
-1.06981981981982 	299.9660073125598 	0.9017905556788548 	101284.8193506142
-1.067317317317317 	299.969782927883 	0.9127050028731279 	101289.2815759795
-1.064814814814815 	299.9741074684007 	0.9252059965828112 	101294.3928147672
-1.062312312312312 	299.9789021451921 	0.9390653688605459 	101300.0598409057
-1.05980980980981 	299.9840794709254 	0.9540305713524958 	101306.1794229085
-1.057307307307307 	299.9895453039319 	0.9698296517613985 	101312.6404016388
-1.054804804804805 	299.9952006846925 	0.9861761855644303 	101319.3257053182
-1.052302302302302 	300.0009431572656 	1.002774068151433 	101326.1142636603
-1.0497997997998 	300.0066685725251 	1.019322462461395 	101332.8830260884
-1.047297297297297 	300.0122731021276 	1.035521169259499 	101339.5091815481
-1.044794794794795 	300.0176549739028 	1.051076164387967 	101345.8724315951
-1.042292292292292 	300.0227164474238 	1.065704816062697 	101351.8571189211
-1.03978978978979 	300.0273654093479 	1.079140874378605 	101357.3542505686
-1.037287287287287 	300.0315171024234 	1.091139550345146 	101362.263585094
-1.034784784784785 	300.0350958135177 	1.101482234968075 	101366.4956182486
-1.032282282282283 	300.0380364276286 	1.109980152845176 	101369.9730906324
-1.02977977977978 	300.0402847823325 	1.116477098345266 	101372.6320265612
-1.027277277277277 	300.0417989994884 	1.120852035173187 	101374.4228036346
-1.024774774774775 	300.042550333593 	1.123021641886602 	101375.3113142706
-1.022272272272272 	300.0425238116373 	1.122941306139444 	101375.2795036336
-1.01976976976977 	300.0417163293644 	1.120606079269205 	101374.3246954909
-1.017267267267267 	300.0401412652284 	1.116053980486064 	101372.4625888966
-1.014764764764765 	300.037827522456 	1.109365679509474 	101369.72661939
-1.012262262262262 	300.0348160242549 	1.100660292020595 	101366.1654159174
-1.00975975975976 	300.0311604359986 	1.090093621488694 	101361.8426939899
-1.007257257257257 	300.0269269772977 	1.077856867803126 	101356.836729516
-1.004754754754755 	300.0221928996074 	1.064173610795545 	101351.2390671743
-1.002252252252252 	300.0170455121016 	1.049295923821618 	101345.1529069086
-0.9997497497497498 	300.0115802895892 	1.033499647012794 	101338.6911801477
-0.9972472472472473 	300.0058989029738 	1.0170788006429 	101331.9742612027
-0.9947447447447449 	300.0001074727575 	1.000339636201196 	101325.12745779
-0.9922422422422421 	299.9943140040598 	0.9835947938132066 	101318.2786272877
-0.9897397397397399 	299.9886269151926 	0.9671575025949195 	101311.5558862025
-0.9872372372372376 	299.9831527362156 	0.9513353830615555 	101305.0850562556
-0.9847347347347346 	299.9779935739791 	0.9364237982645763 	101298.98690144
-0.9822322322322323 	299.9732452607352 	0.9226995340204657 	101293.3745552467
-0.9797297297297296 	299.9689952039258 	0.9104155389531613 	101288.3513487994
-0.9772272272272275 	299.965321181862 	0.8997965596040622 	101284.009082189
-0.9747247247247248 	299.962289842035 	0.8910352129530055 	101280.4264624275
-0.9722222222222224 	299.959955462243 	0.8842884423490897 	101277.6676054876
-0.9697197197197196 	299.9583590158992 	0.879674679013428 	101275.780851646
-0.9672172172172175 	299.9575274421073 	0.8772721995961381 	101274.7981357665
-0.9647147147147147 	299.9574736237864 	0.8771192746261662 	101274.7348656091
-0.9622122122122124 	299.9581980293988 	0.8792143400388922 	101275.5908895976
-0.9597097097097099 	299.9596855458087 	0.8835138190668598 	101277.3483908559
-0.9572072072072073 	299.9619060249865 	0.8899327107356417 	101279.9723170495
-0.9547047047047047 	299.9648172697591 	0.8983490389053277 	101283.4129243446
-0.9522022022022023 	299.9683656390536 	0.9086066297526236 	101287.6065243638
-0.9496996996996998 	299.9724859068526 	0.9205172109245997 	101292.4762177681
-0.9471971971971973 	299.9771029864727 	0.9338637838439747 	101297.9333393333
-0.9446946946946947 	299.9821333842654 	0.9484046659552516 	101303.8791406932
-0.9421921921921923 	299.9874863008634 	0.9638776791642588 	101310.206511019
-0.93968968968969 	299.9930654268525 	0.9800042708817535 	101316.8016163411
-0.9371871871871872 	299.9987703644828 	0.996493831163942 	101323.5456474127
-0.9346846846846848 	300.0044979209418 	1.0130486865498 	101330.3168353137
-0.9321821821821823 	300.0101446353273 	1.02936978436255 	101336.9928119096
-0.9296796796796799 	300.0156086731467 	1.045162461255039 	101343.4530293103
-0.9271771771771771 	300.0207913039148 	1.060141725339319 	101349.5809020932
-0.9246746746746748 	300.0255990630754 	1.074036996216435 	101355.2656999872
-0.9221721721721724 	300.029944769795 	1.086596567926362 	101360.4043906286
-0.9196696696696698 	300.0337492998053 	1.097591914168133 	101364.9034170016
-0.9171671671671672 	300.0369432073919 	1.106821707634662 	101368.6803267251
-0.9146646646646649 	300.0394672499347 	1.114115444961968 	101371.66528302
-0.9121621621621623 	300.0412743036107 	1.119336650654445 	101373.8023700248
-0.9096596596596597 	300.042329865838 	1.122385483452385 	101375.0506824382
-0.9071571571571573 	300.0426128355736 	1.123199993116366 	101375.385060467
-0.9046546546546547 	300.0421144731974 	1.121756240731432 	101374.7954095456
-0.9021521521521524 	300.0408397569373 	1.118071707221502 	101373.2884405159
-0.8996496496496498 	300.0388111901245 	1.112208072683856 	101370.8898905124
-0.8971471471471473 	300.0360645846546 	1.104268119480195 	101367.6418954442
-0.894644644644645 	300.0326482602603 	1.094392831814824 	101363.602041234
-0.892142142142142 	300.0286237334375 	1.082759957070162 	101358.8431201248
-0.8896396396396397 	300.02406436925 	1.069581399634406 	101353.4518736916
-0.8871371371371374 	300.0190539141114 	1.055099748655469 	101347.5276038758
-0.8846346346346349 	300.0136857502654 	1.039584260344093 	101341.1805321926
-0.8821321321321324 	300.0080605121622 	1.023325838958578 	101334.5297526923
-0.8796296296296297 	300.0022841209056 	1.00663095177683 	101327.7007357134
-0.8771271271271271 	299.9964659663825 	0.9898149558635587 	101320.8225352689
-0.8746246246246248 	299.9907157059405 	0.9731953452650558 	101314.0250133542
-0.8721221221221224 	299.9851417898918 	0.9570851638248229 	101307.4361979466
-0.8696196196196196 	299.9798488084539 	0.941786653745281 	101301.1796638329
-0.8671171171171175 	299.974935249746 	0.9275851869553027 	101295.3720551409
-0.8646146146146148 	299.9704923561316 	0.9147436277593822 	101290.1207991122
-0.8621121121121121 	299.9666013646787 	0.9034972959509776 	101285.5220460305
-0.8596096096096097 	299.9633326616738 	0.8940495872003149 	101281.6588690259
-0.857107107107107 	299.9607443486927 	0.8865684495613297 	101278.5998582278
-0.8546046046046049 	299.9588812805276 	0.8811839150224461 	101276.3980899774
-0.8521021021021022 	299.9577749026701 	0.8779865457943643 	101275.0905166418
-0.8495995995995997 	299.9574422783105 	0.8770268383708472 	101274.6976070125
-0.8470970970970974 	299.9578875208461 	0.8783157375206232 	101275.2239868008
-0.8445945945945946 	299.9591009880668 	0.8818229655624238 	101276.6576733441
-0.8420920920920922 	299.9610567476267 	0.8874761244403149 	101278.9686532798
-0.8395895895895897 	299.9637163778997 	0.8951649285469587 	101282.1118141743
-0.8370870870870872 	299.9670304154615 	0.9047452283688643 	101286.0284066481
-0.8345845845845846 	299.9709379493671 	0.9160411383018476 	101290.6466108387
-0.8320820820820823 	299.9753680327993 	0.9288476463782314 	101295.8827165496
-0.8295795795795798 	299.9802411285958 	0.9429338907699628 	101301.6424292721
-0.8270770770770772 	299.9854693533269 	0.9580467855068937 	101307.8223407737
-0.8245745745745746 	299.9909590932982 	0.973915108327073 	101314.3116062178
-0.8220720720720721 	299.9966117877595 	0.9902541626666825 	101320.9938189825
-0.8195695695695699 	300.002325970633 	1.006770894751842 	101327.74912534
-0.817067067067067 	300.0079994167871 	1.023169214650414 	101334.4564214667
-0.8145645645645651 	300.0135301667685 	1.039155236922968 	101340.9954968982
-0.8120620620620621 	300.0188191634053 	1.054442195832021 	101347.2490310357
-0.8095595595595597 	300.0237713871702 	1.068755193749739 	101353.1045428457
-0.8070570570570572 	300.0282973193289 	1.081835977304855 	101358.4563196567
-0.8045545545545546 	300.0323150884285 	1.093447493955477 	101363.2073125096
-0.8020520520520523 	300.0357512880622 	1.103377880771405 	101367.2707957867
-0.7995495495495494 	300.038542543819 	1.111443921563895 	101370.5717494457
-0.7970470470470474 	300.0406365673983 	1.117494123491046 	101373.0481037729
-0.7945445445445446 	300.0419927027676 	1.121411612648299 	101374.6519616628
-0.7920420420420423 	300.0425836126745 	1.123116628982528 	101375.3506923003
-0.7895395395395397 	300.0423951703949 	1.122567265457439 	101375.1272806891
-0.7870370370370371 	300.0414247768509 	1.119761723496356 	101373.9801514782
-0.7845345345345348 	300.0396884172934 	1.114742499609198 	101371.9271542046
-0.7820320320320323 	300.037216004278 	1.10759498348747 	101369.0034825925
-0.7795295295295296 	300.0340502248588 	1.098443633162815 	101365.2599131713
-0.7770270270270272 	300.0302473051751 	1.087450969566038 	101360.7629270159
-0.7745245245245247 	300.0258759921491 	1.074816194432498 	101355.5940702403
-0.7720220220220222 	300.0210170128157 	1.060772204376787 	101349.8486946813
-0.7695195195195199 	300.0157610566587 	1.045581426044676 	101343.6342583754
-0.767017017017017 	300.0102074735032 	1.029530585092358 	101337.0681654024
-0.7645145145145147 	300.0044618198575 	1.0129245862464 	101330.2752413378
-0.7620120120120122 	299.9986334829652 	0.99607981513567 	101323.3849891472
-0.7595095095095097 	299.9928337102155 	0.9793172303076128 	101316.5287306787
-0.7570070070070072 	299.9871726159938 	0.9629554404270859 	101309.8367878538
-0.7545045045045048 	299.9817573034888 	0.9473038337955149 	101303.4356812041
-0.7520020020020022 	299.9766894483063 	0.9326560316540495 	101297.4454492416
-0.7494994994994997 	299.9720629965358 	0.9192839865002411 	101291.9772233644
-0.7469969969969972 	299.9679628007653 	0.9074329035039543 	101287.131185269
-0.7444944944944945 	299.9644630034275 	0.8973169776904436 	101282.994819735
-0.7419919919919924 	299.9616256124264 	0.8891158586721946 	101279.6414861863
-0.7394894894894897 	299.9594999454309 	0.8829718027058064 	101277.1292737678
-0.7369869869869872 	299.958121531061 	0.8789876084504864 	101275.5001573087
-0.7344844844844846 	299.9575115671713 	0.8772254938070424 	101274.7794591956
-0.7319819819819822 	299.957677634715 	0.8777077774936484 	101274.9760894151
-0.7294794794794797 	299.9586150373766 	0.8804168832186275 	101276.0834992373
-0.7269769769769773 	299.9603022966895 	0.8852938525518737 	101278.0772161984
-0.7244744744744747 	299.9627055675025 	0.8922411046785396 	101280.9171962196
-0.721971971971972 	299.9657792300654 	0.9011269336771687 	101284.5497954072
-0.7194694694694695 	299.9694669541802 	0.9117874785794364 	101288.9081503381
-0.7169669669669674 	299.973701660145 	0.9240288771560554 	101293.9130742914
-0.7144644644644647 	299.9784068132601 	0.9376304732080414 	101299.4744421058
-0.711961961961962 	299.9834985067248 	0.9523485764755617 	101305.4926983947
-0.7094594594594597 	299.9888855262996 	0.9679204812032884 	101311.8604852893
-0.7069569569569573 	299.9944720438836 	0.9840686587828875 	101318.4643695915
-0.7044544544544545 	300.0001585506857 	1.000505343639058 	101325.1866961394
-0.7019519519519523 	300.0058434611988 	1.016937550268848 	101331.9076144246
-0.6994494494494495 	300.011425661796 	1.033072348378728 	101338.5072977048
-0.6969469469469471 	300.0168054916929 	1.048622105029908 	101344.8680876927
-0.6944444444444446 	300.0218870228346 	1.063309297068699 	101350.8764361143
-0.6919419419419421 	300.0265792543594 	1.076870844573853 	101356.4247082446
-0.6894394394394396 	300.0307975529421 	1.089062219412592 	101361.4128335748
-0.6869369369369374 	300.0344651800389 	1.09966139805765 	101365.7498963038
-0.6844344344344344 	300.037514317873 	1.10847263732959 	101369.3557312498
-0.6819319319319321 	300.0398876621382 	1.115330148738802 	101372.1624290906
-0.6794294294294296 	300.0415392265347 	1.12010141757163 	101374.1156710161
-0.6769269269269272 	300.0424357331771 	1.12268990323919 	101375.1759124355
-0.6744244244244245 	300.0425572953949 	1.123036418311501 	101375.3191684658
-0.6719219219219222 	300.0418952398709 	1.121119949215679 	101374.5362278788
-0.6694194194194195 	300.0404569587802 	1.116962388856345 	101372.8358927087
-0.6669169169169172 	300.0382666597548 	1.110630453566838 	101370.2459781617
-0.6644144144144146 	300.0353615066945 	1.102231877330011 	101366.8104755516
-0.661911911911912 	300.0317919738852 	1.091913818921689 	101362.5895161004
-0.6594094094094097 	300.0276224240767 	1.079861986440783 	101357.659121325
-0.656906906906907 	300.0229295252806 	1.06629809715148 	101352.1100650949
-0.6544044044044046 	300.0178010752413 	1.051476067968541 	101346.0463147833
-0.6519019019019021 	300.012334593558 	1.035677132582661 	101339.5830318847
-0.6493993993993996 	300.0066346544378 	1.019203859907589 	101332.8441185667
-0.6468968968968971 	300.0008111147459 	1.00237320345716 	101325.9593496707
-0.6443943943943946 	299.9949760088162 	0.9855089840208866 	101319.0612590264
-0.6418918918918921 	299.9892411953636 	0.9689343994944951 	101312.2820686257
-0.6393893893893897 	299.983715920836 	0.9529649453093827 	101305.7507980361
-0.6368868868868871 	299.9785042972366 	0.9379019021638353 	101299.5906111356
-0.6343843843843846 	299.9737036271162 	0.9240264242103559 	101293.9164097815
-0.6318818818818821 	299.969402409028 	0.9115941883857344 	101288.8326727471
-0.6293793793793795 	299.9656785352922 	0.9008306073474334 	101284.4314967198
-0.6268768768768773 	299.9625981954448 	0.8919267911669846 	101280.7909330436
-0.6243743743743745 	299.9602145008598 	0.8850364808972609 	101277.9737290518
-0.6218718718718721 	299.9585670243979 	0.8802740348675572 	101276.0265451692
-0.6193693693693696 	299.9576810918165 	0.8777134578997751 	101274.9795583935
-0.6168668668668671 	299.9575680393264 	0.87738892025288 	101274.8464756344
-0.6143643643643645 	299.9582275551376 	0.8792958823814228 	101275.6258398454
-0.6118618618618621 	299.9596439646863 	0.8833892011304155 	101277.2992853821
-0.6093593593593596 	299.9617868548763 	0.8895837579154874 	101279.8316239821
-0.6068568568568571 	299.9646150376399 	0.8977594858553783 	101283.1738964213
-0.6043543543543546 	299.9680757706738 	0.9077641889040109 	101287.2640259234
-0.6018518518518521 	299.9721062833448 	0.9194155025995767 	101292.0275655334
-0.5993493493493496 	299.9766338464344 	0.9325037085581172 	101297.378855239
-0.5968468468468471 	299.9815776595399 	0.9467949688694195 	101303.2223840729
-0.5943443443443446 	299.9868499413376 	0.9620350116035117 	101309.4542637508
-0.591841841841842 	299.9923567720586 	0.9779533509092828 	101315.9639224863
-0.5893393393393397 	299.9980008801658 	0.9942678908265565 	101322.6360185658
-0.5868368368368371 	300.0036821961874 	1.010689857527457 	101329.3524796598
-0.5843343343343346 	300.0093002477061 	1.026928816745256 	101335.9945015632
-0.5818318318318321 	300.0147557801306 	1.042697475417762 	101342.4445820057
-0.5793293293293297 	300.019951870348 	1.057716227528124 	101348.5883625533
-0.5768268268268271 	300.0247961669716 	1.071717521840078 	101354.3163592383
-0.5743243243243245 	300.0292017009538 	1.084450059319536 	101359.5257231195
-0.5718218218218221 	300.0330884785761 	1.095682902488041 	101364.1219334523
-0.5693193193193196 	300.0363851324789 	1.105209414769284 	101368.0203635787
-0.5668168168168171 	300.0390296513701 	1.112850841925156 	101371.1477913007
-0.5643143143143147 	300.0409710709478 	1.118459631025807 	101373.4437879592
-0.5618118118118121 	300.0421702315333 	1.121922496324244 	101374.8618936486
-0.5593093093093094 	300.0426006499938 	1.123162756334771 	101375.3707914797
-0.5568068068068072 	300.0422490149942 	1.122141060800099 	101374.9544009349
-0.5543043043043046 	300.0411137506208 	1.118859044811402 	101373.6124419572
-0.551801801801802 	300.0392128855352 	1.113363820541586 	101371.364943256
-0.5492992992992995 	300.0365779050341 	1.105745706272483 	101368.2488655126
-0.5467967967967969 	300.0332532789926 	1.096135416119621 	101364.3175404457
-0.5442942942942947 	300.0292983764541 	1.084703899908614 	101359.6409181
-0.5417917917917919 	300.0247856764526 	1.071660706198858 	101354.3047934036
-0.5392892892892895 	300.0197996370295 	1.057250548621246 	101348.409370727
-0.536786786786787 	300.0144357693267 	1.041748379196908 	101342.0672698669
-0.5342842842842846 	300.0087972886383 	1.025453201567448 	101335.4009627796
-0.531781781781782 	300.0029938181795 	1.008680959034751 	101328.5398271145
-0.5292792792792794 	299.9971379981087 	0.9917569256945553 	101321.6170038066
-0.526776776776777 	299.991342742349 	0.9750081594429065 	101314.7663125119
-0.5242742742742745 	299.9857196470328 	0.9587562752401878 	101308.1192866812
-0.521771771771772 	299.9803755075806 	0.943310512817971 	101301.8023906181
-0.5192692692692695 	299.9754108962333 	0.9289612432420091 	101295.9343265263
-0.516766766766767 	299.9709177908612 	0.9159741165375119 	101290.6236438604
-0.5142642642642645 	299.9669774812215 	0.9045850173138247 	101285.9667005528
-0.511761761761762 	299.9636601726642 	0.8949960595720836 	101282.0460456955
-0.5092592592592596 	299.9610229030073 	0.8873725861549071 	101278.9291600036
-0.506756756756757 	299.9591092980932 	0.8818410505533937 	101276.6676521652
-0.5042542542542544 	299.9579493843696 	0.8784877935641324 	101275.2967344169
-0.5017517517517521 	299.9575585144036 	0.8773589279062602 	101274.8350660074
-0.4992492492492494 	299.9579395004045 	0.8784618887791824 	101275.2856203052
-0.496746746746747 	299.9590826935779 	0.881764894105743 	101276.6360701878
-0.4942442442442445 	299.9609616069163 	0.8871959321721743 	101278.8563190966
-0.4917417417417421 	299.9635390238415 	0.8946468620580195 	101281.9022628107
-0.4892392392392395 	299.9667665486545 	0.903977325053309 	101285.7166956511
-0.486736736736737 	299.9705851937287 	0.9150162975551688 	101290.2297860799
-0.4842342342342345 	299.9749259421197 	0.9275645278200095 	101295.3601761193
-0.481731731731732 	299.979711321047 	0.9413978504788126 	101301.0162856893
-0.4792292292292296 	299.9848563700405 	0.9562708706632422 	101307.0978471951
-0.4767267267267268 	299.9902704216566 	0.9719209883493161 	101313.4975638157
-0.4742242242242246 	299.9958580333714 	0.988072744181586 	101320.102832411
-0.471721721721722 	300.0015211084788 	1.004442293497775 	101326.7975816848
-0.4692192192192195 	300.0071601259222 	1.02074205090736 	101333.4642235159
-0.4667167167167169 	300.0126759144888 	1.036685502856584 	101339.9855613679
-0.4642142142142145 	300.0179715140176 	1.05199183772006 	101346.246732632
-0.461711711711712 	300.0229530492507 	1.066390240566515 	101352.1369652614
-0.4592092092092094 	300.0275319101984 	1.079624028884394 	101357.5512265889
-0.456706706706707 	300.0316254518821 	1.09145457160016 	101362.3918292252
-0.4542042042042045 	300.0351586850074 	1.101665117031817 	101366.5700555648
-0.451701701701702 	300.0380656163084 	1.110064619430945 	101370.0076470246
-0.4491991991991995 	300.0402900240086 	1.116491337968418 	101372.6383197557
-0.4466966966966969 	300.0417873863649 	1.120816072517584 	101374.4091477096
-0.4441941941941945 	300.0425252043609 	1.122945058020406 	101375.2817042848
-0.441691691691692 	300.0424844578363 	1.12282130278512 	101375.2329259193
-0.4391891891891895 	300.0416568035654 	1.120426347421225 	101374.2543298236
-0.436686686686687 	300.0400517358521 	1.115786361043243 	101372.3568222467
-0.4341841841841846 	300.037695248733 	1.108973263098685 	101369.5702043218
-0.431681681681682 	300.0346261650552 	1.100101093996148 	101365.9409493031
-0.4291791791791794 	300.0308983174286 	1.089325712556039 	101361.532781935
-0.426676676676677 	300.0265797723578 	1.076843678735921 	101356.4261889099
-0.4241741741741744 	300.021751368825 	1.062889034611368 	101350.7170286841
-0.421671671671672 	300.0165056386365 	1.047728663647205 	101344.5146017313
-0.4191691691691694 	300.0109442825748 	1.03165640861268 	101337.939255535
-0.4166666666666669 	300.005175939714 	1.014986187832765 	101331.1195733461
-0.4141641641641645 	299.9993137842523 	0.998044323015944 	101324.1891587766
-0.411661661661662 	299.9934720292923 	0.9811614857867814 	101317.2833512932
-0.4091591591591594 	299.9877641450723 	0.9646648843113208 	101310.5360140985
-0.406656656656657 	299.9822995270889 	0.9488709653909695 	101304.0765503236
-0.4041541541541545 	299.9771815416519 	0.9340786311591589 	101298.0271524515
-0.401651651651652 	299.9725056316212 	0.9205631983845017 	101292.5003566427
-0.3991491491491494 	299.9683568065475 	0.9085711935664633 	101287.5968635009
-0.396646646646647 	299.9648090422011 	0.898316003938619 	101283.4038209628
-0.3941441441441444 	299.9619234800259 	0.8899745649308591 	101279.993466896
-0.3916416416416419 	299.9597477567612 	0.8836851643247992 	101277.4222128248
-0.3891391391391395 	299.9583161663943 	0.8795462089253181 	101275.7301827446
-0.3866366366366368 	299.9576483929188 	0.8776159637928885 	101274.9410988369
-0.3841341341341344 	299.9577507670198 	0.8779139155710546 	101275.0625779788
-0.381631631631632 	299.9586186640196 	0.8804215723796598 	101276.0878081626
-0.3791291291291294 	299.9602305810833 	0.8850803918433676 	101277.9925141168
-0.3766266266266269 	299.9625531601831 	0.8917940237770364 	101280.7370793554
-0.3741241241241244 	299.9655415372021 	0.9004333537480469 	101284.2689352735
-0.371621621621622 	299.9691409271207 	0.9108384659201831 	101288.5228162199
-0.3691191191191194 	299.9732859316201 	0.9228208792401819 	101293.4217373943
-0.366616616616617 	299.9779024276076 	0.9361665696791738 	101298.8782946705
-0.3641141141141143 	299.9829091590078 	0.9506394462150471 	101304.7960494423
-0.3616116116116119 	299.9882175745536 	0.9659851056434134 	101311.0710270138
-0.3591091091091095 	299.9937353331499 	0.9819348758370379 	101317.5934377266
-0.356606606606607 	299.9993656741281 	0.9982102146390547 	101324.2494077969
-0.3541041041041044 	300.005010485659 	1.014527250963596 	101330.9228445677
-0.3516016016016019 	300.010571465385 	1.030601297276006 	101337.4973344562
-0.3490990990990994 	300.0159510868949 	1.0461513189506 	101343.8579530643
-0.346596596596597 	300.0210552862374 	1.060904132309613 	101349.8929412473
-0.3440940940940944 	300.0257932914241 	1.074598401753553 	101355.4953875876
-0.3415915915915919 	300.0300804414596 	1.086988705472503 	101360.5648529973
-0.3390890890890895 	300.0338386466667 	1.097849488171567 	101365.008980498
-0.3365865865865869 	300.0369979176417 	1.106978766719719 	101368.7450867003
-0.3340840840840844 	300.0394979445755 	1.114201674866916 	101371.701552656
-0.3315815815815819 	300.0412885078322 	1.119373763575466 	101373.8191666825
-0.3290790790790794 	300.0423312875369 	1.122384062050001 	101375.052430538
-0.3265765765765769 	300.0426008060036 	1.123157706068734 	101375.3708214461
-0.3240740740740744 	300.0420835694624 	1.121657188067608 	101374.7587499859
-0.3215715715715718 	300.0407796086774 	1.117887778777721 	101373.2174929584
-0.3190690690690695 	300.0387094535309 	1.111902194771603 	101370.7695470508
-0.3165665665665668 	300.035905972717 	1.10379750324612 	101367.4543982099
-0.3140640640640644 	300.0324174346961 	1.093713318938976 	101363.3290945196
-0.311561561561562 	300.0283065874301 	1.08183172566621 	101358.4681633118
-0.3090590590590593 	300.023650428033 	1.068374741576241 	101352.96251733
-0.3065565565565568 	300.0185381310205 	1.053600085174706 	101346.9177371568
-0.3040540540540545 	300.0130692625492 	1.037795560033405 	101340.4517041289
-0.3015515515515518 	300.0073516499611 	1.021272110316732 	101333.6917873972
-0.2990490490490494 	300.0014981357431 	1.004355959493781 	101326.7716096654
-0.2965465465465469 	299.9956242661742 	0.987380380119278 	101319.8275875395
-0.2940440440440444 	299.9898448440094 	0.9706775097549812 	101312.9956132938
-0.2915415415415418 	299.9842718300823 	0.9545706329864723 	101306.4079387144
-0.2890390390390395 	299.9790115565959 	0.9393670603429112 	101300.1902088066
-0.2865365365365368 	299.9741625656734 	0.9253516482960492 	101294.4588449773
-0.2840340340340343 	299.969813724882 	0.9127812149654386 	101289.31879819
-0.2815315315315318 	299.9660425066141 	0.9018800746013464 	101284.8616546716
-0.2790290290290295 	299.9629141028587 	0.8928366355561376 	101281.1643125599
-0.2765265265265269 	299.9604804098142 	0.8858011526172531 	101278.2880965735
-0.2740240240240244 	299.9587798088591 	0.8808844889425933 	101276.2782110633