/*--------------------------------*- C++ -*----------------------------------*\
  =========                 |
  \\      /  F ield         | OpenFOAM: The Open Source CFD Toolbox
   \\    /   O peration     | Website:  https://openfoam.org
    \\  /    A nd           | Version:  7
     \\/     M anipulation  |
\*---------------------------------------------------------------------------*/
FoamFile
{
    version     2.0;
    format      ascii;
    class       volScalarField;
    location    "0.00152";
    object      mag(U);
}
// * * * * * * * * * * * * * * * * * * * * * * * * * * * * * * * * * * * * * //

dimensions      [0 1 -1 0 0 0 0];

internalField   nonuniform List<scalar> 
5000
(
45.039251
44.917086
44.835164
44.754323
44.67439
44.59527
44.516813
44.438889
44.361394
44.28426
44.207443
44.130924
44.054692
43.978748
43.903092
43.827735
43.752678
43.677933
43.603501
43.529393
43.45561
43.382159
43.309043
43.236267
43.163832
43.091745
43.020007
42.948618
42.877583
42.806912
42.736594
42.66664
42.59706
42.52783
42.45896
42.390475
42.322364
42.254629
42.187269
42.120289
42.05369
41.987475
41.921645
41.856201
41.791145
41.726479
41.662203
41.598319
41.53483
41.471735
41.409037
41.346736
41.284835
41.223334
41.162234
41.101537
41.041243
40.981353
40.921868
40.862788
40.804115
40.745849
40.687991
40.63054
40.573497
40.516862
40.460636
40.404818
40.34941
40.294409
40.239817
40.185634
40.131859
40.078492
40.025531
39.972978
39.920831
39.869088
39.817751
39.766816
39.716284
39.666151
39.616419
39.567085
39.51815
39.469633
39.421524
39.373803
39.326475
39.279534
39.232978
39.186804
39.141007
39.095587
39.050546
39.005879
38.961581
38.91765
38.874085
38.830885
38.788048
38.745568
38.70344
38.661665
38.620241
38.579166
38.538436
38.498046
38.457997
38.418286
38.378907
38.339859
38.301138
38.262742
38.224667
38.186909
38.149465
38.112331
38.075503
38.038977
38.002748
37.966813
37.931167
37.895806
37.860724
37.825918
37.791382
37.757111
37.723099
37.689343
37.655838
37.62258
37.589563
37.556783
37.524234
37.491913
37.459814
37.427934
37.396267
37.364809
37.333556
37.302502
37.271643
37.240974
37.210493
37.180194
37.150072
37.120125
37.090346
37.060732
37.031279
37.001981
36.972836
36.943839
36.914986
36.886272
36.857695
36.82925
36.800933
36.77274
36.744667
36.71671
36.688866
36.661131
36.633502
36.605974
36.578544
36.551209
36.523964
36.496808
36.469735
36.442743
36.415828
36.388989
36.36222
36.33552
36.308886
36.282314
36.255802
36.229345
36.202942
36.176589
36.150286
36.124029
36.097815
36.071644
36.045512
36.019418
35.993357
35.96733
35.941332
35.915362
35.889418
35.863499
35.837603
35.811727
35.785871
35.760034
35.734213
35.708407
35.682613
35.65683
35.631056
35.605291
35.579531
35.553776
35.528026
35.502278
35.476533
35.450788
35.425043
35.399295
35.373543
35.347787
35.322025
35.296257
35.270481
35.244696
35.218903
35.193102
35.16729
35.141468
35.115633
35.089785
35.063923
35.038047
35.012158
34.986255
34.960336
34.934402
34.908451
34.882485
34.856502
34.830503
34.804487
34.778452
34.752398
34.726325
34.700233
34.674123
34.647994
34.621846
34.595678
34.569491
34.543285
34.51706
34.490815
34.464552
34.438269
34.411966
34.385642
34.3593
34.332939
34.306561
34.280165
34.253751
34.227318
34.200866
34.174398
34.147913
34.121414
34.094898
34.068367
34.041818
34.015254
33.988675
33.962083
33.935477
33.908859
33.882226
33.85558
33.82892
33.802249
33.775568
33.748876
33.722173
33.695459
33.668734
33.641998
33.615254
33.588501
33.56174
33.534971
33.508193
33.481405
33.454609
33.427806
33.400997
33.374181
33.347358
33.320528
33.29369
33.266845
33.239994
33.213138
33.186275
33.159406
33.132531
33.10565
33.078763
33.051871
33.024972
32.998068
32.971159
32.944246
32.917328
32.890406
32.863477
32.836544
32.809607
32.782667
32.755725
32.728779
32.70183
32.674877
32.647922
32.620965
32.594006
32.567046
32.540085
32.513123
32.48616
32.459197
32.432233
32.405269
32.378306
32.351343
32.324382
32.297422
32.270464
32.243508
32.216554
32.189602
32.162651
32.135703
32.108757
32.081814
32.054874
32.027936
32.001001
31.974068
31.947139
31.920213
31.893291
31.866372
31.839457
31.812544
31.785635
31.758729
31.731825
31.704923
31.678024
31.651127
31.624234
31.597343
31.570455
31.543569
31.516685
31.489804
31.462924
31.436045
31.409169
31.382295
31.355423
31.328554
31.301686
31.27482
31.247956
31.221093
31.194232
31.167374
31.140517
31.113663
31.086811
31.059961
31.033114
31.006269
30.979426
30.952585
30.925747
30.898912
30.872081
30.845252
30.818427
30.791606
30.764788
30.737973
30.711162
30.684355
30.657552
30.630752
30.603957
30.577166
30.550379
30.523597
30.496819
30.470045
30.443275
30.416509
30.389748
30.362992
30.33624
30.309492
30.282749
30.256009
30.229274
30.202542
30.175815
30.149091
30.122371
30.095655
30.068942
30.042233
30.015527
29.988824
29.962125
29.935429
29.908735
29.882045
29.855357
29.828673
29.80199
29.775311
29.748633
29.721959
29.695287
29.668618
29.64195
29.615285
29.588622
29.561961
29.535303
29.508647
29.481994
29.455343
29.428695
29.402049
29.375406
29.348766
29.322129
29.295494
29.268863
29.242234
29.215608
29.188985
29.162366
29.13575
29.109139
29.082531
29.055927
29.029327
29.00273
28.976138
28.94955
28.922966
28.896386
28.869811
28.84324
28.816674
28.790112
28.763556
28.737004
28.710456
28.683914
28.657377
28.630845
28.604317
28.577795
28.551277
28.524764
28.498256
28.471753
28.445254
28.41876
28.392271
28.365786
28.339306
28.31283
28.286359
28.259892
28.233428
28.206969
28.180513
28.154061
28.127613
28.101168
28.074727
28.048288
28.021853
27.995421
27.968992
27.942565
27.916141
27.88972
27.863301
27.836884
27.81047
27.784058
27.757649
27.731242
27.704837
27.678434
27.652033
27.625634
27.599238
27.572844
27.546452
27.520062
27.493674
27.467289
27.440906
27.414525
27.388147
27.361772
27.3354
27.30903
27.282663
27.2563
27.229939
27.203581
27.177227
27.150876
27.124529
27.098184
27.071844
27.045506
27.019173
26.992843
26.966517
26.940195
26.913876
26.887561
26.86125
26.834943
26.80864
26.782341
26.756046
26.729755
26.703467
26.677184
26.650904
26.624627
26.598355
26.572086
26.54582
26.519558
26.4933
26.467044
26.440793
26.414544
26.388298
26.362056
26.335816
26.309579
26.283345
26.257113
26.230885
26.204659
26.178436
26.152215
26.125997
26.099781
26.073567
26.047356
26.021148
25.994942
25.968738
25.942537
25.916338
25.890141
25.863947
25.837755
25.811565
25.785378
25.759194
25.733012
25.706833
25.680656
25.654482
25.62831
25.602141
25.575975
25.549812
25.523652
25.497496
25.471342
25.445191
25.419044
25.3929
25.366759
25.340622
25.314487
25.288356
25.262229
25.236104
25.209983
25.183865
25.157751
25.13164
25.105533
25.079429
25.053328
25.027231
25.001137
24.975047
24.948959
24.922875
24.896794
24.870717
24.844642
24.818571
24.792503
24.766437
24.740375
24.714316
24.688259
24.662205
24.636153
24.610105
24.584059
24.558016
24.531975
24.505937
24.479901
24.453868
24.427837
24.401809
24.375783
24.349759
24.323738
24.297719
24.271702
24.245688
24.219676
24.193666
24.167659
24.141655
24.115652
24.089653
24.063655
24.03766
24.011668
23.985679
23.959692
23.933708
23.907727
23.881749
23.855773
23.829801
23.803831
23.777865
23.751902
23.725942
23.699986
23.674032
23.648083
23.622136
23.596193
23.570254
23.544319
23.518387
23.492459
23.466534
23.440613
23.414697
23.388784
23.362875
23.33697
23.311069
23.285172
23.259278
23.233389
23.207503
23.181622
23.155744
23.129869
23.103999
23.078132
23.052269
23.026409
23.000554
22.974702
22.948854
22.923009
22.897168
22.87133
22.845496
22.819665
22.793837
22.768012
22.742191
22.716372
22.690557
22.664744
22.638934
22.613127
22.587323
22.561522
22.535723
22.509927
22.484134
22.458343
22.432554
22.406768
22.380984
22.355203
22.329424
22.303647
22.277873
22.252101
22.226331
22.200564
22.174799
22.149036
22.123276
22.097518
22.071762
22.046008
22.020257
21.994509
21.968763
21.943019
21.917278
21.891539
21.865803
21.840069
21.814339
21.78861
21.762885
21.737162
21.711442
21.685724
21.660009
21.634297
21.608588
21.582882
21.557179
21.531478
21.505781
21.480086
21.454394
21.428705
21.403019
21.377336
21.351655
21.325978
21.300303
21.274632
21.248963
21.223296
21.197633
21.171972
21.146314
21.120659
21.095006
21.069356
21.043709
21.018064
20.992422
20.966782
20.941144
20.91551
20.889877
20.864247
20.838619
20.812994
20.787371
20.76175
20.736131
20.710515
20.684901
20.659289
20.633679
20.608071
20.582465
20.556862
20.531261
20.505662
20.480065
20.45447
20.428877
20.403287
20.377699
20.352113
20.326529
20.300948
20.275369
20.249792
20.224218
20.198647
20.173078
20.147512
20.121948
20.096386
20.070827
20.045271
20.019718
19.994167
19.96862
19.943076
19.917534
19.891995
19.86646
19.840927
19.815398
19.789873
19.76435
19.738831
19.713316
19.687803
19.662295
19.63679
19.611289
19.585791
19.560298
19.534808
19.509321
19.483839
19.45836
19.432886
19.407416
19.38195
19.356487
19.331029
19.305575
19.280124
19.254678
19.229237
19.203799
19.178366
19.152937
19.127513
19.102092
19.076675
19.051263
19.025856
19.000452
18.975053
18.949658
18.924267
18.898881
18.873498
18.84812
18.822746
18.797377
18.772011
18.746649
18.721291
18.695938
18.670588
18.645243
18.619901
18.594563
18.569229
18.543899
18.518573
18.49325
18.46793
18.442615
18.417304
18.391995
18.366689
18.341387
18.31609
18.290795
18.265504
18.240214
18.214926
18.189643
18.164366
18.139093
18.113822
18.088545
18.063267
18.037998
18.012743
17.987499
17.962258
17.936981
17.911695
17.886426
17.861185
17.835972
17.810774
17.785567
17.760296
17.735003
17.709692
17.684396
17.659127
17.633886
17.608661
17.583432
17.558187
17.532958
17.507755
17.482579
17.457414
17.432232
17.407006
17.381785
17.356566
17.331355
17.306156
17.28097
17.255798
17.230638
17.205481
17.180313
17.155121
17.129932
17.10475
17.079583
17.054431
17.029287
17.004133
16.978953
16.953784
16.928628
16.903487
16.878351
16.853204
16.828048
16.802897
16.777747
16.752598
16.727457
16.702334
16.677229
16.652129
16.626995
16.601833
16.576691
16.551575
16.526486
16.501409
16.476327
16.451231
16.426145
16.401072
16.376011
16.350955
16.325889
16.30081
16.275737
16.250676
16.22563
16.200593
16.175555
16.150484
16.125416
16.100365
16.075345
16.050351
16.025362
16.000309
15.975236
15.950193
15.925201
15.900254
15.875322
15.850301
15.82522
15.800172
15.775172
15.750225
15.725305
15.700368
15.675356
15.650362
15.625385
15.600438
15.575512
15.550593
15.52565
15.500702
15.475766
15.450851
15.425957
15.401072
15.376155
15.351205
15.326276
15.301383
15.276527
15.251689
15.226817
15.201878
15.176957
15.152052
15.127167
15.102298
15.077438
15.052595
15.027773
15.002969
14.978167
14.953313
14.928447
14.903597
14.878762
14.853935
14.829108
14.804285
14.779478
14.754688
14.729907
14.705124
14.680324
14.655529
14.630733
14.605939
14.581157
14.556395
14.531657
14.506931
14.482194
14.457412
14.432642
14.407879
14.383118
14.358356
14.333605
14.308881
14.284191
14.259522
14.23484
14.210066
14.185299
14.160544
14.13581
14.111098
14.086406
14.061732
14.037073
14.012419
13.987737
13.963031
13.938331
13.913633
13.888937
13.864247
13.839577
13.814932
13.790306
13.76568
13.740982
13.716284
13.691601
13.666933
13.642272
13.617613
13.592971
13.568358
13.54377
13.519184
13.494517
13.469816
13.445133
13.420476
13.395847
13.371238
13.346638
13.322039
13.297433
13.272826
13.248213
13.2236
13.198987
13.174376
13.149768
13.125163
13.100564
13.075969
13.051376
13.026782
13.002189
12.977601
12.95302
12.928444
12.903862
12.87926
12.85467
12.830104
12.805566
12.781037
12.756447
12.731803
12.70718
12.682584
12.658024
12.633491
12.608971
12.584455
12.559933
12.53541
12.510883
12.486356
12.461827
12.437299
12.412776
12.38826
12.363747
12.339228
12.314697
12.29018
12.265688
12.241216
12.216748
12.19221
12.167647
12.143105
12.118594
12.094116
12.069663
12.04522
12.020778
11.99633
11.971883
11.947434
11.922986
11.898537
11.87409
11.849649
11.825216
11.800787
11.776352
11.751905
11.727474
11.703071
11.678692
11.654312
11.629837
11.605358
11.580906
11.556497
11.532125
11.507769
11.483413
11.45904
11.434678
11.410329
11.385989
11.361614
11.337163
11.312729
11.28832
11.263954
11.23963
11.215333
11.191047
11.166761
11.142464
11.118167
11.093863
11.069562
11.045261
11.020962
10.996666
10.972373
10.948083
10.923796
10.899514
10.875234
10.850958
10.826687
10.802421
10.778159
10.753903
10.729652
10.705408
10.681167
10.656917
10.632654
10.608398
10.584153
10.559924
10.535706
10.51149
10.487266
10.463045
10.438829
10.414619
10.390413
10.36621
10.342008
10.317808
10.293612
10.26942
10.245232
10.221047
10.196865
10.172686
10.148509
10.124336
10.100166
10.076001
10.051839
10.027668
10.003487
9.9793214
9.9551842
9.9310677
9.906934
9.8827027
9.8584983
9.8343312
9.8102056
9.7861034
9.7620075
9.7379064
9.7138018
9.6896725
9.6655484
9.6414369
9.6173399
9.5932447
9.5690869
9.5449185
9.5207769
9.4966679
9.4725835
9.4485093
9.4244363
9.4003559
9.3762702
9.3521714
9.3280825
9.3040108
9.2799526
9.2558724
9.2317129
9.2075807
9.1834861
9.1594299
9.1353918
9.1113555
9.0873089
9.0632627
9.0391953
9.0151319
8.9910873
8.9670638
8.943041
8.918912
8.8947842
8.8707057
8.8466798
8.8226811
8.7986855
8.7746741
8.7506652
8.726636
8.7026044
8.6785884
8.6545965
8.6306135
8.6065462
8.5824387
8.5583863
8.5343897
8.5104264
8.4864689
8.4624948
8.438523
8.4145377
8.3905498
8.3665674
8.342599
8.3186406
8.294657
8.2706194
8.246611
8.2226351
8.1986867
8.1747589
8.1508519
8.126956
8.1029914
8.0789491
8.054963
8.0310312
8.0071377
7.9832632
7.9593963
7.9354709
7.9114552
7.8874959
7.8635935
7.8397281
7.8158704
7.7919991
7.7681229
7.744199
7.7202902
7.6964002
7.6725276
7.648669
7.6248283
7.601001
7.5771332
7.5531815
7.5292822
7.5054403
7.4816361
7.4578408
7.4340381
7.4102226
7.3863328
7.3624731
7.338654
7.3148648
7.2910823
7.2672982
7.2435189
7.2197082
7.1958773
7.172072
7.1482916
7.1245281
7.1007808
7.0770495
7.053305
7.0294412
7.0056184
6.9818677
6.9581684
6.934477
6.9107592
6.887049
6.863291
6.8395359
6.8158062
6.7921007
6.7684054
6.7447177
6.7210403
6.697358
6.673591
6.6498472
6.6261592
6.6025196
6.5788969
6.5552477
6.5315403
6.5078181
6.4841567
6.4605431
6.436936
6.4132499
6.3895848
6.3659514
6.342342
6.3187234
6.2950697
6.2714416
6.2478344
6.2242387
6.2006228
6.1769843
6.15337
6.1297801
6.1062036
6.0826145
6.0589965
6.0353957
6.0118165
5.9882541
5.964693
5.94109
5.9174965
5.8939282
5.8703858
5.8468509
5.8232602
5.7996628
5.7761037
5.752588
5.7290895
5.7054998
5.6818625
5.6583039
5.6348271
5.6113793
5.5877998
5.5641648
5.5406114
5.5171487
5.4937158
5.4701625
5.4465795
5.423042
5.3995662
5.3761117
5.3525844
5.3290465
5.3055331
5.2820459
5.2585566
5.2350401
5.2115472
5.1880567
5.1645296
5.1410281
5.1175586
5.0940898
5.0705849
5.047104
5.0236335
5.0001513
4.9766571
4.9531837
4.9297204
4.9062412
4.8827567
4.8592922
4.8358365
4.8123582
4.7888836
4.7654301
4.7419835
4.7185039
4.6950375
4.6715971
4.6481632
4.6246799
4.601219
4.5777942
4.5543768
4.530883
4.5074251
4.4840234
4.4606312
4.4371008
4.4136325
4.390264
4.3669187
4.343372
4.3199029
4.2965538
4.273238
4.2497019
4.2262409
4.2028944
4.1795843
4.1561041
4.1326768
4.1093153
4.0859751
4.0625364
4.039131
4.015765
3.9924103
3.968997
3.9456077
3.922246
3.8988901
3.875495
3.8521211
3.8287679
3.8054163
3.7820369
3.7586779
3.7353353
3.7119903
3.6886253
3.6652814
3.6419523
3.6186147
3.595262
3.5719336
3.5486207
3.5252897
3.5019484
3.4786362
3.4553418
3.4320162
3.4086838
3.3853892
3.3621168
3.3387941
3.3154652
3.2921912
3.2689488
3.2456196
3.2222792
3.1990327
3.1758384
3.1524944
3.1291297
3.1059078
3.0827521
3.0594731
3.036223
3.0129817
2.9897285
2.9664758
2.9432472
2.9200015
2.8967281
2.8735233
2.8503021
2.8269648
2.8037863
2.7806728
2.7574288
2.7342309
2.7110443
2.687831
2.6646337
2.6414488
2.6182526
2.595061
2.5718846
2.5487035
2.5255133
2.5023548
2.4791743
2.4559075
2.4327766
2.4097089
2.3865127
2.3633752
2.3402597
2.3171032
2.2939668
2.2708422
2.2477048
2.2245746
2.2014561
2.1783348
2.1552116
2.1321039
2.1089961
2.0858701
2.0627792
2.0396866
2.0164945
1.9934235
1.9704264
1.9473219
1.9242476
1.9011863
1.8781066
1.8550374
1.831979
1.8089159
1.7858549
1.7628043
1.7397548
1.7167007
1.6936623
1.6706279
1.6475638
1.6245373
1.6015334
1.5784792
1.5554632
1.5324735
1.509452
1.4864426
1.4634427
1.4404378
1.4174374
1.3944445
1.3714523
1.3484617
1.3254793
1.3025004
1.2795186
1.2565477
1.2335818
1.2105794
1.1876213
1.1646996
1.1417405
1.1187918
1.0958515
1.0729083
1.0499707
1.0270383
1.0041088
0.98118267
0.95826191
0.93534474
0.91243025
0.88952109
0.86661595
0.84371371
0.82081609
0.7979233
0.77503188
0.7521466
0.7292674
0.70638978
0.68351648
0.6606479
0.63778299
0.61492268
0.59206647
0.56921535
0.54636916
0.52352637
0.50068826
0.47785654
0.45502719
0.43220143
0.40939362
0.38657714
0.36375309
0.34096319
0.31815963
0.29534312
0.27255482
0.24976346
0.22696566
0.20418236
0.18140246
0.15861513
0.13583441
0.11306318
0.09027564
0.067481843
0.044723172
0.021937635
0.0008644358
0.023628156
0.046389145
0.069152244
0.091916919
0.114683
0.13745027
0.16021793
0.1829846
0.2057496
0.22851191
0.2512702
0.27402417
0.29677465
0.31952199
0.34226574
0.36500719
0.38774527
0.41047816
0.43320484
0.45592711
0.4786468
0.50136329
0.52407505
0.54678152
0.56948362
0.59218158
0.61487514
0.63756373
0.66024732
0.68292597
0.70560011
0.72826942
0.75093412
0.7735944
0.79625021
0.81890174
0.84154943
0.8641935
0.88683383
0.90946997
0.9321022
0.95473006
0.97735381
0.9999737
1.0225899
1.0452024
1.0678111
1.0904162
1.1130172
1.1356141
1.1582071
1.1807971
1.2033836
1.225966
1.2485441
1.2711184
1.2936895
1.3162571
1.3388207
1.3613807
1.3839375
1.4064908
1.4290399
1.4515851
1.474127
1.4966658
1.519201
1.5417323
1.5642599
1.5867841
1.6093046
1.6318219
1.6543357
1.6768461
1.6993525
1.7218553
1.7443551
1.7668517
1.7893441
1.8118326
1.8343173
1.8567991
1.8792783
1.901754
1.9242257
1.9466932
1.9691571
1.9916178
2.0140755
2.0365299
2.0589811
2.0814284
2.1038716
2.1263114
2.1487479
2.1711815
2.1936118
2.2160384
2.238461
2.2608799
2.2832958
2.3057087
2.3281181
2.3505238
2.3729254
2.3953238
2.4177192
2.4401117
2.4625006
2.4848855
2.5072666
2.5296445
2.5520195
2.5743913
2.5967593
2.6191233
2.6414838
2.6638415
2.6861963
2.7085476
2.7308946
2.753238
2.7755779
2.7979151
2.8202492
2.8425797
2.8649062
2.8872293
2.9095496
2.9318669
2.9541806
2.9764904
2.9987966
3.0210996
3.0433998
3.0656966
3.0879892
3.1102781
3.1325638
3.1548468
3.1771269
3.1994037
3.2216765
3.2439452
3.2662106
3.2884728
3.3107322
3.3329887
3.3552418
3.3774909
3.3997363
3.4219783
3.4442174
3.4664536
3.4886865
3.5109157
3.5331412
3.5553631
3.5775819
3.599798
3.6220111
3.6442205
3.666426
3.688628
3.7108271
3.7330234
3.7552167
3.7774063
3.7995921
3.8217743
3.8439535
3.86613
3.8883033
3.9104732
3.9326393
3.954802
3.9769618
3.9991188
4.0212726
4.0434229
4.0655696
4.0877128
4.1098531
4.1319905
4.154125
4.176256
4.1983835
4.2205075
4.2426285
4.2647465
4.2868616
4.3089735
4.3310821
4.3531873
4.3752893
4.3973882
4.4194842
4.4415771
4.4636667
4.4857531
4.5078363
4.5299165
4.5519937
4.5740679
4.5961388
4.6182066
4.6402712
4.6623329
4.6843916
4.7064471
4.7284996
4.7505489
4.7725954
4.7946388
4.8166792
4.8387165
4.8607506
4.8827819
4.9048102
4.9268356
4.9488579
4.9708774
4.9928939
5.0149075
5.0369179
5.058925
5.0809291
5.1029306
5.1249295
5.1469257
5.168919
5.190909
5.2128958
5.2348796
5.2568607
5.278839
5.3008147
5.3227875
5.3447575
5.3667246
5.3886887
5.41065
5.4326085
5.4545641
5.4765168
5.4984668
5.5204141
5.5423588
5.5643006
5.5862396
5.6081758
5.6301092
5.6520398
5.6739678
5.6958929
5.7178154
5.7397351
5.7616523
5.7835667
5.8054784
5.8273872
5.8492934
5.8711971
5.8930981
5.9149965
5.936892
5.9587849
5.9806751
6.0025628
6.0244481
6.0463307
6.0682105
6.0900876
6.111962
6.1338341
6.1557037
6.1775708
6.1994351
6.2212967
6.2431557
6.2650123
6.2868664
6.308718
6.3305671
6.3524135
6.3742574
6.3960987
6.4179376
6.439774
6.461608
6.4834393
6.505268
6.5270942
6.5489182
6.5707397
6.5925589
6.6143755
6.6361893
6.6580006
6.6798095
6.7016162
6.7234205
6.7452225
6.7670219
6.7888187
6.810613
6.8324049
6.8541944
6.8759816
6.8977665
6.919549
6.9413289
6.9631064
6.9848815
7.0066543
7.0284247
7.0501927
7.0719583
7.0937214
7.1154821
7.1372405
7.1589966
7.1807503
7.2025016
7.2242504
7.245997
7.2677413
7.2894832
7.3112226
7.3329596
7.3546942
7.3764267
7.3981569
7.4198847
7.44161
7.4633329
7.4850535
7.5067719
7.528488
7.5502016
7.5719128
7.5936216
7.6153281
7.6370323
7.6587342
7.6804338
7.702131
7.7238259
7.7455185
7.7672087
7.7888966
7.810582
7.832265
7.8539457
7.8756243
7.8973006
7.9189745
7.9406458
7.9623146
7.9839811
8.0056454
8.0273075
8.0489674
8.0706249
8.0922798
8.1139323
8.1355823
8.1572301
8.1788755
8.2005187
8.2221595
8.243798
8.2654339
8.2870675
8.3086986
8.3303274
8.3519539
8.3735779
8.3951996
8.4168189
8.4384357
8.4600501
8.4816621
8.5032717
8.5248789
8.5464837
8.5680861
8.589686
8.6112834
8.6328784
8.6544709
8.6760611
8.6976488
8.719234
8.7408166
8.7623968
8.7839746
8.80555
8.8271229
8.8486932
8.870261
8.8918263
8.9133891
8.9349494
8.9565071
8.9780623
8.9996149
9.0211651
9.0427128
9.0642578
9.0858002
9.10734
9.1288773
9.1504121
9.1719443
9.1934738
9.2150007
9.2365249
9.2580466
9.2795658
9.3010824
9.3225962
9.3441072
9.3656156
9.3871214
9.4086246
9.4301252
9.4516231
9.4731182
9.4946105
9.5161001
9.5375871
9.5590714
9.5805531
9.602032
9.623508
9.6449813
9.6664518
9.6879196
9.7093846
9.7308469
9.7523064
9.773763
9.7952169
9.816668
9.8381163
9.8595619
9.8810044
9.902444
9.9238807
9.9453147
9.9667459
9.9881744
10.0096
10.031023
10.052442
10.073859
10.095273
10.116684
10.138092
10.159497
10.180899
10.202299
10.223695
10.245088
10.266478
10.287866
10.30925
10.330632
10.352011
10.373386
10.394759
10.416128
10.437495
10.458858
10.480219
10.501576
10.522931
10.544282
10.565631
10.586976
10.608318
10.629658
10.650994
10.672327
10.693657
10.714984
10.736308
10.757629
10.778947
10.800262
10.821573
10.842882
10.864187
10.88549
10.906789
10.928085
10.949378
10.970668
10.991955
11.013239
11.034519
11.055797
11.077071
11.098342
11.11961
11.140875
11.162137
11.183396
11.204652
11.225904
11.247153
11.2684
11.289643
11.310883
11.33212
11.353353
11.374584
11.395811
11.417035
11.438257
11.459475
11.480689
11.501901
11.52311
11.544315
11.565517
11.586717
11.607913
11.629105
11.650295
11.671481
11.692665
11.713845
11.735023
11.756197
11.777367
11.798535
11.8197
11.840861
11.862019
11.883175
11.904327
11.925476
11.946621
11.967764
11.988903
12.01004
12.031173
12.052303
12.07343
12.094554
12.115675
12.136792
12.157906
12.179018
12.200126
12.221231
12.242333
12.263431
12.284527
12.305619
12.326709
12.347795
12.368878
12.389958
12.411035
12.432108
12.453178
12.474246
12.49531
12.516371
12.537429
12.558484
12.579536
12.600584
12.621629
12.642672
12.663711
12.684747
12.70578
12.726809
12.747836
12.768859
12.78988
12.810897
12.831911
12.852922
12.87393
12.894935
12.915936
12.936935
12.957931
12.978923
12.999912
13.020898
13.041881
13.062861
13.083838
13.104812
13.125783
13.146751
13.167716
13.188677
13.209636
13.230592
13.251545
13.272494
13.293441
13.314385
13.335326
13.356264
13.377199
13.398131
13.41906
13.439987
13.460911
13.481831
13.50275
13.523665
13.544578
13.565488
13.586395
13.6073
13.628202
13.649101
13.669998
13.690893
13.711785
13.732674
13.753562
13.774447
13.79533
13.81621
13.837089
13.857965
13.878839
13.899711
13.920582
13.94145
13.962317
13.983182
14.004045
14.024907
14.045767
14.066626
14.087484
14.10834
14.129195
14.15005
14.170903
14.191755
14.212607
14.233458
14.254309
14.275159
14.296009
14.316859
14.337709
14.358559
14.37941
14.400261
14.421112
14.441964
14.462817
14.483672
14.504527
14.525384
14.546243
14.567103
14.587966
14.608831
14.629698
14.650568
14.671441
14.692317
14.713196
14.734079
14.754965
14.775856
14.796752
14.817652
14.838557
14.859467
14.880383
14.901304
14.922232
14.943166
14.964108
14.985056
15.006012
15.026975
15.047948
15.068928
15.089918
15.110917
15.131926
15.152946
15.173976
15.195017
15.21607
15.237135
15.258212
15.279303
15.300407
15.321525
15.342657
15.363805
15.384969
15.406148
15.427344
15.448558
15.46979
15.49104
15.512309
15.533598
15.554908
15.576238
15.59759
15.618965
15.640363
15.661785
15.683231
15.704702
15.726199
15.747723
15.769275
15.790855
15.812464
15.834102
15.855772
15.877472
15.899206
15.920972
15.942772
15.964608
15.986479
16.008387
16.030332
16.052316
16.07434
16.096403
16.118509
16.140656
16.162847
16.185082
16.207362
16.229689
16.252063
16.274485
16.296956
16.319478
16.342051
16.364677
16.387356
16.41009
16.43288
16.455726
16.47863
16.501593
16.524616
16.5477
16.570846
16.594056
16.61733
16.64067
16.664076
16.687551
16.711094
16.734707
16.758391
16.782148
16.805978
16.829882
16.853862
16.877919
16.902054
16.926268
16.950562
16.974937
16.999394
17.023935
17.04856
17.073271
17.098068
17.122953
17.147926
17.17299
17.198144
17.22339
17.248729
17.274161
17.299688
17.325311
17.351031
17.376849
17.402765
17.42878
17.454896
17.481113
17.507433
17.533855
17.560381
17.587012
17.613748
17.64059
17.66754
17.694597
17.721762
17.749036
17.77642
17.803915
17.83152
17.859238
17.887067
17.915009
17.943064
17.971233
17.999517
18.027915
18.056428
18.085056
18.113801
18.142662
18.171639
18.200733
18.229945
18.259274
18.28872
18.318284
18.347966
18.377767
18.407685
18.437722
18.467877
18.498151
18.528543
18.559053
18.589681
18.620428
18.651293
18.682275
18.713376
18.744594
18.775929
18.807381
18.838951
18.870636
18.902438
18.934356
18.966389
18.998536
19.030799
19.063175
19.095665
19.128268
19.160984
19.193811
19.22675
19.259799
19.292958
19.326227
19.359604
19.393089
19.426681
19.46038
19.494184
19.528093
19.562106
19.596222
19.63044
19.66476
19.69918
19.733699
19.768316
19.803032
19.837843
19.87275
19.907752
19.942846
19.978033
20.013312
20.04868
20.084137
20.119682
20.155313
20.19103
20.226831
20.262715
20.298681
20.334728
20.370853
20.407057
20.443338
20.479694
20.516125
20.552628
20.589203
20.625848
20.662562
20.699343
20.736191
20.773104
20.81008
20.847118
20.884217
20.921375
20.958591
20.995863
21.033191
21.070572
21.108005
21.145489
21.183022
21.220602
21.258229
21.295901
21.333617
21.371374
21.409172
21.447009
21.484884
21.522794
21.560739
21.598717
21.636727
21.674767
21.712835
21.750926
21.789037
21.827172
21.865332
21.903511
21.941702
21.979899
22.018097
22.056285
22.094468
22.132665
22.170909
22.20924
22.247674
22.286178
22.324719
22.363141
22.401366
22.439595
22.477872
22.516205
22.554568
22.592924
22.631229
22.669516
22.707803
22.746086
22.784358
22.822616
22.860856
22.899079
22.937285
22.975472
23.013639
23.051784
23.089905
23.128001
23.166069
23.20411
23.24212
23.2801
23.318047
23.355961
23.393842
23.431687
23.469496
23.507268
23.545001
23.582693
23.620343
23.657949
23.695509
23.733021
23.770484
23.807898
23.845261
23.882573
23.919835
23.957045
23.994203
24.031308
24.068358
24.10535
24.142283
24.179153
24.215958
24.252697
24.289368
24.325971
24.362508
24.39898
24.435388
24.471732
24.508013
24.544228
24.580376
24.616451
24.652449
24.688365
24.724195
24.759938
24.795594
24.831166
24.866658
24.902076
24.937423
24.972701
25.007906
25.043031
25.078066
25.112998
25.147817
25.182517
25.217099
25.251567
25.285938
25.320213
25.354385
25.388457
25.422408
25.456223
25.489958
25.523653
25.557308
25.590878
25.624318
25.657667
25.691017
25.724584
25.759664
25.795093
25.824324
25.853585
25.88767
25.921697
25.95411
25.986827
26.019738
26.052313
26.084768
26.117126
26.149351
26.181456
26.213459
26.245353
26.277133
26.308797
26.340339
26.371762
26.403062
26.434239
26.465304
26.49626
26.527104
26.557849
26.588501
26.619059
26.649524
26.679901
26.710173
26.740308
26.770403
26.800447
26.830341
26.860129
26.889822
26.919418
26.948919
26.978324
27.007635
27.036852
27.065978
27.095011
27.123952
27.152801
27.181557
27.210221
27.238791
27.26727
27.295656
27.323952
27.352157
27.380272
27.408298
27.436237
27.464088
27.491851
27.519529
27.547119
27.574624
27.602044
27.629378
27.656629
27.683795
27.710879
27.73788
27.764799
27.791638
27.818397
27.845077
27.871677
27.8982
27.924645
27.951014
27.977306
28.003524
28.029666
28.055735
28.081731
28.107654
28.133506
28.159287
28.184998
28.21064
28.236213
28.261719
28.287158
28.312531
28.337838
28.363082
28.388261
28.413378
28.438432
28.463425
28.488358
28.513231
28.538046
28.562802
28.587501
28.612143
28.63673
28.661263
28.685741
28.710166
28.734538
28.758859
28.78313
28.80735
28.831521
28.855643
28.879718
28.903746
28.927728
28.951665
28.975557
28.999406
29.023211
29.046974
29.070696
29.094377
29.118019
29.141621
29.165184
29.18871
29.212198
29.23565
29.259067
29.282448
29.305796
29.32911
29.352391
29.375639
29.398857
29.422043
29.445199
29.468325
29.491423
29.514492
29.537533
29.560548
29.583535
29.606497
29.629434
29.652346
29.675234
29.698098
29.72094
29.743758
29.766555
29.789331
29.812086
29.83482
29.857534
29.88023
29.902906
29.925564
29.948204
29.970827
29.993433
30.016022
30.038596
30.061154
30.083696
30.106224
30.128737
30.151237
30.173723
30.196196
30.218656
30.241104
30.26354
30.285964
30.308377
30.330779
30.35317
30.375552
30.397923
30.420285
30.442637
30.46498
30.487315
30.509641
30.531959
30.554269
30.576572
30.598867
30.621156
30.643437
30.665712
30.687981
30.710243
30.7325
30.754752
30.776997
30.799238
30.821474
30.843704
30.865931
30.888153
30.910371
30.932585
30.954795
30.977001
30.999205
31.021404
31.043601
31.065795
31.087985
31.110174
31.132359
31.154543
31.176724
31.198903
31.22108
31.243255
31.265429
31.287601
31.309771
31.33194
31.354108
31.376275
31.39844
31.420605
31.442769
31.464932
31.487095
31.509257
31.531418
31.553579
31.57574
31.597901
31.620061
31.642222
31.664383
31.686543
31.708704
31.730865
31.753027
31.775188
31.797351
31.819513
31.841677
31.863841
31.886005
31.908171
31.930337
31.952504
31.974672
31.996841
32.01901
32.041181
32.063353
32.085527
32.107701
32.129877
32.152053
32.174232
32.196411
32.218592
32.240775
32.262959
32.285144
32.307331
32.32952
32.35171
32.373902
32.396096
32.418291
32.440488
32.462687
32.484888
32.507091
32.529295
32.551502
32.57371
32.595921
32.618133
32.640348
32.662564
32.684783
32.707003
32.729226
32.751451
32.773679
32.795908
32.81814
32.840374