/*--------------------------------*- C++ -*----------------------------------*\
  =========                 |
  \\      /  F ield         | OpenFOAM: The Open Source CFD Toolbox
   \\    /   O peration     | Website:  https://openfoam.org
    \\  /    A nd           | Version:  7
     \\/     M anipulation  |
\*---------------------------------------------------------------------------*/
FoamFile
{
    version     2.0;
    format      ascii;
    class       volScalarField;
    location    "0.00152";
    object      Uz;
}
// * * * * * * * * * * * * * * * * * * * * * * * * * * * * * * * * * * * * * //

dimensions      [0 1 -1 0 0 0 0];

internalField   nonuniform List<scalar> 
5000
(
0
0
0
0
0
2.9314951e-17
6.2024298e-32
-8.6572323e-17
-2.8601774e-17
5.6666612e-17
5.6113863e-17
-2.777391e-17
2.3436919e-31
2.396188e-31
-5.3806079e-17
5.3213196e-17
1.1609334e-46
2.2913836e-31
2.5703208e-17
-5.0792851e-17
-2.5087387e-17
0
0
2.414215e-17
-2.03119e-31
1.9368343e-31
2.3172593e-17
-2.2843597e-17
-2.2512384e-17
2.2177735e-17
-3.8179887e-31
1.8334434e-31
2.1153028e-17
-2.0805443e-17
-2.0462985e-17
0
0
1.9405604e-17
1.9047616e-17
-1.8687398e-17
3.0728752e-31
1.7960187e-17
-1.759317e-17
2.9127275e-31
1.6852568e-17
-1.6479107e-17
5.5380756e-31
-5.385925e-31
5.2778193e-31
-2.5521045e-31
-1.45828e-17
0
0
0
0
0
0
0
0
0
0
0
0
9.477371e-18
9.0772951e-18
-8.6765413e-18
1.4229268e-31
1.9369495e-47
-7.4709207e-18
0
0
6.2620309e-18
5.8587261e-18
0
-5.0521207e-18
-1.60542e-31
4.2462246e-18
3.8438275e-18
-3.4419426e-18
-6.081396e-18
5.2804307e-18
-1.2737062e-33
-5.5266906e-18
2.8838858e-18
1.0869276e-31
-1.2596407e-18
6.3737466e-19
1.7529842e-19
5.6404176e-19
-9.5641162e-19
1.3412823e-18
1.726239e-18
7.3497043e-32
-4.9844905e-18
-1.9875443e-31
-3.2505847e-18
-3.6273249e-18
-1.4047232e-31
3.0461479e-31
9.4900173e-18
5.1133707e-18
-5.4794094e-18
8.3027283e-34
6.2024282e-18
0
-6.9129437e-18
-2.5288258e-31
7.6099187e-18
-7.952867e-18
-8.2922084e-18
1.7255557e-17
8.9593955e-18
-2.78613e-17
-9.6110115e-18
2.9793342e-17
-1.0247425e-17
-1.0560073e-17
-6.1784181e-33
-1.1174799e-17
3.4430844e-17
-8.2332592e-31
-2.4142207e-17
2.4726409e-17
1.2652029e-17
-1.293759e-17
1.321992e-17
-1.3499009e-17
-2.7549619e-17
1.4047216e-17
4.9437112e-31
1.4581606e-17
2.9687102e-17
-1.5101962e-17
-1.5356788e-17
-1.5607946e-17
-5.5203084e-31
-5.5822814e-31
5.6887105e-31
3.3150596e-17
1.6807761e-17
-1.703644e-17
-3.452266e-17
-1.7482402e-17
-1.7699664e-17
1.2422564e-30
3.6245624e-17
-5.2093474e-33
5.2668302e-33
-8.5615866e-47
1.8924469e-17
-1.3256546e-30
2.6883028e-30
1.9487319e-17
-1.9667775e-17
1.9844707e-17
6.9411928e-31
-2.0188141e-17
2.0354725e-17
-2.915777e-33
-2.0677908e-17
0
2.0988076e-17
1.4629189e-30
-4.2570994e-17
2.1429571e-17
-6.1307477e-33
-2.1708769e-17
2.1843989e-17
-2.1976347e-17
2.2105916e-17
-9.2635388e-30
-6.2016952e-30
2.2478271e-17
-4.5194181e-17
0
-1.5830368e-30
-4.7722725e-30
2.3047403e-17
2.3153999e-17
1.6030212e-30
-2.3360197e-17
2.3459836e-17
1.6202769e-30
1.0083606e-32
3.2900549e-30
-4.7672426e-17
2.3925011e-17
2.4011791e-17
-1.6573753e-30
1.6665088e-30
-5.0438334e-30
1.6809882e-30
-2.4416453e-17
0
0
0
0
-2.4776247e-17
5.1792002e-30
2.4909312e-17
2.4973756e-17
-2.5036873e-17
-2.5098702e-17
5.0318635e-17
1.7453082e-30
-5.2480088e-30
-2.5333942e-17
-2.5389905e-17
2.544486e-17
0
2.5551821e-17
1.7719644e-30
-2.5655007e-17
-2.5705231e-17
3.5867444e-30
2.5803047e-17
-5.1701334e-17
2.5897433e-17
2.5943327e-17
-2.5988409e-17
2.6032726e-17
0
0
0
2.6202963e-17
-2.6243694e-17
-5.2567457e-17
2.6323137e-17
-1.8319208e-30
2.6400191e-17
2.6437819e-17
-5.2949682e-17
7.5349636e-33
-7.5451816e-33
2.6582745e-17
2.6617797e-17
-5.3304751e-17
3.7923711e-33
-5.5666018e-30
2.6752988e-17
-1.4875613e-29
-3.7195448e-30
2.6849192e-17
-2.6880293e-17
0
-2.6940914e-17
2.6970449e-17
2.6999501e-17
-2.7028066e-17
0
-2.7083541e-17
2.7110338e-17
2.7136503e-17
-9.4298937e-30
-5.4374282e-17
-5.4423345e-17
8.1706879e-17
5.4517855e-17
0
-5.460704e-17
-2.732492e-17
2.7345802e-17
2.7366166e-17
2.7385945e-17
-5.4810145e-17
-5.4847084e-17
2.7441406e-17
5.491748e-17
7.6216168e-30
-5.4983921e-17
2.7507776e-17
-3.817382e-30
-2.7537611e-17
5.5103401e-17
-2.7565334e-17
3.8407669e-30
2.7591389e-17
-2.7603752e-17
2.7615617e-17
-5.5254004e-17
1.153141e-29
5.529722e-17
-5.5317937e-17
-1.9148875e-30
2.7678781e-17
0
0
2.7706024e-17
-2.7714635e-17
-5.5446173e-17
2.7731363e-17
-7.8840218e-33
2.7747301e-17
2.7754984e-17
-2.7762515e-17
0
-2.777716e-17
-2.7784275e-17
0
5.5596231e-17
2.7804822e-17
-5.562268e-17
1.9251719e-30
-7.9079836e-33
2.7829666e-17
2.783543e-17
-2.7841022e-17
2.7846383e-17
-2.7851455e-17
1.5834425e-32
5.5721369e-17
-2.786489e-17
-2.7868846e-17
-2.787254e-17
-3.8663352e-30
2.7879008e-17
0
0
-2.7886216e-17
3.8719703e-30
-7.7403891e-30
-3.8763053e-30
2.7891576e-17
-2.7892183e-17
3.9637591e-33
2.7892462e-17
0
0
0
0
0
0
0
-2.7883995e-17
0
2.7880097e-17
0
-2.7875743e-17
-7.7319743e-30
2.7871027e-17
0
0
-2.7863441e-17
-3.8682033e-30
2.7858295e-17
0
0
-2.7850892e-17
-2.7848557e-17
2.7846284e-17
2.7844061e-17
0
-2.783975e-17
3.9559737e-33
2.7835728e-17
-2.7833881e-17
-2.7832147e-17
2.783051e-17
2.7828943e-17
0
-2.7825943e-17
-2.7824494e-17
2.7823081e-17
2.7821711e-17
0
-2.781909e-17
-2.7817805e-17
2.7816498e-17
2.7815148e-17
0
0
0
0
0
0
0
0
-2.7799938e-17
2.9433635e-50
2.7795427e-17
0
0
0
-2.7784838e-17
-3.8532933e-30
2.7778858e-17
-2.7775689e-17
3.8559221e-30
-3.9462146e-33
-3.8549684e-30
2.7761972e-17
-2.7758329e-17
2.7754617e-17
-1.5419605e-29
-2.7747041e-17
2.7743206e-17
0
0
-2.7731572e-17
-3.8497109e-30
2.7723783e-17
-2.7719938e-17
-2.7716152e-17
0
2.7708773e-17
2.7705179e-17
-2.7701653e-17
-7.6873042e-30
2.054814e-49
-3.8447019e-30
2.7688439e-17
-2.7685393e-17
-4.9948917e-49
-3.8430375e-30
-2.7676857e-17
0
0
2.7669226e-17
3.931701e-33
-1.1511085e-29
2.7662466e-17
0
0
-2.7656311e-17
7.667279e-30
2.7652484e-17
0
0
0
-2.7645117e-17
3.9283404e-33
2.7641336e-17
-2.7639409e-17
2.7637447e-17
-7.6816648e-30
-5.5266712e-17
2.76312e-17
1.1508021e-29
3.8356867e-30
-3.835356e-30
-2.7621814e-17
0
0
2.7613788e-17
3.8334943e-30
-7.662222e-30
4.6186423e-50
-2.760145e-17
2.7598115e-17
2.7594682e-17
0
-2.7587495e-17
-3.8297279e-30
2.7579884e-17
0
0
-2.756778e-17
7.8340429e-33
9.9525889e-50
-2.7554992e-17
2.7550596e-17
-3.816679e-30
3.8238842e-30
-7.6425995e-30
-2.7532592e-17
2.7528048e-17
-7.642729e-30
7.6453777e-30
-7.6441173e-30
-2.7509904e-17
2.7505422e-17
-7.6364775e-30
3.8254463e-30
0
-2.7488055e-17
2.7483884e-17
-3.815297e-30
3.9045491e-33
-3.8142078e-30
3.8175907e-30
2.7464571e-17
-2.7461044e-17
-2.7457629e-17
2.7454334e-17
2.745117e-17
0
-2.7445251e-17
-2.7442486e-17
0
2.7437296e-17
-3.809058e-30
3.8983991e-33
3.8045308e-30
-2.742822e-17
2.7426184e-17
3.8036813e-30
-7.6146227e-30
-2.7420411e-17
-2.7418592e-17
5.4833647e-17
-3.8959184e-33
3.802177e-30
2.7411625e-17
-2.7409864e-17
3.8053392e-30
2.7406277e-17
0
0
0
-2.7398667e-17
-2.7396583e-17
2.7394416e-17
2.7392174e-17
0
-2.7387461e-17
-2.7384973e-17
2.7382389e-17
2.7379709e-17
0
-2.7374077e-17
-2.7371135e-17
2.736811e-17
7.598717e-30
-2.7361819e-17
0
0
0
0
2.7344938e-17
-7.5843965e-30
-2.7337863e-17
2.7334285e-17
3.7945944e-30
-3.7979772e-30
6.8508824e-50
2.7319879e-17
2.7316296e-17
-5.4625477e-17
-3.7916127e-30
3.7872487e-30
-2.7302293e-17
0
2.7295569e-17
2.7292289e-17
-2.7289071e-17
-7.5690015e-30
2.7282839e-17
0
0
-2.7274062e-17
3.7824725e-30
2.7268605e-17
0
-2.7263437e-17
3.874014e-33
-7.5691501e-30
-3.7803739e-30
2.7253868e-17
-2.7251633e-17
3.8723796e-33
-7.5660345e-30
-2.724519e-17
2.7243099e-17
7.5642919e-30
3.8708925e-33
-3.7815812e-30
-2.7234953e-17
2.7232944e-17
0
-1.5117967e-29
-3.7763023e-30
-1.1328033e-29
-3.8685611e-33
-2.7220419e-17
2.7218226e-17
1.7219246e-50
-3.7783545e-30
7.5560633e-30
-3.7777006e-30
5.4413124e-17
-2.7204046e-17
-2.7201467e-17
-3.7762873e-30
3.7759147e-30
5.4386835e-17
-2.7190636e-17
-2.7187802e-17
3.6109899e-50
0
4.0222117e-50
-2.7176007e-17
2.7172973e-17
4.42402e-50
-3.7679829e-30
-3.8601969e-33
-2.7160599e-17
5.4314936e-17
7.5402174e-30
-2.7151197e-17
3.7653816e-30
-3.7649505e-30
2.7141876e-17
-2.7138814e-17
-1.679968e-49
-1.1305204e-29
7.5372633e-30
-7.5287396e-30
-7.5317933e-30
3.2399119e-50
0
2.7115625e-17
0
0
-2.7107745e-17
-7.526583e-30
2.7102766e-17
0
0
-5.419134e-17
-2.255449e-29
5.4182332e-17
-2.7088976e-17
3.8492695e-33
-3.760443e-30
-2.7082634e-17
0
0
0
-2.707449e-17
-7.5097925e-30
2.7070455e-17
0
0
-2.7064334e-17
3.8457779e-33
2.7060156e-17
0
0
-2.7053668e-17
-7.5039498e-30
-7.514839e-30
7.5103367e-30
2.7044302e-17
-2.7041831e-17
7.5044345e-30
-7.5037156e-30
7.4991351e-30
2.7031318e-17
0
0
-2.702272e-17
-1.0767055e-48
2.7016671e-17
0
0
-2.7007096e-17
-9.3513218e-49
2.7000419e-17
0
0
-2.6990026e-17
-1.1145384e-48
2.698289e-17
0
0
-2.6971946e-17
3.8324197e-33
2.6964559e-17
-2.696086e-17
7.4892986e-30
-7.4882731e-30
7.4834203e-30
2.6946121e-17
0
0
0
0
0
-2.6924695e-17
7.4716697e-30
2.6917854e-17
0
0
0
0
0
0
0
-2.6892902e-17
1.4926032e-29
2.6887312e-17
0
0
0
0
0
0
0
-2.6867478e-17
7.4561284e-30
2.6863069e-17
0
0
-2.6856721e-17
7.460825e-30
2.685266e-17
0
0
0
-2.6844738e-17
-7.4575163e-30
2.6840798e-17
0
0
0
0
0
0
0
-2.6824662e-17
3.8117137e-33
2.6820412e-17
0
0
0
0
0
0
0
-2.6802146e-17
-3.8084704e-33
2.6797276e-17
0
0
0
-2.6787261e-17
1.4871364e-29
2.6782172e-17
0
-2.6777024e-17
-7.438535e-30
2.6771867e-17
0
0
-2.6764176e-17
-2.676163e-17
2.6759101e-17
2.6756588e-17
0
0
0
0
2.6744364e-17
-3.8002674e-33
-5.3479344e-17
-2.6737368e-17
5.3470193e-17
5.3465718e-17
-2.6730655e-17
-2.6728484e-17
0
0
0
0
-2.6718095e-17
-7.4223264e-30
2.6714129e-17
0
0
0
0
0
0
0
0
0
0
0
0
0
0
-2.6685754e-17
1.4819123e-29
2.6681829e-17
0
0
2.66757e-17
-7.4067231e-30
3.7902379e-33
-2.6669239e-17
-2.6667012e-17
-1.4804748e-29
7.4074135e-30
2.6660048e-17
0
0
0
0
0
-2.6644657e-17
1.4792065e-29
2.6639077e-17
0
0
0
0
0
0
0
-2.6614462e-17
1.4771198e-29
2.6607745e-17
0
0
0
0
0
0
0
-2.6579004e-17
2.2130682e-29
2.657142e-17
0
0
0
0
0
0
0
0
-2.6535908e-17
3.7704065e-33
2.6527833e-17
0
0
0
0
-2.6507607e-17
2.6503582e-17
2.6499562e-17
-5.2991103e-17
-7.3561776e-30
2.6487581e-17
0
0
0
0
-2.646812e-17
7.3448519e-30
5.2921079e-17
-2.6456806e-17
-2.6453117e-17
2.6449475e-17
0
0
0
-2.6435347e-17
-7.3321073e-30
2.6428578e-17
2.6425302e-17
-2.6422066e-17
-2.6418845e-17
2.6415659e-17
0
0
-2.6406716e-17
-2.640381e-17
2.6400842e-17
2.6397882e-17
2.6395077e-17
1.4657363e-29
-2.6390261e-17
0
0
0
-2.6379002e-17
-2.6376946e-17
2.6375686e-17
2.6374202e-17
2.6371345e-17
7.3180217e-30
-2.6364182e-17
0
0
0
-2.6360294e-17
7.3157528e-30
2.6357055e-17
0
0
0
0
0
0
0
-2.6335981e-17
7.3086458e-30
5.2665418e-17
7.3118713e-30
-2.6331012e-17
0
0
-2.6324267e-17
3.7405192e-33
-7.3082272e-30
7.3038034e-30
2.631433e-17
2.6312709e-17
-7.3061315e-30
-2.6309602e-17
0
0
-2.630109e-17
2.1900367e-29
7.298362e-30
-3.7367437e-33
2.6292574e-17
-2.6289507e-17
-2.628641e-17
5.2567579e-17
-1.4580782e-29
-2.6279218e-17
2.6276661e-17
0
-2.627109e-17
-7.2977413e-30
2.6263855e-17
0
-2.6257364e-17
2.6255379e-17
-2.9152582e-29
-2.6249848e-17
2.6245441e-17
0
-2.6237567e-17
0
2.6231591e-17
0
-2.6224116e-17
2.6220245e-17
-1.4544849e-29
-2.6213683e-17
2.6210587e-17
0
-2.6202913e-17
-7.2748516e-30
2.6194837e-17
0
-2.6188561e-17
2.6185221e-17
-7.4409824e-33
-2.6175354e-17
2.617069e-17
0
-2.6165015e-17
-2.6162401e-17
2.6157455e-17
2.6151143e-17
-2.614555e-17
2.6141847e-17
2.6140247e-17
-2.6138652e-17
0
0
0
0
0
0
-2.6108713e-17
-1.5076421e-49
5.219739e-17
-2.6093908e-17
-2.6089885e-17
2.6086421e-17
0
0
-2.6073171e-17
-2.6068283e-17
2.6064182e-17
2.6061073e-17
0
-2.605339e-17
-7.2366315e-30
2.6042096e-17
0
0
-2.6032254e-17
-2.6028832e-17
2.6024308e-17
2.6019371e-17
0
-2.6010187e-17
7.2211532e-30
2.6000246e-17
-2.5995693e-17
-1.4434902e-29
-3.6932718e-33
-2.5985991e-17
2.5981774e-17
2.5977274e-17
0
0
-2.5964998e-17
7.2049823e-30
2.5955799e-17
0
-2.5948113e-17
-2.5944585e-17
2.5941048e-17
2.5937436e-17
0
0
0
0
0
0
-2.5910385e-17
7.1902604e-30
2.5903895e-17
0
0
0
0
0
0
-2.5877734e-17
4.9828058e-50
2.5874549e-17
2.5871396e-17
7.1755284e-30
-2.5863629e-17
0
0
0
0
-2.5848277e-17
-7.173352e-30
2.5844152e-17
-2.5841701e-17
-2.5839101e-17
2.5836195e-17
-1.4339165e-29
-2.1509514e-29
-2.1499825e-29
7.174646e-30
-1.434139e-29
7.1666608e-30
2.5819757e-17
0
-2.5814801e-17
2.1491771e-29
-3.6677351e-33
-2.5806045e-17
2.5803304e-17
2.5801655e-17
-2.5801238e-17
7.1607157e-30
-2.1473266e-29
-1.4322424e-29
-1.4309713e-29
7.1541264e-30
-1.4314382e-29
-2.5786239e-17
2.5784429e-17
2.578266e-17
-2.5780887e-17
7.1510101e-30
-2.8616566e-29
-7.1535786e-30
7.1566626e-30
7.1487455e-30
7.1518084e-30
-2.5766627e-17
0
2.5762586e-17
-7.1495145e-30
-7.4995951e-50
2.5755837e-17
0
-2.5751772e-17
2.5749904e-17
2.5747397e-17
-2.5744163e-17
0
0
0
0
-2.5734842e-17
7.1414575e-30
-1.4284468e-29
2.5724277e-17
2.5721383e-17
-2.5718796e-17
0
0
0
0
-2.5705991e-17
-3.6526401e-33
2.5700149e-17
0
0
0
0
0
0
0
-2.5674737e-17
-2.5672848e-17
2.5670803e-17
2.5667366e-17
0
0
0
0
0
0
-2.5640953e-17
-2.5637556e-17
2.5634105e-17
2.5630626e-17
0
0
0
0
0
0
-2.5604549e-17
-2.5599846e-17
2.5595637e-17
2.5592387e-17
0
0
0
0
0
0
-2.5564856e-17
1.4192012e-29
2.5557102e-17
0
0
0
0
0
0
-2.553019e-17
7.0877792e-30
2.5520355e-17
0
0
0
0
-2.5501603e-17
-3.6234655e-33
2.5494106e-17
-2.5490297e-17
-9.3437223e-50
2.548266e-17
-2.5478849e-17
1.4147835e-29
2.54713e-17
-2.546755e-17
-1.4137963e-29
-1.4135887e-29
-1.4199791e-48
-1.4128157e-29
-7.059436e-30
2.5445253e-17
-2.5441616e-17
-2.5438161e-17
5.086991e-17
-1.4109346e-29
-5.0856721e-17
0
2.5420884e-17
-7.0578971e-30
-7.0606109e-30
-2.1153962e-29
-2.1154937e-29
-1.4094257e-29
2.1149495e-29
-1.4094291e-29
7.0553117e-30
2.5392026e-17
0
-2.5385977e-17
-3.607137e-33
-2.1128144e-29
-2.1129332e-29
3.6058978e-33
1.4083076e-29
-7.0443726e-30
-2.5365902e-17
0
2.5360419e-17
-1.4075533e-29
-3.60324e-33
2.5353144e-17
0
-2.5346917e-17
2.5344194e-17
2.5342529e-17
-2.5341268e-17
0
0
-2.5332666e-17
2.8123636e-29
-1.4051547e-29
1.406118e-29
-7.0354508e-30
2.5321753e-17
2.53197e-17
-2.5317243e-17
0
0
0
0
-2.5307734e-17
-7.0266436e-30
-2.8089289e-29
2.5299996e-17
2.5298009e-17
-2.5296122e-17
0
0
0
0
-2.5285686e-17
-2.5284314e-17
2.5283147e-17
2.5281164e-17
0
0
0
0
0
0
-2.5265055e-17
-2.5262871e-17
2.5260148e-17
2.525758e-17
0
0
0
0
0
0
-2.524086e-17
2.1017594e-29
5.047272e-17
-2.5234231e-17
-7.5695533e-17
-2.5228853e-17
0
5.0446694e-17
-2.8007342e-29
-8.398692e-29
-2.5216448e-17
-5.0425047e-17
5.0418342e-17
-2.5206394e-17
-2.5203755e-17
2.5201123e-17
-2.5198504e-17
3.5805345e-33
2.5192702e-17
2.5189424e-17
-2.5186391e-17
-2.518393e-17
2.5181414e-17
-2.5178168e-17
-3.5775049e-33
2.5170704e-17
0
0
0
5.0316169e-17
-2.5155677e-17
-5.0303756e-17
2.5147517e-17
-2.5143344e-17
-2.5139569e-17
5.027244e-17
4.9733453e-51
-2.5131159e-17
2.5127194e-17
5.0245224e-17
2.5118372e-17
-7.5344076e-17
2.5111199e-17
7.0369757e-48
-7.5313775e-17
5.0201807e-17
2.5096837e-17
2.5092673e-17
5.0176946e-17
-5.0168405e-17
-2.5080262e-17
-2.507714e-17
2.5073874e-17
2.5069447e-17
-7.5193375e-17
2.5059812e-17
2.5055697e-17
-2.5051771e-17
-2.50482e-17
-3.5590619e-33
7.5121317e-17
-2.5035628e-17
4.1675197e-29
-4.1682406e-29
-7.5067742e-17
2.5018444e-17
2.5014662e-17
5.0021362e-17
-2.5006134e-17
-5.0002956e-17
4.9993761e-17
-2.4992244e-17
2.4987823e-17
2.498414e-17
-7.4942218e-17
2.4976293e-17
2.4970836e-17
-4.9931607e-17
-2.4961555e-17
2.4957454e-17
7.4860422e-17
-2.4949747e-17
-9.9782664e-17
1.3844156e-29
4.9872798e-17
2.4932027e-17
0
4.9846722e-17
5.5321874e-29
-7.4748069e-17
2.4911824e-17
-5.5300572e-29
2.4901882e-17
2.4897688e-17
-4.978804e-17
0
0
0
-2.4877497e-17
1.3810372e-29
4.974076e-17
-2.4866621e-17
-4.972477e-17
7.4575064e-17
-8.2778022e-29
-4.9702631e-17
2.4847475e-17
0
0
0
4.9667002e-17
-2.4829847e-17
-4.9652332e-17
7.4468349e-17
-7.0542075e-33
-4.963365e-17
0
0
-2.4807019e-17
1.3771733e-29
4.9603112e-17
-2.4798711e-17
-4.9590965e-17
7.4377039e-17
-4.1273395e-29
-4.9574923e-17
2.4784983e-17
-2.4781742e-17
4.955706e-17
2.4776006e-17
-8.2503026e-29
-2.4772352e-17
-4.953781e-17
7.4296419e-17
-1.4076207e-32
-2.4762023e-17
1.3743962e-29
-2.475735e-17
-2.4754095e-17
1.373922e-29
7.4252633e-17
-7.03426e-33
-7.4241419e-17
4.9488945e-17
1.1773481e-49
-4.9482554e-17
2.473987e-17
-2.473786e-17
4.947178e-17
2.4734309e-17
-5.4920951e-29
-2.4730856e-17
-4.9458719e-17
-2.4727787e-17
-2.4725844e-17
7.4171847e-17
0
-2.4720817e-17
-1.3720955e-29
1.3720031e-29
-1.3715667e-29
2.4714175e-17
-2.7434407e-29
2.471056e-17
-8.2292229e-29
-7.4121811e-17
4.9410703e-17
7.4110815e-17
2.4702018e-17
-7.4100701e-17
-4.9396586e-17
7.4089743e-17
-2.469498e-17
-7.4079365e-17
0
0
2.4687905e-17
2.4685961e-17
0
-2.4682253e-17
-2.4680704e-17
4.9357174e-17
-5.4788928e-29
-7.4024178e-17
2.739111e-29
2.4670903e-17
2.4668175e-17
2.4666486e-17
-2.4665185e-17
-2.4662748e-17
2.4659777e-17
7.3973667e-17
-2.4656537e-17
-9.8616482e-17
2.4651072e-17
4.9297755e-17
2.4647164e-17
0
-2.4642028e-17
0
-2.4637479e-17
2.4634933e-17
-5.4690877e-29
2.4629618e-17
-8.2019711e-29
-7.3873377e-17
2.4621647e-17
2.4619023e-17
-2.4616414e-17
-2.4613607e-17
2.4610789e-17
7.3824377e-17
-2.4605414e-17
-9.8410152e-17
4.0971097e-29
2.4596986e-17
4.9188353e-17
2.4591202e-17
-4.9176576e-17
-1.3646824e-29
-3.4933956e-33
2.4579473e-17
-5.4567204e-29
-2.4573606e-17
7.3711729e-17
-2.7273448e-29
-4.9128375e-17
0
0
-2.455472e-17
1.3627943e-29
4.9097178e-17
-2.4545357e-17
-4.9083388e-17
-2.4538361e-17
2.7231225e-29
7.3596682e-17
2.4528211e-17
-2.4524763e-17
4.9044378e-17
-1.3937351e-32
-8.1651584e-29
-2.4510994e-17
-4.9015885e-17
7.3514394e-17
-2.720739e-29
-4.8996441e-17
0
0
4.8976099e-17
-5.4363017e-29
-2.7170492e-29
-6.9570182e-33
-7.3422671e-17
-4.8940083e-17
4.0749403e-29
7.3390194e-17
2.4460088e-17
-2.4456776e-17
4.8906711e-17
2.7136098e-29
-8.1410604e-29
-2.4442933e-17
-4.8878817e-17
7.33076e-17
-2.4432431e-17
-2.4428843e-17
2.4425225e-17
-2.4421988e-17
4.8836584e-17
-2.710337e-29
-2.4410502e-17
-3.4684552e-33
-4.8807e-17
4.8799971e-17
-4.0618703e-29
-4.8785664e-17
2.4389258e-17
0
-2.4382121e-17
-1.3528482e-29
7.3125132e-17
-2.4371485e-17
-4.8735829e-17
-2.436445e-17
-2.4360865e-17
2.4357251e-17
2.4353925e-17
2.4350308e-17
-2.43463e-17
1.3512027e-29
-1.3506692e-29
2.4335827e-17
-2.7019505e-29
2.4328799e-17
-8.1014055e-29
-7.2964915e-17
4.8636184e-17
7.3683795e-49
-2.4310909e-17
-2.6981406e-29
1.3493887e-29
7.2900416e-17
-2.4296603e-17
-7.2879012e-17
0
0
2.428216e-17
2.4278482e-17
4.8549734e-17
-2.42713e-17
-4.8535387e-17
4.8528161e-17
-2.4260467e-17
-7.2770472e-17
2.4253178e-17
2.4249544e-17
2.4245882e-17
2.4242203e-17
-4.8477083e-17
-2.4234854e-17
2.4231136e-17
7.2682394e-17
-2.4223733e-17
-1.1630255e-47
-4.0318419e-29
-4.8424703e-17
4.841715e-17
4.8409535e-17
-2.420093e-17
-4.8394112e-17
4.8386317e-17
2.4189236e-17
-7.2555835e-17
-7.2543859e-17
2.4177266e-17
4.8346415e-17
2.416911e-17
-1.3413402e-29
-4.8321653e-17
-2.4156639e-17
2.4152437e-17
4.8296432e-17
-3.4310636e-33
-4.8279375e-17
4.8270744e-17
-4.0190474e-29
-4.8253163e-17
2.4122134e-17
4.8235349e-17
4.822641e-17
0
-2.4104103e-17
-7.2298212e-17
-2.4094632e-17
2.4089872e-17
0
0
0
0
-2.4066798e-17
1.33565e-29
7.2175433e-17
-2.4054728e-17
-7.2153315e-17
-2.4047581e-17
4.0046135e-29
4.8083534e-17
2.4040196e-17
-2.4039618e-17
4.8079009e-17
2.4039077e-17
-8.0065215e-29
-2.403893e-17
-4.808481e-17
7.2181629e-17
-6.8373858e-33
-2.4032226e-17
3.4146371e-33
-2.4031254e-17
-2.4033586e-17
2.6682393e-29
7.2105983e-17
-6.8311586e-33
-7.2102094e-17
-4.8064997e-17
1.3331911e-29
4.8056064e-17
2.4025222e-17
-2.4022099e-17
4.8037427e-17
2.4015108e-17
-7.9961824e-29
-2.4007388e-17
-4.8006674e-17
7.1997573e-17
-2.6644883e-29
-2.3990696e-17
-2.3986386e-17
-2.3982057e-17
-1.330264e-29
1.3303639e-29
4.7938088e-17
1.3298837e-29
-4.7920848e-17
4.7912294e-17
-1.1966291e-28
-7.1843016e-17
4.7886957e-17
-2.6583083e-29
-4.7870371e-17
2.3931088e-17
2.3927022e-17
4.7845976e-17
-2.3918986e-17
-7.1745046e-17
0
0
0
7.169831e-17
7.1686835e-17
-7.1675436e-17
-7.1664112e-17
4.7768573e-17
-6.787263e-33
2.3876853e-17
-7.9522107e-29
-7.1608511e-17
7.1597568e-17
-1.1922849e-28
-4.771723e-17
-1.3237959e-29
1.3242751e-29
4.7695748e-17
-2.384432e-17
2.384078e-17
-7.9402469e-29
-7.1501207e-17
7.1490688e-17
2.3826735e-17
-5.2894856e-29
4.7639546e-17
-4.7632607e-17
-2.3812843e-17
-2.380939e-17
-7.1417837e-17
2.64244e-29
2.3799075e-17
7.1386943e-17
-1.5847792e-28
-7.1366433e-17
0
2.3781997e-17
4.7557191e-17
-2.3775198e-17
2.3771807e-17
-7.9159678e-29
-4.7530076e-17
7.1284968e-17
-5.2743841e-29
-2.6385052e-29
-2.6367808e-29
-2.6364073e-29
2.3744803e-17
-7.1224322e-17
-7.1214239e-17
2.3734721e-17
4.7462733e-17
0
-2.372467e-17
2.6327533e-29
-5.2661125e-29
2.632685e-29
2.3711295e-17
-2.3707958e-17
-2.3704624e-17
7.1103879e-17
9.0845384e-48
-3.9463695e-29
2.3691302e-17
-2.628379e-29
4.7369314e-17
-4.7362673e-17
-4.735603e-17
-2.3674694e-17
2.6275463e-29
2.3668066e-17
0
0
0
4.7309653e-17
-2.3651522e-17
-4.7296442e-17
7.0934763e-17
-2.3641619e-17
-7.0914953e-17
7.0905059e-17
-7.8704426e-29
-4.7256875e-17
7.087544e-17
4.7243709e-17
0
-4.7230552e-17
-7.8631991e-29
-2.3608711e-17
-4.7210855e-17
2.3602144e-17
0
4.7191182e-17
6.7053402e-33
2.6187425e-29
-2.3585771e-17
-7.0747501e-17
7.0737707e-17
-3.9279473e-29
-7.0718131e-17
7.0708334e-17
-1.1774928e-28
-4.712584e-17
2.3559667e-17
-2.3556418e-17
4.7106339e-17
2.3549919e-17
-1.0456152e-28
-2.354342e-17
-4.7080352e-17
-2.3536939e-17
-2.3533705e-17
4.7060944e-17
2.3527238e-17
0
-2.3520776e-17
1.3057371e-29
3.1917069e-49
2.3511122e-17
-6.6813489e-33
2.3504691e-17
3.8188943e-48
-7.0494826e-17
7.0485234e-17
7.0475652e-17
-4.6977379e-17
-4.6970989e-17
0
4.6958246e-17
-2.3475949e-17
-7.0418336e-17
7.0408826e-17
-3.9083641e-29
-4.692655e-17
2.3460119e-17
0
-2.3453825e-17
-2.3450682e-17
2.3447541e-17
-3.904028e-29
4.6882559e-17
1.3323052e-32
-7.0305141e-17
0
7.028648e-17
4.6851447e-17
-7.0267885e-17
-4.6839085e-17
7.0249388e-17
2.3413387e-17
-9.3641256e-17
-2.3407246e-17
4.6808372e-17
4.6802269e-17
-2.5975437e-29
-2.3395053e-17
-2.339202e-17
-2.3388992e-17
2.3385971e-17
-2.5958637e-29
4.6759906e-17
-7.7855917e-29
-7.0121886e-17
0
0
4.6730048e-17
-5.1877516e-29
-2.3359104e-17
7.0068462e-17
-2.3353211e-17
-3.8876894e-29
-7.7757311e-29
-7.0033281e-17
2.3341513e-17
-1.2951383e-29
2.5906182e-29
2.3332818e-17
-2.3329936e-17
3.3149745e-33
-1.2946698e-29
2.5886905e-29
2.3318476e-17
0
-2.3312792e-17
4.6619923e-17
2.3307141e-17
-4.660866e-17
0
2.3298725e-17
-2.3295929e-17
-4.6586282e-17
6.9871093e-17
-7.7571559e-29
-7.7549143e-29
2.3282093e-17
-6.9838045e-17
3.3078051e-33
2.3273878e-17
2.3271155e-17
-2.326844e-17
-2.3265735e-17
2.3263038e-17
0
-2.3257666e-17
4.6509982e-17
-3.8727029e-29
-2.3249664e-17
-5.1622037e-29
-5.1602949e-29
-6.6056964e-33
-4.6478199e-17
6.9709435e-17
6.9701595e-17
0
-4.645732e-17
-6.9678205e-17
-3.3002557e-33
2.3220908e-17
2.3218338e-17
-2.3215775e-17
-2.3213221e-17
2.3210675e-17
0
4.6411205e-17
4.6406151e-17
-6.960167e-17
-2.3198047e-17
2.3195544e-17
-6.5918604e-33
-2.3190555e-17
-4.6376138e-17
-2.3185592e-17
3.8611774e-29
9.2722652e-17
-7.7193997e-29
-6.9527268e-17
2.317331e-17
2.3170871e-17
2.3168442e-17
-2.316602e-17
-2.3163604e-17
-2.3161192e-17
-6.5821226e-33
2.3156384e-17
-2.315399e-17
6.9454811e-17
4.6298447e-17
-6.9440545e-17
2.3144478e-17
4.6284224e-17
-4.6279506e-17
2.3137401e-17
-2.3135055e-17
-4.6265427e-17
6.9391125e-17
-2.3128041e-17
7.703231e-29
6.9370174e-17
-4.6242156e-17
-2.3118769e-17
-2.3116462e-17
-4.6228316e-17
2.3111858e-17
-1.1487198e-73
4.621455e-17
2.3104993e-17
-2.5647525e-29
-2.3100441e-17
-4.6196337e-17
4.6191799e-17
-2.3093634e-17
-6.9274123e-17
6.9267359e-17
2.3086869e-17
-3.9079652e-48
2.3082375e-17
-6.9240397e-17
-2.3077894e-17
2.307566e-17
4.6146858e-17
-2.3071201e-17
2.3068974e-17
-7.6822794e-29
-4.6129058e-17
6.9186936e-17
2.561332e-29
-1.0240413e-28
5.1184049e-29
-4.6106929e-17
4.610252e-17
-2.3049058e-17
-9.2187425e-17
2.3044654e-17
4.6084908e-17
0
4.6076125e-17
-5.1146633e-29
-1.309313e-32
-2.5568449e-29
-2.3029294e-17
-2.3027105e-17
2.3024919e-17
2.3022733e-17
-4.6041094e-17
4.6036719e-17
-2.5551449e-29
-4.6027973e-17
4.6023603e-17
7.6632512e-29
-2.5541744e-29
-2.3005244e-17
-4.6006118e-17
2.3000875e-17
-2.299869e-17
1.2764806e-29
2.2994312e-17
4.5984241e-17
-2.2989931e-17
-4.5975486e-17
2.2985554e-17
-2.2983362e-17
3.8275409e-29
-2.2978964e-17
-5.1028458e-29
4.5949123e-17
4.5944722e-17
5.0994206e-29
-7.6500287e-29
7.6492929e-29
-2.2963532e-17
-2.2961314e-17
-2.2959095e-17
2.2956874e-17
0
0
-2.2950196e-17
1.2737862e-29
3.2607834e-33
2.5470751e-29
2.2941236e-17
0
-2.2936733e-17
-4.5868951e-17
2.2932214e-17
4.5859894e-17
4.585535e-17
4.5850796e-17
-6.876935e-17
-7.6336817e-29
6.8755621e-17
-4.5832489e-17
-4.5827883e-17
0
-2.290932e-17
4.5814004e-17
2.2904679e-17
-4.5804697e-17
-2.2900011e-17
2.5419889e-29
6.868595e-17
-2.2892962e-17
-6.8671803e-17
6.86647e-17
2.2885858e-17
-6.8650428e-17
2.5398233e-29
2.2878692e-17
4.5752577e-17
2.5386979e-29
-4.5742921e-17
4.5738073e-17
-2.2866606e-17
-6.8592501e-17
0
2.2859263e-17
4.5713602e-17
-1.2692386e-29
2.2851856e-17
4.569874e-17
-4.5693749e-17
-4.5688741e-17
0
-2.2839343e-17
-2.535234e-29
-2.5352772e-29
-2.5346704e-29
6.8487568e-17
4.5653255e-17
0
-4.5642969e-17
-5.0658412e-29
-2.281631e-17
-6.8441121e-17
2.2811095e-17
-1.2657195e-29
3.2409057e-33
2.2803212e-17
4.560114e-17
-2.2797918e-17
-4.5590512e-17
2.2792585e-17
0
4.5574441e-17
-2.2784527e-17
-6.8345471e-17
2.2779111e-17
2.277639e-17
4.5547325e-17
-2.2770929e-17
-6.8304564e-17
2.2765439e-17
-2.5266798e-29
-4.5519818e-17
2.2757129e-17
2.2754344e-17
4.550311e-17
6.8246281e-17
-4.5491916e-17
-4.5486292e-17
4.5480651e-17
2.5235613e-29
-4.5469317e-17
4.5463631e-17
2.5232608e-29
-4.5452229e-17
0
4.5440772e-17
4.5435021e-17
0
-6.8135209e-17
-2.270884e-17
-6.4534162e-33
-2.2703034e-17
-2.2700123e-17
-2.5190895e-29
4.5388556e-17
4.5382691e-17
-7.556274e-29
-4.537093e-17
4.5365039e-17
7.5533301e-29
-4.535322e-17
0
0
0
0
4.5323468e-17
2.5161092e-29
-4.5311507e-17
-2.2652754e-17
4.5299496e-17
-7.5436834e-29
-4.5287447e-17
4.5281412e-17
2.5137704e-29
-2.2634658e-17
4.5263254e-17
-7.537639e-29
-4.5251103e-17
4.5245013e-17
4.5238915e-17
-4.5232811e-17
-4.52267e-17
0
0
0
0
-2.259801e-17
2.259493e-17
2.2591848e-17
-2.5076959e-29
-1.0895899e-73
-2.2582581e-17
-4.5158968e-17
-2.2576383e-17
4.5146557e-17
6.7710516e-17
-2.2567064e-17
-4.5127906e-17
6.7682517e-17
4.5115442e-17
-6.7663799e-17
-4.5102952e-17
-2.254835e-17
-2.5028623e-29
4.5084181e-17
0
-2.2535819e-17
2.2532682e-17
-5.0022435e-29
-6.4023892e-33
-7.5006328e-29
-2.2520114e-17
-2.2516962e-17
6.3988097e-33
4.5021318e-17
4.5015017e-17
-7.4943372e-29
-4.5002406e-17
0
0
0
-2.2488565e-17
-2.2485404e-17
2.2482243e-17
2.2479081e-17
-2.2475918e-17
4.494551e-17
6.7408773e-17
0
-4.4926519e-17
-2.4927733e-29
-2.2456928e-17
-6.7361289e-17
2.2450599e-17
-3.7380095e-29
4.4888539e-17
-1.4949097e-28
-4.4875878e-17
-1.2453004e-29
-3.1877236e-33
2.2428449e-17
-2.2425287e-17
4.484425e-17
2.2418963e-17
-4.4831604e-17
4.4825285e-17
6.3691585e-33
-2.4880797e-29
-2.2403171e-17
-6.7200043e-17
4.4793714e-17
1.6921979e-49
2.2390547e-17
-3.728648e-29
-4.476849e-17
2.2381094e-17
4.4755882e-17
-2.4833056e-29
-6.7114911e-17
6.3575067e-33
2.236534e-17
-2.2362192e-17
4.4718084e-17
2.235589e-17
-4.4705473e-17
4.4699168e-17
2.4801585e-29
-1.2402854e-28
4.9608224e-29
-4.4673943e-17
4.466762e-17
-2.2330646e-17
-4.4654961e-17
2.2324314e-17
-2.2321145e-17
4.4635944e-17
-3.7165559e-29
-6.6934818e-17
0
0
6.690604e-17
2.2298805e-17
-4.4591177e-17
4.4584721e-17
1.2669899e-32
-9.8962819e-29
-2.4737087e-29
-4.4558689e-17
4.4552129e-17
4.454554e-17
-2.2269459e-17
-6.6798392e-17
-2.2262785e-17
2.2259423e-17
0
0
-2.2249225e-17
1.2348099e-29
6.6726935e-17
6.3206519e-33
-4.4470593e-17
-2.2231748e-17
2.4670329e-29
6.6673679e-17
4.9337185e-29
-4.4434471e-17
0
-2.2209767e-17
4.4411946e-17
2.2202135e-17
-4.9293174e-29
-2.219432e-17
-4.4380681e-17
2.2186311e-17
0
0
0
0
-2.2165298e-17
1.2300986e-29
6.6469331e-17
-2.2151909e-17
-6.6441892e-17
6.6427816e-17
2.213783e-17
-4.4265938e-17
-2.2128019e-17
-3.6836657e-29
6.6353519e-17
-1.2569558e-32
-7.3633523e-29
-2.2101802e-17
-4.419247e-17
-2.2090553e-17
-2.4511152e-29
2.2078822e-17
2.2072762e-17
2.2066566e-17
2.2060231e-17
-4.8966028e-29
-4.409424e-17
0
0
-2.2026283e-17
-3.6663518e-29
-3.1280268e-33
3.1269404e-33
2.1996056e-17
4.397606e-17
4.39596e-17
-4.3942719e-17
-2.439442e-29
-2.1953822e-17
-6.5834152e-17
0
0
2.1915964e-17
2.1905869e-17
0
-2.1884873e-17
1.2141709e-29
2.1862757e-17
-2.1851257e-17
4.3678894e-17
-7.2694922e-29
-6.5444596e-17
2.180208e-17
2.1788954e-17
4.3550955e-17
-2.1761637e-17
-6.5242269e-17
2.1732825e-17
-1.2058135e-29
4.3404893e-17
2.1686648e-17
-4.3340851e-17
4.3307537e-17
2.4672403e-47
-4.3238207e-17
0
0
4.3127168e-17
-2.3892724e-29
-7.1697252e-29
3.0039127e-47
-6.4447442e-17
-2.3827868e-29
2.1438684e-17
4.2831867e-17
4.2785191e-17
-4.2737315e-17
-4.7390404e-29
-2.1318931e-17
-7.0927902e-29
2.126666e-17
-4.2479076e-17
0
-2.1183249e-17
2.3478203e-29
2.1124145e-17
4.2187012e-17
2.3376174e-29
-4.2059981e-17
0
0
-2.0928911e-17
1.1597544e-29
6.2572491e-17
2.3113967e-29
-4.1565483e-17
0
2.0704535e-17
-2.0664103e-17
-2.0622768e-17
-2.0580519e-17
-2.0537342e-17
4.0986452e-17
6.1344472e-17
-2.0402123e-17
-4.0710221e-17
6.0921324e-17
1.8618856e-47
-4.0416174e-17
0
0
0
0
3.9884813e-17
3.9772158e-17
-1.9828663e-17
-5.9310443e-17
-2.1892881e-29
1.9649783e-17
-3.9175837e-17
-3.9049845e-17
1.9460787e-17
7.7582012e-17
3.8658125e-17
-5.7784377e-17
-3.8385374e-17
5.7368221e-17
4.2294962e-29
-3.7958612e-17
0
0
0
3.735628e-17
2.0648659e-29
-4.1126078e-29
1.8439653e-17
-5.5073238e-17
1.8274632e-17
1.8190311e-17
-5.4314345e-17
-3.6036094e-17
1.7930109e-17
3.568194e-17
3.5501268e-17
-5.8822903e-29
1.9506346e-29
-4.9659755e-33
-3.4754767e-17
0
-1.7183689e-17
-1.7085098e-17
1.6985354e-17
1.6884464e-17
-1.6782439e-17
-1.6679287e-17
3.3150044e-17
1.6469653e-17
-1.6363191e-17
1.6255648e-17
-1.6147035e-17
-3.2074732e-17
0
0
4.7106528e-17
1.5588435e-17
-3.0947425e-17
-1.5358025e-17
-1.5241391e-17
3.0247656e-17
-1.6666753e-29
-2.9771979e-17
0
1.4644659e-17
4.3568199e-17
3.1968269e-29
-7.9253321e-29
2.8304314e-17