/*--------------------------------*- C++ -*----------------------------------*\
  =========                 |
  \\      /  F ield         | OpenFOAM: The Open Source CFD Toolbox
   \\    /   O peration     | Website:  https://openfoam.org
    \\  /    A nd           | Version:  7
     \\/     M anipulation  |
\*---------------------------------------------------------------------------*/
FoamFile
{
    version     2.0;
    format      ascii;
    class       volScalarField;
    location    "0.00307";
    object      Ux;
}
// * * * * * * * * * * * * * * * * * * * * * * * * * * * * * * * * * * * * * //

dimensions      [0 1 -1 0 0 0 0];

internalField   nonuniform List<scalar> 
5000
(
23.099969
23.099969
23.099968
23.099968
23.099968
23.099967
23.099967
23.099967
23.099967
23.099967
23.099967
23.099966
23.099966
23.099966
23.099966
23.099965
23.099965
23.099965
23.099965
23.099964
23.099964
23.099964
23.099964
23.099964
23.099963
23.099963
23.099963
23.099963
23.099962
23.099962
23.099962
23.099962
23.099961
23.099961
23.099961
23.099961
23.099961
23.09996
23.09996
23.09996
23.09996
23.099959
23.099959
23.099959
23.099959
23.099959
23.099958
23.099958
23.099958
23.099958
23.099957
23.099957
23.099957
23.099957
23.099957
23.099956
23.099956
23.099956
23.099956
23.099955
23.099955
23.099955
23.099955
23.099955
23.099954
23.099954
23.099954
23.099954
23.099954
23.099953
23.099953
23.099953
23.099953
23.099952
23.099952
23.099952
23.099952
23.099952
23.099951
23.099951
23.099951
23.099951
23.099951
23.09995
23.09995
23.09995
23.09995
23.09995
23.099949
23.099949
23.099949
23.099949
23.099948
23.099948
23.099948
23.099948
23.099948
23.099947
23.099947
23.099947
23.099947
23.099947
23.099946
23.099946
23.099946
23.099946
23.099946
23.099945
23.099945
23.099945
23.099945
23.099945
23.099944
23.099944
23.099944
23.099944
23.099944
23.099943
23.099943
23.099943
23.099943
23.099943
23.099942
23.099942
23.099942
23.099942
23.099942
23.099941
23.099941
23.099941
23.099941
23.099941
23.09994
23.09994
23.09994
23.09994
23.09994
23.099939
23.099939
23.099939
23.099939
23.099939
23.099939
23.099938
23.099938
23.099938
23.099938
23.099938
23.099937
23.099937
23.099937
23.099937
23.099937
23.099937
23.099937
23.099938
23.099937
23.099935
23.099935
23.099935
23.099935
23.099935
23.099935
23.099935
23.099934
23.099934
23.099934
23.099934
23.099934
23.099933
23.099933
23.099933
23.099933
23.099933
23.099933
23.099932
23.099932
23.099932
23.099932
23.099932
23.099931
23.099931
23.099931
23.099931
23.099931
23.099931
23.09993
23.09993
23.09993
23.09993
23.09993
23.09993
23.099929
23.099929
23.099929
23.099929
23.099929
23.099928
23.099928
23.099928
23.099928
23.099928
23.099928
23.099927
23.099927
23.099927
23.099927
23.099927
23.099926
23.099926
23.099926
23.099926
23.099926
23.099926
23.099925
23.099925
23.099925
23.099925
23.099925
23.099925
23.099924
23.099924
23.099924
23.099924
23.099924
23.099923
23.099923
23.099923
23.099923
23.099923
23.099923
23.099922
23.099922
23.099922
23.099922
23.099922
23.099922
23.099921
23.099921
23.099921
23.099921
23.099921
23.09992
23.09992
23.09992
23.09992
23.09992
23.09992
23.099919
23.099919
23.099919
23.099919
23.099919
23.099919
23.099918
23.099918
23.099918
23.099918
23.099918
23.099918
23.099917
23.099917
23.099917
23.099917
23.099917
23.099916
23.099916
23.099916
23.099916
23.099916
23.099916
23.099915
23.099915
23.099915
23.099915
23.099915
23.099915
23.099914
23.099914
23.099914
23.099914
23.099914
23.099914
23.099913
23.099913
23.099913
23.099913
23.099913
23.099913
23.099912
23.099912
23.099912
23.099912
23.099912
23.099911
23.099911
23.099911
23.099911
23.099911
23.099911
23.09991
23.09991
23.09991
23.09991
23.09991
23.09991
23.099909
23.099909
23.099909
23.099909
23.099909
23.099909
23.099908
23.099908
23.099908
23.099908
23.099908
23.099908
23.099907
23.099907
23.099907
23.099907
23.099907
23.099907
23.099906
23.099906
23.099906
23.099906
23.099906
23.099906
23.099905
23.099905
23.099905
23.099905
23.099905
23.099904
23.099904
23.099904
23.099904
23.099904
23.099904
23.099904
23.099903
23.099903
23.099903
23.099903
23.099903
23.099903
23.099902
23.099902
23.099902
23.099902
23.099902
23.099902
23.099901
23.099901
23.099901
23.099901
23.099901
23.0999
23.0999
23.0999
23.0999
23.0999
23.0999
23.0999
23.099899
23.099899
23.099899
23.099899
23.099899
23.099899
23.099898
23.099898
23.099898
23.099898
23.099898
23.099898
23.099897
23.099897
23.099897
23.099897
23.099897
23.099897
23.099896
23.099896
23.099896
23.099896
23.099896
23.099896
23.099895
23.099895
23.099895
23.099895
23.099895
23.099895
23.099894
23.099894
23.099894
23.099894
23.099894
23.099894
23.099894
23.099893
23.099893
23.099893
23.099893
23.099893
23.099893
23.099892
23.099892
23.099892
23.099892
23.099892
23.099892
23.099891
23.099891
23.099891
23.099891
23.099891
23.099891
23.099891
23.09989
23.09989
23.09989
23.09989
23.09989
23.09989
23.099889
23.099889
23.099889
23.099889
23.099889
23.099889
23.099889
23.099888
23.099888
23.099888
23.099888
23.099888
23.099888
23.099887
23.099887
23.099887
23.099887
23.099887
23.099887
23.099887
23.099886
23.099886
23.099886
23.099886
23.099886
23.099886
23.099885
23.099885
23.099885
23.099885
23.099885
23.099885
23.099885
23.099884
23.099884
23.099884
23.099884
23.099884
23.099884
23.099883
23.099883
23.099883
23.099883
23.099883
23.099883
23.099883
23.099882
23.099882
23.099882
23.099882
23.099882
23.099882
23.099882
23.099881
23.099881
23.099881
23.099881
23.099881
23.099881
23.099881
23.09988
23.09988
23.09988
23.09988
23.09988
23.09988
23.099879
23.099879
23.099879
23.099879
23.099879
23.099879
23.099879
23.099878
23.099878
23.099878
23.099878
23.099878
23.099878
23.099878
23.099877
23.099877
23.099877
23.099877
23.099877
23.099877
23.099877
23.099876
23.099876
23.099876
23.099876
23.099876
23.099876
23.099876
23.099875
23.099875
23.099875
23.099875
23.099875
23.099875
23.099874
23.099874
23.099874
23.099874
23.099874
23.099874
23.099874
23.099873
23.099873
23.099873
23.099873
23.099873
23.099873
23.099873
23.099872
23.099872
23.099872
23.099872
23.099872
23.099872
23.099872
23.099871
23.099871
23.099871
23.099871
23.099871
23.099871
23.099871
23.09987
23.09987
23.09987
23.09987
23.09987
23.09987
23.09987
23.099869
23.099869
23.099869
23.099869
23.099869
23.099869
23.099869
23.099869
23.099868
23.099868
23.099868
23.099868
23.099868
23.099868
23.099868
23.099867
23.099867
23.099867
23.099867
23.099867
23.099867
23.099867
23.099866
23.099866
23.099866
23.099866
23.099866
23.099866
23.099866
23.099866
23.099865
23.099865
23.099865
23.099865
23.099865
23.099865
23.099865
23.099864
23.099864
23.099864
23.099864
23.099864
23.099864
23.099864
23.099864
23.099863
23.099863
23.099863
23.099863
23.099863
23.099863
23.099863
23.099862
23.099862
23.099862
23.099862
23.099862
23.099862
23.099862
23.099862
23.099862
23.099861
23.099861
23.099861
23.099861
23.099861
23.099861
23.099861
23.099861
23.09986
23.09986
23.09986
23.09986
23.09986
23.09986
23.09986
23.09986
23.099859
23.099859
23.099859
23.099859
23.099859
23.099859
23.099859
23.099859
23.099858
23.099858
23.099858
23.099858
23.099858
23.099858
23.099858
23.099858
23.099857
23.099857
23.099857
23.099857
23.099857
23.099857
23.099857
23.099857
23.099857
23.099856
23.099856
23.099856
23.099856
23.099856
23.099856
23.099856
23.099856
23.099855
23.099855
23.099855
23.099855
23.099855
23.099855
23.099855
23.099855
23.099855
23.099854
23.099854
23.099854
23.099854
23.099854
23.099854
23.099854
23.099854
23.099854
23.099853
23.099853
23.099853
23.099853
23.099853
23.099853
23.099853
23.099853
23.099853
23.099852
23.099852
23.099852
23.099852
23.099852
23.099852
23.099852
23.099852
23.099852
23.099851
23.099851
23.099851
23.099851
23.099851
23.099851
23.099851
23.099851
23.099851
23.09985
23.09985
23.09985
23.09985
23.09985
23.09985
23.09985
23.09985
23.09985
23.099849
23.099849
23.099849
23.099849
23.099849
23.099849
23.099849
23.099849
23.099849
23.099848
23.099848
23.099848
23.099848
23.099848
23.099848
23.099848
23.099848
23.099848
23.099847
23.099847
23.099847
23.099847
23.099847
23.099847
23.099847
23.099847
23.099847
23.099846
23.099846
23.099846
23.099846
23.099846
23.099846
23.099846
23.099846
23.099846
23.099845
23.099845
23.099845
23.099845
23.099845
23.099845
23.099845
23.099845
23.099845
23.099844
23.099844
23.099844
23.099844
23.099844
23.099844
23.099844
23.099844
23.099843
23.099843
23.099843
23.099843
23.099843
23.099843
23.099843
23.099843
23.099842
23.099842
23.099842
23.099842
23.099842
23.099842
23.099842
23.099842
23.099842
23.099841
23.099841
23.099841
23.099841
23.099841
23.099841
23.099841
23.099841
23.09984
23.09984
23.09984
23.09984
23.09984
23.09984
23.09984
23.09984
23.09984
23.099839
23.099839
23.099839
23.099839
23.099839
23.099839
23.099839
23.099839
23.099839
23.099838
23.099838
23.099838
23.099838
23.099838
23.099838
23.099838
23.099838
23.099837
23.099837
23.099837
23.099837
23.099837
23.099837
23.099837
23.099837
23.099837
23.099837
23.099836
23.099836
23.099836
23.099836
23.099836
23.099836
23.099836
23.099836
23.099836
23.099835
23.099835
23.099835
23.099835
23.099835
23.099835
23.099835
23.099835
23.099835
23.099834
23.099834
23.099834
23.099834
23.099834
23.099834
23.099834
23.099834
23.099834
23.099834
23.099833
23.099833
23.099833
23.099833
23.099833
23.099833
23.099833
23.099833
23.099833
23.099832
23.099832
23.099832
23.099832
23.099832
23.099832
23.099832
23.099832
23.099832
23.099832
23.099831
23.099831
23.099831
23.099831
23.099831
23.099831
23.099831
23.099831
23.099831
23.099831
23.09983
23.09983
23.09983
23.09983
23.09983
23.09983
23.09983
23.09983
23.09983
23.09983
23.09983
23.099829
23.099829
23.099829
23.099829
23.099829
23.099829
23.099829
23.099829
23.099829
23.099829
23.099828
23.099828
23.099828
23.099828
23.099828
23.099828
23.099828
23.099828
23.099828
23.099828
23.099828
23.099827
23.099827
23.099827
23.099827
23.099827
23.099827
23.099827
23.099827
23.099827
23.099827
23.099827
23.099826
23.099826
23.099826
23.099826
23.099826
23.099826
23.099826
23.099826
23.099826
23.099826
23.099825
23.099825
23.099825
23.099825
23.099825
23.099825
23.099825
23.099825
23.099825
23.099825
23.099824
23.099824
23.099824
23.099824
23.099824
23.099824
23.099824
23.099824
23.099824
23.099824
23.099824
23.099823
23.099823
23.099823
23.099823
23.099823
23.099823
23.099823
23.099823
23.099823
23.099823
23.099822
23.099822
23.099822
23.099822
23.099822
23.099822
23.099822
23.099822
23.099822
23.099821
23.099821
23.099821
23.099821
23.099821
23.099821
23.099821
23.099821
23.099821
23.099821
23.09982
23.09982
23.09982
23.09982
23.09982
23.09982
23.09982
23.09982
23.09982
23.09982
23.099819
23.099819
23.099819
23.099819
23.099819
23.099819
23.099819
23.099819
23.099819
23.099818
23.099818
23.099818
23.099818
23.099818
23.099818
23.099818
23.099818
23.099818
23.099818
23.099817
23.099817
23.099817
23.099817
23.099817
23.099817
23.099817
23.099817
23.099817
23.099816
23.099816
23.099816
23.099816
23.099816
23.099816
23.099816
23.099816
23.099816
23.099816
23.099815
23.099815
23.099815
23.099815
23.099815
23.099815
23.099815
23.099815
23.099815
23.099814
23.099814
23.099814
23.099814
23.099814
23.099814
23.099814
23.099814
23.099814
23.099814
23.099813
23.099813
23.099813
23.099813
23.099813
23.099813
23.099813
23.099813
23.099813
23.099813
23.099812
23.099812
23.099812
23.099812
23.099812
23.099812
23.099812
23.099812
23.099812
23.099811
23.099811
23.099811
23.099811
23.099811
23.099811
23.099811
23.099811
23.099811
23.099811
23.09981
23.09981
23.09981
23.09981
23.09981
23.09981
23.09981
23.09981
23.09981
23.09981
23.099809
23.099809
23.099809
23.099809
23.099809
23.099809
23.099809
23.099809
23.099809
23.099809
23.099808
23.099808
23.099808
23.099808
23.099808
23.099808
23.099808
23.099808
23.099808
23.099808
23.099807
23.099807
23.099807
23.099807
23.099807
23.099807
23.099807
23.099807
23.099807
23.099807
23.099806
23.099806
23.099806
23.099806
23.099806
23.099806
23.099806
23.099806
23.099806
23.099806
23.099805
23.099805
23.099805
23.099805
23.099805
23.099805
23.099805
23.099805
23.099805
23.099805
23.099804
23.099804
23.099804
23.099804
23.099804
23.099804
23.099804
23.099804
23.099804
23.099804
23.099803
23.099803
23.099803
23.099803
23.099803
23.099803
23.099803
23.099803
23.099803
23.099803
23.099802
23.099802
23.099802
23.099802
23.099802
23.099802
23.099802
23.099802
23.099802
23.099802
23.099801
23.099801
23.099801
23.099801
23.099801
23.099801
23.099801
23.099801
23.099801
23.0998
23.0998
23.0998
23.0998
23.0998
23.0998
23.0998
23.0998
23.0998
23.0998
23.0998
23.099799
23.099799
23.099799
23.099799
23.099799
23.099799
23.099799
23.099799
23.099799
23.099799
23.099798
23.099798
23.099798
23.099798
23.099798
23.099798
23.099798
23.099798
23.099798
23.099798
23.099798
23.099797
23.099797
23.099797
23.099797
23.099797
23.099797
23.099797
23.099797
23.099797
23.099797
23.099797
23.099797
23.099796
23.099796
23.099796
23.099796
23.099796
23.099796
23.099796
23.099796
23.099796
23.099796
23.099796
23.099796
23.099796
23.099795
23.099795
23.099795
23.099795
23.099795
23.099795
23.099795
23.099795
23.099795
23.099795
23.099795
23.099795
23.099795
23.099795
23.099794
23.099794
23.099794
23.099794
23.099794
23.099794
23.099794
23.099794
23.099794
23.099794
23.099794
23.099794
23.099794
23.099794
23.099794
23.099794
23.099793
23.099793
23.099793
23.099793
23.099793
23.099793
23.099793
23.099793
23.099793
23.099793
23.099793
23.099793
23.099793
23.099793
23.099793
23.099793
23.099793
23.099793
23.099792
23.099792
23.099792
23.099792
23.099792
23.099792
23.099792
23.099792
23.099792
23.099792
23.099792
23.099792
23.099792
23.099792
23.099792
23.099792
23.099792
23.099792
23.099792
23.099792
23.099792
23.099792
23.099791
23.099791
23.099791
23.099791
23.099791
23.099791
23.099791
23.099791
23.099791
23.099791
23.099791
23.099791
23.099791
23.099791
23.099791
23.099791
23.099791
23.099791
23.099791
23.099791
23.099791
23.099791
23.099791
23.09979
23.09979
23.09979
23.09979
23.09979
23.09979
23.09979
23.09979
23.09979
23.09979
23.09979
23.09979
23.09979
23.09979
23.09979
23.09979
23.09979
23.09979
23.09979
23.09979
23.09979
23.099789
23.099789
23.099789
23.099789
23.099789
23.099789
23.099789
23.099789
23.099789
23.099789
23.099789
23.099789
23.099789
23.099789
23.099789
23.099789
23.099789
23.099789
23.099789
23.099788
23.099788
23.099788
23.099788
23.099788
23.099788
23.099788
23.099788
23.099788
23.099788
23.099788
23.099788
23.099788
23.099788
23.099788
23.099788
23.099787
23.099787
23.099787
23.099787
23.099787
23.099787
23.099787
23.099787
23.099787
23.099787
23.099787
23.099787
23.099787
23.099787
23.099787
23.099786
23.099786
23.099786
23.099786
23.099786
23.099786
23.099786
23.099786
23.099786
23.099786
23.099786
23.099786
23.099786
23.099786
23.099785
23.099785
23.099785
23.099785
23.099785
23.099785
23.099785
23.099785
23.099785
23.099785
23.099785
23.099785
23.099785
23.099784
23.099784
23.099784
23.099784
23.099784
23.099784
23.099784
23.099784
23.099784
23.099784
23.099784
23.099784
23.099784
23.099783
23.099783
23.099783
23.099783
23.099783
23.099783
23.099783
23.099783
23.099783
23.099783
23.099783
23.099783
23.099782
23.099782
23.099782
23.099782
23.099782
23.099782
23.099782
23.099782
23.099782
23.099782
23.099782
23.099782
23.099782
23.099781
23.099781
23.099781
23.099781
23.099781
23.099781
23.099781
23.099781
23.099781
23.099781
23.099781
23.099781
23.099781
23.09978
23.09978
23.09978
23.09978
23.09978
23.09978
23.09978
23.09978
23.09978
23.09978
23.09978
23.09978
23.09978
23.09978
23.099779
23.099779
23.099779
23.099779
23.099779
23.099779
23.099779
23.099779
23.099779
23.099779
23.099779
23.099779
23.099779
23.099779
23.099778
23.099778
23.099778
23.099778
23.099778
23.099778
23.099778
23.099778
23.099778
23.099778
23.099778
23.099778
23.099778
23.099778
23.099778
23.099778
23.099778
23.099777
23.099777
23.099777
23.099777
23.099777
23.099777
23.099777
23.099777
23.099777
23.099777
23.099777
23.099777
23.099777
23.099777
23.099777
23.099777
23.099777
23.099777
23.099777
23.099777
23.099776
23.099776
23.099776
23.099776
23.099776
23.099776
23.099776
23.099776
23.099776
23.099776
23.099776
23.099776
23.099776
23.099776
23.099776
23.099776
23.099776
23.099776
23.099776
23.099776
23.099776
23.099776
23.099776
23.099776
23.099775
23.099775
23.099775
23.099775
23.099775
23.099775
23.099775
23.099775
23.099775
23.099775
23.099775
23.099775
23.099775
23.099775
23.099775
23.099775
23.099775
23.099775
23.099775
23.099775
23.099775
23.099775
23.099775
23.099775
23.099775
23.099775
23.099775
23.099775
23.099775
23.099775
23.099775
23.099775
23.099774
23.099774
23.099774
23.099774
23.099774
23.099774
23.099774
23.099774
23.099774
23.099774
23.099774
23.099774
23.099774
23.099774
23.099774
23.099774
23.099774
23.099774
23.099774
23.099774
23.099774
23.099774
23.099774
23.099774
23.099774
23.099774
23.099774
23.099774
23.099774
23.099774
23.099774
23.099774
23.099774
23.099774
23.099774
23.099774
23.099774
23.099774
23.099774
23.099773
23.099773
23.099773
23.099773
23.099773
23.099773
23.099773
23.099773
23.099773
23.099773
23.099773
23.099773
23.099773
23.099773
23.099773
23.099773
23.099773
23.099773
23.099773
23.099773
23.099773
23.099773
23.099773
23.099773
23.099773
23.099773
23.099773
23.099773
23.099773
23.099773
23.099773
23.099773
23.099773
23.099773
23.099773
23.099773
23.099773
23.099772
23.099772
23.099772
23.099772
23.099772
23.099772
23.099772
23.099772
23.099772
23.099772
23.099772
23.099772
23.099772
23.099772
23.099772
23.099772
23.099772
23.099772
23.099772
23.099772
23.099772
23.099772
23.099772
23.099772
23.099772
23.099772
23.099772
23.099772
23.099772
23.099772
23.099772
23.099772
23.099772
23.099772
23.099771
23.099771
23.099771
23.099771
23.099771
23.099771
23.099771
23.099771
23.099771
23.099771
23.099771
23.099771
23.099771
23.099771
23.099771
23.099771
23.099771
23.099771
23.099771
23.099771
23.099771
23.099771
23.099771
23.099771
23.099771
23.099771
23.099771
23.099771
23.09977
23.09977
23.09977
23.09977
23.09977
23.09977
23.09977
23.09977
23.09977
23.09977
23.09977
23.09977
23.09977
23.09977
23.09977
23.09977
23.09977
23.09977
23.09977
23.09977
23.09977
23.09977
23.09977
23.09977
23.09977
23.09977
23.09977
23.09977
23.09977
23.099769
23.099769
23.099769
23.099769
23.099769
23.099769
23.099769
23.099769
23.099769
23.099769
23.099769
23.099769
23.099769
23.099769
23.099769
23.099769
23.099769
23.099769
23.099769
23.099769
23.099769
23.099769
23.099769
23.099769
23.099769
23.099769
23.099769
23.099769
23.099769
23.099769
23.099769
23.099769
23.099769
23.099769
23.099769
23.099769
23.099769
23.099769
23.099769
23.099769
23.099769
23.099769
23.099769
23.099769
23.099769
23.099769
23.099769
23.099769
23.099769
23.099769
23.099769
23.099769
23.099769
23.099769
23.099769
23.099769
23.099769
23.099769
23.099769
23.099769
23.099769
23.099769
23.099769
23.09977
23.09977
23.09977
23.09977
23.09977
23.09977
23.09977
23.09977
23.09977
23.09977
23.099771
23.099771
23.099771
23.099771
23.099771
23.099771
23.099771
23.099772
23.099772
23.099772
23.099772
23.099772
23.099773
23.099773
23.099773
23.099773
23.099774
23.099774
23.099774
23.099775
23.099775
23.099775
23.099776
23.099776
23.099776
23.099777
23.099777
23.099778
23.099778
23.099779
23.099779
23.09978
23.09978
23.099781
23.099782
23.099782
23.099783
23.099784
23.099784
23.099785
23.099786
23.099787
23.099788
23.099788
23.099789
23.09979
23.099791
23.099792
23.099793
23.099795
23.099796
23.099797
23.099798
23.0998
23.099801
23.099803
23.099804
23.099806
23.099807
23.099809
23.099811
23.099813
23.099814
23.099816
23.099819
23.099821
23.099823
23.099825
23.099828
23.09983
23.099833
23.099836
23.099838
23.099841
23.099844
23.099847
23.099851
23.099854
23.099858
23.099861
23.099865
23.099869
23.099873
23.099878
23.099882
23.099887
23.099892
23.099897
23.099902
23.099907
23.099913
23.099919
23.099925
23.099931
23.099937
23.099944
23.099951
23.099958
23.099966
23.099974
23.099982
23.09999
23.099999
23.100008
23.100017
23.100027
23.100037
23.100048
23.100058
23.10007
23.100081
23.100093
23.100106
23.100119
23.100132
23.100146
23.10016
23.100175
23.100191
23.100207
23.100223
23.10024
23.100258
23.100276
23.100295
23.100315
23.100335
23.100356
23.100378
23.100401
23.100424
23.100448
23.100473
23.100499
23.100525
23.100553
23.100581
23.100611
23.100641
23.100673
23.100705
23.100739
23.100773
23.100809
23.100846
23.100885
23.100924
23.100965
23.101007
23.101051
23.101096
23.101142
23.10119
23.101239
23.10129
23.101343
23.101397
23.101454
23.101511
23.101571
23.101633
23.101696
23.101762
23.101829
23.101899
23.101971
23.102045
23.102121
23.1022
23.102281
23.102364
23.10245
23.102539
23.10263
23.102724
23.102821
23.102921
23.103024
23.10313
23.103239
23.103351
23.103466
23.103585
23.103708
23.103834
23.103963
23.104096
23.104234
23.104375
23.10452
23.104669
23.104822
23.10498
23.105142
23.105309
23.10548
23.105657
23.105838
23.106024
23.106215
23.106411
23.106613
23.10682
23.107033
23.107252
23.107476
23.107707
23.107944
23.108186
23.108436
23.108692
23.108954
23.109224
23.1095
23.109784
23.110075
23.110373
23.110679
23.110993
23.111315
23.111645
23.111983
23.11233
23.112685
23.113049
23.113423
23.113805
23.114197
23.114598
23.115009
23.11543
23.115861
23.116302
23.116754
23.117216
23.11769
23.118174
23.11867
23.119177
23.119697
23.120228
23.120771
23.121327
23.121895
23.122476
23.12307
23.123678
23.124299
23.124933
23.125582
23.126245
23.126922
23.127614
23.128321
23.129044
23.129781
23.130534
23.131304
23.132089
23.13289
23.133709
23.134544
23.135396
23.136266
23.137154
23.138059
23.138983
23.139925
23.140885
23.141865
23.142864
23.143882
23.14492
23.145978
23.147057
23.148156
23.149275
23.150416
23.151578
23.152762
23.153968
23.155195
23.156445
23.157718
23.159013
23.160332
23.161674
23.16304
23.16443
23.165844
23.167282
23.168745
23.170233
23.171747
23.173285
23.17485
23.17644
23.178057
23.1797
23.181369
23.183066
23.18479
23.186541
23.188319
23.190126
23.19196
23.193823
23.195714
23.197634
23.199583
23.201561
23.203568
23.205605
23.207671
23.209767
23.211894
23.21405
23.216237
23.218454
23.220702
23.222981
23.225292
23.227633
23.230005
23.23241
23.234845
23.237313
23.239812
23.242343
23.244906
23.247501
23.250129
23.252789
23.255481
23.258206
23.260963
23.263753
23.266576
23.269431
23.272319
23.27524
23.278193
23.281179
23.284199
23.28725
23.290335
23.293452
23.296602
23.299785
23.303001
23.306249
23.309529
23.312842
23.316188
23.319565
23.322975
23.326417
23.329891
23.333397
23.336934
23.340503
23.344103
23.347735
23.351398
23.355092
23.358816
23.362571
23.366356
23.370171
23.374017
23.377891
23.381796
23.385729
23.389691
23.393682
23.397701
23.401748
23.405823
23.409926
23.414055
23.418212
23.422394
23.426603
23.430838
23.435098
23.439383
23.443692
23.448026
23.452384
23.456765
23.46117
23.465597
23.470046
23.474517
23.479009
23.483522
23.488056
23.492609
23.497182
23.501774
23.506384
23.511012
23.515658
23.520321
23.525001
23.529696
23.534407
23.539132
23.543872
23.548626
23.553393
23.558172
23.562964
23.567767
23.572582
23.577406
23.582241
23.587085
23.591937
23.596798
23.601666
23.60654
23.611421
23.616308
23.6212
23.626096
23.630996
23.635899
23.640805
23.645712
23.650621
23.655531
23.660441
23.66535
23.670258
23.675164
23.680068
23.684969
23.689866
23.694759
23.699646
23.704529
23.709405
23.714274
23.719135
23.723989
23.728834
23.73367
23.738496
23.743312
23.748116
23.752909
23.757689
23.762457
23.767211
23.77195
23.776676
23.781386
23.786081
23.790759
23.79542
23.800063
23.804688
23.809295
23.813883
23.818451
23.823
23.827527
23.832033
23.836518
23.84098
23.845419
23.849835
23.854228
23.858596
23.86294
23.867259
23.871553
23.87582
23.88006
23.884275
23.888462
23.892621
23.896753
23.900856
23.90493
23.908975
23.91299
23.916976
23.920932
23.924858
23.928752
23.932615
23.936446
23.940246
23.944014
23.94775
23.951454
23.955124
23.958761
23.962365
23.965936
23.969473
23.972976
23.976446
23.97988
23.98328
23.986646
23.989977
23.993273
23.996535
23.999761
24.002952
24.006107
24.009227
24.012312
24.015361
24.018375
24.021352
24.024294
24.0272
24.030071
24.032906
24.035705
24.038468
24.041195
24.043887
24.046543
24.049164
24.051749
24.054298
24.056811
24.059289
24.061733
24.064141
24.066513
24.068851
24.071154
24.073422
24.075655
24.077854
24.080018
24.082148
24.084245
24.086307
24.088336
24.090331
24.092292
24.094221
24.096116
24.097979
24.099809
24.101607
24.103373
24.105106
24.106808
24.108479
24.110119
24.111727
24.113305
24.114852
24.116369
24.117856
24.119313
24.12074
24.122139
24.123508
24.124849
24.126162
24.127446
24.128702
24.129931
24.131132
24.132307
24.133455
24.134576
24.135671
24.13674
24.137783
24.138802
24.139795
24.140763
24.141707
24.142626
24.143522
24.144394
24.145243
24.146069
24.146872
24.147652
24.148411
24.149147
24.149862
24.150555
24.151227
24.151879
24.15251
24.153121
24.153711
24.154283
24.154835
24.155367
24.155881
24.156376
24.156853
24.157311
24.157752
24.158174
24.15858
24.158969
24.159341
24.159696
24.160035
24.160357
24.160663
24.160954
24.161229
24.16149
24.161735
24.161965
24.162181
24.162382
24.162569
24.162742
24.162901
24.163047
24.163179
24.163299
24.163405
24.163498
24.163578
24.163646
24.163702
24.163745
24.163777
24.163797
24.163806
24.163803
24.163789
24.163764
24.163727
24.163679
24.16362
24.16355
24.16347
24.163379
24.163278
24.163167
24.163045
24.162914
24.162772
24.162621
24.16246
24.162289
24.162109
24.16192
24.161721
24.161513
24.161296
24.161069
24.160834
24.160589
24.160336
24.160074
24.159803
24.159524
24.159236
24.158939
24.158634
24.15832
24.157998
24.157667
24.157327
24.15698
24.156624
24.15626
24.155888
24.155508
24.15512
24.154723
24.154318
24.153905
24.153484
24.153056
24.152619
24.152174
24.151721
24.151259
24.15079
24.150313
24.149828
24.149335
24.148834
24.148325
24.147808
24.147283
24.14675
24.146209
24.14566
24.145103
24.144538
24.143965
24.143384
24.142796
24.142199
24.141594
24.140981
24.140359
24.13973
24.139092
24.138447
24.137793
24.137131
24.136461
24.135783
24.135096
24.134401
24.133698
24.132987
24.132268
24.13154
24.130804
24.13006
24.129307
24.128546
24.127776
24.126998
24.126211
24.125417
24.124613
24.123801
24.122981
24.122151
24.121314
24.120468
24.119613
24.11875
24.117878
24.116997
24.116108
24.115209
24.114303
24.113387
24.112463
24.11153
24.110589
24.109638
24.108679
24.107711
24.106734
24.105748
24.104753
24.10375
24.102738
24.101717
24.100686
24.099647
24.0986
24.097543
24.096477
24.095402
24.094319
24.093227
24.092125
24.091015
24.089896
24.088768
24.087631
24.086485
24.08533
24.084166
24.082994
24.081812
24.080622
24.079423
24.078214
24.076997
24.075771
24.074536
24.073293
24.07204
24.070779
24.069509
24.068231
24.066943
24.065647
24.064342
24.063028
24.061706
24.060375
24.059035
24.057687
24.05633
24.054965
24.053592
24.052209
24.050818
24.049419
24.048012
24.046596
24.045171
24.043739
24.042298
24.040849
24.039392
24.037926
24.036453
24.034971
24.033482
24.031984
24.030479
24.028965
24.027444
24.025915
24.024378
24.022834
24.021282
24.019722
24.018155
24.01658
24.014998
24.013408
24.011812
24.010207
24.008596
24.006978
24.005352
24.003719
24.00208
24.000433
23.99878
23.99712
23.995453
23.99378
23.992099
23.990413
23.98872
23.98702
23.985314
23.983602
23.981884
23.98016
23.97843
23.976693
23.974951
23.973203
23.97145
23.96969
23.967925
23.966155
23.964379
23.962598
23.960811
23.959019
23.957222
23.95542
23.953614
23.951802
23.949986
23.948164
23.946339
23.944509
23.942674
23.940835
23.938991
23.937144
23.935292
23.933436
23.931577
23.929713
23.927846
23.925975
23.9241
23.922222
23.920341
23.918456
23.916568
23.914677
23.912783
23.910886
23.908986
23.907083
23.905178
23.90327
23.90136
23.899447
23.897531
23.895614
23.893694
23.891773
23.889849
23.887924
23.885997
23.884068
23.882137
23.880205
23.878272
23.876338
23.874402
23.872465
23.870527
23.868588
23.866648
23.864707
23.862766
23.860825
23.858882
23.85694
23.854997
23.853054
23.851111
23.849167
23.847224
23.845281
23.843339
23.841396
23.839454
23.837513
23.835572
23.833632
23.831692
23.829752
23.827814
23.825876
23.823939
23.822002
23.820065
23.81813
23.816195
23.814262
23.81233
23.810401
23.808476
23.806554
23.804635
23.802719
23.800802
23.798883
23.796961
23.795035
23.793106
23.791182
23.789263
23.787362
23.785476
23.783598
23.781732
23.779865
23.777995
23.776123
23.774248
23.772391
23.770549
23.768704
23.76685
23.764986
23.763117
23.761249
23.759398
23.757559
23.755718
23.753875
23.75203
23.750187
23.748359
23.746539
23.74472
23.74291
23.741118
23.739333
23.737554
23.735789
23.734053
23.732361
23.730906
23.729273
23.727052
23.724917
23.723316
23.721631
23.719839
23.718074
23.716341
23.714602
23.712862
23.711133
23.70941
23.707693
23.705983
23.704279
23.70258
23.700888
23.699201
23.697519
23.695843
23.694172
23.692506
23.690845
23.689189
23.687539
23.685894
23.684254
23.68262
23.680992
23.67937
23.677752
23.676141
23.674536
23.672937
23.671343
23.669756
23.668174
23.666599
23.66503
23.663466
23.661909
23.660357
23.658812
23.657273
23.65574
23.654213
23.652692
23.651178
23.649669
23.648164
23.646665
23.645177
23.643698
23.642221
23.640749
23.639284
23.637826
23.636374
23.634928
23.633489
23.632056
23.630629
23.629208
23.627794
23.626387
23.624986
23.623591
23.622202
23.62082
23.619445
23.618076
23.616713
23.615357
23.614007
23.612664
23.611327
23.609997
23.608673
23.607355
23.606044
23.60474
23.603441
23.60215
23.600865
23.599586
23.598314
23.597048
23.595789
23.594536
23.59329
23.59205
23.590816
23.589589
23.588369
23.587155
23.585947
23.584746
23.583551
23.582363
23.581181
23.580005
23.578836
23.577673
23.576517
23.575367
23.574223
23.573086
23.571955
23.570831
23.569713
23.568601
23.567495
23.566396
23.565303
23.564217
23.563136
23.562062
23.560995
23.559933
23.558878
23.557829
23.556786
23.555749
23.554719
23.553694
23.552676
23.551664
23.550658
23.549659
23.548665
23.547677
23.546696
23.545721
23.544751