/*--------------------------------*- C++ -*----------------------------------*\
  =========                 |
  \\      /  F ield         | OpenFOAM: The Open Source CFD Toolbox
   \\    /   O peration     | Website:  https://openfoam.org
    \\  /    A nd           | Version:  7
     \\/     M anipulation  |
\*---------------------------------------------------------------------------*/
FoamFile
{
    version     2.0;
    format      ascii;
    class       surfaceScalarField;
    location    "0.00196";
    object      phi;
}
// * * * * * * * * * * * * * * * * * * * * * * * * * * * * * * * * * * * * * //

dimensions      [1 0 -1 0 0 0 0];

internalField   nonuniform List<scalar> 
4999
(
1.235884
1.235884
1.2358839
1.2358839
1.2358839
1.2358839
1.2358838
1.2358838
1.2358838
1.2358837
1.2358837
1.2358837
1.2358836
1.2358836
1.2358835
1.2358835
1.2358834
1.2358834
1.2358833
1.2358833
1.2358832
1.2358831
1.235883
1.2358828
1.2358827
1.2358824
1.235882
1.2358811
1.2358793
1.2358768
1.2358735
1.2358684
1.2358604
1.2358483
1.2358315
1.2358095
1.2357825
1.2357502
1.2357123
1.2356676
1.2356151
1.2355539
1.2354838
1.2354059
1.2353225
1.2352366
1.235152
1.235072
1.2349994
1.234936
1.2348827
1.2348395
1.2348054
1.2347793
1.2347599
1.2347456
1.2347354
1.234728
1.2347229
1.2347193
1.2347167
1.2347149
1.2347136
1.2347126
1.2347119
1.2347114
1.234711
1.2347107
1.2347105
1.2347103
1.2347102
1.23471
1.2347099
1.2347098
1.2347097
1.2347096
1.2347095
1.2347094
1.2347093
1.2347092
1.2347091
1.234709
1.2347089
1.2347088
1.2347087
1.2347086
1.2347085
1.2347084
1.2347084
1.2347083
1.2347082
1.2347081
1.234708
1.2347079
1.2347078
1.2347078
1.2347077
1.2347076
1.2347075
1.2347074
1.2347074
1.2347073
1.2347072
1.2347071
1.234707
1.234707
1.2347069
1.2347068
1.2347067
1.2347066
1.2347066
1.2347065
1.2347064
1.2347063
1.2347062
1.2347062
1.2347061
1.234706
1.2347059
1.2347059
1.2347058
1.2347057
1.2347056
1.2347055
1.2347055
1.2347054
1.2347053
1.2347052
1.2347051
1.234705
1.234705
1.2347049
1.2347048
1.2347047
1.2347046
1.2347046
1.2347045
1.2347044
1.2347043
1.2347042
1.2347042
1.2347041
1.234704
1.2347039
1.2347038
1.2347038
1.2347037
1.2347036
1.2347035
1.2347034
1.2347034
1.2347033
1.2347032
1.2347031
1.2347031
1.234703
1.2347029
1.2347028
1.2347027
1.2347027
1.2347026
1.2347025
1.2347024
1.2347024
1.2347023
1.2347022
1.2347021
1.2347021
1.234702
1.2347019
1.2347019
1.2347018
1.2347017
1.2347017
1.2347016
1.2347015
1.2347015
1.2347014
1.2347013
1.2347013
1.2347012
1.2347011
1.2347011
1.234701
1.234701
1.2347009
1.2347009
1.2347008
1.2347008
1.2347007
1.2347007
1.2347006
1.2347006
1.2347005
1.2347005
1.2347004
1.2347004
1.2347004
1.2347003
1.2347003
1.2347002
1.2347002
1.2347001
1.2347001
1.2347001
1.2347
1.2347
1.2346999
1.2346999
1.2346998
1.2346998
1.2346997
1.2346997
1.2346997
1.2346996
1.2346996
1.2346995
1.2346994
1.2346994
1.2346993
1.2346993
1.2346992
1.2346992
1.2346991
1.234699
1.234699
1.2346989
1.2346989
1.2346988
1.2346987
1.2346987
1.2346986
1.2346986
1.2346985
1.2346984
1.2346984
1.2346983
1.2346982
1.2346982
1.2346981
1.234698
1.234698
1.2346979
1.2346978
1.2346978
1.2346977
1.2346976
1.2346976
1.2346975
1.2346974
1.2346974
1.2346973
1.2346972
1.2346972
1.2346971
1.234697
1.234697
1.2346969
1.2346968
1.2346967
1.2346967
1.2346966
1.2346965
1.2346965
1.2346964
1.2346963
1.2346962
1.2346962
1.2346961
1.234696
1.2346959
1.2346959
1.2346958
1.2346957
1.2346956
1.2346956
1.2346955
1.2346954
1.2346953
1.2346953
1.2346952
1.2346951
1.234695
1.2346949
1.2346948
1.2346948
1.2346947
1.2346946
1.2346945
1.2346944
1.2346944
1.2346943
1.2346942
1.2346941
1.234694
1.2346939
1.2346938
1.2346938
1.2346937
1.2346936
1.2346935
1.2346934
1.2346933
1.2346932
1.2346931
1.2346931
1.234693
1.2346929
1.2346928
1.2346927
1.2346926
1.2346925
1.2346924
1.2346923
1.2346922
1.2346921
1.2346921
1.234692
1.2346919
1.2346918
1.2346917
1.2346916
1.2346915
1.2346914
1.2346914
1.2346913
1.2346912
1.2346911
1.234691
1.2346909
1.2346908
1.2346908
1.2346907
1.2346906
1.2346905
1.2346904
1.2346903
1.2346902
1.2346902
1.2346901
1.23469
1.2346899
1.2346898
1.2346897
1.2346896
1.2346895
1.2346894
1.2346893
1.2346893
1.2346892
1.2346891
1.234689
1.2346889
1.2346888
1.2346887
1.2346885
1.2346884
1.2346883
1.2346882
1.2346881
1.234688
1.2346879
1.2346877
1.2346876
1.2346875
1.2346874
1.2346872
1.2346871
1.234687
1.2346868
1.2346867
1.2346866
1.2346864
1.2346863
1.2346861
1.234686
1.2346858
1.2346856
1.2346855
1.2346853
1.2346851
1.2346849
1.2346847
1.2346845
1.2346843
1.2346841
1.2346839
1.2346837
1.2346834
1.2346832
1.2346829
1.2346827
1.2346824
1.2346821
1.2346818
1.2346815
1.2346812
1.2346809
1.2346805
1.2346802
1.2346798
1.2346794
1.234679
1.2346786
1.2346782
1.2346778
1.2346773
1.2346768
1.2346763
1.2346758
1.2346752
1.2346747
1.2346741
1.2346736
1.234673
1.2346724
1.2346717
1.2346711
1.2346704
1.2346697
1.2346689
1.2346682
1.2346674
1.2346667
1.2346658
1.234665
1.2346641
1.2346632
1.2346623
1.2346613
1.2346604
1.2346593
1.2346583
1.2346572
1.2346561
1.2346549
1.2346537
1.2346525
1.2346512
1.2346499
1.2346485
1.2346472
1.2346457
1.2346443
1.2346427
1.2346412
1.2346395
1.2346379
1.2346362
1.2346344
1.2346326
1.2346307
1.2346288
1.2346268
1.2346248
1.2346227
1.2346205
1.2346183
1.234616
1.2346137
1.2346112
1.2346087
1.2346061
1.2346035
1.2346007
1.2345979
1.234595
1.234592
1.2345889
1.2345857
1.2345824
1.234579
1.2345755
1.2345719
1.2345682
1.2345643
1.2345603
1.2345563
1.2345521
1.2345477
1.2345432
1.2345386
1.2345339
1.234529
1.2345239
1.2345187
1.2345133
1.2345078
1.2345021
1.2344962
1.2344901
1.2344839
1.2344775
1.2344708
1.234464
1.234457
1.2344498
1.2344424
1.2344347
1.2344268
1.2344188
1.2344104
1.2344019
1.2343931
1.234384
1.2343747
1.2343652
1.2343554
1.2343453
1.234335
1.2343244
1.2343135
1.2343024
1.2342909
1.2342792
1.2342671
1.2342547
1.2342421
1.2342291
1.2342158
1.2342022
1.2341882
1.234174
1.2341593
1.2341443
1.234129
1.2341133
1.2340973
1.2340809
1.2340641
1.234047
1.2340294
1.2340115
1.2339932
1.2339745
1.2339554
1.2339358
1.2339159
1.2338955
1.2338748
1.2338535
1.2338319
1.2338098
1.2337873
1.2337643
1.2337409
1.233717
1.2336926
1.2336678
1.2336424
1.2336166
1.2335904
1.2335636
1.2335363
1.2335085
1.2334802
1.2334514
1.2334221
1.2333923
1.2333619
1.233331
1.2332996
1.2332676
1.2332351
1.233202
1.2331683
1.2331341
1.2330994
1.233064
1.2330281
1.2329916
1.2329545
1.2329169
1.2328786
1.2328397
1.2328003
1.2327602
1.2327195
1.2326782
1.2326363
1.2325938
1.2325506
1.2325068
1.2324624
1.2324173
1.2323716
1.2323252
1.2322782
1.2322306
1.2321822
1.2321333
1.2320836
1.2320333
1.2319824
1.2319307
1.2318784
1.2318254
1.2317718
1.2317175
1.2316624
1.2316067
1.2315503
1.2314932
1.2314355
1.231377
1.2313178
1.231258
1.2311974
1.2311362
1.2310742
1.2310115
1.2309482
1.2308841
1.2308194
1.2307539
1.2306877
1.2306208
1.2305532
1.2304849
1.2304159
1.2303462
1.2302758
1.2302047
1.2301328
1.2300603
1.2299871
1.2299131
1.2298385
1.2297631
1.2296871
1.2296103
1.2295329
1.2294547
1.2293759
1.2292964
1.2292161
1.2291352
1.2290536
1.2289713
1.2288884
1.2288047
1.2287204
1.2286354
1.2285497
1.2284633
1.2283763
1.2282886
1.2282003
1.2281113
1.2280217
1.2279313
1.2278404
1.2277488
1.2276566
1.2275637
1.2274702
1.2273761
1.2272813
1.2271859
1.22709
1.2269934
1.2268962
1.2267984
1.2267
1.226601
1.2265014
1.2264012
1.2263005
1.2261992
1.2260973
1.2259949
1.2258919
1.2257884
1.2256843
1.2255797
1.2254745
1.2253688
1.2252626
1.2251559
1.2250487
1.2249409
1.2248327
1.224724
1.2246148
1.2245051
1.2243949
1.2242843
1.2241732
1.2240616
1.2239496
1.2238372
1.2237243
1.223611
1.2234973
1.2233831
1.2232686
1.2231536
1.2230383
1.2229225
1.2228064
1.2226899
1.222573
1.2224558
1.2223382
1.2222203
1.222102
1.2219834
1.2218645
1.2217452
1.2216257
1.2215058
1.2213856
1.2212652
1.2211444
1.2210234
1.2209021
1.2207806
1.2206588
1.2205368
1.2204145
1.220292
1.2201692
1.2200463
1.2199231
1.2197997
1.2196762
1.2195524
1.2194285
1.2193044
1.2191801
1.2190557
1.2189311
1.2188064
1.2186816
1.2185566
1.2184315
1.2183063
1.218181
1.2180556
1.2179301
1.2178045
1.2176788
1.2175531
1.2174274
1.2173015
1.2171757
1.2170497
1.2169238
1.2167978
1.2166719
1.2165459
1.2164199
1.216294
1.216168
1.2160421
1.2159162
1.2157903
1.2156645
1.2155387
1.215413
1.2152874
1.2151618
1.2150364
1.214911
1.2147857
1.2146605
1.2145354
1.2144104
1.2142856
1.2141609
1.2140363
1.2139119
1.2137876
1.2136635
1.2135395
1.2134157
1.2132921
1.2131687
1.2130455
1.2129225
1.2127996
1.212677
1.2125546
1.2124325
1.2123105
1.2121888
1.2120673
1.2119461
1.2118251
1.2117044
1.211584
1.2114638
1.2113439
1.2112243
1.211105
1.2109859
1.2108672
1.2107488
1.2106306
1.2105128
1.2103953
1.2102782
1.2101613
1.2100448
1.2099287
1.2098128
1.2096974
1.2095823
1.2094675
1.2093531
1.2092391
1.2091254
1.2090121
1.2088992
1.2087867
1.2086746
1.2085628
1.2084515
1.2083406
1.20823
1.2081199
1.2080101
1.2079008
1.2077919
1.2076834
1.2075754
1.2074678
1.2073605
1.2072538
1.2071474
1.2070415
1.2069361
1.2068311
1.2067265
1.2066224
1.2065187
1.2064155
1.2063127
1.2062104
1.2061085
1.2060071
1.2059062
1.2058057
1.2057057
1.2056061
1.205507
1.2054084
1.2053103
1.2052126
1.2051154
1.2050187
1.2049224
1.2048267
1.2047314
1.2046365
1.2045422
1.2044483
1.2043549
1.204262
1.2041696
1.2040777
1.2039862
1.2038952
1.2038047
1.2037147
1.2036251
1.203536
1.2034474
1.2033593
1.2032717
1.2031845
1.2030978
1.2030116
1.2029259
1.2028407
1.2027559
1.2026716
1.2025877
1.2025044
1.2024215
1.2023391
1.2022571
1.2021757
1.2020947
1.2020141
1.2019341
1.2018544
1.2017753
1.2016966
1.2016184
1.2015406
1.2014633
1.2013865
1.20131
1.2012341
1.2011586
1.2010835
1.2010089
1.2009348
1.2008611
1.2007878
1.200715
1.2006426
1.2005706
1.2004991
1.200428
1.2003574
1.2002872
1.2002174
1.200148
1.2000791
1.2000105
1.1999424
1.1998748
1.1998075
1.1997406
1.1996742
1.1996082
1.1995426
1.1994773
1.1994125
1.1993481
1.1992841
1.1992205
1.1991573
1.1990945
1.1990321
1.1989701
1.1989085
1.1988472
1.1987864
1.1987259
1.1986658
1.1986061
1.1985468
1.1984878
1.1984292
1.198371
1.1983132
1.1982557
1.1981986
1.1981419
1.1980855
1.1980295
1.1979739
1.1979186
1.1978637
1.1978091
1.1977549
1.1977011
1.1976476
1.1975944
1.1975416
1.1974892
1.1974371
1.1973853
1.1973339
1.1972829
1.1972321
1.1971818
1.1971317
1.197082
1.1970326
1.1969836
1.1969349
1.1968865
1.1968385
1.1967908
1.1967434
1.1966964
1.1966497
1.1966033
1.1965572
1.1965115
1.196466
1.1964209
1.1963762
1.1963317
1.1962876
1.1962438
1.1962003
1.1961571
1.1961143
1.1960717
1.1960295
1.1959876
1.195946
1.1959047
1.1958637
1.1958231
1.1957827
1.1957427
1.195703
1.1956636
1.1956245
1.1955857
1.1955472
1.195509
1.1954711
1.1954335
1.1953963
1.1953593
1.1953226
1.1952863
1.1952502
1.1952145
1.195179
1.1951439
1.195109
1.1950745
1.1950402
1.1950062
1.1949726
1.1949392
1.1949062
1.1948734
1.1948409
1.1948087
1.1947768
1.1947452
1.1947139
1.1946829
1.1946522
1.1946218
1.1945916
1.1945618
1.1945322
1.1945029
1.194474
1.1944453
1.1944168
1.1943887
1.1943609
1.1943333
1.194306
1.194279
1.1942523
1.1942258
1.1941997
1.1941738
1.1941482
1.1941228
1.1940978
1.194073
1.1940484
1.1940242
1.1940002
1.1939765
1.1939531
1.1939299
1.193907
1.1938844
1.193862
1.1938399
1.193818
1.1937964
1.1937751
1.193754
1.1937332
1.1937126
1.1936923
1.1936723
1.1936525
1.1936329
1.1936136
1.1935945
1.1935757
1.1935571
1.1935388
1.1935207
1.1935028
1.1934852
1.1934678
1.1934507
1.1934338
1.1934171
1.1934007
1.1933844
1.1933684
1.1933527
1.1933371
1.1933218
1.1933067
1.1932918
1.1932771
1.1932627
1.1932484
1.1932344
1.1932205
1.1932069
1.1931935
1.1931803
1.1931673
1.1931545
1.1931419
1.1931295
1.1931173
1.1931052
1.1930934
1.1930818
1.1930703
1.193059
1.1930479
1.193037
1.1930263
1.1930157
1.1930054
1.1929952
1.1929851
1.1929753
1.1929656
1.1929561
1.1929467
1.1929375
1.1929285
1.1929196
1.1929109
1.1929023
1.1928939
1.1928856
1.1928775
1.1928696
1.1928617
1.1928541
1.1928465
1.1928391
1.1928319
1.1928248
1.1928178
1.1928109
1.1928042
1.1927976
1.1927911
1.1927848
1.1927786
1.1927725
1.1927665
1.1927606
1.1927549
1.1927493
1.1927438
1.1927383
1.1927331
1.1927279
1.1927228
1.1927178
1.1927129
1.1927082
1.1927035
1.1926989
1.1926944
1.1926901
1.1926858
1.1926816
1.1926775
1.1926735
1.1926695
1.1926657
1.1926619
1.1926583
1.1926547
1.1926512
1.1926477
1.1926444
1.1926411
1.1926379
1.1926348
1.1926317
1.1926287
1.1926258
1.1926229
1.1926202
1.1926174
1.1926148
1.1926122
1.1926097
1.1926072
1.1926048
1.1926024
1.1926002
1.1925979
1.1925957
1.1925936
1.1925915
1.1925895
1.1925875
1.1925856
1.1925837
1.1925819
1.1925801
1.1925784
1.1925767
1.1925751
1.1925735
1.1925719
1.1925704
1.192569
1.1925675
1.1925661
1.1925648
1.1925635
1.1925622
1.1925609
1.1925597
1.1925585
1.1925574
1.1925563
1.1925552
1.1925541
1.1925531
1.1925521
1.1925512
1.1925502
1.1925493
1.1925484
1.1925476
1.1925467
1.1925459
1.1925452
1.1925444
1.1925437
1.192543
1.1925423
1.1925416
1.192541
1.1925403
1.1925397
1.1925392
1.1925386
1.192538
1.1925375
1.192537
1.1925365
1.192536
1.1925356
1.1925351
1.1925347
1.1925342
1.1925338
1.1925334
1.1925331
1.1925327
1.1925324
1.192532
1.1925317
1.1925314
1.1925311
1.1925308
1.1925305
1.1925302
1.1925299
1.1925297
1.1925294
1.1925292
1.192529
1.1925288
1.1925285
1.1925283
1.1925281
1.1925279
1.1925278
1.1925276
1.1925274
1.1925273
1.1925271
1.1925269
1.1925268
1.1925267
1.1925265
1.1925264
1.1925263
1.1925262
1.1925261
1.1925259
1.1925258
1.1925257
1.1925256
1.1925255
1.1925255
1.1925254
1.1925253
1.1925252
1.1925251
1.192525
1.192525
1.1925249
1.1925248
1.1925248
1.1925247
1.1925247
1.1925246
1.1925246
1.1925245
1.1925245
1.1925244
1.1925244
1.1925243
1.1925243
1.1925242
1.1925242
1.1925242
1.1925241
1.1925241
1.192524
1.192524
1.192524
1.1925239
1.1925239
1.1925239
1.1925239
1.1925238
1.1925238
1.1925238
1.1925238
1.1925237
1.1925237
1.1925237
1.1925237
1.1925236
1.1925236
1.1925236
1.1925236
1.1925236
1.1925235
1.1925235
1.1925235
1.1925235
1.1925234
1.1925234
1.1925234
1.1925234
1.1925234
1.1925233
1.1925233
1.1925233
1.1925233
1.1925233
1.1925233
1.1925232
1.1925232
1.1925232
1.1925232
1.1925232
1.1925231
1.1925231
1.1925231
1.1925231
1.192523
1.192523
1.192523
1.192523
1.192523
1.1925229
1.1925229
1.1925229
1.1925229
1.1925228
1.1925228
1.1925228
1.1925228
1.1925227
1.1925227
1.1925227
1.1925227
1.1925226
1.1925226
1.1925226
1.1925225
1.1925225
1.1925225
1.1925224
1.1925224
1.1925224
1.1925223
1.1925223
1.1925223
1.1925222
1.1925222
1.1925222
1.1925221
1.1925221
1.192522
1.192522
1.192522
1.1925219
1.1925219
1.1925218
1.1925218
1.1925218
1.1925217
1.1925217
1.1925216
1.1925216
1.1925216
1.1925215
1.1925215
1.1925214
1.1925214
1.1925213
1.1925213
1.1925212
1.1925212
1.1925211
1.1925211
1.192521
1.192521
1.192521
1.1925209
1.1925209
1.1925208
1.1925208
1.1925207
1.1925207
1.1925206
1.1925206
1.1925205
1.1925205
1.1925204
1.1925204
1.1925203
1.1925203
1.1925202
1.1925202
1.1925201
1.1925201
1.19252
1.19252
1.1925199
1.1925199
1.1925198
1.1925198
1.1925197
1.1925197
1.1925196
1.1925196
1.1925196
1.1925195
1.1925195
1.1925194
1.1925194
1.1925193
1.1925193
1.1925192
1.1925192
1.1925192
1.1925191
1.1925191
1.192519
1.192519
1.1925189
1.1925189
1.1925189
1.1925188
1.1925188
1.1925187
1.1925187
1.1925187
1.1925186
1.1925186
1.1925186
1.1925185
1.1925185
1.1925185
1.1925184
1.1925184
1.1925184
1.1925183
1.1925183
1.1925183
1.1925182
1.1925182
1.1925182
1.1925181
1.1925181
1.1925181
1.1925181
1.192518
1.192518
1.192518
1.192518
1.1925179
1.1925179
1.1925179
1.1925179
1.1925179
1.1925178
1.1925178
1.1925178
1.1925178
1.1925178
1.1925177
1.1925177
1.1925177
1.1925177
1.1925177
1.1925176
1.1925176
1.1925176
1.1925176
1.1925176
1.1925176
1.1925175
1.1925175
1.1925175
1.1925175
1.1925175
1.1925175
1.1925175
1.1925174
1.1925174
1.1925174
1.1925174
1.1925174
1.1925174
1.1925174
1.1925174
1.1925173
1.1925173
1.1925173
1.1925173
1.1925173
1.1925173
1.1925173
1.1925172
1.1925172
1.1925172
1.1925172
1.1925172
1.1925172
1.1925172
1.1925171
1.1925171
1.1925171
1.1925171
1.1925171
1.1925171
1.192517
1.192517
1.192517
1.192517
1.192517
1.192517
1.1925169
1.1925169
1.1925169
1.1925169
1.1925169
1.1925169
1.1925168
1.1925168
1.1925168
1.1925168
1.1925167
1.1925167
1.1925167
1.1925167
1.1925167
1.1925166
1.1925166
1.1925166
1.1925166
1.1925165
1.1925165
1.1925165
1.1925165
1.1925165
1.1925164
1.1925164
1.1925164
1.1925164
1.1925163
1.1925163
1.1925163
1.1925163
1.1925162
1.1925162
1.1925162
1.1925162
1.1925161
1.1925161
1.1925161
1.1925161
1.192516
1.192516
1.192516
1.192516
1.1925159
1.1925159
1.1925159
1.1925158
1.1925158
1.1925158
1.1925158
1.1925157
1.1925157
1.1925157
1.1925157
1.1925156
1.1925156
1.1925156
1.1925156
1.1925155
1.1925155
1.1925155
1.1925155
1.1925154
1.1925154
1.1925154
1.1925153
1.1925153
1.1925153
1.1925153
1.1925152
1.1925152
1.1925152
1.1925152
1.1925151
1.1925151
1.1925151
1.1925151
1.192515
1.192515
1.192515
1.192515
1.1925149
1.1925149
1.1925149
1.1925149
1.1925148
1.1925148
1.1925148
1.1925148
1.1925147
1.1925147
1.1925147
1.1925147
1.1925147
1.1925146
1.1925146
1.1925146
1.1925146
1.1925145
1.1925145
1.1925145
1.1925145
1.1925144
1.1925144
1.1925144
1.1925144
1.1925144
1.1925143
1.1925143
1.1925143
1.1925143
1.1925142
1.1925142
1.1925142
1.1925142
1.1925141
1.1925141
1.1925141
1.1925141
1.1925141
1.192514
1.192514
1.192514
1.192514
1.1925139
1.1925139
1.1925139
1.1925139
1.1925139
1.1925138
1.1925138
1.1925138
1.1925138
1.1925137
1.1925137
1.1925137
1.1925137
1.1925136
1.1925136
1.1925136
1.1925136
1.1925135
1.1925135
1.1925135
1.1925135
1.1925134
1.1925134
1.1925134
1.1925134
1.1925133
1.1925133
1.1925133
1.1925132
1.1925132
1.1925132
1.1925132
1.1925131
1.1925131
1.1925131
1.1925131
1.192513
1.192513
1.192513
1.192513
1.1925129
1.1925129
1.1925129
1.1925128
1.1925128
1.1925128
1.1925127
1.1925127
1.1925127
1.1925127
1.1925126
1.1925126
1.1925126
1.1925125
1.1925125
1.1925125
1.1925125
1.1925124
1.1925124
1.1925124
1.1925123
1.1925123
1.1925123
1.1925122
1.1925122
1.1925122
1.1925121
1.1925121
1.1925121
1.192512
1.192512
1.192512
1.1925119
1.1925119
1.1925119
1.1925118
1.1925118
1.1925118
1.1925117
1.1925117
1.1925117
1.1925116
1.1925116
1.1925116
1.1925115
1.1925115
1.1925115
1.1925114
1.1925114
1.1925114
1.1925113
1.1925113
1.1925113
1.1925112
1.1925112
1.1925112
1.1925111
1.1925111
1.1925111
1.192511
1.192511
1.192511
1.1925109
1.1925109
1.1925109
1.1925108
1.1925108
1.1925108
1.1925107
1.1925107
1.1925107
1.1925106
1.1925106
1.1925105
1.1925105
1.1925105
1.1925104
1.1925104
1.1925104
1.1925103
1.1925103
1.1925103
1.1925102
1.1925102
1.1925102
1.1925101
1.1925101
1.1925101
1.19251
1.19251
1.19251
1.1925099
1.1925099
1.1925099
1.1925098
1.1925098
1.1925098
1.1925097
1.1925097
1.1925097
1.1925097
1.1925096
1.1925096
1.1925096
1.1925095
1.1925095
1.1925095
1.1925094
1.1925094
1.1925094
1.1925094
1.1925093
1.1925093
1.1925093
1.1925092
1.1925092
1.1925092
1.1925092
1.1925091
1.1925091
1.1925091
1.1925091
1.192509
1.192509
1.192509
1.192509
1.1925089
1.1925089
1.1925089
1.1925089
1.1925088
1.1925088
1.1925088
1.1925088
1.1925087
1.1925087
1.1925087
1.1925087
1.1925087
1.1925086
1.1925086
1.1925086
1.1925086
1.1925085
1.1925085
1.1925085
1.1925085
1.1925085
1.1925084
1.1925084
1.1925084
1.1925084
1.1925084
1.1925083
1.1925083
1.1925083
1.1925083
1.1925083
1.1925082
1.1925082
1.1925082
1.1925082
1.1925082
1.1925081
1.1925081
1.1925081
1.1925081
1.1925081
1.192508
1.192508
1.192508
1.192508
1.1925079
1.1925079
1.1925079
1.1925079
1.1925079
1.1925078
1.1925078
1.1925078
1.1925078
1.1925077
1.1925077
1.1925077
1.1925077
1.1925076
1.1925076
1.1925076
1.1925076
1.1925075
1.1925075
1.1925075
1.1925075
1.1925074
1.1925074
1.1925074
1.1925073
1.1925073
1.1925073
1.1925072
1.1925072
1.1925072
1.1925071
1.1925071
1.1925071
1.192507
1.192507
1.192507
1.1925069
1.1925069
1.1925069
1.1925068
1.1925068
1.1925068
1.1925067
1.1925067
1.1925066
1.1925066
1.1925066
1.1925065
1.1925065
1.1925065
1.1925064
1.1925064
1.1925063
1.1925063
1.1925063
1.1925062
1.1925062
1.1925061
1.1925061
1.192506
1.192506
1.192506
1.1925059
1.1925059
1.1925058
1.1925058
1.1925057
1.1925057
1.1925057
1.1925056
1.1925056
1.1925055
1.1925055
1.1925054
1.1925054
1.1925053
1.1925053
1.1925053
1.1925052
1.1925052
1.1925051
1.1925051
1.192505
1.192505
1.1925049
1.1925049
1.1925049
1.1925048
1.1925048
1.1925047
1.1925047
1.1925046
1.1925046
1.1925046
1.1925045
1.1925045
1.1925044
1.1925044
1.1925044
1.1925043
1.1925043
1.1925042
1.1925042
1.1925042
1.1925041
1.1925041
1.192504
1.192504
1.192504
1.1925039
1.1925039
1.1925039
1.1925038
1.1925038
1.1925038
1.1925037
1.1925037
1.1925037
1.1925036
1.1925036
1.1925036
1.1925035
1.1925035
1.1925034
1.1925034
1.1925034
1.1925033
1.1925033
1.1925033
1.1925032
1.1925032
1.1925032
1.1925032
1.1925031
1.1925031
1.1925031
1.192503
1.192503
1.192503
1.1925029
1.1925029
1.1925029
1.1925029
1.1925028
1.1925028
1.1925028
1.1925027
1.1925027
1.1925027
1.1925027
1.1925026
1.1925026
1.1925026
1.1925026
1.1925025
1.1925025
1.1925025
1.1925024
1.1925024
1.1925024
1.1925024
1.1925023
1.1925023
1.1925023
1.1925022
1.1925022
1.1925022
1.1925022
1.1925021
1.1925021
1.1925021
1.192502
1.192502
1.192502
1.1925019
1.1925019
1.1925019
1.1925018
1.1925018
1.1925018
1.1925018
1.1925017
1.1925017
1.1925017
1.1925016
1.1925016
1.1925016
1.1925015
1.1925015
1.1925015
1.1925014
1.1925014
1.1925013
1.1925013
1.1925013
1.1925012
1.1925012
1.1925012
1.1925011
1.1925011
1.1925011
1.192501
1.192501
1.1925009
1.1925009
1.1925009
1.1925008
1.1925008
1.1925008
1.1925007
1.1925007
1.1925006
1.1925006
1.1925006
1.1925005
1.1925005
1.1925004
1.1925004
1.1925004
1.1925003
1.1925003
1.1925002
1.1925002
1.1925001
1.1925001
1.1925001
1.1925
1.1925
1.1924999
1.1924999
1.1924999
1.1924998
1.1924998
1.1924997
1.1924997
1.1924996
1.1924996
1.1924995
1.1924995
1.1924995
1.1924994
1.1924994
1.1924993
1.1924993
1.1924992
1.1924992
1.1924991
1.1924991
1.192499
1.192499
1.192499
1.1924989
1.1924989
1.1924988
1.1924988
1.1924987
1.1924987
1.1924986
1.1924986
1.1924986
1.1924985
1.1924985
1.1924984
1.1924984
1.1924983
1.1924983
1.1924982
1.1924982
1.1924981
1.1924981
1.1924981
1.192498
1.192498
1.1924979
1.1924979
1.1924978
1.1924978
1.1924977
1.1924977
1.1924977
1.1924976
1.1924976
1.1924975
1.1924975
1.1924974
1.1924974
1.1924973
1.1924973
1.1924973
1.1924972
1.1924972
1.1924971
1.1924971
1.192497
1.192497
1.1924969
1.1924969
1.1924969
1.1924968
1.1924968
1.1924967
1.1924967
1.1924966
1.1924966
1.1924966
1.1924965
1.1924965
1.1924964
1.1924964
1.1924963
1.1924963
1.1924962
1.1924962
1.1924962
1.1924961
1.1924961
1.192496
1.192496
1.1924959
1.1924959
1.1924958
1.1924958
1.1924958
1.1924957
1.1924957
1.1924956
1.1924956
1.1924955
1.1924955
1.1924954
1.1924954
1.1924953
1.1924953
1.1924952
1.1924952
1.1924952
1.1924951
1.1924951
1.192495
1.192495
1.1924949
1.1924949
1.1924948
1.1924948
1.1924947
1.1924947
1.1924946
1.1924946
1.1924946
1.1924945
1.1924945
1.1924944
1.1924944
1.1924943
1.1924943
1.1924942
1.1924942
1.1924941
1.1924941
1.192494
1.192494
1.1924939
1.1924939
1.1924938
1.1924938
1.1924937
1.1924937
1.1924936
1.1924936
1.1924935
1.1924935
1.1924934
1.1924934
1.1924933
1.1924933
1.1924932
1.1924932
1.1924931
1.1924931
1.192493
1.192493
1.1924929
1.1924929
1.1924928
1.1924928
1.1924927
1.1924927
1.1924926
1.1924926
1.1924925
1.1924925
1.1924924
1.1924924
1.1924923
1.1924923
1.1924922
1.1924922
1.1924921
1.192492
1.192492
1.1924919
1.1924919
1.1924918
1.1924918
1.1924917
1.1924917
1.1924916
1.1924916
1.1924915
1.1924914
1.1924914
1.1924913
1.1924913
1.1924912
1.1924912
1.1924911
1.1924911
1.192491
1.1924909
1.1924909
1.1924908
1.1924908
1.1924907
1.1924907
1.1924906
1.1924905
1.1924905
1.1924904
1.1924904
1.1924903
1.1924902
1.1924902
1.1924901
1.1924901
1.19249
1.1924899
1.1924899
1.1924898
1.1924897
1.1924897
1.1924896
1.1924895
1.1924895
1.1924894
1.1924894
1.1924893
1.1924892
1.1924892
1.1924891
1.192489
1.192489
1.1924889
1.1924888
1.1924888
1.1924887
1.1924886
1.1924886
1.1924885
1.1924884
1.1924883
1.1924883
1.1924882
1.1924881
1.1924881
1.192488
1.1924879
1.1924878
1.1924878
1.1924877
1.1924876
1.1924875
1.1924875
1.1924874
1.1924873
1.1924872
1.1924872
1.1924871
1.192487
1.1924869
1.1924868
1.1924868
1.1924867
1.1924866
1.1924865
1.1924864
1.1924864
1.1924863
1.1924862
1.1924861
1.192486
1.192486
1.1924859
1.1924858
1.1924857
1.1924856
1.1924855
1.1924855
1.1924854
1.1924853
1.1924852
1.1924851
1.192485
1.1924849
1.1924848
1.1924848
1.1924847
1.1924846
1.1924845
1.1924844
1.1924843
1.1924842
1.1924841
1.1924841
1.192484
1.1924839
1.1924838
1.1924837
1.1924836
1.1924835
1.1924834
1.1924833
1.1924832
1.1924831
1.192483
1.192483
1.1924829
1.1924828
1.1924827
1.1924826
1.1924825
1.1924824
1.1924823
1.1924822
1.1924821
1.192482
1.1924819
1.1924818
1.1924817
1.1924817
1.1924816
1.1924815
1.1924814
1.1924813
1.1924812
1.1924811
1.192481
1.1924809
1.1924808
1.1924807
1.1924806
1.1924805
1.1924804
1.1924803
1.1924802
1.1924801
1.19248
1.1924799
1.1924798
1.1924797
1.1924796
1.1924795
1.1924794
1.1924793
1.1924792
1.1924791
1.192479
1.1924789
1.1924788
1.1924787
1.1924786
1.1924785
1.1924784
1.1924783
1.1924782
1.1924781
1.192478
1.1924779
1.1924778
1.1924777
1.1924776
1.1924775
1.1924774
1.1924773
1.1924772
1.192477
1.1924769
1.1924768
1.1924767
1.1924766
1.1924765
1.1924764
1.1924763
1.1924761
1.192476
1.1924759
1.1924758
1.1924757
1.1924756
1.1924754
1.1924753
1.1924752
1.1924751
1.192475
1.1924748
1.1924747
1.1924746
1.1924745
1.1924743
1.1924742
1.1924741
1.192474
1.1924738
1.1924737
1.1924736
1.1924734
1.1924733
1.1924731
1.192473
1.1924729
1.1924727
1.1924726
1.1924725
1.1924723
1.1924722
1.192472
1.1924719
1.1924718
1.1924716
1.1924715
1.1924713
1.1924712
1.192471
1.1924709
1.1924707
1.1924706
1.1924704
1.1924703
1.1924701
1.19247
1.1924698
1.1924696
1.1924695
1.1924693
1.1924691
1.192469
1.1924688
1.1924686
1.1924684
1.1924683
1.1924681
1.1924679
1.1924677
1.1924675
1.1924674
1.1924672
1.192467
1.1924668
1.1924666
1.1924664
1.1924662
1.192466
1.1924658
1.1924656
1.1924654
1.1924652
1.192465
1.1924648
1.1924646
1.1924644
1.1924642
1.192464
1.1924638
1.1924636
1.1924634
1.1924632
1.1924629
1.1924627
1.1924625
1.1924623
1.192462
1.1924618
1.1924615
1.1924613
1.1924611
1.1924608
1.1924606
1.1924603
1.1924601
1.1924598
1.1924595
1.1924593
1.192459
1.1924588
1.1924585
1.1924582
1.192458
1.1924577
1.1924574
1.1924571
1.1924569
1.1924566
1.1924563
1.192456
1.1924557
1.1924554
1.1924551
1.1924548
1.1924545
1.1924542
1.1924539
1.1924535
1.1924532
1.1924529
1.1924525
1.1924522
1.1924518
1.1924515
1.1924511
1.1924508
1.1924504
1.1924501
1.1924497
1.1924493
1.1924489
1.1924485
1.1924482
1.1924478
1.1924474
1.192447
1.1924465
1.1924461
1.1924457
1.1924453
1.1924448
1.1924444
1.1924439
1.1924435
1.192443
1.1924426
1.1924421
1.1924416
1.1924412
1.1924407
1.1924402
1.1924397
1.1924392
1.1924387
1.1924382
1.1924377
1.1924372
1.1924367
1.1924362
1.1924358
1.1924353
1.1924348
1.1924343
1.1924338
1.1924334
1.192433
1.1924325
1.1924321
1.1924318
1.1924314
1.1924311
1.1924308
1.1924305
1.1924303
1.1924301
1.1924299
1.1924298
1.1924297
1.1924296
1.1924296
1.1924296
1.1924295
1.1924295
1.1924296
1.1924296
1.1924297
1.1924298
1.1924299
1.19243
1.1924301
1.1924301
1.1924301
1.1924301
1.1924301
1.1924301
1.19243
1.1924298
1.1924294
1.1924289
1.1924283
1.1924277
1.1924269
1.1924261
1.1924253
1.1924243
1.1924233
1.1924223
1.1924212
1.1924201
1.1924189
1.1924178
1.1924166
1.1924155
1.1924144
1.1924134
1.1924124
1.1924115
1.1924107
1.19241
1.1924094
1.1924089
1.1924085
1.1924082
1.192408
1.1924077
1.1924074
1.192407
1.1924063
1.1924053
1.1924034
1.1923997
1.1923914
1.1923715
1.1923227
1.1922014
1.1918997
1.1911548
1.1895337
1.1874014
1.1848056
1.1817952
1.17844
1.1748246
1.1710417
1.1671859
1.1633478
1.1596088
1.1560383
1.1526913
1.1496077
1.1468128
1.1443185
1.1421249
1.1402226
1.1385951
1.1372207
1.1360744
1.1351299
1.134361
1.1337422
1.1332498
1.1328625
1.1325613
1.1323297
1.1321536
1.1320214
1.1319234
1.1318518
1.1318001
1.1317636
1.1317383
1.1317212
1.1317101
1.1317033
1.1316994
1.1316975
1.1316969
1.1316968
1.1316972
1.131699
1.1317013
1.1317034
1.1317054
1.1317073
1.1317091
1.1317108
1.1317123
1.1317139
1.1317153
1.1317167
1.131718
1.1317194
1.1317207
1.131722
1.1317234
1.1317248
1.1317262
1.1317277
1.1317292
1.1317308
1.1317325
1.1317342
1.1317359
1.1317377
1.1317395
1.1317414
1.1317433
1.1317451
1.131747
1.1317488
1.1317506
1.1317524
1.1317541
1.1317557
1.1317573
1.1317589
1.1317604
1.1317618
1.1317631
1.1317644
1.1317656
1.1317667
1.1317678
1.1317689
1.1317699
1.1317708
1.1317717
1.1317726
1.1317734
1.1317741
1.1317749
1.1317756
1.1317763
1.131777
1.1317776
1.1317782
1.1317788
1.1317794
1.13178
1.1317805
1.1317811
1.1317816
1.1317821
1.1317826
1.1317831
1.1317835
1.131784
1.1317845
1.1317849
1.1317854
1.1317858
1.1317862
1.1317866
1.131787
1.1317874
1.1317878
1.1317882
1.1317886
1.131789
1.1317893
1.1317897
1.1317901
1.1317904
1.1317908
1.1317911
1.1317914
1.1317918
1.1317921
1.1317924
1.1317927
1.131793
1.1317934
1.1317937
1.131794
1.1317943
1.1317946
1.1317948
1.1317951
1.1317954
1.1317957
1.1317959
1.1317962
1.1317965
1.1317967
1.131797
1.1317972
1.1317975
1.1317977
1.131798
1.1317982
1.1317984
1.1317987
1.1317989
1.1317991
1.1317993
1.1317996
1.1317998
1.1318
1.1318002
1.1318004
1.1318006
1.1318009
1.1318011
1.1318013
1.1318015
1.1318017
1.1318019
1.1318021
1.1318023
1.1318024
1.1318026
1.1318028
1.131803
1.1318032
1.1318033
1.1318035
1.1318037
1.1318039
1.131804
1.1318042
1.1318044
1.1318046
1.1318047
1.1318049
1.131805
1.1318052
1.1318054
1.1318055
1.1318057
1.1318058
1.131806
1.1318061
1.1318063
1.1318064
1.1318066
1.1318067
1.1318068
1.131807
1.1318071
1.1318073
1.1318074
1.1318075
1.1318077
1.1318078
1.1318079
1.131808
1.1318082
1.1318083
1.1318084
1.1318086
1.1318087
1.1318088
1.1318089
1.131809
1.1318092
1.1318093
1.1318094
1.1318095
1.1318096
1.1318097
1.1318098
1.1318099
1.1318101
1.1318102
1.1318103
1.1318104
1.1318105
1.1318106
1.1318107
1.1318108
1.1318109
1.131811
1.1318111
1.1318112
1.1318113
1.1318114
1.1318115
1.1318116
1.1318117
1.1318118
1.1318119
1.131812
1.1318121
1.1318121
1.1318122
1.1318123
1.1318124
1.1318125
1.1318126