/*--------------------------------*- C++ -*----------------------------------*\
| =========                 |                                                 |
| \\      /  F ield         | OpenFOAM: The Open Source CFD Toolbox           |
|  \\    /   O peration     | Version:  4.x                                   |
|   \\  /    A nd           | Web:      www.OpenFOAM.org                      |
|    \\/     M anipulation  |                                                 |
\*---------------------------------------------------------------------------*/
FoamFile
{
    version     2.0;
    format      ascii;
    class       volScalarField;
    location    "0.69";
    object      rho;
}
// * * * * * * * * * * * * * * * * * * * * * * * * * * * * * * * * * * * * * //

dimensions      [1 -3 0 0 0 0 0];

internalField   nonuniform List<scalar> 
6279
(
1.158632384
1.158632447
1.1586326
1.15863275
1.158632934
1.158633247
1.158633535
1.158633577
1.158633345
1.158632917
1.158632491
1.158632152
1.158632105
1.158632255
1.158632472
1.158632666
1.15863285
1.158633022
1.158633056
1.15863287
1.158632465
1.158631988
1.158631612
1.158631413
1.158631873
1.158632057
1.158632271
1.158632493
1.158632664
1.158632734
1.158632673
1.158632425
1.158631959
1.158631425
1.158631017
1.158630797
1.158631613
1.158631799
1.158632012
1.158632235
1.158632432
1.15863254
1.158632511
1.158632284
1.158631844
1.158631312
1.158630859
1.158630584
1.158632341
1.158632398
1.158632575
1.158632758
1.158632995
1.158633338
1.158633624
1.158633663
1.158633449
1.15863301
1.158632551
1.158632217
1.158632096
1.158632226
1.158632494
1.158632662
1.158632903
1.158633116
1.158633195
1.158633063
1.1586327
1.158632206
1.158631788
1.158631561
1.158631902
1.158632054
1.158632308
1.158632508
1.158632718
1.158632826
1.15863282
1.158632634
1.158632215
1.158631691
1.158631248
1.158631004
1.158631695
1.158631869
1.15863209
1.158632306
1.158632514
1.158632624
1.158632624
1.158632444
1.158632048
1.158631542
1.158631095
1.158630777
1.158632313
1.158632396
1.15863257
1.158632778
1.158633077
1.158633422
1.158633693
1.158633745
1.158633574
1.158633161
1.158632682
1.158632314
1.158632101
1.158632239
1.1586325
1.158632701
1.158632986
1.15863322
1.158633343
1.158633258
1.158632951
1.158632471
1.158632023
1.158631733
1.158631927
1.158632102
1.15863234
1.158632573
1.158632803
1.158632947
1.158632984
1.15863284
1.158632476
1.158631974
1.158631515
1.158631246
1.15863177
1.158631949
1.158632184
1.158632413
1.158632596
1.158632722
1.158632746
1.158632603
1.158632258
1.15863179
1.158631335
1.158630984
1.158632307
1.158632417
1.158632599
1.158632844
1.158633162
1.158633476
1.158633734
1.158633808
1.158633666
1.158633288
1.158632824
1.158632432
1.158632109
1.158632277
1.158632519
1.158632782
1.158633045
1.158633302
1.158633465
1.158633414
1.158633164
1.158632732
1.158632289
1.158631963
1.158631989
1.158632175
1.15863239
1.158632636
1.158632877
1.158633075
1.158633154
1.158633045
1.158632733
1.158632279
1.158631819
1.158631518
1.158631862
1.158632059
1.158632258
1.158632489
1.158632697
1.158632856
1.158632904
1.158632788
1.158632485
1.158632077
1.15863163
1.158631257
1.158632328
1.158632474
1.158632682
1.158632933
1.158633227
1.158633522
1.158633768
1.158633856
1.158633756
1.158633444
1.15863299
1.158632561
1.158632157
1.158632321
1.158632554
1.158632831
1.158633106
1.158633378
1.158633555
1.158633534
1.158633342
1.158632952
1.158632509
1.15863216
1.158632046
1.158632235
1.15863243
1.15863269
1.158632948
1.158633172
1.15863328
1.158633196
1.158632924
1.158632507
1.158632069
1.158631729
1.158631954
1.158632139
1.158632325
1.15863255
1.158632778
1.158632955
1.158633016
1.158632917
1.158632651
1.15863228
1.158631849
1.158631465
1.158632496
1.158632669
1.158632858
1.158633093
1.158633329
1.15863354
1.158633762
1.158633894
1.158633866
1.158633693
1.158633352
1.158632961
1.158632357
1.158632502
1.158632715
1.158632983
1.158633239
1.158633485
1.158633678
1.158633729
1.158633635
1.158633372
1.158632979
1.158632632
1.158632235
1.158632399
1.158632599
1.158632849
1.158633106
1.158633341
1.158633487
1.158633473
1.158633306
1.158632998
1.158632627
1.158632277
1.158632183
1.158632327
1.158632533
1.15863275
1.158632979
1.158633169
1.158633272
1.15863322
1.158633032
1.158632727
1.158632378
1.158632009
1.158632343
1.158632489
1.158632699
1.158632967
1.158633217
1.158633469
1.158633705
1.158633793
1.158633726
1.158633462
1.158633052
1.158632682
1.158632183
1.158632349
1.158632554
1.158632827
1.158633107
1.15863337
1.15863357
1.158633603
1.158633458
1.158633126
1.158632705
1.158632332
1.158632054
1.158632231
1.158632437
1.158632701
1.15863298
1.158633223
1.158633368
1.158633338
1.158633127
1.158632783
1.158632396
1.158632036
1.158631941
1.158632141
1.158632374
1.158632611
1.158632861
1.158633073
1.158633181
1.158633106
1.158632889
1.158632546
1.158632181
1.158631786
1.158632046
1.158632141
1.158632363
1.158632662
1.158632976
1.158633296
1.158633532
1.158633549
1.158633358
1.158632939
1.15863249
1.158632161
1.158631867
1.158632031
1.158632267
1.158632503
1.15863281
1.15863312
1.158633312
1.158633288
1.158633063
1.158632644
1.158632171
1.158631829
1.15863172
1.158631898
1.158632112
1.158632373
1.158632688
1.158632959
1.158633096
1.158633014
1.158632731
1.158632319
1.158631932
1.158631616
1.158631583
1.158631805
1.158632052
1.158632321
1.158632615
1.158632862
1.158632964
1.158632851
1.158632573
1.158632175
1.158631825
1.158631521
1.15863172
1.158631845
1.158632056
1.158632363
1.158632708
1.158633025
1.158633233
1.158633229
1.158632983
1.158632504
1.158631997
1.158631617
1.158631481
1.158631586
1.158631828
1.158632196
1.158632539
1.158632876
1.158633059
1.158632983
1.158632607
1.15863204
1.158631649
1.15863142
1.158631352
1.158631477
1.158631768
1.158632114
1.158632459
1.158632752
1.158632884
1.158632756
1.158632358
1.158631903
1.158631562
1.158631382
1.158631336
1.158631488
1.158631764
1.158632072
1.158632407
1.158632675
1.158632772
1.158632628
1.158632314
1.15863194
1.158631615
1.158631433
1.15863114
1.158631157
1.15863139
1.158631775
1.158632211
1.158632573
1.158632779
1.158632667
1.158632171
1.158631572
1.158631126
1.15863101
1.158630997
1.158631055
1.158631271
1.158631561
1.158631958
1.15863234
1.158632514
1.158632341
1.158631884
1.158631414
1.158631081
1.158630963
1.158630999
1.158631067
1.158631194
1.15863145
1.158631808
1.15863214
1.158632292
1.158632148
1.15863181
1.158631436
1.158631172
1.158631073
1.158631116
1.158631071
1.158631142
1.158631366
1.158631713
1.158632023
1.158632183
1.158632122
1.158631892
1.158631557
1.158631311
1.158631293
1.158631119
1.158630577
1.158630709
1.158631062
1.158631478
1.158631879
1.158632126
1.158632042
1.158631618
1.158630867
1.158630383
1.158630755
1.158630739
1.158630227
1.158630416
1.15863083
1.158631289
1.158631702
1.158631903
1.158631737
1.158631185
1.158630481
1.158630165
1.1586306
1.158630552
1.158630083
1.158630194
1.158630583
1.158631044
1.158631455
1.158631626
1.158631419
1.158630928
1.158630361
1.158630121
1.158630535
1.158630553
1.15863013
1.158630172
1.158630454
1.158630861
1.158631224
1.158631398
1.15863127
1.158630898
1.158630457
1.158630282
1.158630642
1.158630961
1.158630559
1.1586306
1.158630869
1.158631254
1.158631584
1.158631776
1.158631749
1.158631489
1.158631142
1.158630923
1.158631146
1.158629875
1.158629912
1.158629524
1.158629892
1.158630374
1.158630857
1.158631105
1.158630935
1.158630284
1.158629528
1.158629612
1.158629533
1.15862968
1.158629732
1.158629413
1.158629724
1.158630125
1.158630594
1.15863079
1.158630554
1.158630003
1.15862945
1.158629621
1.158629546
1.158629779
1.158629968
1.158629716
1.15862955
1.158629786
1.158630232
1.158630413
1.158630187
1.15862994
1.158629885
1.158629991
1.158629753
1.158630129
1.158630198
1.158629828
1.158629631
1.1586298
1.158630095
1.158630278
1.158630241
1.158630145
1.158630231
1.158630347
1.158630159
1.158630487
1.158629992
1.158629534
1.158629436
1.158629574
1.158629743
1.158629888
1.15862999
1.158629962
1.158630032
1.158630256
1.158630555
1.158632029
1.158631773
1.158631526
1.158631301
1.158631677
1.158631391
1.158631209
1.15863111
1.158631585
1.158631321
1.158631217
1.15863119
1.158631734
1.158631554
1.158631576
1.158631662
1.158632208
1.158632147
1.158632212
1.158632259
1.158633314
1.158633286
1.158633294
1.15863331
1.158632024
1.158631766
1.15863158
1.15863137
1.158631695
1.158631436
1.158631249
1.158631185
1.158631592
1.158631352
1.158631222
1.158631215
1.158631699
1.158631514
1.158631503
1.158631591
1.158632151
1.158632075
1.15863212
1.158632182
1.158633267
1.158633234
1.158633238
1.158633271
1.158632033
1.158631819
1.158631645
1.158631438
1.158631749
1.158631499
1.158631328
1.158631242
1.158631614
1.158631371
1.158631234
1.158631236
1.158631661
1.158631486
1.158631413
1.158631472
1.158632035
1.158631942
1.158631955
1.158632017
1.158633142
1.158633123
1.158633152
1.158633183
1.158632085
1.158631887
1.158631705
1.158631545
1.158631805
1.158631568
1.158631399
1.158631297
1.158631617
1.158631414
1.158631276
1.158631269
1.158631642
1.158631463
1.158631381
1.158631465
1.158631953
1.158631844
1.158631863
1.15863202
1.158632973
1.158633009
1.158633054
1.158633233
1.158632181
1.158631955
1.158631791
1.158631671
1.158631903
1.15863164
1.158631491
1.158631389
1.158631659
1.158631428
1.15863129
1.158631277
1.158631562
1.158631374
1.1586313
1.158631345
1.158631672
1.158631556
1.158631577
1.158631645
1.158632524
1.158632516
1.158632584
1.158632533
1.158632364
1.15863215
1.158631972
1.158631852
1.158632014
1.158631761
1.158631609
1.15863155
1.158631713
1.158631483
1.158631388
1.158631417
1.158631492
1.158631359
1.158631314
1.158631492
1.158631638
1.158631621
1.158631671
1.158632219
1.158632608
1.158632972
1.158633294
1.158634432
1.158631304
1.158631479
1.158631716
1.158632036
1.158632348
1.158632569
1.158632649
1.15863251
1.158632101
1.15863156
1.158631093
1.1586308
1.158631111
1.158631227
1.158631467
1.15863184
1.158632247
1.158632577
1.158632791
1.158632782
1.158632429
1.158631914
1.158631467
1.158631153
1.158631157
1.158631204
1.158631362
1.158631667
1.158632104
1.158632533
1.158632815
1.15863287
1.158632599
1.158632159
1.158631745
1.158631448
1.158631556
1.158631395
1.158631403
1.158631584
1.158631935
1.158632356
1.158632661
1.158632724
1.158632531
1.158632196
1.158631858
1.158631611
1.158632122
1.158631857
1.158631686
1.158631719
1.158631944
1.158632235
1.158632416
1.15863248
1.158632439
1.158632271
1.158632098
1.158631976
1.158633235
1.158633068
1.158632904
1.158632831
1.158632863
1.158632934
1.158633027
1.158633108
1.158633162
1.158633145
1.158633169
1.158633197
1.158631362
1.158631589
1.158631839
1.158632137
1.158632426
1.158632631
1.158632695
1.158632558
1.158632162
1.158631646
1.158631199
1.158630907
1.158631176
1.158631336
1.158631606
1.158631918
1.158632293
1.158632608
1.158632793
1.158632753
1.158632422
1.158631946
1.158631524
1.158631269
1.158631207
1.158631265
1.15863143
1.158631702
1.158632126
1.158632543
1.1586328
1.158632834
1.158632583
1.158632185
1.158631803
1.158631552
1.158631503
1.158631381
1.158631417
1.158631587
1.158631928
1.158632346
1.158632646
1.158632714
1.158632531
1.158632211
1.158631907
1.158631707
1.158632053
1.158631802
1.158631674
1.158631707
1.158631932
1.158632226
1.158632416
1.158632479
1.158632448
1.158632301
1.158632127
1.158632029
1.158633195
1.158633009
1.158632861
1.158632779
1.158632808
1.15863289
1.158632992
1.158633073
1.158633132
1.158633143
1.158633154
1.158633194
1.158631464
1.158631718
1.158631966
1.158632222
1.158632498
1.158632702
1.15863277
1.158632645
1.158632296
1.158631839
1.1586314
1.158631032
1.158631267
1.158631439
1.158631679
1.158631999
1.158632356
1.158632644
1.158632803
1.158632742
1.15863243
1.158632003
1.158631583
1.158631304
1.158631242
1.158631298
1.158631491
1.158631789
1.158632177
1.158632555
1.158632788
1.158632794
1.15863256
1.158632181
1.158631814
1.158631588
1.158631425
1.15863136
1.158631433
1.158631614
1.158631943
1.15863234
1.158632639
1.158632695
1.158632522
1.158632216
1.158631917
1.158631709
1.158631924
1.158631719
1.158631602
1.158631646
1.15863187
1.158632168
1.158632363
1.158632436
1.158632406
1.158632258
1.15863209
1.158631995
1.158633108
1.158632924
1.158632745
1.158632669
1.158632694
1.158632779
1.158632873
1.158632956
1.158633028
1.158633048
1.158633081
1.158633122
1.158631605
1.158631801
1.158632074
1.158632328
1.158632596
1.158632806
1.158632883
1.158632761
1.158632456
1.158632043
1.158631603
1.158631247
1.158631356
1.158631531
1.158631778
1.158632086
1.158632423
1.158632703
1.158632832
1.158632745
1.158632458
1.158632053
1.158631645
1.158631367
1.158631291
1.158631367
1.158631568
1.158631859
1.15863223
1.158632581
1.158632787
1.158632766
1.158632526
1.158632164
1.158631813
1.158631609
1.158631443
1.158631382
1.158631463
1.158631629
1.158631935
1.158632324
1.158632615
1.158632663
1.158632487
1.158632196
1.158631922
1.158631771
1.158631936
1.158631681
1.158631605
1.158631661
1.158631873
1.158632144
1.158632343
1.158632428
1.158632393
1.158632278
1.158632125
1.158632102
1.158633157
1.158632833
1.158632667
1.15863256
1.15863259
1.15863268
1.158632781
1.15863287
1.158632931
1.158632996
1.158633037
1.158633208
1.158631705
1.158631905
1.15863216
1.158632427
1.158632702
1.158632913
1.158632989
1.15863286
1.158632593
1.158632182
1.158631782
1.158631424
1.158631432
1.15863161
1.158631866
1.158632169
1.158632496
1.15863276
1.158632866
1.158632758
1.158632493
1.158632096
1.15863172
1.158631424
1.158631316
1.158631414
1.158631616
1.158631911
1.158632275
1.158632601
1.158632772
1.158632723
1.158632486
1.158632128
1.158631789
1.158631574
1.158631356
1.158631347
1.158631415
1.158631595
1.158631924
1.158632289
1.158632548
1.158632576
1.158632402
1.158632124
1.158631847
1.158631677
1.1586316
1.158631465
1.158631404
1.158631485
1.15863171
1.158631981
1.158632184
1.158632275
1.158632239
1.158632101
1.158631945
1.158631835
1.158632484
1.158632375
1.158632196
1.158632149
1.158632189
1.158632288
1.158632402
1.158632503
1.158632575
1.158632595
1.158632616
1.158632547
1.158631906
1.158632142
1.15863238
1.158632633
1.158632898
1.1586331
1.158633182
1.158633072
1.158632859
1.158632512
1.158632151
1.15863177
1.158631626
1.158631811
1.158632053
1.158632324
1.158632601
1.158632818
1.158632899
1.158632789
1.158632561
1.158632208
1.158631876
1.15863161
1.158631482
1.15863155
1.158631734
1.158632014
1.158632342
1.158632615
1.15863275
1.158632683
1.158632458
1.158632148
1.158631843
1.158631661
1.158631513
1.158631394
1.158631463
1.158631613
1.15863188
1.15863218
1.158632399
1.158632435
1.158632304
1.158632106
1.15863185
1.158631818
1.158632156
1.158631589
1.158631524
1.158631539
1.15863172
1.158631964
1.158632159
1.158632259
1.158632303
1.158632273
1.158632118
1.158632436
1.158634196
1.158632907
1.158632536
1.158632117
1.158631956
1.158631977
1.158632069
1.158632184
1.158632463
1.158632947
1.158633268
1.158634382
1.158630623
1.158630762
1.158631145
1.158631728
1.158630895
1.158630865
1.158631091
1.158631493
1.158631286
1.158631205
1.158631266
1.158631531
1.158631485
1.15863147
1.158631563
1.158631733
1.158631875
1.158631857
1.158631921
1.158632062
1.158633185
1.158633105
1.158633098
1.158633174
1.15863078
1.158630943
1.158631281
1.158631787
1.15863103
1.158630996
1.158631189
1.158631494
1.158631385
1.158631274
1.158631294
1.158631486
1.158631581
1.158631526
1.158631559
1.158631659
1.15863196
1.158631917
1.158631939
1.158632016
1.158633189
1.15863312
1.158633099
1.158633123
1.158630963
1.15863115
1.158631433
1.158631883
1.15863113
1.158631127
1.158631259
1.158631538
1.158631428
1.158631276
1.158631296
1.158631449
1.158631593
1.158631505
1.158631507
1.158631561
1.15863194
1.158631874
1.15863187
1.15863191
1.158633131
1.158633062
1.158633008
1.158633012
1.158631192
1.158631339
1.158631621
1.158632008
1.15863125
1.158631238
1.158631344
1.158631575
1.158631476
1.158631315
1.158631316
1.158631424
1.158631671
1.158631517
1.158631466
1.158631498
1.158632045
1.158631881
1.158631832
1.158631814
1.158633203
1.158632996
1.15863294
1.158632855
1.158631336
1.158631497
1.158631778
1.158632168
1.158631301
1.158631308
1.15863143
1.158631695
1.158631434
1.158631309
1.158631316
1.158631443
1.158631574
1.158631411
1.15863134
1.158631393
1.158631765
1.158631645
1.15863155
1.158631533
1.158632536
1.158632541
1.158632453
1.158632417
1.158631639
1.158631876
1.158632167
1.158632516
1.158631434
1.15863149
1.158631638
1.158631879
1.158631465
1.158631346
1.158631369
1.15863149
1.158631643
1.15863133
1.15863127
1.158631299
1.15863232
1.158631687
1.158631555
1.158631476
1.158634336
1.158633187
1.158632878
1.158632463
1.158616978
1.158619581
1.158619327
1.158619228
1.158619266
1.158619275
1.158619273
1.158619301
1.158619382
1.158619675
1.158619967
1.158617258
1.158619905
1.1586247
1.15862541
1.158625743
1.15862595
1.158626055
1.158626103
1.158626115
1.158626096
1.158625928
1.158625128
1.158620079
1.158620103
1.158625932
1.158626887
1.158627374
1.158627735
1.158627911
1.158627957
1.158627939
1.158627795
1.158627375
1.158626068
1.158619943
1.158620288
1.158626668
1.158627814
1.158628503
1.158629047
1.158629168
1.158629092
1.158628958
1.158628628
1.158627888
1.158626322
1.158619689
1.158620437
1.158627042
1.158628404
1.158629191
1.15862974
1.158629865
1.158629783
1.158629551
1.158628965
1.158628045
1.158626336
1.158619596
1.158620403
1.158627066
1.158628422
1.158629149
1.158629707
1.158629973
1.158630003
1.158629748
1.158628947
1.15862792
1.158626269
1.15861958
1.158620206
1.158626816
1.158628024
1.158628617
1.158629226
1.158629784
1.158629989
1.158629649
1.15862865
1.158627661
1.158626202
1.158619585
1.158619956
1.158626419
1.158627495
1.158628014
1.158628737
1.158629412
1.158629653
1.158629229
1.158628199
1.158627363
1.158626137
1.158619646
1.158619826
1.158626108
1.158627079
1.158627564
1.158628201
1.158628845
1.158629042
1.158628604
1.158627765
1.158627064
1.158626007
1.158619705
1.158619992
1.158625821
1.158626734
1.15862708
1.158627563
1.158628071
1.158628263
1.158628009
1.158627518
1.158626932
1.158625844
1.158619977
1.158620162
1.158624965
1.158625684
1.158625957
1.158626267
1.158626565
1.158626747
1.158626729
1.158626469
1.158626057
1.158625102
1.15862019
1.158617388
1.15862005
1.158619771
1.158619584
1.158619678
1.158619824
1.158619974
1.1586201
1.158620107
1.158620213
1.158620279
1.158617443
1.158620591
1.158620684
1.158620652
1.158620805
1.158620995
1.158621089
1.158621095
1.158621054
1.158620975
1.158620948
1.158620959
1.158620752
1.158620862
1.15862332
1.158623717
1.158624151
1.158624422
1.158624561
1.158624611
1.158624589
1.1586245
1.158624194
1.158623702
1.158621013
1.158621147
1.158624203
1.15862497
1.158625573
1.158625974
1.158626185
1.158626231
1.158626205
1.15862601
1.158625432
1.158624342
1.158621129
1.158621633
1.158625039
1.158626032
1.158626805
1.158627421
1.158627612
1.158627542
1.158627387
1.158626963
1.158626099
1.15862473
1.158621246
1.158621994
1.158625511
1.158626687
1.158627612
1.158628286
1.158628481
1.158628389
1.15862811
1.1586274
1.158626321
1.158624811
1.158621316
1.158622069
1.158625595
1.158626773
1.158627666
1.158628348
1.158628662
1.158628677
1.158628343
1.158627398
1.158626222
1.158624792
1.158621364
1.158621885
1.15862535
1.158626366
1.15862713
1.158627846
1.158628458
1.158628665
1.158628229
1.158627098
1.158625977
1.15862476
1.158621378
1.158621592
1.158624958
1.158625831
1.158626521
1.158627294
1.15862802
1.158628257
1.158627743
1.158626657
1.158625693
1.158624701
1.158621362
1.158621345
1.158624613
1.158625383
1.158625988
1.158626661
1.158627319
1.158627523
1.158627056
1.158626203
1.158625396
1.158624531
1.158621263
1.15862119
1.15862417
1.158624872
1.158625364
1.158625875
1.158626385
1.158626582
1.158626322
1.158625779
1.158625072
1.158624193
1.158621194
1.158621097
1.158623625
1.158624036
1.158624438
1.158624773
1.158625078
1.158625262
1.158625225
1.158624924
1.158624379
1.158623742
1.158621136
1.158620835
1.158621039
1.158621029
1.15862113
1.158621359
1.158621567
1.158621708
1.158621741
1.158621568
1.158621341
1.15862118
1.158620856
1.158622242
1.158621424
1.158621434
1.158621598
1.15862177
1.158621878
1.158621888
1.158621835
1.158621764
1.158621698
1.158621654
1.158622303
1.158621571
1.158622575
1.158623078
1.158623473
1.158623735
1.158623868
1.158623913
1.158623909
1.158623825
1.158623523
1.158622904
1.158621707
1.158621877
1.15862354
1.158624244
1.158624745
1.158625069
1.158625256
1.158625307
1.158625317
1.158625196
1.158624701
1.158623675
1.158621863
1.158622365
1.158624347
1.158625213
1.158625934
1.15862645
1.158626621
1.158626557
1.15862644
1.158626115
1.158625281
1.158624047
1.158622015
1.15862271
1.158624831
1.158625794
1.158626652
1.158627245
1.158627419
1.158627316
1.158627059
1.158626444
1.158625426
1.158624138
1.158622081
1.158622801
1.158624909
1.158625868
1.158626701
1.158627291
1.158627576
1.158627588
1.158627252
1.158626406
1.158625302
1.158624111
1.158622134
1.158622627
1.158624663
1.158625462
1.158626168
1.158626784
1.158627363
1.158627567
1.158627141
1.158626104
1.158625072
1.158624093
1.158622148
1.158622332
1.158624289
1.158624989
1.158625605
1.158626244
1.158626943
1.158627178
1.158626673
1.158625721
1.158624846
1.158624045
1.15862212
1.158622112
1.15862396
1.15862465
1.158625179
1.158625707
1.158626334
1.158626543
1.158626117
1.158625397
1.158624669
1.158623877
1.158622036
1.158621925
1.158623543
1.158624215
1.158624621
1.158625005
1.158625472
1.158625676
1.158625465
1.15862502
1.158624402
1.158623569
1.158621921
1.158621781
1.158622902
1.15862341
1.158623774
1.158624097
1.158624388
1.158624571
1.158624555
1.158624251
1.158623739
1.158622997
1.158621816
1.158622321
1.158621727
1.158621772
1.158621906
1.158622118
1.158622328
1.158622458
1.158622474
1.158622309
1.158622047
1.158621851
1.158622348
1.158622278
1.158621664
1.15862144
1.158621517
1.158621644
1.158621742
1.158621756
1.15862172
1.158621687
1.158621686
1.158621855
1.158622364
1.158621788
1.158622287
1.158622669
1.158623015
1.158623269
1.158623426
1.158623471
1.158623446
1.158623363
1.15862309
1.158622612
1.158621899
1.158621819
1.158623105
1.158623864
1.158624356
1.158624638
1.15862482
1.158624868
1.158624895
1.158624811
1.158624317
1.158623229
1.158621804
1.15862218
1.158623863
1.158624824
1.158625498
1.158625932
1.158626081
1.158626017
1.158625937
1.15862569
1.158624895
1.158623578
1.15862189
1.158622472
1.158624332
1.158625378
1.158626149
1.158626615
1.158626745
1.158626639
1.158626423
1.158625932
1.158624997
1.158623668
1.158621935
1.158622557
1.158624461
1.15862545
1.15862618
1.158626619
1.158626861
1.158626875
1.158626565
1.158625861
1.158624863
1.158623667
1.158621965
1.158622404
1.158624212
1.158625037
1.158625643
1.158626114
1.15862664
1.158626837
1.158626448
1.158625564
1.158624638
1.15862365
1.158621979
1.158622149
1.15862382
1.158624589
1.158625115
1.158625604
1.158626255
1.158626486
1.158626023
1.158625221
1.158624449
1.158623586
1.158621958
1.158621983
1.158623513
1.158624298
1.158624782
1.158625202
1.158625788
1.158625992
1.158625606
1.158625
1.158624326
1.158623435
1.158621916
1.158621856
1.15862312
1.158623864
1.158624256
1.158624587
1.158625031
1.158625232
1.158625045
1.158624647
1.158624048
1.158623149
1.158621856
1.158621941
1.158622592
1.158622991
1.158623326
1.158623632
1.158623944
1.158624121
1.158624063
1.158623789
1.158623308
1.158622682
1.158621973
1.158622376
1.158621894
1.158621733
1.158621808
1.158621969
1.158622142
1.158622252
1.158622267
1.158622142
1.158621966
1.158622003
1.158622412
1.158622629
1.158622044
1.158621708
1.158621682
1.158621769
1.158621864
1.158621877
1.158621834
1.158621826
1.158621913
1.158622205
1.158622686
1.158622158
1.158622166
1.158622438
1.158622751
1.158623011
1.158623177
1.15862322
1.158623186
1.158623089
1.15862286
1.158622462
1.158622244
1.158622039
1.15862286
1.158623611
1.15862412
1.158624398
1.158624589
1.158624635
1.158624655
1.158624569
1.158624054
1.158622992
1.158622021
1.158622266
1.15862357
1.158624581
1.158625229
1.158625627
1.158625776
1.158625713
1.158625643
1.158625427
1.158624654
1.1586233
1.158622007
1.158622508
1.158624061
1.158625133
1.15862586
1.158626252
1.15862637
1.15862627
1.158626065
1.158625639
1.158624754
1.158623406
1.158622033
1.1586226
1.1586242
1.158625219
1.158625882
1.158626244
1.158626475
1.158626497
1.158626193
1.158625556
1.158624626
1.158623413
1.158622072
1.158622462
1.158623944
1.158624801
1.158625347
1.158625749
1.158626251
1.158626439
1.158626061
1.158625261
1.158624401
1.158623399
1.15862208
1.158622226
1.158623556
1.158624352
1.158624831
1.158625252
1.15862588
1.158626104
1.158625654
1.158624931
1.158624221
1.158623326
1.158622049
1.158622093
1.158623245
1.158624077
1.158624539
1.158624917
1.158625483
1.158625677
1.158625304
1.158624755
1.158624109
1.158623176
1.158622033
1.158622062
1.158622894
1.15862363
1.158624036
1.158624354
1.158624791
1.158624984
1.158624793
1.158624419
1.158623825
1.158622922
1.15862207
1.158622264
1.158622441
1.158622773
1.158623062
1.158623371
1.158623686
1.158623855
1.158623789
1.158623511
1.158623068
1.158622526
1.158622305
1.158622689
1.15862223
1.158621962
1.158621944
1.158622063
1.158622227
1.158622331
1.158622323
1.158622233
1.158622164
1.158622328
1.158622725
1.158622764
1.158622317
1.158622011
1.158621939
1.158621998
1.158622088
1.158622094
1.158622039
1.158622052
1.158622179
1.158622446
1.15862281
1.158622416
1.158622156
1.158622336
1.158622632
1.158622908
1.158623077
1.158623116
1.158623072
1.158622964
1.15862273
1.15862244
1.158622484
1.15862231
1.158622734
1.158623434
1.158623939
1.158624245
1.158624455
1.158624501
1.158624502
1.158624389
1.158623872
1.158622854
1.158622285
1.158622474
1.158623428
1.158624388
1.158625028
1.158625415
1.158625579
1.158625522
1.158625443
1.158625225
1.158624472
1.158623164
1.158622231
1.158622677
1.158623934
1.158624974
1.158625651
1.158626024
1.158626155
1.158626066
1.15862585
1.158625435
1.158624597
1.15862329
1.158622241
1.158622766
1.158624071
1.158625074
1.158625691
1.158626032
1.158626276
1.158626303
1.158625987
1.158625367
1.15862449
1.158623306
1.15862228
1.158622632
1.158623814
1.158624663
1.158625168
1.158625552
1.158626053
1.158626232
1.158625843
1.158625073
1.158624267
1.158623278
1.158622279
1.158622407
1.15862343
1.158624209
1.158624651
1.158625052
1.158625679
1.158625896
1.158625437
1.158624745
1.158624079
1.158623202
1.158622242
1.158622298
1.158623121
1.158623923
1.158624371
1.158624736
1.158625298
1.158625486
1.158625111
1.158624581
1.158623959
1.158623051
1.158622246
1.158622311
1.15862278
1.158623478
1.158623884
1.15862421
1.158624653
1.158624842
1.158624634
1.158624251
1.158623666
1.158622802
1.158622325
1.158622494
1.158622421
1.158622662
1.158622942
1.158623248
1.158623566
1.158623732
1.158623661
1.158623374
1.158622943
1.158622509
1.158622537
1.158622817
1.158622473
1.158622231
1.158622173
1.158622259
1.158622419
1.158622515
1.158622494
1.158622427
1.158622408
1.158622557
1.15862285
1.158622877
1.158622524
1.158622252
1.158622155
1.158622193
1.158622257
1.158622256
1.158622219
1.158622242
1.158622386
1.158622609
1.158622907
1.15862261
1.158622187
1.158622332
1.158622596
1.158622872
1.158623054
1.158623092
1.158623035
1.15862291
1.158622683
1.158622435
1.158622649
1.158622535
1.1586227
1.158623312
1.158623827
1.158624159
1.158624377
1.158624425
1.158624414
1.15862427
1.158623729
1.158622799
1.158622487
1.158622657
1.158623372
1.158624267
1.158624881
1.158625271
1.158625445
1.158625392
1.1586253
1.158625077
1.158624352
1.158623107
1.158622413
1.158622837
1.158623885
1.158624878
1.158625509
1.158625868
1.158626016
1.158625936
1.158625707
1.158625299
1.158624509
1.158623253
1.158622418
1.158622902
1.158624035
1.158624986
1.158625557
1.158625894
1.158626149
1.158626179
1.158625856
1.158625247
1.158624414
1.15862328
1.15862244
1.158622772
1.158623779
1.158624581
1.158625047
1.158625425
1.158625926
1.158626102
1.158625706
1.158624951
1.15862419
1.158623246
1.158622434
1.158622571
1.158623386
1.158624128
1.158624534
1.158624925
1.158625552
1.158625767
1.158625302
1.158624622
1.158623995
1.158623155
1.15862241
1.158622468
1.158623067
1.158623828
1.158624257
1.158624614
1.158625175
1.158625363
1.158624982
1.15862446
1.158623861
1.158623003
1.158622421
1.158622506
1.158622732
1.158623379
1.158623792
1.158624125
1.158624569
1.158624759
1.158624541
1.15862414
1.158623558
1.158622767
1.158622523
1.158622659
1.158622415
1.158622628
1.158622896
1.158623208
1.158623537
1.158623701
1.15862361
1.158623314
1.158622894
1.158622516
1.158622703
1.158622921
1.158622646
1.158622439
1.158622359
1.158622434
1.158622571
1.158622658
1.158622644
1.158622587
1.158622598
1.158622722
1.158622948
1.158622959
1.158622667
1.158622434
1.158622318
1.158622327
1.158622378
1.158622381
1.158622356
1.158622396
1.15862254
1.158622724
1.158622972
1.158622744
1.158622219
1.158622338
1.158622586
1.158622868
1.158623054
1.158623092
1.15862303
1.158622888
1.158622666
1.15862244
1.158622763
1.158622697
1.158622687
1.158623207
1.158623748
1.158624104
1.158624335
1.158624383
1.158624359
1.15862418
1.158623606
1.15862277
1.158622637
1.158622794
1.158623339
1.158624178
1.15862478
1.158625174
1.158625356
1.158625307
1.158625206
1.158624974
1.158624261
1.158623079
1.158622553
1.158622939
1.158623859
1.158624808
1.158625406
1.158625769
1.158625924
1.158625848
1.158625615
1.158625202
1.158624449
1.158623244
1.15862254
1.158622994
1.158624013
1.158624931
1.158625462
1.1586258
1.158626055
1.158626083
1.158625763
1.15862516
1.15862437
1.158623274
1.158622557
1.158622874
1.158623764
1.158624533
1.158624959
1.158625333
1.158625829
1.158626003
1.158625608
1.158624866
1.158624145
1.158623229
1.158622549
1.158622691
1.158623374
1.158624077
1.158624455
1.15862484
1.158625461
1.158625675
1.158625209
1.158624541
1.158623943
1.158623135
1.158622529
1.158622613
1.158623037
1.158623759
1.158624172
1.158624534
1.158625089
1.158625278
1.158624899
1.158624381
1.158623802
1.158622985
1.15862256
1.158622657
1.158622715
1.158623288
1.158623724
1.158624073
1.158624521
1.158624711
1.158624477
1.158624065
1.158623477
1.158622764
1.158622671
1.158622777