/*--------------------------------*- C++ -*----------------------------------*\
  =========                 |
  \\      /  F ield         | OpenFOAM: The Open Source CFD Toolbox
   \\    /   O peration     | Website:  https://openfoam.org
    \\  /    A nd           | Version:  7
     \\/     M anipulation  |
\*---------------------------------------------------------------------------*/
FoamFile
{
    version     2.0;
    format      ascii;
    class       surfaceScalarField;
    location    "0.00268";
    object      phi;
}
// * * * * * * * * * * * * * * * * * * * * * * * * * * * * * * * * * * * * * //

dimensions      [1 0 -1 0 0 0 0];

internalField   nonuniform List<scalar> 
4999
(
0.0037715908
0.0037715767
0.0037715639
0.0037715506
0.0037715373
0.0037715238
0.0037715102
0.0037714966
0.0037714829
0.0037714692
0.0037714555
0.0037714417
0.003771428
0.0037714144
0.0037714007
0.0037713871
0.0037713735
0.0037713599
0.0037713464
0.0037713329
0.0037713195
0.0037713061
0.0037712927
0.0037712794
0.0037712661
0.0037712528
0.0037712396
0.0037712264
0.0037712133
0.0037712002
0.0037711871
0.0037711741
0.0037711611
0.0037711481
0.0037711352
0.0037711223
0.0037711095
0.0037710967
0.003771084
0.0037710713
0.0037710586
0.003771046
0.0037710334
0.0037710209
0.0037710084
0.003770996
0.0037709836
0.0037709712
0.0037709589
0.0037709467
0.0037709345
0.0037709223
0.0037709102
0.0037708981
0.0037708861
0.0037708742
0.0037708622
0.0037708504
0.0037708386
0.0037708268
0.0037708151
0.0037708035
0.003770792
0.0037707805
0.003770769
0.0037707576
0.0037707463
0.003770735
0.0037707237
0.0037707125
0.0037707014
0.0037706903
0.0037706793
0.0037706684
0.0037706575
0.0037706466
0.0037706358
0.0037706251
0.0037706144
0.0037706038
0.0037705932
0.0037705827
0.0037705723
0.0037705619
0.0037705516
0.0037705413
0.0037705311
0.0037705209
0.0037705108
0.0037705008
0.0037704908
0.0037704809
0.003770471
0.0037704612
0.0037704514
0.0037704417
0.0037704321
0.0037704225
0.0037704129
0.0037704034
0.003770394
0.0037703846
0.0037703753
0.003770366
0.0037703568
0.0037703476
0.0037703385
0.0037703294
0.0037703204
0.0037703114
0.0037703025
0.0037702936
0.0037702848
0.0037702761
0.0037702674
0.0037702587
0.0037702501
0.0037702415
0.003770233
0.0037702246
0.0037702161
0.0037702078
0.0037701995
0.0037701912
0.003770183
0.0037701748
0.0037701667
0.0037701586
0.0037701505
0.0037701425
0.0037701346
0.0037701266
0.0037701188
0.0037701109
0.0037701032
0.0037700954
0.0037700877
0.00377008
0.0037700724
0.0037700648
0.0037700572
0.0037700497
0.0037700422
0.0037700348
0.0037700273
0.00377002
0.0037700126
0.0037700053
0.003769998
0.0037699908
0.0037699836
0.0037699764
0.0037699693
0.0037699622
0.0037699551
0.003769948
0.003769941
0.003769934
0.0037699271
0.0037699202
0.0037699133
0.0037699065
0.0037698996
0.0037698929
0.0037698861
0.0037698794
0.0037698727
0.003769866
0.0037698594
0.0037698528
0.0037698463
0.0037698398
0.0037698333
0.0037698268
0.0037698204
0.003769814
0.0037698076
0.0037698012
0.0037697949
0.0037697886
0.0037697824
0.0037697762
0.00376977
0.0037697638
0.0037697577
0.0037697516
0.0037697455
0.0037697394
0.0037697334
0.0037697274
0.0037697215
0.0037697155
0.0037697096
0.0037697038
0.0037696979
0.0037696921
0.0037696863
0.0037696806
0.0037696748
0.0037696691
0.0037696634
0.0037696578
0.0037696522
0.0037696466
0.003769641
0.0037696355
0.00376963
0.0037696245
0.0037696191
0.0037696137
0.0037696083
0.0037696029
0.0037695976
0.0037695923
0.003769587
0.0037695817
0.0037695765
0.0037695713
0.0037695662
0.003769561
0.0037695559
0.0037695508
0.0037695457
0.0037695407
0.0037695357
0.0037695307
0.0037695258
0.0037695208
0.0037695159
0.0037695111
0.0037695063
0.0037695015
0.0037694967
0.003769492
0.0037694872
0.0037694825
0.0037694779
0.0037694732
0.0037694686
0.0037694641
0.0037694595
0.003769455
0.0037694505
0.0037694461
0.0037694416
0.0037694372
0.0037694329
0.0037694285
0.0037694242
0.0037694199
0.0037694156
0.0037694114
0.0037694072
0.003769403
0.0037693989
0.0037693947
0.0037693906
0.0037693866
0.0037693825
0.0037693785
0.0037693746
0.0037693706
0.0037693667
0.0037693628
0.003769359
0.0037693551
0.0037693513
0.0037693476
0.0037693439
0.0037693402
0.0037693365
0.0037693329
0.0037693293
0.0037693258
0.0037693222
0.0037693188
0.0037693153
0.0037693119
0.0037693085
0.0037693051
0.0037693017
0.0037692984
0.0037692952
0.0037692919
0.0037692887
0.0037692855
0.0037692823
0.0037692792
0.0037692761
0.0037692731
0.0037692701
0.0037692671
0.0037692641
0.0037692611
0.0037692582
0.0037692553
0.0037692525
0.0037692497
0.003769247
0.0037692442
0.0037692416
0.0037692389
0.0037692362
0.0037692336
0.003769231
0.0037692285
0.003769226
0.0037692236
0.0037692212
0.0037692188
0.0037692165
0.0037692142
0.0037692119
0.0037692097
0.0037692075
0.0037692054
0.0037692033
0.0037692012
0.0037691992
0.0037691972
0.0037691952
0.0037691933
0.0037691914
0.0037691895
0.0037691877
0.003769186
0.0037691842
0.0037691825
0.0037691809
0.0037691793
0.0037691777
0.0037691761
0.0037691746
0.0037691732
0.0037691718
0.0037691704
0.0037691691
0.0037691678
0.0037691665
0.0037691653
0.0037691642
0.003769163
0.0037691619
0.0037691609
0.0037691599
0.0037691589
0.003769158
0.0037691571
0.0037691563
0.0037691555
0.0037691548
0.0037691541
0.0037691534
0.0037691528
0.0037691522
0.0037691517
0.0037691512
0.0037691508
0.0037691504
0.0037691501
0.0037691498
0.0037691495
0.0037691493
0.0037691491
0.003769149
0.0037691489
0.0037691489
0.0037691489
0.003769149
0.0037691491
0.0037691493
0.0037691495
0.0037691497
0.00376915
0.0037691504
0.0037691508
0.0037691512
0.0037691517
0.0037691522
0.0037691528
0.0037691534
0.0037691541
0.0037691549
0.0037691556
0.0037691565
0.0037691573
0.0037691582
0.0037691592
0.0037691602
0.0037691613
0.0037691624
0.0037691635
0.0037691647
0.003769166
0.0037691673
0.0037691686
0.00376917
0.0037691715
0.003769173
0.0037691746
0.0037691762
0.0037691779
0.0037691796
0.0037691814
0.0037691832
0.0037691851
0.003769187
0.003769189
0.0037691909
0.003769193
0.0037691952
0.0037691975
0.0037691999
0.0037692023
0.0037692047
0.0037692071
0.0037692096
0.0037692122
0.0037692148
0.0037692175
0.0037692202
0.003769223
0.0037692259
0.0037692288
0.0037692318
0.0037692349
0.003769238
0.0037692411
0.0037692443
0.0037692476
0.0037692509
0.0037692543
0.0037692577
0.0037692612
0.0037692647
0.0037692683
0.0037692719
0.0037692756
0.0037692793
0.0037692831
0.0037692869
0.0037692908
0.0037692948
0.0037692988
0.0037693029
0.003769307
0.0037693112
0.0037693154
0.0037693197
0.0037693241
0.0037693285
0.003769333
0.0037693375
0.0037693421
0.0037693467
0.0037693514
0.0037693561
0.0037693609
0.0037693657
0.0037693706
0.0037693756
0.0037693806
0.0037693857
0.0037693908
0.0037693959
0.0037694012
0.0037694064
0.0037694118
0.0037694171
0.0037694226
0.003769428
0.0037694336
0.0037694392
0.0037694448
0.0037694505
0.0037694562
0.003769462
0.0037694678
0.0037694737
0.0037694796
0.0037694856
0.0037694917
0.0037694977
0.0037695039
0.00376951
0.0037695162
0.0037695225
0.0037695288
0.0037695352
0.0037695415
0.003769548
0.0037695545
0.003769561
0.0037695676
0.0037695742
0.0037695808
0.0037695875
0.0037695942
0.003769601
0.0037696078
0.0037696147
0.0037696216
0.0037696285
0.0037696355
0.0037696425
0.0037696496
0.0037696567
0.0037696638
0.003769671
0.0037696782
0.0037696855
0.0037696928
0.0037697002
0.0037697076
0.003769715
0.0037697224
0.0037697299
0.0037697375
0.0037697451
0.0037697527
0.0037697603
0.003769768
0.0037697757
0.0037697835
0.0037697912
0.003769799
0.0037698069
0.0037698147
0.0037698226
0.0037698305
0.0037698384
0.0037698464
0.0037698544
0.0037698623
0.0037698704
0.0037698784
0.0037698865
0.0037698946
0.0037699027
0.0037699109
0.0037699191
0.0037699273
0.0037699356
0.0037699439
0.0037699523
0.0037699607
0.0037699691
0.0037699776
0.0037699861
0.0037699947
0.0037700032
0.0037700119
0.0037700205
0.0037700292
0.0037700379
0.0037700467
0.0037700555
0.0037700643
0.0037700732
0.0037700822
0.0037700912
0.0037701003
0.0037701094
0.0037701185
0.0037701277
0.003770137
0.0037701463
0.0037701556
0.003770165
0.0037701744
0.0037701839
0.0037701934
0.003770203
0.0037702126
0.0037702222
0.0037702319
0.0037702417
0.0037702515
0.0037702613
0.0037702711
0.003770281
0.003770291
0.0037703009
0.0037703109
0.003770321
0.003770331
0.0037703412
0.0037703513
0.0037703615
0.0037703718
0.0037703821
0.0037703924
0.0037704028
0.0037704132
0.0037704237
0.0037704343
0.0037704449
0.0037704555
0.0037704662
0.0037704769
0.0037704877
0.0037704985
0.0037705094
0.0037705203
0.0037705313
0.0037705424
0.0037705535
0.0037705647
0.0037705759
0.0037705872
0.0037705985
0.0037706099
0.0037706213
0.0037706328
0.0037706443
0.0037706558
0.0037706674
0.0037706791
0.0037706908
0.0037707026
0.0037707144
0.0037707262
0.0037707381
0.0037707501
0.0037707621
0.0037707742
0.0037707863
0.0037707984
0.0037708106
0.0037708229
0.0037708352
0.0037708476
0.00377086
0.0037708724
0.003770885
0.0037708975
0.0037709101
0.0037709228
0.0037709355
0.0037709483
0.0037709612
0.0037709741
0.0037709871
0.0037710001
0.0037710132
0.0037710263
0.0037710396
0.0037710528
0.0037710662
0.0037710796
0.0037710931
0.0037711067
0.0037711203
0.0037711339
0.0037711477
0.0037711615
0.0037711753
0.0037711892
0.0037712031
0.0037712171
0.0037712312
0.0037712453
0.0037712595
0.0037712737
0.003771288
0.0037713024
0.0037713168
0.0037713313
0.0037713458
0.0037713604
0.0037713751
0.0037713898
0.0037714045
0.0037714193
0.0037714342
0.0037714492
0.0037714643
0.0037714794
0.0037714946
0.0037715099
0.0037715252
0.0037715407
0.0037715562
0.0037715718
0.0037715875
0.0037716032
0.0037716191
0.003771635
0.003771651
0.003771667
0.0037716832
0.0037716994
0.0037717157
0.0037717321
0.0037717485
0.0037717651
0.0037717817
0.0037717984
0.0037718152
0.003771832
0.003771849
0.0037718659
0.003771883
0.0037719001
0.0037719173
0.0037719345
0.0037719518
0.0037719692
0.0037719866
0.0037720041
0.0037720217
0.0037720393
0.0037720569
0.0037720747
0.0037720925
0.0037721103
0.0037721282
0.0037721462
0.0037721643
0.0037721824
0.0037722006
0.0037722189
0.0037722372
0.0037722557
0.0037722742
0.0037722928
0.0037723115
0.0037723303
0.0037723491
0.0037723681
0.0037723871
0.0037724062
0.0037724254
0.0037724446
0.003772464
0.0037724834
0.0037725029
0.0037725225
0.0037725422
0.003772562
0.0037725818
0.0037726018
0.0037726218
0.0037726419
0.0037726621
0.0037726824
0.0037727027
0.0037727232
0.0037727437
0.0037727643
0.003772785
0.0037728057
0.0037728265
0.0037728475
0.0037728684
0.0037728895
0.0037729106
0.0037729318
0.0037729531
0.0037729744
0.0037729959
0.0037730174
0.003773039
0.0037730606
0.0037730824
0.0037731042
0.0037731261
0.003773148
0.0037731701
0.0037731922
0.0037732144
0.0037732367
0.0037732591
0.0037732815
0.0037733041
0.0037733267
0.0037733494
0.0037733722
0.003773395
0.003773418
0.003773441
0.0037734641
0.0037734873
0.0037735106
0.0037735339
0.0037735574
0.0037735809
0.0037736045
0.0037736282
0.003773652
0.0037736759
0.0037736999
0.0037737241
0.0037737483
0.0037737726
0.0037737971
0.0037738216
0.0037738463
0.0037738711
0.003773896
0.0037739209
0.0037739461
0.0037739713
0.0037739966
0.003774022
0.0037740475
0.003774073
0.0037740987
0.0037741245
0.0037741503
0.0037741762
0.0037742023
0.0037742284
0.0037742547
0.003774281
0.0037743074
0.003774334
0.0037743606
0.0037743874
0.0037744143
0.0037744412
0.0037744683
0.0037744955
0.0037745228
0.0037745503
0.0037745778
0.0037746055
0.0037746332
0.0037746611
0.0037746891
0.0037747171
0.0037747452
0.0037747734
0.0037748016
0.0037748299
0.0037748583
0.0037748867
0.0037749152
0.0037749438
0.0037749725
0.0037750013
0.0037750302
0.0037750592
0.0037750883
0.0037751175
0.0037751468
0.0037751761
0.0037752056
0.0037752351
0.0037752648
0.0037752945
0.0037753244
0.0037753544
0.0037753845
0.0037754147
0.003775445
0.0037754755
0.0037755061
0.0037755367
0.0037755675
0.0037755984
0.0037756294
0.0037756605
0.0037756917
0.003775723
0.0037757544
0.0037757859
0.0037758175
0.0037758492
0.003775881
0.0037759129
0.0037759449
0.003775977
0.0037760092
0.0037760415
0.003776074
0.0037761065
0.0037761391
0.0037761717
0.0037762045
0.0037762374
0.0037762705
0.0037763037
0.003776337
0.0037763702
0.0037764035
0.003776437
0.0037764706
0.0037765044
0.0037765383
0.0037765724
0.0037766066
0.003776641
0.0037766754
0.00377671
0.0037767448
0.0037767797
0.0037768147
0.0037768498
0.0037768851
0.0037769206
0.0037769562
0.0037769919
0.0037770278
0.0037770638
0.0037770999
0.0037771363
0.0037771727
0.0037772093
0.0037772461
0.003777283
0.0037773201
0.0037773574
0.0037773948
0.0037774323
0.00377747
0.0037775079
0.0037775459
0.0037775841
0.0037776224
0.003777661
0.0037776997
0.0037777385
0.0037777776
0.0037778167
0.0037778561
0.0037778957
0.0037779354
0.0037779752
0.0037780153
0.0037780555
0.0037780959
0.0037781365
0.0037781773
0.0037782182
0.0037782593
0.0037783006
0.0037783421
0.0037783837
0.0037784256
0.0037784676
0.0037785098
0.0037785522
0.0037785948
0.0037786376
0.0037786805
0.0037787237
0.003778767
0.0037788106
0.0037788543
0.0037788982
0.0037789423
0.0037789866
0.0037790311
0.0037790758
0.0037791207
0.0037791658
0.0037792111
0.0037792566
0.0037793023
0.0037793482
0.0037793943
0.0037794406
0.0037794871
0.0037795338
0.0037795808
0.0037796279
0.0037796752
0.0037797228
0.0037797705
0.0037798185
0.0037798667
0.0037799151
0.0037799637
0.0037800125
0.0037800615
0.0037801108
0.0037801603
0.00378021
0.0037802599
0.00378031
0.0037803604
0.0037804109
0.0037804617
0.0037805128
0.003780564
0.0037806155
0.0037806672
0.0037807191
0.0037807713
0.0037808237
0.0037808763
0.0037809292
0.0037809823
0.0037810356
0.0037810891
0.0037811429
0.003781197
0.0037812512
0.0037813058
0.0037813605
0.0037814155
0.0037814707
0.0037815262
0.003781582
0.0037816379
0.0037816942
0.0037817506
0.0037818074
0.0037818644
0.0037819216
0.0037819791
0.0037820368
0.0037820948
0.0037821531
0.0037822116
0.0037822704
0.0037823295
0.0037823888
0.0037824483
0.0037825082
0.0037825683
0.0037826287
0.0037826893
0.0037827502
0.0037828114
0.0037828729
0.0037829347
0.0037829967
0.003783059
0.0037831216
0.0037831845
0.0037832477
0.0037833111
0.0037833749
0.0037834389
0.0037835033
0.0037835679
0.0037836328
0.0037836981
0.0037837636
0.0037838294
0.0037838956
0.003783962
0.0037840288
0.0037840958
0.0037841632
0.0037842309
0.0037842989
0.0037843673
0.0037844359
0.0037845049
0.0037845742
0.0037846439
0.0037847139
0.0037847842
0.0037848549
0.0037849259
0.0037849973
0.003785069
0.003785141
0.0037852134
0.0037852862
0.0037853594
0.0037854328
0.0037855067
0.003785581
0.0037856556
0.0037857306
0.0037858059
0.0037858817
0.0037859578
0.0037860344
0.0037861113
0.0037861887
0.0037862664
0.0037863446
0.0037864232
0.0037865022
0.0037865816
0.0037866615
0.0037867418
0.0037868225
0.0037869037
0.0037869853
0.0037870674
0.0037871499
0.0037872329
0.0037873164
0.0037874004
0.0037874848
0.0037875697
0.0037876551
0.003787741
0.0037878274
0.0037879143
0.0037880018
0.0037880897
0.0037881782
0.0037882673
0.0037883569
0.003788447
0.0037885377
0.0037886289
0.0037887207
0.0037888131
0.0037889061
0.0037889997
0.0037890938
0.0037891886
0.003789284
0.00378938
0.0037894767
0.003789574
0.0037896719
0.0037897705
0.0037898698
0.0037899698
0.0037900704
0.0037901717
0.0037902737
0.0037903765
0.0037904799
0.0037905841
0.003790689
0.0037907947
0.0037909011
0.0037910083
0.0037911163
0.0037912251
0.0037913346
0.003791445
0.0037915562
0.0037916682
0.0037917811
0.0037918948
0.0037920094
0.0037921249
0.0037922413
0.0037923585
0.0037924767
0.0037925958
0.0037927158
0.0037928367
0.0037929587
0.0037930815
0.0037932054
0.0037933303
0.0037934561
0.003793583
0.0037937109
0.0037938399
0.0037939699
0.003794101
0.0037942331
0.0037943664
0.0037945008
0.0037946363
0.0037947729
0.0037949107
0.0037950496
0.0037951898
0.0037953311
0.0037954736
0.0037956174
0.0037957623
0.0037959086
0.003796056
0.0037962048
0.0037963548
0.0037965062
0.0037966589
0.0037968129
0.0037969683
0.003797125
0.0037972831
0.0037974426
0.0037976035
0.0037977659
0.0037979297
0.0037980949
0.0037982616
0.0037984298
0.0037985995
0.0037987707
0.0037989435
0.0037991178
0.0037992937
0.0037994711
0.0037996502
0.0037998308
0.0038000131
0.0038001971
0.0038003827
0.00380057
0.003800759
0.0038009496
0.0038011421
0.0038013362
0.0038015322
0.0038017298
0.0038019293
0.0038021306
0.0038023338
0.0038025387
0.0038027455
0.0038029542
0.0038031648
0.0038033773
0.0038035917
0.0038038081
0.0038040264
0.0038042468
0.0038044691
0.0038046934
0.0038049197
0.0038051481
0.0038053785
0.003805611
0.0038058456
0.0038060823
0.0038063212
0.0038065622
0.0038068053
0.0038070506
0.0038072982
0.0038075479
0.0038077999
0.0038080541
0.0038083106
0.0038085693
0.0038088304
0.0038090937
0.0038093594
0.0038096275
0.0038098979
0.0038101707
0.0038104459
0.0038107236
0.0038110036
0.0038112861
0.0038115711
0.0038118586
0.0038121486
0.003812441
0.0038127361
0.0038130337
0.0038133338
0.0038136366
0.0038139419
0.0038142499
0.0038145605
0.0038148738
0.0038151898
0.0038155084
0.0038158298
0.0038161539
0.0038164807
0.0038168103
0.0038171427
0.0038174779
0.0038178159
0.0038181567
0.0038185004
0.003818847
0.0038191964
0.0038195488
0.003819904
0.0038202623
0.0038206234
0.0038209876
0.0038213547
0.0038217249
0.0038220981
0.0038224743
0.0038228536
0.003823236
0.0038236215
0.0038240102
0.0038244019
0.0038247969
0.0038251949
0.0038255962
0.0038260007
0.0038264085
0.0038268195
0.0038272338
0.0038276513
0.0038280722
0.0038284964
0.003828924
0.0038293549
0.0038297892
0.0038302269
0.0038306681
0.0038311126
0.0038315607
0.0038320123
0.0038324673
0.0038329259
0.003833388
0.0038338538
0.0038343231
0.003834796
0.0038352725
0.0038357527
0.0038362366
0.0038367242
0.0038372155
0.0038377105
0.0038382093
0.0038387119
0.0038392184
0.0038397286
0.0038402427
0.0038407607
0.0038412826
0.0038418084
0.0038423382
0.0038428719
0.0038434097
0.0038439514
0.0038444973
0.0038450472
0.0038456012
0.0038461594
0.0038467217
0.0038472882
0.0038478589
0.0038484338
0.0038490131
0.0038495966
0.0038501844
0.0038507766
0.0038513732
0.0038519743
0.0038525797
0.0038531897
0.0038538041
0.0038544232
0.0038550467
0.0038556749
0.0038563078
0.0038569453
0.0038575876
0.0038582346
0.0038588864
0.003859543
0.0038602045
0.0038608709
0.0038615423
0.0038622186
0.0038629
0.0038635865
0.0038642781
0.0038649749
0.0038656769
0.0038663841
0.0038670967
0.0038678146
0.0038685379
0.0038692667
0.0038700011
0.003870741
0.0038714865
0.0038722377
0.0038729947
0.0038737575
0.0038745262
0.0038753008
0.0038760814
0.0038768681
0.003877661
0.00387846
0.0038792654
0.0038800772
0.0038808954
0.0038817202
0.0038825516
0.0038833897
0.0038842347
0.0038850865
0.0038859454
0.0038868113
0.0038876845
0.003888565
0.0038894529
0.0038903484
0.0038912515
0.0038921624
0.0038930812
0.0038940081
0.0038949432
0.0038958865
0.0038968384
0.0038977989
0.0038987682
0.0038997464
0.0039007337
0.0039017304
0.0039027365
0.0039037522
0.0039047779
0.0039058135
0.0039068595
0.003907916
0.0039089831
0.0039100612
0.0039111506
0.0039122513
0.0039133638
0.0039144882
0.0039156249
0.0039167742
0.0039179363
0.0039191116
0.0039203004
0.003921503
0.0039227198
0.0039239511
0.0039251974
0.0039264589
0.0039277362
0.0039290297
0.0039303397
0.0039316668
0.0039330114
0.003934374
0.0039357551
0.0039371552
0.0039385749
0.0039400147
0.0039414753
0.0039429572
0.0039444611
0.0039459875
0.0039475373
0.0039491111
0.0039507096
0.0039523336
0.0039539838
0.0039556611
0.0039573663
0.0039591003
0.003960864
0.0039626583
0.0039644842
0.0039663426
0.0039682347
0.0039701615
0.0039721241
0.0039741237
0.0039761613
0.0039782384
0.0039803562
0.0039825159
0.003984719
0.0039869668
0.0039892608
0.0039916026
0.0039939937
0.0039964358
0.0039989304
0.0040014793
0.0040040843
0.0040067473
0.0040094702
0.0040122549
0.0040151034
0.004018018
0.0040210007
0.0040240538
0.0040271796
0.0040303806
0.0040336591
0.0040370178
0.0040404592
0.0040439861
0.0040476014
0.0040513078
0.0040551083
0.0040590061
0.0040630043
0.0040671062
0.0040713152
0.0040756347
0.0040800683
0.0040846196
0.0040892926
0.0040940911
0.0040990192
0.0041040809
0.0041092806
0.0041146228
0.0041201118
0.0041257524
0.0041315494
0.0041375077
0.0041436325
0.0041499288
0.0041564022
0.0041630582
0.0041699023
0.0041769406
0.0041841789
0.0041916235
0.0041992806
0.0042071569
0.004215259
0.0042235938
0.0042321683
0.0042409899
0.0042500659
0.004259404
0.004269012
0.004278898
0.0042890702
0.0042995371
0.0043103074
0.0043213901
0.0043327941
0.004344529
0.0043566043
0.0043690298
0.0043818156
0.0043949721
0.0044085098
0.0044224397
0.0044367727
0.0044515202
0.0044666939
0.0044823057
0.0044983678
0.0045148927
0.004531893
0.004549382
0.0045673729
0.0045858794
0.0046049154
0.0046244952
0.0046446335
0.0046653451
0.0046866452
0.0047085495
0.0047310738
0.0047542344
0.0047780479
0.0048025311
0.0048277014
0.0048535765
0.0048801742
0.0049075131
0.0049356117
0.0049644894
0.0049941655
0.0050246599
0.0050559929
0.0050881851
0.0051212577
0.005155232
0.00519013
0.0052259738
0.0052627861
0.0053005902
0.0053394094
0.0053792676
0.0054201894
0.0054621993
0.0055053228
0.0055495853
0.0055950131
0.0056416326
0.0056894709
0.0057385553
0.0057889138
0.0058405746
0.0058935667
0.0059479191
0.0060036617
0.0060608245
0.0061194383
0.006179534
0.0062411434
0.0063042983
0.0063690314
0.0064353755
0.0065033642
0.0065730312
0.0066444111
0.0067175386
0.0067924491
0.0068691784
0.0069477628
0.007028239
0.0071106443
0.0071950163
0.0072813931
0.0073698135
0.0074603165
0.0075529417
0.007647729
0.0077447191
0.0078439528
0.0079454716
0.0080493172
0.0081555321
0.008264159
0.008375241
0.0084888219
0.0086049458
0.008723657
0.0088450007
0.0089690222
0.0090957672
0.009225282
0.0093576132
0.0094928078
0.0096309133
0.0097719775
0.0099160486
0.010063175
0.010213406
0.010366791
0.010523379
0.010683221
0.010846366
0.011012867
0.011182772
0.011356135
0.011533007
0.011713439
0.011897485
0.012085196
0.012276625
0.012471827
0.012670853
0.012873757
0.013080594
0.013291418
0.013506283
0.013725242
0.013948353
0.014175668
0.014407243
0.014643133
0.014883394
0.015128081
0.01537725
0.015630957
0.015889257
0.016152207
0.016419862
0.016692279
0.016969513
0.017251621
0.017538659
0.017830684
0.018127751
0.018429917
0.018737238
0.01904977
0.019367569
0.019690692
0.020019193
0.02035313
0.020692557
0.021037531
0.021388107
0.02174434
0.022106285
0.022473998
0.022847533
0.023226944
0.023612288
0.024003616
0.024400984
0.024804444
0.025214051
0.025629858
0.026051916
0.02648028
0.026915
0.027356129
0.027803718
0.028257819
0.028718482
0.029185757
0.029659694
0.030140343
0.030627753
0.031121973
0.031623051
0.032131034
0.03264597
0.033167906
0.033696887
0.03423296
0.03477617
0.035326562
0.035884179
0.036449066
0.037021265
0.037600819
0.038187769
0.038782158
0.039384026
0.039993413
0.040610358
0.0412349
0.041867078
0.042506929
0.043154489
0.043809796
0.044472884
0.045143789
0.045822544
0.046509184
0.047203741
0.047906247
0.048616734
0.049335232
0.050061771
0.050796381
0.05153909
0.052289926
0.053048915
0.053816085
0.05459146
0.055375066
0.056166926
0.056967064
0.057775502
0.058592262
0.059417366
0.060250832
0.061092681
0.061942932
0.062801602
0.063668709
0.064544268
0.065428296
0.066320807
0.067221815
0.068131334
0.069049376
0.069975953
0.070911076
0.071854755
0.072807
0.073767818
0.074737218
0.075715208
0.076701793
0.077696979
0.078700772
0.079713174
0.08073419
0.081763822
0.082802072
0.083848941
0.08490443
0.085968538
0.087041264
0.088122607
0.089212563
0.090311131
0.091418306
0.092534083
0.093658457
0.094791422
0.095932972
0.097083099
0.098241795
0.099409051
0.10058486
0.10176921
0.10296209
0.10416349
0.10537339
0.1065918
0.10781868
0.10905403
0.11029784
0.11155008
0.11281075
0.11407982
0.11535729
0.11664313
0.11793732
0.11923985
0.1205507
0.12186985
0.12319727
0.12453296
0.12587688
0.12722901
0.12858934
0.12995785
0.13133449
0.13271927
0.13411214
0.13551309
0.13692209
0.13833912
0.13976415
0.14119715
0.1426381
0.14408697
0.14554373
0.14700835
0.14848082
0.14996109
0.15144914
0.15294494
0.15444846
0.15595967
0.15747854
0.15900504
0.16053913
0.1620808
0.16362999
0.1651867
0.16675087
0.16832247
0.16990149
0.17148787
0.1730816
0.17468263
0.17629092
0.17790646
0.1795292
0.1811591
0.18279614
0.18444027
0.18609147
0.18774969
0.1894149
0.19108707
0.19276615
0.19445212
0.19614493
0.19784455
0.19955094
0.20126407
0.20298389
0.20471038
0.20644349
0.20818318
0.20992942
0.21168217
0.2134414
0.21520705
0.2169791
0.21875751
0.22054224
0.22233325
0.2241305
0.22593395
0.22774356
0.2295593
0.23138113
0.233209
0.23504289
0.23688274
0.23872852
0.24058019
0.24243772
0.24430105
0.24617016
0.24804501
0.24992554
0.25181173
0.25370354
0.25560092
0.25750384
0.25941226
0.26132613
0.26324542
0.26517009
0.2671001
0.2690354
0.27097597
0.27292175
0.27487272
0.27682883
0.27879004
0.28075631
0.2827276
0.28470388
0.2866851
0.28867123
0.29066222
0.29265804
0.29465864
0.29666399
0.29867405
0.30068878
0.30270814
0.30473209
0.30676059
0.30879361
0.3108311
0.31287302
0.31491935
0.31697003
0.31902502
0.3210843
0.32314782
0.32521555
0.32728744
0.32936345
0.33144355
0.33352771
0.33561587
0.33770801
0.33980408
0.34190405
0.34400788
0.34611553
0.34822696
0.35034214
0.35246103
0.35458358
0.35670977
0.35883956
0.3609729
0.36310976
0.36525011
0.3673939
0.3695411
0.37169167
0.37384558
0.37600278
0.37816325
0.38032694
0.38249381
0.38466384
0.38683698
0.3890132
0.39119246
0.39337472
0.39555996
0.39774812
0.39993918
0.4021331
0.40432985
0.40652938
0.40873166
0.41093667
0.41314435
0.41535467
0.41756761
0.41978312
0.42200117
0.42422172
0.42644473
0.42867018
0.43089803
0.43312824
0.43536077
0.4375956
0.43983268
0.44207199
0.44431348
0.44655712
0.44880288
0.45105073
0.45330062
0.45555252
0.4578064
0.46006223
0.46231997
0.46457958
0.46684103
0.46910429
0.47136932
0.4736361
0.47590457
0.47817472
0.4804465
0.48271988
0.48499484
0.48727132
0.48954931
0.49182877
0.49410965
0.49639194
0.49867559
0.50096057
0.50324686
0.5055344
0.50782318
0.51011316
0.51240429
0.51469656
0.51698993
0.51928436
0.52157982
0.52387627
0.52617369
0.52847204
0.53077129
0.5330714
0.53537234
0.53767408
0.53997658
0.54227981
0.54458374
0.54688834
0.54919356
0.55149938
0.55380577
0.55611269
0.55842011
0.56072799
0.56303631
0.56534502
0.5676541
0.56996352
0.57227323
0.57458321
0.57689343
0.57920384
0.58151442
0.58382514
0.58613596
0.58844684
0.59075777
0.59306869
0.59537958
0.59769041
0.60000114
0.60231174
0.60462218
0.60693242
0.60924243
0.61155218
0.61386163
0.61617075
0.6184795
0.62078787
0.6230958
0.62540327
0.62771024
0.63001668
0.63232256
0.63462785
0.6369325
0.63923649
0.64153979
0.64384236
0.64614416
0.64844516
0.65074534
0.65304465
0.65534306
0.65764054
0.65993706
0.66223257
0.66452705
0.66682047
0.66911278
0.67140397
0.67369398
0.67598279
0.67827036
0.68055666
0.68284166
0.68512531
0.6874076
0.68968847
0.69196791
0.69424587
0.69652232
0.69879722
0.70107055
0.70334226
0.70561232
0.7078807
0.71014737
0.71241228
0.7146754
0.71693671
0.71919615
0.72145371
0.72370934
0.725963
0.72821468
0.73046432
0.73271189
0.73495736
0.7372007
0.73944186
0.74168081
0.74391753
0.74615196
0.74838408
0.75061385
0.75284123
0.7550662
0.75728871
0.75950872
0.76172621
0.76394114
0.76615346
0.76836315
0.77057017
0.77277448
0.77497605
0.77717484
0.77937081
0.78156393
0.78375416
0.78594147
0.78812582
0.79030717
0.79248548
0.79466072
0.79683286
0.79900185
0.80116767
0.80333026
0.8054896
0.80764566
0.80979838
0.81194774
0.8140937
0.81623622
0.81837527
0.8205108
0.82264279
0.82477119
0.82689597
0.82901708
0.8311345
0.83324818
0.8353581
0.8374642
0.83956646
0.84166483
0.84375928
0.84584978
0.84793628
0.85001874
0.85209714
0.85417142
0.85624157
0.85830753
0.86036927
0.86242675
0.86447994
0.86652879
0.86857328
0.87061336
0.87264899
0.87468014
0.87670678
0.87872885
0.88074634
0.88275919
0.88476737
0.88677085
0.88876958
0.89076353
0.89275266
0.89473694
0.89671632
0.89869078
0.90066026
0.90262475
0.90458419
0.90653855
0.90848779
0.91043189
0.91237079
0.91430447
0.91623289
0.91815601
0.92007379
0.9219862
0.9238932
0.92579475
0.92769082
0.92958138
0.93146638
0.93334579
0.93521957
0.93708769
0.93895012
0.94080681
0.94265773
0.94450284
0.94634212
0.94817552
0.95000301
0.95182455
0.95364012
0.95544967
0.95725317
0.95905059
0.96084188
0.96262703
0.96440599
0.96617873
0.96794521
0.96970541
0.97145929
0.97320682
0.97494795
0.97668267
0.97841094
0.98013272
0.98184799
0.98355671
0.98525884
0.98695437
0.98864325
0.99032546
0.99200096
0.99366973
0.99533173
0.99698694
0.99863531
1.0002768
1.0019115
1.0035392
1.00516
1.0067738
1.0083806
1.0099804
1.0115731
1.0131587
1.0147373
1.0163087
1.0178729
1.0194299
1.0209798
1.0225224
1.0240577
1.0255857
1.0271064
1.0286198
1.0301258
1.0316244
1.0331156
1.0345994
1.0360757
1.0375445
1.0390059
1.0404597
1.041906
1.0433447
1.0447758
1.0461993
1.0476152
1.0490235
1.0504241
1.051817
1.0532023
1.0545798
1.0559496
1.0573116
1.0586659
1.0600124
1.0613511
1.062682
1.0640051
1.0653204
1.0666278
1.0679273
1.069219
1.0705028
1.0717787
1.0730467
1.0743068
1.0755589
1.0768032
1.0780394
1.0792678
1.0804881
1.0817005
1.082905
1.0841014
1.0852899
1.0864704
1.0876429
1.0888073
1.0899638
1.0911123
1.0922528
1.0933852
1.0945097
1.0956262
1.0967346
1.097835
1.0989274
1.1000119
1.1010883
1.1021567
1.1032171
1.1042695
1.1053139
1.1063503
1.1073788
1.1083993
1.1094118
1.1104163
1.1114129
1.1124016
1.1133823
1.1143551
1.11532
1.1162769
1.117226
1.1181672
1.1191005
1.120026
1.1209436
1.1218534
1.1227554
1.1236496
1.124536
1.1254146
1.1262855
1.1271486
1.128004
1.1288518
1.1296918
1.1305242
1.131349
1.1321661
1.1329757
1.1337776
1.134572
1.1353589
1.1361383
1.1369102
1.1376747
1.1384317
1.1391813
1.1399235
1.1406584
1.1413859
1.1421062
1.1428191
1.1435249
1.1442234
1.1449147
1.1455989
1.146276
1.1469459
1.1476088
1.1482647
1.1489136
1.1495555
1.1501904
1.1508185
1.1514397
1.1520541
1.1526617
1.1532625
1.1538566
1.154444
1.1550247
1.1555989
1.1561664
1.1567274
1.1572819
1.15783
1.1583716
1.1589068
1.1594356
1.1599582
1.1604745
1.1609846
1.1614884
1.1619861
1.1624777
1.1629633
1.1634428
1.1639163
1.1643839
1.1648455
1.1653014
1.1657514
1.1661956
1.1666341
1.1670669
1.167494
1.1679156
1.1683316
1.168742
1.169147
1.1695466
1.1699408