/*--------------------------------*- C++ -*----------------------------------*\
  =========                 |
  \\      /  F ield         | OpenFOAM: The Open Source CFD Toolbox
   \\    /   O peration     | Website:  https://openfoam.org
    \\  /    A nd           | Version:  7
     \\/     M anipulation  |
\*---------------------------------------------------------------------------*/
FoamFile
{
    version     2.0;
    format      ascii;
    class       volScalarField;
    location    "0.00048";
    object      T;
}
// * * * * * * * * * * * * * * * * * * * * * * * * * * * * * * * * * * * * * //

dimensions      [0 0 0 1 0 0 0];

internalField   nonuniform List<scalar> 
5000
(
286.01252
286.02689
286.03282
286.04479
286.05087
286.06289
286.06903
286.08101
286.08717
286.09922
286.10532
286.11736
286.12348
286.13557
286.14161
286.15367
286.15985
286.17176
286.17795
286.19001
286.19603
286.20801
286.21448
286.22567
286.2331
286.24331
286.2516
286.26113
286.2699
286.27911
286.28807
286.29716
286.30618
286.31523
286.32426
286.3333
286.34233
286.35137
286.3604
286.36943
286.37845
286.38748
286.3965
286.40552
286.41453
286.42355
286.43256
286.44158
286.45059
286.45959
286.4686
286.4776
286.48661
286.49561
286.5046
286.5136
286.5226
286.53159
286.54058
286.54957
286.55856
286.56754
286.57652
286.58551
286.59449
286.60347
286.61244
286.62142
286.63039
286.63936
286.64833
286.6573
286.66626
286.67523
286.68419
286.69315
286.70211
286.71107
286.72002
286.72898
286.73793
286.74688
286.75583
286.76477
286.77372
286.78266
286.7916
286.80054
286.80948
286.81842
286.82735
286.83628
286.84522
286.85414
286.86307
286.872
286.88092
286.88984
286.89876
286.90768
286.9166
286.92551
286.93442
286.94334
286.95224
286.96115
286.97006
286.97896
286.98786
286.99676
287.00566
287.01456
287.02345
287.03235
287.04124
287.05013
287.05901
287.0679
287.07678
287.08566
287.09455
287.10342
287.1123
287.12118
287.13005
287.13892
287.14779
287.15666
287.16553
287.17439
287.18326
287.19212
287.20098
287.20984
287.2187
287.22755
287.23641
287.24526
287.25411
287.26296
287.27181
287.28066
287.28951
287.29835
287.3072
287.31604
287.32488
287.33372
287.34256
287.3514
287.36024
287.36908
287.37791
287.38674
287.39558
287.40441
287.41324
287.42207
287.43089
287.43972
287.44855
287.45737
287.4662
287.47502
287.48384
287.49266
287.50148
287.5103
287.51911
287.52793
287.53674
287.54556
287.55437
287.56318
287.57199
287.5808
287.58961
287.59841
287.60722
287.61602
287.62482
287.63362
287.64243
287.65122
287.66002
287.66882
287.67762
287.68641
287.6952
287.70399
287.71279
287.72158
287.73036
287.73915
287.74794
287.75672
287.7655
287.77429
287.78307
287.79185
287.80063
287.8094
287.81818
287.82696
287.83573
287.8445
287.85327
287.86204
287.87081
287.87958
287.88835
287.89711
287.90587
287.91464
287.9234
287.93216
287.94092
287.94968
287.95843
287.96719
287.97594
287.9847
287.99345
288.0022
288.01095
288.0197
288.02844
288.03719
288.04593
288.05468
288.06342
288.07216
288.0809
288.08964
288.09838
288.10712
288.11585
288.12459
288.13332
288.14205
288.15079
288.15952
288.16824
288.17697
288.1857
288.19443
288.20315
288.21188
288.2206
288.22932
288.23804
288.24676
288.25548
288.2642
288.27292
288.28164
288.29035
288.29907
288.30778
288.31649
288.3252
288.33391
288.34262
288.35133
288.36004
288.36875
288.37745
288.38616
288.39486
288.40357
288.41227
288.42097
288.42967
288.43837
288.44707
288.45576
288.46446
288.47315
288.48185
288.49054
288.49923
288.50792
288.51661
288.5253
288.53398
288.54267
288.55135
288.56004
288.56872
288.5774
288.58608
288.59476
288.60343
288.61211
288.62078
288.62946
288.63813
288.6468
288.65547
288.66413
288.6728
288.68146
288.69012
288.69879
288.70744
288.7161
288.72476
288.73341
288.74207
288.75072
288.75937
288.76802
288.77666
288.78531
288.79395
288.80259
288.81123
288.81987
288.82851
288.83714
288.84577
288.8544
288.86303
288.87166
288.88029
288.88891
288.89753
288.90615
288.91477
288.92339
288.93201
288.94062
288.94923
288.95784
288.96645
288.97506
288.98366
288.99227
289.00087
289.00947
289.01806
289.02666
289.03526
289.04385
289.05244
289.06103
289.06962
289.0782
289.08679
289.09537
289.10395
289.11253
289.1211
289.12968
289.13825
289.14683
289.1554
289.16396
289.17253
289.1811
289.18966
289.19822
289.20678
289.21534
289.2239
289.23245
289.241
289.24955
289.2581
289.26665
289.2752
289.28374
289.29229
289.30083
289.30937
289.31791
289.32644
289.33498
289.34351
289.35204
289.36057
289.3691
289.37763
289.38615
289.39467
289.40319
289.41171
289.42023
289.42875
289.43726
289.44578
289.45429
289.4628
289.47131
289.47981
289.48832
289.49682
289.50532
289.51382
289.52232
289.53082
289.53931
289.5478
289.5563
289.56479
289.57327
289.58176
289.59025
289.59873
289.60721
289.61569
289.62417
289.63265
289.64112
289.6496
289.65807
289.66654
289.67501
289.68347
289.69194
289.7004
289.70886
289.71733
289.72578
289.73424
289.7427
289.75115
289.7596
289.76805
289.7765
289.78495
289.7934
289.80184
289.81028
289.81872
289.82716
289.8356
289.84404
289.85247
289.86091
289.86934
289.87777
289.88619
289.89462
289.90305
289.91147
289.91989
289.92831
289.93673
289.94515
289.95356
289.96197
289.97039
289.9788
289.98721
289.99561
290.00402
290.01242
290.02082
290.02922
290.03762
290.04602
290.05442
290.06281
290.0712
290.07959
290.08798
290.09637
290.10476
290.11314
290.12153
290.12991
290.13829
290.14667
290.15504
290.16342
290.17179
290.18016
290.18853
290.1969
290.20527
290.21363
290.222
290.23036
290.23872
290.24708
290.25544
290.26379
290.27215
290.2805
290.28885
290.2972
290.30555
290.3139
290.32224
290.33058
290.33893
290.34727
290.3556
290.36394
290.37228
290.38061
290.38894
290.39727
290.4056
290.41393
290.42225
290.43058
290.4389
290.44722
290.45554
290.46386
290.47218
290.48049
290.4888
290.49712
290.50543
290.51373
290.52204
290.53035
290.53865
290.54695
290.55525
290.56355
290.57185
290.58014
290.58844
290.59673
290.60502
290.61331
290.6216
290.62989
290.63817
290.64645
290.65474
290.66302
290.67129
290.67957
290.68785
290.69612
290.70439
290.71266
290.72093
290.7292
290.73747
290.74573
290.75399
290.76225
290.77051
290.77877
290.78703
290.79528
290.80354
290.81179
290.82004
290.82829
290.83653
290.84478
290.85302
290.86127
290.86951
290.87775
290.88598
290.89422
290.90246
290.91069
290.91892
290.92715
290.93538
290.94361
290.95183
290.96005
290.96828
290.9765
290.98472
290.99293
291.00115
291.00936
291.01758
291.02579
291.034
291.0422
291.05041
291.05862
291.06682
291.07502
291.08322
291.09142
291.09962
291.10781
291.11601
291.1242
291.13239
291.14058
291.14877
291.15695
291.16514
291.17332
291.1815
291.18968
291.19786
291.20604
291.21421
291.22239
291.23056
291.23873
291.2469
291.25506
291.26323
291.27139
291.27956
291.28772
291.29588
291.30404
291.31219
291.32035
291.3285
291.33665
291.3448
291.35295
291.3611
291.36924
291.37739
291.38553
291.39367
291.40181
291.40995
291.41809
291.42622
291.43435
291.44248
291.45061
291.45874
291.46687
291.475
291.48312
291.49124
291.49936
291.50748
291.5156
291.52371
291.53183
291.53994
291.54805
291.55616
291.56427
291.57238
291.58048
291.58859
291.59669
291.60479
291.61289
291.62099
291.62908
291.63718
291.64527
291.65336
291.66145
291.66954
291.67763
291.68571
291.6938
291.70188
291.70996
291.71804
291.72612
291.73419
291.74227
291.75034
291.75841
291.76648
291.77455
291.78262
291.79068
291.79874
291.80681
291.81487
291.82293
291.83098
291.83904
291.84709
291.85515
291.8632
291.87125
291.87929
291.88734
291.89538
291.90343
291.91147
291.91951
291.92754
291.93558
291.94361
291.95164
291.95967
291.9677
291.97573
291.98375
291.99177
291.99979
292.0078
292.01582
292.02383
292.03184
292.03985
292.04785
292.05585
292.06385
292.07185
292.07984
292.08783
292.09581
292.10379
292.11177
292.11975
292.12772
292.13568
292.14365
292.1516
292.15956
292.1675
292.17545
292.18338
292.19131
292.19924
292.20716
292.21507
292.22298
292.23088
292.23877
292.24665
292.25453
292.26239
292.27025
292.2781
292.28594
292.29377
292.30159
292.30939
292.31719
292.32497
292.33274
292.3405
292.34824
292.35597
292.36369
292.37139
292.37907
292.38674
292.39439
292.40202
292.40963
292.41723
292.4248
292.43235
292.43988
292.44739
292.45488
292.46234
292.46978
292.47719
292.48458
292.49193
292.49926
292.50656
292.51383
292.52107
292.52828
292.53546
292.5426
292.54971
292.55678
292.56382
292.57081
292.57777
292.58469
292.59157
292.59841
292.60521
292.61196
292.61867
292.62534
292.63195
292.63852
292.64505
292.65152
292.65794
292.66432
292.67064
292.6769
292.68312
292.68928
292.69538
292.70143
292.70741
292.71335
292.71922
292.72503
292.73078
292.73647
292.7421
292.74767
292.75317
292.75861
292.76398
292.76929
292.77453
292.7797
292.78481
292.78985
292.79482
292.79973
292.80456
292.80933
292.81402
292.81865
292.82321
292.82769
292.83211
292.83645
292.84072
292.84493
292.84906
292.85312
292.85711
292.86102
292.86487
292.86865
292.87235
292.87599
292.87955
292.88304
292.88647
292.88982
292.89311
292.89633
292.89947
292.90256
292.90557
292.90852
292.9114
292.91421
292.91696
292.91964
292.92226
292.92482
292.92731
292.92975
292.93212
292.93443
292.93668
292.93887
292.94101
292.94308
292.9451
292.94707
292.94898
292.95083
292.95264
292.95439
292.95609
292.95774
292.95934
292.96089
292.96239
292.96385
292.96526
292.96663
292.96795
292.96923
292.97047
292.97167
292.97283
292.97395
292.97503
292.97607
292.97708
292.97805
292.97899
292.97989
292.98076
292.9816
292.98241
292.98319
292.98394
292.98466
292.98535
292.98602
292.98666
292.98727
292.98786
292.98843
292.98897
292.9895
292.99
292.99048
292.99094
292.99138
292.9918
292.9922
292.99259
292.99296
292.99331
292.99365
292.99397
292.99428
292.99457
292.99485
292.99512
292.99537
292.99562
292.99585
292.99607
292.99628
292.99648
292.99667
292.99685
292.99703
292.99719
292.99735
292.99749
292.99763
292.99777
292.99789
292.99801
292.99813
292.99823
292.99834
292.99843
292.99853
292.99861
292.99869
292.99877
292.99885
292.99891
292.99898
292.99904
292.9991
292.99916
292.99921
292.99926
292.9993
292.99935
292.99939
292.99943
292.99946
292.9995
292.99953
292.99956
292.99959
292.99961
292.99964
292.99966
292.99969
292.99971
292.99973
292.99974
292.99976
292.99978
292.99979
292.99981
292.99982
292.99983
292.99984
292.99985
292.99986
292.99987
292.99988
292.99989
292.9999
292.99991
292.99991
292.99992
292.99992
292.99993
292.99994
292.99994
292.99994
292.99995
292.99995
292.99996
292.99996
292.99996
292.99996
292.99997
292.99997
292.99997
292.99997
292.99998
292.99998
292.99998
292.99998
292.99998
292.99998
292.99999
292.99999
292.99999
292.99999
292.99999
292.99999
292.99999
292.99999
292.99999
292.99999
292.99999
292.99999
292.99999
293
293
293
293
293
293
293
293
293
293
293
293
293
293
293
293
293
293
293
293
293
293
293
293
293
293
293
293
293
293
293
293
293
293
293
293
293
293
293
293
293
293
293
293
293
293
293
293
293
293
293
293
293
293
293
293
293
293
293
293
293
293
293
293
293
293
293
293
293
293
293
293
293
293
293
293
293
293
293
293
293
293
293
293
293
293
293
293
293
293
293
293
293
293
293
293
293
293
293
293
293
293
293
293
293
293
293
293
293
293
293
293
293
293
293
293
293
293
293
293
293
293
293
293
293
293
293
293
293
293
293
293
293
293
293
293
293
293
293
293
293
293
293
293
293
293
293
293
293
293
293
293
293
293
293
293
293
293
293
293
293
293
293
293
293
293
293
293
293
293
293
293
293
293
293
293
293
293
293
293
293
293
293
293
293
293
293
293
293
293
293
293
293
293
293
293
293
293
293
293
293
293
293
293
293
293
293
293
293
293
293
293
293
293
293
293
293
293
293
293
293
293
293
293
293
293
293
293
293
293
293
293
293
293
293
293
293
293
293
293
293
293
293
293
293
293
293
293
293
293
293
293
293
293
293
293
293
293
293
293
293
293
293
293
293
293
293
293
293
293
293
293
293
293
293
293
293
293
293
293
293
293
293
293
293
293
293
293
293
293
293
293
293
293
293
293
293
293
293
293
293
293
293
293
293
293
293
293
293
293
293
293
293
293
293
293
293
293
293
293
293
293
293
293
293
293
293
293
293
293
293
293
293
293
293
293
293
293
293
293
293
293
293
293
293
293
293
293
293
293
293
293
293
293
293
293
293
293
293
293
293
293
293
293
293
293
293
293
293
293
293
293
293
293
293
293
293
293
293
293
293
293
293
293
293
293
293
293
293
293
293
293
293
293
293
293
293
293
293
293
293
293
293
293
293
293
293
293
293
293
293
293
293
293
293
293
293
293
293
293
293
293
293
293
293
293
293
293
293
293
293
293
293
293
293
293
293
293
293
293
293
292.99999
292.99999
292.99999
292.99999
292.99999
292.99999
292.99999
292.99999
292.99999
292.99999
292.99999
292.99999
292.99998
292.99998
292.99998
292.99998
292.99998
292.99997
292.99997
292.99997
292.99997
292.99996
292.99996
292.99996
292.99995
292.99995
292.99994
292.99994
292.99993
292.99993
292.99992
292.99991
292.99991
292.9999
292.99989
292.99988
292.99987
292.99986
292.99984
292.99983
292.99982
292.9998
292.99978
292.99977
292.99975
292.99972
292.9997
292.99968
292.99965
292.99962
292.99959
292.99956
292.99952
292.99948
292.99944
292.99939
292.99935
292.99929
292.99924
292.99918
292.99911
292.99904
292.99897
292.99889
292.9988
292.99871
292.99861
292.99851
292.9984
292.99827
292.99815
292.99801
292.99786
292.9977
292.99753
292.99735
292.99716
292.99695
292.99674
292.9965
292.99625
292.99599
292.9957
292.9954
292.99508
292.99474
292.99438
292.99399
292.99358
292.99315
292.99269
292.9922
292.99168
292.99112
292.99054
292.98992
292.98926
292.98856
292.98783
292.98705
292.98622
292.98535
292.98443
292.98346
292.98243
292.98134
292.9802
292.97899
292.97771
292.97637
292.97496
292.97347
292.9719
292.97025
292.96851
292.96668
292.96477
292.96275
292.96063
292.95841
292.95608
292.95364
292.95107
292.94839
292.94557
292.94263
292.93954
292.93632
292.93294
292.92941
292.92572
292.92187
292.91785
292.91366
292.90928
292.90471
292.89995
292.89499
292.88982
292.88445
292.87885
292.87303
292.86697
292.86068
292.85414
292.84735
292.8403
292.83298
292.82539
292.81752
292.80936
292.80091
292.79216
292.7831
292.77372
292.76402
292.754
292.74363
292.73292
292.72186
292.71045
292.69866
292.68651
292.67398
292.66106
292.64775
292.63405
292.61994
292.60541
292.59047
292.57511
292.55931
292.54308
292.52641
292.50929
292.49172
292.4737
292.4552
292.43625
292.41681
292.3969
292.37651
292.35564
292.33427
292.31241
292.29006
292.2672
292.24384
292.21997
292.1956
292.17071
292.14531
292.1194
292.09296
292.06601
292.03854
292.01055
291.98204
291.95301
291.92345
291.89337
291.86278
291.83166
291.80002
291.76787
291.7352
291.70201
291.66831
291.6341
291.59939
291.56417
291.52844
291.49222
291.4555
291.41829
291.3806
291.34242
291.30376
291.26463
291.22503
291.18497
291.14445
291.10348
291.06207
291.02021
290.97792
290.93521
290.89208
290.84853
290.80458
290.76023
290.7155
290.67038
290.62489
290.57903
290.53282
290.48626
290.43936
290.39214
290.34459
290.29673
290.24857
290.20012
290.15138
290.10238
290.05311
290.00359
289.95384
289.90385
289.85364
289.80323
289.75262
289.70182
289.65085
289.59972
289.54843
289.49701
289.44546
289.39379
289.34202
289.29016
289.23822
289.18621
289.13415
289.08204
289.02991
288.97776
288.9256
288.87345
288.82133
288.76924
288.7172
288.66522
288.61331
288.56149
288.50976
288.45816
288.40667
288.35533
288.30414
288.25312
288.20228
288.15162
288.10118
288.05095
288.00096
287.95121
287.90171
287.85249
287.80356
287.75492
287.70659
287.65859
287.61092
287.56359
287.51663
287.47004
287.42384
287.37803
287.33263
287.28765
287.2431
287.199
287.15534
287.11216
287.06945
287.02722
286.98549
286.94427
286.90356
286.86338
286.82373
286.78462
286.74606
286.70807
286.67063
286.63377
286.5975
286.56181
286.52671
286.49221
286.45831
286.42503
286.39235
286.3603
286.32886
286.29805
286.26786
286.23831
286.20938
286.18108
286.15342
286.12639
286.09999
286.07422
286.04908
286.02457
286.00069
285.97743
285.95479
285.93276
285.91135
285.89054
285.87034
285.85073
285.83172
285.81328
285.79543
285.77815
285.76143
285.74526
285.72965
285.71457
285.70002
285.68599
285.67247
285.65945
285.64693
285.63488
285.62331
285.61219
285.60153
285.5913
285.5815
285.57212
285.56314
285.55456
285.54636
285.53853
285.53106
285.52394
285.51716
285.51071
285.50457
285.49874
285.4932
285.48794
285.48296
285.47824
285.47377
285.46955
285.46555
285.46178
285.45822
285.45487
285.45171
285.44873
285.44593
285.4433
285.44084
285.43852
285.43635
285.43432
285.43241
285.43064
285.42897
285.42742
285.42598
285.42463
285.42338
285.42221
285.42113
285.42012
285.41919
285.41832
285.41752
285.41678
285.4161
285.41547
285.41488
285.41435
285.41385
285.4134
285.41298
285.41259
285.41224
285.41192
285.41163
285.41136
285.41111
285.41089
285.41068
285.4105
285.41033
285.41017
285.41003
285.40991
285.4098
285.40969
285.4096
285.40952
285.40944
285.40938
285.40932
285.40926
285.40922
285.40918
285.40914
285.40911
285.40908
285.40906
285.40903
285.40902
285.409
285.40899
285.40898
285.40897
285.40896
285.40896
285.40896
285.40895
285.40895
285.40895
285.40895
285.40894
285.40893
285.40893
285.40893
285.40892
285.40891
285.4089
285.4089
285.40889
285.40889
285.40888
285.40887
285.40887
285.40886
285.40885
285.40885
285.40885
285.40884
285.40883
285.40882
285.40882
285.40882
285.40882
285.40882
285.40882
285.40881
285.40881
285.4088
285.40881
285.40881
285.40881
285.4088
285.4088
285.4088
285.4088
285.4088
285.4088
285.4088
285.4088
285.40879
285.40879
285.40879
285.40879
285.40879
285.40878
285.40878
285.40878
285.40878
285.40878
285.40878
285.40878
285.40877
285.40877
285.40877
285.40877
285.40877
285.40877
285.40877
285.40877
285.40877
285.40877
285.40876
285.40876
285.40877
285.40877
285.40877
285.40877
285.40877
285.40877
285.40878
285.40878
285.40878
285.40879
285.40879
285.40879
285.40879
285.4088
285.4088
285.40881
285.40881
285.40881
285.40881
285.40879
285.40879
285.4088
285.4088
285.4088
285.4088
285.4088
285.4088
285.4088
285.4088
285.4088
285.40881
285.40882
285.40882
285.40882
285.40883
285.40884
285.40884
285.40885
285.40885
285.40886
285.40887
285.40887
285.40888
285.40889
285.40889
285.40889
285.4089
285.4089
285.40891
285.40891
285.40891
285.40892
285.40892
285.40893
285.40893
285.40893
285.40893
285.40894
285.40895
285.40896
285.40897
285.40897
285.40898
285.40898
285.40899
285.40899
285.40899
285.40899
285.40899
285.409
285.40901
285.40901
285.40901
285.40902
285.40902
285.40903
285.40903
285.40904
285.40905
285.40906
285.40907
285.40908
285.40909
285.4091
285.40911
285.40912
285.40913
285.40913
285.40914
285.40915
285.40917
285.40918
285.40919
285.40919
285.4092
285.4092
285.40921
285.40922
285.40923
285.40924
285.40926
285.40927
285.40927
285.40928
285.40929
285.4093
285.4093
285.40931
285.40931
285.40933
285.40934
285.40935
285.40935
285.40936
285.40936
285.40936
285.40937
285.40938
285.4094
285.40941
285.40942
285.40943
285.40945
285.40947
285.40948
285.40949
285.40949
285.4095
285.4095
285.40951
285.40952
285.40953
285.40955
285.40956
285.40956
285.40957
285.40957
285.40959
285.40961
285.40962
285.40964
285.40965
285.40966
285.40967
285.40968
285.40969
285.40971
285.40972
285.40973
285.40975
285.40975
285.40976
285.40977
285.40978
285.40979
285.40981
285.40982
285.40983
285.40984
285.40986
285.40987
285.40988
285.4099
285.40991
285.40993
285.40994
285.40995
285.40996
285.40997
285.40998
285.41
285.41001
285.41002
285.41004
285.41005
285.41006
285.41007
285.41008
285.41009
285.4101
285.41012
285.41013
285.41015
285.41016
285.41017
285.41018
285.41019
285.41021
285.41022
285.41023
285.41024
285.41025
285.41027
285.41029
285.4103
285.41032
285.41033
285.41033
285.41034
285.41035
285.41037
285.41039
285.41041
285.41042
285.41043
285.41044
285.41046
285.41047
285.41048
285.41049
285.41051
285.41053
285.41055
285.41057
285.41059
285.4106
285.41062
285.41063
285.41064
285.41065
285.41066
285.41067
285.41069
285.4107
285.41072
285.41073
285.41075
285.41077
285.41078
285.4108
285.41082
285.41083
285.41084
285.41086
285.41087
285.41089
285.4109
285.41092
285.41093
285.41094
285.41096
285.41098
285.411
285.41102
285.41104
285.41106
285.41107
285.41107
285.41108
285.41109
285.4111
285.41112
285.41114
285.41117
285.41119
285.41121
285.41122
285.41123
285.41125
285.41126
285.41127
285.41129
285.41131
285.41133
285.41135
285.41137
285.41139
285.41141
285.41143
285.41144
285.41145
285.41147
285.41148
285.4115
285.41152
285.41154
285.41155
285.41157
285.41159
285.41162
285.41164
285.41166
285.41168
285.41169
285.4117
285.41172
285.41174
285.41176
285.41178
285.41181
285.41182
285.41184
285.41185
285.41187
285.41189
285.41192
285.41194
285.41196
285.41198
285.412
285.41202
285.41204
285.41207
285.41209
285.41212
285.41213
285.41215
285.41217
285.41219
285.41221
285.41224
285.41226
285.41228
285.4123
285.41232
285.41234
285.41236
285.41239
285.41241
285.41244
285.41246
285.41248
285.41251
285.41253
285.41256
285.41258
285.4126
285.41262
285.41264
285.41266
285.41268
285.41271
285.41273
285.41276
285.41278
285.4128
285.41283
285.41285
285.41288
285.4129
285.41293
285.41296
285.41299
285.41302
285.41304
285.41307
285.4131
285.41313
285.41316
285.41318
285.41321
285.41324
285.41328
285.41331
285.41334
285.41337
285.41339
285.41341
285.41343
285.41346
285.41349
285.41352
285.41355
285.41357
285.4136
285.41363
285.41366
285.4137
285.41373
285.41377
285.4138
285.41383
285.41386
285.41389
285.41392
285.41395
285.41398
285.41401
285.41405
285.41408
285.41412
285.41416
285.4142
285.41424
285.41427
285.41431
285.41434
285.41437
285.41441
285.41444
285.41448
285.41451
285.41455
285.41459
285.41462
285.41466
285.4147
285.41475
285.41479
285.41483
285.41487
285.41491
285.41494
285.41498
285.41502
285.41506
285.4151
285.41515
285.41519
285.41524
285.41528
285.41532
285.41536
285.41541
285.41545
285.41551
285.41556
285.41562
285.41566
285.41571
285.41575
285.41579
285.41584
285.41589
285.41594
285.416
285.41604
285.41609
285.41614
285.41619
285.41624
285.41629
285.41635
285.4164
285.41645
285.4165
285.41656
285.41661
285.41667
285.41673
285.4168
285.41686
285.41693
285.41698
285.41704
285.4171
285.41717
285.41723
285.41728
285.41734
285.4174
285.41746
285.41754
285.41761
285.41769
285.41776
285.41784
285.41791
285.41798
285.41805
285.41811
285.41819
285.41826
285.41834
285.41843
285.41851
285.4186
285.41868
285.41877
285.41884
285.41892
285.419
285.41909
285.41917
285.41926
285.41935
285.41944
285.41953
285.41963
285.41972
285.41982
285.41992
285.42002
285.42012
285.42023
285.42034
285.42046
285.42057
285.42069
285.4208
285.42091
285.42103
285.42114
285.42125
285.42136
285.42147
285.42158
285.4217
285.42182
285.42195
285.42207
285.42219
285.42231
285.42242
285.42253
285.42265
285.42277
285.42289
285.42301
285.42311
285.42321
285.42329
285.42336
285.42343
285.42349
285.42355
285.42361
285.42366
285.4237
285.42373
285.42375
285.42377
285.42377
285.42377
285.42377
285.42376
285.42373
285.42368
285.42363
285.42358
285.42352
285.42347
285.42342
285.42338
285.42335
285.42333
285.42332
285.42332
285.42333
285.42334
285.4234
285.42352
285.42368
285.42387
285.4241
285.42436
285.42464
285.42493
285.42523
285.42552
285.4258
285.42607
285.42633
285.42658
285.42685
285.42712
285.42741
285.42772
285.42803
285.42832
285.42858
285.4288
285.42896
285.42908
285.42915
285.4292
285.42922
285.42923
285.42925
285.42928
285.42936
285.42947
285.42957
285.42964
285.42971
285.42986
285.43019
285.43099
285.43307
285.43867
285.45374
285.49401
285.60136
285.88271
286.62085
288.11742
289.8841
291.7336
293.52539
295.15456
296.55698
297.7071
298.60995
299.29086
299.78566
300.13284
300.36844
300.52321
300.62162
300.68216
300.71808
300.73854
300.74959
300.75509
300.75743
300.75808
300.75804
300.75747
300.75589
300.75406
300.75229
300.75056
300.74888
300.74729
300.74581
300.74448
300.74331
300.7423
300.74145
300.74073
300.74012
300.73959
300.73912
300.73868
300.73826
300.73785
300.73746
300.73707
300.73668
300.7363
300.73593
300.73557
300.73522
300.7349
300.73458
300.73428
300.73397
300.73367
300.73335
300.73302
300.73267
300.73229
300.73188
300.73144
300.73097
300.73047
300.72994
300.7294
300.72884
300.72828
300.72772
300.72716
300.72661
300.72608
300.72557
300.72509
300.72464
300.72421
300.72381
300.72343
300.72308
300.72274
300.72241
300.7221
300.72181
300.72154
300.72129
300.72106
300.72084
300.72063
300.72043
300.72023
300.72005
300.71986
300.71969
300.71952
300.71935
300.71919
300.71902
300.71887
300.71871
300.71856
300.71842
300.71828
300.71814
300.71801
300.71788
300.71775
300.71763
300.7175
300.71738
300.71726
300.71714
300.71703
300.71692
300.71681
300.7167
300.71659
300.71648
300.71636
300.71626
300.71616
300.71606
300.71596
300.71587
300.71578
300.71568
300.71559
300.7155
300.71541
300.71532
300.71524
300.71516
300.71508
300.715
300.71491
300.71483
300.71475
300.71466
300.71458
300.7145
300.71443
300.71435
300.71427
300.71419
300.71412
300.71405
300.71398
300.71391
300.71384
300.71378
300.71371
300.71364
300.71358
300.71351
300.71345
300.71338
300.71332
300.71326
300.7132
300.71314
300.71308
300.71301
300.71295
300.7129
300.71284
300.71279
300.71273
300.71267
300.71262
300.71256
300.7125
300.71245
300.7124
300.71234
300.71229
300.71224
300.71219
300.71214
300.71208
300.71204
300.71199
300.71194
300.7119
300.71185
300.7118
300.71175
300.7117
300.71166
300.71162
300.71157
300.71153
300.71148
300.71144
300.71139
300.71134
300.71129
300.71125
300.71121
300.71117
300.71113
300.71109
300.71105
300.71101
300.71097
300.71093
300.71089
300.71085
300.71081
300.71077
300.71073
300.7107
300.71066
300.71063
300.71059
300.71056
300.71052
300.71048
300.71044
300.7104
300.71036
300.71032
300.71029
300.71026
300.71023
300.7102
300.71016
300.71012
300.71009
300.71005
300.71002
300.70998
300.70995
300.70992
300.70989
300.70986
300.70983
300.7098
300.70977
300.70974
300.70971
300.70968
300.70965
300.70962
300.70959
300.70956
300.70952
300.70949
300.70946
300.70944
300.70941
300.70938
300.70935
300.70933
300.7093
300.70928
300.70925
300.70922
300.70919
300.70916
300.70913
300.7091
300.70907
300.70905
300.70903
300.70901
300.70899
300.70896
300.70893
300.70891
300.70888
300.70886
300.70883
300.70881
300.70878
300.70876
300.70873
300.70871
300.70868
300.70866
300.70864
300.70861
300.70859
300.70857
300.70855
300.70853
300.70851
300.70849
300.70846
300.70844
300.70841
300.70839
300.70836
300.70834
300.70832
300.70829
300.70827
300.70825
300.70823
300.70821
300.70819
300.70817
300.70815
300.70813
300.70811
300.70809
300.70807
300.70805
300.70803
300.708
300.70798
300.70796
300.70794
300.70793
300.70791
300.70789
300.70787
300.70785
300.70783
300.70781
300.70778
300.70776
300.70774
300.70772
300.7077
300.70769
300.70767
300.70766
300.70764
300.70762
300.7076
300.70758
300.70756
300.70754
300.70753
300.70751
300.70749
300.70747
300.70746
300.70744
300.70742
300.7074
300.70739
300.70737
300.70735
300.70733
300.70731
300.70729
300.70728
300.70726
300.70725
300.70723
300.70721
300.70719
300.70717
300.70715
300.70714
300.70713
300.70712
300.70711
300.7071
300.70709
300.70707
300.70705
300.70703
300.70701
300.70699
300.70698
300.70696
300.70694
300.70692
300.7069
300.70689
300.70688
300.70687
300.70686
300.70684
300.70683
300.70681
300.70679
300.70677
300.70675
300.70673
300.70672
300.70671
300.7067
300.70668
300.70667
300.70665
300.70664
300.70662
300.7066
300.70659
300.70657
300.70656
300.70655
300.70653
300.70652
300.70651
300.7065
300.70648
300.70647
300.70645
300.70643
300.70641
300.70639
300.70638
300.70637
300.70636
300.70635
300.70634
300.70632
300.70631
300.70629
300.70628
300.70627
300.70626
300.70625
300.70623
300.70622
300.7062
300.70619
300.70617
300.70616
300.70615
300.70614
300.70613
300.70611
300.7061
300.70608
300.70607
300.70605
300.70604
300.70603
300.70603
300.70601
300.706
300.70598
300.70596
300.70595
300.70594
300.70593
300.70592
300.70591
300.7059
300.70588
300.70587
300.70586
300.70585
300.70584
300.70583
300.70582
300.70581
300.7058
300.70578
300.70577
300.70576
300.70575
300.70574
300.70572
300.7057
300.70569
300.70567
300.70567
300.70566
300.70566
300.70565
300.70564
300.70563
300.70561
300.7056
300.70558
300.70557
300.70556
300.70555
300.70554
300.70553
300.70553
300.70551
300.7055
300.70548
300.70547
300.70547
300.70546
300.70545
300.70544
300.70543
300.70542
300.70541
300.7054
300.70539
300.70538
300.70537
300.70535
300.70534
300.70532
300.70531
300.7053
300.7053
300.70529
300.70528
300.70527
300.70527
300.70526
300.70525
300.70524
300.70524
300.70523
300.70522
300.7052
300.70519
300.70518
300.70517
300.70516
300.70515
300.70514
300.70513
300.70512
300.70511
300.70509
300.70509
300.70508
300.70508
300.70507
300.70507
300.70506
300.70505
300.70504
300.70502
300.70501
300.705
300.70498
300.70497
300.70496
300.70495
300.70494
300.70493
300.70493
300.70492
300.70491
300.70491
300.7049
300.70489
300.70488
300.70487
300.70486
300.70485
300.70484
300.70482
300.70482
300.70481
300.7048
300.7048
300.70479
300.70478
300.70477
300.70476
300.70474
300.70473
300.70472
300.70472
300.70472
300.70471
300.7047
300.70468
300.70467
300.70466
300.70465
300.70464
300.70464
300.70463
300.70462
300.70462
300.70461
300.70459
300.70458
300.70457
300.70456
300.70456
300.70455
300.70454
300.70453
300.70452
300.70451
300.7045
300.70449
300.70449
300.70449
300.70448
300.70447
300.70446
300.70445
300.70444
300.70443
300.70443
300.70442
300.70442
300.70441
300.7044
300.7044
300.70439
300.70439
300.70438
300.70438
300.70437
300.70437
300.70436
300.70435
300.70435
300.70435
300.70435
300.70434
300.70433
300.70433
300.70432
300.70432
300.70433
300.70432
300.70432
300.70432
300.70432
300.70432
300.70432
300.70432
300.70432
300.70432
300.70433
300.70433
300.70433
300.70433
300.70433
300.70433
300.70435
300.70436
300.70437
300.70438
300.70438
300.70439
300.70439
300.7044
300.7044
300.70441
300.70442
300.70443
300.70443
300.70444
300.70445
300.70446
300.70446
300.70446
300.70447
300.70448
300.70448
300.70449
300.70449
300.70448
300.70448
300.70448
300.70447
300.70446
300.70445
300.70443
300.70441
300.70439
300.70436
300.70433
300.70429
300.70425
300.70421
300.70416
300.70411
300.70405
300.70399
300.70392
300.70384
300.70376
300.70367
300.70358
300.70347
300.70336