/*--------------------------------*- C++ -*----------------------------------*\
  =========                 |
  \\      /  F ield         | OpenFOAM: The Open Source CFD Toolbox
   \\    /   O peration     | Website:  https://openfoam.org
    \\  /    A nd           | Version:  7
     \\/     M anipulation  |
\*---------------------------------------------------------------------------*/
FoamFile
{
    version     2.0;
    format      ascii;
    class       volScalarField;
    location    "0.00263";
    object      Ux;
}
// * * * * * * * * * * * * * * * * * * * * * * * * * * * * * * * * * * * * * //

dimensions      [0 1 -1 0 0 0 0];

internalField   nonuniform List<scalar> 
5000
(
23.100193
23.100192
23.100191
23.100191
23.10019
23.10019
23.10019
23.10019
23.100189
23.100189
23.100189
23.100188
23.100188
23.100187
23.100187
23.100186
23.100186
23.100186
23.100185
23.100185
23.100185
23.100184
23.100184
23.100184
23.100183
23.100183
23.100182
23.100182
23.100182
23.100181
23.100181
23.10018
23.10018
23.10018
23.100179
23.100179
23.100178
23.100178
23.100178
23.100177
23.100177
23.100177
23.100176
23.100176
23.100176
23.100175
23.100175
23.100174
23.100174
23.100174
23.100173
23.100173
23.100173
23.100172
23.100172
23.100171
23.100171
23.100171
23.10017
23.10017
23.10017
23.100169
23.100169
23.100169
23.100168
23.100168
23.100168
23.100167
23.100167
23.100166
23.100166
23.100166
23.100165
23.100165
23.100165
23.100164
23.100164
23.100164
23.100163
23.100163
23.100162
23.100162
23.100162
23.100161
23.100161
23.100161
23.10016
23.10016
23.10016
23.100159
23.100159
23.100159
23.100158
23.100158
23.100157
23.100157
23.100157
23.100156
23.100156
23.100156
23.100155
23.100155
23.100155
23.100154
23.100155
23.100156
23.100156
23.100153
23.100152
23.100152
23.100152
23.100151
23.100151
23.100151
23.10015
23.10015
23.10015
23.100149
23.100149
23.100149
23.100148
23.100148
23.100147
23.100147
23.100147
23.100147
23.100146
23.100146
23.100145
23.100145
23.100145
23.100144
23.100144
23.100144
23.100143
23.100143
23.100143
23.100142
23.100142
23.100142
23.100141
23.100141
23.100141
23.10014
23.10014
23.10014
23.100139
23.100139
23.100139
23.100138
23.100138
23.100137
23.100137
23.100137
23.100137
23.100136
23.100136
23.100135
23.100135
23.100135
23.100134
23.100134
23.100134
23.100133
23.100133
23.100133
23.100132
23.100132
23.100132
23.100131
23.100131
23.100131
23.10013
23.10013
23.10013
23.100129
23.100129
23.100129
23.100128
23.100128
23.100128
23.100127
23.100127
23.100127
23.100126
23.100126
23.100126
23.100125
23.100125
23.100125
23.100124
23.100124
23.100124
23.100123
23.100123
23.100123
23.100122
23.100122
23.100122
23.100121
23.100121
23.100121
23.100121
23.10012
23.10012
23.100119
23.100119
23.100119
23.100119
23.100118
23.100118
23.100118
23.100117
23.100117
23.100117
23.100116
23.100116
23.100116
23.100115
23.100115
23.100115
23.100114
23.100114
23.100114
23.100113
23.100113
23.100113
23.100112
23.100112
23.100112
23.100111
23.100111
23.100111
23.100111
23.10011
23.10011
23.10011
23.100109
23.100109
23.100109
23.100108
23.100108
23.100108
23.100107
23.100107
23.100107
23.100107
23.100106
23.100106
23.100106
23.100105
23.100105
23.100105
23.100104
23.100104
23.100104
23.100103
23.100103
23.100103
23.100103
23.100102
23.100102
23.100102
23.100101
23.100101
23.100101
23.1001
23.1001
23.1001
23.1001
23.100099
23.100099
23.100099
23.100098
23.100098
23.100098
23.100097
23.100097
23.100097
23.100097
23.100096
23.100096
23.100096
23.100095
23.100095
23.100095
23.100095
23.100094
23.100094
23.100094
23.100093
23.100093
23.100093
23.100093
23.100092
23.100092
23.100092
23.100091
23.100091
23.100091
23.100091
23.10009
23.10009
23.10009
23.100089
23.100089
23.100089
23.100089
23.100088
23.100088
23.100088
23.100087
23.100087
23.100087
23.100087
23.100086
23.100086
23.100086
23.100085
23.100085
23.100085
23.100085
23.100084
23.100084
23.100084
23.100084
23.100083
23.100083
23.100083
23.100082
23.100082
23.100082
23.100082
23.100081
23.100081
23.100081
23.100081
23.10008
23.10008
23.10008
23.10008
23.100079
23.100079
23.100079
23.100078
23.100078
23.100078
23.100078
23.100077
23.100077
23.100077
23.100077
23.100076
23.100076
23.100076
23.100075
23.100075
23.100075
23.100075
23.100074
23.100074
23.100074
23.100074
23.100073
23.100073
23.100073
23.100073
23.100072
23.100072
23.100072
23.100071
23.100071
23.100071
23.100071
23.100071
23.10007
23.10007
23.10007
23.100069
23.100069
23.100069
23.100069
23.100068
23.100068
23.100068
23.100068
23.100067
23.100067
23.100067
23.100067
23.100066
23.100066
23.100066
23.100066
23.100065
23.100065
23.100065
23.100065
23.100064
23.100064
23.100064
23.100064
23.100063
23.100063
23.100063
23.100063
23.100062
23.100062
23.100062
23.100062
23.100061
23.100061
23.100061
23.100061
23.10006
23.10006
23.10006
23.10006
23.100059
23.100059
23.100059
23.100059
23.100058
23.100058
23.100058
23.100058
23.100057
23.100057
23.100057
23.100057
23.100056
23.100056
23.100056
23.100056
23.100055
23.100055
23.100055
23.100055
23.100054
23.100054
23.100054
23.100054
23.100054
23.100053
23.100053
23.100053
23.100053
23.100052
23.100052
23.100052
23.100052
23.100051
23.100051
23.100051
23.100051
23.10005
23.10005
23.10005
23.10005
23.100049
23.100049
23.100049
23.100049
23.100049
23.100048
23.100048
23.100048
23.100048
23.100047
23.100047
23.100047
23.100047
23.100046
23.100046
23.100046
23.100046
23.100046
23.100045
23.100045
23.100045
23.100045
23.100044
23.100044
23.100044
23.100044
23.100043
23.100043
23.100043
23.100043
23.100043
23.100042
23.100042
23.100042
23.100042
23.100041
23.100041
23.100041
23.100041
23.100041
23.10004
23.10004
23.10004
23.10004
23.100039
23.100039
23.100039
23.100039
23.100039
23.100038
23.100038
23.100038
23.100038
23.100037
23.100037
23.100037
23.100037
23.100037
23.100036
23.100036
23.100036
23.100036
23.100036
23.100035
23.100035
23.100035
23.100035
23.100034
23.100034
23.100034
23.100034
23.100034
23.100033
23.100033
23.100033
23.100033
23.100033
23.100032
23.100032
23.100032
23.100032
23.100032
23.100031
23.100031
23.100031
23.100031
23.100031
23.10003
23.10003
23.10003
23.10003
23.10003
23.100029
23.100029
23.100029
23.100029
23.100028
23.100028
23.100028
23.100028
23.100028
23.100027
23.100027
23.100027
23.100027
23.100027
23.100026
23.100026
23.100026
23.100026
23.100026
23.100025
23.100025
23.100025
23.100025
23.100025
23.100024
23.100024
23.100024
23.100024
23.100024
23.100023
23.100023
23.100023
23.100023
23.100023
23.100022
23.100022
23.100022
23.100022
23.100022
23.100021
23.100021
23.100021
23.100021
23.100021
23.10002
23.10002
23.10002
23.10002
23.10002
23.10002
23.100019
23.100019
23.100019
23.100019
23.100018
23.100018
23.100018
23.100018
23.100018
23.100018
23.100017
23.100017
23.100017
23.100017
23.100017
23.100016
23.100016
23.100016
23.100016
23.100016
23.100015
23.100015
23.100015
23.100015
23.100015
23.100014
23.100014
23.100014
23.100014
23.100014
23.100013
23.100013
23.100013
23.100013
23.100013
23.100012
23.100012
23.100012
23.100012
23.100012
23.100011
23.100011
23.100011
23.100011
23.100011
23.10001
23.10001
23.10001
23.10001
23.10001
23.100009
23.100009
23.100009
23.100009
23.100009
23.100008
23.100008
23.100008
23.100008
23.100008
23.100007
23.100007
23.100007
23.100007
23.100006
23.100006
23.100006
23.100006
23.100006
23.100005
23.100005
23.100005
23.100005
23.100005
23.100004
23.100004
23.100004
23.100004
23.100004
23.100003
23.100003
23.100003
23.100003
23.100003
23.100002
23.100002
23.100002
23.100002
23.100002
23.100001
23.100001
23.100001
23.100001
23.100001
23.1
23.1
23.1
23.1
23.099999
23.099999
23.099999
23.099999
23.099999
23.099998
23.099998
23.099998
23.099998
23.099998
23.099997
23.099997
23.099997
23.099997
23.099997
23.099996
23.099996
23.099996
23.099996
23.099996
23.099995
23.099995
23.099995
23.099995
23.099995
23.099994
23.099994
23.099994
23.099994
23.099994
23.099993
23.099993
23.099993
23.099993
23.099993
23.099992
23.099992
23.099992
23.099992
23.099992
23.099991
23.099991
23.099991
23.099991
23.099991
23.09999
23.09999
23.09999
23.09999
23.09999
23.099989
23.099989
23.099989
23.099989
23.099989
23.099988
23.099988
23.099988
23.099988
23.099988
23.099988
23.099987
23.099987
23.099987
23.099987
23.099987
23.099986
23.099986
23.099986
23.099986
23.099986
23.099985
23.099985
23.099985
23.099985
23.099985
23.099985
23.099984
23.099984
23.099984
23.099984
23.099984
23.099983
23.099983
23.099983
23.099983
23.099983
23.099983
23.099982
23.099982
23.099982
23.099982
23.099982
23.099981
23.099981
23.099981
23.099981
23.099981
23.099981
23.09998
23.09998
23.09998
23.09998
23.09998
23.09998
23.099979
23.099979
23.099979
23.099979
23.099979
23.099979
23.099978
23.099978
23.099978
23.099978
23.099978
23.099978
23.099977
23.099977
23.099977
23.099977
23.099977
23.099977
23.099977
23.099976
23.099976
23.099976
23.099976
23.099976
23.099976
23.099975
23.099975
23.099975
23.099975
23.099975
23.099975
23.099975
23.099974
23.099974
23.099974
23.099974
23.099974
23.099974
23.099973
23.099973
23.099973
23.099973
23.099973
23.099973
23.099973
23.099972
23.099972
23.099972
23.099972
23.099972
23.099972
23.099972
23.099971
23.099971
23.099971
23.099971
23.099971
23.099971
23.099971
23.09997
23.09997
23.09997
23.09997
23.09997
23.09997
23.09997
23.099969
23.099969
23.099969
23.099969
23.099969
23.099969
23.099969
23.099968
23.099968
23.099968
23.099968
23.099968
23.099968
23.099968
23.099967
23.099967
23.099967
23.099967
23.099967
23.099967
23.099967
23.099966
23.099966
23.099966
23.099966
23.099966
23.099966
23.099966
23.099965
23.099965
23.099965
23.099965
23.099965
23.099965
23.099964
23.099964
23.099964
23.099964
23.099964
23.099964
23.099964
23.099963
23.099963
23.099963
23.099963
23.099963
23.099963
23.099963
23.099962
23.099962
23.099962
23.099962
23.099962
23.099962
23.099962
23.099961
23.099961
23.099961
23.099961
23.099961
23.099961
23.099961
23.09996
23.09996
23.09996
23.09996
23.09996
23.09996
23.09996
23.099959
23.099959
23.099959
23.099959
23.099959
23.099959
23.099959
23.099958
23.099958
23.099958
23.099958
23.099958
23.099958
23.099958
23.099957
23.099957
23.099957
23.099957
23.099957
23.099957
23.099957
23.099956
23.099956
23.099956
23.099956
23.099956
23.099956
23.099955
23.099955
23.099955
23.099955
23.099955
23.099955
23.099955
23.099954
23.099954
23.099954
23.099954
23.099954
23.099954
23.099954
23.099953
23.099953
23.099953
23.099953
23.099953
23.099953
23.099953
23.099952
23.099952
23.099952
23.099952
23.099952
23.099952
23.099952
23.099951
23.099951
23.099951
23.099951
23.099951
23.099951
23.099951
23.09995
23.09995
23.09995
23.09995
23.09995
23.09995
23.09995
23.099949
23.099949
23.099949
23.099949
23.099949
23.099949
23.099949
23.099948
23.099948
23.099948
23.099948
23.099948
23.099948
23.099948
23.099947
23.099947
23.099947
23.099947
23.099947
23.099947
23.099947
23.099946
23.099946
23.099946
23.099946
23.099946
23.099946
23.099946
23.099946
23.099945
23.099945
23.099945
23.099945
23.099945
23.099945
23.099945
23.099944
23.099944
23.099944
23.099944
23.099944
23.099944
23.099944
23.099944
23.099943
23.099943
23.099943
23.099943
23.099943
23.099943
23.099943
23.099943
23.099942
23.099942
23.099942
23.099942
23.099942
23.099942
23.099942
23.099942
23.099941
23.099941
23.099941
23.099941
23.099941
23.099941
23.099941
23.099941
23.099941
23.09994
23.09994
23.09994
23.09994
23.09994
23.09994
23.09994
23.09994
23.099939
23.099939
23.099939
23.099939
23.099939
23.099939
23.099939
23.099939
23.099939
23.099938
23.099938
23.099938
23.099938
23.099938
23.099938
23.099938
23.099938
23.099938
23.099937
23.099937
23.099937
23.099937
23.099937
23.099937
23.099937
23.099937
23.099937
23.099937
23.099936
23.099936
23.099936
23.099936
23.099936
23.099936
23.099936
23.099936
23.099936
23.099935
23.099935
23.099935
23.099935
23.099935
23.099935
23.099935
23.099935
23.099935
23.099935
23.099934
23.099934
23.099934
23.099934
23.099934
23.099934
23.099934
23.099934
23.099934
23.099934
23.099933
23.099933
23.099933
23.099933
23.099933
23.099933
23.099933
23.099933
23.099933
23.099933
23.099933
23.099932
23.099932
23.099932
23.099932
23.099932
23.099932
23.099932
23.099932
23.099932
23.099932
23.099931
23.099931
23.099931
23.099931
23.099931
23.099931
23.099931
23.099931
23.099931
23.099931
23.09993
23.09993
23.09993
23.09993
23.09993
23.09993
23.09993
23.09993
23.09993
23.099929
23.099929
23.099929
23.099929
23.099929
23.099929
23.099929
23.099929
23.099929
23.099928
23.099928
23.099928
23.099928
23.099928
23.099928
23.099928
23.099928
23.099927
23.099927
23.099927
23.099927
23.099927
23.099927
23.099927
23.099927
23.099926
23.099926
23.099926
23.099926
23.099926
23.099926
23.099926
23.099926
23.099925
23.099925
23.099925
23.099925
23.099925
23.099925
23.099925
23.099924
23.099924
23.099924
23.099924
23.099924
23.099924
23.099924
23.099923
23.099923
23.099923
23.099923
23.099923
23.099923
23.099923
23.099922
23.099922
23.099922
23.099922
23.099922
23.099922
23.099921
23.099921
23.099921
23.099921
23.099921
23.099921
23.09992
23.09992
23.09992
23.09992
23.09992
23.09992
23.099919
23.099919
23.099919
23.099919
23.099919
23.099918
23.099918
23.099918
23.099918
23.099918
23.099917
23.099917
23.099917
23.099917
23.099917
23.099917
23.099916
23.099916
23.099916
23.099916
23.099915
23.099915
23.099915
23.099915
23.099915
23.099914
23.099914
23.099914
23.099914
23.099914
23.099913
23.099913
23.099913
23.099913
23.099912
23.099912
23.099912
23.099912
23.099911
23.099911
23.099911
23.099911
23.099911
23.09991
23.09991
23.09991
23.09991
23.099909
23.099909
23.099909
23.099909
23.099908
23.099908
23.099908
23.099907
23.099907
23.099907
23.099907
23.099906
23.099906
23.099906
23.099906
23.099905
23.099905
23.099905
23.099905
23.099904
23.099904
23.099904
23.099903
23.099903
23.099903
23.099903
23.099902
23.099902
23.099902
23.099901
23.099901
23.099901
23.0999
23.0999
23.0999
23.0999
23.099899
23.099899
23.099899
23.099898
23.099898
23.099898
23.099897
23.099897
23.099897
23.099896
23.099896
23.099896
23.099895
23.099895
23.099895
23.099894
23.099894
23.099894
23.099893
23.099893
23.099893
23.099892
23.099892
23.099892
23.099891
23.099891
23.099891
23.09989
23.09989
23.09989
23.099889
23.099889
23.099889
23.099888
23.099888
23.099887
23.099887
23.099887
23.099886
23.099886
23.099886
23.099885
23.099885
23.099884
23.099884
23.099884
23.099883
23.099883
23.099882
23.099882
23.099882
23.099881
23.099881
23.099881
23.09988
23.09988
23.099879
23.099879
23.099878
23.099878
23.099878
23.099877
23.099877
23.099876
23.099876
23.099876
23.099875
23.099875
23.099874
23.099874
23.099873
23.099873
23.099873
23.099872
23.099872
23.099871
23.099871
23.09987
23.09987
23.099869
23.099869
23.099868
23.099868
23.099868
23.099867
23.099867
23.099866
23.099866
23.099865
23.099865
23.099864
23.099864
23.099863
23.099863
23.099862
23.099862
23.099861
23.099861
23.09986
23.09986
23.099859
23.099859
23.099858
23.099857
23.099857
23.099856
23.099856
23.099855
23.099855
23.099854
23.099854
23.099853
23.099852
23.099852
23.099851
23.099851
23.09985
23.099849
23.099849
23.099848
23.099848
23.099847
23.099846
23.099846
23.099845
23.099844
23.099844
23.099843
23.099842
23.099842
23.099841
23.09984
23.09984
23.099839
23.099838
23.099838
23.099837
23.099836
23.099835
23.099835
23.099834
23.099833
23.099832
23.099832
23.099831
23.09983
23.099829
23.099828
23.099827
23.099827
23.099826
23.099825
23.099824
23.099823
23.099822
23.099821
23.09982
23.099819
23.099818
23.099817
23.099816
23.099815
23.099814
23.099813
23.099812
23.099811
23.09981
23.099809
23.099807
23.099806
23.099805
23.099804
23.099803
23.099801
23.0998
23.099799
23.099797
23.099796
23.099794
23.099793
23.099791
23.09979
23.099788
23.099787
23.099785
23.099783
23.099782
23.09978
23.099778
23.099776
23.099774
23.099772
23.09977
23.099768
23.099766
23.099764
23.099762
23.09976
23.099757
23.099755
23.099752
23.09975
23.099747
23.099745
23.099742
23.099739
23.099736
23.099733
23.09973
23.099727
23.099724
23.09972
23.099717
23.099713
23.09971
23.099706
23.099702
23.099698
23.099694
23.09969
23.099686
23.099681
23.099677
23.099672
23.099667
23.099662
23.099657
23.099652
23.099646
23.09964
23.099635
23.099629
23.099623
23.099616
23.09961
23.099603
23.099596
23.099589
23.099581
23.099574
23.099566
23.099558
23.09955
23.099541
23.099532
23.099523
23.099514
23.099504
23.099494
23.099484
23.099474
23.099463
23.099452
23.09944
23.099428
23.099416
23.099403
23.09939
23.099377
23.099363
23.099349
23.099335
23.09932
23.099304
23.099288
23.099272
23.099255
23.099238
23.09922
23.099201
23.099182
23.099163
23.099143
23.099122
23.099101
23.099079
23.099057
23.099034
23.09901
23.098985
23.09896
23.098934
23.098908
23.09888
23.098852
23.098823
23.098794
23.098763
23.098732
23.098699
23.098666
23.098632
23.098597
23.098561
23.098524
23.098486
23.098447
23.098407
23.098366
23.098324
23.09828
23.098236
23.09819
23.098143
23.098095
23.098046
23.097995
23.097943
23.097889
23.097835
23.097778
23.097721
23.097662
23.097601
23.097539
23.097475
23.09741
23.097343
23.097274
23.097203
23.097131
23.097057
23.096981
23.096904
23.096824
23.096743
23.096659
23.096574
23.096486
23.096396
23.096304
23.096211
23.096114
23.096016
23.095915
23.095812
23.095706
23.095598
23.095488
23.095375
23.095259
23.095141
23.09502
23.094896
23.09477
23.094641
23.094509
23.094374
23.094236
23.094094
23.09395
23.093803
23.093653
23.093499
23.093342
23.093182
23.093018
23.092851
23.09268
23.092506
23.092328
23.092147
23.091962
23.091773
23.09158
23.091383
23.091182
23.090978
23.090769
23.090556
23.090338
23.090117
23.089891
23.089661
23.089426
23.089187
23.088944
23.088695
23.088442
23.088184
23.087922
23.087654
23.087382
23.087104
23.086822
23.086534
23.086241
23.085943
23.085639
23.08533
23.085016
23.084696
23.08437
23.084039
23.083702
23.083359
23.08301
23.082656
23.082295
23.081928
23.081556
23.081177
23.080791
23.0804
23.080002
23.079597
23.079186
23.078769
23.078345
23.077914
23.077476
23.077031
23.07658
23.076121
23.075656
23.075183
23.074703
23.074216
23.073722
23.07322
23.072711
23.072194
23.07167
23.071138
23.070598
23.070051
23.069496
23.068933
23.068362
23.067783
23.067197
23.066602
23.065999
23.065387
23.064768
23.06414
23.063503
23.062859
23.062205
23.061544
23.060873
23.060194
23.059506
23.05881
23.058105
23.057391
23.056668
23.055936
23.055195
23.054445
23.053685
23.052917
23.05214
23.051353
23.050557
23.049752
23.048938
23.048114
23.04728
23.046437
23.045585
23.044723
23.043852
23.042971
23.04208
23.04118
23.04027
23.03935
23.038421
23.037481
23.036532
23.035573
23.034605
23.033626
23.032637
23.031639
23.03063
23.029612
23.028584
23.027545
23.026497
23.025438
23.02437
23.023291
23.022203
23.021104
23.019995
23.018877
23.017748
23.016609
23.015459
23.0143
23.013131
23.011952
23.010762
23.009562
23.008353
23.007133
23.005903
23.004663
23.003413
23.002153
23.000883
22.999603
22.998313
22.997013
22.995703
22.994383
22.993053
22.991713
22.990363
22.989004
22.987634
22.986255
22.984866
22.983467
22.982058
22.98064
22.979212
22.977775
22.976328
22.974871
22.973405
22.97193
22.970445
22.96895
22.967446
22.965933
22.964411
22.96288
22.961339
22.959789
22.95823
22.956662
22.955086
22.9535
22.951906
22.950302
22.94869
22.947069
22.94544
22.943802
22.942156
22.940501
22.938838
22.937167
22.935487
22.9338
22.932104
22.9304
22.928688
22.926969
22.925241
22.923506
22.921764
22.920013
22.918256
22.91649
22.914718
22.912938
22.911151
22.909357
22.907556
22.905748
22.903933
22.902112
22.900284
22.898449
22.896608
22.89476
22.892906
22.891046
22.88918
22.887308
22.885429
22.883545
22.881656
22.87976
22.877859
22.875953
22.874041
22.872124
22.870201
22.868274
22.866342
22.864404
22.862462
22.860516
22.858564
22.856609
22.854649
22.852684
22.850716
22.848743
22.846766
22.844786
22.842802
22.840814
22.838823
22.836828
22.83483
22.832828
22.830824
22.828816
22.826806
22.824792
22.822776
22.820758
22.818737
22.816713
22.814688
22.81266
22.81063
22.808598
22.806564
22.804529
22.802491
22.800453
22.798413
22.796371
22.794329
22.792285
22.79024
22.788195
22.786148
22.784101
22.782054
22.780005
22.777957
22.775908
22.773859
22.77181
22.769761
22.767713
22.765664
22.763616
22.761568
22.759521
22.757475
22.755429
22.753384
22.751341
22.749298
22.747256
22.745216
22.743177
22.74114
22.739104
22.73707
22.735037
22.733006
22.730978
22.728951
22.726927
22.724904
22.722884
22.720867
22.718852
22.716839
22.71483
22.712823
22.710819
22.708817
22.706819
22.704824
22.702832
22.700844
22.698859
22.696877
22.694899
22.692925
22.690954
22.688987
22.687024
22.685064
22.683109
22.681158
22.679211
22.677268
22.67533
22.673396
22.671467
22.669542
22.667621
22.665706
22.663795
22.661889
22.659987
22.658091
22.6562
22.654314
22.652433
22.650557
22.648686
22.646821
22.644961
22.643106
22.641257
22.639414
22.637576
22.635744
22.633917
22.632097
22.630282
22.628473
22.62667
22.624873
22.623081
22.621296
22.619517
22.617744
22.615978
22.614217
22.612463
22.610715
22.608974
22.607239
22.60551
22.603788
22.602072
22.600363
22.59866
22.596964
22.595275
22.593592
22.591916
22.590247
22.588584
22.586928
22.585279
22.583637
22.582002
22.580374
22.578752
22.577137
22.57553
22.573929
22.572335
22.570749
22.569169
22.567596
22.566031
22.564472
22.562921
22.561376
22.559839
22.558309
22.556786
22.55527
22.553761
22.55226
22.550766
22.549278
22.547798
22.546325
22.54486
22.543401
22.54195
22.540506
22.539069
22.53764
22.536217
22.534802
22.533394
22.531993
22.5306
22.529214
22.527834
22.526462
22.525098
22.52374
22.52239
22.521047
22.519711
22.518382
22.51706
22.515746
22.514439
22.513138
22.511845
22.51056
22.509281
22.508009
22.506745
22.505487
22.504237
22.502994
22.501757
22.500528
22.499306
22.498091
22.496883
22.495682
22.494488
22.493301
22.49212
22.490947
22.489781
22.488621
22.487469
22.486323
22.485185
22.484053
22.482928
22.481809
22.480698
22.479593
22.478495
22.477404
22.47632
22.475242
22.474171
22.473107
22.472049
22.470998
22.469954
22.468916
22.467885
22.46686
22.465842
22.464831
22.463826
22.462827
22.461835
22.46085
22.459871
22.458898
22.457932
22.456972
22.456018
22.455071
22.45413
22.453196
22.452268
22.451346
22.45043
22.449521
22.448617
22.44772
22.446829
22.445945
22.445066
22.444193
22.443327
22.442467
22.441612
22.440764
22.439922
22.439086
22.438255
22.437431
22.436613
22.4358
22.434994
22.434193
22.433398
22.432609
22.431826
22.431049
22.430277
22.429511
22.428751
22.427997
22.427248
22.426505
22.425768
22.425036
22.42431
22.423589
22.422874
22.422165
22.421461
22.420763
22.42007
22.419383
22.418701
22.418024
22.417353
22.416688
22.416028
22.415373
22.414723
22.414079
22.41344
22.412807
22.412178
22.411555
22.410937
22.410325
22.409717
22.409115
22.408518
22.407926
22.407339
22.406757
22.40618
22.405608
22.405042
22.40448
22.403923
22.403371
22.402824
22.402282
22.401745
22.401213
22.400686
22.400163
22.399646
22.399133
22.398625
22.398121
22.397623
22.397129
22.396639
22.396155
22.395675
22.395199
22.394729
22.394262
22.393801
22.393344
22.392891
22.392443
22.391999
22.39156
22.391126
22.390695
22.390269
22.389848
22.38943
22.389017
22.388609
22.388204
22.387804
22.387408
22.387016
22.386628
22.386245
22.385866
22.38549
22.385119
22.384752
22.384389
22.38403
22.383674
22.383323
22.382976
22.382633
22.382293
22.381957
22.381626
22.381298
22.380973
22.380653
22.380336
22.380023
22.379714
22.379408
22.379106
22.378808
22.378513
22.378221
22.377934
22.377649
22.377369
22.377091
22.376817
22.376547
22.37628
22.376016
22.375755
22.375498
22.375244
22.374994
22.374746
22.374502
22.374261
22.374023
22.373788
22.373557
22.373328
22.373103
22.37288
22.37266
22.372444
22.37223
22.37202
22.371812
22.371607
22.371405
22.371205
22.371009
22.370815
22.370624
22.370435
22.37025
22.370067
22.369886
22.369709
22.369533
22.369361
22.369191
22.369023
22.368858
22.368695
22.368535
22.368377
22.368222
22.368069
22.367918
22.367769
22.367623
22.367479
22.367337
22.367198
22.367061
22.366925
22.366792
22.366661
22.366533
22.366406
22.366281
22.366158
22.366037
22.365919
22.365802
22.365687
22.365574
22.365463
22.365353
22.365246
22.36514
22.365036
22.364934
22.364834
22.364735
22.364638
22.364543
22.364449
22.364357
22.364267
22.364178
22.364091
22.364005
22.363921
22.363838
22.363757
22.363677
22.363599
22.363522
22.363446
22.363372
22.363299
22.363228
22.363158
22.363089
22.363022
22.362955
22.36289
22.362827
22.362764
22.362703
22.362643
22.362584
22.362526
22.362469
22.362414
22.362359
22.362306
22.362253
22.362202
22.362151
22.362102
22.362054
22.362006
22.36196
22.361914
22.36187
22.361826
22.361784
22.361742
22.361701
22.361661
22.361621
22.361583
22.361545
22.361508
22.361472
22.361437
22.361402
22.361369
22.361335
22.361303
22.361271
22.361241
22.36121
22.361181
22.361152
22.361123
22.361096
22.361069
22.361042
22.361016
22.360991
22.360966
22.360942
22.360918
22.360895
22.360873
22.360851
22.36083
22.360809
22.360788
22.360768
22.360748
22.360729
22.360711
22.360693
22.360675
22.360658
22.360641
22.360624
22.360608
22.360592
22.360577
22.360562
22.360548
22.360534
22.36052
22.360506
22.360493
22.36048
22.360468
22.360456
22.360444
22.360432
22.360421
22.36041
22.360399
22.360389
22.360379
22.360369
22.360359
22.36035
22.360341
22.360332
22.360323
22.360315
22.360307
22.360299
22.360291
22.360283
22.360276
22.360269
22.360262
22.360255
22.360249
22.360242
22.360236
22.36023
22.360224
22.360218
22.360213
22.360207
22.360202
22.360197
22.360192
22.360187
22.360183
22.360178
22.360174
22.360169
22.360165
22.360161
22.360157
22.360154
22.36015
22.360146
22.360143
22.360139
22.360136
22.360133
22.36013
22.360127
22.360124
22.360121
22.360118
22.360116
22.360113
22.360111
22.360108
22.360106
22.360104
22.360101
22.360099
22.360097
22.360095
22.360093
22.360091
22.360089
22.360088
22.360086
22.360084
22.360083
22.360081
22.36008
22.360078
22.360077
22.360075
22.360074
22.360073
22.360071
22.36007
22.360069
22.360068
22.360067
22.360066
22.360064
22.360063
22.360062
22.360061
22.360061
22.36006
22.360059
22.360058
22.360057
22.360056
22.360056
22.360055
22.360054
22.360053
22.360053
22.360052
22.360051
22.360051
22.36005
22.36005
22.360049
22.360048
22.360048
22.360047
22.360047
22.360046
22.360046
22.360046
22.360045
22.360045
22.360044
22.360044
22.360044
22.360043
22.360043
22.360043
22.360042
22.360042
22.360042
22.360041
22.360041
22.360041
22.360041
22.36004
22.36004
22.36004
22.36004
22.36004
22.36004
22.360039
22.360039
22.360039
22.360039
22.360039
22.360039
22.360039
22.360039
22.360039
22.360039
22.360039
22.360039
22.36004
22.36004
22.36004
22.36004
22.36004
22.360041
22.360041
22.360041
22.360041
22.360042
22.360042
22.360043
22.360043
22.360044
22.360044
22.360045
22.360045
22.360046
22.360047
22.360048
22.360049
22.360049
22.36005
22.360051
22.360052
22.360054
22.360055
22.360056
22.360057
22.360059
22.36006
22.360062
22.360064
22.360065
22.360067
22.360069
22.360071
22.360073
22.360076
22.360078
22.36008
22.360083
22.360086
22.360089
22.360092
22.360095
22.360098
22.360102
22.360105
22.360109
22.360113
22.360117
22.360121
22.360126
22.360131
22.360135
22.360141
22.360146
22.360152
22.360157
22.360164
22.36017
22.360177
22.360184
22.360191
22.360198
22.360206
22.360214
22.360223
22.360232
22.360241
22.360251
22.360261
22.360271
22.360282
22.360294
22.360305
22.360318
22.36033
22.360344
22.360357
22.360372
22.360387
22.360402
22.360418
22.360435
22.360453
22.360471
22.360489
22.360509
22.360529
22.36055
22.360572
22.360595
22.360618
22.360643
22.360668
22.360695
22.360722
22.36075
22.36078
22.36081
22.360842
22.360875
22.360909
22.360944
22.360981
22.361019
22.361058
22.361099
22.361141
22.361185
22.36123
22.361277
22.361326
22.361376
22.361428
22.361482
22.361538
22.361596
22.361656
22.361718
22.361782
22.361848
22.361917
22.361988
22.362061
22.362137
22.362216
22.362297
22.36238
22.362467
22.362557
22.36265
22.362745
22.362845
22.362947
22.363053
22.363162
22.363275
22.363391
22.363511
22.363635
22.363763
22.363895
22.364031
22.364171
22.364316
22.364467
22.364622
22.364782
22.364949
22.36512
22.365297
22.36548
22.365668
22.365861
22.366058
22.366261
22.366468
22.366679
22.366899
22.367135
22.367401
22.367741
22.368254
22.369115
22.369059
22.368589
22.368796
22.369212
22.3695
22.369781
22.370095
22.370428
22.370764
22.371106
22.37146
22.371827
22.372203
22.372588
22.372985
22.373392
22.373809
22.374237
22.374675
22.375124
22.375585
22.376056
22.376539
22.377034
22.377541
22.37806
22.378592
22.379138
22.379696
22.380269
22.380855
22.381456
22.382071
22.382701
22.383347
22.384008
22.384685
22.385378
22.386087
22.386813
22.387557
22.388318
22.389096
22.389892
22.390707
22.391539
22.39239
22.393262
22.394155
22.395068
22.395999
22.39695
22.397923
22.398918
22.399934
22.400972
22.402032
22.403115
22.404221
22.405351
22.406504
22.407681
22.408882
22.410109
22.41136
22.412637
22.41394
22.415269
22.416624
22.418007
22.419416
22.420853
22.422318
22.423812
22.425334
22.426884
22.428464
22.430074
22.431714
22.433384
22.435085
22.436817
22.43858
22.440374
22.442201
22.44406
22.445951
22.447876
22.449833
22.451824
22.453849
22.455909
22.458002
22.46013
22.462294
22.464492
22.466726
22.468996
22.471302
22.473644
22.476023
22.478438
22.480891
22.483381
22.485908
22.488473
22.491076
22.493717
22.496396
22.499114
22.50187
22.504666
22.5075
22.510373
22.513285
22.516237
22.519228
22.522259
22.525329
22.528439
22.531589
22.534779
22.538009
22.541278
22.544588
22.547937
22.551327
22.554757
22.558227
22.561736
22.565286
22.568875
22.572504
22.576173
22.579882
22.58363
22.587417
22.591244
22.59511
22.599015
22.602958
22.60694
22.610961
22.61502
22.619117
22.623251
22.627423
22.631633
22.635879
22.640162
22.644481
22.648836
22.653227
22.657653
22.662115
22.66661
22.67114
22.675704
22.680301
22.684932
22.689594
22.694289
22.699016
22.703773
22.708561
22.713379
22.718227
22.723104
22.728009
22.732943
22.737903
22.742891
22.747905
22.752944
22.758008
22.763097
22.768209
22.773344
22.778502
22.783681
22.788882
22.794102
22.799343
22.804602