/*--------------------------------*- C++ -*----------------------------------*\
  =========                 |
  \\      /  F ield         | OpenFOAM: The Open Source CFD Toolbox
   \\    /   O peration     | Website:  https://openfoam.org
    \\  /    A nd           | Version:  7
     \\/     M anipulation  |
\*---------------------------------------------------------------------------*/
FoamFile
{
    version     2.0;
    format      ascii;
    class       volVectorField;
    location    "0.0006";
    object      U;
}
// * * * * * * * * * * * * * * * * * * * * * * * * * * * * * * * * * * * * * //

dimensions      [0 1 -1 0 0 0 0];

internalField   nonuniform List<vector> 
5000
(
(6.5489169e-13 8.4441166e-29 0)
(5.5472121e-13 6.3330875e-28 0)
(5.9459549e-13 0 0)
(5.517716e-13 0 0)
(8.366928e-13 6.3330875e-29 0)
(9.8701057e-13 -2.8799547e-43 2.533235e-28)
(9.7146275e-13 -4.4331612e-28 9.4498515e-43)
(1.0381918e-12 0 -1.7099336e-27)
(9.5608065e-13 0 -6.3330875e-28)
(8.2975403e-13 3.1665437e-28 6.3330875e-28)
(8.6568197e-13 8.3609706e-43 8.3609706e-43)
(7.7787338e-13 4.9398317e-43 4.9398317e-43)
(5.1165684e-13 -1.2666175e-28 1.079983e-42)
(7.2864083e-13 7.0780435e-43 3.058951e-56)
(7.947948e-13 0 1.2666175e-28)
(8.0312829e-13 -1.8999262e-28 -3.7998525e-28)
(9.1207912e-13 1.9515332e-55 9.7576662e-56)
(1.0920922e-12 5.06647e-28 -4.4639299e-42)
(1.1731539e-12 0 -3.7998525e-28)
(1.158029e-12 3.7998525e-28 7.599705e-28)
(1.2551018e-12 -1.8999262e-28 1.8999262e-28)
(1.2473041e-12 -1.8999262e-28 0)
(1.2610692e-12 5.06647e-28 0)
(1.1425302e-12 5.3083326e-43 5.3083326e-43)
(1.2738545e-12 6.3330875e-29 -5.3999152e-43)
(1.0808871e-12 -5.219918e-43 -5.219918e-43)
(1.0146472e-12 -1.2754877e-42 1.2754877e-42)
(1.2419984e-12 -1.2666175e-28 -1.2666175e-28)
(1.0768996e-12 2.533235e-28 -1.2666175e-28)
(1.114969e-12 -2.1959655e-42 1.2666175e-28)
(1.2366606e-12 -1.0489316e-55 1.0489316e-55)
(1.101528e-12 -1.2666175e-28 1.079983e-42)
(1.1551343e-12 -2.533235e-28 1.2666175e-28)
(1.0157637e-12 -2.533235e-28 1.2666175e-28)
(8.8813595e-13 1.0979827e-42 6.3330875e-29)
(1.1284538e-12 1.1015827e-41 0)
(1.1900164e-12 4.391931e-42 0)
(9.8960246e-13 5.1317082e-43 -2.5658541e-43)
(1.0365212e-12 1.2666175e-28 6.3330875e-29)
(9.1422192e-13 1.2666175e-28 -6.3330875e-29)
(1.03818e-12 -5.06647e-28 4.2479333e-42)
(1.0937132e-12 3.4847452e-41 5.06647e-28)
(1.0617022e-12 5.06647e-28 -2.533235e-28)
(9.6881498e-13 -1.2666175e-28 2.1419663e-42)
(1.0362086e-12 -5.6997787e-28 1.8999262e-28)
(9.4439972e-13 -1.4745368e-44 1.4745368e-44)
(6.8489577e-13 -1.8999262e-28 -6.5338973e-42)
(4.8343712e-13 -2.1689659e-41 1.084483e-41)
(5.1190678e-13 -6.3330875e-28 -1.0889829e-41)
(5.8201636e-13 0 3.2399491e-42)
(7.2623186e-13 4.4238772e-43 4.3501504e-43)
(7.5929361e-13 -8.9998586e-45 0)
(6.7876194e-13 1.8999262e-28 0)
(9.2254682e-13 -7.599705e-28 0)
(9.4234444e-13 1.1069826e-41 0)
(8.811348e-13 8.8663225e-28 0)
(5.8496204e-13 -5.06647e-28 0)
(7.4092952e-13 8.7478626e-42 0)
(6.1408644e-13 -6.3330875e-29 0)
(7.4110442e-13 0 0)
(8.4090588e-13 -1.2666175e-28 0)
(8.1517781e-13 -2.1599661e-42 0)
(8.1670573e-13 -9.3960484e-59 0)
(6.1608949e-13 -2.9026698e-42 2.9026698e-42)
(6.8199078e-13 1.2666175e-28 1.2666175e-28)
(5.078782e-13 -6.6418956e-42 -1.8999262e-28)
(6.0860115e-13 -6.3330875e-29 1.0889829e-42)
(3.5245867e-13 6.3330875e-29 -1.8295624e-56)
(5.9125958e-13 1.2666175e-28 -1.2666175e-28)
(5.3460683e-13 6.3330875e-29 0)
(4.2004088e-13 1.2666175e-28 0)
(8.7419661e-13 -6.3330875e-29 -6.3330875e-29)
(6.3444114e-13 6.3330875e-29 6.3330875e-29)
(8.951742e-13 1.3565205e-42 0)
(8.2400849e-13 6.3330875e-29 6.3330875e-29)
(7.8419282e-13 6.3330875e-29 -2.1869656e-42)
(1.077847e-12 0 -4.4102743e-44)
(1.0103736e-12 6.3330875e-29 -6.3330875e-29)
(1.1752249e-12 -8.9998586e-45 6.3330875e-29)
(9.8533316e-13 -6.3330875e-29 1.2666175e-28)
(1.1586298e-12 -1.8999262e-28 3.7998525e-28)
(9.9231009e-13 5.3999152e-44 -1.079983e-43)
(9.7293714e-13 -3.5999434e-44 -3.7998525e-28)
(1.0282611e-12 -3.1665437e-28 6.3330875e-28)
(9.5273925e-13 -3.1665437e-28 3.2939482e-41)
(9.4732869e-13 -1.3229792e-41 -7.599705e-28)
(7.7907353e-13 4.4331612e-28 1.3299484e-27)
(1.0781845e-12 0 -3.7998525e-28)
(8.4949455e-13 1.8999262e-28 -1.8999262e-28)
(1.1341376e-12 1.0203557e-55 9.8357741e-43)
(1.0177843e-12 2.2139652e-42 -6.3330875e-29)
(1.1357131e-12 -1.7126439e-42 -1.7052712e-42)
(1.3282479e-12 1.8999262e-28 6.6148961e-42)
(1.4253546e-12 -1.7546988e-41 -1.7546988e-41)
(1.4432129e-12 2.1914656e-41 2.1914656e-41)
(1.6834489e-12 -1.8999262e-28 1.8999262e-28)
(1.7924024e-12 0 6.3330875e-29)
(1.5861743e-12 0 2.2229651e-42)
(1.5696647e-12 -6.3330875e-29 4.4099307e-42)
(1.8035295e-12 -2.1959655e-41 6.3330875e-28)
(1.8207269e-12 6.3330875e-28 3.1665437e-28)
(1.5918856e-12 -1.2666175e-28 -1.2666175e-28)
(2.0530238e-12 -1.2666175e-28 8.9998586e-45)
(1.8218389e-12 0 2.8331306e-42)
(1.7428119e-12 -1.2666175e-28 0)
(1.8508254e-12 -6.3330875e-29 6.3330875e-29)
(1.8263331e-12 -6.3330875e-29 -2.2049654e-42)
(1.7425848e-12 -6.3330875e-29 6.3330875e-29)
(1.7025576e-12 0 3.2628474e-42)
(2.0095219e-12 0 1.2666175e-28)
(2.0848837e-12 -6.3330875e-29 -1.2666175e-28)
(1.8465114e-12 1.9885369e-42 1.9885369e-42)
(1.8679327e-12 0 -1.8999262e-28)
(1.7724837e-12 -6.3330875e-29 -6.3330875e-29)
(1.613589e-12 4.4279304e-42 3.7998525e-28)
(1.816396e-12 1.8999262e-28 -1.8999262e-28)
(1.9896737e-12 -2.533235e-28 -2.533235e-28)
(2.0889633e-12 1.2599802e-43 -2.5199604e-43)
(1.9330886e-12 -1.3283791e-41 -3.7998525e-28)
(2.0816871e-12 -6.0985414e-57 5.6997787e-28)
(2.2117654e-12 5.06647e-28 -1.7711722e-41)
(2.0836492e-12 -5.3999152e-44 -2.533235e-28)
(2.2037041e-12 6.3330875e-29 -1.2666175e-28)
(2.0175787e-12 0 1.2666175e-28)
(1.720292e-12 -1.8999262e-28 -1.8999262e-28)
(1.9936573e-12 3.7999828e-42 3.8073555e-42)
(2.2750738e-12 1.6611684e-42 -1.6611684e-42)
(2.0811324e-12 -1.2666175e-28 -1.2666175e-28)
(2.3420474e-12 5.1317082e-42 -5.1317082e-42)
(2.3611039e-12 -1.2666175e-28 -2.1869656e-42)
(2.3354449e-12 1.2582266e-42 1.2655993e-42)
(2.5524391e-12 -1.2666175e-28 2.533235e-28)
(2.3160803e-12 -6.3330875e-29 -6.3330875e-29)
(2.106654e-12 -1.2666175e-28 -1.2666175e-28)
(2.3510495e-12 0 -4.0091471e-42)
(2.3740172e-12 -6.3330875e-29 2.2049654e-42)
(2.4310221e-12 -6.3330875e-29 2.1959655e-42)
(2.3743312e-12 2.533235e-28 -8.8198614e-42)
(1.9596539e-12 8.783862e-42 -5.06647e-28)
(2.1870428e-12 -2.533235e-28 -2.533235e-28)
(2.2728027e-12 2.533235e-28 2.533235e-28)
(2.0873509e-12 -6.3330875e-29 -1.2666175e-28)
(2.0994542e-12 0 -2.2183081e-41)
(2.0152485e-12 -2.533235e-28 2.533235e-28)
(1.8959595e-12 -6.3330875e-29 -4.391931e-42)
(2.1657799e-12 1.2666175e-28 -2.533235e-28)
(1.9903986e-12 -1.2666175e-28 3.5999434e-44)
(2.2553025e-12 -1.3612846e-57 6.806423e-58)
(2.0560898e-12 -6.3330875e-29 -5.4886873e-56)
(1.6028834e-12 6.3330875e-29 6.3330875e-29)
(1.7968101e-12 1.8999262e-28 1.3175793e-41)
(2.0507919e-12 -3.5279446e-41 -7.0558891e-41)
(1.7185775e-12 -4.4331612e-28 -4.4331612e-28)
(1.6044582e-12 1.8999262e-28 1.8999262e-28)
(1.6521835e-12 -2.533235e-28 -2.533235e-28)
(1.6196239e-12 -1.8999262e-28 -6.5878965e-42)
(1.7049748e-12 -6.3330875e-29 -6.3330875e-29)
(1.7108182e-12 0 4.8711631e-42)
(1.7424838e-12 0 8.9998586e-45)
(2.0457134e-12 -2.1367345e-56 -2.1367345e-56)
(2.2663463e-12 6.3330875e-29 0)
(2.045833e-12 -9.7644442e-42 -9.7644442e-42)
(2.0709046e-12 5.5199993e-42 3.9358344e-55)
(1.8152123e-12 6.3330875e-29 1.2666175e-28)
(1.8903056e-12 4.391931e-42 -6.3330875e-29)
(1.8518049e-12 -6.3330875e-29 1.7999717e-44)
(1.9237814e-12 -1.8999262e-28 -1.8999262e-28)
(1.8712618e-12 -3.7998525e-28 3.7998525e-28)
(1.7064476e-12 0 -3.1665437e-28)
(1.8896836e-12 1.2666175e-28 1.2666175e-28)
(1.9946054e-12 1.2666175e-28 -5.2775171e-41)
(1.6628245e-12 0 -5.2703172e-41)
(1.369369e-12 4.8538353e-42 -4.861208e-42)
(1.5963688e-12 1.8999262e-28 3.7998525e-28)
(1.4151104e-12 0 0)
(1.3628359e-12 6.3330875e-29 -4.391931e-42)
(1.3483275e-12 3.9527379e-41 -3.9527379e-41)
(1.4894635e-12 -6.3330875e-29 6.3330875e-29)
(1.4541314e-12 -6.3330875e-29 -6.3330875e-29)
(1.5160628e-12 -1.2666175e-28 -8.7298628e-42)
(1.5105069e-12 6.3330875e-29 6.3330875e-29)
(1.3827094e-12 -8.7478626e-42 1.2666175e-28)
(1.6982293e-12 -4.3559316e-42 -4.3559316e-42)
(1.8068357e-12 9.7829693e-56 9.7829693e-56)
(1.8076054e-12 1.5558451e-41 2.182012e-54)
(1.873764e-12 6.3330875e-29 1.2666175e-28)
(1.9429522e-12 -1.4611271e-54 9.7430621e-42)
(2.122882e-12 -8.7118631e-42 -1.2666175e-28)
(2.1874853e-12 4.3559316e-42 4.3559316e-42)
(1.9933135e-12 -6.3330875e-29 -4.3649314e-42)
(2.1372028e-12 0 -2.6333586e-41)
(1.9603123e-12 0 2.6243588e-41)
(1.9401759e-12 -2.533235e-28 -2.533235e-28)
(2.1097176e-12 -6.3330875e-29 0)
(1.8931086e-12 0 0)
(1.908484e-12 0 0)
(1.9311118e-12 1.2666175e-28 0)
(2.1333854e-12 -7.0736745e-70 1.2666175e-28)
(2.3714174e-12 6.3330875e-29 -1.3202793e-41)
(1.942574e-12 0 1.2080896e-42)
(2.0171266e-12 -6.3330875e-29 -6.3330875e-29)
(2.1931704e-12 6.3330875e-29 6.3330875e-29)
(2.227113e-12 -2.3997199e-55 -8.6597577e-43)
(2.4474883e-12 2.533235e-28 2.533235e-28)
(2.5716384e-12 -1.8999262e-28 1.3148793e-41)
(2.470118e-12 -1.3148793e-41 -1.3148793e-41)
(2.2318874e-12 8.9998586e-45 6.3330875e-29)
(2.3714193e-12 7.9295419e-42 7.9221692e-42)
(2.3720408e-12 1.2666175e-28 1.2666175e-28)
(1.9569631e-12 -2.6999576e-44 0)
(2.292382e-12 -8.7658623e-42 6.3330875e-29)
(2.2423154e-12 4.3829311e-42 4.3829311e-42)
(2.065509e-12 -1.8999262e-28 -1.8999262e-28)
(2.1768406e-12 0 -3.1665437e-28)
(2.2974095e-12 3.7998525e-28 5.2919169e-41)
(2.2990101e-12 2.1914656e-41 3.1665437e-28)
(2.4278433e-12 3.5153448e-41 -2.533235e-28)
(2.2781325e-12 -2.533235e-28 -2.533235e-28)
(2.4545495e-12 0 -2.533235e-28)
(2.7323278e-12 1.2666175e-28 1.2666175e-28)
(2.1264642e-12 6.3330875e-29 -6.3330875e-29)
(2.0851954e-12 0 0)
(2.2742767e-12 0 0)
(2.677314e-12 0 0)
(2.5621083e-12 -1.8999262e-28 -1.8999262e-28)
(2.6928602e-12 -1.3148793e-41 1.8999262e-28)
(2.247339e-12 -1.2666175e-28 -2.533235e-28)
(2.3117154e-12 0 2.533235e-28)
(2.6957526e-12 0 -8.8018617e-42)
(2.3630676e-12 -8.1252047e-43 -8.1252047e-43)
(2.2359737e-12 6.3330875e-29 6.3330875e-29)
(2.2400621e-12 -1.8999262e-28 -3.7998525e-28)
(2.3890897e-12 -3.1665437e-28 8.9998586e-44)
(2.7167188e-12 0 -3.5999434e-44)
(2.7172976e-12 -6.3330875e-29 -6.3330875e-29)
(2.3609452e-12 1.2666175e-28 1.2666175e-28)
(2.3131277e-12 -1.8999262e-28 -3.7998525e-28)
(2.4398541e-12 6.3330875e-29 -8.9998586e-45)
(2.5767665e-12 0 5.2775171e-41)
(2.5956548e-12 -1.8999262e-28 -1.8999262e-28)
(2.7194113e-12 5.2757171e-41 1.0551434e-40)
(2.6492463e-12 2.6351586e-41 5.2703172e-41)
(2.5926823e-12 -2.533235e-28 -2.533235e-28)
(2.5620896e-12 6.3330875e-29 6.3330875e-29)
(2.5542427e-12 6.3330875e-29 0)
(2.2482634e-12 0 -6.3330875e-29)
(2.3532937e-12 1.2666175e-28 1.2666175e-28)
(2.2304152e-12 8.8018617e-42 -6.3330875e-29)
(2.4371177e-12 -6.3330875e-29 6.3330875e-29)
(2.4421828e-12 1.7567724e-41 0)
(2.2924759e-12 -2.533235e-28 -1.2666175e-28)
(2.2712388e-12 1.3189732e-41 1.3174987e-41)
(2.3140815e-12 1.7567724e-41 -1.2666175e-28)
(2.3932932e-12 6.5959964e-41 6.5959964e-41)
(2.4657977e-12 1.3148793e-41 3.7998525e-28)
(2.2366975e-12 3.1665437e-28 6.3330875e-28)
(2.3364575e-12 -4.4331612e-28 -1.3299484e-27)
(2.4334854e-12 -3.7998525e-28 -7.599705e-28)
(2.1316222e-12 0 0)
(2.2016998e-12 -3.7806751e-42 -7.5613502e-42)
(2.1778214e-12 -6.3330875e-29 -6.3330875e-29)
(2.0115961e-12 0 -1.8999262e-28)
(1.8702776e-12 -1.8999262e-28 -1.8999262e-28)
(1.8976244e-12 -6.3330875e-29 -6.3330875e-29)
(1.7001888e-12 1.2666175e-28 1.2666175e-28)
(1.4523926e-12 -1.2666175e-28 -2.533235e-28)
(1.5030625e-12 1.2666175e-28 1.2666175e-28)
(1.342259e-12 1.9243906e-42 3.8487812e-42)
(1.2101074e-12 1.7567724e-41 1.7567724e-41)
(1.3079967e-12 -3.7750543e-43 -7.6975624e-43)
(1.2956898e-12 -6.3330875e-29 -6.3330875e-29)
(1.3830289e-12 8.783862e-42 1.7567724e-41)
(1.2219179e-12 1.8999262e-28 1.8999262e-28)
(1.358548e-12 -6.3330875e-29 -1.2666175e-28)
(1.0234375e-12 -3.8632527e-56 -5.5593506e-43)
(8.985346e-13 4.4099307e-42 8.8198614e-42)
(1.1012944e-12 -1.7999717e-44 6.3330875e-29)
(1.0385478e-12 -1.0632605e-55 -1.5395125e-42)
(1.5020727e-12 -1.2666175e-28 -1.2666175e-28)
(1.7567026e-12 0 5.06647e-28)
(1.3160308e-12 0 -1.3211792e-40)
(1.4054861e-12 4.4331612e-28 -8.8663225e-28)
(1.6263486e-12 1.8999262e-28 3.7998525e-28)
(1.2200087e-12 0 -8.7658623e-42)
(1.2977277e-12 0 2.533235e-28)
(1.4426873e-12 0 0)
(1.5307605e-12 0 0)
(1.8003449e-12 -6.3330875e-29 -6.3330875e-29)
(1.6517292e-12 -2.1824657e-41 3.1665437e-28)
(1.6590143e-12 7.599705e-28 7.599705e-28)
(1.5797691e-12 -5.3999152e-44 -1.2666175e-28)
(1.5926195e-12 6.3330875e-29 -1.7999717e-44)
(1.2765152e-12 1.2666175e-28 1.2666175e-28)
(1.5776111e-12 -2.6378586e-41 1.8999262e-28)
(1.807469e-12 -1.7549724e-41 -1.2666175e-28)
(1.7280495e-12 8.9998586e-45 0)
(1.737404e-12 1.2666175e-28 1.2666175e-28)
(1.7268689e-12 -5.1252606e-42 -5.1252606e-42)
(1.8856545e-12 -2.533235e-28 0)
(2.0454973e-12 1.2666175e-28 1.2666175e-28)
(1.7926364e-12 -3.7998525e-28 -1.2666175e-28)
(1.4292553e-12 1.2666175e-28 2.533235e-28)
(1.64241e-12 5.06647e-28 -1.7531725e-41)
(1.7347029e-12 0 -1.8933426e-58)
(1.8096235e-12 3.1665437e-28 3.1665437e-28)
(1.6655204e-12 3.7998525e-28 3.7998525e-28)
(1.3132649e-12 -1.8999262e-28 -1.8999262e-28)
(1.3851363e-12 -4.8009591e-58 -1.6891873e-42)
(1.9506579e-12 -5.3999152e-44 -1.2666175e-28)
(1.3870054e-12 3.5999434e-44 7.1998869e-44)
(1.5964368e-12 2.7524894e-55 5.5049789e-55)
(1.6683006e-12 -1.2666175e-28 1.2666175e-28)
(1.4978749e-12 1.2666175e-28 1.2666175e-28)
(1.5772616e-12 8.3390259e-42 4.1695129e-42)
(1.789946e-12 -6.3330875e-29 8.783862e-42)
(1.869964e-12 1.4889017e-72 -1.2666175e-28)
(1.757497e-12 -6.813712e-42 0)
(1.8469966e-12 3.5099449e-41 0)
(1.5962971e-12 -1.2666175e-28 -6.3330875e-29)
(1.5500401e-12 0 -8.7928618e-42)
(1.7380383e-12 0 5.2730171e-41)
(1.8193451e-12 -1.2666175e-28 8.8018617e-42)
(1.557923e-12 -1.7585724e-40 3.1665437e-28)
(1.6832103e-12 -7.599705e-28 -3.7998525e-28)
(1.8890543e-12 0 2.6999576e-44)
(1.8035763e-12 2.533235e-28 2.533235e-28)
(1.9549346e-12 3.7998525e-28 0)
(2.0087102e-12 -4.4331612e-28 0)
(1.7440811e-12 5.3999152e-44 0)
(1.9506277e-12 -3.5171447e-41 0)
(2.213002e-12 1.7999717e-44 0)
(2.0873996e-12 1.2666175e-28 0)
(2.3660235e-12 -1.2666175e-28 0)
(2.5554307e-12 6.3330875e-29 6.3330875e-29)
(2.2734424e-12 0 0)
(2.3547296e-12 -1.2666175e-28 -1.2666175e-28)
(2.4046105e-12 8.7928618e-42 0)
(2.1090273e-12 1.1973986e-42 1.1973986e-42)
(2.182233e-12 0 0)
(2.0964647e-12 -8.783862e-41 3.1665437e-28)
(1.8001437e-12 -3.1665437e-28 0)
(1.9610629e-12 4.6147741e-68 0)
(2.0559219e-12 -1.2666175e-28 -6.3330875e-29)
(2.0372132e-12 -1.2666175e-28 8.7928618e-42)
(2.0632174e-12 -2.533235e-28 -2.533235e-28)
(2.2350361e-12 3.7998525e-28 0)
(1.8801014e-12 3.5999434e-44 0)
(1.599609e-12 -6.3330875e-29 -6.3330875e-29)
(1.513533e-12 0 -6.3330875e-29)
(1.7242843e-12 0 -5.5593506e-43)
(1.9472184e-12 -1.2666175e-28 -1.2666175e-28)
(1.6422149e-12 3.5135448e-41 0)
(1.6938925e-12 1.2666175e-28 6.3330875e-29)
(1.4427675e-12 1.7999717e-44 1.7999717e-44)
(1.2846397e-12 5.6997787e-28 1.8999262e-28)
(1.2727226e-12 -1.2666175e-28 -1.2666175e-28)
(1.0204421e-12 -6.3330875e-29 -6.3330875e-29)
(1.2095425e-12 1.2666175e-28 6.3330875e-29)
(1.4530644e-12 1.8999262e-28 -1.8999262e-28)
(1.3395164e-12 -1.8999262e-28 0)
(1.4250761e-12 -2.533235e-28 1.2666175e-28)
(1.3874009e-12 1.2666175e-28 1.2666175e-28)
(1.5590502e-12 1.8999262e-28 -1.8999262e-28)
(1.5060251e-12 1.8999262e-28 -1.8999262e-28)
(1.2999918e-12 0 0)
(1.286206e-12 -2.4394166e-56 -1.2666175e-28)
(1.4017262e-12 -6.3330875e-29 -6.3330875e-29)
(1.4815653e-12 -7.8975633e-42 -7.8975633e-42)
(1.2169209e-12 -6.3330875e-29 6.3330875e-29)
(1.6871661e-12 -2.533235e-28 0)
(1.7128221e-12 -1.4039779e-40 0)
(1.7329003e-12 -1.079983e-43 0)
(1.5965801e-12 -1.2666175e-28 0)
(1.5576865e-12 2.533235e-28 0)
(1.677706e-12 -2.533235e-28 0)
(1.5615348e-12 -3.5171447e-41 0)
(1.5417509e-12 3.5135448e-41 0)
(1.8224473e-12 1.8999262e-28 1.8999262e-28)
(2.0204049e-12 1.2666175e-28 9.7576662e-56)
(1.7770053e-12 6.7995134e-42 2.2665045e-42)
(2.026598e-12 -2.9359992e-55 0)
(1.8845199e-12 -3.5135448e-41 0)
(1.8384222e-12 3.5099449e-41 0)
(1.9971349e-12 -2.533235e-28 -1.2666175e-28)
(1.8054202e-12 1.9842984e-41 -1.42618e-54)
(1.8216537e-12 3.5135448e-41 -1.2666175e-28)
(1.8886954e-12 1.2666175e-28 6.3330875e-29)
(1.8837155e-12 0 8.7928618e-42)
(1.9150617e-12 0 -1.7999717e-44)
(1.9719116e-12 -1.2666175e-28 1.7585724e-41)
(2.2775319e-12 4.391931e-41 -3.1665437e-28)
(2.0897569e-12 1.2666175e-28 1.2666175e-28)
(2.0810888e-12 -6.3330875e-29 6.3330875e-29)
(2.3071358e-12 1.2666175e-28 -7.0378894e-41)
(2.3048587e-12 3.7998525e-28 -1.2666175e-28)
(2.2576612e-12 -1.2666175e-28 1.2666175e-28)
(2.2680824e-12 -6.3330875e-29 0)
(2.2041977e-12 -3.5999434e-44 0)
(2.3949223e-12 -1.2666175e-28 -1.2666175e-28)
(2.1079246e-12 0 8.7928618e-42)
(2.3113293e-12 -3.7998525e-28 -1.8999262e-28)
(2.5572641e-12 -1.2666175e-28 6.3330875e-29)
(2.4549187e-12 -1.5081752e-42 -1.4934299e-42)
(2.5815111e-12 2.533235e-28 0)
(2.509139e-12 6.3330875e-29 -6.3330875e-29)
(2.5112003e-12 1.2666175e-28 6.3330875e-29)
(2.4259802e-12 1.2666175e-28 -6.3330875e-29)
(2.2393786e-12 1.2666175e-28 1.7576724e-41)
(2.1749755e-12 -1.503385e-42 -4.8788331e-56)
(2.5122057e-12 0 8.7928618e-42)
(2.6400149e-12 -6.3330875e-28 -3.1665437e-28)
(2.4225179e-12 3.1665437e-28 3.1665437e-28)
(2.2729917e-12 3.7998525e-28 9.7576662e-56)
(2.5584183e-12 6.2725223e-42 -8.8181448e-55)
(2.4504413e-12 -6.3330875e-29 6.3330875e-29)
(2.4061091e-12 4.4999293e-44 0)
(2.2628271e-12 -2.6378586e-41 0)
(2.09812e-12 -2.533235e-28 -2.533235e-28)
(2.0694622e-12 3.1665437e-28 -4.4999293e-44)
(1.9179049e-12 2.533235e-28 1.0540634e-40)
(2.0396029e-12 -3.7998525e-28 -3.7998525e-28)
(1.9334963e-12 2.6351586e-41 0)
(1.8023971e-12 1.488905e-58 0)
(2.1120781e-12 8.783862e-42 6.3330875e-29)
(1.8923203e-12 -1.6816678e-41 4.6736656e-54)
(1.5520255e-12 1.2666175e-28 1.2666175e-28)
(1.6299005e-12 2.6378586e-41 0)
(1.8600103e-12 3.5171447e-41 0)
(1.8709823e-12 1.7576724e-41 0)
(1.7403195e-12 -1.2666175e-28 -1.2666175e-28)
(1.8578712e-12 6.3330875e-29 8.9998586e-45)
(1.7276106e-12 -2.6378586e-41 1.8999262e-28)
(1.6600706e-12 -1.7558724e-41 -6.3330875e-29)
(1.9650285e-12 6.299901e-44 -4.4331612e-28)
(2.0969848e-12 6.3330875e-28 8.8018617e-41)
(1.8558833e-12 1.9671548e-42 3.9343097e-42)
(1.7411002e-12 1.8999262e-28 1.8999262e-28)
(1.8776305e-12 7.599705e-28 1.5827151e-40)
(1.9407167e-12 -2.6378586e-41 2.6378586e-41)
(1.8811778e-12 -2.533235e-28 -1.7585724e-41)
(1.9507669e-12 -1.2666175e-28 -1.2666175e-28)
(1.856245e-12 -3.7998525e-28 0)
(1.7550752e-12 -3.1665437e-28 0)
(2.0567256e-12 3.1665437e-28 -3.1665437e-28)
(2.2886634e-12 3.7998525e-28 -5.2757171e-41)
(2.0377752e-12 7.0306895e-41 7.0306895e-41)
(1.9818369e-12 -1.8999262e-28 6.0985414e-57)
(1.996475e-12 0 1.2666175e-28)
(2.0210312e-12 0 6.3330875e-29)
(1.9113477e-12 2.533235e-28 2.533235e-28)
(1.8071891e-12 0 0)
(1.6433636e-12 -6.3330875e-29 -6.3330875e-29)
(1.8024201e-12 -1.8999262e-28 2.6378586e-41)
(2.0007547e-12 -4.4999293e-44 -3.1665437e-28)
(1.9800094e-12 1.7576724e-41 0)
(2.0761401e-12 0 0)
(1.9331645e-12 1.2666175e-28 1.2666175e-28)
(2.2586846e-12 -1.2666175e-28 -3.5999434e-44)
(1.8566272e-12 6.3330875e-29 -6.0985414e-57)
(1.8160552e-12 -1.2666175e-28 -6.3330875e-29)
(1.8906257e-12 -6.3330875e-29 6.3330875e-29)
(1.6419207e-12 -6.3330875e-29 8.7748621e-42)
(1.5920547e-12 0 -3.5171447e-41)
(1.5438182e-12 0 3.5153448e-41)
(1.7603692e-12 6.3330875e-29 6.3330875e-29)
(1.6681027e-12 3.4759574e-54 1.2466889e-41)
(1.7454996e-12 1.8999262e-28 -5.2757171e-41)
(1.515871e-12 0 3.5189447e-41)
(1.48178e-12 0 -5.2784171e-41)
(1.7666373e-12 -1.2666175e-28 -1.2666175e-28)
(1.6576543e-12 1.1006942e-53 2.6386837e-41)
(1.6040055e-12 1.2666175e-28 -3.5171447e-41)
(1.3760636e-12 0 1.7621723e-41)
(1.4945686e-12 0 0)
(1.5817107e-12 0 -1.8999262e-28)
(1.3520511e-12 0 1.8999262e-28)
(1.2598691e-12 0 -3.5171447e-41)
(1.2494793e-12 0 3.5999434e-44)
(1.1372145e-12 0 -8.7928618e-42)
(1.3263715e-12 0 -8.8018617e-42)
(1.2294081e-12 -1.2666175e-28 -6.3330875e-29)
(1.2270054e-12 -9.3187822e-54 1.6756586e-41)
(1.052202e-12 6.3330875e-29 6.3330875e-29)
(1.1027396e-12 -1.8999262e-28 -1.8999262e-28)
(1.2776375e-12 6.3330875e-29 -6.3330875e-29)
(1.1253033e-12 6.3330875e-29 0)
(1.0631567e-12 -3.5207447e-41 -1.2666175e-28)
(9.3072179e-13 -6.3330875e-29 -6.3330875e-29)
(9.4228471e-13 5.2757171e-41 0)
(1.0559773e-12 1.2666175e-28 -1.2666175e-28)
(1.1557879e-12 0 -1.7585724e-41)
(9.4452825e-13 0 1.7999717e-44)
(1.1526285e-12 3.1665437e-28 4.391931e-41)
(1.1865934e-12 1.0551434e-40 -3.7998525e-28)
(1.0548846e-12 -6.3330875e-29 6.3330875e-29)
(1.0891333e-12 0 -8.783862e-42)
(1.0028623e-12 0 3.5171447e-41)
(1.1424744e-12 0 1.8999262e-28)
(1.0148221e-12 0 1.2666175e-28)
(8.9455615e-13 0 -1.2666175e-28)
(1.0033472e-12 0 8.9998586e-45)
(1.0995766e-12 0 -3.5135448e-41)
(9.6465973e-13 -3.7998525e-28 -1.8999262e-28)
(7.4537314e-13 -5.2721172e-41 -6.3330875e-29)
(5.3689823e-13 -1.2666175e-28 8.7928618e-42)
(4.4122816e-13 1.3898376e-43 1.3898376e-43)
(5.0965835e-13 -8.9998586e-45 0)
(4.9514171e-13 -6.3330875e-29 0)
(4.9762333e-13 -1.0535234e-40 0)
(2.6878165e-13 -7.599705e-28 -3.7998525e-28)
(5.9945686e-13 -2.533235e-28 -2.533235e-28)
(7.3578656e-13 -6.0985414e-57 6.3330875e-29)
(6.0551389e-13 3.7998525e-28 1.2666175e-28)
(6.9440026e-13 0 0)
(6.9670023e-13 -2.533235e-28 -1.2666175e-28)
(1.0613633e-12 0 0)
(9.0737435e-13 0 -6.3330875e-29)
(8.5855969e-13 -1.2666175e-28 -6.3330875e-29)
(8.5569017e-13 -1.7567724e-41 0)
(6.5331509e-13 -3.7998525e-28 -1.2666175e-28)
(8.635281e-13 -6.3330875e-29 6.3330875e-29)
(6.9026157e-13 -3.1665437e-28 -3.1665437e-28)
(9.058707e-13 2.533235e-28 -7.0342895e-41)
(5.5108018e-13 -2.533235e-28 2.533235e-28)
(5.568248e-13 3.7998525e-28 0)
(9.9006034e-13 5.2703172e-41 0)
(6.5243744e-13 -6.3330875e-29 0)
(7.1574328e-13 6.3330875e-29 0)
(5.7862305e-13 0 -6.3330875e-29)
(6.608758e-13 1.8999262e-28 5.2703172e-41)
(6.0353542e-13 -3.1665437e-28 3.1665437e-28)
(6.1864548e-13 -3.7998525e-28 -1.8999262e-28)
(7.1823652e-13 2.1382118e-43 -2.9686943e-56)
(5.401893e-13 -6.3330875e-29 -8.8018617e-42)
(6.629686e-13 6.0201767e-43 1.2197083e-56)
(8.7813731e-13 6.3330875e-29 -6.3330875e-29)
(9.5056618e-13 -2.533235e-28 -1.2666175e-28)
(1.0829469e-12 -1.2666175e-28 2.533235e-28)
(1.2522741e-12 -3.2073177e-44 -4.4530415e-57)
(1.2717711e-12 0 1.7567724e-41)
(1.1876892e-12 1.2666175e-28 -1.2666175e-28)
(1.3429174e-12 -6.0939035e-43 0)
(1.7139694e-12 1.2666175e-28 -1.2666175e-28)
(1.7701983e-12 -7.599705e-28 -2.533235e-28)
(1.6362057e-12 -5.3999152e-44 1.8999262e-28)
(1.7174399e-12 1.2666175e-28 1.7567724e-41)
(1.5782956e-12 -1.2666175e-28 -1.2666175e-28)
(1.5421451e-12 -2.6378586e-41 0)
(1.6911923e-12 -1.2666175e-28 0)
(1.3330175e-12 -2.5297998e-56 -3.1826172e-42)
(1.412559e-12 -5.06647e-28 3.5135448e-41)
(1.4152919e-12 4.4331612e-28 4.4331612e-28)
(1.6709144e-12 0 0)
(1.7179376e-12 -3.5171447e-41 -1.2666175e-28)
(1.692694e-12 -1.7999717e-44 1.7999717e-44)
(1.7576697e-12 2.533235e-28 7.0342895e-41)
(1.6503135e-12 -3.7998525e-28 5.2703172e-41)
(1.8284311e-12 5.2757171e-41 -1.8999262e-28)
(2.0099952e-12 2.6351586e-41 1.8999262e-28)
(1.8595081e-12 -9.7369219e-56 9.7369219e-56)
(1.6014461e-12 -6.3330875e-29 -1.7585724e-41)
(1.6118673e-12 -6.3330875e-29 6.3330875e-29)
(1.5082798e-12 3.016147e-86 -1.7105694e-42)
(1.46846e-12 2.3749554e-55 -2.3749554e-55)
(1.68438e-12 2.5827944e-58 -2.5827944e-58)
(1.4158482e-12 -3.7998525e-28 -2.6378586e-41)
(1.4093432e-12 -4.391931e-41 -3.1665437e-28)
(1.5138096e-12 1.8999262e-28 1.8999262e-28)
(1.6419402e-12 0 0)
(1.7511838e-12 0 4.7486954e-55)
(2.1103749e-12 6.4146353e-43 8.8969672e-56)
(2.2856314e-12 5.2703172e-41 5.2703172e-41)
(2.1536218e-12 -1.2666175e-28 1.7999717e-44)
(2.0871833e-12 1.2666175e-28 1.2666175e-28)
(1.9023338e-12 -2.6378586e-41 -1.8999262e-28)
(2.1724975e-12 -2.4394166e-56 -2.4394166e-56)
(2.0978942e-12 8.7928618e-42 8.7928618e-42)
(2.0013052e-12 -1.2666175e-28 -3.5171447e-41)
(1.9333026e-12 6.3330875e-29 -8.7928618e-42)
(1.9883294e-12 1.7567724e-41 2.533235e-28)
(2.1689854e-12 1.6998784e-42 1.6998784e-42)
(2.2213869e-12 0 6.3330875e-29)
(2.1475494e-12 0 1.7585724e-41)
(2.0296503e-12 -1.2666175e-28 -1.7585724e-41)
(1.8048036e-12 -8.4039082e-42 1.6793071e-41)
(1.8093538e-12 2.1088469e-40 -2.533235e-28)
(1.6955861e-12 3.7998525e-28 -3.7998525e-28)
(1.9555734e-12 -1.8999262e-28 1.8295624e-56)
(1.8423473e-12 0 0)
(1.8535246e-12 6.3330875e-29 -6.0985414e-57)
(2.1222857e-12 6.5571266e-42 -6.5571266e-42)
(1.8238852e-12 6.3330875e-29 -6.3330875e-29)
(2.0769241e-12 1.2666175e-28 1.2197083e-56)
(2.0399627e-12 0 2.6351586e-41)
(1.6713387e-12 -1.2666175e-28 1.7999717e-44)
(1.7019672e-12 -6.3330875e-29 6.3330875e-29)
(1.4205424e-12 -1.2666175e-28 1.2666175e-28)
(1.8850175e-12 1.2666175e-28 -3.5171447e-41)
(2.2735808e-12 -3.1665437e-28 3.1665437e-28)
(2.0929855e-12 -3.1665437e-28 -4.391931e-41)
(2.3663454e-12 -5.2703172e-41 5.2703172e-41)
(2.005734e-12 -1.2666175e-28 -1.2666175e-28)
(1.8305733e-12 2.4022822e-54 -8.5604089e-42)
(1.6323748e-12 -5.06647e-28 1.4636499e-55)
(1.7467012e-12 0 -1.0555034e-40)
(1.6757422e-12 0 1.7594724e-41)
(1.5889824e-12 0 -1.2303707e-40)
(1.4628528e-12 5.06647e-28 -1.4068579e-40)
(1.1561197e-12 3.7998525e-28 -9.8611643e-71)
(1.2749305e-12 0 0)
(9.6658029e-13 -3.7998525e-28 3.7998525e-28)
(8.7500557e-13 -7.0198897e-41 0)
(1.0163371e-12 5.06647e-28 0)
(1.1123463e-12 0 -3.1665437e-28)
(1.210546e-12 0 -1.7585724e-41)
(1.018484e-12 -6.3330875e-29 6.3330875e-29)
(9.4526838e-13 -2.6351586e-41 0)
(1.0772209e-12 2.6324586e-41 0)
(9.9358881e-13 -1.2666175e-28 -2.533235e-28)
(1.2002766e-12 2.533235e-28 -2.1088469e-40)
(1.3693103e-12 -7.9054758e-41 3.7998525e-28)
(1.0923789e-12 -1.2666175e-28 -1.2666175e-28)
(1.2520308e-12 0 -8.9998586e-45)
(1.2935976e-12 1.8999262e-28 2.6378586e-41)
(1.3745771e-12 -8.7928618e-42 -6.3330875e-29)
(1.2833688e-12 1.2666175e-28 0)
(1.0042997e-12 -1.8999262e-28 0)
(9.1015244e-13 6.3330875e-29 0)
(1.3529121e-12 -1.2666175e-28 1.2666175e-28)
(1.0364972e-12 -6.3330875e-29 -1.7567724e-41)
(6.1307802e-13 0 3.7998525e-28)
(9.2861857e-13 2.533235e-28 0)
(8.0393728e-13 6.3330875e-29 0)
(1.0707708e-12 -6.3330875e-29 -6.3330875e-29)
(9.4708869e-13 5.45244e-43 -7.7483833e-59)
(7.8175802e-13 0 -6.3330875e-29)
(7.3706308e-13 1.2666175e-28 0)
(5.9856239e-13 1.2666175e-28 0)
(4.361612e-13 4.4331612e-28 -4.4331612e-28)
(8.4555157e-13 -2.533235e-28 -7.0270896e-41)
(7.6457356e-13 1.2666175e-28 1.7594724e-41)
(7.3236708e-13 3.5171447e-41 1.7585724e-41)
(8.8242082e-13 7.599705e-28 2.533235e-28)
(7.0140209e-13 6.0985414e-57 -1.8999262e-28)
(7.1291765e-13 -6.3330875e-29 1.7576724e-41)
(6.5129527e-13 -1.2666175e-28 -1.7576724e-41)
(6.5603761e-13 3.5135448e-41 1.7567724e-41)
(6.7775122e-13 5.06647e-28 2.533235e-28)
(7.356142e-13 -3.1665437e-28 0)
(6.6022651e-13 -4.3501504e-43 0)
(6.5350922e-13 -6.3330875e-29 -6.3330875e-29)
(6.3473372e-13 -1.2666175e-28 -3.0492707e-55)
(7.130527e-13 2.533235e-28 1.2666175e-28)
(8.207539e-13 0 0)
(8.0347919e-13 0 0)
(6.441005e-13 -1.2666175e-28 -6.3330875e-29)
(8.7959299e-13 4.8788331e-56 9.7576662e-56)
(1.0032054e-12 1.2666175e-28 6.3330875e-29)
(7.6431318e-13 0 0)
(9.2022091e-13 0 0)
(8.6604676e-13 5.06647e-28 2.533235e-28)
(9.6268487e-13 9.7576662e-56 1.9515332e-55)
(6.026483e-13 -1.2666175e-28 -6.3330875e-29)
(7.3568301e-13 0 0)
(7.1776013e-13 0 0)
(6.754523e-13 6.3330875e-28 3.1665437e-28)
(7.6807219e-13 1.8999262e-28 -2.6999576e-44)
(7.8489567e-13 -3.7998525e-28 -1.8999262e-28)
(7.8449754e-13 -2.533235e-28 2.533235e-28)
(6.5004893e-13 0 1.7821282e-55)
(4.988008e-13 -8.5528471e-43 -1.1880854e-55)
(7.4338817e-13 4.7499109e-55 2.3749554e-55)
(7.0385756e-13 3.7998525e-28 1.8999262e-28)
(6.0639171e-13 -3.1665437e-28 0)
(7.6161052e-13 0 0)
(1.0635097e-12 -6.3330875e-29 0)
(8.276609e-13 -1.8999262e-28 0)
(6.3710603e-13 4.4999293e-44 0)
(6.4929113e-13 4.4331612e-28 -4.4331612e-28)
(5.8661665e-13 -3.7998525e-28 1.0546034e-40)
(8.4761545e-13 6.3330875e-29 6.3330875e-29)
(7.7213482e-13 6.3330875e-29 0)
(1.0538305e-12 -2.533235e-28 0)
(7.7407319e-13 -3.1665437e-28 0)
(9.6686953e-13 3.5171447e-41 0)
(1.118123e-12 6.2008141e-43 0)
(1.0951474e-12 -6.3330875e-29 0)
(9.3943044e-13 -3.5171447e-41 0)
(8.9963794e-13 1.2666175e-28 -1.2666175e-28)
(1.0671739e-12 6.3330875e-29 -3.5153448e-41)
(9.9741083e-13 -1.8999262e-28 -1.8999262e-28)
(7.1630534e-13 1.7598597e-41 0)
(6.5592037e-13 -1.2666175e-28 0)
(9.635983e-13 1.6700548e-41 0)
(9.4227842e-13 -3.5171447e-41 0)
(9.5578993e-13 -1.2666175e-28 0)
(9.6944763e-13 6.3330875e-29 0)
(9.5824651e-13 -6.8368088e-59 0)
(9.8001014e-13 -6.3330875e-29 6.3330875e-29)
(1.2484394e-12 1.8999262e-28 -5.2730171e-41)
(1.3535246e-12 -2.533235e-28 -2.533235e-28)
(1.2938745e-12 -1.2666175e-28 0)
(9.7944697e-13 -2.533235e-28 0)
(1.1432652e-12 -5.06647e-28 -2.533235e-28)
(1.3514736e-12 -7.0378894e-41 -3.5189447e-41)
(1.3311765e-12 -1.2666175e-28 -6.3330875e-29)
(1.4718347e-12 -6.3330875e-29 0)
(1.2285197e-12 1.7999717e-44 0)
(1.3770302e-12 1.2666175e-28 0)
(1.2806753e-12 1.7999717e-44 -6.3330875e-29)
(1.1665044e-12 -6.3330875e-29 -1.7594724e-41)
(1.2585173e-12 0 -1.2666175e-28)
(1.3764759e-12 1.2666175e-28 0)
(1.262191e-12 0 0)
(9.7793058e-13 1.2666175e-28 0)
(1.0749389e-12 0 0)
(1.0704353e-12 0 0)
(9.9720978e-13 0 0)
(1.0184588e-12 -6.3330875e-29 0)
(1.0673616e-12 6.0985414e-57 -6.3330875e-29)
(1.1576804e-12 -6.3330875e-29 -8.9998586e-45)
(1.4352234e-12 0 -2.533235e-28)
(1.0172459e-12 -6.3330875e-29 0)
(9.4392823e-13 3.5171447e-41 0)
(1.1087653e-12 1.2666175e-28 0)
(7.9449518e-13 0 0)
(1.0973936e-12 0 0)
(1.3232938e-12 0 0)
(1.2538332e-12 1.2666175e-28 0)
(1.0133668e-12 -1.7585724e-41 6.3330875e-29)
(1.2476194e-12 -1.4745368e-44 1.2199406e-56)
(1.0822109e-12 0 6.3330875e-29)
(8.6156867e-13 1.8999262e-28 0)
(8.1372478e-13 5.2730171e-41 0)
(1.0338528e-12 6.4146353e-43 0)
(1.0878929e-12 0 -3.6093489e-59)
(1.0196988e-12 -1.2666175e-28 -7.0324895e-41)