/*--------------------------------*- C++ -*----------------------------------*\
  =========                 |
  \\      /  F ield         | OpenFOAM: The Open Source CFD Toolbox
   \\    /   O peration     | Website:  https://openfoam.org
    \\  /    A nd           | Version:  7
     \\/     M anipulation  |
\*---------------------------------------------------------------------------*/
FoamFile
{
    version     2.0;
    format      ascii;
    class       volScalarField;
    location    "0.0006";
    object      Uy;
}
// * * * * * * * * * * * * * * * * * * * * * * * * * * * * * * * * * * * * * //

dimensions      [0 1 -1 0 0 0 0];

internalField   nonuniform List<scalar> 
5000
(
8.4441166e-29
6.3330875e-28
0
0
6.3330875e-29
-2.8799547e-43
-4.4331612e-28
0
0
3.1665437e-28
8.3609706e-43
4.9398317e-43
-1.2666175e-28
7.0780435e-43
0
-1.8999262e-28
1.9515332e-55
5.06647e-28
0
3.7998525e-28
-1.8999262e-28
-1.8999262e-28
5.06647e-28
5.3083326e-43
6.3330875e-29
-5.219918e-43
-1.2754877e-42
-1.2666175e-28
2.533235e-28
-2.1959655e-42
-1.0489316e-55
-1.2666175e-28
-2.533235e-28
-2.533235e-28
1.0979827e-42
1.1015827e-41
4.391931e-42
5.1317082e-43
1.2666175e-28
1.2666175e-28
-5.06647e-28
3.4847452e-41
5.06647e-28
-1.2666175e-28
-5.6997787e-28
-1.4745368e-44
-1.8999262e-28
-2.1689659e-41
-6.3330875e-28
0
4.4238772e-43
-8.9998586e-45
1.8999262e-28
-7.599705e-28
1.1069826e-41
8.8663225e-28
-5.06647e-28
8.7478626e-42
-6.3330875e-29
0
-1.2666175e-28
-2.1599661e-42
-9.3960484e-59
-2.9026698e-42
1.2666175e-28
-6.6418956e-42
-6.3330875e-29
6.3330875e-29
1.2666175e-28
6.3330875e-29
1.2666175e-28
-6.3330875e-29
6.3330875e-29
1.3565205e-42
6.3330875e-29
6.3330875e-29
0
6.3330875e-29
-8.9998586e-45
-6.3330875e-29
-1.8999262e-28
5.3999152e-44
-3.5999434e-44
-3.1665437e-28
-3.1665437e-28
-1.3229792e-41
4.4331612e-28
0
1.8999262e-28
1.0203557e-55
2.2139652e-42
-1.7126439e-42
1.8999262e-28
-1.7546988e-41
2.1914656e-41
-1.8999262e-28
0
0
-6.3330875e-29
-2.1959655e-41
6.3330875e-28
-1.2666175e-28
-1.2666175e-28
0
-1.2666175e-28
-6.3330875e-29
-6.3330875e-29
-6.3330875e-29
0
0
-6.3330875e-29
1.9885369e-42
0
-6.3330875e-29
4.4279304e-42
1.8999262e-28
-2.533235e-28
1.2599802e-43
-1.3283791e-41
-6.0985414e-57
5.06647e-28
-5.3999152e-44
6.3330875e-29
0
-1.8999262e-28
3.7999828e-42
1.6611684e-42
-1.2666175e-28
5.1317082e-42
-1.2666175e-28
1.2582266e-42
-1.2666175e-28
-6.3330875e-29
-1.2666175e-28
0
-6.3330875e-29
-6.3330875e-29
2.533235e-28
8.783862e-42
-2.533235e-28
2.533235e-28
-6.3330875e-29
0
-2.533235e-28
-6.3330875e-29
1.2666175e-28
-1.2666175e-28
-1.3612846e-57
-6.3330875e-29
6.3330875e-29
1.8999262e-28
-3.5279446e-41
-4.4331612e-28
1.8999262e-28
-2.533235e-28
-1.8999262e-28
-6.3330875e-29
0
0
-2.1367345e-56
6.3330875e-29
-9.7644442e-42
5.5199993e-42
6.3330875e-29
4.391931e-42
-6.3330875e-29
-1.8999262e-28
-3.7998525e-28
0
1.2666175e-28
1.2666175e-28
0
4.8538353e-42
1.8999262e-28
0
6.3330875e-29
3.9527379e-41
-6.3330875e-29
-6.3330875e-29
-1.2666175e-28
6.3330875e-29
-8.7478626e-42
-4.3559316e-42
9.7829693e-56
1.5558451e-41
6.3330875e-29
-1.4611271e-54
-8.7118631e-42
4.3559316e-42
-6.3330875e-29
0
0
-2.533235e-28
-6.3330875e-29
0
0
1.2666175e-28
-7.0736745e-70
6.3330875e-29
0
-6.3330875e-29
6.3330875e-29
-2.3997199e-55
2.533235e-28
-1.8999262e-28
-1.3148793e-41
8.9998586e-45
7.9295419e-42
1.2666175e-28
-2.6999576e-44
-8.7658623e-42
4.3829311e-42
-1.8999262e-28
0
3.7998525e-28
2.1914656e-41
3.5153448e-41
-2.533235e-28
0
1.2666175e-28
6.3330875e-29
0
0
0
-1.8999262e-28
-1.3148793e-41
-1.2666175e-28
0
0
-8.1252047e-43
6.3330875e-29
-1.8999262e-28
-3.1665437e-28
0
-6.3330875e-29
1.2666175e-28
-1.8999262e-28
6.3330875e-29
0
-1.8999262e-28
5.2757171e-41
2.6351586e-41
-2.533235e-28
6.3330875e-29
6.3330875e-29
0
1.2666175e-28
8.8018617e-42
-6.3330875e-29
1.7567724e-41
-2.533235e-28
1.3189732e-41
1.7567724e-41
6.5959964e-41
1.3148793e-41
3.1665437e-28
-4.4331612e-28
-3.7998525e-28
0
-3.7806751e-42
-6.3330875e-29
0
-1.8999262e-28
-6.3330875e-29
1.2666175e-28
-1.2666175e-28
1.2666175e-28
1.9243906e-42
1.7567724e-41
-3.7750543e-43
-6.3330875e-29
8.783862e-42
1.8999262e-28
-6.3330875e-29
-3.8632527e-56
4.4099307e-42
-1.7999717e-44
-1.0632605e-55
-1.2666175e-28
0
0
4.4331612e-28
1.8999262e-28
0
0
0
0
-6.3330875e-29
-2.1824657e-41
7.599705e-28
-5.3999152e-44
6.3330875e-29
1.2666175e-28
-2.6378586e-41
-1.7549724e-41
8.9998586e-45
1.2666175e-28
-5.1252606e-42
-2.533235e-28
1.2666175e-28
-3.7998525e-28
1.2666175e-28
5.06647e-28
0
3.1665437e-28
3.7998525e-28
-1.8999262e-28
-4.8009591e-58
-5.3999152e-44
3.5999434e-44
2.7524894e-55
-1.2666175e-28
1.2666175e-28
8.3390259e-42
-6.3330875e-29
1.4889017e-72
-6.813712e-42
3.5099449e-41
-1.2666175e-28
0
0
-1.2666175e-28
-1.7585724e-40
-7.599705e-28
0
2.533235e-28
3.7998525e-28
-4.4331612e-28
5.3999152e-44
-3.5171447e-41
1.7999717e-44
1.2666175e-28
-1.2666175e-28
6.3330875e-29
0
-1.2666175e-28
8.7928618e-42
1.1973986e-42
0
-8.783862e-41
-3.1665437e-28
4.6147741e-68
-1.2666175e-28
-1.2666175e-28
-2.533235e-28
3.7998525e-28
3.5999434e-44
-6.3330875e-29
0
0
-1.2666175e-28
3.5135448e-41
1.2666175e-28
1.7999717e-44
5.6997787e-28
-1.2666175e-28
-6.3330875e-29
1.2666175e-28
1.8999262e-28
-1.8999262e-28
-2.533235e-28
1.2666175e-28
1.8999262e-28
1.8999262e-28
0
-2.4394166e-56
-6.3330875e-29
-7.8975633e-42
-6.3330875e-29
-2.533235e-28
-1.4039779e-40
-1.079983e-43
-1.2666175e-28
2.533235e-28
-2.533235e-28
-3.5171447e-41
3.5135448e-41
1.8999262e-28
1.2666175e-28
6.7995134e-42
-2.9359992e-55
-3.5135448e-41
3.5099449e-41
-2.533235e-28
1.9842984e-41
3.5135448e-41
1.2666175e-28
0
0
-1.2666175e-28
4.391931e-41
1.2666175e-28
-6.3330875e-29
1.2666175e-28
3.7998525e-28
-1.2666175e-28
-6.3330875e-29
-3.5999434e-44
-1.2666175e-28
0
-3.7998525e-28
-1.2666175e-28
-1.5081752e-42
2.533235e-28
6.3330875e-29
1.2666175e-28
1.2666175e-28
1.2666175e-28
-1.503385e-42
0
-6.3330875e-28
3.1665437e-28
3.7998525e-28
6.2725223e-42
-6.3330875e-29
4.4999293e-44
-2.6378586e-41
-2.533235e-28
3.1665437e-28
2.533235e-28
-3.7998525e-28
2.6351586e-41
1.488905e-58
8.783862e-42
-1.6816678e-41
1.2666175e-28
2.6378586e-41
3.5171447e-41
1.7576724e-41
-1.2666175e-28
6.3330875e-29
-2.6378586e-41
-1.7558724e-41
6.299901e-44
6.3330875e-28
1.9671548e-42
1.8999262e-28
7.599705e-28
-2.6378586e-41
-2.533235e-28
-1.2666175e-28
-3.7998525e-28
-3.1665437e-28
3.1665437e-28
3.7998525e-28
7.0306895e-41
-1.8999262e-28
0
0
2.533235e-28
0
-6.3330875e-29
-1.8999262e-28
-4.4999293e-44
1.7576724e-41
0
1.2666175e-28
-1.2666175e-28
6.3330875e-29
-1.2666175e-28
-6.3330875e-29
-6.3330875e-29
0
0
6.3330875e-29
3.4759574e-54
1.8999262e-28
0
0
-1.2666175e-28
1.1006942e-53
1.2666175e-28
0
0
0
0
0
0
0
0
-1.2666175e-28
-9.3187822e-54
6.3330875e-29
-1.8999262e-28
6.3330875e-29
6.3330875e-29
-3.5207447e-41
-6.3330875e-29
5.2757171e-41
1.2666175e-28
0
0
3.1665437e-28
1.0551434e-40
-6.3330875e-29
0
0
0
0
0
0
0
-3.7998525e-28
-5.2721172e-41
-1.2666175e-28
1.3898376e-43
-8.9998586e-45
-6.3330875e-29
-1.0535234e-40
-7.599705e-28
-2.533235e-28
-6.0985414e-57
3.7998525e-28
0
-2.533235e-28
0
0
-1.2666175e-28
-1.7567724e-41
-3.7998525e-28
-6.3330875e-29
-3.1665437e-28
2.533235e-28
-2.533235e-28
3.7998525e-28
5.2703172e-41
-6.3330875e-29
6.3330875e-29
0
1.8999262e-28
-3.1665437e-28
-3.7998525e-28
2.1382118e-43
-6.3330875e-29
6.0201767e-43
6.3330875e-29
-2.533235e-28
-1.2666175e-28
-3.2073177e-44
0
1.2666175e-28
-6.0939035e-43
1.2666175e-28
-7.599705e-28
-5.3999152e-44
1.2666175e-28
-1.2666175e-28
-2.6378586e-41
-1.2666175e-28
-2.5297998e-56
-5.06647e-28
4.4331612e-28
0
-3.5171447e-41
-1.7999717e-44
2.533235e-28
-3.7998525e-28
5.2757171e-41
2.6351586e-41
-9.7369219e-56
-6.3330875e-29
-6.3330875e-29
3.016147e-86
2.3749554e-55
2.5827944e-58
-3.7998525e-28
-4.391931e-41
1.8999262e-28
0
0
6.4146353e-43
5.2703172e-41
-1.2666175e-28
1.2666175e-28
-2.6378586e-41
-2.4394166e-56
8.7928618e-42
-1.2666175e-28
6.3330875e-29
1.7567724e-41
1.6998784e-42
0
0
-1.2666175e-28
-8.4039082e-42
2.1088469e-40
3.7998525e-28
-1.8999262e-28
0
6.3330875e-29
6.5571266e-42
6.3330875e-29
1.2666175e-28
0
-1.2666175e-28
-6.3330875e-29
-1.2666175e-28
1.2666175e-28
-3.1665437e-28
-3.1665437e-28
-5.2703172e-41
-1.2666175e-28
2.4022822e-54
-5.06647e-28
0
0
0
5.06647e-28
3.7998525e-28
0
-3.7998525e-28
-7.0198897e-41
5.06647e-28
0
0
-6.3330875e-29
-2.6351586e-41
2.6324586e-41
-1.2666175e-28
2.533235e-28
-7.9054758e-41
-1.2666175e-28
0
1.8999262e-28
-8.7928618e-42
1.2666175e-28
-1.8999262e-28
6.3330875e-29
-1.2666175e-28
-6.3330875e-29
0
2.533235e-28
6.3330875e-29
-6.3330875e-29
5.45244e-43
0
1.2666175e-28
1.2666175e-28
4.4331612e-28
-2.533235e-28
1.2666175e-28
3.5171447e-41
7.599705e-28
6.0985414e-57
-6.3330875e-29
-1.2666175e-28
3.5135448e-41
5.06647e-28
-3.1665437e-28
-4.3501504e-43
-6.3330875e-29
-1.2666175e-28
2.533235e-28
0
0
-1.2666175e-28
4.8788331e-56
1.2666175e-28
0
0
5.06647e-28
9.7576662e-56
-1.2666175e-28
0
0
6.3330875e-28
1.8999262e-28
-3.7998525e-28
-2.533235e-28
0
-8.5528471e-43
4.7499109e-55
3.7998525e-28
-3.1665437e-28
0
-6.3330875e-29
-1.8999262e-28
4.4999293e-44
4.4331612e-28
-3.7998525e-28
6.3330875e-29
6.3330875e-29
-2.533235e-28
-3.1665437e-28
3.5171447e-41
6.2008141e-43
-6.3330875e-29
-3.5171447e-41
1.2666175e-28
6.3330875e-29
-1.8999262e-28
1.7598597e-41
-1.2666175e-28
1.6700548e-41
-3.5171447e-41
-1.2666175e-28
6.3330875e-29
-6.8368088e-59
-6.3330875e-29
1.8999262e-28
-2.533235e-28
-1.2666175e-28
-2.533235e-28
-5.06647e-28
-7.0378894e-41
-1.2666175e-28
-6.3330875e-29
1.7999717e-44
1.2666175e-28
1.7999717e-44
-6.3330875e-29
0
1.2666175e-28
0
1.2666175e-28
0
0
0
-6.3330875e-29
6.0985414e-57
-6.3330875e-29
0
-6.3330875e-29
3.5171447e-41
1.2666175e-28
0
0
0
1.2666175e-28
-1.7585724e-41
-1.4745368e-44
0
1.8999262e-28
5.2730171e-41
6.4146353e-43
0
-1.2666175e-28
1.8999262e-28
-1.0556834e-40
3.4462094e-41
-1.8999262e-28
0
-4.4331612e-28
-1.7585724e-41
-6.3330875e-29
0
1.2666175e-28
1.2666175e-28
3.5171447e-41
2.533235e-28
-1.7581224e-40
-1.7999717e-44
-1.7594724e-41
-8.9998586e-45
-6.3330875e-29
0
-3.1665437e-28
5.2730171e-41
4.8916018e-54
-7.4445085e-73
-7.0342895e-41
0
-7.599705e-28
3.5171447e-41
-4.4331612e-28
3.7998525e-28
-7.0306895e-41
-1.2666175e-28
6.3330875e-29
5.2757171e-41
-7.0342895e-41
1.8999262e-28
6.3330875e-29
2.533235e-28
0
4.4331612e-28
-5.2757171e-41
1.2666175e-28
0
0
0
7.599705e-28
-4.9240026e-40
-8.8663225e-28
0
0
0
0
0
0
0
-5.06647e-28
1.4075779e-40
3.7998525e-28
1.8999262e-28
-6.3330875e-29
7.4837412e-44
-3.5189447e-41
-1.0540634e-40
-1.2666175e-28
1.2666175e-28
-1.2666175e-28
-1.2666175e-28
6.3330875e-29
6.3330875e-29
-7.0306895e-41
-1.8999262e-28
-4.4331612e-28
1.4054179e-40
3.7998525e-28
3.1665437e-28
-3.7998525e-28
-4.4331612e-28
3.7998525e-28
-3.1665437e-28
0
5.6997787e-28
5.06647e-28
-3.5135448e-41
5.986993e-43
2.1382118e-43
-6.3330875e-29
-6.3330875e-29
-7.0560988e-43
6.3330875e-29
-1.7585724e-41
3.1665437e-28
5.06647e-28
8.0998727e-44
-6.3330875e-28
-3.5162448e-41
0
-1.4967482e-43
0
-6.3330875e-29
0
0
0
1.2666175e-28
1.8999262e-28
6.3330875e-29
1.2666175e-28
0
-2.533235e-28
1.2316306e-40
2.533235e-28
0
0
-3.1665437e-28
1.4061379e-40
4.4331612e-28
0
0
-4.4331612e-28
1.0546034e-40
-1.2666175e-28
0
2.533235e-28
-5.2757171e-41
1.7576724e-41
3.5171447e-41
2.533235e-28
0
-1.2666175e-28
1.0543334e-40
6.3330875e-29
0
1.2666175e-28
-1.8999262e-28
-1.8999262e-28
1.2666175e-28
3.5207447e-41
-3.7998525e-28
-5.1784131e-54
-3.1665437e-28
0
0
-1.8999262e-28
-3.5153448e-41
-1.2666175e-28
0
1.2666175e-28
1.2666175e-28
4.4331612e-28
-3.1665437e-28
0
1.8999262e-28
-2.533235e-28
-1.9475616e-53
-1.7576724e-40
3.1665437e-28
-1.5821751e-40
6.3330875e-29
-1.2666175e-28
3.5153448e-41
7.0342895e-41
3.7998525e-28
-1.7567724e-41
1.2666175e-28
0
0
0
-5.06647e-28
-1.2666175e-28
2.533235e-28
1.8999262e-28
0
0
1.8999262e-28
1.8295624e-56
-1.7576479e-41
0
2.533235e-28
-1.0545887e-40
5.06647e-28
2.533235e-28
0
3.7998525e-28
7.1998869e-44
-7.599705e-28
1.7567724e-41
-1.2666175e-28
6.3330875e-29
3.5999434e-44
-1.7516387e-41
-5.2784171e-41
-1.0540634e-40
-1.7576479e-41
0
2.1382118e-43
1.0548734e-40
8.8663225e-28
-3.7998525e-28
2.1088469e-40
-1.8999262e-28
8.8663225e-28
-4.4999293e-44
-2.533235e-28
0
0
0
-2.533235e-28
2.533235e-28
1.2666175e-28
-1.2666175e-28
-9.8636687e-54
1.7567724e-41
-6.3330875e-29
0
-6.3330875e-29
8.9998586e-45
6.4146353e-44
6.3330875e-29
9.7429712e-54
1.8999262e-28
3.7998525e-28
-1.7594724e-40
-2.533235e-28
0
-1.8999262e-28
6.3330875e-29
0
6.3330875e-29
3.4875726e-41
6.3330875e-29
0
-1.7498323e-41
0
0
1.8999262e-28
-2.1095669e-40
-2.533235e-28
0
0
-1.8999262e-28
-2.533235e-28
2.533235e-28
2.533235e-28
-1.2666175e-28
-1.8999262e-28
6.3330875e-28
3.7998525e-28
-7.0378894e-41
-3.0672233e-43
-1.4054179e-40
-2.1081269e-40
3.1665437e-28
-3.1665437e-28
3.1665437e-28
6.3330875e-29
1.6199745e-43
3.1665437e-28
-1.013294e-27
-1.8999262e-28
1.8999262e-28
-6.3330875e-28
-7.599705e-28
4.4331612e-28
-1.8999262e-28
6.3330875e-29
-1.0551434e-40
-6.3330875e-28
4.4331612e-28
-7.0306895e-41
3.5189447e-41
5.6997787e-28
0
0
-6.3330875e-28
-8.8663225e-28
0
1.013294e-27
1.1399557e-27
0
1.5832719e-27
-5.4515743e-40
-2.2165806e-27
2.4699041e-27
-7.3784441e-40
-2.8498894e-27
0
-3.2932055e-27
-1.8284473e-39
3.6731907e-27
-4.3064995e-27
1.3520218e-39
5.2564626e-27
5.5097861e-27
1.7576724e-39
-7.1563888e-27
0
8.7396607e-27
-9.7529547e-27
3.0239525e-42
-6.4012034e-39
-1.2602844e-26
1.3806131e-26
0
3.4705319e-26
-4.2465365e-38
-2.0899189e-26
-1.2584934e-38
-5.0158053e-26
5.5984493e-26
6.1810934e-26
-6.8144021e-26
-7.5617064e-26
-4.1925039e-26
0
5.0728031e-26
1.1146234e-25
-8.7118631e-42
6.7447382e-26
-7.4350447e-26
-8.2013483e-26
9.0436489e-26
-1.9949226e-25
2.1937815e-25
2.0104172e-37
-2.6573635e-25
2.9208199e-25
-8.9289757e-38
1.7694646e-25
-1.9429912e-25
-2.1380503e-25
2.3533753e-25
7.178172e-38
5.6909124e-25
-6.2520239e-25
-6.8676001e-25
7.5490403e-25
1.1498693e-37
4.5471568e-25
-2.7750272e-37
-5.4844537e-25
-1.6701403e-37
1.1806776e-53
-7.2488519e-25
-1.5899849e-24
8.7200281e-25
-3.8146376e-53
1.0489493e-24
1.9154971e-36
-1.2602211e-24
2.7618594e-24
-8.3988617e-37
-3.3157513e-24
7.952498e-54
1.9887161e-24
0
0
2.6093587e-24
-2.8553991e-24
-6.2480974e-24
0
0
0
4.4705264e-24
4.8870536e-24
0
-5.83765e-24
6.3781791e-24
1.1604727e-35
-1.5221322e-23
0
0
0
1.081248e-23
1.1798795e-23
-1.2872887e-23
1.4042861e-23
8.5061794e-36
-3.3404883e-23
0
0
4.326968e-23
-6.7004667e-39
-2.5684723e-23
2.7977871e-23
-3.047051e-23
3.3178792e-23
-2.0060316e-35
-7.8635541e-23
0
0
5.0650767e-23
5.5092098e-23
0
0
-7.0813544e-23
-7.6965632e-23
0
9.0869672e-23
9.8709275e-23
-1.0720505e-22
1.1641025e-22
1.2638246e-22
-1.3718291e-22
-1.488779e-22
8.9712901e-35
1.7524622e-22
-1.9007945e-22
-5.720865e-35
2.2349111e-22
0
2.6257595e-22
-1.5797633e-34
-3.0826158e-22
3.3390811e-22
-2.0077747e-34
-3.9155529e-22
0
4.5880268e-22
-1.378674e-34
-7.6338574e-38
5.8109504e-22
-6.284728e-22
-6.7958145e-22
0
1.5882863e-21
-9.5324682e-34
-9.2729466e-22
-1.4235419e-37
-2.1638516e-21
2.3366292e-21
2.522707e-21
-2.7230679e-21
-1.4693819e-21
0
3.4207392e-21
-3.071414e-33
-3.9786116e-21
0
4.6237942e-21
1.3837163e-33
-2.6846613e-21
-8.0309093e-34
-6.2300786e-21
6.7088798e-21
9.0204787e-33
-7.7750178e-21
8.3675046e-21
-2.4981251e-33
-9.6855028e-21
-5.2086299e-21
1.1202032e-20
6.0217389e-21
-1.2945496e-20
1.3912239e-20
1.8667964e-32
-1.6057859e-20
1.7246447e-20
-2.5712089e-33
9.9409144e-21
-1.1839428e-32
-3.4351592e-20
6.8193547e-33
2.6357017e-20
-1.4133565e-20
-3.0309381e-20
1.6246214e-20
-9.6678619e-33
1.865911e-20
2.220389e-32
-2.1412473e-20
4.5861505e-20
-2.0445438e-32
2.918002e-32
-1.5604686e-32
-3.0096142e-20
0
-3.4435537e-20
-3.6822797e-20
0
0
0
0
0
5.4806579e-20
5.8518509e-20
0
-6.6670541e-20
7.1139994e-20
1.2642172e-31
-1.618906e-19
0
0
0
1.0452379e-19
1.1136128e-19
-1.1862008e-19
-1.2632431e-19
2.6899877e-19
2.3853607e-31
-3.0474043e-19
0
3.4492621e-19
3.0554267e-31
-1.9503263e-19
2.0733279e-19
-2.2035958e-19
2.3415256e-19
1.3807695e-31
-5.2841031e-19
0
0
3.1613552e-19
3.3547089e-19
0
3.775054e-19
1.1377839e-34
4.2442141e-19
4.49869e-19
-4.7673359e-19
0
-1.0700082e-18
-1.1331266e-18
0
1.9048144e-18
1.3438559e-18
-1.4218167e-18
7.5197602e-19
7.9523156e-19
-2.5223396e-18
-8.8873006e-19
-1.3346775e-34
-9.9229528e-19
1.0481514e-18
1.1068921e-18
1.16865e-18
-3.203074e-48
1.3017751e-18
1.3734343e-18
-1.4486951e-18
0
-3.2213363e-18
-3.3954367e-18
0
1.8848376e-18
3.9705647e-18
1.1601329e-30
2.2009309e-18
4.6331014e-18
-4.8753132e-18
-5.1289487e-18
-2.6972371e-18
-2.8361856e-18
0
3.1336405e-18
9.8780007e-18
-3.4589193e-18
9.2339381e-46
1.1442692e-17
-8.0077491e-18
-4.2019147e-18
-4.4086648e-18
-9.2488945e-18
9.6991858e-18
5.0844417e-18
-5.3293423e-18
-5.5846522e-18
-5.8507379e-18
1.8383925e-17
6.4167477e-18
-2.0152349e-17
-7.0304831e-18
7.3562598e-18
1.53904e-17
-8.0477328e-18
8.4142967e-18
-1.4643744e-29
1.5308246e-29
2.8808063e-17
-1.0029932e-17
-1.0473528e-17
-2.1867931e-17
-1.1411742e-17
2.3814724e-17
3.5303568e-33
1.2954193e-17
-1.3506452e-17
-4.2235951e-17
4.4013987e-17
1.5285035e-17
-4.7760969e-17
0
5.1773652e-17
1.7961291e-17
-5.606564e-17
1.9440228e-17
4.0433836e-17
1.1667254e-29
-2.4251122e-29
-2.2702897e-17
0
-4.8992082e-17
-5.0870275e-17
2.6403374e-17
2.7401343e-17
5.6859273e-17
-2.9488843e-17
-3.0579549e-17
6.3404676e-17
0
-6.8092957e-17
-7.0537947e-17
3.6525839e-17
7.5635261e-17
-2.1728392e-29
-4.0508179e-17
8.3816017e-17
-4.3344905e-17
1.4926897e-28
9.2663866e-17
-4.788305e-17
0
-1.0220571e-16
0
1.20983e-28
5.6233158e-17
1.1605017e-16
-1.795757e-16
1.7545849e-32
1.2730324e-16
0
-1.352299e-16
-6.9661196e-17
1.4350169e-16
-8.2033111e-29
-7.6061251e-17
1.5656479e-16
-8.0547716e-17
1.3795282e-28
1.7042278e-16
-8.7609927e-17
9.0053004e-17
-1.8508129e-16
-2.8521853e-16
0
3.0081223e-16
2.0587256e-16
-3.1693818e-16
-2.1679983e-16
1.1119767e-16
2.2807821e-16
-1.1692397e-16
-1.1985199e-16
2.4564569e-16
-1.258362e-16
-2.5778334e-16
1.3198886e-16
-1.9202749e-32
2.7661323e-16
2.8305241e-16
-4.3435671e-16
1.4808415e-16
2.5219409e-28
-4.6438961e-16
0
4.8497474e-16
3.3028673e-16
-1.6866368e-16
-1.7221841e-16
-1.7580676e-16
0
-1.8308098e-16
1.0366882e-28
3.8095872e-16
-1.0778082e-28
-1.9799453e-16
0
-2.0561873e-16
4.1893835e-16
6.4003139e-16
-4.3448302e-16
-6.634837e-16
-2.2510185e-16
2.2906222e-16
4.660824e-16
-2.3703763e-16
2.4105031e-16
2.4507806e-16
-4.9823931e-16
5.0634774e-16
2.5723948e-16
-7.8394563e-16
-5.3079964e-16
2.6949203e-16
8.2077166e-16
-6.1656533e-28
6.2568477e-28
2.8591113e-16
3.2196847e-28
2.9413263e-16
-2.9824179e-16
-3.0234811e-16
-3.0645029e-16
3.1054699e-16
3.1463689e-16
-9.5615603e-16
3.2279102e-16
6.5370518e-16
-9.9270622e-16
-9.519515e-32
3.3895952e-16
-6.8592974e-16
-3.4695288e-16
0
3.5487175e-16
3.5880002e-16
7.2541163e-16
-3.6658786e-16
1.2337504e-27
1.122827e-15
-3.7807895e-16
-3.8185348e-16
-3.8559805e-16
3.8931145e-16
3.9299248e-16
-1.1899198e-15
4.0025267e-16
8.0765896e-16
6.7847841e-28
4.1087078e-16
-8.2866597e-16
-1.2532642e-15
-2.3370205e-28
2.356145e-28
6.0789256e-32
4.3101542e-16
8.6843731e-16
4.3737502e-16
-1.3214505e-15
4.9240022e-28
8.9310553e-16
0
0
-4.552728e-16
2.5426548e-28
-2.5572415e-28
-4.6350944e-16
9.3228659e-16
4.6871983e-16
5.2301206e-28
-4.7369748e-16
-1.4282907e-15
-4.7843565e-16
0
0
0
1.4615029e-15
9.78382e-16
-1.4734471e-15
5.4749058e-28
9.8973239e-16
0
0
-9.9986834e-16
1.11345e-27
5.5822629e-28
-1.0087536e-15
5.0571577e-16
1.0139655e-15
1.0163543e-15
-5.0929842e-16
-1.531038e-15
-5.1131931e-16
0
0
0
1.5433792e-15
1.0301083e-15
-1.5467139e-15
1.1457009e-27
5.1637228e-16
-7.3421123e-32
5.1685926e-16
-1.0339681e-15
5.7398063e-28
5.1699071e-16
-1.0337357e-15
0
2.8670141e-28
1.0320166e-15
1.0311175e-15
-1.5450819e-15
-1.0288274e-15
5.1371782e-16
2.8464747e-28
-5.1207838e-16
1.5334037e-15
1.0202158e-15
-5.0899822e-16
-5.0780554e-16
5.065298e-16
5.0517097e-16
-5.0372912e-16
-5.0220426e-16
2.7786906e-28
-2.7685974e-28
-4.9713248e-16
0
-4.9333835e-16
9.8263599e-16
1.4676472e-15
-9.7406383e-16
-9.6953366e-16
-4.8242081e-16
5.3279841e-28
9.5497542e-16
-4.7490148e-16
4.7223617e-16
4.6949229e-16
-9.3334082e-16
9.275424e-16
4.607953e-16
-4.5774342e-16
-9.0923266e-16
-4.5141482e-16
8.9627942e-16
-2.467669e-28
4.4137238e-16
4.3788204e-16
-1.3029659e-15
4.3069321e-16
4.2699688e-16
-1.2697026e-15
5.9601223e-32
1.2465436e-15
4.115602e-16
-1.2226339e-15
4.0346925e-16
2.2232478e-44
6.5789427e-28
7.8179852e-16
-7.7319971e-16
-7.644969e-16
3.7784676e-16
-4.1452695e-28
-7.3779934e-16
3.6435788e-16
1.0793195e-15
3.5514737e-16
-3.5048252e-16
0
-3.4104386e-16
-6.7254831e-16
4.7105257e-32
9.7993451e-16
3.2178955e-16
-6.3382043e-16
4.4339154e-32
6.1417675e-16
-6.0430111e-16
4.9498673e-28
5.8446557e-16
-8.6177297e-16
-5.6454975e-16
0
0
2.6730503e-16
7.8694815e-16
2.5733167e-16
-7.5706293e-16
2.7463651e-28
4.8486092e-16
-4.7497769e-16
-4.6512798e-16
2.2765833e-16
4.4554842e-16
-2.1791399e-16
-2.1308003e-16
6.2482382e-16
2.0349999e-16
3.310346e-28
-1.0765851e-28
-1.8938316e-16
1.8475373e-16
-3.6033165e-16
-5.2686439e-16
0
5.0001352e-16
3.2453786e-16
-4.7375312e-16
4.3661189e-32
1.4937492e-16
-2.9037326e-16
1.410557e-16
1.3698357e-16
1.4761874e-28
-1.2902113e-16
-2.5026643e-16
1.2130909e-16
2.3509938e-16
2.27712e-16
-1.2240221e-28
-1.0666924e-16
1.031776e-16
-1.9950942e-16
-2.892031e-16
0
2.697095e-16
1.7351929e-16
-2.5106006e-16
8.9594967e-29
7.7753034e-17
-7.4892324e-17
-7.2102301e-17
3.8492978e-29
1.3346685e-16
-3.5610375e-29
-1.2328843e-16
6.5716427e-29
6.3083324e-29
1.0905434e-16
1.5687115e-16
-1.0024062e-16
5.3318874e-29
1.5311175e-28
-4.4002433e-17
-4.2091115e-17
-8.0484519e-17
1.1536476e-16
3.6728032e-17
-7.0121136e-17
6.690295e-17
1.8132817e-32
-9.1211391e-17
-2.8962969e-17
2.7575863e-17
7.8723915e-17
-8.3128999e-29
-4.7449999e-17
-2.2540743e-17
4.2808288e-17
6.0941618e-17
-5.7806106e-17
-1.8267425e-17
-1.9210372e-29
-1.6391313e-17
3.1028122e-17
-8.1460886e-30
1.38748e-17
-1.3110417e-17
4.1242083e-29
3.5057896e-17
-3.3070765e-17
-3.1178544e-17
0
0
0
8.1638629e-18
2.3023994e-17
7.21055e-18
7.5162912e-30
6.3535842e-18
-1.7876315e-17
-5.5851325e-18
5.2317853e-18
4.8977973e-18
4.5823108e-18
-8.5690351e-18
4.0035623e-18
-3.7386685e-18
1.1620302e-29
6.508169e-18
-9.0987581e-18
-5.6498959e-18
0
4.8916961e-18
2.5239508e-30
-2.1118342e-18
5.8807662e-18
1.8182687e-18
-1.6852979e-18
0
0
-1.3358124e-18
-2.4685062e-18
2.5300289e-30
2.1021503e-18
9.6864405e-19
-8.9188838e-19
8.20389e-19
-7.5385279e-19
-3.097553e-46
1.0568069e-30
-1.7433227e-18
0
0
8.8584904e-19
8.0688193e-19
3.6685541e-19
-3.6961222e-31
-9.0506202e-19
3.0286881e-31
4.9201592e-19
0
-3.9726722e-19
-1.7768627e-19
3.1688692e-19
-1.4074411e-19
-1.2448141e-19
3.2873195e-19
-9.586394e-20
2.7728113e-31
1.5041656e-19
-2.2403826e-19
-1.4848246e-19
0
0
0
2.8136013e-19
1.6650966e-19
-2.3808959e-19
-1.9072145e-19
0
1.869545e-19
-9.8491638e-32
-1.009243e-19
2.1304602e-19
-9.3084829e-20
8.5580807e-20
9.9172351e-20
-3.3350188e-19
1.9990542e-19
1.6937385e-19
-8.8995522e-20
9.9450435e-20
-1.8782784e-19
-2.2881835e-19
0
2.5321005e-19
1.7873019e-19
-7.4239202e-20
-6.3880694e-20
8.1070801e-32
-8.2404748e-20
2.5043111e-31
6.2848369e-20
3.4970602e-32
-1.0338103e-48
-6.6366631e-20
0
-5.6624606e-20
1.2618505e-19
1.9108522e-19
-1.8011228e-19
-1.9264109e-19
0
1.3298602e-19
1.1709431e-19
-1.2762016e-19
7.2253133e-20
6.4328861e-20
-1.5976517e-19
1.2378688e-19
1.5567064e-19
-7.4947212e-20
-1.1128624e-19
-3.7890644e-20
1.1449345e-19
5.0548189e-20
9.0514411e-32
-7.9584944e-20
-1.7220477e-35
9.9571254e-20
-7.0416006e-20
-9.80191e-20
-3.2994661e-20
1.1069538e-19
7.3423027e-20
-1.0020372e-19
7.5555699e-32
7.0775952e-20
3.1004774e-20
-1.3428201e-32
-3.9330382e-20
2.7296634e-32
-3.4840349e-20
-4.2381921e-20
1.3425245e-19
4.9504822e-20
5.3199578e-32
-7.2365037e-20
8.813308e-32
7.6084576e-20
-5.3038505e-20
2.572817e-32
1.9877724e-32
3.328273e-32
1.4033134e-20
-4.2351212e-20
1.4381602e-20
2.9957505e-32
8.6431806e-32
9.8216031e-20
-3.0647551e-20
-5.5074447e-20
2.9079737e-32
-2.7961003e-20
-2.9443027e-20
5.2696273e-20
4.812898e-20
-2.5605473e-32
-7.6374245e-20
2.7202494e-32
2.2315989e-20
-3.9861927e-20
1.8262617e-20
1.6331998e-20
-6.6703413e-33
5.6226514e-33
-1.0607858e-20
2.1804938e-20
-8.9726247e-21
1.6580969e-32
9.8471842e-33
-2.1359381e-20
2.5347375e-20
-4.5422273e-36
-2.9406846e-20
1.16184e-20
3.0532746e-20
7.8438753e-21
-8.306424e-21
-1.6748737e-33
-1.611559e-21
-2.6423539e-21
6.5208764e-21
-2.5698404e-33
6.0443108e-21
-7.7177246e-21
6.8625694e-21
-1.2699821e-20
4.1223481e-21
6.5842109e-21
0
0
2.4251446e-21
1.0551426e-37
4.6008811e-21
-2.3673215e-21
-3.4093792e-21
-9.7113304e-22
5.7290927e-21
9.3247278e-37
3.0239271e-33
4.4006459e-21
-7.1905132e-21
-1.3280403e-32
4.7968756e-21
-6.9283712e-21
-5.3864887e-21
4.8077829e-33
6.6818216e-21
-1.7726707e-20
1.823471e-20
-3.5130206e-32
-2.5063918e-20
3.3474197e-20
1.9605791e-20
-1.1757071e-20
-4.4657463e-20
-1.6602334e-20
1.6026514e-20
0
-1.2638584e-20
1.4417202e-20
4.9336579e-20
9.5350636e-33
-3.0641367e-20
1.4433143e-20
1.6714704e-20
-3.9058782e-20
1.9788402e-20
-1.6029191e-20
-2.7391791e-20
4.3477295e-20
-5.482078e-32
4.1011447e-32
3.9314183e-20
-3.4537179e-20
-1.5174584e-20
-1.6615702e-20
-2.0909884e-32
2.0176218e-20
-4.0058288e-20
3.9209206e-20
5.7222106e-20
0
-1.6790693e-20
9.6887705e-33
5.1444675e-36
-5.3509248e-20
-1.7072351e-20
4.9490292e-20
-1.5679713e-20
9.4561171e-49
4.5499392e-20
-1.5306071e-20
-4.455764e-20
-1.3696054e-20
2.7132495e-20
-1.444712e-20
1.4963384e-20
-4.8779651e-32
-2.7684937e-20
3.8893726e-20
1.4045111e-32
-5.9078835e-32
2.8536906e-20
-2.8681044e-20
-1.5117874e-32
1.3349227e-20
-2.821706e-20
-1.5278654e-20
0
0
2.9741854e-20
-3.1413125e-32
-8.1361552e-36
-1.7485984e-32
-1.6723212e-20
-1.702578e-20
1.6946358e-20
1.618911e-20
-3.2752899e-20
3.5607584e-20
-2.0607472e-32
-3.6379201e-20
3.3416777e-20
5.3235344e-32
-1.8773239e-32
1.7941425e-20
-3.7206156e-20
1.851985e-20
-3.8194065e-32
-3.3279021e-20
0
3.701716e-20
1.862847e-20
-3.5341575e-20
-1.672456e-20
1.4830459e-20
-2.391987e-32
-1.569499e-20
0
0
3.218295e-20
3.0615517e-20
0
-3.0044884e-20
-1.4320543e-20
1.3850806e-20
-1.3866716e-20
1.4036014e-20
0
-2.5601347e-20
0
0
1.3119176e-20
-1.4201257e-32
-1.1902705e-20
0
1.2111718e-20
6.9580655e-33
-1.2270507e-20
0
2.2139226e-20
2.2692121e-20
-1.1938077e-20
-1.3312911e-32
1.1573659e-20
-2.2647279e-20
-2.2850366e-20
2.30361e-20
3.2056733e-36
2.4458307e-32
3.150672e-36
-2.2628134e-20
1.1225417e-20
-1.2217351e-32
1.1166682e-20
-1.1480249e-20
-3.4622455e-20
3.3610165e-20
1.0474845e-20
-1.0356122e-20
-1.2212165e-32
-1.1510742e-20
2.3218315e-20
2.2841392e-20
-2.2008109e-20
-3.6567473e-32
-1.1364148e-20
-1.1620676e-20
2.3128554e-20
-1.1220869e-20
1.2455058e-32
-6.4160416e-33
1.1695553e-20
2.2956564e-20
-2.188986e-20
-2.1659942e-20
0
1.1689517e-20
1.3081983e-32
-2.3333298e-20
-1.2708135e-32
3.3414448e-20
2.1687053e-20
0
-2.2444741e-20
-2.5151995e-32
-1.1158668e-20
-1.0791373e-20
3.1847143e-20
-6.0072779e-33
-2.1542992e-20
1.0209746e-20
1.9891942e-20
-1.0237218e-20
-2.1302739e-20
-1.0672225e-20
0
2.0278903e-20
-1.0064423e-20
-3.0821332e-20
1.0218702e-20
9.7802374e-21
1.9174444e-20
9.8467875e-21
-2.0399222e-20
-1.0096851e-20
-9.6478257e-21
1.0331853e-32
9.4847319e-21
1.0037118e-20
2.0804395e-20
1.0409586e-20
0
0
0
-1.8235418e-20
-1.9020579e-20
1.9857577e-20
1.1257183e-32
1.1292463e-32
-1.1191344e-32
-2.2024882e-32
1.9470661e-20
0
-1.8777903e-20
-9.5660853e-21
9.8634106e-21
-9.9709683e-21
-9.8149462e-21
0
0
1.7332856e-20
-3.0220344e-32
-2.1042114e-32
1.9344123e-20
-1.9287714e-20
-1.9022566e-20
0
1.7772673e-20
-9.6870808e-33
-1.7943558e-20
1.8445091e-20
1.0280255e-32
-1.8177078e-20
0
1.7352683e-20
8.8921861e-21
-1.8278371e-20
9.1223868e-21
1.9796395e-32
-1.7599638e-20
1.7632804e-20
1.7904473e-20
0
0
0
-1.7711982e-20
-1.7965979e-20
1.7825829e-20
0
-1.7012852e-20
0
-9.0068022e-21
1.8062426e-20
8.8623842e-21
-8.521725e-21
1.6893396e-20
8.7514049e-21
-1.8182491e-20
-9.1804638e-21
-1.0010048e-32
8.8182073e-21
-1.9158069e-32
4.8325292e-36
1.7159974e-20
0
-8.890548e-21
-1.7520324e-20
-8.5091326e-21
0
0
0
-8.5795054e-21
1.7162084e-20
8.4144939e-21
-8.184907e-21
-8.0588237e-21
8.0506802e-21
8.066243e-21
-1.5993132e-20
0
1.5447501e-20
1.5460916e-20
0
0
-1.4416038e-20
-7.8404054e-33
-7.1740875e-21
-7.3087432e-21
7.2833369e-21
-7.123272e-21
6.9450245e-21
1.3688794e-20
6.7491987e-21
0
-1.293073e-20
-7.187145e-33
6.5526615e-21
-6.5541334e-21
-6.3819403e-21
-1.2242519e-20
1.2008897e-20
6.0859813e-21
-1.7641675e-36
6.1743015e-21
-1.2084346e-20
5.9124216e-21
-5.9074114e-21
8.5994715e-51
5.9792524e-21
-1.1748547e-20
1.1442274e-20
1.143238e-20
0
-5.9658362e-21
-1.1822013e-20
3.1976616e-33
5.7135922e-21
5.8170285e-21
-1.189523e-20
-1.1927646e-20
5.848142e-21
1.1387577e-20
1.1330058e-20
-5.7908403e-21
-1.1954095e-20
6.0946834e-21
-6.1010821e-21
9.9980358e-33
5.88604e-21
-1.1661997e-20
1.1827458e-20
6.7589249e-33
-3.4430322e-32
1.2264243e-20
-1.194691e-20
-2.6138819e-32
5.9497787e-21
-1.2234876e-20
6.2176884e-21
-1.7551669e-36
2.6983988e-32
6.0216113e-21
-1.2045556e-20
1.3506606e-32
-3.4164813e-33
6.1560515e-21
-1.7237162e-36
-1.1879859e-20
1.1610133e-20
3.264767e-36
-2.5751582e-32
1.1801679e-20
-1.1957531e-20
-1.3177798e-32
1.1572424e-20
-5.6265309e-21
-5.4535558e-21
-5.4026616e-21
5.5255578e-21
-6.2263604e-33
-1.1115114e-20
0
0
1.0116055e-20
1.4765397e-36
-1.0607009e-20
5.2591378e-21
-5.6100421e-33
4.77816e-21
1.0455714e-32
-9.7462567e-21
0
-5.0945969e-21
9.7035422e-21
4.5418087e-21
-9.5430767e-33
4.3213482e-21
-9.1296435e-21
4.7098137e-21
-5.2056756e-33
-9.1116626e-21
0
0
4.3512952e-21
-2.426105e-33
4.3193089e-21
-4.2123939e-21
-1.2300977e-20
1.2282165e-20
4.19683e-21
-8.4833913e-21
4.130308e-21
6.5917835e-33
3.8316282e-21
-2.1889078e-36
-1.3300588e-32
4.0606497e-21
-7.9206197e-21
-3.7998898e-21
0
-3.7083794e-21
3.8408792e-21
3.896492e-21
3.788113e-21
-8.0319794e-33
3.8790328e-33
-3.9118974e-33
-7.3517024e-21
3.7659473e-21
6.1913159e-33
-7.1343141e-21
4.8602989e-37
3.4021362e-21
7.0251692e-21
7.3156312e-21
-7.3935803e-21
-3.9714752e-33
-3.4187883e-21
-3.3294606e-21
6.7754067e-21
-7.1319858e-21
-3.673958e-21
1.0920163e-20
6.984783e-21
-3.3405875e-21
-6.7148291e-21
-3.5328045e-21
3.7162e-21
7.5658209e-21
-7.3984244e-21