/*--------------------------------*- C++ -*----------------------------------*\
  =========                 |
  \\      /  F ield         | OpenFOAM: The Open Source CFD Toolbox
   \\    /   O peration     | Website:  https://openfoam.org
    \\  /    A nd           | Version:  7
     \\/     M anipulation  |
\*---------------------------------------------------------------------------*/
FoamFile
{
    version     2.0;
    format      ascii;
    class       volScalarField;
    location    "0.00227";
    object      mag(U);
}
// * * * * * * * * * * * * * * * * * * * * * * * * * * * * * * * * * * * * * //

dimensions      [0 1 -1 0 0 0 0];

internalField   nonuniform List<scalar> 
5000
(
68.293739
68.241919
68.216976
68.188317
68.160627
68.132662
68.104741
68.076712
68.048685
68.020575
67.992467
67.964297
67.936128
67.907917
67.879707
67.851469
67.823232
67.794979
67.766727
67.738467
67.710206
67.681944
67.653681
67.62542
67.59716
67.568903
67.540648
67.512396
67.484148
67.455905
67.427666
67.399431
67.371202
67.342978
67.314759
67.286545
67.258337
67.230134
67.201937
67.173745
67.145559
67.117378
67.089202
67.061033
67.032868
67.004709
66.976556
66.948408
66.920265
66.892129
66.863998
66.835872
66.807752
66.779638
66.751528
66.723425
66.695327
66.667235
66.639148
66.611067
66.582991
66.554922
66.526857
66.498798
66.470744
66.442697
66.414654
66.386618
66.358587
66.330562
66.302542
66.274528
66.246519
66.218517
66.190519
66.162527
66.13454
66.106559
66.078582
66.050612
66.022647
65.994688
65.966734
65.938786
65.910843
65.882906
65.854975
65.827049
65.799129
65.771214
65.743304
65.7154
65.687501
65.659608
65.631719
65.603837
65.575961
65.54809
65.520226
65.492367
65.464515
65.436669
65.408829
65.380996
65.353169
65.325349
65.297535
65.269728
65.241926
65.21413
65.186339
65.158554
65.130772
65.102994
65.075219
65.047446
65.019676
64.991907
64.964139
64.936374
64.908609
64.880845
64.853083
64.825323
64.797565
64.769809
64.742056
64.714307
64.68656
64.658818
64.631079
64.603346
64.575616
64.547891
64.520171
64.492457
64.464747
64.437043
64.409344
64.38165
64.353961
64.326278
64.2986
64.270927
64.243258
64.215596
64.187938
64.160287
64.13264
64.104999
64.077363
64.049732
64.022107
63.994486
63.966871
63.939261
63.911656
63.884057
63.856462
63.828874
63.801291
63.773713
63.74614
63.718573
63.69101
63.663453
63.635901
63.608354
63.580812
63.553275
63.525744
63.498218
63.470697
63.443182
63.415671
63.388166
63.360666
63.333171
63.305681
63.278197
63.250718
63.223244
63.195775
63.168312
63.140854
63.113402
63.085954
63.058512
63.031075
63.003643
62.976216
62.948794
62.921377
62.893966
62.86656
62.839159
62.811763
62.784373
62.756987
62.729607
62.702231
62.67486
62.647495
62.620135
62.59278
62.565431
62.538086
62.510747
62.483413
62.456085
62.428761
62.401442
62.374129
62.34682
62.319517
62.292218
62.264925
62.237637
62.210354
62.183076
62.155803
62.128536
62.101274
62.074017
62.046765
62.019518
61.992276
61.965039
61.937808
61.910581
61.88336
61.856144
61.828933
61.801727
61.774527
61.747331
61.720142
61.692957
61.665778
61.638604
61.611435
61.584272
61.557114
61.529961
61.502814
61.475672
61.448535
61.421404
61.394278
61.367157
61.340041
61.31293
61.285823
61.258721
61.231624
61.204531
61.177442
61.150357
61.123276
61.096198
61.069123
61.042052
61.014984
60.987919
60.960856
60.933796
60.906739
60.879685
60.852633
60.825585
60.798539
60.771496
60.744456
60.717419
60.690385
60.663354
60.636327
60.609304
60.582284
60.555268
60.528256
60.501248
60.474244
60.447245
60.42025
60.393259
60.366273
60.339291
60.312314
60.285342
60.258374
60.231412
60.204454
60.1775
60.150552
60.123609
60.09667
60.069737
60.042808
60.015884
59.988964
59.96205
59.93514
59.908235
59.881335
59.854441
59.827551
59.800666
59.773787
59.746912
59.720042
59.693176
59.666316
59.63946
59.612608
59.585762
59.55892
59.532084
59.505252
59.478426
59.451604
59.424787
59.397975
59.371168
59.344366
59.317569
59.290776
59.263988
59.237205
59.210426
59.183653
59.156884
59.13012
59.10336
59.076606
59.049857
59.023112
58.996373
58.969638
58.942908
58.916183
58.889463
58.862748
58.836037
58.809332
58.782631
58.755935
58.729244
58.702558
58.675876
58.6492
58.622528
58.59586
58.569198
58.54254
58.515887
58.489238
58.462595
58.435956
58.409322
58.382692
58.356068
58.329448
58.302834
58.276223
58.249618
58.223018
58.196422
58.169831
58.143245
58.116663
58.090086
58.063514
58.036947
58.010384
57.983826
57.957273
57.930725
57.904182
57.877644
57.85111
57.824581
57.798057
57.771538
57.745024
57.718515
57.69201
57.66551
57.639015
57.612525
57.58604
57.55956
57.533084
57.506614
57.480148
57.453686
57.42723
57.400778
57.37433
57.347888
57.321449
57.295015
57.268585
57.242159
57.215737
57.189319
57.162905
57.136494
57.110088
57.083684
57.057285
57.030888
57.004496
56.978106
56.95172
56.925336
56.898956
56.872579
56.846205
56.819834
56.793466
56.767101
56.740739
56.714381
56.688025
56.661673
56.635324
56.608978
56.582636
56.556297
56.529961
56.503629
56.477301
56.450976
56.424655
56.398337
56.372024
56.345714
56.319409
56.293107
56.26681
56.240516
56.214227
56.187942
56.161662
56.135385
56.109113
56.082845
56.056582
56.030323
56.004068
55.977818
55.951572
55.925331
55.899094
55.872862
55.846634
55.820411
55.794192
55.767978
55.741768
55.715563
55.689362
55.663166
55.636974
55.610787
55.584604
55.558426
55.532253
55.506084
55.479919
55.453759
55.427603
55.401452
55.375306
55.349164
55.323026
55.296893
55.270765
55.244641
55.218521
55.192406
55.166296
55.14019
55.114088
55.087991
55.061898
55.03581
55.009726
54.983647
54.957572
54.931502
54.905437
54.879375
54.853319
54.827266
54.801219
54.775175
54.749137
54.723102
54.697072
54.671047
54.645026
54.619009
54.592997
54.566989
54.540986
54.514987
54.488993
54.463003
54.437017
54.411036
54.385059
54.359087
54.33312
54.307156
54.281197
54.255243
54.229293
54.203347
54.177406
54.151469
54.125537
54.099609
54.073685
54.047766
54.021851
53.995941
53.970035
53.944134
53.918237
53.892345
53.866457
53.840574
53.814695
53.78882
53.762951
53.737086
53.711225
53.685369
53.659517
53.63367
53.607828
53.58199
53.556156
53.530327
53.504502
53.478681
53.452865
53.427053
53.401246
53.375443
53.349643
53.323848
53.298058
53.272271
53.246488
53.220708
53.194933
53.169162
53.143394
53.11763
53.09187
53.066113
53.040359
53.014609
52.988863
52.963119
52.937379
52.911642
52.885907
52.860176
52.834448
52.808723
52.783001
52.757282
52.731566
52.705853
52.680143
52.654436
52.628732
52.603032
52.577334
52.55164
52.525948
52.50026
52.474575
52.448894
52.423216
52.397541
52.371869
52.346201
52.320536
52.294875
52.269218
52.243564
52.217913
52.192266
52.166624
52.140985
52.115349
52.089718
52.06409
52.038467
52.012847
51.987231
51.96162
51.936012
51.910408
51.884809
51.859213
51.833622
51.808035
51.782452
51.756873
51.731298
51.705727
51.68016
51.654598
51.62904
51.603486
51.577936
51.55239
51.526849
51.501311
51.475778
51.450249
51.424724
51.399204
51.373687
51.348175
51.322667
51.297163
51.271663
51.246168
51.220676
51.195189
51.169706
51.144227
51.118752
51.093282
51.067816
51.042353
51.016895
50.991442
50.965992
50.940547
50.915105
50.889668
50.864235
50.838806
50.813382
50.787961
50.762544
50.737132
50.711724
50.68632
50.66092
50.635524
50.610133
50.584746
50.559363
50.533984
50.50861
50.483239
50.457873
50.432511
50.407153
50.381799
50.356449
50.331103
50.305762
50.280424
50.255091
50.229762
50.204437
50.179116
50.153799
50.128486
50.103178
50.077874
50.052574
50.027278
50.001986
49.976698
49.951415
49.926135
49.90086
49.875589
49.850322
49.825059
49.7998
49.774545
49.749294
49.724047
49.698803
49.673564
49.648329
49.623097
49.597869
49.572645
49.547425
49.522209
49.496996
49.471786
49.446581
49.421378
49.396179
49.370984
49.345792
49.320603
49.295418
49.270236
49.245057
49.219882
49.194709
49.16954
49.144374
49.11921
49.09405
49.068893
49.043739
49.018588
48.99344
48.968295
48.943152
48.918013
48.892877
48.867744
48.842613
48.817486
48.792361
48.76724
48.742122
48.717007
48.691894
48.666785
48.641679
48.616577
48.591477
48.566381
48.541288
48.516198
48.491111
48.466028
48.440948
48.415872
48.390799
48.365729
48.340663
48.3156
48.290541
48.265485
48.240433
48.215385
48.19034
48.165299
48.140261
48.115227
48.090197
48.065171
48.040148
48.015129
47.990114
47.965102
47.940095
47.915091
47.890091
47.865095
47.840102
47.815113
47.790128
47.765147
47.74017
47.715196
47.690226
47.66526
47.640298
47.61534
47.590386
47.565435
47.540488
47.515545
47.490606
47.465671
47.440739
47.415812
47.390888
47.365968
47.341052
47.316139
47.291231
47.266326
47.241425
47.216528
47.191634
47.166745
47.141858
47.116976
47.092097
47.067223
47.042353
47.017486
46.992622
46.967762
46.942905
46.918053
46.893205
46.868362
46.843522
46.818685
46.79385
46.769019
46.744192
46.71937
46.694554
46.669741
46.644931
46.620123
46.595316
46.570514
46.545716
46.520926
46.49614
46.471358
46.446578
46.421798
46.39702
46.372245
46.347478
46.322717
46.297963
46.273213
46.248463
46.223712
46.198962
46.174216
46.149476
46.124744
46.100019
46.075299
46.050582
46.025864
46.001145
45.976427
45.951714
45.927006
45.902306
45.877613
45.852925
45.828241
45.803559
45.778878
45.754198
45.729519
45.704841
45.680165
45.655494
45.630829
45.606172
45.581525
45.556886
45.532253
45.507623
45.482986
45.458338
45.433687
45.409037
45.384391
45.359754
45.335129
45.310516
45.285914
45.261321
45.236735
45.212151
45.187566
45.162972
45.138372
45.113764
45.08915
45.064536
45.039923
45.015313
44.990709
44.966112
44.941522
44.916938
44.892356
44.867776
44.843199
44.818627
44.794063
44.769507
44.744959
44.720415
44.695874
44.671333
44.646794
44.62226
44.597732
44.573211
44.548695
44.524182
44.499674
44.475169
44.450669
44.426174
44.401683
44.377195
44.352707
44.32822
44.303735
44.279254
44.25478
44.230313
44.205853
44.181397
44.156945
44.132493
44.108042
44.083591
44.059143
44.034698
44.01026
43.985828
43.961403
43.936983
43.912568
43.888157
43.86375
43.839351
43.814962
43.790585
43.766221
43.741866
43.717517
43.69317
43.668824
43.64448
43.62014
43.595808
43.571487
43.547175
43.522871
43.498572
43.474276
43.449982
43.425694
43.401413
43.377143
43.352884
43.328636
43.304395
43.280159
43.255924
43.231691
43.20746
43.183235
43.15902
43.134818
43.11063
43.086453
43.062287
43.038127
43.013972
42.98982
42.96567
42.941525
42.91739
42.893267
42.869162
42.845078
42.821011
42.796958
42.772912
42.748867
42.724818
42.700765
42.676714
42.65267
42.62864
42.604627
42.580631
42.556648
42.532671
42.508695
42.484721
42.460752
42.436792
42.412847
42.38892
42.365011
42.341113
42.317221
42.293329
42.269433
42.245536
42.221641
42.197755
42.173884
42.150034
42.126203
42.102387
42.07858
42.054775
42.030966
42.007147
41.983328
41.959517
41.935722
41.911948
41.888192
41.864449
41.840711
41.816971
41.793218
41.76946
41.745704
41.721958
41.698226
41.674509
41.6508
41.627094
41.603387
41.579669
41.555948
41.532227
41.508513
41.484809
41.461115
41.437431
41.413751
41.390073
41.366393
41.34271
41.319021
41.295324
41.271618
41.247906
41.224194
41.200486
41.176785
41.153089
41.129396
41.105701
41.081992
41.058259
41.034516
41.010767
40.987016
40.963262
40.939507
40.915748
40.891975
40.868181
40.844371
40.820553
40.796728
40.772899
40.749065
40.725225
40.701372
40.677498
40.653603
40.629688
40.605751
40.581796
40.557821
40.533827
40.509813
40.485782
40.461735
40.437676
40.41361
40.389533
40.365426
40.341272
40.317075
40.292836
40.268562
40.244265
40.219944
40.195609
40.171248
40.146856
40.122431
40.097979
40.073492
40.048971
40.024414
39.999817
39.975186
39.950518
39.925822
39.901098
39.87634
39.851541
39.8267
39.801816
39.776879
39.751886
39.726836
39.70173
39.676574
39.651368
39.626116
39.600825
39.575505
39.550152
39.52475
39.499286
39.473753
39.448156
39.422497
39.396785
39.371032
39.345241
39.319408
39.293529
39.267595
39.241595
39.215512
39.189351
39.163107
39.136786
39.1104
39.083954
39.057463
39.030922
39.00433
38.977681
38.950964
38.924176
38.897306
38.870359
38.84333
38.816227
38.789045
38.761791
38.734464
38.707065
38.679596
38.652058
38.624453
38.59678
38.56904
38.541231
38.513357
38.485403
38.457373
38.429257
38.401056
38.372773
38.344413
38.315982
38.287471
38.258874
38.230192
38.201424
38.172576
38.143651
38.114657
38.085584
38.056418
38.027156
37.997801
37.968363
37.938844
37.909254
37.879591
37.849843
37.819997
37.79006
37.760034
37.729924
37.699735
37.669469
37.63912
37.608682
37.578157
37.547547
37.516857
37.486086
37.455223
37.424258
37.393197
37.362057
37.330839
37.299548
37.268189
37.236747
37.205213
37.173585
37.141861
37.110048
37.078149
37.046167
37.014088
36.981907
36.94964
36.917297
36.884888
36.852411
36.819863
36.78724
36.754521
36.721713
36.688819
36.655836
36.622774
36.589626
36.556375
36.523028
36.489599
36.456102
36.422539
36.388911
36.355213
36.321435
36.287564
36.253606
36.219559
36.185425
36.15122
36.116925
36.082532
36.048051
36.013496
35.978882
35.944211
35.909481
35.874684
35.839805
35.804827
35.769758
35.734599
35.699367
35.664072
35.6287
35.593238
35.557681
35.522054
35.486378
35.450653
35.414877
35.379046
35.343137
35.307121
35.271003
35.234786
35.198504
35.162166
35.125778
35.089344
35.052844
35.016254
34.979582
34.942852
34.906051
34.8692
34.8323
34.79533
34.758277
34.72114
34.683929
34.646659
34.609329
34.571956
34.534532
34.497034
34.459453
34.421802
34.384086
34.346323
34.308507
34.270656
34.232745
34.194756
34.156689
34.118549
34.08036
34.042118
34.003845
33.965532
33.927157
33.88871
33.850195
33.811628
33.773007
33.734346
33.695656
33.656907
33.618084
33.579189
33.540231
33.501233
33.462192
33.423127
33.384025
33.34486
33.305629
33.266338
33.226998
33.187614
33.148198
33.108749
33.069249
33.029699
32.990106
32.950463
32.910778
32.871048
32.831282
32.791467
32.751606
32.711703
32.671749
32.631754
32.59172
32.551644
32.511539
32.471395
32.431216
32.391003
32.350747
32.31046
32.270132
32.229769
32.189365
32.14892
32.108441
32.067924
32.027379
31.986803
31.946189
31.905541
31.864853
31.82414
31.783395
31.742625
31.701821
31.660982
31.620111
31.579212
31.538289
31.497342
31.456367
31.415359
31.374323
31.333258
31.292167
31.25105
31.20991
31.168744
31.127551
31.086336
31.045095
31.003828
30.962539
30.921226
30.879889
30.838533
30.797154
30.755753
30.714332
30.67289
30.631427
30.589947
30.548447
30.506928
30.465389
30.423829
30.382249
30.34065
30.299032
30.257399
30.215749
30.174084
30.132403
30.090706
30.048994
30.007266
29.965524
29.92377
29.882004
29.840229
29.798441
29.756643
29.714831
29.673006
29.631166
29.589314
29.547448
29.505571
29.463682
29.421781
29.37987
29.337949
29.296018
29.254078
29.21213
29.170174
29.128208
29.086233
29.044248
29.002255
28.960253
28.918244
28.876229
28.834207
28.792177
28.750138
28.708092
28.666037
28.623977
28.581911
28.53984
28.497764
28.455683
28.413596
28.371503
28.329404
28.2873
28.245191
28.203076
28.160957
28.118834
28.076705
28.034572
27.992433
27.950289
27.908141
27.86599
27.823836
27.78168
27.739522
27.697362
27.655201
27.613041
27.57088
27.528717
27.486552
27.444384
27.402214
27.360044
27.317874
27.275701
27.233522
27.191338
27.149155
27.106973
27.064792
27.02261
26.980419
26.938222
26.896026
26.853834
26.811645
26.769459
26.727268
26.68506
26.642853
26.60065
26.558453
26.516261
26.474071
26.431872
26.389661
26.347451
26.305242
26.263036
26.220834
26.178633
26.136432
26.094228
26.052025
26.009822
25.967619
25.925415
25.883203
25.840984
25.798759
25.756535
25.714314
25.672101
25.629899
25.587708
25.545525
25.503345
25.46115
25.418936
25.376718
25.334502
25.29229
25.250083
25.207877
25.165666
25.123451
25.081237
25.039028
24.996823
24.954624
24.912426
24.87023
24.828036
24.785845
24.743655
24.701463
24.659252
24.61703
24.574809
24.532592
24.490382
24.44818
24.405982
24.363785
24.321579
24.279373
24.237169
24.194967
24.15277
24.110578
24.068389
24.026203
23.984016
23.941821
23.89962
23.857414
23.815206
23.772999
23.730793
23.68859
23.64639
23.604192
23.561996
23.519802
23.477609
23.435416
23.393224
23.351033
23.308842
23.266654
23.224466
23.182277
23.14008
23.09788
23.055681
23.013483
22.971288
22.929096
22.886904
22.844712
22.802517
22.760322
22.718129
22.675937
22.633747
22.591559
22.549372
22.507185
22.464996
22.422806
22.380613
22.338418
22.296223
22.254028
22.211835
22.169643
22.127452
22.085263
22.043074
22.000887
21.958699
21.916513
21.874326
21.83214
21.789954
21.747768
21.705582
21.663396
21.62121
21.579025
21.53684
21.494656
21.452472
21.410286
21.368101
21.325916
21.283733
21.241551
21.199368
21.157182
21.114996
21.072813
21.030632
20.988452
20.946266
20.904075
20.861887
20.819704
20.777526
20.735352
20.693178
20.650991
20.6088
20.56661
20.524425
20.482247
20.440075
20.397905
20.355723
20.31353
20.271339
20.22915
20.186964
20.144781
20.102601
20.060424
20.018253
19.97609
19.933932
19.891776
19.849606
19.807422
19.76524
19.723061
19.680888
19.638721
19.596556
19.554382
19.512196
19.470011
19.427827
19.385646
19.34347
19.301298
19.25913
19.216966
19.174805
19.132645
19.090482
19.04831
19.00613
18.963946
18.921764
18.879583
18.837405
18.795228
18.753051
18.710869
18.668684
18.626501
18.584319
18.542143
18.499972
18.457804
18.415637
18.373463
18.331284
18.289102
18.246921
18.204742
18.162567
18.120395
18.078224
18.036049
17.993868
17.951686
17.909503
17.867322
17.825144
17.782969
17.740795
17.69862
17.656439
17.614256
17.572072
17.529889
17.487709
17.445531
17.403355
17.361179
17.318999
17.276815
17.23463
17.192446
17.150262
17.108081
17.065903
17.023725
16.981546
16.939362
16.897176
16.854988
16.812802
16.770618
16.728437
16.686257
16.644077
16.601892
16.559704
16.517515
16.475326
16.433139
16.390954
16.348771
16.306589
16.264405
16.222216
16.180024
16.137832
16.095641
16.053453
16.011267
15.969083
15.926899
15.884709
15.842514
15.800318
15.758123
15.715931
15.673742
15.631556
15.589371
15.54718
15.504984
15.462784
15.420585
15.378389
15.336197
15.294009
15.251822
15.209632
15.167433
15.12523
15.083027
15.040826
14.998631
14.95644
14.914251
14.872062
14.829861
14.787654
14.745447
14.703242
14.661043
14.618849
14.57666
14.53447
14.492269
14.450059
14.407846
14.365636
14.323432
14.281236
14.239045
14.196856
14.154655
14.112441
14.070223
14.028008
13.985799
13.9436
13.901408
13.859218
13.817018
13.7748
13.732577
13.690356
13.648142
13.605939
13.563746
13.521556
13.479359
13.437138
13.394909
13.352682
13.310462
13.268255
13.226061
13.183872
13.141679
13.099457
13.057221
13.014986
12.97276
12.93055
12.888357
12.846171
12.803981
12.761755
12.719515
12.677274
12.635042
12.592829
12.550634
12.508449
12.466262
12.424038
12.381798
12.339553
12.297317
12.255098
12.212899
12.17071
12.128521
12.086301
12.044066
12.001818
11.959575
11.917349
11.875147
11.832964
11.790787
11.748566
11.706308
11.664058
11.621823
11.579612
11.537419
11.495231
11.453017
11.410787
11.368556
11.326316
11.284083
11.241863
11.199662
11.157474
11.115291
11.07307
11.030816
10.988567
10.946326
10.904103
10.861899
10.819706
10.777511
10.73529
10.693064
10.650833
10.608604
10.566378
10.524159
10.481945
10.439736
10.397527
10.355299
10.313057
10.27082
10.228596
10.186391
10.144198
10.102005
10.059769
10.017518
9.9752753
9.9330485
9.8908437
9.8486547
9.8064689
9.7642521
9.7220153
9.6797802
9.6375481
9.5953239
9.5531076
9.5108958
9.4686848
9.4264668
9.3842444
9.3420075
9.2997675
9.2575352
9.2153176
9.1731155
9.1309208
9.0887059
9.0464491
9.004199
8.9619603
8.9197456
8.8775545
8.8353746
8.7931756
8.7509254
8.7086806
8.6664404
8.6242138
8.5820007
8.5397942
8.4975869
8.4553624
8.4131371
8.3709022
8.3286611
8.2864232
8.2441952
8.2019821
8.1597792
8.1175762
8.075332
8.0330755
7.9908274
7.9485994
7.9063981
7.8642152
7.8220339
7.7797981
7.7375401
7.69529
7.6530545
7.610838
7.5686344
7.5264333
7.4842124
7.4419796
7.3997456
7.3575039
7.315264
7.2730295
7.2308066
7.188597
7.1463942
7.1041728
7.0619116
7.0196603
6.9774235
6.9352106
6.8930179
6.8508326
6.8086203
6.7663703
6.7241261
6.6818867
6.6396556
6.5974301
6.5552094
6.512995
6.4707857
6.4285709
6.3863116
6.3440559
6.3018156
6.2595996
6.2174014
6.1752078
6.132995
6.0907739
6.0485492
6.0062935
5.9640402
5.9217977
5.8795759
5.8373732
5.7951787
5.7529687
5.7107304
5.6684983
5.6262698
5.5840447
5.541812
5.4995624
5.4573237
5.415104
5.3729059
5.3307197
5.2885306
5.2463027
5.2040721
5.1618382
5.1196055
5.0773748
5.0351459
4.9929198
4.9506981
4.9084813
4.8662668
4.8240453
4.7818168
4.7395948
4.6973828
4.6551824
4.6129895
4.5707971
4.5285763
4.4863393
4.4441105
4.4018954
4.3596934
4.3174951
4.2752806
4.2330648
4.1908525
4.148639
4.1064207
4.0642106
4.0220129
3.9798213
3.9376036
3.8953715
3.853164
3.8109832
3.7688174
3.7266453
3.6844351
3.6422277
3.5999877
3.5577589
3.5155577
3.4733898
3.4312387
3.3890663
3.3468413
3.3046236
3.2623999
3.2201873
3.1779967
3.1358312
3.0936798
3.0515155
3.0093029
2.9671051
2.9249122
2.8827053
2.8404963
2.7983151
2.7561537
2.7139824
2.6717703
2.6295805
2.587399
2.5451893
2.5029661
2.4607813
2.4186349
2.3764996
2.3342797
2.2920693
2.2498987
2.2077505
2.1655828
2.1233868
2.0812147
2.0390509
1.9968686
1.9546777
1.9125028
1.8703204
1.8281059
1.7859145
1.7437432
1.701584
1.6594214
1.6172408
1.5750623
1.5328608
1.4906741
1.4484965
1.4063186
1.3641393
1.3219587
1.2797675
1.2375796
1.1953918
1.1532085
1.1110425
1.068882
1.0266727
0.98448497
0.9423215
0.90011134
0.85791259
0.81573328
0.77354939
0.73136847
0.6891812
0.64701519
0.60481589
0.5626086
0.52043143
0.47824019
0.43605766
0.39387165
0.35170661
0.30950465
0.26728957
0.22510809
0.18291677
0.14075823
0.09856036
0.056338984
0.014088191
0.028189802
0.070418153
0.11263297
0.15484268
0.1970497
0.23925501
0.28145919
0.32366261
0.36586563
0.40806854
0.45027156
0.49247467
0.53467767
0.57688027
0.61908228
0.66128365
0.70348446
0.74568489
0.78788509
0.83008521
0.87228535
0.91448561
0.95668604
0.99888667
1.0410875
1.0832885
1.1254896
1.1676909
1.2098922
1.2520935
1.2942948
1.336496
1.3786969
1.4208977
1.4630981
1.5052982
1.547498
1.5896977
1.6318972
1.6740966
1.7162959
1.7584953
1.8006947
1.8428941
1.8850935
1.9272928
1.9694921
2.0116913
2.0538904
2.0960892
2.1382876
2.1804857
2.2226834
2.2648806
2.3070774
2.3492739
2.39147
2.4336659
2.4758614
2.5180567
2.5602518
2.6024466
2.6446413
2.6868357
2.7290299
2.7712239
2.8134177
2.8556112
2.8978045
2.9399974
2.9821899
3.024382
3.0665737
3.108765
3.150956
3.1931468
3.2353372
3.2775274
3.3197171
3.3619066
3.4040957
3.4462846
3.4884733
3.5306617
3.5728498
3.6150376
3.6572252
3.6994125
3.7415994
3.7837861
3.8259724
3.8681585
3.9103443
3.9525299
3.9947152
4.0369003
4.0790852
4.1212698
4.1634543
4.2056386
4.2478227
4.2900067
4.3321905
4.3743742
4.4165577
4.4587411
4.5009244
4.5431076
4.5852907
4.6274737
4.6696565
4.7118393
4.7540221
4.7962048
4.8383876
4.8805703
4.9227531
4.9649359
5.0071187
5.0493017
5.0914847
5.133668
5.1758513
5.2180348
5.2602184
5.3024022
5.3445861
5.3867704
5.4289549
5.4711396
5.5133246
5.5555099
5.5976954
5.6398813
5.6820675
5.7242542
5.7664412
5.8086287
5.8508165
5.8930048
5.9351934
5.9773826
6.0195722
6.0617624
6.1039531
6.1461442
6.1883358
6.2305279
6.2727206
6.3149139
6.3571078
6.3993023
6.4414973
6.483693
6.5258892
6.5680862
6.6102838
6.6524822
6.6946812
6.736881
6.7790815
6.8212826
6.8634846
6.9056872
6.9478907
6.990095
7.0323
7.0745059
7.1167125
7.1589199
7.2011281
7.2433371
7.285547
7.3277577
7.3699691
7.4121815
7.4543947
7.4966087
7.5388236
7.5810393
7.6232558
7.6654732
7.7076914
7.7499105
7.7921305
7.8343513
7.8765729
7.9187954
7.9610187
8.0032428
8.0454678
8.0876936
8.1299203
8.1721477
8.214376
8.2566051
8.298835
8.3410657
8.3832972
8.4255295
8.4677626
8.5099964
8.552231
8.5944664
8.6367025
8.6789394
8.721177
8.7634153
8.8056543
8.847894
8.8901344
8.9323755
8.9746173
9.0168597
9.0591027
9.1013464
9.1435907
9.1858356
9.2280811
9.2703272
9.3125739
9.3548211
9.3970688
9.4393171
9.4815659
9.5238153
9.5660651
9.6083154
9.6505662
9.6928175
9.7350692
9.7773213
9.8195739
9.8618269
9.9040803
9.946334
9.9885882
10.030843
10.073098
10.115353
10.157608
10.199864
10.242121
10.284377
10.326634
10.368891
10.411148
10.453406
10.495664
10.537922
10.580181
10.622439
10.664698
10.706958
10.749217
10.791477
10.833737
10.875997
10.918257
10.960518
11.002778
11.045039
11.087301
11.129562
11.171824
11.214085
11.256347
11.298609
11.340872
11.383134
11.425397
11.46766
11.509923
11.552186
11.59445
11.636713
11.678977
11.721241
11.763506
11.80577
11.848035
11.8903
11.932565
11.97483
12.017096
12.059362
12.101628
12.143894
12.186161
12.228428
12.270695
12.312962
12.35523
12.397498
12.439767
12.482035
12.524305
12.566574
12.608844
12.651114
12.693384
12.735655
12.777927
12.820199
12.862471
12.904744
12.947017
12.98929
13.031564
13.073839
13.116114
13.15839
13.200666
13.242943
13.28522
13.327498
13.369776
13.412055
13.454335
13.496615
13.538896
13.581177
13.62346
13.665742
13.708026
13.75031
13.792594
13.834879
13.877164
13.919449
13.961735
14.004022
14.046309
14.088599
14.13089
14.173183
14.215477
14.257773
14.30007
14.342367
14.384661
14.426954
14.469249
14.511546
14.553847
14.59615
14.638454
14.680757
14.723059
14.765362
14.807665
14.849968
14.892272
14.934579
14.97689
15.019206
15.061523
15.10383
15.146138
15.188449
15.230763
15.273078
15.315394
15.35771
15.400027
15.442346
15.484666
15.526988
15.569312
15.611637
15.653959
15.696278
15.738599
15.780922
15.823248
15.865575
15.907903
15.95023
15.992557
16.034885
16.077214
16.119545
16.161875
16.204207
16.246538
16.288871
16.331204
16.373537
16.415872
16.458206
16.500541
16.542877
16.585213
16.627549
16.669886
16.712224
16.754561
16.796899
16.839237
16.881576
16.923915
16.966254
17.008593
17.050932
17.093272
17.135611
17.177951
17.220291
17.26263
17.30497
17.34731
17.38965
17.431989
17.474329
17.516668
17.559007
17.601346
17.643685
17.686023
17.728361
17.770699
17.813036
17.855373
17.89771
17.940046
17.982382
18.024717
18.067052
18.109386
18.15172
18.194053
18.236385
18.278717
18.321048
18.363379
18.405708
18.448037
18.490365
18.532693
18.575019
18.617345
18.65967
18.701994
18.744317
18.786639
18.82896
18.87128
18.913599
18.955918
18.998235
19.040551
19.082866
19.12518
19.167492
19.209804
19.252114
19.294422
19.33673
19.379034
19.421338
19.463638
19.505937
19.548232
19.590524
19.632812
19.675095
19.717374
19.75965
19.801921
19.84419
19.886459
19.92873
19.971007
20.013293
20.05559
20.097901
20.140228
20.18257
20.224922
20.26728
20.309641
20.351986
20.394313
20.436607
20.478865
20.521093
20.563297
20.605505
20.64773
20.689983
20.732272
20.774592
20.816931
20.859279
20.901608
20.943901
20.986149
21.028357
21.070569
21.112803
21.155069
21.19737
21.239693
21.282022
21.324335
21.366613
21.408835
21.451058
21.493298
21.535568
21.577868
21.620183
21.662501
21.704792
21.74703
21.789268
21.831522
21.8738
21.916099
21.958405
22.000709
22.042973
22.08523
22.127495
22.169775
22.212067
22.254365
22.296662
22.338939
22.381214
22.423494
22.465782
22.508076
22.550373
22.592666
22.634954
22.677243
22.719534
22.76183
22.804127
22.846426
22.888722
22.931017
22.973312
23.015608
23.057902
23.100196
23.142484
23.184769
23.227048
23.269321
23.311586
23.353843
23.396089
23.438325
23.48055
23.522765
23.56497
23.607164
23.64935
23.691527
23.733696
23.775857
23.81801
23.860157
23.902298
23.944438
23.98658
24.028728
24.070886
24.113058
24.155243
24.197442
24.239652
24.28187
24.324093
24.366318
24.408545
24.450772
24.493001
24.535234
24.577476
24.619727
24.66199
24.704263
24.746547
24.788839
24.831137
24.873442
24.915754
24.958071
25.000394
25.042723
25.085056
25.127393
25.169734
25.212076
25.254421
25.296768
25.339117
25.381469
25.423823
25.466179
25.508537
25.550895
25.593252
25.635609
25.677964
25.720319
25.762674
25.805031
25.84739
25.889752
25.932117
25.974483
26.016851
26.059218
26.101582
26.143943
26.186301
26.228657
26.271014
26.313372
26.355735
26.398103
26.440477
26.482855
26.525234
26.56761
26.60998
26.652342
26.694696
26.737044
26.779391
26.821741
26.864099
26.906468
26.948847
26.991233
27.03362
27.076001
27.118367
27.160716
27.20305
27.245374
27.287696
27.330028
27.372378
27.41475
27.457141
27.499543
27.54194
27.584318
27.626666
27.668978
27.711261
27.753528
27.795805
27.838113
27.880471
27.922877
27.965315
28.007757
28.05018
28.092566
28.134896
28.177154
28.219348
28.261588
28.304154
28.347705
28.394098
28.434928
28.47299
28.515297
28.559336
28.602063
28.644974
28.688208
28.731334
28.774306
28.817258
28.860169
28.903025
28.94585
28.988651
29.031429
29.074181
29.116902
29.159584
29.202222
29.244814
29.287362
29.329874
29.372357
29.41482
29.457271
29.499716
29.542158
29.584597
29.627032
29.669461
29.711884
29.754298
29.796706
29.839107
29.881504
29.9239
29.966295
30.008693
30.051092
30.093494
30.135898
30.178301
30.220696
30.263085
30.305491
30.347907
30.390303
30.432699
30.475098
30.517499
30.559899
30.602301
30.644705
30.687109
30.729513
30.771917
30.814321
30.856725
30.899129
30.941533
30.983938
31.026343
31.06875
31.111156
31.153564
31.195972
31.23838
31.280789
31.323198
31.365607
31.408017
31.450427
31.492838
31.535249
31.577661
31.620073
31.662486
31.704899
31.747313
31.789728
31.832143
31.874558
31.916973
31.959389
32.001806
32.044222
32.08664
32.129058
32.171476
32.213895
32.256315
32.298735
32.341155
32.383576
32.425997
32.468419
32.510841
32.553263
32.595686
32.638109
32.680533
32.722957
32.765381
32.807806
32.850231
32.892657
32.935083
32.977509
33.019935
33.062362
33.104789
33.147216
33.189644
33.232071
33.274499
33.316927
33.359355
33.401784
33.444212
33.486641
33.52907
33.571498
33.613927
33.656356
33.698785
33.741213
33.783642
33.82607
33.868499
33.910927
33.953355
33.995783
34.038211
34.080638
34.123066
34.165493
34.207919
34.250346
34.292772
34.335197
34.377623
34.420048
34.462472
34.504896
34.54732
34.589743
34.632166
34.674588
34.71701
34.759432
34.801852
34.844273
34.886693
34.929112
34.971531
35.013949
35.056367
35.098785
35.141202
35.183619
35.226035
35.268451
35.310866
35.353281
35.395696
35.43811
35.480524
35.522938
35.565352
35.607765
35.650178
35.692591
35.735003
35.777416
35.819828
35.86224
35.904652
35.947064
35.989475
36.031887
36.074299
36.11671
36.159122
36.201534
36.243945
36.286357
36.328769
36.371181
36.413593