/*--------------------------------*- C++ -*----------------------------------*\
  =========                 |
  \\      /  F ield         | OpenFOAM: The Open Source CFD Toolbox
   \\    /   O peration     | Website:  https://openfoam.org
    \\  /    A nd           | Version:  7
     \\/     M anipulation  |
\*---------------------------------------------------------------------------*/
FoamFile
{
    version     2.0;
    format      ascii;
    class       volScalarField;
    location    "0.00227";
    object      Uy;
}
// * * * * * * * * * * * * * * * * * * * * * * * * * * * * * * * * * * * * * //

dimensions      [0 1 -1 0 0 0 0];

internalField   nonuniform List<scalar> 
5000
(
4.0394912e-17
4.1248218e-17
0
0
-2.1716935e-17
2.4698847e-32
2.1733148e-17
0
0
-2.174541e-17
-4.3494963e-17
2.1749127e-17
2.1749625e-17
-2.1749825e-17
0
-2.1748115e-17
1.9941748e-49
2.1744595e-17
0
2.1739782e-17
-2.1736817e-17
-2.1734008e-17
4.346132e-17
-2.1727578e-17
-2.1723965e-17
-1.7902814e-31
2.1716873e-17
2.171342e-17
-4.3418994e-17
3.7632103e-31
-3.7933542e-31
2.1698275e-17
4.3388393e-17
-4.3381016e-17
3.7598233e-31
-1.8857529e-30
-7.5169326e-31
4.3349725e-17
-4.3341494e-17
-4.3334089e-17
4.3325864e-17
-1.4897335e-30
-4.3310229e-17
2.1651408e-17
6.4941865e-17
-2.1643579e-17
-2.1639458e-17
-1.4819693e-30
-4.3263266e-17
0
2.1623817e-17
3.0724036e-33
-2.1616007e-17
4.3224617e-17
-7.5539456e-31
-4.3209001e-17
2.1600392e-17
-7.4578536e-31
-2.1592596e-17
0
2.1584812e-17
7.3604711e-31
6.1325617e-33
2.157335e-17
-2.1569249e-17
7.5390403e-31
2.1561456e-17
-2.1557764e-17
-2.155366e-17
2.1549974e-17
2.1545879e-17
-2.1542207e-17
-2.1538128e-17
4.3068945e-17
2.1530408e-17
-2.1526764e-17
0
2.151906e-17
-3.0574643e-33
-2.1511334e-17
2.150725e-17
-6.1116837e-33
6.1105194e-33
2.1495799e-17
2.1491705e-17
7.4814023e-31
-2.1483959e-17
0
-2.1476246e-17
-2.2275513e-30
-7.5051198e-31
2.1464862e-17
2.1460752e-17
-4.2914059e-17
-1.4846845e-30
2.1449048e-17
0
0
-2.1436454e-17
-1.4863142e-30
4.2855642e-17
-2.1423589e-17
-4.2837728e-17
0
2.1409715e-17
2.1405376e-17
-2.1400706e-17
-2.1396615e-17
0
0
2.1385114e-17
2.1382289e-17
0
-2.1377495e-17
7.4726024e-31
2.137433e-17
-2.1373039e-17
6.0744039e-33
-7.471202e-31
5.2821081e-50
4.2740457e-17
-9.1104439e-33
-2.1368544e-17
0
-2.1365996e-17
2.1364537e-17
2.136238e-17
-4.2720763e-17
-2.1357707e-17
4.2710457e-17
2.1352118e-17
-2.1349254e-17
-2.1345811e-17
-2.1342668e-17
0
2.133568e-17
2.1331881e-17
-2.1328474e-17
-7.3942014e-31
2.1321176e-17
-2.1317296e-17
-2.1313835e-17
0
2.1306446e-17
2.1302517e-17
-2.1299005e-17
2.129506e-17
-1.2102843e-32
-2.1287611e-17
2.128412e-17
-2.1280212e-17
1.4815676e-30
2.1272852e-17
-2.1269384e-17
2.1265478e-17
2.1261989e-17
-2.1258059e-17
0
0
-2.1247123e-17
-2.1243204e-17
2.1239737e-17
2.1235851e-17
-2.1232407e-17
-1.4721776e-30
2.1225101e-17
-2.1221234e-17
-2.1217782e-17
0
2.1210433e-17
2.1206526e-17
0
-2.1199176e-17
-2.1195746e-17
0
2.1188433e-17
4.4073866e-30
-2.1181113e-17
2.1177286e-17
2.1173765e-17
-2.1169971e-17
-1.4618524e-30
1.4555789e-30
9.0206506e-33
2.1155369e-17
-2.1151763e-17
-2.9331997e-30
1.4543298e-30
-1.4540801e-30
2.1137232e-17
0
0
-2.112632e-17
-2.1122672e-17
0
0
2.1111829e-17
8.6559552e-50
-2.1104628e-17
0
2.1097418e-17
-2.1093792e-17
-5.8443347e-30
4.2173081e-17
-2.108292e-17
-4.3764925e-30
-2.9950322e-33
-2.1072038e-17
2.1068441e-17
-2.9934928e-33
-2.9151666e-30
1.4573345e-30
-2.1054087e-17
0
2.1046911e-17
1.456341e-30
5.839319e-30
2.1036094e-17
0
-2.1028879e-17
-2.1025284e-17
0
0
0
2.1010886e-17
1.4538476e-30
-2.1003685e-17
0
0
2.0992838e-17
2.0989212e-17
-2.0985556e-17
-2.0981897e-17
0
2.097452e-17
2.0970809e-17
-2.0967087e-17
-2.096335e-17
0
2.0955835e-17
-5.8179693e-30
-1.4527413e-30
2.0944487e-17
-2.0940709e-17
-2.0936941e-17
0
2.0929491e-17
-2.9083173e-30
2.0922224e-17
2.90138e-30
-4.1830493e-17
2.0911907e-17
-2.8999902e-30
-7.2578138e-30
-1.4466037e-30
-2.089978e-17
2.0897086e-17
2.0894539e-17
0
-2.0889838e-17
-2.0887669e-17
0
2.0883657e-17
2.0881782e-17
-4.1759914e-17
-2.0878179e-17
2.087641e-17
2.0874649e-17
5.7900456e-30
-2.0871047e-17
2.0869177e-17
-1.4471226e-30
-2.0865251e-17
2.0863172e-17
-1.449653e-30
1.4524597e-30
-5.9277324e-33
-1.4402688e-30
2.085132e-17
0
0
-2.0843092e-17
-2.0840181e-17
0
0
0
0
2.0824704e-17
1.4350701e-30
-4.1636378e-17
8.8739158e-33
2.0811545e-17
2.0808181e-17
-2.8885406e-30
-2.8821575e-30
-2.9555773e-33
-2.0794628e-17
-2.0791239e-17
-2.0787841e-17
4.1568894e-17
6.2343108e-17
-2.077762e-17
-4.1548367e-17
0
2.0767292e-17
2.0763849e-17
-2.0760407e-17
5.89949e-33
-8.847779e-33
5.8975543e-33
2.0746778e-17
2.0743392e-17
-2.0739994e-17
-4.1473195e-17
2.0733186e-17
8.1474423e-50
2.0726355e-17
5.7425686e-30
-4.1439039e-17
0
0
4.1418589e-17
-1.1499227e-29
-4.1404999e-17
0
2.0695729e-17
2.0692349e-17
-2.0688979e-17
2.9396009e-33
-2.8715219e-30
2.9386409e-33
2.0675466e-17
-2.0672073e-17
-2.0668686e-17
0
2.0661905e-17
-2.8682291e-30
-2.0655134e-17
4.1303496e-17
-5.7277735e-30
-2.0644989e-17
-5.731766e-30
-4.1276471e-17
4.1269731e-17
2.063149e-17
-2.0628127e-17
-2.9309547e-33
-2.0621407e-17
0
0
2.0611351e-17
-2.8582884e-30
-4.1209317e-17
2.9276231e-33
6.1793893e-17
-2.0594621e-17
-2.0591269e-17
4.1175849e-17
-2.0584571e-17
2.0581225e-17
4.1155739e-17
-2.0574522e-17
-2.0571165e-17
-2.0567818e-17
2.0564465e-17
1.5949892e-49
-2.0557775e-17
2.0554438e-17
-2.0551092e-17
2.0547754e-17
5.693094e-30
5.8381201e-33
2.05377e-17
-4.1068686e-17
2.0530971e-17
5.7001062e-30
-5.6933326e-30
-2.0520831e-17
-4.1034868e-17
6.1542125e-17
5.6895662e-30
-1.1377247e-29
5.6818495e-30
-4.100084e-17
4.0993999e-17
-5.6848363e-30
-4.098032e-17
0
0
2.0479922e-17
-2.8400516e-30
-2.0473148e-17
-2.0469784e-17
2.0466452e-17
6.1389418e-17
-2.0459866e-17
-2.0456626e-17
-5.813216e-33
-2.0450294e-17
0
4.0888391e-17
4.0882496e-17
-2.0438369e-17
-4.0871125e-17
-2.0432826e-17
4.0860321e-17
4.0855127e-17
-4.085007e-17
-4.0845146e-17
0
4.0835694e-17
-2.0415577e-17
-4.0826729e-17
2.0411204e-17
2.0409088e-17
-2.9000105e-33
2.8330257e-30
2.0402931e-17
-2.0400912e-17
-2.0398895e-17
2.0396871e-17
-2.8287214e-30
-2.8979876e-33
-2.8281468e-30
-2.0388575e-17
2.0386425e-17
-8.490445e-30
-2.8298387e-30
-5.6561497e-30
-2.037741e-17
2.037504e-17
-2.8285353e-30
-5.6476994e-30
-2.8944123e-33
-4.0730067e-17
-2.0362397e-17
2.0359708e-17
4.0713939e-17
-2.8259763e-30
-4.0702725e-17
-2.0348501e-17
4.0691212e-17
2.034268e-17
-2.0339724e-17
-2.0336741e-17
-5.6433829e-30
2.0330698e-17
0
0
2.0321478e-17
0
-2.0315258e-17
2.0312133e-17
2.8860822e-33
-5.6356465e-30
0
-2.0299552e-17
2.0296392e-17
2.0293228e-17
-4.058012e-17
-2.028689e-17
2.0283719e-17
0
0
-2.0274204e-17
5.6317434e-30
2.0267865e-17
0
0
-2.0258367e-17
8.4395785e-30
2.0252038e-17
0
0
0
0
0
0
0
0
4.0447189e-17
1.1223884e-29
-2.0217302e-17
2.0214159e-17
-2.0211018e-17
2.0207877e-17
-5.6161954e-30
-2.0201592e-17
-5.6087068e-30
-2.0195302e-17
0
0
2.0185875e-17
5.6043449e-30
-2.0179605e-17
0
0
0
0
0
0
0
4.0309194e-17
-1.6775543e-29
-4.0296738e-17
2.0145253e-17
2.8623697e-33
2.0139017e-17
-1.1165508e-29
-4.0265559e-17
-2.0129663e-17
-7.2210013e-50
6.0370306e-17
0
-4.0234426e-17
0
0
4.0215764e-17
-5.5769812e-30
-6.030499e-17
2.0098553e-17
2.009544e-17
-2.0092323e-17
2.00892e-17
-2.0086072e-17
-5.5709249e-30
2.0079803e-17
-2.0076664e-17
0
-2.0070377e-17
2.0067227e-17
4.0128144e-17
-2.006091e-17
-2.0057741e-17
-2.0054566e-17
-2.0051386e-17
4.0096409e-17
2.0045023e-17
-2.0041845e-17
0
2.0035506e-17
-2.0032348e-17
-2.0029199e-17
6.0078186e-17
5.6908611e-33
-4.0039657e-17
2.0016739e-17
2.7786992e-30
2.0010631e-17
-5.6865076e-33
-4.0009285e-17
2.0001702e-17
0
-5.5524747e-30
-2.8411939e-33
-1.9990355e-17
1.9987633e-17
-5.5494253e-30
-2.7715085e-30
-2.8392943e-33
-1.9977232e-17
1.9974757e-17
3.9234006e-50
-5.5452615e-30
-2.8375728e-33
-3.9930746e-17
-2.7688478e-30
1.9960969e-17
0
0
-1.9954638e-17
-8.3021453e-30
1.9950539e-17
-1.9948511e-17
2.7693718e-30
8.3151693e-50
-2.7688121e-30
1.9940442e-17
1.9938419e-17
2.7651357e-30
-1.9934338e-17
0
0
1.9928066e-17
-1.9925921e-17
1.6585958e-29
1.9921541e-17
-1.9919306e-17
0
1.991474e-17
1.9912405e-17
-1.9910035e-17
-1.9907627e-17
0
1.9902697e-17
1.9900177e-17
-3.9795246e-17
-1.9895037e-17
1.989242e-17
1.9889776e-17
2.7583004e-30
1.9884407e-17
5.5207486e-30
-3.9757885e-17
0
0
0
1.9867766e-17
1.9864928e-17
0
-1.9859214e-17
-2.751212e-30
1.985346e-17
0
0
-1.984477e-17
-2.7520251e-30
2.7488015e-30
-1.9836025e-17
1.9833102e-17
-8.2512139e-30
-1.9827247e-17
0
-1.9821381e-17
-2.7515942e-30
1.9815513e-17
-1.981258e-17
1.9809647e-17
1.9806715e-17
-1.9803783e-17
0
1.9797914e-17
1.9794979e-17
-1.9792045e-17
-1.9789112e-17
0
-1.9783253e-17
1.9780327e-17
1.9777401e-17
-1.9774475e-17
-3.9543098e-17
1.0978706e-29
5.9297089e-17
6.6223585e-50
-1.9759845e-17
-3.9513845e-17
1.0959358e-29
3.950217e-17
-1.9748171e-17
1.974526e-17
-1.974235e-17
-1.9739439e-17
3.9473052e-17
0
0
-3.9455544e-17
-5.3079206e-49
3.9443857e-17
0
0
-3.9426335e-17
-5.3085632e-49
3.9414659e-17
0
0
-3.9397159e-17
-1.9695665e-17
3.9385499e-17
1.9689834e-17
0
-3.9368e-17
1.0930089e-29
3.9356319e-17
-1.9675237e-17
0
1.9669388e-17
-1.9666463e-17
2.7943568e-33
1.9660614e-17
-1.9657693e-17
1.9654775e-17
1.9651861e-17
-1.9648952e-17
-1.9646048e-17
5.4545117e-30
1.9640258e-17
-1.9637373e-17
-5.4521098e-30
1.9631638e-17
-1.962879e-17
1.9625958e-17
1.9623143e-17
-1.9620346e-17
-1.9617568e-17
5.4466423e-30
1.9612073e-17
-1.960936e-17
2.7862758e-33
1.9604013e-17
-1.9601381e-17
1.959878e-17
1.9596208e-17
-1.9593668e-17
-3.9182319e-17
1.0884343e-29
3.917248e-17
-1.958383e-17
2.7826918e-33
3.9158216e-17
5.56406e-33
-1.9574515e-17
0
1.9570047e-17
0
-1.9565696e-17
0
0
0
-1.9557281e-17
-2.5748231e-50
1.9553184e-17
0
1.9549136e-17
-5.4278471e-30
-1.9545114e-17
0
0
0
-1.9537076e-17
5.4244961e-30
1.9533024e-17
0
1.9528923e-17
5.4194422e-30
-1.9524757e-17
0
1.9520519e-17
-1.951837e-17
1.0844067e-29
1.9514006e-17
-1.9511788e-17
0
-1.9507283e-17
-5.4161496e-30
1.950269e-17
0
1.9498007e-17
-1.9495631e-17
-1.0825764e-29
1.9490805e-17
-1.0820289e-29
-2.7691118e-33
5.412923e-30
-2.768403e-33
-1.9478385e-17
0
1.94733e-17
-5.4038685e-30
-5.4031528e-30
5.2852924e-50
-5.404477e-30
0
-3.8915441e-17
-5.4022896e-30
1.9452438e-17
-1.9449786e-17
5.3973173e-30
1.9444469e-17
1.9441806e-17
5.3978622e-30
-5.3971203e-30
1.9433791e-17
-1.9431111e-17
-1.9428428e-17
0
-1.9423057e-17
5.3926496e-30
1.9417676e-17
0
0
0
-3.881382e-17
2.1552665e-29
3.8803062e-17
0
0
0
0
0
0
0
-3.8760156e-17
1.0766938e-29
3.8749421e-17
1.9372052e-17
-1.936941e-17
-1.9366765e-17
5.3797765e-30
1.0741548e-29
1.9358702e-17
-1.9356024e-17
1.9353392e-17
1.9350799e-17
-1.9348203e-17
-1.9345557e-17
1.0736749e-29
1.9340103e-17
1.9337397e-17
-5.363389e-30
-1.9332252e-17
-1.9329738e-17
1.9327147e-17
1.9324432e-17
-1.9321629e-17
1.9318847e-17
0
-1.9313711e-17
-1.9311312e-17
5.3561954e-30
1.9306201e-17
-1.9303361e-17
1.9300453e-17
1.9297653e-17
-1.9295084e-17
1.9292731e-17
5.3565735e-30
-1.9288032e-17
-1.9285342e-17
-2.7401926e-33
3.8558715e-17
1.0702655e-29
-1.9273942e-17
-1.9271676e-17
0
1.9267173e-17
0
0
0
1.9255529e-17
1.9252801e-17
-1.9250403e-17
-1.9248231e-17
0
1.9243699e-17
-5.3455933e-30
-1.9238181e-17
0
0
1.9229509e-17
-1.0672403e-29
-1.9224502e-17
0
0
1.9217743e-17
-1.0666036e-29
-1.9213029e-17
0
1.9207591e-17
-5.3327289e-30
5.3291379e-30
-5.3310309e-30
-1.9195786e-17
0
-1.9191932e-17
1.0649548e-29
1.9189365e-17
0
1.9185081e-17
-1.9182135e-17
-1.9178932e-17
3.8351366e-17
5.3292882e-30
-3.8339389e-17
5.3223424e-30
1.9165057e-17
0
0
1.9160895e-17
-5.3175863e-30
-1.9158683e-17
0
1.9155394e-17
-1.9153199e-17
-1.9150741e-17
1.9148168e-17
0
-1.9143325e-17
1.9141203e-17
1.0623688e-29
-1.0622485e-29
1.9134552e-17
-1.5932162e-29
1.9129049e-17
-1.9126388e-17
5.3076372e-30
-1.0619512e-29
-3.8239449e-17
5.3030955e-30
1.9114863e-17
0
0
0
-3.8207943e-17
-1.9101323e-17
3.8197103e-17
1.9095644e-17
0
0
1.9087067e-17
5.9005536e-50
-1.9081667e-17
0
-3.8150886e-17
-1.9071908e-17
3.8136448e-17
1.9064543e-17
0
-3.8115152e-17
-5.4155536e-33
5.7152992e-17
-5.283719e-30
-3.8087812e-17
1.9039941e-17
1.0820551e-32
-1.9031326e-17
5.2860941e-30
1.0553528e-29
1.9018143e-17
0
1.9009076e-17
-1.0551411e-29
-3.799741e-17
1.8993043e-17
-3.1612818e-29
-1.898177e-17
3.7953057e-17
-2.6960184e-33
-1.8966595e-17
0
0
0
-1.8943438e-17
1.8937046e-17
3.7861534e-17
-1.8924649e-17
-5.2533173e-30
-5.2462264e-30
-1.8905922e-17
0
1.8891703e-17
-2.6836016e-33
-3.7753247e-17
1.8869252e-17
1.0464543e-29
-1.8855088e-17
-1.8847973e-17
1.0468632e-29
3.766516e-17
0
1.8815246e-17
1.8806158e-17
0
-1.8788055e-17
-1.8779214e-17
1.8770476e-17
0
-1.875278e-17
0
0
1.8723069e-17
-1.5582473e-29
-1.8700421e-17
0
0
1.8667207e-17
1.8656923e-17
-1.8646788e-17
-1.8636592e-17
1.8625855e-17
1.8614194e-17
-3.7203324e-17
-1.8588595e-17
5.1606654e-30
1.8562518e-17
-1.0291392e-29
-1.0284576e-29
1.8525279e-17
-1.8512283e-17
1.8498506e-17
-1.8483978e-17
-1.5747596e-32
1.8453912e-17
-3.6878287e-17
-1.8424784e-17
-1.8410648e-17
3.67931e-17
3.6764491e-17
-1.8367258e-17
1.8351302e-17
-1.8334431e-17
1.0172479e-29
3.6598297e-17
-1.8281617e-17
5.0691022e-30
-5.0696427e-30
-1.8231249e-17
0
0
1.8179317e-17
1.8159742e-17
0
-1.8119096e-17
-1.8099124e-17
0
-1.8060399e-17
5.0097208e-30
1.8022041e-17
-1.8001737e-17
4.9876282e-30
1.7957797e-17
0
1.7912725e-17
9.9331427e-30
-1.7868413e-17
1.7846306e-17
-4.9417531e-30
-1.780074e-17
-1.777651e-17
-4.9267204e-30
1.7726102e-17
0
-1.7675004e-17
1.7649437e-17
-5.0089575e-33
9.7731052e-30
1.7571681e-17
-1.7545396e-17
0
-3.4983688e-17
3.8775409e-29
1.7435144e-17
9.6614239e-30
3.4751544e-17
-3.4691752e-17
-3.4631949e-17
3.4572675e-17
3.4513871e-17
1.7227072e-17
0
-1.7164525e-17
-3.4264315e-17
2.4299602e-33
-1.706626e-17
1.7033286e-17
1.7000456e-17
-1.6967271e-17
3.3866487e-17
-3.3796715e-17
-2.8085189e-29
3.3653391e-17
-3.3580509e-17
9.2996134e-30
-1.6717381e-17
1.6680878e-17
1.664399e-17
-1.6606634e-17
-4.5960977e-30
-3.3060547e-17
3.2982685e-17
3.2903825e-17
-3.2823802e-17
-4.5436365e-30
-1.6329782e-17
9.0454654e-30
1.6244986e-17
4.4969148e-30
7.6984535e-48
1.6120414e-17
3.2157463e-17
-1.6036058e-17
-1.8863348e-47
-1.5947146e-17
-2.6488356e-29
1.58551e-17
-3.1617753e-17
8.7493621e-30
3.1431057e-17
2.2417082e-48
-1.5620488e-17
0
0
-1.5475059e-17
1.5425402e-17
3.0749874e-17
0
0
0
-1.5168809e-17
-1.5116785e-17
0
1.5012564e-17
-1.4960163e-17
-2.4828123e-29
2.9706973e-17
0
0
0
-1.4629836e-17
-1.4571776e-17
1.4513943e-17
-1.4456759e-17
-7.9971331e-30
2.8685538e-17
0
0
-2.8331336e-17
4.0086953e-33
1.4042506e-17
-1.3980565e-17
1.3918779e-17
-1.3857481e-17
7.6621736e-30
2.7472432e-17
0
0
-1.3551263e-17
-1.3487414e-17
0
0
1.3290398e-17
1.3224306e-17
0
-1.3092974e-17
-1.3027625e-17
1.2962217e-17
-1.2896523e-17
-1.283039e-17
1.2763787e-17
1.269671e-17
-7.0137266e-30
-1.2561165e-17
1.2492788e-17
3.4481289e-30
-1.2354795e-17
0
-1.2215508e-17
6.7433943e-30
1.2075318e-17
-1.2005255e-17
6.6267646e-30
1.1865787e-17
0
-1.1726295e-17
3.2366017e-30
1.6463237e-33
-1.1514028e-17
1.1443359e-17
1.1372852e-17
0
-2.2462611e-17
1.2395496e-29
1.1087993e-17
1.5655004e-33
2.189036e-17
-2.1749455e-17
-2.160854e-17
2.1466716e-17
1.0661865e-17
0
-2.1035402e-17
1.7392115e-29
2.0750469e-17
0
-2.0468151e-17
-5.6441858e-30
1.0091847e-17
2.7824783e-30
1.9898556e-17
-1.9757127e-17
-2.4497806e-29
1.9475481e-17
-1.9334446e-17
5.3256065e-30
1.9054134e-17
9.458124e-18
-1.8778875e-17
-9.3202886e-18
1.8501234e-17
-1.8361428e-17
-2.2756298e-29
1.8083461e-17
-1.7947109e-17
2.4730768e-30
-8.8393278e-18
9.7338952e-30
2.6117255e-17
-4.7953742e-30
-1.7146499e-17
8.5081285e-18
1.6886039e-17
-8.3773741e-18
4.6145923e-30
-8.2452861e-18
-9.0854062e-30
8.1151194e-18
-1.6103394e-17
6.6530177e-30
-8.8013184e-30
4.3635279e-30
7.8035681e-18
0
7.6826304e-18
7.6234328e-18
0
0
0
0
0
-7.2678792e-18
-7.2114004e-18
0
7.1008636e-18
-7.0462032e-18
-1.1646864e-29
1.3876118e-17
0
0
0
-6.7288e-18
-6.6760774e-18
6.6239109e-18
6.5728319e-18
-1.3046627e-17
-1.0788642e-29
1.2857386e-17
0
-1.2671437e-17
-1.0476289e-29
6.2431257e-18
-6.1986454e-18
6.1552708e-18
-6.1118428e-18
-3.3680019e-30
1.204634e-17
0
0
-5.8954128e-18
-5.8567023e-18
0
-5.7828805e-18
-1.6329639e-33
-5.7072785e-18
5.668836e-18
1.6892509e-17
0
1.1118973e-17
1.105175e-17
0
-1.6375975e-17
-1.0850374e-17
1.0784087e-17
-5.3600529e-18
-5.3297299e-18
1.5901829e-17
5.2718185e-18
7.450578e-34
5.2138576e-18
-5.1849048e-18
-5.1565193e-18
-5.1296043e-18
-1.1863627e-48
-5.0795644e-18
-5.0548068e-18
5.0298851e-18
0
9.9605847e-18
9.9133481e-18
0
-4.9141918e-18
-9.787969e-18
-2.7044702e-30
-4.8526828e-18
-9.6634276e-18
9.6223061e-18
9.5839102e-18
4.7743198e-18
4.7574707e-18
0
-4.7237936e-18
-1.4120293e-17
4.6898401e-18
7.7324657e-47
-1.3979662e-17
9.2937446e-18
4.6339222e-18
4.6205009e-18
9.213396e-18
-9.1855663e-18
-4.5794205e-18
4.5675263e-18
4.5570356e-18
4.5470503e-18
-1.3610915e-17
-4.5266695e-18
1.3548586e-17
4.5059294e-18
-4.4964963e-18
-8.9758716e-18
4.4798085e-18
-4.4719747e-18
7.4330275e-30
-7.4233685e-30
-1.3350152e-17
4.4434606e-18
4.4373798e-18
8.8633413e-18
4.4263354e-18
-8.8424918e-18
-1.255172e-33
-4.4113687e-18
4.4066079e-18
1.3206163e-17
-1.3193477e-17
-4.3939345e-18
1.3171229e-17
0
-1.315258e-17
-4.3815305e-18
1.313758e-17
-4.3771536e-18
-8.7505483e-18
-2.4275936e-30
4.8525488e-30
4.3699444e-18
0
8.7353094e-18
8.7338067e-18
-4.366115e-18
-4.3652527e-18
-8.7290288e-18
4.3641018e-18
4.3640445e-18
-8.7282357e-18
0
8.7279829e-18
8.7278666e-18
-4.3641094e-18
-8.7291993e-18
2.4230571e-30
4.3659641e-18
-8.7333382e-18
4.3673855e-18
-1.4547757e-29
-8.7377873e-18
4.369812e-18
0
8.7436331e-18
0
-9.7130087e-30
-4.3752051e-18
-8.7526907e-18
1.313239e-17
-1.2444736e-33
-8.7595823e-18
0
8.7643921e-18
4.383385e-18
-8.7690588e-18
4.8693706e-30
4.3868196e-18
-8.7760883e-18
4.3893257e-18
-7.3101139e-30
-8.7836802e-18
4.3930058e-18
-4.3940827e-18
8.7901646e-18
1.3188119e-17
0
-1.3193776e-17
-8.7977067e-18
1.3199213e-17
8.8010788e-18
-4.4012252e-18
-8.8036037e-18
4.4023007e-18
4.4027706e-18
-8.8065076e-18
4.4037714e-18
8.8086303e-18
-4.4048538e-18
6.2603896e-34
-8.8116045e-18
-8.812349e-18
1.3219418e-17
-4.4066985e-18
-7.3396637e-30
1.3220791e-17
0
-1.3220544e-17
-8.8133615e-18
4.406464e-18
4.4062311e-18
4.4059902e-18
0
4.4053766e-18
-2.4450786e-30
-8.8087997e-18
2.4437955e-30
4.4030757e-18
0
4.4016947e-18
-8.8019237e-18
-1.320046e-17
8.7984786e-18
1.3194623e-17
4.3970771e-18
-4.3958836e-18
-8.7893092e-18
4.3934007e-18
-4.392116e-18
-4.3907837e-18
8.7787726e-18
-8.7758337e-18
-4.3863783e-18
1.3154335e-17
8.7662516e-18
-4.3814289e-18
-1.3139079e-17
9.720307e-30
-9.7162486e-30
-4.3741847e-18
-4.8537887e-30
-4.3700874e-18
4.3679094e-18
4.3656628e-18
4.3633434e-18
-4.3609403e-18
-4.3584615e-18
1.3067817e-17
-4.3534138e-18
-8.7018087e-18
1.3045148e-17
1.2351495e-33
-4.3431176e-18
8.6807722e-18
4.3376882e-18
0
-4.3324648e-18
-4.3296877e-18
-8.6534182e-18
4.3236541e-18
-1.438989e-29
-1.2953863e-17
4.3152736e-18
4.3123338e-18
4.3090612e-18
-4.3056357e-18
-4.3023122e-18
1.2898006e-17
-4.2966372e-18
-8.5875485e-18
-7.1458056e-30
-4.2867973e-18
8.5662012e-18
1.2838925e-17
2.3732076e-30
-2.3722152e-30
-6.0689064e-34
-4.2672157e-18
-8.527184e-18
-4.2599151e-18
1.2768946e-17
-4.7212819e-30
-8.4987696e-18
0
0
4.2387902e-18
-2.35092e-30
2.3484729e-30
4.2287712e-18
-8.4510557e-18
-4.2220991e-18
-4.6818333e-30
4.2143073e-18
1.2629919e-17
4.205543e-18
0
0
0
-1.2573444e-17
-8.3760511e-18
1.2553235e-17
-4.6420983e-30
-8.3527054e-18
0
0
8.3301459e-18
-9.2393036e-30
-4.6139836e-30
8.3061056e-18
-4.1488678e-18
-8.2895418e-18
-8.281484e-18
4.136699e-18
1.2397821e-17
4.1285581e-18
0
0
0
-1.2343224e-17
-8.2206377e-18
1.2317725e-17
-9.1063833e-30
-4.0970716e-18
5.8164967e-34
-4.0891281e-18
8.170547e-18
-4.5308087e-30
-4.0770447e-18
8.1454424e-18
0
-2.2564148e-30
-8.1195743e-18
-8.1114456e-18
1.2155527e-17
8.0961492e-18
-4.0442855e-18
-2.2421388e-30
4.0362977e-18
-1.2096316e-17
-8.055709e-18
4.0235803e-18
4.0192995e-18
-4.0150223e-18
-4.0107641e-18
4.0065414e-18
4.002355e-18
-2.2192946e-30
2.2163987e-30
3.9897525e-18
0
3.981268e-18
-7.9543007e-18
-1.1919516e-17
7.9384334e-18
7.9302499e-18
3.9608662e-18
-4.3917672e-30
-7.9043071e-18
3.9478592e-18
-3.9436458e-18
-3.9394728e-18
7.8705371e-18
-7.8619814e-18
-3.9266441e-18
3.9222591e-18
7.8357464e-18
3.913516e-18
-7.8184032e-18
2.1664264e-30
-3.9007114e-18
-3.8964946e-18
1.1676752e-17
-3.8879544e-18
-3.8835936e-18
1.1637533e-17
-5.5063184e-34
-1.1610784e-17
-3.8657924e-18
1.1583975e-17
-3.8568592e-18
-2.2918714e-47
-6.4065839e-30
-7.6869139e-18
7.677953e-18
7.6689753e-18
-3.829996e-18
4.2468918e-30
7.6420241e-18
-3.816507e-18
-1.1435927e-17
-3.8074187e-18
3.8028576e-18
0
3.7938099e-18
7.5785821e-18
-5.3783947e-34
-1.134023e-17
-3.7754601e-18
7.5418432e-18
-5.3524379e-34
-7.5238275e-18
7.5145404e-18
-6.249971e-30
-7.4959533e-18
1.1230618e-17
7.4783323e-18
0
0
-3.7250342e-18
-1.1160778e-17
-3.7157086e-18
1.1134227e-17
-4.1155342e-30
-7.4055192e-18
7.3961245e-18
7.3863716e-18
-3.6883264e-18
-7.3674135e-18
3.6794365e-18
3.6753242e-18
-1.1013112e-17
-3.6665083e-18
-6.0988807e-30
2.0289961e-30
3.6526148e-18
-3.6479917e-18
7.2865464e-18
1.0915385e-17
0
-1.0887487e-17
-7.2500334e-18
1.0863239e-17
-1.0280012e-33
-3.6124936e-18
7.2156003e-18
-3.6030867e-18
-3.5985723e-18
-3.9902978e-30
3.5903396e-18
7.1723908e-18
-3.5818408e-18
-7.1546724e-18
-7.1455111e-18
3.9622142e-30
3.5635802e-18
-3.5590259e-18
7.1090275e-18
1.0650249e-17
0
-1.0624999e-17
-7.0752608e-18
1.0600571e-17
-3.9190005e-30
-3.524817e-18
3.5203311e-18
3.5158791e-18
-1.9481644e-30
-7.014541e-18
1.9444544e-30
6.9974537e-18
-3.8786827e-30
-3.8736162e-30
-6.9702065e-18
-1.0441654e-17
6.9522808e-18
-3.8553129e-30
-1.154812e-29
3.4635177e-18
3.4591934e-18
6.9094857e-18
-1.0350638e-17
-3.4456884e-18
6.8824983e-18
-6.8738767e-18
-1.9512752e-33
1.0285479e-17
3.4241795e-18
-3.419756e-18
-1.0245762e-17
1.1360287e-29
6.8125619e-18
3.4019264e-18
-6.79534e-18
-1.0180313e-17
1.0167442e-17
3.3847673e-18
3.7516992e-30
3.3758261e-18
-6.7427443e-18
1.8689392e-30
-3.3627105e-18
3.3584722e-18
-1.1172975e-29
-1.0049691e-17
1.0036511e-17
1.0023179e-17
0
0
0
-3.3236756e-18
-9.9583843e-18
-3.3152015e-18
-3.6755632e-30
-3.3064615e-18
9.9060977e-18
3.2976345e-18
-3.2933113e-18
-3.2890747e-18
-3.2848858e-18
6.5613424e-18
-3.276385e-18
3.2720259e-18
-1.0882676e-29
-6.5264527e-18
9.7766468e-18
6.5092441e-18
0
-6.4925184e-18
-3.5991483e-30
3.2377182e-18
-9.6999918e-18
-3.2289174e-18
3.2245397e-18
0
0
3.2119203e-18
6.4154716e-18
-7.1126301e-30
-6.3981369e-18
-3.1946399e-18
3.1902305e-18
-3.1859029e-18
3.1816906e-18
2.1155162e-47
-5.2853616e-30
9.5075011e-18
0
0
-6.3118222e-18
-6.3030661e-18
-3.1472874e-18
3.4889478e-30
9.4172111e-18
-3.4810698e-30
-6.2610242e-18
0
6.2431232e-18
3.1171444e-18
-6.2257416e-18
3.1087542e-18
3.1046946e-18
-9.3016145e-18
3.0962114e-18
-1.029691e-29
-6.1744323e-18
9.2482501e-18
6.1568795e-18
0
0
0
-9.1858101e-18
-6.1149308e-18
9.158708e-18
6.0967652e-18
0
-6.0798221e-18
3.3703673e-30
3.0319326e-18
-6.055382e-18
3.0232223e-18
-3.0186258e-18
-3.0140541e-18
9.0289767e-18
-6.01107e-18
-6.0032452e-18
2.9976798e-18
-2.9934928e-18
5.9780635e-18
8.9532041e-18
0
-8.925967e-18
-5.9423477e-18
2.9672934e-18
2.9634345e-18
-3.2853005e-30
2.9548791e-18
-9.827184e-30
-2.9454826e-18
-1.6328644e-30
-7.6401932e-49
2.9328905e-18
0
2.9251219e-18
-5.8413286e-18
-8.7476439e-18
8.733099e-18
8.7191906e-18
0
-5.7967143e-18
-5.7892956e-18
5.7812964e-18
-2.8861815e-18
-2.8813435e-18
8.6292098e-18
-5.7433442e-18
-5.7347272e-18
2.8634899e-18
5.7195441e-18
2.8558021e-18
-8.5541203e-18
-2.8465492e-18
-4.7318846e-30
5.6736093e-18
1.6100451e-33
-8.4852811e-18
5.6492073e-18
8.4619917e-18
2.8163918e-18
-8.4350045e-18
-5.6132112e-18
8.4047629e-18
-6.2111065e-30
-5.5864681e-18
-2.7897156e-18
1.5462975e-30
5.5621909e-18
-3.0818758e-30
2.7711345e-18
2.7665825e-18
-8.2874089e-18
-2.7585206e-18
-3.057871e-30
5.500521e-18
-9.1450414e-30
-8.2237338e-18
5.4728159e-18
-3.0340689e-30
-3.0299359e-30
-6.0473753e-30
-2.7196937e-18
8.1473407e-18
-2.7113883e-18
-4.5064283e-30
-8.9983319e-30
-8.0916017e-18
2.6929137e-18
5.377835e-18
-2.9807298e-30
2.6808988e-18
2.6766957e-18
-5.3447965e-18
-5.3360614e-18
2.9566742e-30
7.9779598e-18
-2.9468598e-30
-2.6511928e-18
5.2946865e-18
-2.6433038e-18
-2.6389309e-18
1.4615158e-30
-1.4597746e-30
2.6257661e-18
-5.244237e-18
2.6185696e-18
-8.7094472e-30
-8.6934257e-30
7.8171259e-18
-5.2024539e-18
7.3813943e-34
5.186755e-18
-2.5898118e-18
-7.7581823e-18
-2.5820638e-18
7.7337842e-18
-2.8572677e-30
-2.5696665e-18
5.1313682e-18
-5.1236088e-18
-1.2781169e-29
2.5542889e-18
-2.5505493e-18
2.5465977e-18
-5.0848246e-18
2.5381655e-18
7.6023372e-18
0
0
-5.0472045e-18
-7.1612763e-34
5.0307101e-18
-2.5109863e-18
-7.5206334e-18
-2.5032696e-18
7.5000167e-18
7.0957762e-34
2.7674233e-30
4.977608e-18
-7.4541612e-18
-1.2393761e-29
2.4769725e-18
-2.4733355e-18
-2.4697271e-18
2.7391537e-30
2.4624793e-18
-4.917519e-18
4.9097142e-18
-8.1623578e-30
-4.893688e-18
7.3293839e-18
4.8794776e-18
-2.4364192e-18
-7.2983645e-18
-2.4287681e-18
2.424546e-18
0
-2.4166921e-18
2.4134229e-18
7.2308039e-18
1.3359371e-30
-4.8057552e-18
2.3988387e-18
2.3948653e-18
-4.7822053e-18
2.3875542e-18
-2.384082e-18
-4.7611001e-18
7.1308791e-18
-7.9042569e-30
5.261901e-30
4.731496e-18
-4.7236924e-18
-2.3580654e-18
-2.354589e-18
-2.6123229e-30
2.3478734e-18
-4.6881758e-18
4.6801551e-18
7.0082021e-18
0
-2.3288553e-18
1.2908885e-30
6.6000782e-34
-6.9556096e-18
-2.3147709e-18
6.9330326e-18
-2.3072623e-18
-1.9607838e-47
6.8992034e-18
-2.296144e-18
-6.8782882e-18
-2.2893132e-18
4.5710303e-18
-2.2814686e-18
2.2774502e-18
-7.5722306e-30
-4.5400216e-18
6.799347e-18
2.5134341e-30
-1.0034287e-29
4.5116242e-18
-4.504028e-18
-2.4956272e-30
2.2439571e-18
-4.4800914e-18
-2.2363636e-18
0
0
4.4505517e-18
-4.9322167e-30
-1.2605844e-33
-2.4577959e-30
-2.2100764e-18
-2.2060086e-18
2.2018431e-18
2.1977626e-18
-4.3877692e-18
4.3803627e-18
-2.4273234e-30
-4.3652983e-18
4.3574583e-18
7.2429879e-30
-2.4099164e-30
2.1668011e-18
-4.3255324e-18
2.1587041e-18
-4.7839887e-30
-4.3013085e-18
0
4.2851532e-18
2.1383851e-18
-4.2682778e-18
-2.1299108e-18
2.1257742e-18
-3.5338333e-30
-2.1178003e-18
0
0
4.2101636e-18
4.2016958e-18
0
-4.185178e-18
-2.0883966e-18
2.0841981e-18
-2.0800044e-18
2.0757304e-18
0
-4.1341126e-18
0
0
2.0543365e-18
-2.2755513e-30
-2.0452511e-18
0
2.0366956e-18
1.1281938e-30
-2.0283051e-18
0
4.039001e-18
4.029774e-18
-2.0103914e-18
-2.226841e-30
2.0020493e-18
-3.9958099e-18
-3.987316e-18
3.97862e-18
5.6412609e-34
4.3974444e-30
5.6156232e-34
-3.9429927e-18
1.9672577e-18
-2.179141e-30
1.958496e-18
-1.9541162e-18
-5.8491562e-18
5.8355264e-18
1.9406215e-18
-1.9362555e-18
-2.1445417e-30
-1.9276877e-18
3.8467428e-18
3.8384201e-18
-3.8301933e-18
-6.3633217e-30
-1.9064299e-18
-1.9022215e-18
3.796482e-18
-1.8942032e-18
2.0977977e-30
-1.0471352e-30
1.8812498e-18
3.7540268e-18
-3.7453133e-18
-3.7365144e-18
0
1.8596122e-18
2.0596213e-30
-3.7019417e-18
-2.0501782e-30
5.5275077e-18
3.6764459e-18
0
-3.6597924e-18
-4.0534683e-30
-1.8218984e-18
-1.8179491e-18
5.4419003e-18
-1.0043996e-30
-3.6118019e-18
1.8018169e-18
3.5953644e-18
-1.7935033e-18
-3.5785768e-18
-1.7850584e-18
0
3.5531248e-18
-1.7723527e-18
-5.3045825e-18
1.7639983e-18
1.759765e-18
3.5111469e-18
1.7514035e-18
-3.4945086e-18
-1.7432132e-18
-1.7393291e-18
1.92676e-30
1.7319184e-18
1.7282648e-18
3.4489321e-18
1.7203899e-18
0
0
0
-3.4057188e-18
-3.3973052e-18
3.3889979e-18
1.8765264e-30
1.8718831e-30
-1.8667432e-30
-3.7255696e-30
3.3470613e-18
0
-3.3345228e-18
-1.6635435e-18
1.6577135e-18
-1.6532511e-18
-1.6489085e-18
0
0
3.272032e-18
-5.4345538e-30
-3.6138501e-30
3.2472175e-18
-3.2391858e-18
-3.2308757e-18
0
3.2127408e-18
-1.7775079e-30
-3.1934036e-18
3.1838714e-18
1.7625961e-30
-3.1655843e-18
0
3.1480045e-18
1.5696441e-18
-3.130562e-18
1.5609077e-18
3.4568419e-30
-3.1042586e-18
3.0954283e-18
3.0865266e-18
0
0
0
-3.0495966e-18
-3.040021e-18
3.0303713e-18
0
-3.0110362e-18
0
-1.4959388e-18
2.9824002e-18
1.4864937e-18
-1.4818133e-18
2.9543004e-18
1.4724932e-18
-2.9356584e-18
-1.463144e-18
-1.6192788e-30
1.4536547e-18
-3.2168411e-30
8.207866e-34
2.8779969e-18
0
-1.4289694e-18
-2.8478241e-18
-1.4188464e-18
0
0
0
-1.3987235e-18
2.7875008e-18
1.3887959e-18
-1.3838531e-18
-1.3789137e-18
1.3739694e-18
1.3690126e-18
-2.7280735e-18
0
2.7080232e-18
2.6979194e-18
0
0
-2.6673448e-18
-1.4748895e-30
-1.3234161e-18
-1.3182833e-18
1.3131532e-18
-1.3080286e-18
1.3029111e-18
2.595602e-18
1.292697e-18
0
-2.5649953e-18
-1.4177416e-30
1.2722919e-18
-1.2671804e-18
-1.2620611e-18
-2.5138661e-18
2.503593e-18
1.2466524e-18
-3.5285622e-34
1.2363489e-18
-2.4623882e-18
1.2260407e-18
-1.2208912e-18
-1.1866564e-47
1.2106111e-18
-2.4109654e-18
2.4007246e-18
2.3904987e-18
0
-1.1850418e-18
-2.3598895e-18
6.5213131e-31
1.1697581e-18
1.1646667e-18
-2.3191519e-18
-2.3089724e-18
1.1493981e-18
2.2886258e-18
2.278464e-18
-1.1341569e-18
-2.2581781e-18
1.1240298e-18
-1.1189803e-18
1.8546502e-30
1.1089145e-18
-2.2077986e-18
2.1977921e-18
1.2140891e-30
-6.044661e-30
2.1679044e-18
-2.1579817e-18
-4.7693864e-30
1.0690968e-18
-2.1283281e-18
1.0592404e-18
-2.9965746e-34
4.6600669e-30
1.0445263e-18
-2.079286e-18
2.2975084e-30
-5.7153406e-31
1.0250683e-18
-2.8996823e-34
-2.0308274e-18
2.0212084e-18
5.7173479e-34
-4.4451386e-30
1.9924899e-18
-1.982959e-18
-2.1908243e-30
1.9639477e-18
-9.7723268e-19
-9.7249955e-19
-9.6777506e-19
9.6305968e-19
-1.0639183e-30
-1.9073145e-18
0
0
1.8792619e-18
2.6573725e-34
-1.8606846e-18
9.2571829e-19
-1.0223074e-30
9.1650883e-19
2.0247443e-30
-1.8146943e-18
0
-8.9823128e-19
1.7873782e-18
8.8915606e-19
-1.9644009e-30
8.8011278e-19
-1.7512024e-18
8.7109604e-19
-9.6180808e-31
-1.7242074e-18
0
0
8.4865205e-19
-4.6858186e-31
8.3970361e-19
-8.3523422e-19
-2.4923017e-18
2.4789057e-18
8.2183753e-19
-1.6347474e-18
8.1291005e-19
1.3461324e-30
8.0398165e-19
-4.5447197e-34
-2.6480955e-30
7.9057612e-19
-1.5722046e-18
-7.8162574e-19
0
-7.7266382e-19
7.6817751e-19
7.6368689e-19
7.5919168e-19
-1.6756454e-30
8.3260905e-31
-8.2760475e-31
-1.4823294e-18
7.3664484e-19
1.2190402e-30
-1.4551708e-18
1.0275092e-34
7.1849816e-19
1.4278875e-18
1.4187634e-18
-1.4096226e-18
-7.7776213e-31
-6.9564399e-19
-6.9104686e-19
1.3728817e-18