/*--------------------------------*- C++ -*----------------------------------*\
  =========                 |
  \\      /  F ield         | OpenFOAM: The Open Source CFD Toolbox
   \\    /   O peration     | Website:  https://openfoam.org
    \\  /    A nd           | Version:  7
     \\/     M anipulation  |
\*---------------------------------------------------------------------------*/
FoamFile
{
    version     2.0;
    format      ascii;
    class       volScalarField;
    location    "0.0024";
    object      mag(U);
}
// * * * * * * * * * * * * * * * * * * * * * * * * * * * * * * * * * * * * * //

dimensions      [0 1 -1 0 0 0 0];

internalField   nonuniform List<scalar> 
5000
(
22.934727
22.934726
22.934725
22.934724
22.934724
22.934723
22.934722
22.934722
22.934721
22.934721
22.93472
22.93472
22.934719
22.934718
22.934718
22.934717
22.934716
22.934716
22.934715
22.934715
22.934714
22.934714
22.934713
22.934712
22.934712
22.934711
22.93471
22.93471
22.934709
22.934709
22.934708
22.934707
22.934707
22.934706
22.934705
22.934705
22.934704
22.934704
22.934703
22.934703
22.934702
22.934702
22.934701
22.9347
22.934699
22.934699
22.934698
22.934698
22.934697
22.934697
22.934696
22.934695
22.934695
22.934694
22.934693
22.934693
22.934693
22.934692
22.934692
22.934691
22.93469
22.93469
22.934689
22.934688
22.934688
22.934687
22.934687
22.934686
22.934685
22.934685
22.934684
22.934684
22.934683
22.934683
22.934682
22.934682
22.934681
22.93468
22.93468
22.934679
22.934679
22.934678
22.934678
22.934677
22.934676
22.934676
22.934675
22.934675
22.934674
22.934674
22.934673
22.934673
22.934672
22.934671
22.934671
22.93467
22.93467
22.934669
22.934669
22.934668
22.934667
22.934667
22.934666
22.934666
22.934665
22.934665
22.934664
22.934664
22.934663
22.934662
22.934662
22.934661
22.934661
22.93466
22.93466
22.934659
22.934658
22.934658
22.934657
22.934657
22.934656
22.934656
22.934655
22.934655
22.934654
22.934654
22.934653
22.934653
22.934652
22.934651
22.934651
22.93465
22.93465
22.934649
22.934649
22.934648
22.934648
22.934647
22.934647
22.934646
22.934645
22.934645
22.934644
22.934644
22.934643
22.934643
22.934642
22.934642
22.934641
22.934641
22.93464
22.93464
22.934639
22.934639
22.934638
22.934637
22.934637
22.934637
22.934636
22.934636
22.934635
22.934634
22.934634
22.934633
22.934633
22.934632
22.934632
22.934631
22.934631
22.93463
22.93463
22.934629
22.934629
22.934628
22.934628
22.934627
22.934626
22.934626
22.934626
22.934625
22.934625
22.934624
22.934623
22.934623
22.934622
22.934622
22.934622
22.934621
22.93462
22.93462
22.934619
22.934619
22.934619
22.934618
22.934617
22.934617
22.934616
22.934616
22.934615
22.934615
22.934614
22.934614
22.934613
22.934613
22.934612
22.934612
22.934611
22.934611
22.93461
22.93461
22.93461
22.934609
22.934608
22.934608
22.934607
22.934607
22.934606
22.934606
22.934606
22.934605
22.934604
22.934604
22.934603
22.934603
22.934603
22.934602
22.934602
22.934601
22.9346
22.9346
22.9346
22.934599
22.934599
22.934598
22.934598
22.934597
22.934597
22.934596
22.934596
22.934595
22.934595
22.934594
22.934594
22.934593
22.934593
22.934593
22.934592
22.934591
22.934591
22.93459
22.93459
22.93459
22.934589
22.934589
22.934588
22.934588
22.934587
22.934586
22.934586
22.934586
22.934585
22.934585
22.934585
22.934584
22.934583
22.934583
22.934582
22.934582
22.934582
22.934581
22.934581
22.93458
22.93458
22.934579
22.934579
22.934578
22.934578
22.934578
22.934577
22.934576
22.934576
22.934576
22.934575
22.934575
22.934574
22.934574
22.934573
22.934573
22.934572
22.934572
22.934572
22.934571
22.934571
22.93457
22.93457
22.934569
22.934569
22.934569
22.934568
22.934568
22.934567
22.934567
22.934566
22.934566
22.934565
22.934565
22.934564
22.934564
22.934564
22.934563
22.934563
22.934562
22.934562
22.934561
22.934561
22.934561
22.93456
22.93456
22.934559
22.934559
22.934558
22.934558
22.934557
22.934557
22.934557
22.934556
22.934556
22.934555
22.934555
22.934554
22.934554
22.934554
22.934553
22.934553
22.934552
22.934552
22.934551
22.934551
22.934551
22.93455
22.93455
22.934549
22.934549
22.934549
22.934548
22.934548
22.934547
22.934547
22.934546
22.934546
22.934546
22.934545
22.934545
22.934544
22.934544
22.934544
22.934543
22.934543
22.934542
22.934542
22.934541
22.934541
22.934541
22.93454
22.93454
22.934539
22.934539
22.934539
22.934538
22.934538
22.934537
22.934537
22.934537
22.934536
22.934536
22.934535
22.934535
22.934535
22.934534
22.934534
22.934533
22.934533
22.934532
22.934532
22.934532
22.934531
22.934531
22.934531
22.93453
22.93453
22.934529
22.934529
22.934529
22.934528
22.934528
22.934527
22.934527
22.934526
22.934526
22.934526
22.934526
22.934525
22.934525
22.934524
22.934524
22.934523
22.934523
22.934523
22.934522
22.934522
22.934522
22.934521
22.934521
22.93452
22.93452
22.93452
22.934519
22.934519
22.934518
22.934518
22.934518
22.934517
22.934517
22.934517
22.934516
22.934516
22.934516
22.934515
22.934515
22.934514
22.934514
22.934513
22.934513
22.934513
22.934513
22.934512
22.934512
22.934511
22.934511
22.934511
22.93451
22.93451
22.93451
22.934509
22.934509
22.934508
22.934508
22.934508
22.934507
22.934507
22.934506
22.934506
22.934506
22.934505
22.934505
22.934505
22.934504
22.934504
22.934504
22.934503
22.934503
22.934503
22.934502
22.934502
22.934501
22.934501
22.934501
22.9345
22.9345
22.9345
22.934499
22.934499
22.934498
22.934498
22.934498
22.934498
22.934497
22.934497
22.934496
22.934496
22.934495
22.934495
22.934495
22.934495
22.934494
22.934494
22.934493
22.934493
22.934493
22.934492
22.934492
22.934492
22.934491
22.934491
22.93449
22.93449
22.93449
22.93449
22.934489
22.934489
22.934488
22.934488
22.934488
22.934487
22.934487
22.934487
22.934486
22.934486
22.934486
22.934485
22.934485
22.934485
22.934484
22.934484
22.934483
22.934483
22.934483
22.934482
22.934482
22.934482
22.934481
22.934481
22.934481
22.93448
22.93448
22.93448
22.934479
22.934479
22.934478
22.934478
22.934478
22.934477
22.934477
22.934477
22.934477
22.934476
22.934476
22.934476
22.934475
22.934475
22.934474
22.934474
22.934474
22.934473
22.934473
22.934473
22.934472
22.934472
22.934472
22.934471
22.934471
22.934471
22.93447
22.93447
22.93447
22.934469
22.934469
22.934469
22.934468
22.934468
22.934467
22.934467
22.934467
22.934467
22.934466
22.934466
22.934466
22.934465
22.934465
22.934465
22.934464
22.934464
22.934464
22.934463
22.934463
22.934463
22.934462
22.934462
22.934462
22.934461
22.934461
22.934461
22.934461
22.93446
22.93446
22.934459
22.934459
22.934459
22.934459
22.934458
22.934458
22.934457
22.934457
22.934457
22.934457
22.934456
22.934456
22.934456
22.934455
22.934455
22.934454
22.934454
22.934454
22.934454
22.934454
22.934453
22.934453
22.934452
22.934452
22.934452
22.934451
22.934451
22.934451
22.934451
22.934451
22.93445
22.93445
22.934449
22.934449
22.934449
22.934449
22.934448
22.934448
22.934448
22.934447
22.934447
22.934447
22.934446
22.934446
22.934446
22.934446
22.934445
22.934445
22.934445
22.934444
22.934444
22.934444
22.934444
22.934443
22.934443
22.934443
22.934442
22.934442
22.934442
22.934442
22.934441
22.934441
22.934441
22.93444
22.93444
22.93444
22.93444
22.934439
22.934439
22.934439
22.934438
22.934438
22.934438
22.934438
22.934437
22.934437
22.934437
22.934437
22.934436
22.934436
22.934436
22.934435
22.934435
22.934435
22.934435
22.934434
22.934434
22.934434
22.934434
22.934433
22.934433
22.934433
22.934433
22.934432
22.934432
22.934432
22.934431
22.934431
22.934431
22.934431
22.93443
22.93443
22.93443
22.93443
22.934429
22.934429
22.934429
22.934428
22.934428
22.934428
22.934428
22.934427
22.934427
22.934427
22.934427
22.934426
22.934426
22.934426
22.934426
22.934425
22.934425
22.934425
22.934425
22.934424
22.934424
22.934424
22.934424
22.934423
22.934423
22.934423
22.934422
22.934422
22.934422
22.934422
22.934422
22.934421
22.934421
22.934421
22.93442
22.93442
22.93442
22.93442
22.93442
22.934419
22.934419
22.934419
22.934418
22.934418
22.934418
22.934418
22.934417
22.934417
22.934417
22.934417
22.934416
22.934416
22.934416
22.934416
22.934415
22.934415
22.934415
22.934415
22.934414
22.934414
22.934414
22.934414
22.934413
22.934413
22.934413
22.934413
22.934412
22.934412
22.934412
22.934412
22.934411
22.934411
22.934411
22.934411
22.93441
22.93441
22.93441
22.93441
22.934409
22.934409
22.934409
22.934408
22.934408
22.934408
22.934408
22.934407
22.934407
22.934407
22.934407
22.934406
22.934406
22.934406
22.934406
22.934405
22.934405
22.934405
22.934405
22.934404
22.934404
22.934404
22.934403
22.934403
22.934403
22.934403
22.934402
22.934402
22.934402
22.934402
22.934401
22.934401
22.934401
22.934401
22.9344
22.9344
22.9344
22.9344
22.934399
22.934399
22.934399
22.934399
22.934398
22.934398
22.934398
22.934397
22.934397
22.934397
22.934397
22.934396
22.934396
22.934396
22.934396
22.934395
22.934395
22.934395
22.934394
22.934394
22.934394
22.934394
22.934393
22.934393
22.934393
22.934392
22.934392
22.934392
22.934392
22.934391
22.934391
22.934391
22.93439
22.93439
22.93439
22.93439
22.934389
22.934389
22.934389
22.934388
22.934388
22.934388
22.934387
22.934387
22.934387
22.934387
22.934386
22.934386
22.934386
22.934385
22.934385
22.934385
22.934384
22.934384
22.934384
22.934384
22.934383
22.934383
22.934383
22.934382
22.934382
22.934382
22.934381
22.934381
22.934381
22.93438
22.93438
22.93438
22.934379
22.934379
22.934379
22.934378
22.934378
22.934378
22.934377
22.934377
22.934377
22.934377
22.934376
22.934376
22.934375
22.934375
22.934375
22.934374
22.934374
22.934374
22.934373
22.934373
22.934373
22.934372
22.934372
22.934372
22.934371
22.934371
22.934371
22.93437
22.93437
22.93437
22.934369
22.934369
22.934368
22.934368
22.934368
22.934367
22.934367
22.934367
22.934366
22.934366
22.934365
22.934365
22.934365
22.934364
22.934364
22.934363
22.934363
22.934363
22.934362
22.934362
22.934362
22.934361
22.934361
22.93436
22.93436
22.934359
22.934359
22.934359
22.934358
22.934358
22.934357
22.934357
22.934357
22.934356
22.934356
22.934355
22.934355
22.934354
22.934354
22.934354
22.934353
22.934353
22.934352
22.934352
22.934351
22.934351
22.93435
22.93435
22.934349
22.934349
22.934348
22.934348
22.934347
22.934347
22.934347
22.934346
22.934346
22.934345
22.934345
22.934344
22.934343
22.934343
22.934343
22.934342
22.934341
22.934341
22.93434
22.93434
22.934339
22.934339
22.934338
22.934338
22.934337
22.934336
22.934336
22.934335
22.934335
22.934334
22.934334
22.934333
22.934332
22.934332
22.934331
22.934331
22.93433
22.934329
22.934329
22.934328
22.934327
22.934327
22.934326
22.934325
22.934325
22.934324
22.934323
22.934322
22.934322
22.934321
22.93432
22.934319
22.934319
22.934318
22.934317
22.934316
22.934316
22.934315
22.934314
22.934313
22.934312
22.934311
22.93431
22.934309
22.934309
22.934308
22.934307
22.934306
22.934305
22.934304
22.934303
22.934302
22.934301
22.934299
22.934298
22.934297
22.934296
22.934295
22.934294
22.934293
22.934291
22.93429
22.934289
22.934287
22.934286
22.934285
22.934283
22.934282
22.93428
22.934279
22.934277
22.934276
22.934274
22.934273
22.934271
22.934269
22.934268
22.934266
22.934264
22.934262
22.93426
22.934258
22.934256
22.934254
22.934252
22.93425
22.934248
22.934246
22.934243
22.934241
22.934239
22.934236
22.934234
22.934231
22.934228
22.934226
22.934223
22.93422
22.934217
22.934214
22.934211
22.934208
22.934204
22.934201
22.934198
22.934194
22.934191
22.934187
22.934183
22.934179
22.934175
22.934171
22.934167
22.934163
22.934158
22.934154
22.934149
22.934144
22.934139
22.934134
22.934129
22.934124
22.934118
22.934113
22.934107
22.934101
22.934095
22.934089
22.934082
22.934076
22.934069
22.934062
22.934055
22.934048
22.934041
22.934033
22.934025
22.934017
22.934009
22.934001
22.933992
22.933983
22.933974
22.933965
22.933955
22.933945
22.933935
22.933925
22.933914
22.933903
22.933892
22.933881
22.933869
22.933857
22.933844
22.933832
22.933819
22.933805
22.933792
22.933778
22.933763
22.933749
22.933733
22.933718
22.933702
22.933686
22.933669
22.933652
22.933635
22.933617
22.933598
22.933579
22.93356
22.93354
22.93352
22.933499
22.933478
22.933456
22.933433
22.933411
22.933387
22.933363
22.933338
22.933313
22.933287
22.933261
22.933234
22.933206
22.933177
22.933148
22.933118
22.933088
22.933057
22.933025
22.932992
22.932958
22.932924
22.932889
22.932853
22.932816
22.932778
22.93274
22.9327
22.93266
22.932619
22.932576
22.932533
22.932489
22.932444
22.932397
22.93235
22.932302
22.932252
22.932202
22.93215
22.932097
22.932043
22.931987
22.931931
22.931873
22.931814
22.931753
22.931691
22.931628
22.931564
22.931498
22.93143
22.931362
22.931291
22.931219
22.931146
22.931071
22.930994
22.930916
22.930836
22.930755
22.930671
22.930586
22.9305
22.930411
22.93032
22.930228
22.930134
22.930038
22.929939
22.929839
22.929737
22.929633
22.929526
22.929418
22.929307
22.929194
22.929079
22.928961
22.928841
22.928719
22.928595
22.928468
22.928338
22.928206
22.928072
22.927935
22.927795
22.927653
22.927507
22.92736
22.927209
22.927056
22.926899
22.92674
22.926578
22.926413
22.926245
22.926074
22.9259
22.925722
22.925542
22.925358
22.925171
22.92498
22.924786
22.924589
22.924389
22.924184
22.923977
22.923766
22.923551
22.923332
22.92311
22.922884
22.922654
22.922421
22.922183
22.921942
22.921696
22.921447
22.921193
22.920936
22.920674
22.920408
22.920138
22.919863
22.919584
22.919301
22.919013
22.918721
22.918424
22.918123
22.917817
22.917506
22.917191
22.916871
22.916546
22.916216
22.915882
22.915542
22.915198
22.914848
22.914493
22.914134
22.913769
22.913399
22.913023
22.912642
22.912256
22.911865
22.911468
22.911066
22.910658
22.910244
22.909825
22.909401
22.90897
22.908534
22.908092
22.907644
22.907191
22.906731
22.906266
22.905794
22.905317
22.904833
22.904344
22.903848
22.903346
22.902837
22.902323
22.901802
22.901275
22.900741
22.900201
22.899655
22.899102
22.898542
22.897976
22.897404
22.896824
22.896239
22.895646
22.895046
22.89444
22.893827
22.893208
22.892581
22.891947
22.891307
22.890659
22.890005
22.889344
22.888675
22.887999
22.887317
22.886627
22.88593
22.885226
22.884515
22.883796
22.88307
22.882337
22.881597
22.880849
22.880095
22.879332
22.878563
22.877786
22.877001
22.876209
22.87541
22.874603
22.873789
22.872967
22.872138
22.871302
22.870457
22.869606
22.868746
22.86788
22.867005
22.866123
22.865234
22.864337
22.863432
22.86252
22.8616
22.860673
22.859738
22.858795
22.857845
22.856888
22.855922
22.854949
22.853969
22.852981
22.851985
22.850982
22.849971
22.848953
22.847927
22.846893
22.845852
22.844804
22.843748
22.842684
22.841613
22.840535
22.839449
22.838356
22.837255
22.836147
22.835031
22.833908
22.832778
22.83164
22.830495
22.829343
22.828184
22.827017
22.825843
22.824662
22.823474
22.822279
22.821076
22.819867
22.818651
22.817427
22.816197
22.814959
22.813715
22.812464
22.811206
22.809941
22.80867
22.807391
22.806106
22.804815
22.803517
22.802212
22.800901
22.799583
22.798259
22.796929
22.795592
22.794249
22.792899
22.791544
22.790182
22.788814
22.787441
22.786061
22.784675
22.783283
22.781886
22.780483
22.779074
22.777659
22.776239
22.774813
22.773382
22.771945
22.770503
22.769055
22.767602
22.766144
22.764681
22.763213
22.76174
22.760262
22.758779
22.757291
22.755798
22.754301
22.752799
22.751292
22.749781
22.748266
22.746746
22.745222
22.743694
22.742161
22.740625
22.739084
22.73754
22.735991
22.734439
22.732883
22.731323
22.72976
22.728194
22.726623
22.72505
22.723473
22.721893
22.72031
22.718724
22.717135
22.715543
22.713948
22.71235
22.71075
22.709147
22.707542
22.705934
22.704324
22.702711
22.701097
22.69948
22.697861
22.69624
22.694618
22.692993
22.691367
22.689739
22.68811
22.686479
22.684846
22.683213
22.681578
22.679942
22.678305
22.676667
22.675027
22.673388
22.671747
22.670106
22.668464
22.666821
22.665178
22.663535
22.661892
22.660248
22.658604
22.65696
22.655317
22.653673
22.65203
22.650387
22.648744
22.647101
22.64546
22.643819
22.642178
22.640539
22.6389
22.637262
22.635625
22.633989
22.632355
22.630721
22.629089
22.627459
22.625829
22.624202
22.622576
22.620952
22.619329
22.617709
22.61609
22.614473
22.612859
22.611247
22.609636
22.608029
22.606423
22.60482
22.60322
22.601622
22.600027
22.598434
22.596845
22.595258
22.593674
22.592094
22.590516
22.588942
22.587371
22.585803
22.584238
22.582677
22.58112
22.579566
22.578016
22.576469
22.574926
22.573387
22.571852
22.570321
22.568794
22.567271
22.565752
22.564238
22.562727
22.561221
22.55972
22.558222
22.55673
22.555242
22.553758
22.552279
22.550805
22.549336
22.547872
22.546412
22.544957
22.543508
22.542063
22.540624
22.539189
22.53776
22.536337
22.534918
22.533505
22.532097
22.530695
22.529298
22.527906
22.526521
22.525141
22.523766
22.522397
22.521034
22.519677
22.518326
22.51698
22.515641
22.514307
22.512979
22.511658
22.510342
22.509032
22.507729
22.506432
22.505141
22.503856
22.502577
22.501305
22.500039
22.498779
22.497526
22.496279
22.495039
22.493805
22.492577
22.491356
22.490142
22.488934
22.487732
22.486538
22.485349
22.484168
22.482993
22.481825
22.480663
22.479508
22.47836
22.477219
22.476085
22.474957
22.473836
22.472722
22.471614
22.470514
22.46942
22.468333
22.467253
22.46618
22.465114
22.464054
22.463002
22.461956
22.460917
22.459885
22.458861
22.457842
22.456831
22.455827
22.45483
22.45384
22.452856
22.45188
22.45091
22.449947
22.448991
22.448043
22.447101
22.446165
22.445237
22.444316
22.443402
22.442494
22.441593
22.440699
22.439812
22.438932
22.438059
22.437192
22.436333
22.43548
22.434633
22.433794
22.432961
22.432135
22.431316
22.430504
22.429698
22.428899
22.428106
22.427321
22.426541
22.425769
22.425003
22.424244
22.423491
22.422744
22.422004
22.421271
22.420544
22.419824
22.41911
22.418402
22.417701
22.417006
22.416317
22.415635
22.414959
22.414289
22.413626
22.412968
22.412317
22.411672
22.411033
22.4104
22.409773
22.409153
22.408538
22.407929
22.407326
22.406729
22.406138
22.405553
22.404974
22.4044
22.403832
22.40327
22.402714
22.402163
22.401618
22.401078
22.400544
22.400016
22.399493
22.398976
22.398464
22.397957
22.397456
22.39696
22.396469
22.395984
22.395504
22.395029
22.394559
22.394095
22.393635
22.393181
22.392731
22.392287
22.391847
22.391413
22.390983
22.390558
22.390138
22.389723
22.389312
22.388907
22.388505
22.388109
22.387717
22.387329
22.386947
22.386568
22.386194
22.385825
22.38546
22.385099
22.384742
22.38439
22.384042
22.383698
22.383359
22.383023
22.382692
22.382364
22.382041
22.381722
22.381406
22.381095
22.380787
22.380483
22.380183
22.379887
22.379595
22.379306
22.379021
22.378739
22.378461
22.378187
22.377916
22.377649
22.377385
22.377124
22.376867
22.376613
22.376363
22.376116
22.375872
22.375631
22.375394
22.37516
22.374928
22.3747
22.374475
22.374253
22.374034
22.373818
22.373605
22.373395
22.373187
22.372983
22.372781
22.372582
22.372386
22.372192
22.372002
22.371813
22.371628
22.371445
22.371264
22.371086
22.370911
22.370738
22.370568
22.3704
22.370234
22.370071
22.36991
22.369751
22.369595
22.36944
22.369289
22.369139
22.368991
22.368846
22.368703
22.368561
22.368422
22.368285
22.36815
22.368017
22.367886
22.367757
22.367629
22.367504
22.36738
22.367259
22.367139
22.367021
22.366905
22.36679
22.366677
22.366566
22.366457
22.366349
22.366243
22.366138
22.366035
22.365934
22.365834
22.365736
22.365639
22.365544
22.365451
22.365358
22.365267
22.365178
22.36509
22.365003
22.364918
22.364834
22.364751
22.36467
22.36459
22.364511
22.364434
22.364357
22.364282
22.364208
22.364136
22.364064
22.363994
22.363924
22.363856
22.363789
22.363723
22.363658
22.363594
22.363532
22.36347
22.363409
22.363349
22.36329
22.363233
22.363176
22.36312
22.363065
22.363011
22.362957
22.362905
22.362854
22.362803
22.362753
22.362704
22.362656
22.362609
22.362562
22.362517
22.362472
22.362427
22.362384
22.362341
22.362299
22.362258
22.362218
22.362178
22.362139
22.3621
22.362062
22.362025
22.361989
22.361953
22.361917
22.361883
22.361849
22.361815
22.361782
22.36175
22.361718
22.361687
22.361656
22.361626
22.361597
22.361568
22.361539
22.361511
22.361484
22.361457
22.36143
22.361404
22.361379
22.361354
22.361329
22.361305
22.361281
22.361258
22.361235
22.361212
22.36119
22.361168
22.361147
22.361126
22.361106
22.361086
22.361066
22.361047
22.361028
22.361009
22.360991
22.360973
22.360955
22.360938
22.360921
22.360904
22.360888
22.360872
22.360856
22.36084
22.360825
22.360811
22.360796
22.360782
22.360768
22.360754
22.360741
22.360727
22.360714
22.360702
22.360689
22.360677
22.360665
22.360653
22.360642
22.360631
22.36062
22.360609
22.360598
22.360588
22.360578
22.360568
22.360558
22.360548
22.360539
22.36053
22.360521
22.360512
22.360503
22.360495
22.360486
22.360478
22.36047
22.360463
22.360455
22.360447
22.36044
22.360433
22.360426
22.360419
22.360412
22.360406
22.360399
22.360393
22.360387
22.360381
22.360375
22.360369
22.360363
22.360358
22.360353
22.360347
22.360342
22.360337
22.360332
22.360327
22.360322
22.360318
22.360313
22.360309
22.360304
22.3603
22.360296
22.360292
22.360288
22.360284
22.36028
22.360276
22.360273
22.360269
22.360266
22.360262
22.360259
22.360256
22.360253
22.360249
22.360246
22.360243
22.360241
22.360238
22.360235
22.360232
22.36023
22.360227
22.360224
22.360222
22.36022
22.360217
22.360215
22.360213
22.360211
22.360208
22.360206
22.360204
22.360202
22.3602
22.360198
22.360196
22.360195
22.360193
22.360191
22.360189
22.360188
22.360186
22.360185
22.360183
22.360181
22.36018
22.360179
22.360177
22.360176
22.360174
22.360173
22.360172
22.36017
22.360169
22.360168
22.360167
22.360166
22.360165
22.360164
22.360162
22.360161
22.36016
22.360159
22.360158
22.360157
22.360157
22.360156
22.360155
22.360154
22.360153
22.360152
22.360151
22.36015
22.36015
22.360149
22.360148
22.360147
22.360147
22.360146
22.360145
22.360145
22.360144
22.360143
22.360143
22.360142
22.360141
22.360141
22.36014
22.36014
22.360139
22.360139
22.360138
22.360137
22.360137
22.360136
22.360136
22.360135
22.360135
22.360134
22.360134
22.360133
22.360133
22.360133
22.360132
22.360132
22.360131
22.360131
22.36013
22.36013
22.36013
22.360129
22.360129
22.360128
22.360128
22.360128
22.360127
22.360127
22.360127
22.360126
22.360126
22.360126
22.360125
22.360125
22.360125
22.360124
22.360124
22.360124
22.360123
22.360123
22.360123
22.360122
22.360122
22.360122
22.360121
22.360121
22.360121
22.36012
22.36012
22.36012
22.36012
22.360119
22.360119
22.360119
22.360119
22.360118
22.360118
22.360118
22.360117
22.360117
22.360117
22.360117
22.360116
22.360116
22.360116
22.360116
22.360115
22.360115
22.360115
22.360115
22.360114
22.360114
22.360114
22.360114
22.360113
22.360113
22.360113
22.360113
22.360112
22.360112
22.360112
22.360112
22.360111
22.360111
22.360111
22.360111
22.360111
22.36011
22.36011
22.36011
22.36011
22.360109
22.360109
22.360109
22.360109
22.360108
22.360108
22.360108
22.360108
22.360108
22.360107
22.360107
22.360107
22.360107
22.360106
22.360106
22.360106
22.360106
22.360106
22.360105
22.360105
22.360105
22.360105
22.360104
22.360104
22.360104
22.360104
22.360104
22.360103
22.360103
22.360103
22.360103
22.360103
22.360102
22.360102
22.360102
22.360102
22.360101
22.360101
22.360101
22.360101
22.360101
22.3601
22.3601
22.3601
22.3601
22.360099
22.360099
22.360099
22.360099
22.360099
22.360098
22.360098
22.360098
22.360098
22.360098
22.360097
22.360097
22.360097
22.360097
22.360096
22.360096
22.360096
22.360096
22.360096
22.360095
22.360095
22.360095
22.360095
22.360095
22.360094
22.360094
22.360094
22.360094
22.360093
22.360093
22.360093
22.360093
22.360093
22.360092
22.360092
22.360092
22.360092
22.360091
22.360091
22.360091
22.360091
22.360091
22.36009
22.36009
22.36009
22.36009
22.360089
22.360089
22.360089
22.360089
22.360089
22.360088
22.360088
22.360088
22.360088
22.360088
22.360087
22.360087
22.360087
22.360087
22.360086
22.360086
22.360086
22.360086
22.360086
22.360085
22.360085
22.360085
22.360085
22.360084
22.360084
22.360084
22.360084
22.360084
22.360083
22.360083
22.360083
22.360083
22.360082
22.360082
22.360082
22.360082
22.360082
22.360081
22.360081
22.360081
22.360081
22.360081
22.36008
22.36008
22.36008
22.36008
22.360079
22.360079
22.360079
22.360079
22.360079
22.360078
22.360078
22.360078
22.360078
22.360077
22.360077
22.360077
22.360077
22.360077
22.360076
22.360076
22.360076
22.360076
22.360076
22.360075
22.360075
22.360075
22.360075
22.360074
22.360074
22.360074
22.360074
22.360074
22.360073
22.360073
22.360073
22.360073
22.360073
22.360072
22.360072
22.360072
22.360072
22.360072
22.360071
22.360071
22.360071
22.360071
22.360071
22.36007
22.36007
22.36007
22.36007
22.36007
22.360069
22.360069
22.360069
22.360069
22.360069
22.360068
22.360068
22.360068
22.360068
22.360068
22.360067
22.360067
22.360067
22.360067
22.360067
22.360067
22.360066
22.360066
22.360066
22.360066
22.360066
22.360065
22.360065
22.360065
22.360065
22.360065
22.360064
22.360064
22.360064
22.360064
22.360064
22.360063
22.360063
22.360063
22.360063
22.360063
22.360062
22.360062
22.360062
22.360062
22.360062
22.360062
22.360061
22.360061
22.360061
22.360061
22.360061
22.36006
22.36006
22.36006
22.36006
22.36006
22.360059
22.360059
22.360059
22.360059
22.360059
22.360058
22.360058
22.360058
22.360058
22.360058
22.360057
22.360057
22.360057
22.360057
22.360057
22.360056
22.360056
22.360056
22.360056
22.360056
22.360055
22.360055
22.360055
22.360055
22.360054
22.360054
22.360054
22.360054
22.360054
22.360053
22.360053
22.360053
22.360053
22.360053
22.360052
22.360052
22.360052
22.360052
22.360051
22.360051
22.360051
22.360051
22.360051
22.36005
22.36005
22.36005
22.36005
22.36005
22.360049
22.360049
22.360049
22.360049
22.360048
22.360048
22.360048
22.360048
22.360048
22.360047
22.360047
22.360047
22.360047
22.360046
22.360046
22.360046
22.360046
22.360046
22.360045
22.360045
22.360045
22.360045
22.360044
22.360044
22.360044
22.360044
22.360044
22.360043
22.360043
22.360043
22.360043
22.360042
22.360042
22.360042
22.360042
22.360041
22.360041
22.360041
22.360041
22.360041
22.36004
22.36004
22.36004
22.36004
22.36004
22.360039
22.360039
22.360039
22.360039
22.360038
22.360038
22.360038
22.360038
22.360038
22.360037
22.360037
22.360037
22.360037
22.360036
22.360036
22.360036
22.360036
22.360036
22.360035
22.360035
22.360035
22.360035
22.360034
22.360034
22.360034
22.360034
22.360034
22.360033
22.360033
22.360033
22.360033
22.360032
22.360032
22.360032
22.360032
22.360031
22.360031
22.360031
22.360031
22.360031
22.36003
22.36003
22.36003
22.36003
22.360029
22.360029
22.360029
22.360029
22.360029
22.360028
22.360028
22.360028
22.360028
22.360028
22.360027
22.360027
22.360027
22.360027
22.360026
22.360026
22.360026
22.360026
22.360025
22.360025
22.360025
22.360025
22.360025
22.360024
22.360024
22.360024
22.360024
22.360023
22.360023
22.360023
22.360023
22.360023
22.360022
22.360022
22.360022
22.360022
22.360021
22.360021
22.360021
22.360021
22.360021
22.36002
22.36002
22.36002
22.36002
22.36002
22.360019
22.360019
22.360019
22.360019
22.360018
22.360018
22.360018
22.360018
22.360018
22.360017
22.360017
22.360017
22.360017
22.360016
22.360016
22.360016
22.360016
22.360016
22.360015
22.360015
22.360015
22.360015
22.360015
22.360014
22.360014
22.360014
22.360014
22.360013
22.360013
22.360013
22.360013
22.360013
22.360012
22.360012
22.360012
22.360012
22.360012
22.360011
22.360011
22.360011
22.360011
22.360011
22.360011
22.36001
22.36001
22.36001
22.36001
22.36001
22.360009
22.360009
22.360009
22.360009
22.360009
22.360008
22.360008
22.360008
22.360008
22.360008
22.360007
22.360007
22.360007
22.360007
22.360007
22.360006
22.360006
22.360006
22.360006
22.360006
22.360005
22.360005
22.360005
22.360005
22.360005
22.360004
22.360004
22.360004
22.360004
22.360004
22.360004
22.360003
22.360003
22.360003
22.360003
22.360003
22.360003
22.360002
22.360002
22.360002
22.360002
22.360002
22.360002
22.360002
22.360001
22.360001
22.360001
22.360001
22.36
22.36
22.359999
22.359999
22.359999
22.359998
22.359997
22.359998
22.36
22.360001
22.360001
22.360002
22.360003
22.360005
22.360006
22.360008
22.36001
22.360018
22.360041
22.360103
22.360285
22.360558
22.360355
22.359912
22.359935
22.359987
22.359981
22.359972
22.359971
22.35997
22.359967
22.359965
22.359965
22.359966
22.359967
22.359971
22.359975
22.359979
22.359984
22.359989
22.359994
22.359998
22.360002
22.360006
22.360008
22.360011
22.360012
22.360014
22.360014
22.360015
22.360015
22.360016
22.360016
22.360016
22.360016
22.360015
22.360015
22.360015
22.360015
22.360014
22.360014
22.360014
22.360014
22.360013
22.360013
22.360013
22.360013
22.360012
22.360006
22.360004
22.360009
22.360013
22.360012
22.360011
22.360011
22.360011
22.360011
22.360011
22.360011
22.360011
22.360011
22.360011
22.360011
22.360011
22.36001
22.36001
22.36001
22.36001
22.36001
22.36001
22.36001
22.360009
22.360009
22.360009
22.360009
22.360009
22.360009
22.360008
22.360008
22.360008
22.360008
22.360008
22.360007
22.360007
22.360007
22.360007
22.360007
22.360006
22.360006
22.360006
22.360006
22.360006
22.360006
22.360005
22.360005
22.360005
22.360005
22.360005
22.360004
22.360004
22.360004
22.360004
22.360004
22.360004
22.360003
22.360003
22.360003
22.360003
22.360003
22.360003
22.360003
22.360002
22.360002
22.360002
22.360002
22.360002
22.360002
22.360002
22.360001
22.360001
22.360001
22.360001
22.360001
22.360001
22.360001
22.360001
22.360001
22.360001
22.360001
22.360001
22.36
22.36
22.36
22.36
22.36
22.36
22.36
22.36
22.36
22.36
22.359999
22.359999
22.359999
22.359999
22.359999
22.359999
22.359998
22.359998
22.359998
22.359998
22.359998
22.359998
22.359998
22.359997
22.359997
22.359997
22.359997
22.359997
22.359997
22.359997
22.359997
22.359997
22.359996
22.359996
22.359996
22.359996
22.359996
22.359996
22.359996
22.359996
22.359995
22.359995
22.359995
22.359995
22.359995
22.359995
22.359995
22.359995
22.359995
22.359995
22.359995
22.359994
22.359994
22.359994
22.359994
22.359994
22.359994
22.359994
22.359994
22.359994
22.359994
22.359994
22.359994
22.359993
22.359993
22.359993
22.359993
22.359993
22.359993
22.359993
22.359993
22.359993
22.359993
22.359993
22.359993
22.359993
22.359993
22.359992
22.359992
22.359992
22.359992
22.359992