/*--------------------------------*- C++ -*----------------------------------*\
  =========                 |
  \\      /  F ield         | OpenFOAM: The Open Source CFD Toolbox
   \\    /   O peration     | Website:  https://openfoam.org
    \\  /    A nd           | Version:  7
     \\/     M anipulation  |
\*---------------------------------------------------------------------------*/
FoamFile
{
    version     2.0;
    format      ascii;
    class       volScalarField;
    location    "0.00042";
    object      p;
}
// * * * * * * * * * * * * * * * * * * * * * * * * * * * * * * * * * * * * * //

dimensions      [1 -1 -2 0 0 0 0];

internalField   nonuniform List<scalar> 
5000
(
111476.48
111488.33
111500.36
111512.47
111524.63
111536.81
111549.02
111561.23
111573.44
111585.65
111597.86
111610.08
111622.29
111634.5
111646.7
111658.91
111671.11
111683.31
111695.52
111707.71
111719.91
111732.11
111744.3
111756.49
111768.68
111780.87
111793.06
111805.24
111817.42
111829.61
111841.79
111853.96
111866.14
111878.32
111890.49
111902.66
111914.83
111927
111939.17
111951.34
111963.51
111975.67
111987.84
112000
112012.16
112024.33
112036.49
112048.65
112060.81
112072.97
112085.13
112097.29
112109.45
112121.6
112133.76
112145.92
112158.08
112170.23
112182.39
112194.55
112206.7
112218.86
112231.01
112243.17
112255.32
112267.47
112279.63
112291.78
112303.93
112316.08
112328.23
112340.38
112352.53
112364.68
112376.83
112388.98
112401.12
112413.27
112425.41
112437.56
112449.7
112461.85
112473.99
112486.13
112498.27
112510.41
112522.55
112534.69
112546.82
112558.96
112571.1
112583.23
112595.36
112607.5
112619.63
112631.76
112643.89
112656.02
112668.15
112680.28
112692.41
112704.53
112716.66
112728.78
112740.91
112753.03
112765.15
112777.28
112789.4
112801.52
112813.64
112825.76
112837.87
112849.99
112862.11
112874.22
112886.34
112898.45
112910.56
112922.67
112934.79
112946.9
112959.01
112971.12
112983.22
112995.33
113007.44
113019.54
113031.65
113043.75
113055.86
113067.96
113080.06
113092.16
113104.26
113116.36
113128.46
113140.56
113152.66
113164.75
113176.85
113188.95
113201.04
113213.13
113225.23
113237.32
113249.41
113261.51
113273.6
113285.69
113297.78
113309.87
113321.96
113334.05
113346.14
113358.23
113370.31
113382.4
113394.49
113406.57
113418.66
113430.75
113442.83
113454.92
113467.01
113479.09
113491.18
113503.26
113515.34
113527.43
113539.51
113551.6
113563.68
113575.76
113587.85
113599.93
113612.01
113624.09
113636.17
113648.25
113660.33
113672.41
113684.49
113696.57
113708.65
113720.73
113732.8
113744.88
113756.96
113769.03
113781.1
113793.18
113805.25
113817.32
113829.39
113841.46
113853.53
113865.59
113877.66
113889.72
113901.79
113913.85
113925.91
113937.97
113950.03
113962.09
113974.14
113986.2
113998.25
114010.3
114022.35
114034.4
114046.44
114058.49
114070.53
114082.57
114094.61
114106.65
114118.69
114130.72
114142.76
114154.79
114166.82
114178.85
114190.88
114202.9
114214.93
114226.95
114238.97
114250.99
114263.01
114275.02
114287.03
114299.05
114311.06
114323.07
114335.07
114347.08
114359.08
114371.09
114383.09
114395.08
114407.08
114419.08
114431.07
114443.06
114455.06
114467.05
114479.03
114491.02
114503
114514.99
114526.97
114538.95
114550.93
114562.9
114574.88
114586.85
114598.83
114610.8
114622.77
114634.73
114646.7
114658.66
114670.63
114682.59
114694.55
114706.51
114718.46
114730.42
114742.37
114754.33
114766.28
114778.23
114790.18
114802.12
114814.07
114826.01
114837.95
114849.89
114861.83
114873.77
114885.71
114897.64
114909.57
114921.51
114933.44
114945.37
114957.29
114969.22
114981.14
114993.07
115004.99
115016.91
115028.83
115040.74
115052.66
115064.57
115076.48
115088.4
115100.3
115112.21
115124.12
115136.02
115147.93
115159.83
115171.73
115183.63
115195.53
115207.43
115219.32
115231.21
115243.11
115255
115266.89
115278.77
115290.66
115302.54
115314.43
115326.31
115338.19
115350.07
115361.95
115373.82
115385.7
115397.57
115409.44
115421.31
115433.18
115445.05
115456.91
115468.78
115480.64
115492.5
115504.36
115516.22
115528.08
115539.93
115551.79
115563.64
115575.49
115587.34
115599.19
115611.03
115622.88
115634.72
115646.57
115658.41
115670.25
115682.08
115693.92
115705.76
115717.59
115729.42
115741.25
115753.08
115764.91
115776.74
115788.56
115800.39
115812.21
115824.03
115835.85
115847.67
115859.48
115871.3
115883.11
115894.93
115906.74
115918.55
115930.35
115942.16
115953.97
115965.77
115977.57
115989.37
116001.17
116012.97
116024.77
116036.56
116048.35
116060.15
116071.94
116083.73
116095.51
116107.3
116119.09
116130.87
116142.65
116154.43
116166.21
116177.99
116189.77
116201.54
116213.31
116225.09
116236.86
116248.63
116260.39
116272.16
116283.93
116295.69
116307.45
116319.21
116330.97
116342.73
116354.49
116366.24
116377.99
116389.75
116401.5
116413.25
116424.99
116436.74
116448.49
116460.23
116471.97
116483.71
116495.45
116507.19
116518.93
116530.66
116542.39
116554.13
116565.86
116577.59
116589.31
116601.04
116612.77
116624.49
116636.21
116647.93
116659.65
116671.37
116683.09
116694.8
116706.51
116718.23
116729.94
116741.65
116753.36
116765.06
116776.77
116788.47
116800.17
116811.87
116823.57
116835.27
116846.97
116858.66
116870.36
116882.05
116893.74
116905.43
116917.12
116928.8
116940.49
116952.17
116963.86
116975.54
116987.22
116998.89
117010.57
117022.25
117033.92
117045.59
117057.26
117068.93
117080.6
117092.27
117103.93
117115.6
117127.26
117138.92
117150.58
117162.24
117173.89
117185.55
117197.2
117208.85
117220.51
117232.15
117243.8
117255.45
117267.09
117278.74
117290.38
117302.02
117313.66
117325.3
117336.94
117348.57
117360.2
117371.84
117383.47
117395.1
117406.72
117418.35
117429.98
117441.6
117453.22
117464.84
117476.46
117488.08
117499.7
117511.31
117522.92
117534.54
117546.15
117557.76
117569.36
117580.97
117592.58
117604.18
117615.78
117627.38
117638.98
117650.58
117662.17
117673.77
117685.36
117696.95
117708.54
117720.13
117731.72
117743.31
117754.89
117766.47
117778.06
117789.64
117801.22
117812.79
117824.37
117835.94
117847.52
117859.09
117870.66
117882.23
117893.79
117905.36
117916.92
117928.49
117940.05
117951.61
117963.17
117974.73
117986.28
117997.84
118009.39
118020.94
118032.49
118044.04
118055.59
118067.13
118078.68
118090.22
118101.76
118113.3
118124.84
118136.38
118147.91
118159.45
118170.98
118182.51
118194.04
118205.57
118217.1
118228.62
118240.15
118251.67
118263.19
118274.71
118286.23
118297.75
118309.27
118320.78
118332.29
118343.81
118355.32
118366.83
118378.34
118389.84
118401.35
118412.85
118424.35
118435.85
118447.35
118458.85
118470.35
118481.84
118493.33
118504.83
118516.32
118527.8
118539.29
118550.78
118562.26
118573.74
118585.22
118596.7
118608.17
118619.65
118631.12
118642.59
118654.06
118665.52
118676.98
118688.44
118699.9
118711.35
118722.8
118734.25
118745.7
118757.14
118768.57
118780.01
118791.44
118802.86
118814.28
118825.7
118837.11
118848.51
118859.91
118871.3
118882.69
118894.07
118905.44
118916.8
118928.16
118939.51
118950.84
118962.17
118973.49
118984.8
118996.1
119007.38
119018.66
119029.92
119041.16
119052.39
119063.61
119074.81
119085.99
119097.16
119108.31
119119.43
119130.54
119141.63
119152.69
119163.73
119174.75
119185.74
119196.7
119207.64
119218.54
119229.42
119240.27
119251.08
119261.86
119272.6
119283.31
119293.98
119304.61
119315.2
119325.74
119336.25
119346.71
119357.12
119367.48
119377.79
119388.05
119398.26
119408.42
119418.51
119428.55
119438.53
119448.45
119458.31
119468.1
119477.83
119487.49
119497.07
119506.59
119516.04
119525.41
119534.7
119543.92
119553.06
119562.12
119571.09
119579.99
119588.79
119597.51
119606.14
119614.69
119623.14
119631.5
119639.76
119647.93
119656.01
119663.99
119671.87
119679.65
119687.32
119694.9
119702.38
119709.75
119717.02
119724.18
119731.24
119738.19
119745.03
119751.76
119758.39
119764.91
119771.32
119777.62
119783.81
119789.9
119795.87
119801.73
119807.48
119813.13
119818.66
119824.08
119829.4
119834.6
119839.7
119844.69
119849.57
119854.35
119859.02
119863.58
119868.04
119872.39
119876.64
119880.79
119884.84
119888.78
119892.63
119896.38
119900.03
119903.58
119907.04
119910.41
119913.68
119916.86
119919.95
119922.96
119925.87
119928.7
119931.45
119934.11
119936.7
119939.2
119941.62
119943.97
119946.24
119948.44
119950.56
119952.61
119954.6
119956.52
119958.37
119960.15
119961.88
119963.54
119965.14
119966.69
119968.17
119969.6
119970.98
119972.31
119973.58
119974.81
119975.98
119977.11
119978.2
119979.24
119980.24
119981.19
119982.11
119982.99
119983.83
119984.64
119985.41
119986.15
119986.85
119987.52
119988.17
119988.78
119989.37
119989.93
119990.46
119990.97
119991.45
119991.92
119992.36
119992.77
119993.17
119993.55
119993.91
119994.25
119994.58
119994.88
119995.18
119995.45
119995.72
119995.97
119996.2
119996.43
119996.64
119996.84
119997.03
119997.21
119997.38
119997.54
119997.69
119997.83
119997.96
119998.09
119998.21
119998.32
119998.43
119998.53
119998.62
119998.71
119998.8
119998.87
119998.95
119999.02
119999.08
119999.14
119999.2
119999.25
119999.3
119999.35
119999.4
119999.44
119999.48
119999.51
119999.55
119999.58
119999.61
119999.63
119999.66
119999.68
119999.71
119999.73
119999.75
119999.77
119999.78
119999.8
119999.81
119999.83
119999.84
119999.85
119999.86
119999.87
119999.88
119999.89
119999.9
119999.91
119999.91
119999.92
119999.93
119999.93
119999.94
119999.94
119999.95
119999.95
119999.96
119999.96
119999.96
119999.97
119999.97
119999.97
119999.97
119999.98
119999.98
119999.98
119999.98
119999.98
119999.98
119999.99
119999.99
119999.99
119999.99
119999.99
119999.99
119999.99
119999.99
119999.99
119999.99
119999.99
119999.99
119999.99
120000
120000
120000
120000
120000
120000
120000
120000
120000
120000
120000
120000
120000
120000
120000
120000
120000
120000
120000
120000
120000
120000
120000
120000
120000
120000
120000
120000
120000
120000
120000
120000
120000
120000
120000
120000
120000
120000
120000
120000
120000
120000
120000
120000
120000
120000
120000
120000
120000
120000
120000
120000
120000
120000
120000
120000
120000
120000
120000
120000
120000
120000
120000
120000
120000
120000
120000
120000
120000
120000
120000
120000
120000
120000
120000
120000
120000
120000
120000
120000
120000
120000
120000
120000
120000
120000
120000
120000
120000
120000
120000
120000
120000
120000
120000
120000
120000
120000
120000
120000
120000
120000
120000
120000
120000
120000
120000
120000
120000
120000
120000
120000
120000
120000
120000
120000
120000
120000
120000
120000
120000
120000
120000
120000
120000
120000
120000
120000
120000
120000
120000
120000
120000
120000
120000
120000
120000
120000
120000
120000
120000
120000
120000
120000
120000
120000
120000
120000
120000
120000
120000
120000
120000
120000
120000
120000
120000
120000
120000
120000
120000
120000
120000
120000
120000
120000
120000
120000
120000
120000
120000
120000
120000
120000
120000
120000
120000
120000
120000
120000
120000
120000
120000
120000
120000
120000
120000
120000
120000
120000
120000
120000
120000
120000
120000
120000
120000
120000
120000
120000
120000
120000
120000
120000
120000
120000
120000
120000
120000
120000
120000
120000
120000
120000
120000
120000
120000
120000
120000
120000
120000
120000
120000
120000
120000
120000
120000
120000
120000
120000
120000
120000
120000
120000
120000
120000
120000
120000
120000
120000
120000
120000
120000
120000
120000
120000
120000
120000
120000
120000
120000
120000
120000
120000
120000
120000
120000
120000
120000
120000
120000
120000
120000
120000
120000
120000
120000
120000
120000
120000
120000
120000
120000
120000
120000
120000
120000
120000
120000
120000
120000
120000
120000
120000
120000
120000
120000
120000
120000
120000
120000
120000
120000
120000
120000
120000
120000
120000
120000
120000
120000
120000
120000
120000
120000
120000
120000
120000
120000
120000
120000
120000
120000
120000
120000
120000
120000
120000
120000
120000
120000
120000
120000
120000
120000
120000
120000
120000
120000
120000
120000
120000
120000
120000
120000
120000
120000
120000
120000
120000
120000
120000
120000
120000
120000
120000
120000
120000
120000
120000
120000
120000
120000
120000
120000
120000
120000
120000
120000
120000
120000
120000
120000
120000
120000
120000
120000
120000
120000
120000
120000
120000
120000
120000
120000
120000
120000
120000
120000
120000
120000
120000
120000
120000
120000
120000
120000
120000
120000
120000
120000
120000
120000
120000
120000
120000
120000
120000
120000
120000
120000
120000
120000
120000
120000
120000
120000
120000
120000
120000
120000
120000
120000
120000
120000
120000
120000
120000
120000
120000
120000
120000
120000
120000
120000
120000
120000
120000
120000
120000
120000
120000
120000
120000
120000
120000
120000
120000
120000
120000
120000
120000
120000
120000
120000
120000
120000
120000
120000
120000
120000
120000
120000
120000
120000
120000
120000
120000
120000
120000
120000
120000
120000
120000
120000
120000
120000
120000
120000
120000
120000
120000
120000
120000
120000
120000
120000
120000
120000
120000
120000
120000
120000
120000
120000
120000
120000
120000
120000
120000
120000
120000
120000
120000
120000
120000
120000
120000
120000
120000
120000
120000
120000
120000
120000
120000
120000
120000
120000
120000
120000
120000
120000
120000
120000
120000
120000
120000
120000
120000
120000
120000
120000
120000
120000
120000
120000
120000
120000
120000
120000
120000
120000
120000
120000
120000
120000
120000
120000
120000
120000
120000
120000
120000
120000
120000
120000
120000
120000
120000
120000
120000
120000
120000
120000
120000
120000
120000
120000
120000
120000
120000
120000
120000
120000
120000
120000
120000
120000
120000
120000
120000
120000
120000
120000
120000
120000
120000
120000
120000
120000
120000
120000
120000
120000
120000
120000
120000
120000
120000
120000
120000
120000
120000
120000
120000
120000
120000
120000
120000
120000
120000
120000
120000
120000
120000
120000
120000
120000
120000
120000
120000
120000
120000
120000
120000
120000
120000
120000
120000
120000
120000
120000
120000
120000
120000
120000
120000
120000
120000
120000
120000
120000
120000
120000
120000
120000
120000
120000
120000
120000
120000
120000
120000
120000
120000
120000
120000
120000
120000
120000
120000
120000
120000
120000
120000
120000
120000
120000
120000
120000
120000
120000
120000
119999.99
119999.99
119999.99
119999.99
119999.99
119999.99
119999.99
119999.99
119999.99
119999.99
119999.99
119999.98
119999.98
119999.98
119999.98
119999.98
119999.97
119999.97
119999.97
119999.97
119999.96
119999.96
119999.95
119999.95
119999.94
119999.94
119999.93
119999.93
119999.92
119999.91
119999.9
119999.89
119999.89
119999.87
119999.86
119999.85
119999.84
119999.82
119999.8
119999.79
119999.77
119999.74
119999.72
119999.7
119999.67
119999.64
119999.61
119999.57
119999.53
119999.49
119999.45
119999.4
119999.35
119999.29
119999.23
119999.16
119999.09
119999.01
119998.93
119998.84
119998.74
119998.64
119998.53
119998.4
119998.27
119998.13
119997.98
119997.82
119997.64
119997.45
119997.25
119997.03
119996.79
119996.54
119996.27
119995.98
119995.67
119995.34
119994.99
119994.6
119994.2
119993.76
119993.29
119992.8
119992.26
119991.7
119991.09
119990.44
119989.75
119989.02
119988.23
119987.4
119986.51
119985.57
119984.56
119983.49
119982.36
119981.15
119979.87
119978.51
119977.07
119975.54
119973.92
119972.2
119970.39
119968.46
119966.43
119964.28
119962
119959.6
119957.06
119954.39
119951.56
119948.58
119945.44
119942.13
119938.65
119934.98
119931.12
119927.06
119922.8
119918.32
119913.61
119908.67
119903.48
119898.05
119892.35
119886.38
119880.13
119873.58
119866.73
119859.57
119852.08
119844.26
119836.09
119827.57
119818.67
119809.39
119799.72
119789.64
119779.14
119768.21
119756.85
119745.02
119732.73
119719.96
119706.7
119692.93
119678.64
119663.83
119648.47
119632.55
119616.06
119599
119581.34
119563.07
119544.18
119524.67
119504.51
119483.69
119462.21
119440.05
119417.21
119393.66
119369.4
119344.41
119318.7
119292.24
119265.03
119237.06
119208.32
119178.79
119148.48
119117.38
119085.46
119052.74
119019.2
118984.84
118949.64
118913.61
118876.74
118839.03
118800.46
118761.04
118720.77
118679.63
118637.64
118594.78
118551.06
118506.48
118461.03
118414.72
118367.54
118319.51
118270.62
118220.87
118170.26
118118.81
118066.52
118013.38
117959.41
117904.61
117848.99
117792.56
117735.32
117677.27
117618.44
117558.82
117498.43
117437.28
117375.38
117312.74
117249.36
117185.27
117120.47
117054.98
116988.81
116921.97
116854.49
116786.36
116717.62
116648.26
116578.32
116507.8
116436.72
116365.1
116292.95
116220.3
116147.16
116073.55
115999.49
115924.99
115850.08
115774.77
115699.09
115623.06
115546.69
115470
115393.02
115315.77
115238.27
115160.54
115082.6
115004.48
114926.19
114847.75
114769.2
114690.56
114611.83
114533.06
114454.26
114375.45
114296.66
114217.92
114139.24
114060.64
113982.16
113903.82
113825.63
113747.63
113669.84
113592.27
113514.96
113437.93
113361.2
113284.8
113208.74
113133.06
113057.78
112982.91
112908.49
112834.53
112761.06
112688.1
112615.67
112543.8
112472.51
112401.81
112331.74
112262.31
112193.54
112125.46
112058.08
111991.42
111925.5
111860.35
111795.98
111732.4
111669.64
111607.71
111546.63
111486.41
111427.07
111368.63
111311.09
111254.48
111198.8
111144.06
111090.28
111037.47
110985.63
110934.78
110884.92
110836.06
110788.21
110741.37
110695.55
110650.75
110606.97
110564.22
110522.49
110481.79
110442.11
110403.46
110365.83
110329.21
110293.61
110259.02
110225.43
110192.83
110161.22
110130.59
110100.92
110072.21
110044.46
110017.63
109991.73
109966.74
109942.64
109919.42
109897.07
109875.57
109854.9
109835.05
109816
109797.73
109780.22
109763.46
109747.42
109732.1
109717.46
109703.49
109690.17
109677.49
109665.41
109653.93
109643.01
109632.65
109622.83
109613.52
109604.7
109596.36
109588.47
109581.03
109574.01
109567.39
109561.16
109555.29
109549.78
109544.6
109539.75
109535.19
109530.93
109526.95
109523.22
109519.74
109516.49
109513.47
109510.65
109508.03
109505.6
109503.34
109501.24
109499.3
109497.51
109495.85
109494.31
109492.9
109491.59
109490.39
109489.29
109488.27
109487.34
109486.48
109485.7
109484.98
109484.33
109483.73
109483.18
109482.69
109482.23
109481.82
109481.45
109481.11
109480.8
109480.52
109480.27
109480.05
109479.84
109479.66
109479.49
109479.34
109479.21
109479.09
109478.98
109478.89
109478.8
109478.72
109478.66
109478.6
109478.54
109478.49
109478.45
109478.41
109478.38
109478.35
109478.33
109478.3
109478.28
109478.26
109478.24
109478.23
109478.21
109478.2
109478.18
109478.17
109478.15
109478.14
109478.12
109478.1
109478.09
109478.07
109478.05
109478.04
109478.02
109478.01
109477.99
109477.98
109477.97
109477.96
109477.94
109477.93
109477.92
109477.92
109477.9
109477.89
109477.88
109477.87
109477.86
109477.84
109477.83
109477.82
109477.8
109477.79
109477.77
109477.76
109477.75
109477.74
109477.72
109477.71
109477.7
109477.69
109477.67
109477.66
109477.65
109477.64
109477.63
109477.61
109477.6
109477.6
109477.59
109477.58
109477.57
109477.56
109477.55
109477.54
109477.53
109477.52
109477.51
109477.5
109477.48
109477.48
109477.47
109477.45
109477.44
109477.43
109477.43
109477.42
109477.41
109477.4
109477.39
109477.38
109477.38
109477.37
109477.36
109477.36
109477.35
109477.34
109477.34
109477.33
109477.32
109477.32
109477.31
109477.3
109477.29
109477.28
109477.27
109477.26
109477.26
109477.25
109477.25
109477.24
109477.24
109477.24
109477.24
109477.23
109477.23
109477.23
109477.22
109477.22
109477.21
109477.21
109477.2
109477.2
109477.19
109477.19
109477.18
109477.18
109477.17
109477.17
109477.16
109477.15
109477.15
109477.15
109477.14
109477.14
109477.13
109477.13
109477.13
109477.12
109477.12
109477.12
109477.12
109477.11
109477.11
109477.11
109477.1
109477.1
109477.09
109477.09
109477.09
109477.08
109477.08
109477.07
109477.07
109477.07
109477.06
109477.06
109477.06
109477.06
109477.05
109477.05
109477.05
109477.05
109477.05
109477.05
109477.05
109477.05
109477.06
109477.06
109477.06
109477.06
109477.06
109477.06
109477.06
109477.07
109477.07
109477.07
109477.07
109477.07
109477.07
109477.07
109477.07
109477.06
109477.06
109477.06
109477.06
109477.06
109477.06
109477.06
109477.06
109477.06
109477.06
109477.06
109477.06
109477.06
109477.06
109477.06
109477.06
109477.06
109477.07
109477.07
109477.07
109477.07
109477.07
109477.07
109477.08
109477.08
109477.08
109477.08
109477.08
109477.09
109477.09
109477.09
109477.09
109477.09
109477.09
109477.1
109477.1
109477.1
109477.1
109477.1
109477.1
109477.1
109477.11
109477.11
109477.11
109477.11
109477.11
109477.11
109477.11
109477.11
109477.11
109477.12
109477.12
109477.12
109477.12
109477.12
109477.12
109477.12
109477.12
109477.13
109477.13
109477.13
109477.13
109477.13
109477.13
109477.14
109477.14
109477.14
109477.14
109477.14
109477.15
109477.15
109477.15
109477.15
109477.15
109477.16
109477.16
109477.16
109477.16
109477.17
109477.17
109477.17
109477.17
109477.18
109477.18
109477.18
109477.18
109477.19
109477.19
109477.19
109477.19
109477.19
109477.2
109477.2
109477.2
109477.2
109477.2
109477.2
109477.21
109477.21
109477.21
109477.21
109477.21
109477.21
109477.22
109477.22
109477.22
109477.22
109477.22
109477.22
109477.23
109477.23
109477.23
109477.23
109477.23
109477.24
109477.24
109477.24
109477.24
109477.25
109477.25
109477.25
109477.25
109477.26
109477.26
109477.26
109477.26
109477.27
109477.27
109477.27
109477.27
109477.27
109477.28
109477.28
109477.28
109477.28
109477.29
109477.29
109477.29
109477.29
109477.29
109477.29
109477.3
109477.3
109477.3
109477.3
109477.3
109477.3
109477.3
109477.3
109477.3
109477.3
109477.31
109477.31
109477.31
109477.31
109477.31
109477.31
109477.31
109477.31
109477.31
109477.31
109477.31
109477.31
109477.31
109477.31
109477.31
109477.31
109477.31
109477.31
109477.31
109477.31
109477.31
109477.31
109477.31
109477.31
109477.31
109477.31
109477.31
109477.31
109477.31
109477.31
109477.31
109477.31
109477.31
109477.31
109477.31
109477.31
109477.31
109477.31
109477.32
109477.32
109477.32
109477.32
109477.32
109477.32
109477.32
109477.32
109477.32
109477.32
109477.33
109477.33
109477.33
109477.33
109477.33
109477.33
109477.33
109477.34
109477.34
109477.34
109477.34
109477.34
109477.34
109477.34
109477.34
109477.35
109477.35
109477.35
109477.35
109477.35
109477.35
109477.35
109477.35
109477.35
109477.35
109477.36
109477.36
109477.36
109477.36
109477.36
109477.36
109477.36
109477.36
109477.36
109477.36
109477.36
109477.36
109477.36
109477.36
109477.36
109477.36
109477.36
109477.36
109477.36
109477.36
109477.36
109477.36
109477.36
109477.36
109477.36
109477.36
109477.36
109477.36
109477.36
109477.36
109477.36
109477.37
109477.37
109477.37
109477.37
109477.37
109477.37
109477.37
109477.37
109477.37
109477.37
109477.37
109477.37
109477.37
109477.37
109477.37
109477.37
109477.37
109477.37
109477.37
109477.37
109477.37
109477.37
109477.38
109477.38
109477.38
109477.38
109477.38
109477.38
109477.38
109477.38
109477.38
109477.38
109477.38
109477.38
109477.39
109477.39
109477.39
109477.39
109477.39
109477.39
109477.39
109477.39
109477.39
109477.39
109477.39
109477.39
109477.39
109477.39
109477.4
109477.4
109477.4
109477.4
109477.4
109477.4
109477.4
109477.4
109477.4
109477.4
109477.4
109477.4
109477.4
109477.4
109477.4
109477.4
109477.4
109477.4
109477.4
109477.4
109477.4
109477.4
109477.4
109477.4
109477.4
109477.4
109477.4
109477.4
109477.4
109477.4
109477.4
109477.4
109477.4
109477.4
109477.4
109477.4
109477.4
109477.4
109477.4
109477.4
109477.4
109477.4
109477.41
109477.41
109477.41
109477.41
109477.41
109477.41
109477.41
109477.41
109477.41
109477.41
109477.41
109477.41
109477.41
109477.41
109477.41
109477.41
109477.41
109477.41
109477.41
109477.41
109477.41
109477.41
109477.41
109477.41
109477.41
109477.41
109477.41
109477.42
109477.42
109477.42
109477.42
109477.42
109477.42
109477.42
109477.42
109477.42
109477.41
109477.41
109477.4
109477.4
109477.4
109477.4
109477.4
109477.41
109477.43
109477.45
109477.47
109477.48
109477.5
109477.5
109477.49
109477.47
109477.43
109477.45
109477.23
109477.39
109477.46
109477.42
109477.39
109477.39
109477.39
109477.39
109477.4
109477.41
109477.42
109477.42
109477.43
109477.43
109477.44
109477.44
109477.44
109477.44
109477.44
109477.43
109477.43
109477.43
109477.43
109477.43
109477.43
109477.43
109477.43
109477.43
109477.43
109477.43
109477.43
109477.43
109477.43
109477.43
109477.43
109477.43
109477.43
109477.43
109477.43
109477.43
109477.43
109477.43
109477.43
109477.43
109477.43
109477.43
109477.43
109477.43
109477.43
109477.43
109477.43
109477.43
109477.43
109477.43
109477.43
109477.43
109477.43
109477.43
109477.43
109477.43
109477.43
109477.43
109477.43
109477.43
109477.43
109477.43
109477.43
109477.43
109477.43
109477.43
109477.43
109477.43
109477.43
109477.43
109477.43
109477.43
109477.43
109477.43
109477.43
109477.43
109477.43
109477.43
109477.43
109477.43
109477.43
109477.43
109477.43
109477.43
109477.43
109477.43
109477.43
109477.42
109477.42
109477.42
109477.42
109477.42
109477.42
109477.42
109477.42
109477.42
109477.42
109477.42
109477.42
109477.42
109477.42
109477.42
109477.42
109477.42
109477.41
109477.41
109477.41
109477.41
109477.41
109477.41
109477.41
109477.41
109477.41
109477.41
109477.41
109477.41
109477.41
109477.41
109477.41
109477.41
109477.41
109477.4
109477.4
109477.4
109477.4
109477.4
109477.4
109477.4
109477.4
109477.4
109477.4
109477.4
109477.4
109477.4
109477.4
109477.4
109477.4
109477.4
109477.4
109477.4
109477.4
109477.4
109477.4
109477.4
109477.4
109477.4
109477.4
109477.4
109477.4
109477.4
109477.4
109477.4
109477.4
109477.4
109477.4
109477.4
109477.4
109477.39
109477.39
109477.39
109477.39
109477.39
109477.39
109477.39
109477.39
109477.39
109477.39
109477.39
109477.39
109477.39
109477.39
109477.39
109477.39
109477.39
109477.39
109477.39
109477.39
109477.39
109477.39
109477.39
109477.39
109477.39
109477.39
109477.39
109477.39
109477.39
109477.39
109477.39
109477.39
109477.39
109477.39
109477.38
109477.38
109477.38
109477.38
109477.38
109477.38
109477.38
109477.38
109477.38
109477.38
109477.38
109477.38
109477.38
109477.38
109477.38
109477.38
109477.38
109477.38
109477.38
109477.38
109477.38
109477.38
109477.37
109477.37
109477.37
109477.37
109477.37
109477.37
109477.37
109477.37
109477.37
109477.37
109477.37
109477.37
109477.37
109477.37
109477.37
109477.37
109477.36
109477.36
109477.36
109477.36
109477.36
109477.36
109477.36
109477.36
109477.36
109477.36
109477.36
109477.35
109477.35
109477.35
109477.35
109477.35
109477.35
109477.35
109477.35
109477.35
109477.34
109477.34
109477.34
109477.34
109477.34
109477.34
109477.34
109477.34
109477.34
109477.33
109477.33
109477.33
109477.33
109477.33
109477.33
109477.33
109477.33
109477.33
109477.33
109477.32
109477.32
109477.32
109477.32
109477.32
109477.32
109477.32
109477.32
109477.32
109477.31
109477.31
109477.31
109477.31
109477.31
109477.31
109477.31
109477.31
109477.3
109477.3
109477.3
109477.3
109477.3
109477.3
109477.3
109477.29
109477.29
109477.29
109477.29
109477.29
109477.29
109477.29
109477.28
109477.28
109477.28
109477.28
109477.28
109477.27
109477.27
109477.27
109477.27
109477.27
109477.27
109477.26
109477.26
109477.26
109477.26
109477.26
109477.25
109477.25
109477.25
109477.25
109477.25
109477.25
109477.24
109477.24
109477.24
109477.24
109477.24
109477.24
109477.23
109477.23
109477.23
109477.23
109477.23
109477.23
109477.22
109477.22
109477.22
109477.22
109477.22
109477.22
109477.21
109477.21
109477.21
109477.21
109477.21
109477.21
109477.21
109477.21
109477.2
109477.2
109477.2
109477.2
109477.2
109477.2
109477.2
109477.2
109477.19
109477.19
109477.19
109477.19
109477.19
109477.19
109477.19
109477.19
109477.19
109477.19
109477.18
109477.18
109477.18
109477.18
109477.18
109477.18
109477.18
109477.18
109477.18
109477.18
109477.18
109477.17
109477.17
109477.17
109477.17
109477.17
109477.17
109477.17
109477.17
109477.17
109477.17
109477.17
109477.16
109477.16
109477.16
109477.16
109477.16
109477.16
109477.16
109477.16
109477.16
109477.16
109477.16
109477.15
109477.15
109477.15
109477.15
109477.15
109477.15
109477.15
109477.15
109477.15
109477.15
109477.14
109477.14
109477.14
109477.14
109477.14
109477.14
109477.14
109477.14
109477.13
109477.13
109477.13
109477.13
109477.13
109477.13
109477.13
109477.12
109477.12
109477.12
109477.12
109477.12
109477.12
109477.11
109477.11
109477.11
109477.11
109477.11
109477.1
109477.1
109477.1
109477.1
109477.1
109477.09
109477.09
109477.09
109477.09
109477.08
109477.08
109477.08
109477.08
109477.07
109477.07
109477.07
109477.07
109477.06
109477.06
109477.06
109477.06
109477.05
109477.05
109477.05
109477.05
109477.04
109477.04
109477.04
109477.03
109477.03
109477.03
109477.03
109477.02
109477.02
109477.02
109477.01
109477.01
109477.01
109477
109477
109476.99
109476.99
109476.99
109476.98
109476.98
109476.98
109476.97
109476.97
109476.97
109476.96
109476.96
109476.96
109476.96
109476.96
109476.95
109476.95
109476.95
109476.95
109476.95
109476.95
109476.95
109476.95
109476.95
109476.95
109476.95
109476.95
109476.95
109476.95
109476.95
109476.95
109476.95
109476.96
109476.96
109476.96
109476.96
109476.96
109476.96
109476.96
109476.97
109476.97
109476.97
109476.97
109476.98
109476.98
109476.99
109477
109477
109477.01
109477.02
109477.03
109477.04
109477.04
109477.05
109477.07
109477.08
109477.09
109477.1
109477.12
109477.13
109477.15
109477.16
109477.17
109477.19
109477.2
109477.22
109477.23
109477.25
109477.26
109477.28
109477.3
109477.31
109477.33
109477.35
109477.37
109477.38
109477.4
109477.41
109477.42
109477.43
109477.44
109477.45
109477.46
109477.47
109477.47
109477.47
109477.47
109477.46
109477.44
109477.41
109477.39
109477.36
109477.32
109477.28
109477.23
109477.17
109477.11
109477.04
109476.96
109476.88
109476.78
109476.68
109476.57
109476.44
109476.3
109476.15
109475.98
109475.79
109475.59
109475.36
109475.11
109474.84
109474.54
109474.22
109473.86
109473.47
109473.04
109472.57
109472.05
109471.49
109470.88
109470.22
109469.49
109468.7
109467.85
109466.91
109465.9
109464.8
109463.6
109462.31
109460.9
109459.38
109457.74
109455.96
109454.04
109451.97
109449.73
109447.32
109444.72
109441.92