/*--------------------------------*- C++ -*----------------------------------*\
  =========                 |
  \\      /  F ield         | OpenFOAM: The Open Source CFD Toolbox
   \\    /   O peration     | Website:  https://openfoam.org
    \\  /    A nd           | Version:  7
     \\/     M anipulation  |
\*---------------------------------------------------------------------------*/
FoamFile
{
    version     2.0;
    format      ascii;
    class       volScalarField;
    location    "0.00042";
    object      Uz;
}
// * * * * * * * * * * * * * * * * * * * * * * * * * * * * * * * * * * * * * //

dimensions      [0 1 -1 0 0 0 0];

internalField   nonuniform List<scalar> 
5000
(
0
0
0
0
0
-8.9452523e-17
-1.9086297e-31
2.6868023e-16
8.9567092e-17
-1.7912288e-16
-1.7909521e-16
8.9534694e-17
-7.6326276e-31
-7.8855229e-31
1.7895765e-16
-1.7892089e-16
-4.7563763e-48
-7.8786621e-31
-8.9400749e-17
1.7876332e-16
8.9361516e-17
0
0
-8.9302596e-17
7.6127208e-31
-7.3573552e-31
-8.924399e-17
8.9224714e-17
8.9205603e-17
-8.9186701e-17
1.5585995e-30
-7.6013566e-31
-8.9131582e-17
8.9113865e-17
8.9096537e-17
0
0
-8.9047241e-17
-8.9031801e-17
8.901689e-17
-1.4924662e-30
-8.8988697e-17
8.8975413e-17
-1.5044401e-30
-8.8950405e-17
8.8938633e-17
-3.0582339e-30
3.0452224e-30
-3.0574949e-30
1.5159383e-30
8.8885574e-17
0
0
0
0
0
0
0
0
0
0
0
0
-8.8759529e-17
-8.8749085e-17
8.8738467e-17
-1.5256843e-30
-2.0098174e-49
8.8705593e-17
0
0
-8.8671309e-17
-8.8659605e-17
0
8.8635841e-17
3.0603904e-30
-8.8611664e-17
-8.8599444e-17
8.8587147e-17
1.7714956e-16
-1.7712471e-16
5.0334778e-32
2.6561205e-16
-1.7704957e-16
-9.2073431e-30
1.769991e-16
-2.6546067e-16
8.847421e-17
8.8461513e-17
-8.8448801e-17
8.8436079e-17
8.8423348e-17
3.0781564e-30
-1.7679574e-16
-6.1168576e-30
-8.837239e-17
-8.8359651e-17
-3.1010484e-30
6.1509908e-30
1.7664291e-16
8.8308737e-17
-8.8296023e-17
1.2545814e-32
8.8270616e-17
0
-8.824524e-17
-3.0719574e-30
8.8219897e-17
-8.8207237e-17
-8.8194585e-17
1.7636388e-16
8.8169305e-17
-2.6447003e-16
-8.8144058e-17
2.6439434e-16
-8.8118846e-17
-8.8106254e-17
-5.0075455e-32
-8.80811e-17
2.6420562e-16
-6.1566467e-30
-1.7608693e-16
1.760619e-16
8.8018456e-17
-8.8005982e-17
8.7993534e-17
-8.7981113e-17
-1.7593745e-16
8.795637e-17
3.0369173e-30
8.7931787e-17
1.7583913e-16
-8.7907403e-17
-8.7895299e-17
-8.7883263e-17
-3.0593794e-30
-3.0464801e-30
3.058555e-30
1.7567184e-16
8.7824315e-17
-8.7812818e-17
-1.7560287e-16
-8.7790171e-17
-8.7779031e-17
6.0866221e-30
1.755143e-16
-2.4939031e-32
2.4936021e-32
1.6050307e-48
8.7715086e-17
-6.0822472e-30
1.2212957e-29
8.768509e-17
-8.7675385e-17
8.7665821e-17
3.0394404e-30
-8.76471e-17
8.763793e-17
-1.2452812e-32
-8.7619927e-17
0
8.7602307e-17
6.062079e-30
-1.7516995e-16
8.7576378e-17
-2.4888269e-32
-8.7559259e-17
8.7550702e-17
-8.7542124e-17
8.7533509e-17
-3.6468297e-29
-2.4276605e-29
8.7507264e-17
-1.7499665e-16
0
-6.0666523e-30
-1.819801e-29
8.7461178e-17
8.7451465e-17
6.0267031e-30
-8.7431428e-17
8.742108e-17
6.0121409e-30
3.726072e-32
1.2108198e-29
-1.7475448e-16
8.7365629e-17
8.7353743e-17
-6.0074007e-30
6.0189548e-30
-1.81535e-29
6.0295871e-30
-8.729009e-17
0
0
0
0
-8.7219403e-17
1.8179795e-29
8.718925e-17
8.7173795e-17
-8.7158098e-17
-8.7142168e-17
1.7425203e-16
6.0285851e-30
-1.8082314e-29
-8.7076298e-17
-8.7059343e-17
8.7042213e-17
0
8.7007475e-17
6.0202972e-30
-8.6972169e-17
-8.695433e-17
1.2107315e-29
8.6918334e-17
-1.7380039e-16
8.6881981e-17
8.6863695e-17
-8.6845349e-17
8.6826952e-17
0
0
0
8.6753018e-17
-8.6734487e-17
-1.734319e-16
8.6697413e-17
-6.0234091e-30
8.6660362e-17
8.6641858e-17
-1.7324675e-16
2.4614598e-32
-2.4609359e-32
8.6568083e-17
8.6549716e-17
-1.7306277e-16
1.2294249e-32
-1.8019567e-29
8.647662e-17
-4.801558e-29
-1.1989094e-29
8.6422228e-17
-8.6404183e-17
0
-8.6368223e-17
8.6350307e-17
8.6332433e-17
-8.6314601e-17
0
-8.6279058e-17
8.6261346e-17
8.6243671e-17
-2.9935194e-29
-1.7241686e-16
-1.7238173e-16
2.5851999e-16
1.7231166e-16
0
-1.7224184e-16
-8.6103509e-17
8.6086125e-17
8.6068768e-17
8.6051436e-17
-1.7206826e-16
-1.7203369e-16
8.5999581e-17
1.7196468e-16
2.384637e-29
-1.7189584e-16
8.5930734e-17
-1.1916035e-29
-8.589642e-17
1.7175858e-16
-8.5862171e-17
1.1955332e-29
8.5827981e-17
-8.5810907e-17
8.5793846e-17
-1.715536e-16
3.5781605e-29
1.7148548e-16
-1.7145145e-16
-5.9316318e-30
8.5691732e-17
0
0
8.5640819e-17
-8.5623867e-17
-1.7121385e-16
8.5589992e-17
-2.4321329e-32
8.5556153e-17
8.5539246e-17
-8.5522348e-17
0
-8.5488576e-17
-8.5471703e-17
0
1.7087596e-16
8.542113e-17
-1.7080858e-16
5.9093978e-30
-2.4263791e-32
8.5353808e-17
8.5336996e-17
-8.5320192e-17
8.5303395e-17
-8.5286606e-17
4.8470283e-32
1.705061e-16
-8.5236281e-17
-8.5219521e-17
-8.5202768e-17
-1.1815126e-29
8.5169283e-17
0
0
-8.5119109e-17
1.1815621e-29
-2.3614513e-29
-1.1823073e-29
8.505231e-17
-8.5035627e-17
1.208192e-32
8.5002283e-17
0
0
0
0
0
0
0
-8.4869182e-17
0
8.4835975e-17
0
-8.4802794e-17
-2.3519347e-29
8.4769641e-17
0
0
-8.471996e-17
-1.1760226e-29
8.4686873e-17
0
0
-8.4637292e-17
-8.4620778e-17
8.460427e-17
8.4587769e-17
0
-8.4554786e-17
1.2013616e-32
8.4521828e-17
-8.4505359e-17
-8.4488897e-17
8.447244e-17
8.445599e-17
0
-8.4423109e-17
-8.4406677e-17
8.4390252e-17
8.4373833e-17
0
-8.4341013e-17
-8.4324613e-17
8.4308218e-17
8.429183e-17
0
0
0
0
0
0
0
0
-8.41446e-17
-7.8779317e-48
8.4111947e-17
0
0
0
-8.4046707e-17
-1.1654845e-29
8.4014121e-17
-8.3997836e-17
1.1660003e-29
-1.1932184e-32
-1.1655485e-29
8.3932749e-17
-8.3916491e-17
8.3900238e-17
-4.6609671e-29
-8.3867747e-17
8.3851509e-17
0
0
-8.3802826e-17
-1.1632937e-29
8.3770395e-17
-8.3754187e-17
-8.3737984e-17
0
8.3705592e-17
8.3689402e-17
-8.3673218e-17
-2.3218006e-29
1.9544945e-48
-1.1610456e-29
8.3608524e-17
-8.3592362e-17
-7.8122656e-48
-1.1601482e-29
-8.35439e-17
0
0
8.3495476e-17
1.1863128e-32
-3.4728528e-29
8.3447088e-17
0
0
-8.3398734e-17
2.3118147e-29
8.3366517e-17
0
0
0
-8.3302125e-17
1.1835657e-32
8.3269949e-17
-8.3253866e-17
8.3237787e-17
-2.3132666e-29
-1.6641127e-16
8.3189566e-17
3.4643438e-29
1.1545582e-29
-1.1543352e-29
-8.3125313e-17
0
0
8.3077153e-17
1.1532208e-29
-2.3048159e-29
4.8683082e-49
-8.3012976e-17
8.2996937e-17
8.2980901e-17
0
-8.2948836e-17
-1.1514395e-29
8.291678e-17
0
0
-8.286871e-17
2.3548151e-32
4.8702789e-49
-8.2820658e-17
8.2804644e-17
-1.1470848e-29
1.1492155e-29
-2.2968104e-29
-8.2740605e-17
8.2724599e-17
-2.2966531e-29
2.2973838e-29
-2.2969393e-29
-8.2660589e-17
8.264459e-17
-2.2944316e-29
1.1493417e-29
0
-8.2580605e-17
8.2564611e-17
-1.1461054e-29
1.1728592e-32
-1.1456614e-29
1.1466118e-29
8.2484657e-17
-8.2468669e-17
-8.2452681e-17
8.2436695e-17
8.2420708e-17
0
-8.2388738e-17
-8.2372754e-17
0
8.2340786e-17
-1.142998e-29
1.1696787e-32
1.1413847e-29
-8.2276858e-17
8.2260877e-17
1.1407198e-29
-2.2833334e-29
-8.2212936e-17
-8.2196957e-17
1.6436196e-16
-1.1676349e-32
1.13939e-29
8.2133043e-17
-8.2117065e-17
1.1398919e-29
8.2085111e-17
0
0
0
-8.202121e-17
-8.2005236e-17
8.1989263e-17
8.1973291e-17
0
-8.1941349e-17
-8.192538e-17
8.1909412e-17
8.1893445e-17
0
-8.1861516e-17
-8.1845554e-17
8.1829594e-17
2.2718019e-29
-8.1797681e-17
0
0
0
0
8.1717947e-17
-2.2663801e-29
-8.1686078e-17
8.1670151e-17
1.1336877e-29
-1.1346269e-29
4.9071181e-49
8.1606493e-17
8.1590594e-17
-1.631494e-16
-1.132363e-29
1.1309838e-29
-8.1527074e-17
0
8.1495366e-17
8.1479528e-17
-8.14637e-17
-2.2593308e-29
8.1432079e-17
0
0
-8.1384745e-17
1.1285712e-29
8.1353261e-17
0
-8.132184e-17
1.15543e-32
-2.2572751e-29
-1.1272653e-29
8.1259204e-17
-8.1243591e-17
1.1543192e-32
-2.2551073e-29
-8.1196862e-17
8.1181324e-17
2.2538129e-29
1.1532151e-32
-1.1264762e-29
-8.1119349e-17
8.1103896e-17
0
-4.5013213e-29
-1.1242524e-29
-3.3721161e-29
-1.1514601e-32
-8.1011402e-17
8.0995999e-17
1.8856915e-48
-1.1241208e-29
2.2478131e-29
-1.1236919e-29
1.6183758e-16
-8.0903268e-17
-8.0887699e-17
-1.1228283e-29
1.1226105e-29
1.6168125e-16
-8.0824771e-17
-8.0808815e-17
5.0749433e-49
0
5.2234799e-49
-8.0743641e-17
8.0726916e-17
5.5217264e-49
-1.1191925e-29
-1.1464656e-32
-8.0657602e-17
1.6127906e-16
2.2386875e-29
-8.0602273e-17
1.1176698e-29
-1.1173961e-29
8.0543024e-17
-8.0522206e-17
-3.1176729e-48
-3.3532428e-29
2.2352425e-29
-2.2323008e-29
-2.2327651e-29
9.7609202e-49
0
8.0328754e-17
0
0
-8.0239501e-17
-2.2271914e-29
8.017321e-17
0
0
-1.6012334e-16
-6.6615093e-29
1.5995596e-16
-7.993299e-17
1.1352446e-32
-1.1084446e-29
-7.9783899e-17
0
0
0
-7.9546968e-17
-2.2047404e-29
7.9409435e-17
0
0
-7.9175586e-17
1.1239306e-32
7.8999254e-17
0
0
-7.8700359e-17
-2.1800757e-29
-2.1802341e-29
2.1757751e-29
7.822931e-17
-7.8097228e-17
2.1636583e-29
-2.1596453e-29
2.154346e-29
7.7505262e-17
0
0
-7.6988428e-17
-2.2399487e-46
7.6605938e-17
0
0
-7.5971035e-17
-1.7581624e-46
7.5504563e-17
0
0
-7.4736067e-17
-2.1212352e-46
7.417569e-17
0
0
-7.32596e-17
1.036447e-32
7.2596721e-17
-7.2249222e-17
1.9972876e-29
-1.9870264e-29
1.9754465e-29
7.0749504e-17
0
0
0
0
0
-6.8162146e-17
1.8786818e-29
6.7208389e-17
0
0
0
0
0
0
0
-6.2943164e-17
3.4615026e-29
6.1768131e-17
0
0
0
0
0
0
0
-5.6674023e-17
1.5541267e-29
5.5311744e-17
0
0
-5.3211325e-17
1.4584925e-29
5.1777012e-17
0
0
0
-4.8839974e-17
-1.336151e-29
4.7343534e-17
0
0
0
0
0
0
0
-4.1249703e-17
5.7529745e-33
3.9716559e-17
0
0
0
0
0
0
0
-3.3649512e-17
-4.6761453e-33
3.2165911e-17
0
0
0
-2.9260582e-17
1.5851064e-29
2.7844619e-17
0
-2.6456689e-17
-7.1605917e-30
2.5099236e-17
0
0
-2.3125063e-17
-2.2484547e-17
2.1853182e-17
2.1231177e-17
0
0
0
0
1.8267838e-17
-2.5161132e-33
-3.4307465e-17
-1.6612413e-17
3.2163397e-17
3.1123316e-17
-1.5052348e-17
-1.4553813e-17
0
0
0
0
-1.2223396e-17
-3.2754473e-30
1.136679e-17
0
0
0
0
0
0
0
0
0
0
0
0
0
0
-6.2551571e-18
3.3272682e-30
5.7359931e-18
0
0
5.0213423e-18
-1.3327332e-30
6.5165554e-34
-4.3794361e-18
-4.1808001e-18
-2.2150584e-30
1.0572355e-30
3.6283494e-18
0
0
0
0
0
-2.7026081e-18
1.426597e-30
2.4418235e-18
0
0
0
0
0
0
0
-1.6007847e-18
8.4132889e-31
1.4345552e-18
0
0
0
0
0
0
0
-9.1036575e-19
7.1492003e-31
8.0926141e-19
0
0
0
0
0
0
0
0
-4.671038e-19
6.2323187e-35
4.1159822e-19
0
0
0
0
-2.979353e-19
2.7895816e-19
2.610874e-19
-4.8853166e-19
-6.3432896e-32
2.1355382e-19
0
0
0
0
-1.5158695e-19
3.9238315e-32
2.6361877e-19
-1.2283932e-19
-1.1443565e-19
1.0656594e-19
0
0
0
-7.983326e-20
-2.0583104e-32
6.8940214e-20
6.4027933e-20
-5.9443133e-20
-5.5165749e-20
5.1176816e-20
0
0
-4.0766429e-20
-3.7761811e-20
3.496554e-20
3.2364228e-20
2.9945262e-20
1.5381684e-32
-2.560758e-20
0
0
0
-1.8643009e-20
-1.7204883e-20
1.587185e-20
1.463672e-20
1.3492756e-20
3.4508091e-33
-1.1453483e-20
0
0
0
-8.2169711e-21
2.0969287e-33
6.9447015e-21
0
0
0
0
0
0
0
-3.4927834e-21
8.8814829e-34
5.8617877e-21
7.4512288e-34
-2.4559105e-21
0
0
-1.8788034e-21
2.4401635e-37
-4.3562078e-34
3.9764845e-34
1.3080914e-21
1.193845e-21
-3.0244837e-34
-9.9337725e-22
0
0
-7.5202967e-22
5.7037368e-34
1.7306977e-34
-8.065417e-38
5.1637553e-22
-4.6965199e-22
-4.2701015e-22
7.7621502e-22
-1.9563561e-34
-3.202845e-22
2.9080839e-22
0
-2.3950146e-22
-6.0353928e-35
1.969805e-22
0
-1.6179063e-22
1.4655484e-22
-1.4736531e-34
-1.2013208e-22
1.0871059e-22
0
-8.8933014e-23
0
7.2657233e-23
0
-5.9282259e-23
5.3521936e-23
-2.6799549e-35
-4.3583041e-23
3.9309474e-23
0
-3.1947488e-23
-7.9934852e-36
2.5930244e-23
0
-2.1019112e-23
1.8914906e-23
-4.8362936e-39
-1.5303273e-23
1.3758101e-23
0
-1.1109147e-23
-9.978362e-24
8.9593428e-24
8.0419571e-24
-7.2161732e-24
6.4728714e-24
5.804604e-24
-5.2035687e-24
0
0
0
0
0
0
-2.4000882e-24
-1.1567713e-53
3.8370404e-24
-1.7144428e-24
-1.5314925e-24
1.3677442e-24
0
0
-9.7255958e-25
-8.6748099e-25
7.735993e-25
6.8969856e-25
0
-5.4753341e-25
-1.3550752e-37
4.3419648e-25
0
0
-3.0586279e-25
-2.7201877e-25
2.4172128e-25
2.1486899e-25
0
-1.6982807e-25
4.1783679e-38
1.3345082e-25
-1.1870739e-25
-5.8497151e-38
-1.3298191e-41
-8.3140772e-26
7.3565144e-26
6.490148e-26
0
0
-4.5243577e-26
1.1150674e-38
3.5566619e-26
0
-2.8169573e-26
-2.4927032e-26
2.2140474e-26
1.9303251e-26
0
0
0
0
0
0
-8.0050226e-27
1.9967158e-39
6.2824228e-27
0
0
0
0
0
0
-2.6852291e-27
-2.9272999e-56
1.8745939e-27
1.7225998e-27
3.7946284e-40
-1.1146234e-27
0
0
0
0
-5.06647e-28
-1.1249103e-40
5.06647e-28
-5.573117e-28
-3.546529e-28
1.013294e-28
-8.4368274e-41
-8.4382674e-41
-1.2653081e-40
7.0378894e-41
-1.6882295e-40
1.1249103e-40
3.546529e-28
0
-4.559823e-28
2.9528896e-40
-3.5999434e-44
-2.533235e-28
2.026588e-28
2.026588e-28
-1.519941e-28
2.8122758e-41
-4.2169737e-41
2.8129958e-41
5.6216717e-41
-2.8108358e-41
0
-2.026588e-28
2.533235e-28
5.06647e-29
-5.06647e-29
-3.8600304e-54
1.6873655e-40
4.2184137e-41
-1.4068579e-41
6.227877e-56
2.8122758e-41
-2.533235e-28
0
-2.026588e-28
2.8122758e-41
3.2944369e-71
-3.039882e-28
0
3.039882e-28
-2.533235e-28
-1.519941e-28
5.06647e-29
0
0
0
0
-5.06647e-29
2.8122758e-41
-1.1251983e-40
1.519941e-28
1.013294e-28
-5.06647e-29
0
0
0
0
1.013294e-28
7.1998869e-45
-1.519941e-28
0
0
0
0
0
0
0
2.533235e-28
3.039882e-28
-3.039882e-28
-2.026588e-28
0
0
0
0
0
0
1.013294e-28
5.06647e-29
-5.06647e-29
-5.06647e-29
0
0
0
0
0
0
-1.013294e-28
-5.06647e-29
1.013294e-28
3.546529e-28
0
0
0
0
0
0
1.519941e-28
-1.1251983e-40
-3.039882e-28
0
0
0
0
0
0
-2.533235e-28
2.8137158e-41
-2.3520329e-43
0
0
0
0
-2.026588e-28
-7.1998869e-45
5.06647e-29
-5.06647e-29
-5.1475576e-72
1.013294e-28
-1.519941e-28
2.8137158e-41
1.013294e-28
-2.533235e-28
-1.4064979e-40
-1.6877975e-40
7.806133e-56
-1.9685931e-40
-2.8108358e-41
-1.519941e-28
3.546529e-28
2.533235e-28
-2.026588e-28
2.8108358e-41
-2.026588e-28
0
1.519941e-28
-2.8137158e-41
1.4075779e-41
4.2176937e-41
1.2655241e-40
1.1243343e-40
-8.4368274e-41
-2.8115558e-41
7.0378894e-41
2.533235e-28
0
5.06647e-29
2.1599661e-44
4.2176937e-41
-1.6873655e-40
2.8799547e-44
5.6245516e-41
-7.0342895e-41
-2.533235e-28
0
-1.519941e-28
5.6245516e-41
7.1998869e-45
5.06647e-29
0
-5.06647e-29
1.519941e-28
1.013294e-28
5.3455294e-44
0
0
1.013294e-28
-3.375163e-40
1.6865015e-40
3.1405798e-53
-4.2227337e-41
1.013294e-28
1.519941e-28
-2.533235e-28
0
0
0
0
5.06647e-29
5.6274316e-41
2.8122758e-40
-3.039882e-28
-2.533235e-28
1.013294e-28
0
0
0
0
3.039882e-28
2.026588e-28
-5.06647e-29
-5.06647e-29
0
0
0
0
0
0
1.519941e-28
2.533235e-28
-1.013294e-28
-1.519941e-28
0
0
0
0
0
0
-1.013294e-28
-7.0390337e-53
-1.013294e-28
2.8293423e-41
1.2159528e-27
3.546529e-28
0
9.119646e-28
-2.2503966e-40
1.708947e-54
-1.013294e-28
-3.039882e-28
-2.026588e-28
2.026588e-28
1.519941e-28
-1.519941e-28
1.013294e-28
-7.1998869e-45
1.519941e-28
4.559823e-28
-4.559823e-28
-2.533235e-28
1.519941e-28
5.06647e-29
5.0399208e-44
-4.053176e-28
0
0
0
4.053176e-28
-1.013294e-28
-4.053176e-28
3.546529e-28
-2.533235e-28
5.06647e-29
-2.026588e-28
3.9030665e-56
-1.519941e-28
2.026588e-28
3.039882e-28
2.026588e-28
-6.079764e-28
2.533235e-28
-4.3879005e-67
-7.599705e-28
4.053176e-28
-5.06647e-29
-2.026588e-28
-1.013294e-28
1.013294e-28
-5.06647e-29
-1.013294e-28
5.06647e-29
1.519941e-28
-1.519941e-28
-5.06647e-29
5.45244e-43
1.519941e-28
-5.06647e-29
-2.8799547e-44
4.559823e-28
-3.546529e-28
5.0612325e-40
-1.6876535e-40
-1.519941e-28
1.013294e-28
2.026588e-28
7.093058e-28
-1.519941e-28
-2.026588e-28
6.079764e-28
-3.546529e-28
3.039882e-28
2.533235e-28
-3.039882e-28
-1.013294e-28
2.4589435e-43
-3.039882e-28
-1.013294e-28
1.013294e-28
1.519941e-28
1.519941e-28
1.2159528e-27
-1.1249103e-40
1.013294e-28
1.013294e-28
0
-2.026588e-28
-2.2495327e-40
-1.519941e-28
1.013294e-28
3.374731e-40
-3.546529e-28
-2.533235e-28
-2.026588e-28
0
0
0
3.039882e-28
-5.6259916e-41
-5.06647e-28
3.546529e-28
3.039882e-28
1.0584148e-41
-1.6873655e-40
-5.06647e-28
1.013294e-28
0
0
0
-4.053176e-28
1.013294e-28
1.013294e-28
-8.6026424e-41
2.8799547e-44
5.06647e-28
0
0
1.519941e-28
-1.4064979e-40
-6.079764e-28
1.81748e-42
-4.053176e-28
1.519941e-28
-2.5306162e-40
-3.039882e-28
7.26992e-43
-1.013294e-28
5.06647e-28
1.013294e-28
6.748886e-40
2.026588e-28
-5.5529537e-41
3.039882e-28
-1.1519819e-43
-3.039882e-28
1.9685931e-40
-3.546529e-28
-2.533235e-28
5.6245516e-41
1.519941e-28
7.8518892e-56
1.519941e-28
1.013294e-28
9.3673596e-55
7.093058e-28
-3.546529e-28
2.026588e-28
-1.013294e-28
-1.013294e-28
3.375163e-40
-5.06647e-29
-2.026588e-28
-5.06647e-29
-5.6959929e-41
-1.519941e-28
0
3.546529e-28
2.2498207e-40
-2.8122758e-41
-2.5304002e-40
4.053176e-28
-2.8122758e-40
2.026588e-28
-3.374731e-40
-4.559823e-28
1.013294e-28
-9.119646e-28
-3.039882e-28
4.5713522e-42
1.013294e-28
-6.079764e-28
2.026588e-28
4.559823e-28
0
0
-1.519941e-28
-2.026588e-28
0
2.026588e-28
3.039882e-28
-9.119646e-28
1.4623834e-39
2.1279174e-27
-8.4368274e-40
-9.119646e-28
-8.612999e-28
-9.626293e-28
1.3172822e-27
1.5706057e-27
-1.7732645e-27
-5.7757758e-27
2.2292468e-27
1.1146234e-26
-3.4451996e-27
-8.0050226e-27
-4.4078289e-27
0
5.8264405e-27
0
7.3970462e-27
-8.4103402e-27
2.1148314e-38
-1.0690252e-26
4.0834245e-38
4.2558348e-26
-1.6162039e-26
-1.8340621e-26
2.0772527e-26
2.3660415e-26
-2.7105614e-26
-9.3476371e-26
3.5667949e-26
1.6172172e-25
-7.6450703e-38
-5.2336635e-26
-1.192647e-25
-6.7890698e-26
1.54426e-25
4.8596126e-38
1.4133378e-41
-1.1298228e-25
2.8415235e-37
1.4520503e-25
-4.945888e-25
2.0748971e-37
4.2396221e-25
0
0
3.0890267e-25
-1.9441263e-37
-7.9330787e-25
4.4899057e-25
1.0165365e-24
5.7514567e-25
-7.2212e-37
-2.2077143e-24
-8.3221836e-25
9.4084347e-25
-2.1260935e-24
6.8254928e-40
4.5169566e-36
1.5311379e-24
3.4561432e-24
-5.8494929e-24
2.4420742e-36
4.9593648e-24
0
0
-7.1000497e-24
8.8772298e-36
4.9961909e-36
1.440107e-39
1.7104808e-23
1.2827289e-23
-1.2012127e-35
-2.4323616e-23
-9.1120969e-24
1.0237867e-23
-2.2997113e-23
-1.4328644e-35
4.8257403e-35
1.6260481e-23
3.6481117e-23
-6.1365034e-23
2.2930995e-23
2.5698706e-23
-2.879128e-23
3.22457e-23
-7.2206722e-23
4.4860861e-35
4.5215053e-23
7.1872583e-39
1.1310803e-22
-1.264371e-22
1.1762169e-34
1.5784182e-22
-8.8136362e-23
0
1.0981401e-22
6.798924e-35
-4.0993964e-22
1.5235483e-22
3.3962707e-22
1.8921087e-22
2.1075507e-22
-2.3467539e-22
-2.6122425e-22
-2.9068046e-22
3.2335134e-22
-1.9959149e-34
2.2181995e-34
-4.4420615e-22
5.4797254e-34
-5.4802516e-22
2.026254e-33
2.0256077e-21
-1.4981722e-21
3.3040551e-50
9.2105709e-22
1.133105e-33
-6.2793707e-34
-3.757812e-21
1.3868417e-21
4.60482e-21
0
0
-2.0767778e-21
-2.2953923e-21
-5.072284e-21
2.8011711e-21
6.1856411e-21
-6.8272927e-21
3.7664371e-21
1.2462701e-20
-4.5803512e-21
-5.0484023e-21
-5.5623222e-21
-6.1263943e-21
1.3490561e-20
7.4240516e-21
-8.1682216e-21
-2.6951348e-20
9.877244e-21
-5.3183302e-48
1.9857358e-32
2.6197555e-20
-2.8761595e-20
-3.1565174e-20
1.7314742e-20
3.797748e-20
-4.1633999e-20
-2.2812959e-20
7.4973447e-20
8.2101829e-20
-2.995831e-20
-6.5565141e-20
-3.5859837e-20
2.176533e-32
8.5720785e-20
4.6831482e-20
-5.1151421e-20
-1.1169793e-19
8.6622362e-36
1.3300604e-19
-1.4505722e-19
1.3169254e-31
1.7233879e-19
-9.3870249e-20
-2.0444087e-19
-2.2254195e-19
0
1.3169578e-19
4.2957407e-19
1.5563043e-19
-1.6908481e-19
0
0
0
0
2.5446344e-19
-1.5309926e-31
-8.9653347e-19
3.2366728e-19
1.0512405e-18
3.7921972e-19
-6.8324494e-31
-8.8720398e-19
-4.794961e-19
5.1808732e-19
-1.1191201e-18
-6.0410968e-19
2.1714538e-30
7.0328018e-19
1.5167044e-18
-2.4522139e-18
2.5030905e-34
9.485021e-19
-1.4510843e-34
1.0988245e-18
1.1819674e-18
-1.4108665e-30
-4.0977276e-18
4.1707127e-34
4.7275813e-18
3.3831744e-18
-1.0069769e-30
-3.8934327e-18
-2.0870526e-18
2.2365634e-18
-4.7915457e-18
-2.5652296e-18
9.143009e-30
2.9372035e-18
6.2818895e-18
-1.0072148e-17
3.9833534e-30
3.8310954e-18
4.0898145e-18
4.36412e-18
2.5824489e-30
-2.7539722e-30
-1.0577327e-17
-3.1262625e-30
1.1996723e-17
-1.2767938e-17
3.3929529e-29
2.166485e-17
-1.5351438e-17
9.0553514e-30
1.731976e-17
-9.1921935e-18
-9.7528862e-18
-2.068633e-17
1.0964268e-17
3.4852393e-17
0
0
0
-4.373274e-17
-4.6233864e-17
4.8855894e-17
5.1603207e-17
-3.6320162e-17
5.4466895e-33
-2.0213851e-17
7.0989676e-29
6.7376492e-17
-7.0970732e-17
1.2445114e-28
5.2424252e-17
1.5300877e-29
-1.609577e-29
-6.093281e-17
3.2003251e-17
-3.3602118e-17
1.1746717e-28
1.1097659e-16
-1.1635956e-16
-4.0649077e-17
9.4543587e-29
-8.9169767e-17
9.3322124e-17
4.8811324e-17
5.1037047e-17
1.6001871e-16
-6.1857868e-29
-5.8180126e-17
-1.8216179e-16
4.2192028e-28
1.9814273e-16
0
-7.1709437e-17
-1.493365e-16
7.7713396e-17
-8.0845591e-17
2.7997631e-28
1.747471e-16
-2.7231094e-16
2.0925042e-28
1.0866311e-28
1.1267572e-28
1.1684332e-28
-1.0909342e-16
3.3907904e-16
3.511451e-16
-1.2115912e-16
-2.5071628e-16
0
1.340185e-16
-1.5369264e-28
3.1755542e-28
-1.6391689e-28
-1.5236494e-16
1.5715897e-16
1.6203336e-16
-5.0095981e-16
2.6236e-44
2.9500059e-28
-1.8230267e-16
2.0810681e-28
-3.8574986e-16
3.9652669e-16
4.074339e-16
2.0923337e-16
-2.3844137e-28
-2.2044467e-16
0
0
0
-4.8701214e-16
2.4938785e-16
5.1062036e-16
-7.8380973e-16
2.6726384e-16
8.1986606e-16
-8.3802339e-16
9.5057135e-28
5.8303043e-16
-8.9288983e-16
-6.075169e-16
0
6.3208504e-16
1.0729509e-27
3.2833859e-16
6.6896401e-16
-3.4061744e-16
0
-7.0569916e-16
-1.0201657e-31
-4.0521146e-28
3.7104542e-16
1.1311658e-15
-1.1490937e-15
6.4805481e-28
1.1846007e-15
-1.2021579e-15
2.0312082e-27
8.245503e-16
-4.1797146e-16
4.2360865e-16
-8.5836642e-16
-4.3469168e-16
1.9544476e-27
4.4549671e-16
9.0157305e-16
4.5599679e-16
4.6112425e-16
-9.3233137e-16
-4.7111793e-16
0
4.8074241e-16
-2.6950761e-28
8.2934022e-46
-4.9443379e-16
1.4176382e-31
-5.0303041e-16
8.8983527e-45
1.5335283e-15
-1.5452194e-15
-1.5565483e-15
1.0450049e-15
1.0520595e-15
0
-1.0653948e-15
5.3583306e-16
1.6165006e-15
-1.62509e-15
9.0673851e-28
1.0940043e-15
-5.4944041e-16
0
5.5387798e-16
5.558735e-16
-5.5771774e-16
9.3154343e-28
-1.1218909e-15
-3.1964509e-31
1.6906434e-15
0
-1.6965375e-15
-1.1325044e-15
1.700485e-15
1.1344794e-15
-1.7024554e-15
-5.6756266e-16
2.2698613e-15
5.6719162e-16
-1.1334924e-15
-1.1322589e-15
6.276142e-28
5.6437967e-16
5.632455e-16
5.6193787e-16
-5.6045647e-16
6.2035409e-28
-1.113943e-15
1.8482957e-27
1.6583699e-15
0
0
-1.0904293e-15
1.2043221e-27
5.3930095e-16
-1.6082614e-15
5.3270326e-16
8.8100565e-28
1.749921e-27
1.564629e-15
-5.1749139e-16
2.8483465e-28
-5.6495739e-28
-5.0436604e-16
4.9967421e-16
-7.0319269e-32
2.7189262e-28
-5.3800182e-28
-4.7938817e-16
0
4.6837411e-16
-9.2532129e-16
-4.5681439e-16
9.0167833e-16
0
-4.3851816e-16
4.32181e-16
8.5146426e-16
-1.2575289e-15
1.3741092e-27
1.3513785e-27
-3.9891759e-16
1.1759558e-15
-5.4707874e-32
-3.7788493e-16
-3.7072865e-16
3.6350967e-16
3.5623418e-16
-3.489085e-16
0
3.3413236e-16
-6.5339008e-16
5.3168775e-28
3.1175534e-16
6.7565059e-28
6.5884436e-28
8.2219746e-32
5.6361211e-16
-8.230323e-16
-8.0071787e-16
0
5.0425627e-16
7.344054e-16
3.3754468e-32
-2.30307e-16
-2.2315125e-16
2.1606488e-16
2.0905388e-16
-2.0212409e-16
0
-3.7706088e-16
-3.6375448e-16
5.2597952e-16
1.6888299e-16
-1.6255118e-16
4.443316e-32
1.5023924e-16
2.8853348e-16
1.3842113e-16
-2.2102259e-28
-5.0849033e-16
4.0523286e-28
3.4909375e-16
-1.1119348e-16
-1.0616314e-16
-1.012748e-16
9.6529375e-17
9.1927507e-17
8.7469513e-17
2.3634201e-32
-7.8985052e-17
7.4957813e-17
-2.1321883e-16
-1.3465878e-16
1.9117766e-16
-6.0260881e-17
-1.1386531e-16
1.0747846e-16
-5.0678459e-17
4.7748008e-17
8.9890727e-17
-1.2680365e-16
3.9712731e-17
-1.2417063e-28
-1.0487299e-16
6.5503084e-17
3.0655431e-17
2.8666024e-17
5.3559983e-17
-2.4993897e-17
-5.9732585e-72
-4.341573e-17
-2.0200998e-17
2.0848987e-29
1.7442318e-17
3.236733e-17
-3.0001833e-17
1.3890749e-17
3.8549648e-17
-3.5625158e-17
-1.0963103e-17
4.2804539e-45
-9.3155055e-18
2.572163e-17
7.8831724e-18
-7.2406383e-18
-1.3287113e-17
6.0893488e-18
-5.5754978e-18
1.6984077e-29
9.3187961e-18
-1.2757776e-17
-4.3063934e-30
1.5681457e-29
-7.1309346e-30
5.8376121e-18
-5.2986205e-18
2.4019594e-18
8.7006851e-18
-1.9675011e-18
-3.5550648e-18
0
-2.8911845e-18
2.8891315e-30
6.649704e-34
1.1660416e-30
9.4186913e-19
8.4350375e-19
-7.5445758e-19
-6.739647e-19
1.2026433e-18
-1.0718078e-18
5.2963516e-31
8.4867001e-19
-7.5425306e-19
-1.1157367e-30
3.3032619e-31
2.6432466e-19
4.699821e-19
-2.091717e-19
1.8655918e-19
-9.2595974e-32
-1.4965542e-19
-2.6955767e-19
1.2330579e-19
2.3427545e-19
-1.1356662e-19
1.0790779e-19
-1.7874252e-31
1.1659669e-19
2.7111125e-31
-2.2776819e-19
-2.2439474e-19
-2.8412861e-31
4.5841413e-31
-4.1298088e-31
1.0503528e-19
1.0474993e-19
1.1705011e-19
-1.1722497e-19
0
0
8.4479381e-20
-5.4000222e-32
-1.3136688e-35
-7.2763326e-32
-5.8457337e-20
0
9.6468208e-20
1.4283705e-19
-5.8068966e-20
-1.7513911e-19
-2.297415e-19
-1.9710487e-19
2.2719211e-19
3.0570243e-31
-3.5908839e-19
2.2764895e-19
1.682108e-19
0
9.8588175e-20
-2.0914092e-19
-8.6446214e-20
1.5018406e-19
8.7447135e-20
-1.1469507e-31
-2.9787347e-19
7.7959978e-20
2.1584597e-19
-2.6438672e-19
-9.7682658e-20
2.4819422e-19
-7.3455739e-32
-6.7337346e-20
-1.4716752e-19
-7.6548327e-32
1.2138425e-19
-1.348606e-19
8.0336619e-20
2.3790643e-19
0
-6.9870583e-20
-1.6515417e-19
4.687934e-32
-6.9687465e-20
-1.2902915e-19
1.6013226e-19
1.8433012e-19
0
5.611271e-20
5.9523818e-32
7.6465781e-32
8.2806655e-32
-1.7790218e-19
-9.2824123e-20
0
1.1034621e-19
1.1374613e-31
4.2995998e-20
1.3801053e-19
-5.3445412e-20
2.675424e-32
-5.7555001e-36
-4.498152e-20
-1.0205416e-19
5.535251e-20
1.3325466e-19
-7.6252298e-20
0
-1.0710312e-19
5.2396633e-20
1.4722492e-19
-3.4339565e-20
-2.7601605e-20
-5.8602259e-20
1.6594247e-20
2.8342216e-20
-1.8696735e-20
2.9656479e-32
5.2094889e-20
-2.5178715e-20
-2.9424008e-20
-6.7863481e-20
-1.051381e-19
6.9434688e-20
7.1884735e-20
-7.5190342e-20
-4.1243074e-32
7.3615847e-20
-7.869483e-20
-4.6679063e-32
8.6632886e-20
0
-9.2541429e-20
-8.5262326e-20
0
8.6381385e-20
2.8135788e-20
8.3605747e-36
2.9080993e-20
2.7867218e-20
2.7897942e-32
-4.0730445e-20
-3.401118e-20
5.9565868e-32
3.8573936e-20
-4.4243907e-20
-8.1685296e-32
4.7477674e-20
0
0
0
0
-5.3433137e-20
-3.3180947e-32
5.5449111e-20
2.4952738e-20
-5.1564492e-20
9.2272672e-32
5.0910231e-20
-3.8733913e-20
-1.6177983e-32
1.4535995e-20
-3.0455514e-20
3.7978656e-32
1.8379322e-20
-1.8557649e-20
-1.0855392e-20
-3.9997742e-21
-1.6522642e-20
0
0
0
0
-8.7715771e-21
1.0341775e-20
1.09943e-20
-1.3722777e-32
9.8471462e-75
-8.7278584e-21
-1.1847148e-20
-3.1785807e-21
1.6063252e-21
-7.9723553e-21
5.6277624e-21
1.1656012e-20
-1.6905635e-20
-1.6206755e-20
2.7757169e-20
1.6389414e-20
7.5610092e-21
8.2132323e-33
-1.1590113e-20
0
8.3026425e-22
1.399305e-21
-3.4555463e-33
-4.947139e-37
-8.8192346e-33
-3.3790415e-21
-5.5883749e-21
2.5666499e-36
2.3038641e-20
2.0047272e-20
-3.1687019e-32
-2.1431685e-20
0
0
0
-1.5064495e-20
-1.35897e-20
1.0931258e-20
1.1556871e-20
-1.231127e-20
2.5120481e-20
4.3199915e-20
0
-2.534886e-20
-1.2931488e-32
-1.2850314e-20
-3.8612304e-20
1.0838611e-20
-1.6956602e-32
2.0851208e-20
-5.581911e-32
-1.4043742e-20
-4.4948366e-33
-1.3141055e-36
8.8768133e-21
-6.4835129e-21
1.0992469e-20
7.0644863e-21
-1.7361101e-20
1.6436664e-20
1.8199825e-36
-7.1702283e-33
-8.0862368e-21
-2.6472018e-20
1.69262e-20
-6.7468063e-50
9.1063998e-21
-1.5265708e-32
-1.7208127e-20
8.8378311e-21
1.9782216e-20
-1.2163879e-32
-3.510253e-20
3.4517576e-36
1.2467993e-20
-1.2902679e-20
2.6273329e-20
1.3038604e-20
-2.651608e-20
2.8280591e-20
1.6708582e-32
-7.6599736e-32
2.872132e-32
-2.9036552e-20
3.2742332e-20
-1.7365545e-20
-3.5732017e-20
1.792593e-20
-1.7266026e-20
3.4022954e-20
-2.971836e-32
-5.4474609e-20
0
0
5.1136586e-20
1.7207914e-20
-3.2158339e-20
3.0325273e-20
8.7192846e-36
-7.044998e-32
-1.7329629e-32
-2.9141811e-20
2.790467e-20
2.8024113e-20
-1.3882612e-20
-3.9479914e-20
-1.2567629e-20
1.2446155e-20
0
0
-1.1470454e-20
6.4051034e-33
3.6551491e-20
3.5652815e-36
-2.4765837e-20
-1.2043865e-20
1.3220072e-32
3.6877796e-20
2.8943779e-32
-2.6994018e-20
0
-1.3710044e-20
2.8280797e-20
1.4681866e-20
-3.2666441e-32
-1.4908899e-20
-3.1002901e-20
1.626476e-20
0
0
0
0
-1.7916567e-20
1.0158352e-32
4.9121558e-20
-1.5637909e-20
-4.7982881e-20
4.8293118e-20
1.712005e-20
-3.5417543e-20
-1.8004548e-20
-2.9417206e-32
4.607606e-20
-7.7495744e-36
-4.5465632e-32
-1.4244976e-20
-2.965687e-20
-1.4874578e-20
-1.5879959e-32
1.3069502e-20
1.2130841e-20
1.183354e-20
1.1744749e-20
-2.4980332e-32
-2.0728779e-20
0
0
-8.3750982e-21
-1.2375075e-32
-9.7821544e-37
9.5190336e-37
6.3562539e-21
1.0941919e-20
8.851074e-21
-7.6634298e-21
-4.0842361e-33
-3.5523781e-21
-9.4086981e-21
0
0
1.491875e-21
1.4249325e-21
0
-7.2909005e-22
6.9197136e-35
-1.0542263e-22
-7.348878e-23
5.6308724e-22
-8.3704126e-34
1.6465278e-22
-4.227974e-22
-4.7105459e-22
-2.9846471e-22
-2.4261813e-22
-1.3116084e-21
4.0170265e-22
-2.3862195e-34
1.4519585e-21
1.1490569e-21
-2.9444856e-21
3.3056001e-21
-6.6740633e-49
-4.8297935e-21
0
0
7.3355572e-21
-4.3362165e-33
-1.4086213e-32
-6.0511642e-49
-1.4966859e-20
-6.1525716e-33
6.1828592e-21
1.331768e-20
1.3731229e-20
-1.3930502e-20
-1.5673582e-32
-7.4058178e-21
-2.6780078e-32
8.4795902e-21
-1.728052e-20
0
-8.0265888e-21
9.0867046e-33
9.0797594e-21
1.9260185e-20
1.0892456e-32
-1.9385173e-20
0
0
-8.7007715e-21
5.2063432e-33
2.9035337e-20
1.0742464e-32
-1.8700556e-20
0
8.2211395e-21
-8.6207118e-21
-8.9101156e-21
-8.8733156e-21
-8.4986704e-21
1.5991868e-20
2.2301594e-20
-7.1963773e-21
-1.4563821e-20
2.1725428e-20
2.2555224e-49
-1.2652697e-20
0
0
0
0
9.3255341e-21
8.4360833e-21
-4.0706973e-21
-1.2194492e-20
-4.3422984e-33
3.4792971e-21
-5.6313895e-21
-4.4198908e-21
1.9291184e-21
7.7335738e-21
3.9446724e-21
-5.6813901e-21
-3.431816e-21
4.2044812e-21
2.0442826e-33
-1.0237275e-21
0
0
0
1.7384459e-21
7.2690146e-34
-6.7472688e-34
1.7241478e-22
-1.2773186e-21
8.131e-22
1.1013667e-21
-3.5583766e-21
-2.1549914e-21
9.9405001e-22
2.3006126e-21
3.0587041e-21
-6.5534156e-33
2.5566707e-33
-6.969928e-37
-4.9025674e-21
0
-2.8317926e-21
-3.3046595e-21
3.7394663e-21
3.999424e-21
-4.1026505e-21
-4.2118714e-21
8.9237852e-21
4.8013111e-21
-5.1042604e-21
5.214339e-21
-5.2311767e-21
-1.0767878e-20
0
0
1.8455768e-20
6.0836252e-21
-1.188511e-20
-5.9353076e-21
-6.1068478e-21
1.2688333e-20
-7.2276286e-33
-1.302292e-20
0
6.1378474e-21
1.7818372e-20
1.2905955e-32
-3.2221901e-32
1.1669798e-20
-1.7314339e-20
-5.5907503e-21
-1.5135255e-36
5.0243695e-21
-8.0378845e-33
-7.9548682e-33
1.411832e-20
-1.3501573e-20
2.0587898e-32
-6.1502589e-33
-7.0532041e-21
3.5717791e-21
-3.5480768e-21
6.678428e-21
2.9659193e-21
-5.2024925e-21
4.8808452e-21
-1.3816957e-36
-1.8541252e-32
-1.2355451e-36