/*--------------------------------*- C++ -*----------------------------------*\
  =========                 |
  \\      /  F ield         | OpenFOAM: The Open Source CFD Toolbox
   \\    /   O peration     | Website:  https://openfoam.org
    \\  /    A nd           | Version:  7
     \\/     M anipulation  |
\*---------------------------------------------------------------------------*/
FoamFile
{
    version     2.0;
    format      ascii;
    class       volScalarField;
    location    "0.00307";
    object      rho;
}
// * * * * * * * * * * * * * * * * * * * * * * * * * * * * * * * * * * * * * //

dimensions      [1 -3 0 0 0 0 0];

internalField   nonuniform List<scalar> 
5000
(
1.2479599
1.2479599
1.2479601
1.2479604
1.2479607
1.2479609
1.247961
1.2479611
1.2479612
1.2479612
1.2479613
1.2479613
1.2479613
1.2479613
1.2479613
1.2479613
1.2479613
1.2479613
1.2479613
1.2479613
1.2479613
1.2479613
1.2479613
1.2479613
1.2479613
1.2479613
1.2479613
1.2479613
1.2479613
1.2479613
1.2479613
1.2479613
1.2479613
1.2479613
1.2479613
1.2479613
1.2479613
1.2479613
1.2479613
1.2479613
1.2479613
1.2479613
1.2479613
1.2479613
1.2479613
1.2479613
1.2479613
1.2479613
1.2479613
1.2479613
1.2479613
1.2479613
1.2479613
1.2479613
1.2479613
1.2479613
1.2479613
1.2479613
1.2479613
1.2479613
1.2479613
1.2479613
1.2479613
1.2479613
1.2479612
1.2479612
1.2479612
1.2479612
1.2479612
1.2479612
1.2479612
1.2479612
1.2479612
1.2479612
1.2479612
1.2479612
1.2479612
1.2479612
1.2479612
1.2479612
1.2479612
1.2479612
1.2479612
1.2479612
1.2479612
1.2479612
1.2479612
1.2479612
1.2479612
1.2479612
1.2479612
1.2479612
1.2479612
1.2479612
1.2479612
1.2479612
1.2479612
1.2479612
1.2479611
1.2479611
1.2479611
1.2479611
1.2479611
1.2479611
1.2479611
1.2479611
1.2479611
1.2479611
1.2479611
1.2479611
1.2479611
1.2479611
1.2479611
1.2479611
1.2479611
1.2479611
1.2479611
1.2479611
1.2479611
1.2479611
1.2479611
1.2479611
1.2479611
1.2479611
1.2479611
1.2479611
1.2479611
1.2479611
1.2479611
1.2479611
1.2479611
1.2479611
1.247961
1.247961
1.247961
1.247961
1.247961
1.247961
1.247961
1.247961
1.247961
1.247961
1.247961
1.247961
1.247961
1.247961
1.247961
1.247961
1.247961
1.247961
1.247961
1.247961
1.247961
1.247961
1.247961
1.247961
1.247961
1.247961
1.247961
1.247961
1.247961
1.247961
1.247961
1.247961
1.247961
1.247961
1.247961
1.247961
1.247961
1.247961
1.247961
1.247961
1.247961
1.247961
1.247961
1.247961
1.247961
1.247961
1.247961
1.247961
1.247961
1.2479609
1.2479609
1.2479609
1.2479609
1.2479609
1.2479609
1.2479609
1.2479609
1.2479609
1.2479609
1.2479609
1.2479609
1.2479609
1.2479609
1.2479609
1.2479609
1.2479609
1.2479609
1.2479609
1.2479609
1.2479609
1.2479609
1.2479609
1.2479609
1.2479609
1.2479609
1.2479609
1.2479609
1.2479609
1.2479609
1.2479609
1.2479609
1.2479609
1.2479609
1.2479609
1.2479609
1.2479609
1.2479609
1.2479609
1.2479609
1.2479609
1.2479609
1.2479609
1.2479609
1.2479609
1.2479609
1.2479609
1.2479609
1.2479609
1.2479609
1.2479609
1.2479609
1.2479609
1.2479609
1.2479609
1.2479609
1.2479609
1.2479609
1.2479609
1.2479609
1.2479609
1.2479609
1.2479609
1.2479609
1.2479609
1.2479609
1.2479609
1.2479609
1.2479609
1.2479609
1.2479609
1.2479609
1.2479609
1.2479609
1.2479609
1.2479609
1.2479609
1.2479609
1.2479609
1.2479609
1.2479609
1.2479609
1.2479609
1.2479609
1.2479609
1.2479609
1.2479609
1.2479609
1.2479609
1.2479609
1.2479609
1.2479609
1.2479609
1.2479609
1.2479609
1.2479609
1.2479609
1.2479609
1.2479609
1.2479609
1.2479609
1.2479609
1.2479609
1.2479609
1.2479609
1.2479609
1.2479609
1.2479609
1.2479609
1.2479609
1.2479609
1.2479609
1.2479609
1.2479609
1.2479609
1.2479609
1.2479609
1.2479609
1.2479609
1.2479609
1.2479609
1.2479609
1.2479609
1.2479609
1.2479609
1.2479609
1.2479609
1.2479609
1.2479609
1.2479609
1.2479609
1.2479609
1.2479609
1.2479609
1.2479609
1.2479609
1.2479609
1.2479609
1.2479609
1.2479609
1.2479609
1.2479609
1.2479609
1.2479609
1.2479609
1.2479609
1.2479609
1.2479609
1.2479609
1.2479609
1.2479609
1.2479609
1.2479609
1.2479609
1.2479609
1.2479609
1.2479609
1.2479609
1.2479609
1.2479609
1.2479609
1.2479609
1.2479609
1.2479609
1.2479609
1.2479609
1.2479609
1.2479609
1.2479609
1.2479609
1.2479609
1.2479609
1.2479609
1.2479609
1.2479609
1.2479609
1.2479609
1.2479609
1.2479609
1.2479609
1.2479609
1.2479609
1.2479609
1.2479609
1.2479609
1.2479609
1.2479609
1.2479609
1.2479609
1.2479609
1.2479609
1.2479609
1.2479609
1.2479609
1.2479609
1.2479609
1.2479609
1.2479609
1.2479609
1.2479609
1.2479609
1.2479609
1.2479609
1.2479609
1.2479609
1.2479609
1.2479609
1.2479609
1.2479609
1.2479609
1.2479609
1.2479609
1.2479609
1.2479609
1.2479609
1.2479609
1.2479609
1.2479609
1.2479609
1.2479609
1.2479609
1.2479609
1.2479609
1.2479609
1.2479609
1.2479609
1.2479609
1.2479609
1.2479609
1.2479609
1.2479609
1.2479609
1.2479609
1.2479609
1.2479609
1.2479609
1.2479609
1.2479609
1.2479609
1.2479609
1.2479609
1.2479609
1.2479609
1.2479609
1.2479609
1.2479609
1.2479609
1.2479609
1.2479609
1.2479609
1.2479609
1.2479609
1.2479609
1.2479609
1.2479609
1.2479609
1.2479609
1.2479609
1.2479609
1.2479609
1.2479609
1.2479609
1.2479609
1.2479609
1.2479609
1.2479609
1.2479609
1.2479609
1.2479609
1.2479609
1.2479609
1.2479609
1.2479609
1.2479609
1.2479609
1.2479609
1.2479609
1.2479609
1.2479609
1.2479609
1.2479609
1.2479609
1.2479609
1.2479609
1.2479609
1.2479609
1.2479609
1.2479609
1.2479609
1.2479609
1.2479609
1.2479609
1.2479609
1.2479609
1.2479609
1.2479609
1.2479609
1.2479609
1.2479609
1.2479609
1.2479609
1.2479609
1.2479609
1.2479609
1.2479609
1.2479609
1.2479609
1.2479609
1.2479609
1.2479609
1.2479609
1.2479609
1.2479609
1.2479609
1.2479609
1.2479609
1.2479609
1.2479609
1.2479609
1.2479609
1.2479609
1.2479609
1.2479609
1.2479609
1.2479609
1.2479609
1.2479609
1.2479609
1.2479609
1.2479609
1.2479609
1.2479609
1.2479609
1.2479609
1.2479609
1.2479609
1.2479609
1.2479609
1.2479609
1.2479609
1.2479609
1.2479609
1.2479609
1.2479609
1.2479609
1.2479609
1.2479609
1.2479609
1.2479609
1.2479609
1.2479609
1.2479609
1.2479609
1.2479609
1.2479609
1.2479609
1.2479609
1.2479609
1.2479609
1.2479609
1.2479609
1.2479609
1.2479609
1.2479609
1.2479609
1.2479609
1.2479609
1.2479609
1.2479609
1.2479609
1.2479609
1.2479609
1.2479609
1.2479609
1.2479609
1.2479609
1.2479609
1.2479609
1.2479609
1.2479609
1.2479609
1.2479609
1.2479609
1.2479609
1.2479609
1.2479609
1.2479609
1.2479609
1.2479609
1.2479609
1.2479609
1.2479609
1.2479609
1.2479609
1.2479609
1.2479609
1.2479609
1.2479609
1.2479609
1.2479609
1.2479609
1.2479609
1.2479609
1.2479609
1.2479609
1.2479609
1.2479609
1.2479609
1.2479609
1.2479609
1.2479609
1.2479609
1.2479609
1.2479609
1.2479609
1.2479609
1.2479609
1.2479609
1.2479609
1.2479609
1.2479608
1.2479608
1.2479608
1.2479608
1.2479608
1.2479608
1.2479608
1.2479609
1.2479609
1.2479609
1.2479608
1.2479608
1.2479608
1.2479608
1.2479608
1.2479608
1.2479608
1.2479608
1.2479608
1.2479608
1.2479608
1.2479608
1.2479608
1.2479608
1.2479608
1.2479608
1.2479608
1.2479608
1.2479608
1.2479608
1.2479608
1.2479608
1.2479608
1.2479608
1.2479608
1.2479608
1.2479608
1.2479608
1.2479608
1.2479608
1.2479608
1.2479608
1.2479608
1.2479608
1.2479608
1.2479608
1.2479608
1.2479608
1.2479608
1.2479608
1.2479608
1.2479608
1.2479608
1.2479608
1.2479608
1.2479608
1.2479608
1.2479608
1.2479608
1.2479608
1.2479608
1.2479608
1.2479608
1.2479608
1.2479608
1.2479608
1.2479608
1.2479608
1.2479608
1.2479608
1.2479608
1.2479608
1.2479608
1.2479608
1.2479608
1.2479608
1.2479608
1.2479608
1.2479608
1.2479608
1.2479608
1.2479608
1.2479608
1.2479608
1.2479608
1.2479608
1.2479608
1.2479608
1.2479608
1.2479608
1.2479608
1.2479608
1.2479608
1.2479608
1.2479608
1.2479608
1.2479608
1.2479608
1.2479608
1.2479608
1.2479608
1.2479608
1.2479608
1.2479608
1.2479608
1.2479608
1.2479608
1.2479608
1.2479608
1.2479608
1.2479608
1.2479608
1.2479608
1.2479608
1.2479608
1.2479608
1.2479608
1.2479608
1.2479608
1.2479608
1.2479608
1.2479608
1.2479608
1.2479608
1.2479608
1.2479608
1.2479608
1.2479608
1.2479608
1.2479608
1.2479608
1.2479608
1.2479608
1.2479608
1.2479608
1.2479608
1.2479608
1.2479608
1.2479608
1.2479608
1.2479608
1.2479608
1.2479608
1.2479608
1.2479608
1.2479608
1.2479608
1.2479608
1.2479608
1.2479608
1.2479608
1.2479608
1.2479608
1.2479608
1.2479608
1.2479608
1.2479608
1.2479608
1.2479608
1.2479608
1.2479608
1.2479608
1.2479608
1.2479608
1.2479608
1.2479608
1.2479608
1.2479608
1.2479608
1.2479608
1.2479608
1.2479608
1.2479608
1.2479608
1.2479608
1.2479608
1.2479608
1.2479608
1.2479608
1.2479608
1.2479608
1.2479608
1.2479608
1.2479607
1.2479607
1.2479607
1.2479607
1.2479607
1.2479607
1.2479607
1.2479607
1.2479607
1.2479607
1.2479607
1.2479607
1.2479607
1.2479607
1.2479607
1.2479607
1.2479607
1.2479607
1.2479607
1.2479607
1.2479607
1.2479607
1.2479607
1.2479607
1.2479607
1.2479607
1.2479607
1.2479607
1.2479607
1.2479607
1.2479607
1.2479607
1.2479607
1.2479607
1.2479607
1.2479607
1.2479607
1.2479607
1.2479607
1.2479607
1.2479607
1.2479607
1.2479607
1.2479607
1.2479607
1.2479607
1.2479607
1.2479607
1.2479607
1.2479607
1.2479607
1.2479607
1.2479607
1.2479607
1.2479607
1.2479607
1.2479607
1.2479607
1.2479607
1.2479607
1.2479607
1.2479607
1.2479607
1.2479607
1.2479607
1.2479607
1.2479607
1.2479607
1.2479607
1.2479607
1.2479607
1.2479607
1.2479607
1.2479607
1.2479607
1.2479607
1.2479607
1.2479607
1.2479607
1.2479607
1.2479607
1.2479607
1.2479607
1.2479607
1.2479607
1.2479607
1.2479607
1.2479607
1.2479607
1.2479607
1.2479607
1.2479607
1.2479607
1.2479607
1.2479607
1.2479607
1.2479607
1.2479607
1.2479607
1.2479607
1.2479607
1.2479607
1.2479607
1.2479607
1.2479607
1.2479607
1.2479607
1.2479607
1.2479607
1.2479607
1.2479607
1.2479607
1.2479607
1.2479607
1.2479607
1.2479607
1.2479607
1.2479607
1.2479607
1.2479607
1.2479607
1.2479607
1.2479607
1.2479607
1.2479607
1.2479606
1.2479606
1.2479606
1.2479606
1.2479606
1.2479606
1.2479606
1.2479606
1.2479606
1.2479606
1.2479606
1.2479606
1.2479606
1.2479606
1.2479606
1.2479606
1.2479606
1.2479606
1.2479606
1.2479606
1.2479606
1.2479606
1.2479606
1.2479606
1.2479606
1.2479606
1.2479606
1.2479606
1.2479606
1.2479606
1.2479606
1.2479606
1.2479606
1.2479606
1.2479606
1.2479606
1.2479606
1.2479606
1.2479606
1.2479606
1.2479606
1.2479606
1.2479606
1.2479606
1.2479606
1.2479606
1.2479606
1.2479606
1.2479606
1.2479606
1.2479606
1.2479606
1.2479606
1.2479606
1.2479606
1.2479606
1.2479606
1.2479606
1.2479606
1.2479606
1.2479606
1.2479606
1.2479606
1.2479606
1.2479606
1.2479606
1.2479606
1.2479606
1.2479606
1.2479606
1.2479606
1.2479606
1.2479606
1.2479606
1.2479606
1.2479606
1.2479606
1.2479606
1.2479606
1.2479606
1.2479606
1.2479606
1.2479606
1.2479606
1.2479606
1.2479606
1.2479606
1.2479606
1.2479606
1.2479606
1.2479606
1.2479605
1.2479605
1.2479605
1.2479605
1.2479605
1.2479605
1.2479605
1.2479605
1.2479605
1.2479605
1.2479605
1.2479605
1.2479605
1.2479605
1.2479605
1.2479605
1.2479605
1.2479605
1.2479605
1.2479605
1.2479605
1.2479605
1.2479605
1.2479605
1.2479605
1.2479605
1.2479605
1.2479605
1.2479605
1.2479605
1.2479605
1.2479605
1.2479605
1.2479605
1.2479605
1.2479605
1.2479605
1.2479605
1.2479605
1.2479605
1.2479605
1.2479605
1.2479605
1.2479605
1.2479605
1.2479605
1.2479605
1.2479605
1.2479605
1.2479605
1.2479605
1.2479605
1.2479605
1.2479605
1.2479605
1.2479605
1.2479605
1.2479605
1.2479605
1.2479605
1.2479605
1.2479605
1.2479605
1.2479605
1.2479605
1.2479605
1.2479605
1.2479605
1.2479605
1.2479605
1.2479605
1.2479605
1.2479605
1.2479605
1.2479604
1.2479604
1.2479604
1.2479604
1.2479604
1.2479604
1.2479604
1.2479604
1.2479604
1.2479604
1.2479604
1.2479604
1.2479604
1.2479604
1.2479604
1.2479604
1.2479604
1.2479604
1.2479604
1.2479604
1.2479604
1.2479604
1.2479604
1.2479604
1.2479604
1.2479604
1.2479604
1.2479604
1.2479604
1.2479604
1.2479604
1.2479604
1.2479604
1.2479604
1.2479604
1.2479604
1.2479604
1.2479604
1.2479604
1.2479604
1.2479604
1.2479604
1.2479604
1.2479604
1.2479604
1.2479604
1.2479604
1.2479604
1.2479604
1.2479604
1.2479604
1.2479604
1.2479604
1.2479604
1.2479604
1.2479604
1.2479604
1.2479604
1.2479604
1.2479604
1.2479604
1.2479604
1.2479604
1.2479604
1.2479604
1.2479604
1.2479604
1.2479604
1.2479604
1.2479604
1.2479604
1.2479604
1.2479604
1.2479604
1.2479604
1.2479603
1.2479603
1.2479603
1.2479603
1.2479603
1.2479603
1.2479603
1.2479603
1.2479603
1.2479603
1.2479603
1.2479603
1.2479603
1.2479603
1.2479603
1.2479603
1.2479603
1.2479603
1.2479603
1.2479603
1.2479603
1.2479603
1.2479603
1.2479603
1.2479603
1.2479603
1.2479603
1.2479603
1.2479603
1.2479603
1.2479603
1.2479603
1.2479603
1.2479603
1.2479603
1.2479603
1.2479603
1.2479603
1.2479603
1.2479603
1.2479603
1.2479603
1.2479603
1.2479603
1.2479603
1.2479603
1.2479603
1.2479603
1.2479603
1.2479603
1.2479603
1.2479603
1.2479603
1.2479603
1.2479603
1.2479603
1.2479603
1.2479603
1.2479603
1.2479603
1.2479603
1.2479603
1.2479602
1.2479602
1.2479602
1.2479602
1.2479602
1.2479602
1.2479602
1.2479602
1.2479602
1.2479602
1.2479602
1.2479602
1.2479602
1.2479602
1.2479602
1.2479602
1.2479602
1.2479602
1.2479602
1.2479602
1.2479602
1.2479602
1.2479602
1.2479602
1.2479602
1.2479602
1.2479602
1.2479602
1.2479602
1.2479602
1.2479602
1.2479602
1.2479602
1.2479602
1.2479602
1.2479602
1.2479602
1.2479602
1.2479602
1.2479602
1.2479602
1.2479602
1.2479602
1.2479602
1.2479602
1.2479602
1.2479602
1.2479602
1.2479602
1.2479602
1.2479602
1.2479602
1.2479602
1.2479602
1.2479602
1.2479601
1.2479601
1.2479601
1.2479601
1.2479601
1.2479601
1.2479601
1.2479601
1.2479601
1.2479601
1.2479601
1.2479601
1.2479601
1.2479601
1.2479601
1.2479601
1.2479601
1.2479601
1.2479601
1.2479601
1.2479601
1.2479601
1.2479601
1.2479601
1.2479601
1.2479601
1.2479601
1.2479601
1.2479601
1.2479601
1.2479601
1.2479601
1.2479601
1.2479601
1.2479601
1.2479601
1.2479601
1.2479601
1.2479601
1.2479601
1.2479601
1.2479601
1.2479601
1.2479601
1.2479601
1.2479601
1.2479601
1.2479601
1.2479601
1.2479601
1.2479601
1.2479601
1.24796
1.24796
1.24796
1.24796
1.24796
1.24796
1.24796
1.24796
1.24796
1.24796
1.24796
1.24796
1.24796
1.24796
1.24796
1.24796
1.24796
1.24796
1.24796
1.24796
1.24796
1.24796
1.24796
1.24796
1.24796
1.24796
1.24796
1.24796
1.24796
1.24796
1.24796
1.24796
1.24796
1.24796
1.24796
1.24796
1.24796
1.24796
1.24796
1.24796
1.24796
1.24796
1.24796
1.24796
1.24796
1.24796
1.24796
1.24796
1.24796
1.2479599
1.2479599
1.2479599
1.2479599
1.2479599
1.2479599
1.2479599
1.2479599
1.2479599
1.2479599
1.2479599
1.2479599
1.2479599
1.2479599
1.2479599
1.2479599
1.2479599
1.2479599
1.2479599
1.2479599
1.2479599
1.2479599
1.2479599
1.2479599
1.2479599
1.2479599
1.2479599
1.2479599
1.2479599
1.2479599
1.2479599
1.2479599
1.2479599
1.2479599
1.2479599
1.2479599
1.2479598
1.2479598
1.2479598
1.2479598
1.2479598
1.2479598
1.2479598
1.2479598
1.2479598
1.2479598
1.2479598
1.2479598
1.2479598
1.2479598
1.2479598
1.2479598
1.2479598
1.2479598
1.2479598
1.2479598
1.2479598
1.2479598
1.2479598
1.2479598
1.2479598
1.2479598
1.2479598
1.2479598
1.2479598
1.2479598
1.2479598
1.2479598
1.2479598
1.2479598
1.2479598
1.2479598
1.2479598
1.2479598
1.2479598
1.2479598
1.2479598
1.2479598
1.2479597
1.2479597
1.2479597
1.2479597
1.2479597
1.2479597
1.2479597
1.2479597
1.2479597
1.2479597
1.2479597
1.2479597
1.2479597
1.2479597
1.2479597
1.2479597
1.2479597
1.2479597
1.2479597
1.2479597
1.2479597
1.2479597
1.2479597
1.2479597
1.2479597
1.2479597
1.2479597
1.2479597
1.2479597
1.2479597
1.2479597
1.2479597
1.2479597
1.2479597
1.2479596
1.2479596
1.2479596
1.2479596
1.2479596
1.2479596
1.2479596
1.2479596
1.2479596
1.2479596
1.2479596
1.2479596
1.2479596
1.2479596
1.2479596
1.2479596
1.2479596
1.2479596
1.2479596
1.2479596
1.2479596
1.2479596
1.2479596
1.2479596
1.2479596
1.2479596
1.2479596
1.2479596
1.2479596
1.2479596
1.2479596
1.2479595
1.2479595
1.2479595
1.2479595
1.2479595
1.2479595
1.2479595
1.2479595
1.2479595
1.2479595
1.2479595
1.2479595
1.2479595
1.2479595
1.2479595
1.2479595
1.2479595
1.2479595
1.2479595
1.2479595
1.2479595
1.2479595
1.2479595
1.2479595
1.2479595
1.2479595
1.2479595
1.2479595
1.2479595
1.2479595
1.2479595
1.2479595
1.2479594
1.2479594
1.2479594
1.2479594
1.2479594
1.2479594
1.2479594
1.2479594
1.2479594
1.2479594
1.2479594
1.2479594
1.2479594
1.2479594
1.2479594
1.2479594
1.2479594
1.2479594
1.2479594
1.2479594
1.2479594
1.2479594
1.2479594
1.2479594
1.2479594
1.2479593
1.2479593
1.2479593
1.2479593
1.2479593
1.2479593
1.2479593
1.2479593
1.2479593
1.2479593
1.2479593
1.2479593
1.2479593
1.2479593
1.2479593
1.2479593
1.2479593
1.2479593
1.2479593
1.2479593
1.2479593
1.2479593
1.2479593
1.2479593
1.2479593
1.2479592
1.2479592
1.2479592
1.2479592
1.2479592
1.2479592
1.2479592
1.2479592
1.2479592
1.2479592
1.2479592
1.2479592
1.2479592
1.2479592
1.2479592
1.2479592
1.2479592
1.2479592
1.2479592
1.2479592
1.2479592
1.2479592
1.2479592
1.2479592
1.2479591
1.2479591
1.2479591
1.2479591
1.2479591
1.2479591
1.2479591
1.2479591
1.2479591
1.2479591
1.2479591
1.2479591
1.2479591
1.2479591
1.2479591
1.2479591
1.2479591
1.2479591
1.2479591
1.2479591
1.247959
1.247959
1.247959
1.247959
1.247959
1.247959
1.247959
1.247959
1.247959
1.247959
1.247959
1.247959
1.247959
1.247959
1.247959
1.247959
1.247959
1.247959
1.247959
1.247959
1.247959
1.2479589
1.2479589
1.2479589
1.2479589
1.2479589
1.2479589
1.2479589
1.2479589
1.2479589
1.2479589
1.2479589
1.2479589
1.2479589
1.2479589
1.2479589
1.2479589
1.2479589
1.2479589
1.2479589
1.2479589
1.2479589
1.2479589
1.2479588
1.2479588
1.2479588
1.2479588
1.2479588
1.2479588
1.2479588
1.2479588
1.2479588
1.2479588
1.2479588
1.2479588
1.2479588
1.2479588
1.2479588
1.2479588
1.2479588
1.2479588
1.2479588
1.2479588
1.2479587
1.2479587
1.2479587
1.2479587
1.2479587
1.2479587
1.2479587
1.2479587
1.2479587
1.2479587
1.2479587
1.2479587
1.2479587
1.2479587
1.2479587
1.2479587
1.2479587
1.2479587
1.2479587
1.2479586
1.2479586
1.2479586
1.2479586
1.2479586
1.2479586
1.2479586
1.2479586
1.2479586
1.2479586
1.2479586
1.2479586
1.2479586
1.2479586
1.2479586
1.2479586
1.2479586
1.2479586
1.2479586
1.2479586
1.2479586
1.2479586
1.2479586
1.2479586
1.2479585
1.2479585
1.2479585
1.2479585
1.2479585
1.2479585
1.2479585
1.2479585
1.2479585
1.2479585
1.2479585
1.2479585
1.2479585
1.2479585
1.2479585
1.2479585
1.2479585
1.2479585
1.2479585
1.2479585
1.2479585
1.2479585
1.2479585
1.2479585
1.2479585
1.2479585
1.2479585
1.2479584
1.2479584
1.2479584
1.2479584
1.2479584
1.2479584
1.2479584
1.2479584
1.2479584
1.2479584
1.2479584
1.2479584
1.2479584
1.2479584
1.2479584
1.2479584
1.2479584
1.2479584
1.2479584
1.2479584
1.2479584
1.2479584
1.2479584
1.2479584
1.2479584
1.2479584
1.2479584
1.2479584
1.2479584
1.2479584
1.2479584
1.2479584
1.2479584
1.2479584
1.2479584
1.2479584
1.2479584
1.2479584
1.2479584
1.2479584
1.2479584
1.2479584
1.2479584
1.2479585
1.2479585
1.2479585
1.2479585
1.2479585
1.2479585
1.2479585
1.2479585
1.2479585
1.2479585
1.2479585
1.2479585
1.2479585
1.2479585
1.2479585
1.2479586
1.2479586
1.2479586
1.2479586
1.2479586
1.2479586
1.2479586
1.2479586
1.2479587
1.2479587
1.2479587
1.2479587
1.2479587
1.2479587
1.2479588
1.2479588
1.2479588
1.2479588
1.2479588
1.2479589
1.2479589
1.2479589
1.2479589
1.247959
1.247959
1.247959
1.2479591
1.2479591
1.2479591
1.2479592
1.2479592
1.2479592
1.2479593
1.2479593
1.2479594
1.2479594
1.2479594
1.2479595
1.2479595
1.2479596
1.2479597
1.2479597
1.2479598
1.2479598
1.2479599
1.24796
1.24796
1.2479601
1.2479602
1.2479603
1.2479604
1.2479604
1.2479605
1.2479606
1.2479607
1.2479608
1.2479609
1.247961
1.2479611
1.2479613
1.2479614
1.2479615
1.2479616
1.2479618
1.2479619
1.2479621
1.2479622
1.2479624
1.2479625
1.2479627
1.2479629
1.2479631
1.2479633
1.2479635
1.2479637
1.2479639
1.2479642
1.2479644
1.2479646
1.2479649
1.2479652
1.2479654
1.2479657
1.247966
1.2479664
1.2479667
1.247967
1.2479674
1.2479677
1.2479681
1.2479685
1.2479689
1.2479694
1.2479698
1.2479703
1.2479707
1.2479712
1.2479718
1.2479723
1.2479729
1.2479735
1.2479741
1.2479747
1.2479753
1.247976
1.2479767
1.2479775
1.2479782
1.247979
1.2479799
1.2479807
1.2479816
1.2479826
1.2479835
1.2479845
1.2479856
1.2479867
1.2479878
1.2479889
1.2479902
1.2479914
1.2479927
1.2479941
1.2479955
1.247997
1.2479985
1.2480001
1.2480018
1.2480035
1.2480053
1.2480071
1.248009
1.248011
1.2480131
1.2480153
1.2480175
1.2480198
1.2480222
1.2480248
1.2480274
1.2480301
1.2480329
1.2480358
1.2480388
1.248042
1.2480452
1.2480486
1.2480521
1.2480558
1.2480596
1.2480635
1.2480676
1.2480719
1.2480763
1.2480808
1.2480856
1.2480905
1.2480956
1.2481009
1.2481064
1.2481122
1.2481181
1.2481243
1.2481306
1.2481373
1.2481442
1.2481513
1.2481587
1.2481664
1.2481743
1.2481826
1.2481912
1.2482001
1.2482093
1.2482189
1.2482288
1.2482391
1.2482498
1.2482609
1.2482724
1.2482843
1.2482967
1.2483095
1.2483228
1.2483366
1.2483509
1.2483657
1.2483811
1.248397
1.2484136
1.2484307
1.2484484
1.2484668
1.2484859
1.2485056
1.2485261
1.2485473
1.2485693
1.248592
1.2486156
1.24864
1.2486653
1.2486916
1.2487187
1.2487468
1.248776
1.2488061
1.2488374
1.2488697
1.2489032
1.2489379
1.2489738
1.249011
1.2490494
1.2490892
1.2491304
1.2491731
1.2492172
1.2492628
1.2493101
1.249359
1.2494095
1.2494618
1.2495159
1.2495718
1.2496297
1.2496895
1.2497513
1.2498153
1.2498813
1.2499497
1.2500203
1.2500932
1.2501686
1.2502465
1.250327
1.2504101
1.250496
1.2505847
1.2506762
1.2507708
1.2508684
1.2509691
1.2510731
1.2511804
1.2512912
1.2514054
1.2515233
1.2516448
1.2517701
1.2518994
1.2520326
1.25217
1.2523115
1.2524574
1.2526077
1.2527625
1.252922
1.2530862
1.2532552
1.2534293
1.2536084
1.2537927
1.2539824
1.2541774
1.2543781
1.2545843
1.2547964
1.2550143
1.2552383
1.2554683
1.2557047
1.2559473
1.2561964
1.2564521
1.2567145
1.2569837
1.2572597
1.2575428
1.257833
1.2581304
1.258435
1.2587471
1.2590666
1.2593938
1.2597285
1.2600711
1.2604214
1.2607795
1.2611457
1.2615198
1.2619019
1.2622922
1.2626905
1.2630971
1.2635118
1.2639347
1.2643658
1.2648052
1.2652528
1.2657086
1.2661725
1.2666446
1.2671248
1.2676131
1.2681094
1.2686136
1.2691257
1.2696455
1.270173
1.2707081
1.2712506
1.2718004
1.2723574
1.2729215
1.2734924
1.27407
1.2746541
1.2752445
1.2758411
1.2764436
1.2770519
1.2776656
1.2782845
1.2789085
1.2795372
1.2801703
1.2808078
1.2814491
1.2820942
1.2827426
1.2833942
1.2840485
1.2847053
1.2853643
1.2860253
1.2866877
1.2873515
1.2880162
1.2886815
1.2893471
1.2900127
1.290678
1.2913427
1.2920064
1.2926688
1.2933297
1.2939887
1.2946455
1.2952998
1.2959513
1.2965998
1.297245
1.2978866
1.2985242
1.2991578
1.2997869
1.3004114
1.3010311
1.3016456
1.3022548
1.3028585
1.3034565
1.3040485
1.3046344
1.305214
1.3057872
1.3063537
1.3069135
1.3074664
1.3080123
1.3085511
1.3090827
1.3096069
1.3101236
1.3106329
1.3111346
1.3116287
1.3121151
1.3125938
1.3130647
1.3135278
1.3139832
1.3144307
1.3148704
1.3153023
1.3157263
1.3161427
1.3165512
1.316952
1.3173452
1.3177307
1.3181086
1.318479
1.3188419
1.3191973
1.3195454
1.3198863
1.3202199
1.3205465
1.320866
1.3211785
1.3214842
1.3217831
1.3220753
1.322361
1.3226402
1.322913
1.3231795
1.3234399
1.3236942
1.3239425
1.324185
1.3244218
1.3246529
1.3248784
1.3250986
1.3253134
1.3255231
1.3257276
1.3259272
1.3261219
1.3263119
1.3264971
1.3266778
1.3268541
1.327026
1.3271937
1.3273573
1.3275168
1.3276724
1.3278241
1.3279722
1.3281166
1.3282574
1.3283948
1.3285288
1.3286596
1.3287872
1.3289118
1.3290333
1.329152
1.3292678
1.3293809
1.3294913
1.3295991
1.3297045
1.3298074
1.329908
1.3300063
1.3301025
1.3301965
1.3302884
1.3303784
1.3304664
1.3305526
1.330637
1.3307197
1.3308007
1.3308801
1.3309579
1.3310343
1.3311092
1.3311828
1.331255
1.331326
1.3313957
1.3314642
1.3315317
1.331598
1.3316634
1.3317277
1.3317911
1.3318536
1.3319152
1.331976
1.3320361
1.3320954
1.332154
1.3322119
1.3322692
1.3323259
1.3323821
1.3324377
1.3324929
1.3325476
1.3326018
1.3326557
1.3327092
1.3327623
1.3328151
1.3328676
1.3329199
1.3329719
1.3330237
1.3330753
1.3331268
1.3331781
1.3332293
1.3332803
1.3333313
1.3333822
1.3334331
1.333484
1.3335349
1.3335858
1.3336367
1.3336876
1.3337387
1.3337898
1.333841
1.3338923
1.3339438
1.3339954
1.3340472
1.3340991
1.3341512
1.3342035
1.334256
1.3343088
1.3343618
1.334415
1.3344685
1.3345222
1.3345762
1.3346305
1.3346851
1.3347401
1.3347953
1.3348509
1.3349068
1.334963
1.3350196
1.3350765
1.3351339
1.3351916
1.3352496
1.3353081
1.335367
1.3354262
1.3354859
1.335546
1.3356065
1.3356674
1.3357288
1.3357906
1.3358529
1.3359156
1.3359787
1.3360423
1.3361064
1.3361709
1.336236
1.3363014
1.3363674
1.3364339
1.3365008
1.3365682
1.3366362
1.3367046
1.3367735
1.3368429
1.3369128
1.3369833
1.3370542
1.3371257
1.3371976
1.3372701
1.3373431
1.3374167
1.3374907
1.3375653
1.3376404
1.337716
1.3377922
1.3378689
1.3379461
1.3380239
1.3381022
1.338181
1.3382604
1.3383403
1.3384207
1.3385017
1.3385832
1.3386653
1.3387479
1.338831
1.3389147
1.338999
1.3390837
1.339169
1.3392549
1.3393413
1.3394282
1.3395157
1.3396037
1.3396923
1.3397814
1.339871
1.3399612
1.3400519
1.3401432
1.340235
1.3403273
1.3404202
1.3405136
1.3406075
1.340702
1.340797
1.3408926
1.3409887
1.3410853
1.3411824
1.3412801
1.3413783
1.341477
1.3415763
1.3416761
1.3417764
1.3418772
1.3419785
1.3420804
1.3421828
1.3422857
1.3423892
1.3424931
1.3425975
1.3427025
1.342808
1.342914
1.3430205
1.3431274
1.3432349
1.3433429
1.3434515
1.3435605
1.34367
1.34378
1.3438904
1.3440014
1.3441129
1.3442248
1.3443373
1.3444502
1.3445636
1.3446775
1.3447919
1.3449067
1.345022
1.3451378
1.3452541
1.3453708
1.345488
1.3456056
1.3457237
1.3458423
1.3459613
1.3460808
1.3462007
1.3463211
1.3464419
1.3465632
1.3466849
1.346807
1.3469296
1.3470526
1.347176
1.3472999
1.3474242
1.3475489
1.347674
1.3477996
1.3479256
1.3480519
1.3481787
1.3483059
1.3484335
1.3485615
1.34869
1.3488188
1.348948
1.3490775
1.3492075
1.3493379
1.3494687
1.3495998
1.3497313
1.3498632
1.3499955
1.3501281
1.3502611
1.3503945
1.3505282
1.3506623
1.3507968
1.3509316
1.3510668
1.3512023
1.3513382
1.3514744
1.351611
1.3517479
1.3518852
1.3520227
1.3521607
1.3522989
1.3524375
1.3525765
1.3527157
1.3528553
1.3529952
1.3531354
1.3532759
1.3534167
1.3535579
1.3536993
1.3538411
1.3539831
1.3541255
1.3542682
1.3544111
1.3545544
1.3546979
1.3548418
1.3549859
1.3551303
1.355275
1.3554199
1.3555652
1.3557107
1.3558564
1.3560025
1.3561488
1.3562954
1.3564422
1.3565893
1.3567366
1.3568842
1.3570321
1.3571802
1.3573285
1.3574771
1.3576259
1.357775
1.3579243
1.3580738
1.3582236
1.3583736
1.3585238
1.3586743
1.3588249
1.3589758
1.3591269
1.3592782
1.3594297
1.3595814
1.3597334
1.3598855
1.3600378
1.3601904
1.3603431
1.360496
1.3606492
1.3608025
1.360956
1.3611097
1.3612636
1.3614176
1.3615719
1.3617263
1.3618809
1.3620356
1.3621906
1.3623456
1.3625009
1.3626563
1.3628119
1.3629677
1.3631236
1.3632796
1.3634358
1.3635922
1.3637487
1.3639053
1.3640621
1.364219
1.3643761
1.3645333
1.3646907
1.3648481
1.3650057
1.3651635
1.3653213
1.3654793
1.3656374
1.3657957
1.365954
1.3661125
1.3662711
1.3664298
1.3665886
1.3667475
1.3669065
1.3670656
1.3672249
1.3673842
1.3675436
1.3677032
1.3678628
1.3680225
1.3681823
1.3683422
1.3685021
1.3686622
1.3688223
1.3689826
1.3691429
1.3693032
1.3694637
1.3696242
1.3697848
1.3699455
1.3701062
1.370267
1.3704279
1.3705888
1.3707498
1.3709108
1.3710719
1.371233
1.3713942
1.3715554
1.3717167
1.371878
1.3720394
1.3722008
1.3723622
1.3725237
1.3726852
1.3728468
1.3730084
1.37317
1.3733316
1.3734933
1.3736549
1.3738166
1.3739783
1.3741401
1.3743018
1.3744636
1.3746253
1.3747871
1.3749489
1.3751107
1.3752725
1.3754343
1.3755961
1.3757578
1.3759196
1.3760814
1.3762432
1.376405
1.3765667
1.3767284
1.3768901
1.3770518
1.3772134
1.3773751
1.3775367
1.3776983
1.3778598
1.3780213
1.3781828
1.3783443
1.3785057
1.3786671
1.3788285
1.3789897
1.379151
1.3793122
1.3794734
1.3796345
1.3797956
1.3799566
1.3801176
1.3802785
1.3804394
1.3806003
1.3807611
1.3809218
1.3810825
1.3812431
1.3814037
1.3815642
1.3817247
1.3818851
1.3820455
1.3822059
1.3823662
1.3825265
1.3826867
1.3828469
1.383007
1.3831671
1.3833272
1.3834871
1.3836471
1.3838069
1.3839667
1.3841265
1.3842861
1.3844457
1.3846051
1.3847645
1.3849238
1.3850829
1.385242
1.3854009
1.3855597
1.3857184
1.3858769
1.3860352
1.3861932
1.386351
1.3865086
1.386666
1.3868231
1.38698
1.3871366
1.3872931
1.3874493
1.3876053
1.3877612
1.3879168
1.3880722
1.3882275
1.3883826
1.3885376
1.3886924
1.3888471
1.3890017
1.3891561
1.3893105
1.3894648
1.3896191
1.3897734
1.3899276
1.3900818
1.3902361
1.3903903
1.3905442
1.3906982
1.3908519
1.3910041
1.3911561
1.391305
1.3914415
1.3915614
1.391538
1.3911823
1.3903216
1.3888729
1.3869389
1.3846192
1.3818303
1.3786814
1.3752226
1.3715279
1.3676785
1.3637554
1.3598382
1.356
1.3523049
1.3488061
1.3455452
1.3425514
1.3398428
1.3374265
1.3353008
1.3334564
1.3318782
1.3305468
1.3294401
1.3285347
1.3278068
1.3272332
1.326792
1.3264627
1.3262271
1.326069
1.3259741
1.3259302
1.3259272
1.3259565
1.326011
1.326085
1.3261738
1.326274
1.3263825
1.3264973
1.3266166
1.3267389
1.3268632
1.3269889
1.3271156
1.327243
1.3273709
1.3274989
1.3276269
1.3277548
1.3278824
1.3280097
1.3281368
1.3282635
1.32839
1.3285161
1.328642
1.3287677
1.328893
1.3290182
1.3291431
1.3292678
1.3293922
1.3295164
1.3296403
1.329764
1.3298874
1.3300106
1.3301335
1.330256
1.3303782
1.3305001
1.3306217
1.3307429
1.3308637
1.3309842
1.3311043
1.331224
1.3313433
1.3314622
1.3315807
1.3316988
1.3318165
1.3319337
1.3320506
1.3321671
1.3322832
1.3323989
1.3325142
1.3326291
1.3327437
1.3328578
1.3329716
1.3330849
1.3331979
1.3333105
1.3334227
1.3335346
1.3336461
1.3337571
1.3338679
1.3339782
1.3340881
1.3341977
1.3343069
1.3344157
1.3345241
1.3346322
1.3347398
1.3348471
1.334954
1.3350605
1.3351666
1.3352723
1.3353777
1.3354826
1.3355872
1.3356914
1.3357951
1.3358985
1.3360015
1.3361041
1.3362062
1.336308
1.3364094
1.3365104
1.3366109
1.3367111
1.3368108
1.3369102
1.3370091
1.3371076
1.3372058
1.3373035
1.3374008
1.3374976
1.3375941
1.3376901
1.3377857
1.3378809
1.3379757
1.3380701
1.338164
1.3382575
1.3383506
1.3384432
1.3385355
1.3386273
1.3387186
1.3388096
1.3389001
1.3389902
1.3390798
1.339169
1.3392578
1.3393461
1.339434
1.3395215
1.3396085
1.3396951
1.3397812
1.3398669
1.3399522
1.340037
1.3401213
1.3402053
1.3402888
1.3403718
1.3404544
1.3405365
1.3406182
1.3406995