/*--------------------------------*- C++ -*----------------------------------*\
  =========                 |
  \\      /  F ield         | OpenFOAM: The Open Source CFD Toolbox
   \\    /   O peration     | Website:  https://openfoam.org
    \\  /    A nd           | Version:  7
     \\/     M anipulation  |
\*---------------------------------------------------------------------------*/
FoamFile
{
    version     2.0;
    format      ascii;
    class       volScalarField;
    location    "0.00171";
    object      p;
}
// * * * * * * * * * * * * * * * * * * * * * * * * * * * * * * * * * * * * * //

dimensions      [1 -1 -2 0 0 0 0];

internalField   nonuniform List<scalar> 
5000
(
81484.887
81494.124
81503.574
81513.069
81522.589
81532.123
81541.665
81551.211
81560.76
81570.308
81579.857
81589.406
81598.955
81608.504
81618.053
81627.602
81637.151
81646.7
81656.249
81665.797
81675.345
81684.893
81694.44
81703.987
81713.533
81723.079
81732.623
81742.168
81751.711
81761.254
81770.796
81780.337
81789.878
81799.418
81808.957
81818.496
81828.033
81837.571
81847.107
81856.643
81866.177
81875.711
81885.245
81894.778
81904.309
81913.841
81923.371
81932.901
81942.43
81951.959
81961.486
81971.013
81980.54
81990.065
81999.59
82009.114
82018.638
82028.161
82037.683
82047.204
82056.725
82066.245
82075.764
82085.283
82094.801
82104.318
82113.834
82123.35
82132.865
82142.38
82151.894
82161.407
82170.92
82180.432
82189.943
82199.453
82208.963
82218.472
82227.98
82237.487
82246.994
82256.499
82266.003
82275.505
82285.006
82294.506
82304.004
82313.501
82322.997
82332.491
82341.984
82351.476
82360.968
82370.459
82379.95
82389.441
82398.932
82408.424
82417.916
82427.41
82436.904
82446.4
82455.896
82465.394
82474.892
82484.391
82493.89
82503.39
82512.89
82522.39
82531.891
82541.391
82550.89
82560.39
82569.889
82579.387
82588.885
82598.382
82607.878
82617.373
82626.867
82636.36
82645.853
82655.344
82664.834
82674.324
82683.812
82693.299
82702.784
82712.269
82721.752
82731.234
82740.715
82750.194
82759.672
82769.148
82778.623
82788.097
82797.569
82807.039
82816.508
82825.975
82835.44
82844.903
82854.365
82863.824
82873.282
82882.738
82892.191
82901.643
82911.092
82920.539
82929.983
82939.426
82948.865
82958.303
82967.737
82977.169
82986.599
82996.025
83005.449
83014.87
83024.288
83033.702
83043.114
83052.523
83061.928
83071.33
83080.729
83090.124
83099.516
83108.904
83118.288
83127.669
83137.046
83146.419
83155.788
83165.153
83174.514
83183.87
83193.223
83202.571
83211.914
83221.253
83230.587
83239.917
83249.241
83258.561
83267.876
83277.186
83286.492
83295.791
83305.086
83314.376
83323.66
83332.939
83342.212
83351.48
83360.742
83369.999
83379.249
83388.495
83397.734
83406.968
83416.196
83425.417
83434.633
83443.843
83453.046
83462.243
83471.435
83480.619
83489.798
83498.97
83508.136
83517.296
83526.448
83535.595
83544.735
83553.868
83562.994
83572.114
83581.228
83590.334
83599.434
83608.527
83617.613
83626.692
83635.764
83644.829
83653.887
83662.938
83671.982
83681.018
83690.048
83699.07
83708.084
83717.092
83726.092
83735.084
83744.069
83753.046
83762.015
83770.977
83779.932
83788.878
83797.817
83806.749
83815.672
83824.588
83833.497
83842.398
83851.291
83860.177
83869.055
83877.926
83886.789
83895.645
83904.494
83913.336
83922.171
83930.998
83939.818
83948.632
83957.439
83966.238
83975.031
83983.818
83992.598
84001.371
84010.138
84018.898
84027.652
84036.399
84045.141
84053.876
84062.605
84071.328
84080.045
84088.756
84097.461
84106.16
84114.854
84123.542
84132.224
84140.9
84149.571
84158.237
84166.897
84175.551
84184.201
84192.845
84201.484
84210.117
84218.746
84227.37
84235.988
84244.602
84253.211
84261.815
84270.415
84279.009
84287.6
84296.185
84304.766
84313.343
84321.916
84330.484
84339.047
84347.607
84356.163
84364.714
84373.262
84381.805
84390.345
84398.881
84407.413
84415.942
84424.467
84432.988
84441.506
84450.021
84458.532
84467.04
84475.544
84484.046
84492.544
84501.039
84509.532
84518.021
84526.508
84534.992
84543.473
84551.951
84560.427
84568.9
84577.371
84585.84
84594.306
84602.77
84611.232
84619.692
84628.149
84636.605
84645.059
84653.51
84661.961
84670.409
84678.856
84687.301
84695.745
84704.187
84712.628
84721.068
84729.506
84737.943
84746.38
84754.815
84763.249
84771.683
84780.115
84788.547
84796.978
84805.409
84813.839
84822.268
84830.697
84839.125
84847.553
84855.981
84864.409
84872.836
84881.263
84889.689
84898.116
84906.542
84914.968
84923.395
84931.821
84940.247
84948.673
84957.099
84965.525
84973.952
84982.378
84990.805
84999.232
85007.659
85016.086
85024.514
85032.943
85041.371
85049.801
85058.231
85066.662
85075.094
85083.526
85091.96
85100.395
85108.831
85117.269
85125.708
85134.149
85142.592
85151.037
85159.484
85167.933
85176.384
85184.838
85193.295
85201.755
85210.217
85218.683
85227.151
85235.624
85244.1
85252.579
85261.063
85269.55
85278.042
85286.537
85295.037
85303.542
85312.052
85320.566
85329.085
85337.609
85346.138
85354.673
85363.213
85371.758
85380.31
85388.867
85397.429
85405.998
85414.573
85423.154
85431.742
85440.336
85448.936
85457.543
85466.157
85474.778
85483.406
85492.04
85500.682
85509.331
85517.988
85526.652
85535.323
85544.002
85552.689
85561.383
85570.086
85578.796
85587.514
85596.241
85604.975
85613.718
85622.469
85631.229
85639.997
85648.773
85657.558
85666.351
85675.154
85683.964
85692.784
85701.612
85710.45
85719.296
85728.151
85737.015
85745.888
85754.771
85763.662
85772.563
85781.472
85790.391
85799.319
85808.257
85817.204
85826.16
85835.125
85844.1
85853.084
85862.078
85871.081
85880.094
85889.116
85898.148
85907.19
85916.241
85925.301
85934.371
85943.451
85952.54
85961.639
85970.747
85979.865
85988.993
85998.13
86007.277
86016.433
86025.599
86034.774
86043.959
86053.154
86062.357
86071.571
86080.793
86090.025
86099.267
86108.517
86117.777
86127.046
86136.325
86145.612
86154.908
86164.213
86173.527
86182.85
86192.182
86201.522
86210.871
86220.229
86229.595
86238.969
86248.351
86257.742
86267.14
86276.547
86285.961
86295.383
86304.813
86314.25
86323.695
86333.146
86342.605
86352.071
86361.544
86371.023
86380.509
86390.002
86399.501
86409.006
86418.518
86428.035
86437.558
86447.087
86456.622
86466.162
86475.708
86485.258
86494.814
86504.375
86513.941
86523.512
86533.087
86542.667
86552.252
86561.841
86571.434
86581.031
86590.633
86600.239
86609.848
86619.461
86629.078
86638.699
86648.324
86657.951
86667.583
86677.217
86686.855
86696.497
86706.141
86715.788
86725.439
86735.092
86744.748
86754.407
86764.069
86773.733
86783.4
86793.07
86802.741
86812.416
86822.092
86831.771
86841.451
86851.134
86860.819
86870.506
86880.195
86889.885
86899.577
86909.271
86918.966
86928.663
86938.361
86948.06
86957.761
86967.463
86977.166
86986.87
86996.575
87006.281
87015.988
87025.696
87035.404
87045.113
87054.823
87064.533
87074.244
87083.955
87093.667
87103.379
87113.091
87122.804
87132.518
87142.231
87151.945
87161.659
87171.373
87181.088
87190.802
87200.517
87210.232
87219.947
87229.663
87239.378
87249.094
87258.81
87268.526
87278.242
87287.958
87297.674
87307.391
87317.108
87326.824
87336.541
87346.258
87355.976
87365.693
87375.411
87385.128
87394.846
87404.564
87414.282
87424
87433.718
87443.437
87453.155
87462.873
87472.592
87482.31
87492.029
87501.747
87511.466
87521.185
87530.903
87540.621
87550.34
87560.058
87569.776
87579.494
87589.212
87598.929
87608.647
87618.364
87628.081
87637.798
87647.514
87657.23
87666.946
87676.662
87686.377
87696.092
87705.807
87715.521
87725.235
87734.949
87744.662
87754.376
87764.088
87773.801
87783.513
87793.225
87802.937
87812.648
87822.359
87832.07
87841.78
87851.491
87861.201
87870.911
87880.621
87890.33
87900.039
87909.749
87919.458
87929.167
87938.876
87948.584
87958.293
87968.002
87977.71
87987.419
87997.127
88006.835
88016.543
88026.251
88035.959
88045.667
88055.375
88065.083
88074.791
88084.499
88094.206
88103.914
88113.621
88123.328
88133.035
88142.742
88152.449
88162.155
88171.861
88181.567
88191.273
88200.979
88210.684
88220.389
88230.093
88239.797
88249.501
88259.204
88268.907
88278.61
88288.312
88298.014
88307.715
88317.415
88327.115
88336.815
88346.514
88356.213
88365.911
88375.608
88385.305
88395.001
88404.697
88414.393
88424.087
88433.781
88443.475
88453.168
88462.861
88472.553
88482.245
88491.936
88501.626
88511.317
88521.006
88530.696
88540.385
88550.073
88559.761
88569.449
88579.137
88588.824
88598.511
88608.198
88617.885
88627.571
88637.257
88646.943
88656.629
88666.314
88676
88685.685
88695.371
88705.056
88714.741
88724.426
88734.111
88743.796
88753.481
88763.166
88772.851
88782.536
88792.221
88801.906
88811.59
88821.275
88830.96
88840.644
88850.329
88860.013
88869.697
88879.382
88889.066
88898.75
88908.434
88918.117
88927.801
88937.484
88947.167
88956.85
88966.533
88976.216
88985.898
88995.58
89005.262
89014.944
89024.625
89034.306
89043.987
89053.667
89063.347
89073.027
89082.707
89092.386
89102.065
89111.744
89121.422
89131.101
89140.779
89150.456
89160.134
89169.811
89179.487
89189.164
89198.841
89208.517
89218.193
89227.868
89237.544
89247.219
89256.895
89266.57
89276.245
89285.92
89295.594
89305.269
89314.943
89324.618
89334.292
89343.966
89353.64
89363.314
89372.988
89382.662
89392.336
89402.01
89411.684
89421.358
89431.031
89440.705
89450.378
89460.052
89469.726
89479.399
89489.073
89498.746
89508.418
89518.092
89527.765
89537.438
89547.112
89556.784
89566.456
89576.128
89585.8
89595.472
89605.146
89614.819
89624.491
89634.162
89643.832
89653.502
89663.172
89672.843
89682.515
89692.186
89701.857
89711.528
89721.199
89730.871
89740.541
89750.212
89759.881
89769.55
89779.219
89788.887
89798.554
89808.222
89817.89
89827.559
89837.227
89846.895
89856.562
89866.229
89875.896
89885.563
89895.23
89904.897
89914.563
89924.23
89933.896
89943.563
89953.229
89962.895
89972.562
89982.228
89991.894
90001.56
90011.226
90020.892
90030.558
90040.225
90049.891
90059.557
90069.223
90078.888
90088.554
90098.22
90107.886
90117.551
90127.217
90136.883
90146.548
90156.214
90165.879
90175.543
90185.208
90194.871
90204.535
90214.199
90223.863
90233.527
90243.19
90252.852
90262.514
90272.177
90281.841
90291.503
90301.165
90310.825
90320.486
90330.147
90339.808
90349.469
90359.13
90368.789
90378.446
90388.104
90397.763
90407.422
90417.08
90426.738
90436.395
90446.051
90455.707
90465.363
90475.019
90484.674
90494.328
90503.983
90513.637
90523.291
90532.945
90542.598
90552.25
90561.901
90571.553
90581.205
90590.857
90600.508
90610.159
90619.81
90629.46
90639.11
90648.759
90658.409
90668.059
90677.71
90687.36
90697.011
90706.66
90716.309
90725.958
90735.606
90745.254
90754.903
90764.551
90774.2
90783.849
90793.498
90803.147
90812.796
90822.444
90832.093
90841.74
90851.388
90861.037
90870.685
90880.334
90889.983
90899.631
90909.279
90918.927
90928.575
90938.222
90947.87
90957.518
90967.166
90976.815
90986.464
90996.113
91005.76
91015.407
91025.054
91034.701
91044.348
91053.996
91063.644
91073.293
91082.941
91092.588
91102.236
91111.882
91121.528
91131.174
91140.821
91150.468
91160.115
91169.762
91179.409
91189.055
91198.701
91208.347
91217.993
91227.638
91237.284
91246.93
91256.577
91266.224
91275.871
91285.517
91295.162
91304.806
91314.451
91324.097
91333.743
91343.389
91353.035
91362.682
91372.328
91381.973
91391.619
91401.264
91410.91
91420.555
91430.201
91439.847
91449.492
91459.138
91468.784
91478.43
91488.076
91497.722
91507.368
91517.014
91526.659
91536.305
91545.951
91555.598
91565.244
91574.89
91584.535
91594.18
91603.825
91613.471
91623.117
91632.764
91642.41
91652.056
91661.702
91671.347
91680.992
91690.636
91700.281
91709.925
91719.569
91729.213
91738.856
91748.499
91758.142
91767.785
91777.428
91787.071
91796.713
91806.354
91815.994
91825.635
91835.276
91844.917
91854.557
91864.198
91873.837
91883.476
91893.114
91902.752
91912.388
91922.024
91931.66
91941.296
91950.931
91960.565
91970.198
91979.831
91989.464
91999.097
92008.729
92018.36
92027.99
92037.619
92047.248
92056.878
92066.507
92076.135
92085.763
92095.39
92105.016
92114.642
92124.267
92133.89
92143.513
92153.135
92162.757
92172.379
92182.002
92191.624
92201.246
92210.866
92220.486
92230.104
92239.722
92249.339
92258.956
92268.572
92278.188
92287.804
92297.419
92307.034
92316.649
92326.263
92335.877
92345.49
92355.104
92364.716
92374.329
92383.942
92393.554
92403.166
92412.777
92422.388
92431.999
92441.61
92451.221
92460.832
92470.442
92480.053
92489.663
92499.273
92508.882
92518.492
92528.102
92537.711
92547.321
92556.93
92566.539
92576.148
92585.758
92595.367
92604.976
92614.584
92624.194
92633.803
92643.412
92653.02
92662.629
92672.237
92681.846
92691.455
92701.064
92710.673
92720.281
92729.889
92739.497
92749.106
92758.715
92768.324
92777.933
92787.541
92797.149
92806.756
92816.364
92825.971
92835.579
92845.185
92854.792
92864.398
92874.005
92883.612
92893.22
92902.827
92912.433
92922.038
92931.644
92941.249
92950.854
92960.459
92970.063
92979.666
92989.269
92998.872
93008.476
93018.08
93027.683
93037.285
93046.887
93056.487
93066.088
93075.688
93085.288
93094.887
93104.485
93114.083
93123.68
93133.278
93142.876
93152.473
93162.069
93171.665
93181.259
93190.853
93200.446
93210.039
93219.631
93229.222
93238.812
93248.402
93257.992
93267.582
93277.172
93286.76
93296.348
93305.934
93315.519
93325.104
93334.689
93344.272
93353.855
93363.437
93373.018
93382.598
93392.179
93401.759
93411.339
93420.918
93430.495
93440.071
93449.646
93459.22
93468.795
93478.37
93487.944
93497.516
93507.087
93516.656
93526.226
93535.795
93545.365
93554.933
93564.5
93574.066
93583.631
93593.195
93602.758
93612.322
93621.885
93631.447
93641.008
93650.568
93660.126
93669.685
93679.244
93688.802
93698.36
93707.916
93717.471
93727.025
93736.578
93746.132
93755.685
93765.238
93774.789
93784.34
93793.89
93803.439
93812.987
93822.536
93832.084
93841.632
93851.179
93860.724
93870.269
93879.814
93889.359
93898.903
93908.448
93917.991
93927.533
93937.075
93946.616
93956.157
93965.697
93975.238
93984.778
93994.318
94003.857
94013.395
94022.933
94032.471
94042.01
94051.548
94061.085
94070.622
94080.158
94089.695
94099.231
94108.767
94118.303
94127.838
94137.374
94146.909
94156.444
94165.978
94175.513
94185.048
94194.582
94204.116
94213.65
94223.184
94232.718
94242.252
94251.786
94261.319
94270.853
94280.387
94289.92
94299.453
94308.986
94318.519
94328.053
94337.586
94347.118
94356.651
94366.184
94375.717
94385.25
94394.782
94404.314
94413.846
94423.378
94432.911
94442.444
94451.975
94461.506
94471.038
94480.57
94490.102
94499.633
94509.164
94518.695
94528.226
94537.756
94547.287
94556.817
94566.346
94575.876
94585.406
94594.935
94604.464
94613.993
94623.521
94633.05
94642.578
94652.106
94661.633
94671.16
94680.687
94690.213
94699.739
94709.265
94718.79
94728.315
94737.839
94747.363
94756.887
94766.41
94775.933
94785.455
94794.977
94804.498
94814.019
94823.539
94833.059
94842.578
94852.097
94861.615
94871.133
94880.65
94890.167
94899.683
94909.198
94918.713
94928.227
94937.741
94947.254
94956.766
94966.278
94975.79
94985.3
94994.81
95004.319
95013.828
95023.336
95032.843
95042.35
95051.856
95061.361
95070.865
95080.369
95089.872
95099.375
95108.877
95118.378
95127.878
95137.378
95146.877
95156.376
95165.874
95175.371
95184.867
95194.363
95203.858
95213.353
95222.847
95232.34
95241.833
95251.325
95260.816
95270.307
95279.797
95289.286
95298.775
95308.263
95317.751
95327.238
95336.724
95346.21
95355.695
95365.18
95374.664
95384.148
95393.631
95403.114
95412.596
95422.077
95431.559
95441.039
95450.519
95459.998
95469.478
95478.957
95488.435
95497.913
95507.39
95516.867
95526.343
95535.819
95545.295
95554.77
95564.246
95573.72
95583.195
95592.669
95602.144
95611.617
95621.09
95630.563
95640.035
95649.508
95658.98
95668.452
95677.923
95687.395
95696.866
95706.337
95715.808
95725.278
95734.749
95744.219
95753.69
95763.16
95772.63
95782.099
95791.569
95801.038
95810.507
95819.976
95829.445
95838.914
95848.382
95857.851
95867.32
95876.788
95886.256
95895.724
95905.192
95914.66
95924.128
95933.596
95943.064
95952.531
95961.998
95971.466
95980.933
95990.399
95999.866
96009.333
96018.8
96028.266
96037.732
96047.198
96056.664
96066.13
96075.596
96085.061
96094.527
96103.992
96113.457
96122.922
96132.386
96141.85
96151.314
96160.778
96170.242
96179.705
96189.168
96198.631
96208.093
96217.556
96227.018
96236.479
96245.94
96255.401
96264.862
96274.322
96283.782
96293.242
96302.701
96312.16
96321.618
96331.076
96340.533
96349.99
96359.447
96368.903
96378.359
96387.814
96397.269
96406.723
96416.176
96425.629
96435.082
96444.534
96453.986
96463.437
96472.887
96482.337
96491.786
96501.234
96510.682
96520.13
96529.576
96539.022
96548.467
96557.912
96567.356
96576.799
96586.242
96595.684
96605.125
96614.565
96624.005
96633.444
96642.882
96652.32
96661.756
96671.192
96680.627
96690.062
96699.495
96708.928
96718.36
96727.791
96737.221
96746.651
96756.079
96765.507
96774.934
96784.359
96793.785
96803.209
96812.633
96822.055
96831.477
96840.898
96850.319
96859.738
96869.156
96878.574
96887.991
96897.407
96906.822
96916.236
96925.649
96935.062
96944.473
96953.884
96963.294
96972.703
96982.111
96991.519
97000.926
97010.332
97019.737
97029.142
97038.545
97047.948
97057.35
97066.752
97076.152
97085.552
97094.952
97104.35
97113.748
97123.145
97132.541
97141.937
97151.332
97160.727
97170.121
97179.514
97188.907
97198.299
97207.691
97217.082
97226.472
97235.862
97245.252
97254.641
97264.03
97273.418
97282.805
97292.192
97301.579
97310.966
97320.352
97329.737
97339.123
97348.508
97357.892
97367.277
97376.661
97386.044
97395.428
97404.811
97414.194
97423.577
97432.959
97442.342
97451.724
97461.106
97470.487
97479.869
97489.251
97498.632
97508.013
97517.394
97526.775
97536.156
97545.537
97554.918
97564.298
97573.679
97583.059
97592.44
97601.82
97611.201
97620.581
97629.962
97639.342
97648.722
97658.103
97667.483
97676.863
97686.243
97695.624
97705.004
97714.384
97723.765
97733.145
97742.525
97751.905
97761.285
97770.666
97780.046
97789.426
97798.806
97808.186
97817.566
97826.946
97836.326
97845.706
97855.086
97864.466
97873.845
97883.225
97892.604
97901.984
97911.363
97920.742
97930.122
97939.501
97948.88
97958.259
97967.637
97977.016
97986.394
97995.772
98005.15
98014.528
98023.906
98033.283
98042.66
98052.037
98061.414
98070.79
98080.166
98089.542
98098.918
98108.293
98117.668
98127.043
98136.417
98145.791
98155.165
98164.538
98173.911
98183.284
98192.656
98202.028
98211.4
98220.77
98230.141
98239.512
98248.881
98258.251
98267.62
98276.988
98286.356
98295.724
98305.091
98314.458
98323.824
98333.19
98342.556
98351.92
98361.285
98370.648
98380.012
98389.375
98398.738
98408.099
98417.461
98426.822
98436.181
98445.541
98454.9
98464.259
98473.617
98482.974
98492.331
98501.687
98511.042
98520.397
98529.752
98539.106
98548.459
98557.811
98567.163
98576.515
98585.865
98595.215
98604.564
98613.913
98623.261
98632.609
98641.956
98651.302
98660.647
98669.992
98679.336
98688.679
98698.022
98707.364
98716.706
98726.046
98735.386
98744.726
98754.065
98763.403
98772.741
98782.078
98791.415
98800.751
98810.086
98819.42
98828.754
98838.087
98847.419
98856.751
98866.082
98875.412
98884.742
98894.071
98903.399
98912.727
98922.054
98931.38
98940.706
98950.031
98959.355
98968.679
98978.002
98987.324
98996.645
99005.966
99015.285
99024.604
99033.923
99043.241
99052.558
99061.874
99071.19
99080.505
99089.819
99099.132
99108.445
99117.756
99127.067
99136.377
99145.687
99154.995
99164.303
99173.611
99182.917
99192.224
99201.53
99210.835
99220.139
99229.443
99238.745
99248.047
99257.347
99266.647
99275.945
99285.243
99294.54
99303.836
99313.132
99322.427
99331.721
99341.015
99350.309
99359.601
99368.893
99378.183
99387.472
99396.76
99406.048
99415.334
99424.619
99433.904
99443.187
99452.47
99461.753
99471.034
99480.316
99489.596
99498.876
99508.156
99517.435
99526.713
99535.99
99545.267
99554.543
99563.818
99573.093
99582.368
99591.642
99600.916
99610.192
99619.469
99628.749
99638.03
99647.309
99656.588
99665.866
99675.146
99684.426
99693.706
99702.987
99712.269
99721.552
99730.829
99740.103
99749.417
99758.668
99767.907
99777.145
99786.382
99795.62
99804.858
99814.096
99823.334
99832.572
99841.811
99851.049
99860.287
99869.525
99878.763
99888.001
99897.237
99906.474
99915.709
99924.944
99934.178
99943.411
99952.642
99961.873
99971.102
99980.329
99989.555
99998.779
100008
100017.22
100026.44
100035.66
100044.87
100054.08
100063.29
100072.5
100081.7
100090.9
100100.1
100109.3
100118.49
100127.68
100136.87
100146.05
100155.23
100164.41
100173.59
100182.76
100191.92
100201.08
100210.24
100219.4
100228.55
100237.7
100246.84
100255.97
100265.11
100274.24
100283.36
100292.48
100301.59
100310.7
100319.8
100328.9
100337.99
100347.08
100356.15
100365.23
100374.3
100383.36
100392.41
100401.46
100410.5
100419.53
100428.55
100437.57
100446.58
100455.58
100464.58
100473.56
100482.54
100491.51
100500.46
100509.41
100518.35
100527.28
100536.2
100545.11
100554.01
100562.9
100571.78
100580.64
100589.49
100598.34
100607.17
100615.98
100624.79
100633.58
100642.36
100651.12
100659.87
100668.61
100677.33
100686.04
100694.73
100703.41
100712.07
100720.71
100729.34
100737.95
100746.54
100755.11
100763.67
100772.21
100780.73
100789.23
100797.71
100806.18
100814.62
100823.04
100831.44
100839.82
100848.17
100856.51
100864.82
100873.11
100881.37
100889.61
100897.83
100906.02
100914.19
100922.33
100930.45
100938.54
100946.6
100954.64
100962.65
100970.63
100978.58
100986.51
100994.4
101002.26
101010.1
101017.9
101025.68
101033.42
101041.13
101048.8
101056.45
101064.06
101071.64
101079.18
101086.69
101094.17
101101.61
101109.01
101116.38
101123.71
101131.01
101138.27
101145.49
101152.67
101159.82
101166.92
101173.99
101181.02
101188.01
101194.95
101201.86
101208.73
101215.55
101222.34
101229.08
101235.78
101242.43
101249.05
101255.62
101262.15
101268.63
101275.07
101281.47
101287.82
101294.12
101300.38
101306.6
101312.77
101318.89
101324.97
101331
101336.99
101342.93
101348.82
101354.66
101360.46
101366.21
101371.91
101377.57
101383.17
101388.73
101394.24
101399.71
101405.12
101410.49
101415.8
101421.07
101426.29
101431.47
101436.59
101441.66
101446.69
101451.66
101456.59
101461.47
101466.3
101471.08
101475.81
101480.49
101485.13
101489.71
101494.25
101498.74
101503.18
101507.57
101511.92
101516.21
101520.46
101524.66
101528.81
101532.91
101536.97
101540.98
101544.94
101548.85
101552.72
101556.54
101560.32
101564.05
101567.73
101571.37
101574.96
101578.5
101582
101585.46
101588.87
101592.24
101595.56
101598.84
101602.07
101605.26
101608.41
101611.52
101614.58
101617.6
101620.58
101623.52
101626.42
101629.27
101632.09
101634.87
101637.6
101640.3
101642.95
101645.57
101648.15
101650.69
101653.2
101655.66
101658.09
101660.48
101662.84
101665.16
101667.44
101669.69
101671.9
101674.08
101676.23
101678.34
101680.42
101682.46
101684.48
101686.46
101688.41
101690.32
101692.21
101694.06
101695.89
101697.68
101699.45
101701.18
101702.89
101704.57
101706.22
101707.84
101709.44
101711.01
101712.55
101714.06
101715.55
101717.02
101718.46
101719.87
101721.26
101722.63
101723.97
101725.29
101726.59
101727.86
101729.12
101730.35
101731.55
101732.74
101733.91
101735.05
101736.18
101737.28
101738.37
101739.44
101740.49
101741.52
101742.53
101743.52
101744.5
101745.46
101746.4
101747.32
101748.23
101749.13
101750
101750.86
101751.71
101752.54
101753.36
101754.16
101754.95
101755.72
101756.48
101757.23
101757.96
101758.69
101759.39
101760.09
101760.77
101761.45
101762.11
101762.76
101763.39
101764.02
101764.64
101765.24
101765.84
101766.42
101767
101767.56
101768.12
101768.66
101769.2
101769.73
101770.25
101770.76
101771.26
101771.76
101772.24
101772.72
101773.19
101773.65
101774.11
101774.56
101775
101775.43
101775.86
101776.28
101776.69
101777.1
101777.5
101777.89
101778.28
101778.66
101779.03
101779.4
101779.77
101780.13
101780.48
101780.83
101781.17
101781.51
101781.84
101782.17
101782.49
101782.81
101783.12
101783.43
101783.73
101784.03
101784.33
101784.62
101784.91
101785.19
101785.47
101785.74
101786.01
101786.27
101786.54
101786.8
101787.05
101787.3
101787.55
101787.79
101788.03
101788.27
101788.5
101788.73
101788.96
101789.18
101789.4
101789.61
101789.83
101790.04
101790.24
101790.45
101790.65
101790.84
101791.04
101791.23
101791.42
101791.6
101791.78
101791.96
101792.14
101792.31
101792.48
101792.65
101792.82
101792.98
101793.14
101793.3
101793.45
101793.6
101793.75
101793.89
101794.04
101794.18
101794.32
101794.45
101794.58
101794.71
101794.84
101794.96
101795.08
101795.2
101795.32
101795.43
101795.54
101795.65
101795.76
101795.86
101795.96
101796.06
101796.16
101796.25
101796.34
101796.43
101796.51
101796.59
101796.67
101796.75
101796.83
101796.9
101796.97
101797.03
101797.1
101797.16
101797.22
101797.28
101797.33
101797.38
101797.43
101797.48
101797.52
101797.56
101797.6
101797.63
101797.67
101797.7
101797.73
101797.75
101797.77
101797.79
101797.81
101797.83
101797.84
101797.85
101797.85
101797.86
101797.86
101797.86
101797.85
101797.85
101797.84
101797.83
101797.81
101797.79
101797.77
101797.75
101797.73
101797.7
101797.67
101797.63
101797.6
101797.56
101797.52
101797.47
101797.42
101797.37
101797.32
101797.27
101797.21
101797.15
101797.08
101797.02
101796.95
101796.87
101796.8
101796.72
101796.64
101796.56
101796.47
101796.38
101796.29
101796.19
101796.1
101796
101795.89
101795.79
101795.68
101795.57
101795.45
101795.33
101795.21
101795.09
101794.97
101794.84
101794.7
101794.57
101794.43
101794.29
101794.15
101794
101793.85
101793.7
101793.55
101793.39
101793.23
101793.07
101792.9
101792.73
101792.56
101792.38
101792.2
101792.02
101791.84
101791.65
101791.46
101791.27
101791.07
101790.88
101790.67
101790.47
101790.26
101790.05
101789.84
101789.62
101789.4
101789.18
101788.96
101788.73
101788.5
101788.26
101788.03
101787.79
101787.54
101787.3
101787.05
101786.8
101786.54
101786.28
101786.02
101785.76
101785.49
101785.22
101784.95
101784.67
101784.4
101784.11
101783.83
101783.54
101783.25
101782.96
101782.66
101782.36
101782.06
101781.75
101781.44
101781.13
101780.82
101780.5
101780.18
101779.86
101779.53
101779.2
101778.87
101778.53
101778.19
101777.85
101777.51
101777.16
101776.81
101776.46
101776.1
101775.74
101775.38
101775.01
101774.65
101774.28
101773.9
101773.52
101773.14
101772.76
101772.37
101771.97
101771.58
101771.18
101770.78
101770.38
101769.98
101769.57
101769.16
101768.75
101768.33
101767.9
101767.48
101767.05
101766.63
101766.19
101765.76
101765.32
101764.88
101764.43
101763.99
101763.54
101763.08
101762.63
101762.17
101761.7
101761.24
101760.77
101760.3
101759.82
101759.35
101758.87
101758.38
101757.9
101757.41
101756.91
101756.42
101755.92
101755.42
101754.91
101754.41
101753.89
101753.38
101752.87
101752.35
101751.82
101751.3
101750.77
101750.24
101749.7
101749.17
101748.62
101748.08
101747.53
101746.98
101746.43
101745.88
101745.32
101744.76
101744.19
101743.63
101743.05
101742.48
101741.9
101741.32
101740.74
101740.15
101739.56
101738.97
101738.38
101737.78
101737.18
101736.58
101735.98
101735.37
101734.75
101734.14
101733.51
101732.89
101732.27
101731.64
101731.02
101730.39
101729.76
101729.13
101728.5
101727.86
101727.22
101726.57
101725.92
101725.26
101724.59
101723.93
101723.27
101722.61
101721.96
101721.3
101720.65
101719.99
101719.31
101718.62
101717.92
101717.21
101716.49
101715.78
101715.07
101714.37
101713.69
101713.02
101712.35
101711.68
101710.98
101710.26
101709.51
101708.73
101707.94
101707.16
101706.39
101705.62
101704.87
101704.3
101703.65
101702.96
101702.15
101701.34
101700.57
101699.79
101699.01
101698.23
101697.47
101696.73
101695.99
101695.26
101694.53
101693.79
101693.04
101692.28
101691.51
101690.74
101689.96
101689.18
101688.4
101687.63
101686.85
101686.08
101685.3
101684.52
101683.74
101682.95
101682.16
101681.36
101680.56
101679.75
101678.95
101678.14
101677.33
101676.51
101675.7
101674.88
101674.06
101673.24
101672.41
101671.58
101670.75
101669.92
101669.08
101668.23
101667.39
101666.54
101665.69
101664.84
101663.99
101663.13
101662.27
101661.41
101660.54
101659.67
101658.8
101657.93
101657.05
101656.17
101655.29
101654.4
101653.51
101652.62
101651.73
101650.83
101649.93
101649.03
101648.13
101647.22
101646.31
101645.4
101644.48
101643.56
101642.64
101641.72
101640.79
101639.86
101638.93
101637.99
101637.05
101636.11
101635.17
101634.22
101633.28
101632.32
101631.37
101630.41
101629.45
101628.49
101627.52
101626.55
101625.58
101624.61
101623.63
101622.65
101621.67
101620.68
101619.7
101618.7
101617.71
101616.71
101615.71
101614.71
101613.71
101612.7
101611.69
101610.67
101609.65
101608.63
101607.61
101606.58
101605.56
101604.52
101603.49
101602.45
101601.41
101600.36
101599.32
101598.26
101597.21
101596.15
101595.09
101594.03
101592.96
101591.89
101590.82
101589.74
101588.66
101587.58
101586.49
101585.4
101584.31
101583.21
101582.11
101581.01
101579.9
101578.79
101577.68
101576.56
101575.44
101574.31
101573.18
101572.05
101570.91
101569.77
101568.63
101567.48
101566.32
101565.17
101564.01
101562.84
101561.67
101560.5
101559.32
101558.14
101556.95
101555.76
101554.56
101553.36
101552.16
101550.94
101549.73
101548.51
101547.28
101546.05
101544.82
101543.58
101542.33
101541.08
101539.83
101538.56
101537.3
101536.02
101534.74
101533.46
101532.17
101530.87
101529.57
101528.26
101526.94
101525.62
101524.29
101522.95
101521.61
101520.26
101518.91
101517.54
101516.17
101514.8
101513.41
101512.02
101510.62
101509.21
101507.79
101506.37
101504.94
101503.49
101502.04
101500.59
101499.12
101497.64
101496.16
101494.67
101493.16
101491.65
101490.13
101488.59
101487.05
101485.5
101483.94
101482.36
101480.78
101479.18
101477.58
101475.96
101474.33
101472.69
101471.04
101469.38
101467.7
101466.01
101464.31
101462.6
101460.87
101459.13
101457.38
101455.62
101453.84
101452.04
101450.24
101448.41
101446.58
101444.73
101442.86
101440.98
101439.08
101437.17
101435.24
101433.3
101431.34
101429.36
101427.36
101425.35
101423.33
101421.28
101419.22
101417.13
101415.03
101412.92
101410.78
101408.62
101406.45
101404.25
101402.04
101399.8
101397.55
101395.27
101392.98
101390.66
101388.32
101385.96
101383.58
101381.17
101378.75
101376.3
101373.83
101371.33
101368.81
101366.27
101363.71
101361.12
101358.5