/*--------------------------------*- C++ -*----------------------------------*\
  =========                 |
  \\      /  F ield         | OpenFOAM: The Open Source CFD Toolbox
   \\    /   O peration     | Website:  https://openfoam.org
    \\  /    A nd           | Version:  7
     \\/     M anipulation  |
\*---------------------------------------------------------------------------*/
FoamFile
{
    version     2.0;
    format      ascii;
    class       volScalarField;
    location    "0.00171";
    object      Ux;
}
// * * * * * * * * * * * * * * * * * * * * * * * * * * * * * * * * * * * * * //

dimensions      [0 1 -1 0 0 0 0];

internalField   nonuniform List<scalar> 
5000
(
-47.651228
-47.604814
-47.581829
-47.554707
-47.528502
-47.501607
-47.4748
-47.44778
-47.420787
-47.393743
-47.366704
-47.339649
-47.312588
-47.285517
-47.25843
-47.231341
-47.204233
-47.177127
-47.150007
-47.12289
-47.095764
-47.068639
-47.041511
-47.014385
-46.987261
-46.960141
-46.933024
-46.905911
-46.878802
-46.851697
-46.824595
-46.797498
-46.770405
-46.743317
-46.716233
-46.689155
-46.662081
-46.635012
-46.607948
-46.580889
-46.553836
-46.526788
-46.499745
-46.472707
-46.445674
-46.418644
-46.39162
-46.3646
-46.337585
-46.310574
-46.283569
-46.256568
-46.229572
-46.202581
-46.175595
-46.148613
-46.121637
-46.094665
-46.067698
-46.040736
-46.013779
-45.986827
-45.959879
-45.932937
-45.905998
-45.879065
-45.852136
-45.825212
-45.798293
-45.771378
-45.744468
-45.717563
-45.690663
-45.663767
-45.636876
-45.60999
-45.583109
-45.556233
-45.529362
-45.502496
-45.475636
-45.448782
-45.421933
-45.395092
-45.368257
-45.341429
-45.314607
-45.287793
-45.260984
-45.234182
-45.207386
-45.180596
-45.15381
-45.127029
-45.100251
-45.073475
-45.046702
-45.019929
-44.993156
-44.966383
-44.93961
-44.912838
-44.886065
-44.859293
-44.832521
-44.80575
-44.778981
-44.752213
-44.725448
-44.698686
-44.671926
-44.64517
-44.618416
-44.591667
-44.564921
-44.538179
-44.511442
-44.48471
-44.457983
-44.43126
-44.404543
-44.377832
-44.351126
-44.324425
-44.29773
-44.271041
-44.244357
-44.217679
-44.191008
-44.164342
-44.137682
-44.111029
-44.084383
-44.057743
-44.031111
-44.004484
-43.977865
-43.951252
-43.924646
-43.898048
-43.871456
-43.844872
-43.818296
-43.791728
-43.765168
-43.738615
-43.712071
-43.685534
-43.659006
-43.632487
-43.605976
-43.579475
-43.552982
-43.526499
-43.500026
-43.473562
-43.447107
-43.420663
-43.394229
-43.367805
-43.341392
-43.314991
-43.2886
-43.26222
-43.235851
-43.209494
-43.183147
-43.156813
-43.13049
-43.10418
-43.077882
-43.051598
-43.025326
-42.999067
-42.972822
-42.94659
-42.92037
-42.894165
-42.867973
-42.841796
-42.815633
-42.789486
-42.763354
-42.737238
-42.711137
-42.685053
-42.658984
-42.632931
-42.606894
-42.580872
-42.554867
-42.528879
-42.502908
-42.476954
-42.451018
-42.4251
-42.3992
-42.373318
-42.347453
-42.321606
-42.295777
-42.269966
-42.244173
-42.218399
-42.192645
-42.16691
-42.141195
-42.115499
-42.089823
-42.064165
-42.038528
-42.01291
-41.987312
-41.961734
-41.936177
-41.910639
-41.885123
-41.859627
-41.834152
-41.808699
-41.783265
-41.757853
-41.732461
-41.707089
-41.681739
-41.656411
-41.631104
-41.605819
-41.580556
-41.555315
-41.530096
-41.5049
-41.479726
-41.454574
-41.429445
-41.404337
-41.379251
-41.354188
-41.329149
-41.304134
-41.279142
-41.254174
-41.229229
-41.204306
-41.179408
-41.154533
-41.129683
-41.104856
-41.080052
-41.055271
-41.030513
-41.005778
-40.981068
-40.956381
-40.931717
-40.907076
-40.882457
-40.85786
-40.833286
-40.808735
-40.784206
-40.7597
-40.735214
-40.71075
-40.686306
-40.661884
-40.637483
-40.613103
-40.588744
-40.564404
-40.540085
-40.515785
-40.491505
-40.467245
-40.443005
-40.418784
-40.394583
-40.3704
-40.346236
-40.32209
-40.297963
-40.273854
-40.249763
-40.225691
-40.201637
-40.177601
-40.153581
-40.129578
-40.105592
-40.081624
-40.057673
-40.033739
-40.009822
-39.98592
-39.962034
-39.938164
-39.91431
-39.890472
-39.866649
-39.842843
-39.819051
-39.795273
-39.77151
-39.747762
-39.724028
-39.700308
-39.676603
-39.652912
-39.629235
-39.605571
-39.58192
-39.558282
-39.534657
-39.511044
-39.487445
-39.463859
-39.440285
-39.416723
-39.393174
-39.369635
-39.346108
-39.322592
-39.299087
-39.275593
-39.25211
-39.228639
-39.205177
-39.181727
-39.158286
-39.134856
-39.111436
-39.088025
-39.064624
-39.041232
-39.017849
-38.994475
-38.971108
-38.94775
-38.924401
-38.90106
-38.877727
-38.854403
-38.831087
-38.807778
-38.784477
-38.761183
-38.737895
-38.714613
-38.691338
-38.66807
-38.644807
-38.621551
-38.598301
-38.575056
-38.551816
-38.528581
-38.505351
-38.482126
-38.458905
-38.435689
-38.412477
-38.389269
-38.366066
-38.342866
-38.319669
-38.296476
-38.273286
-38.250099
-38.226916
-38.203735
-38.180558
-38.157384
-38.134212
-38.111042
-38.087875
-38.06471
-38.041547
-38.018386
-37.995227
-37.972071
-37.948916
-37.925764
-37.902613
-37.879464
-37.856317
-37.833171
-37.810026
-37.786883
-37.763741
-37.7406
-37.71746
-37.69432
-37.67118
-37.648041
-37.6249
-37.60176
-37.578619
-37.555478
-37.532335
-37.50919
-37.486044
-37.462895
-37.439744
-37.41659
-37.393432
-37.370271
-37.347105
-37.323935
-37.300759
-37.277578
-37.254392
-37.231199
-37.208
-37.184794
-37.16158
-37.138359
-37.115129
-37.091891
-37.068644
-37.045388
-37.022122
-36.998846
-36.97556
-36.952263
-36.928954
-36.905635
-36.882303
-36.85896
-36.835603
-36.812234
-36.788851
-36.765456
-36.742046
-36.718623
-36.695185
-36.671733
-36.648266
-36.624783
-36.601285
-36.57777
-36.554239
-36.530691
-36.507127
-36.483546
-36.459948
-36.436333
-36.4127
-36.389048
-36.365379
-36.341691
-36.317984
-36.294258
-36.270513
-36.246749
-36.222964
-36.19916
-36.175336
-36.151491
-36.127627
-36.103741
-36.079835
-36.055908
-36.031961
-36.007991
-35.984001
-35.959989
-35.935956
-35.9119
-35.887823
-35.863723
-35.839602
-35.815458
-35.791292
-35.767103
-35.742892
-35.718658
-35.694401
-35.670122
-35.645819
-35.621494
-35.597145
-35.572773
-35.548378
-35.523959
-35.499517
-35.475052
-35.450563
-35.42605
-35.401514
-35.376954
-35.35237
-35.327762
-35.303131
-35.278476
-35.253797
-35.229094
-35.204367
-35.179617
-35.154842
-35.130044
-35.105222
-35.080377
-35.055507
-35.030614
-35.005697
-34.980756
-34.955792
-34.930804
-34.905793
-34.880759
-34.855701
-34.83062
-34.805516
-34.780389
-34.755239
-34.730067
-34.704872
-34.679655
-34.654416
-34.629155
-34.603872
-34.578567
-34.553241
-34.527894
-34.502526
-34.477137
-34.451727
-34.426297
-34.400847
-34.375378
-34.349888
-34.32438
-34.298853
-34.273308
-34.247744
-34.222163
-34.196564
-34.170948
-34.145314
-34.119665
-34.093998
-34.068316
-34.042619
-34.016906
-33.991179
-33.965437
-33.939681
-33.913911
-33.888128
-33.862331
-33.836522
-33.8107
-33.784866
-33.75902
-33.733162
-33.707294
-33.681414
-33.655523
-33.629623
-33.603712
-33.577792
-33.551863
-33.525925
-33.499977
-33.474021
-33.448056
-33.422083
-33.396102
-33.370114
-33.344118
-33.318115
-33.292105
-33.266088
-33.240065
-33.214035
-33.187998
-33.161956
-33.135907
-33.109853
-33.083794
-33.05773
-33.03166
-33.005586
-32.979507
-32.953424
-32.927336
-32.901245
-32.87515
-32.849051
-32.822948
-32.796842
-32.770734
-32.744622
-32.718507
-32.69239
-32.66627
-32.640149
-32.614026
-32.587901
-32.561774
-32.535646
-32.509517
-32.483387
-32.457257
-32.431125
-32.404994
-32.378862
-32.352731
-32.326599
-32.300468
-32.274338
-32.248208
-32.222079
-32.195951
-32.169823
-32.143697
-32.117572
-32.091449
-32.065327
-32.039206
-32.013088
-31.986971
-31.960856
-31.934742
-31.908631
-31.882521
-31.856413
-31.830307
-31.804203
-31.778102
-31.752002
-31.725905
-31.699809
-31.673716
-31.647625
-31.621536
-31.595448
-31.569364
-31.543281
-31.5172
-31.491121
-31.465045
-31.43897
-31.412898
-31.386828
-31.36076
-31.334694
-31.30863
-31.282569
-31.256509
-31.230452
-31.204397
-31.178344
-31.152294
-31.126245
-31.1002
-31.074156
-31.048115
-31.022077
-30.99604
-30.970007
-30.943976
-30.917948
-30.891922
-30.8659
-30.83988
-30.813863
-30.787849
-30.761838
-30.735831
-30.709826
-30.683824
-30.657825
-30.631829
-30.605836
-30.579846
-30.55386
-30.527877
-30.501897
-30.475921
-30.449948
-30.423978
-30.398011
-30.372048
-30.346088
-30.320132
-30.294179
-30.268229
-30.242282
-30.216339
-30.190398
-30.164461
-30.138527
-30.112596
-30.086669
-30.060744
-30.034822
-30.008903
-29.982987
-29.957074
-29.931164
-29.905257
-29.879353
-29.853451
-29.827552
-29.801655
-29.775761
-29.74987
-29.723982
-29.698097
-29.672213
-29.646333
-29.620455
-29.59458
-29.568707
-29.542837
-29.51697
-29.491106
-29.465244
-29.439384
-29.413528
-29.387674
-29.361823
-29.335975
-29.31013
-29.284288
-29.258448
-29.232612
-29.206779
-29.180949
-29.155122
-29.129298
-29.103478
-29.077661
-29.051847
-29.026037
-29.00023
-28.974427
-28.948627
-28.922831
-28.897039
-28.87125
-28.845465
-28.819684
-28.793906
-28.768133
-28.742363
-28.716597
-28.690835
-28.665077
-28.639323
-28.613572
-28.587825
-28.562083
-28.536344
-28.510609
-28.484878
-28.45915
-28.433427
-28.407707
-28.38199
-28.356278
-28.330569
-28.304864
-28.279162
-28.253464
-28.227769
-28.202077
-28.176389
-28.150704
-28.125022
-28.099343
-28.073668
-28.047995
-28.022326
-27.996659
-27.970995
-27.945334
-27.919676
-27.894021
-27.868368
-27.842717
-27.81707
-27.791425
-27.765782
-27.740143
-27.714506
-27.688871
-27.663239
-27.63761
-27.611982
-27.586358
-27.560736
-27.535116
-27.509499
-27.483884
-27.458272
-27.432662
-27.407055
-27.381451
-27.355849
-27.33025
-27.304654
-27.27906
-27.253469
-27.227881
-27.202296
-27.176713
-27.151134
-27.125557
-27.099984
-27.074413
-27.048845
-27.02328
-26.997719
-26.97216
-26.946605
-26.921053
-26.895503
-26.869957
-26.844414
-26.818874
-26.793337
-26.767803
-26.742273
-26.716745
-26.691221
-26.6657
-26.640181
-26.614666
-26.589154
-26.563645
-26.538139
-26.512636
-26.487135
-26.461638
-26.436143
-26.410652
-26.385163
-26.359677
-26.334194
-26.308714
-26.283236
-26.25776
-26.232288
-26.206819
-26.181352
-26.155887
-26.130424
-26.104964
-26.079508
-26.054055
-26.028604
-26.003154
-25.977705
-25.952258
-25.926816
-25.90138
-25.875946
-25.850514
-25.825079
-25.799642
-25.77421
-25.748787
-25.723374
-25.697966
-25.672556
-25.647125
-25.621697
-25.596277
-25.570874
-25.54549
-25.520117
-25.49474
-25.469319
-25.443888
-25.418464
-25.393064
-25.367694
-25.342351
-25.317017
-25.291664
-25.266273
-25.240886
-25.21549
-25.190095
-25.164699
-25.139293
-25.113889
-25.08849
-25.063106
-25.03774
-25.012394
-24.987067
-24.961752
-24.936442
-24.911128
-24.885788
-24.860441
-24.835097
-24.809764
-24.784449
-24.759149
-24.733855
-24.708558
-24.68325
-24.657946
-24.632647
-24.607354
-24.582067
-24.556784
-24.5315
-24.506209
-24.480917
-24.455629
-24.43035
-24.405084
-24.379825
-24.354565
-24.329276
-24.303983
-24.278696
-24.253425
-24.22817
-24.202923
-24.177676
-24.152409
-24.127143
-24.101879
-24.07662
-24.051364
-24.026109
-24.000857
-23.975611
-23.950378
-23.92516
-23.899953
-23.874747
-23.84952
-23.824292
-23.799075
-23.773877
-23.748696
-23.723518
-23.698302
-23.673064
-23.647843
-23.62265
-23.597486
-23.572336
-23.547161
-23.521927
-23.496708
-23.471512
-23.446354
-23.421224
-23.396101
-23.370931
-23.345732
-23.320544
-23.295372
-23.27022
-23.24508
-23.219939
-23.194781
-23.16963
-23.144489
-23.119362
-23.094241
-23.069113
-23.043968
-23.018834
-22.993717
-22.968624
-22.943546
-22.918468
-22.893351
-22.86823
-22.843118
-22.818021
-22.792941
-22.767873
-22.742811
-22.71775
-22.692681
-22.667593
-22.642477
-22.617366
-22.592264
-22.56718
-22.542118
-22.517071
-22.492034
-22.467
-22.441965
-22.416925
-22.391873
-22.366815
-22.341753
-22.316691
-22.291633
-22.266587
-22.241556
-22.216539
-22.191527
-22.166508
-22.141465
-22.116426
-22.091391
-22.066363
-22.041345
-22.016336
-21.991341
-21.966358
-21.941383
-21.9164
-21.891368
-21.866327
-21.841291
-21.816275
-21.791286
-21.766323
-21.741375
-21.716428
-21.691452
-21.666453
-21.641438
-21.616426
-21.591422
-21.566433
-21.541462
-21.51651
-21.491575
-21.466649
-21.44172
-21.416751
-21.39177
-21.366794
-21.341832
-21.316885
-21.291951
-21.267025
-21.242107
-21.217193
-21.192278
-21.167328
-21.14235
-21.117379
-21.092425
-21.067502
-21.042612
-21.01774
-20.99287
-20.96796
-20.94303
-20.918095
-20.893158
-20.868229
-20.843313
-20.81841
-20.793519
-20.768636
-20.743759
-20.718881
-20.693996
-20.669111
-20.644228
-20.619349
-20.594473
-20.569598
-20.544712
-20.519829
-20.494955
-20.470096
-20.445249
-20.420405
-20.395531
-20.37064
-20.34576
-20.320902
-20.29607
-20.271258
-20.246449
-20.221601
-20.196721
-20.171841
-20.146957
-20.122083
-20.097224
-20.072385
-20.047565
-20.022758
-19.997956
-19.973148
-19.948336
-19.923531
-19.898737
-19.873951
-19.849166
-19.824348
-19.799523
-19.774708
-19.749916
-19.725149
-19.700397
-19.675645
-19.650851
-19.626036
-19.601221
-19.576408
-19.551607
-19.526823
-19.502057
-19.47731
-19.452576
-19.427846
-19.40311
-19.378369
-19.353636
-19.328916
-19.304207
-19.279499
-19.254753
-19.230001
-19.205265
-19.180557
-19.155878
-19.131213
-19.10653
-19.081795
-19.057066
-19.03234
-19.00762
-18.982906
-18.958197
-18.9335
-18.908826
-18.884182
-18.859565
-18.83496
-18.810327
-18.78563
-18.760924
-18.73621
-18.711508
-18.686827
-18.662171
-18.637541
-18.612929
-18.58833
-18.563737
-18.539145
-18.514551
-18.489956
-18.46536
-18.440764
-18.416167
-18.391571
-18.366977
-18.342387
-18.317799
-18.293213
-18.268625
-18.244037
-18.219454
-18.194879
-18.170315
-18.145758
-18.121203
-18.096638
-18.072065
-18.047494
-18.022927
-17.998365
-17.97381
-17.949258
-17.924709
-17.900163
-17.87562
-17.85108
-17.826543
-17.802007
-17.777472
-17.752938
-17.728408
-17.703882
-17.67936
-17.65484
-17.630314
-17.605787
-17.581267
-17.556761
-17.532266
-17.507774
-17.483253
-17.458718
-17.434198
-17.4097
-17.385227
-17.360766
-17.336296
-17.311768
-17.287233
-17.262702
-17.238191
-17.213704
-17.189237
-17.164776
-17.140308
-17.115842
-17.091387
-17.066949
-17.042521
-17.018094
-16.993628
-16.969136
-16.944645
-16.920164
-16.895704
-16.871266
-16.846838
-16.822406
-16.797962
-16.773529
-16.749116
-16.724722
-16.700337
-16.675937
-16.651483
-16.627024
-16.60257
-16.578137
-16.553731
-16.529345
-16.504962
-16.480557
-16.456159
-16.431782
-16.40743
-16.383095
-16.358756
-16.334352
-16.309928
-16.285508
-16.261107
-16.236737
-16.212393
-16.188061
-16.163712
-16.139358
-16.115022
-16.090713
-16.066424
-16.042138
-16.017796
-15.99342
-15.96905
-15.944693
-15.920362
-15.896057
-15.87177
-15.847486
-15.823192
-15.798904
-15.774628
-15.750367
-15.726117
-15.701867
-15.677575
-15.653248
-15.628927
-15.604628
-15.580372
-15.556159
-15.531969
-15.507765
-15.483465
-15.459171
-15.434894
-15.410659
-15.386467
-15.362296
-15.338114
-15.313862
-15.289617
-15.265378
-15.241162
-15.216973
-15.192807
-15.168652
-15.144491
-15.120283
-15.096075
-15.071879
-15.047712
-15.023578
-14.999462
-14.975334
-14.951131
-14.926933
-14.902745
-14.878589
-14.854468
-14.830369
-14.806274
-14.782138
-14.75799
-14.733845
-14.709712
-14.685601
-14.661512
-14.637438
-14.613367
-14.589255
-14.56512
-14.540998
-14.516904
-14.492848
-14.468814
-14.444778
-14.420667
-14.396548
-14.372439
-14.348354
-14.324299
-14.300268
-14.276248
-14.252224
-14.228166
-14.204096
-14.18003
-14.155987
-14.131975
-14.107985
-14.083996
-14.059928
-14.035856
-14.011806
-13.987791
-13.963801
-13.939814
-13.915788
-13.891768
-13.86776
-13.843761
-13.819764
-13.795764
-13.77177
-13.747783
-13.723799
-13.699807
-13.675818
-13.651839
-13.627871
-13.603907
-13.57993
-13.555944
-13.53197
-13.508007
-13.484052
-13.460093
-13.436118
-13.412153
-13.388201
-13.364261
-13.340319
-13.316348
-13.292389
-13.268448
-13.244525
-13.220604
-13.196634
-13.172671
-13.148739
-13.124839
-13.100949
-13.076991
-13.053013
-13.029073
-13.005174
-12.981296
-12.957379
-12.933414
-12.909482
-12.885583
-12.861704
-12.837818
-12.813895
-12.789988
-12.766096
-12.742218
-12.718343
-12.694457
-12.670569
-12.646685
-12.62281
-12.598941
-12.575075
-12.551201
-12.527324
-12.50345
-12.479583
-12.455723
-12.431869
-12.408019
-12.384171
-12.360325
-12.336481
-12.31264
-12.288801
-12.264965
-12.241133
-12.217302
-12.193474
-12.169651
-12.145832
-12.122014
-12.098197
-12.074387
-12.050582
-12.026777
-12.002971
-11.979173
-11.955384
-11.931596
-11.907797
-11.884007
-11.860234
-11.836471
-11.812689
-11.788896
-11.765127
-11.741373
-11.717613
-11.69383
-11.670071
-11.646333
-11.6226
-11.59884
-11.575092
-11.551361
-11.527638
-11.503915
-11.480196
-11.456486
-11.43278
-11.409074
-11.385372
-11.361674
-11.337978
-11.314285
-11.290595
-11.266909
-11.243225
-11.219545
-11.195868
-11.172195
-11.148525
-11.12486
-11.101197
-11.077538
-11.053882
-11.030231
-11.006583
-10.982938
-10.959295
-10.935658
-10.912025
-10.888394
-10.864764
-10.841141
-10.817523
-10.793906
-10.770288
-10.746677
-10.723076
-10.699474
-10.675863
-10.652263
-10.62868
-10.605101
-10.581493
-10.557892
-10.534319
-10.510764
-10.487197
-10.463579
-10.439986
-10.416418
-10.392873
-10.369337
-10.345799
-10.322258
-10.298718
-10.275168
-10.251622
-10.228086
-10.204558
-10.181014
-10.157439
-10.133883
-10.110349
-10.086837
-10.063334
-10.039833
-10.016324
-9.9928165
-9.96931
-9.9458053
-9.9222984
-9.8987859
-9.8752814
-9.8517907
-9.8283097
-9.8048173
-9.7812846
-9.7577676
-9.7342678
-9.7107849
-9.6873121
-9.6638436
-9.6403765
-9.6169098
-9.5934431
-9.5699756
-9.5465086
-9.523044
-9.4995827
-9.4761226
-9.4526579
-9.4291962
-9.4057456
-9.3823055
-9.3588644
-9.3353799
-9.3119042
-9.2884492
-9.2650155
-9.2415924
-9.2181711
-9.1947442
-9.1713176
-9.1478912
-9.124466
-9.1010415
-9.0776175
-9.0541959
-9.0307785
-9.0073638
-8.9839489
-8.9605339
-8.9371216
-8.913711
-8.8903015
-8.8668954
-8.8434959
-8.8201026
-8.7967129
-8.7733248
-8.7499377
-8.7265518
-8.7031679
-8.6797865
-8.6564069
-8.6330278
-8.6096506
-8.5862793
-8.562915
-8.5395534
-8.5161797
-8.4928036
-8.4694386
-8.4460854
-8.4227391
-8.3993951
-8.3760522
-8.3527109
-8.3293715
-8.3060345
-8.2827003
-8.259369
-8.2360408
-8.2127156
-8.1893932
-8.166074
-8.1427581
-8.1194453
-8.0961354
-8.0728282
-8.0495239
-8.026223
-8.0029255
-7.9796313
-7.9563401
-7.9330518
-7.9097665
-7.8864842
-7.8632047
-7.8399286
-7.8166566
-7.7933882
-7.770122
-7.7468583
-7.7235995
-7.7003464
-7.6770966
-7.6538491
-7.6306063
-7.6073685
-7.5841331
-7.5608985
-7.5376663
-7.5144383
-7.4912148
-7.4679959
-7.4447818
-7.4215721
-7.3983655
-7.3751639
-7.3519719
-7.3287878
-7.305598
-7.2823995
-7.2592295
-7.2360955
-7.2129763
-7.1898119
-7.1666319
-7.1434658
-7.1203063
-7.0971535
-7.0740069
-7.0508651
-7.027728
-7.0045958
-6.9814692
-6.9583474
-6.9352281
-6.9121143
-6.8890109
-6.8659116
-6.842794
-6.8196933
-6.7966316
-6.7735918
-6.7505085
-6.7273882
-6.7042911
-6.6812038
-6.6581255
-6.6350541
-6.6119874
-6.5889271
-6.5658721
-6.5428176
-6.519767
-6.4967282
-6.4736983
-6.4506652
-6.427617
-6.4045849
-6.3815736
-6.3585741
-6.3355564
-6.3125303
-6.2895192
-6.2665094
-6.2434897
-6.2204837
-6.1974975
-6.174523
-6.1515327
-6.128534
-6.1055506
-6.0825691
-6.0595753
-6.0365938
-6.0136307
-5.9906791
-5.9677141
-5.9447408
-5.9217829
-5.8988269
-5.8758565
-5.8528978
-5.829956
-5.8070254
-5.7840826
-5.7611321
-5.7381974
-5.7152646
-5.6923148
-5.6693762
-5.6464536
-5.6235419
-5.6006192
-5.5776888
-5.5547751
-5.5318633
-5.5089321
-5.4860117
-5.4631062
-5.4402112
-5.4173059
-5.3943939
-5.3714998
-5.3486082
-5.3256929
-5.3027884
-5.2798982
-5.2570188
-5.2341304
-5.2112352
-5.1883589
-5.1654853
-5.1425847
-5.1196956
-5.0968204
-5.0739558
-5.0510827
-5.0282029
-5.0053438
-4.9824882
-4.9596019
-4.9367277
-4.913867
-4.8910168
-4.8681581
-4.8452933
-4.8224519
-4.7996156
-4.7767426
-4.7538823
-4.7310355
-4.7081994
-4.6853561
-4.6625068
-4.6396829
-4.6168653
-4.594005
-4.5711593
-4.5483281
-4.5255074
-4.5026796
-4.4798454
-4.4570403
-4.4342445
-4.4113988
-4.3885685
-4.3657532
-4.3429486
-4.3201379
-4.2973212
-4.2745366
-4.2517638
-4.2289316
-4.2061167
-4.1833189
-4.1605321
-4.1377394
-4.1149394
-4.0921761
-4.0694294
-4.046613
-4.0238144
-4.0010351
-3.9782665
-3.9554928
-3.9327117
-3.909972
-3.8872541
-3.8644531
-3.8416705
-3.8189112
-3.796163
-3.7734104
-3.7506492
-3.7279344
-3.7052485
-3.6824633
-3.6596968
-3.6369595
-3.6142332
-3.5915031
-3.5687623
-3.5460742
-3.5234243
-3.5006563
-3.4779056
-3.455192
-3.4324891
-3.4097823
-3.3870627
-3.3644041
-3.3417962
-3.3190466
-3.2963093
-3.2736199
-3.2509409
-3.2282589
-3.2055615
-3.1829341
-3.1603729
-3.1376398
-3.1149113
-3.0922469
-3.0695925
-3.046938
-3.0242654
-3.0016601
-2.9791291
-2.9564253
-2.9337166
-2.91108
-2.8884505
-2.865823
-2.8431759
-2.8205922
-2.7980903
-2.7754173
-2.7527289
-2.7301205
-2.707516
-2.6849157
-2.6622956
-2.6397337
-2.6172609
-2.5946212
-2.5719527
-2.5493692
-2.5267857
-2.5042024
-2.481665
-2.4592065
-2.4366006
-2.4139612
-2.3913966
-2.3688313
-2.3462823
-2.3237325
-2.3011824
-2.2786712
-2.256245
-2.233673
-2.2110528
-2.1885223
-2.1659897
-2.1434667
-2.1209584
-2.0984922
-2.0759691
-2.0534372
-2.030931
-2.0084157
-1.9859198
-1.9634273
-1.9409526
-1.9184691
-1.8960128
-1.8735239
-1.8510096
-1.8285382
-1.8060646
-1.7835958
-1.7611499
-1.7388089
-1.7163261
-1.6937677
-1.6713208
-1.6488668
-1.6264241
-1.6039918
-1.5816286
-1.5591821
-1.536699
-1.5142734
-1.4918347
-1.4694177
-1.4470003
-1.424612
-1.4022015
-1.3798097
-1.357406
-1.3349751
-1.312586
-1.2901929
-1.2678133
-1.2454374
-1.2231799
-1.2007874
-1.1782944
-1.1559312
-1.1335558
-1.1111963
-1.0888395
-1.0665919
-1.0442295
-1.0217913
-0.99945525
-0.97710134
-0.95477252
-0.93243812
-0.91014106
-0.8878129
-0.8654951
-0.84317688
-0.82082808
-0.79852169
-0.77620747
-0.75391565
-0.73161288
-0.70944002
-0.68713769
-0.66471733
-0.6424401
-0.62014594
-0.59787285
-0.57559047
-0.55343827
-0.53115579
-0.50876947
-0.48650569
-0.46421688
-0.44195345
-0.41967864
-0.39744239
-0.37517197
-0.35291294
-0.33065446
-0.30836187
-0.28611375
-0.26384906
-0.24160273
-0.21933384
-0.19719858
-0.17492617
-0.15252071
-0.13026014
-0.10797496
-0.085702523
-0.06340668
-0.041203707
-0.018949661
0.0033530447
0.025528554
0.047695906
0.069862558
0.092029492
0.11419709
0.13636568
0.15853539
0.18070644
0.20287888
0.22505273
0.24722784
0.26940414
0.29158157
0.31376016
0.33593991
0.35812065
0.38030222
0.40248439
0.42466725
0.4468508
0.46903504
0.49121983
0.51340504
0.53559066
0.55777672
0.57996337
0.60215063
0.62433853
0.64652698
0.6687161
0.69090596
0.71309673
0.73528843
0.75748114
0.77967492
0.80187001
0.82406664
0.84626503
0.86846527
0.89066737
0.9128714
0.93507768
0.95728662
0.97949851
1.0017135
1.0239318
1.0461535
1.0683787
1.0906078
1.1128412
1.1350791
1.1573219
1.17957
1.2018234
1.2240825
1.2463475
1.2686188
1.2908969
1.3131819
1.3354744
1.3577746
1.3800829
1.4023996
1.4247252
1.4470599
1.4694043
1.4917588
1.5141237
1.5364995
1.5588867
1.5812856
1.6036966
1.6261204
1.6485573
1.6710079
1.6934726
1.7159519
1.7384463
1.7609564
1.7834827
1.8060259
1.8285863
1.8511645
1.8737611
1.8963766
1.9190119
1.9416673
1.9643435
1.9870412
2.009761
2.0325035
2.0552695
2.0780594
2.100874
2.123714
2.1465802
2.1694732
2.1923938
2.2153426
2.2383203
2.2613279
2.284366
2.3074354
2.330537
2.3536713
2.3768392
2.4000415
2.4232792
2.4465531
2.469864
2.4932127
2.5165999
2.5400265
2.5634936
2.587002
2.6105526
2.6341463
2.657784
2.6814664
2.7051946
2.7289695
2.752792
2.7766632
2.800584
2.8245552
2.8485778
2.8726528
2.8967811
2.9209638
2.9452019
2.9694961
2.9938474
3.018257
3.0427258
3.0672549
3.0918454
3.1164981
3.1412138
3.1659936
3.1908385
3.2157495
3.2407277
3.2657742
3.2908899
3.3160757
3.3413325
3.3666613
3.3920631
3.4175389
3.4430898
3.4687167
3.4944206
3.5202023
3.5460629
3.5720032
3.5980241
3.6241266
3.6503118
3.6765804
3.7029335
3.7293717
3.755896
3.7825073
3.8092064
3.8359943
3.8628718
3.8898398
3.9168989
3.9440499
3.9712937
3.9986309
4.0260625
4.0535892
4.0812117
4.1089308
4.136747
4.164661
4.1926735
4.2207852
4.2489968
4.2773088
4.3057219
4.3342365
4.3628534
4.3915729
4.4203956
4.449322
4.4783527
4.507488
4.5367286
4.5660746
4.5955266
4.6250849
4.6547499
4.6845219
4.7144012
4.7443883
4.7744833
4.8046865
4.8349981
4.8654183
4.8959473
4.9265853
4.9573324
4.9881889
5.0191548
5.0502301
5.0814149
5.1127093
5.1441132
5.1756268
5.2072498
5.2389823
5.2708242
5.3027755
5.3348361
5.3670059
5.3992847
5.4316721
5.464168
5.4967723
5.5294846
5.5623049
5.5952329
5.6282682
5.6614105
5.6946593
5.7280145
5.7614755
5.7950421
5.8287138
5.8624902
5.8963709
5.9303554
5.9644433
5.9986339
6.0329267
6.0673213
6.1018171
6.1364136
6.1711103
6.2059064
6.2408014
6.2757946
6.3108854
6.3460732
6.3813574
6.4167372
6.4522119
6.4877809
6.5234434
6.5591987
6.5950461
6.6309849
6.6670143
6.7031336
6.7393418
6.7756383
6.8120222
6.8484928
6.8850494
6.921691
6.9584168
6.995226
7.0321177
7.0690911
7.1061454
7.1432798
7.1804933
7.2177852
7.2551544
7.2926
7.3301214
7.3677175
7.4053877
7.4431309
7.4809463
7.5188328
7.5567897
7.594816
7.6329109
7.6710735
7.709303
7.7475984
7.7859587
7.8243831
7.8628707
7.9014206
7.9400321
7.9787041
8.0174359
8.0562263
8.0950746
8.1339799
8.1729414
8.2119583
8.2510296
8.2901546
8.3293321
8.3685615
8.4078419
8.4471724
8.4865524
8.5259808
8.5654569
8.6049799
8.6445488
8.684163
8.7238215
8.7635237
8.8032688
8.8430558
8.8828842
8.922753
8.9626615
9.0026091
9.0425949
9.0826182
9.1226781
9.1627741
9.2029054
9.2430713
9.2832711
9.3235042
9.3637697
9.404067
9.4443954
9.4847544
9.5251432
9.5655613
9.6060079
9.6464824
9.6869842
9.7275127
9.7680673
9.8086475
9.8492525
9.8898819
9.9305351
9.9712114
10.01191
10.052631
10.093374
10.134138
10.174922
10.215727
10.25655
10.297393
10.338255
10.379134
10.420031
10.460946
10.501877
10.542824
10.583787
10.624766
10.665759
10.706767
10.74779
10.788826
10.829875
10.870938
10.912013
10.953101
10.9942
11.035311
11.076434
11.117567
11.158711
11.199865
11.241029
11.282203
11.323386
11.364578
11.405779
11.446989
11.488207
11.529432
11.570666
11.611907
11.653155
11.69441
11.735672
11.776941
11.818216
11.859497
11.900784
11.942076
11.983374
12.024677
12.065986
12.107299
12.148617
12.18994
12.231266
12.272598
12.313933
12.355272
12.396615
12.437961
12.479311
12.520665
12.562021
12.603381
12.644743
12.686108
12.727476
12.768847
12.81022
12.851595
12.892973
12.934353
12.975735
13.017119
13.058504
13.099892
13.141281
13.182671
13.224064
13.265457
13.306853
13.348249
13.389647
13.431045
13.472445
13.513846
13.555248
13.596651
13.638054
13.679459
13.720864
13.76227
13.803676
13.845083
13.886491
13.927899
13.969308
14.010717
14.052126
14.093536
14.134946
14.176357
14.217767
14.259178
14.300589
14.342001
14.383412
14.424824
14.466235
14.507647
14.549059
14.590471
14.631882
14.673294
14.714706
14.756117
14.797529
14.83894
14.880352
14.921763
14.963174
15.004585
15.045996
15.087407
15.128817
15.170227
15.211637
15.253047
15.294456
15.335866
15.377275
15.418683
15.460092
15.5015
15.542908
15.584316
15.625723
15.66713
15.708537
15.749943
15.791349
15.832755
15.87416
15.915566
15.95697
15.998374
16.039777
16.081178
16.12258
16.163983
16.205389
16.246793
16.288196
16.329599
16.371001
16.412403
16.453804
16.495206
16.536606
16.578007
16.619407
16.660807
16.702207
16.743606
16.785005
16.826404
16.867803
16.909202
16.9506
16.991998
17.033396
17.074793
17.11619
17.157587
17.198984
17.240381
17.281777
17.323174
17.36457
17.405966
17.447362
17.488757
17.530152
17.571548
17.612943
17.654338
17.695733
17.737127
17.778522
17.819916
17.86131
17.902705
17.944099
17.985493
18.026887
18.06828
18.109674
18.151068
18.192461
18.233855
18.275248
18.316642
18.358035
18.399428
18.440822
18.482215
18.523608
18.565001
18.606394
18.647788
18.689181
18.730574
18.771967
18.813361
18.854754
18.896147
18.937541
18.978934
19.020327
19.061721
19.103115
19.144508
19.185902
19.227296
19.26869
19.310084
19.351478
19.392872
19.434266
19.47566
19.517055
19.55845
19.599844
19.641239
19.682634
19.724029
19.765425
19.80682
19.848216
19.889612
19.931008
19.972404
20.0138
20.055197
20.096594
20.13799
20.179388
20.220785
20.262182
20.30358
20.344978
20.386376
20.427774
20.469173
20.510572
20.551971
20.59337
20.634769
20.676169
20.717569
20.758969
20.800369
20.84177
20.883171
20.924571
20.965972
21.007373
21.048774
21.090175
21.131575
21.172976
21.214374
21.255772
21.297165
21.338556
21.37994
21.421319
21.462688
21.50405
21.545405
21.586763
21.628132
21.669522
21.710946
21.752409
21.79391
21.835435
21.87698
21.918473
21.959935
22.001302
22.042584
22.083881
22.125231
22.166655
22.208137
22.249641
22.291128
22.332489
22.373837
22.41521
22.456622
22.498064
22.539522
22.580944
22.622338
22.663737
22.705149
22.746571
22.788
22.829419
22.870832
22.912247
22.953665
22.995085
23.036506
23.077924
23.119343
23.160762
23.202183
23.243604
23.285026
23.326448
23.36787
23.409293
23.450716
23.49214
23.533563
23.574986
23.616409
23.657833
23.699257
23.740682
23.782108
23.823535
23.864962
23.906391
23.947819
23.989248
24.030676
24.072104
24.113531
24.154958
24.196385
24.237813
24.279242
24.320672
24.362105
24.403539
24.444974
24.48641
24.527844
24.569276
24.610706
24.652131
24.693554
24.734972
24.776388
24.817799
24.859205
24.900605
24.941997
24.983378
25.024748
25.066105
25.107451
25.148783
25.190107
25.231407
25.272695
25.313954
25.355182
25.396384
25.437561
25.478744
25.519948
25.561178
25.602427
25.643683
25.684928
25.726151
25.767332
25.808493
25.849667
25.890874
25.932119
25.973394
26.014683
26.05597
26.097242
26.138498
26.179737
26.220953
26.262145
26.303336
26.344552
26.38582
26.427162
26.468576
26.510044
26.551548
26.593101
26.634803
26.676933
26.721422
26.763267
26.800736
26.840664
26.883784
26.926115
26.967678
27.009638
27.051827
27.093825
27.135812
27.177809
27.219766
27.261677
27.303534
27.345324
27.387045
27.428709
27.47032
27.511887
27.553425
27.594945
27.636456
27.677961
27.719464
27.760966
27.802468
27.843966
27.885458
27.926944
27.968423
28.009896
28.051364
28.092831
28.134298
28.175761
28.217216
28.258689
28.300186
28.341667
28.383142
28.42462
28.4661
28.507576
28.549052
28.590527
28.632002
28.673477
28.714952
28.756428
28.797905
28.839383
28.880862
28.922341
28.963821
29.0053
29.04678
29.088259
29.129737
29.171216
29.212694
29.254173
29.295652
29.337131
29.37861
29.42009
29.46157
29.503049
29.544529
29.586009