/*--------------------------------*- C++ -*----------------------------------*\
| =========                 |                                                 |
| \\      /  F ield         | OpenFOAM: The Open Source CFD Toolbox           |
|  \\    /   O peration     | Version:  4.x                                   |
|   \\  /    A nd           | Web:      www.OpenFOAM.org                      |
|    \\/     M anipulation  |                                                 |
\*---------------------------------------------------------------------------*/
FoamFile
{
    version     2.0;
    format      ascii;
    class       volVectorField;
    location    "0.45";
    object      U;
}
// * * * * * * * * * * * * * * * * * * * * * * * * * * * * * * * * * * * * * //

dimensions      [0 1 -1 0 0 0 0];

internalField   nonuniform List<vector> 
6279
(
(0.05145907697 0.01515913867 -0.00771375449)
(0.05607480986 0.01635753778 -0.009384397046)
(0.06112827568 0.01499434173 -0.01086432581)
(0.06588303459 0.012174293 -0.01217426663)
(0.06965905151 0.007993260017 -0.01316669718)
(0.07176161609 0.002785025516 -0.01371343518)
(0.07176164038 -0.002785038398 -0.01371341925)
(0.06965910244 -0.007993289275 -0.01316666992)
(0.06588309628 -0.01217436135 -0.01217423968)
(0.06112838996 -0.01499423978 -0.01086424073)
(0.05607494257 -0.01635745925 -0.00938448903)
(0.05145916761 -0.01515917448 -0.007713752697)
(0.04895219174 0.01361034137 -0.009597479706)
(0.05284708232 0.0146316086 -0.01159541878)
(0.05711657465 0.01339442865 -0.01339440989)
(0.06112826903 0.01086433663 -0.0149942989)
(0.06429232385 0.007127229688 -0.01621869781)
(0.06604619977 0.002482025225 -0.01688466103)
(0.06604623645 -0.002482010849 -0.01688463587)
(0.06429241422 -0.007127245781 -0.0162186293)
(0.06112837588 -0.01086436895 -0.01499420467)
(0.05711671856 -0.01339438894 -0.01339425791)
(0.05284714743 -0.01463157467 -0.01159551728)
(0.04895226156 -0.01361036368 -0.009597503562)
(0.04625193858 0.01187837642 -0.01066387793)
(0.04942674846 0.01270051198 -0.01270053657)
(0.05284708762 0.01159543823 -0.01463161547)
(0.05607482998 0.009384418999 -0.01635750202)
(0.05859880017 0.006143707474 -0.01768658907)
(0.05999447753 0.002136752226 -0.01840746191)
(0.0599945114 -0.00213669207 -0.01840744321)
(0.05859888954 -0.006143663674 -0.01768653822)
(0.05607492357 -0.009384391166 -0.01635744232)
(0.05284715422 -0.0115954976 -0.01463155691)
(0.04942669934 -0.01270057896 -0.01270064086)
(0.04625196493 -0.01187830674 -0.01066398342)
(0.04352884552 0.01000384119 -0.01000384448)
(0.0462518766 0.01066387285 -0.01187851548)
(0.04895210112 0.009597535573 -0.01361051991)
(0.05145896811 0.007713799963 -0.01515934018)
(0.05337594741 0.005026405175 -0.01634779263)
(0.05441948034 0.001743072678 -0.01701715507)
(0.05441948744 -0.001743018273 -0.01701714563)
(0.05337596842 -0.005026377381 -0.01634777911)
(0.0514589767 -0.007713793786 -0.01515933155)
(0.04895207332 -0.009597618081 -0.01361052642)
(0.04625183845 -0.01066397588 -0.01187848361)
(0.04352892887 -0.0100037834 -0.01000387156)
(0.05686066605 0.01844035398 -0.009385878524)
(0.06269978676 0.02030495606 -0.01146586429)
(0.06880424839 0.01818331038 -0.01319999147)
(0.07431174939 0.01476368329 -0.01476364584)
(0.07864841658 0.009685955912 -0.0159714056)
(0.08106535961 0.003381030242 -0.01662225311)
(0.08106541546 -0.003381004668 -0.01662223011)
(0.07864857469 -0.00968594781 -0.01597135714)
(0.07431199003 -0.01476373866 -0.01476362292)
(0.06880459978 -0.01818328039 -0.01319992136)
(0.0627000146 -0.02030485632 -0.01146593824)
(0.0568609147 -0.01844036509 -0.009385961507)
(0.05374360525 0.01669945042 -0.01166910416)
(0.05880073061 0.01828807147 -0.0142023662)
(0.06407108792 0.0163060408 -0.01630601669)
(0.0688042548 0.01320000401 -0.01818326575)
(0.07248957205 0.008626244801 -0.01963143334)
(0.07452144388 0.003004287055 -0.02041481001)
(0.07452148557 -0.003004236769 -0.02041479569)
(0.07248970859 -0.008626239337 -0.01963139301)
(0.06880442173 -0.01320005467 -0.01818325482)
(0.06407129836 -0.01630605192 -0.01630596431)
(0.05880083112 -0.01828802502 -0.01420248259)
(0.05374375366 -0.01669940954 -0.01166923915)
(0.05034522342 0.01458046088 -0.01334883875)
(0.05450596901 0.01599429557 -0.01599428418)
(0.05880075728 0.01420237675 -0.01828803675)
(0.06269980778 0.01146586648 -0.02030490003)
(0.06570509607 0.007465574286 -0.02185965712)
(0.06735344851 0.002596574702 -0.02269745438)
(0.06735344775 -0.002596498272 -0.02269746006)
(0.06570509891 -0.007465541776 -0.02185965845)
(0.06269976803 -0.0114658769 -0.02030492378)
(0.05880068464 -0.01420242842 -0.01828803977)
(0.05450593093 -0.01599432824 -0.01599439482)
(0.05034527043 -0.01458042261 -0.01334898089)
(0.04656884366 0.01223697383 -0.012236973)
(0.05034527755 0.01334886686 -0.0145805059)
(0.05374367349 0.0116691289 -0.01669945525)
(0.05686072397 0.009385871806 -0.01844030649)
(0.0591586915 0.006075800245 -0.01987913462)
(0.06042761265 0.00210983217 -0.02061948349)
(0.06042758504 -0.002109798862 -0.02061947963)
(0.05915864741 -0.006075784348 -0.01987912669)
(0.05686066098 -0.009385873831 -0.01844029976)
(0.05374360684 -0.01166917412 -0.01669945898)
(0.05034533955 -0.0133489282 -0.01458052379)
(0.04656919009 -0.01223682199 -0.01223699728)
(0.06459456903 0.02291486058 -0.01125812022)
(0.07150619222 0.0246546895 -0.01382821402)
(0.07870186925 0.0213672286 -0.01556874732)
(0.08489966137 0.01699962953 -0.01699959602)
(0.08953692219 0.01097265588 -0.01806739513)
(0.09202541173 0.003790270342 -0.0186605861)
(0.09202544248 -0.003790167493 -0.01866056805)
(0.0895370292 -0.01097255702 -0.01806735161)
(0.08489981306 -0.0169996153 -0.01699961846)
(0.07870211226 -0.02136723546 -0.01556876527)
(0.07150639669 -0.02465468646 -0.01382836319)
(0.06459469594 -0.02291494916 -0.0112582413)
(0.06074094048 0.02091742216 -0.01416069897)
(0.06681003433 0.02260195059 -0.01734003421)
(0.07316491184 0.01955668146 -0.01955663031)
(0.07870188287 0.0155687602 -0.02136716581)
(0.08284855064 0.0100498882 -0.02272064632)
(0.08508648772 0.003470186674 -0.02346974646)
(0.08508649642 -0.003470095012 -0.0234697567)
(0.08284860719 -0.01004982676 -0.02272068254)
(0.07870193511 -0.0155687766 -0.02136729436)
(0.07316502417 -0.01955672105 -0.01955675818)
(0.0668101226 -0.02260195169 -0.01734027638)
(0.06074099308 -0.02091748634 -0.01416090358)
(0.0565384745 0.01852747451 -0.0168097123)
(0.06153108466 0.02012837788 -0.0201282935)
(0.06681009072 0.01734006568 -0.02260186156)
(0.0715062673 0.01382820324 -0.02465460446)
(0.07499979797 0.008910565471 -0.0261848425)
(0.07689743166 0.003073281485 -0.02701845533)
(0.07689740741 -0.003073233828 -0.02701847215)
(0.07499976922 -0.008910546182 -0.02618488472)
(0.07150618679 -0.01382822037 -0.02465470644)
(0.06681006343 -0.01734010204 -0.02260195825)
(0.06153114397 -0.02012835987 -0.02012845239)
(0.05653857397 -0.01852746867 -0.01680985677)
(0.05173104758 0.01540363818 -0.01540352118)
(0.05653855316 0.01680978643 -0.01852739593)
(0.06074108488 0.01416070437 -0.02091729053)
(0.06459469055 0.01125807704 -0.02291477802)
(0.06735973382 0.007225591693 -0.02433545834)
(0.06883790751 0.002483625728 -0.02515719813)
(0.06883789258 -0.002483607305 -0.02515719512)
(0.06735972317 -0.00722558254 -0.02433544947)
(0.06459468151 -0.01125808695 -0.02291479444)
(0.06074111295 -0.01416073089 -0.02091731482)
(0.05653869174 -0.01680977317 -0.01852747703)
(0.05173114941 -0.01540372743 -0.01540359566)
(0.07596577375 0.02905696101 -0.01521020337)
(0.08421439069 0.03161671594 -0.01795702571)
(0.09270992348 0.02702345125 -0.01989081313)
(0.09970298228 0.02163607936 -0.02163603086)
(0.1051378985 0.0139044437 -0.02297098385)
(0.1081333637 0.004820588645 -0.02364787268)
(0.1081333642 -0.004820480267 -0.02364785737)
(0.1051379195 -0.01390433417 -0.02297092167)
(0.09970297931 -0.02163601721 -0.02163603173)
(0.09270998495 -0.027023369 -0.01989080093)
(0.08421445946 -0.03161665847 -0.01795713244)
(0.07596578327 -0.02905703232 -0.01521034962)
(0.07116496919 0.02725397853 -0.0188464005)
(0.0786152897 0.02928922644 -0.02237945413)
(0.08637341404 0.02486875234 -0.02486869112)
(0.09270993923 0.01989083862 -0.02702336361)
(0.09755723497 0.01270712645 -0.02870042502)
(0.1001928408 0.004395112908 -0.02954675504)
(0.1001928354 -0.00439499803 -0.0295467664)
(0.09755724284 -0.01270703789 -0.02870042909)
(0.09270990134 -0.01989080495 -0.02702347567)
(0.08637343691 -0.02486870973 -0.02486879005)
(0.07861531038 -0.02928919172 -0.02237967842)
(0.07116497409 -0.02725400192 -0.0188466381)
(0.06570928804 0.02414390603 -0.02281359056)
(0.07195558466 0.0263168291 -0.02631672337)
(0.07861531589 0.02237951269 -0.02928913396)
(0.08421445939 0.01795704555 -0.03161660012)
(0.08840030065 0.01142117608 -0.03352839107)
(0.09067853712 0.003954725903 -0.03449573551)
(0.09067852139 -0.003954652549 -0.03449575328)
(0.08840028613 -0.01142113436 -0.0335284264)
(0.08421443771 -0.01795702377 -0.03161669387)
(0.07861536838 -0.02237946618 -0.0292892243)
(0.07195567576 -0.02631678641 -0.02631686818)
(0.06570930587 -0.02414394573 -0.02281377113)
(0.0593565607 0.02105341226 -0.02105328418)
(0.06570930235 0.02281367062 -0.02414379088)
(0.07116498941 0.01884642833 -0.02725387835)
(0.07596585713 0.01521019671 -0.0290568272)
(0.07912112012 0.009552832962 -0.03101408401)
(0.08095469797 0.00332086663 -0.03184420509)
(0.08095469362 -0.003320833056 -0.03184420634)
(0.07912112345 -0.009552791858 -0.03101409368)
(0.07596588757 -0.01521016003 -0.0290568592)
(0.07116508211 -0.01884637354 -0.02725392505)
(0.0657094272 -0.02281363141 -0.02414387201)
(0.05935661767 -0.02105341771 -0.02105345094)
(0.09162698624 0.03733078665 -0.01746345413)
(0.1016211143 0.03689434631 -0.02076007)
(0.111412922 0.03081296324 -0.02263624565)
(0.1193290169 0.02369134436 -0.0236912973)
(0.1251885395 0.01485131405 -0.02433355585)
(0.1281667201 0.005046056847 -0.02477392135)
(0.128166716 -0.005045974702 -0.02477390638)
(0.1251885584 -0.01485123197 -0.02433349664)
(0.1193290516 -0.02369130813 -0.02369128943)
(0.1114130558 -0.03081299383 -0.02263624367)
(0.1016212759 -0.03689433628 -0.02076011267)
(0.09162707895 -0.03733085218 -0.01746354735)
(0.08581284007 0.03525189408 -0.02260666642)
(0.09502759293 0.03502466074 -0.02675803044)
(0.1040260937 0.02932204437 -0.02932197216)
(0.1114129361 0.02263627114 -0.03081286381)
(0.116922437 0.01427704866 -0.03183709519)
(0.1198081806 0.004880713606 -0.03243987175)
(0.1198081603 -0.004880632328 -0.03243986999)
(0.1169224154 -0.0142769811 -0.03183706399)
(0.111412922 -0.02263625096 -0.03081291856)
(0.1040261758 -0.02932208723 -0.02932203807)
(0.09502770038 -0.03502467063 -0.02675813988)
(0.08581286132 -0.03525197817 -0.02260682779)
(0.07921345736 0.0320162096 -0.02774610657)
(0.08712668794 0.03224863315 -0.03224853314)
(0.09502760915 0.02675809907 -0.03502457169)
(0.1016211478 0.02076010302 -0.03689425017)
(0.1064949788 0.01303983453 -0.03820749145)
(0.1090589648 0.00446127942 -0.03890135157)
(0.1090589448 -0.0044612126 -0.03890135635)
(0.1064949432 -0.01303979964 -0.03820748108)
(0.1016211283 -0.02076009524 -0.03689428339)
(0.09502767497 -0.02675810738 -0.03502460502)
(0.08712681261 -0.0322486211 -0.032248619)
(0.07921352902 -0.03201622788 -0.02774623227)
(0.0708620917 0.0275323116 -0.02753217915)
(0.07921347334 0.02774618397 -0.0320160936)
(0.08581289619 0.02260669211 -0.035251769)
(0.09162703311 0.01746344604 -0.03733068129)
(0.09568889929 0.01090692521 -0.03892156501)
(0.09787461838 0.003737648394 -0.03975070347)
(0.09787461052 -0.003737593754 -0.03975070141)
(0.09568889114 -0.01090689087 -0.03892155944)
(0.0916270577 -0.01746343447 -0.03733070268)
(0.08581297127 -0.02260671666 -0.03525181077)
(0.07921356223 -0.02774619517 -0.03201619028)
(0.07086205425 -0.02753247345 -0.0275322794)
(0.1190424266 0.0430651922 -0.02528972357)
(0.1307689497 0.04871642514 -0.02856732024)
(0.1408325097 0.04005089883 -0.02993894381)
(0.1491163472 0.03176202051 -0.03176197661)
(0.1552932257 0.02018770935 -0.03346705157)
(0.1584371155 0.007022198682 -0.03425967286)
(0.1584371044 -0.007022116339 -0.0342596786)
(0.1552932222 -0.02018761874 -0.03346703161)
(0.1491163512 -0.0317618938 -0.03176200417)
(0.1408325942 -0.0400507291 -0.02993897742)
(0.1307690856 -0.04871641793 -0.02856744983)
(0.119042481 -0.04306529868 -0.02528986231)
(0.112563436 0.04187392032 -0.03154380729)
(0.1234019404 0.04639078906 -0.03604215094)
(0.1328649763 0.03778883902 -0.03778876716)
(0.1408325021 0.0299389648 -0.040050794)
(0.1467308435 0.01874375245 -0.04214120718)
(0.1497609274 0.006417287492 -0.04314392464)
(0.1497609176 -0.006417234722 -0.04314395129)
(0.1467308405 -0.01874366943 -0.04214123374)
(0.1408325017 -0.02993883643 -0.04005086673)
(0.1328650444 -0.03778869056 -0.03778884192)
(0.1234020413 -0.04639078362 -0.03604232808)
(0.1125634587 -0.04187404233 -0.03154396413)
(0.1051138664 0.03893562682 -0.0400329998)
(0.1146083489 0.04362535361 -0.04362523663)
(0.1234019444 0.03604223222 -0.04639069951)
(0.1307689532 0.02856735004 -0.04871631048)
(0.1361518996 0.01783464246 -0.05105623601)
(0.1388291893 0.006116343153 -0.05216901183)
(0.1388291756 -0.006116345811 -0.05216900765)
(0.1361518743 -0.01783457814 -0.05105620542)
(0.1307689524 -0.02856721283 -0.04871632227)
(0.1234020113 -0.03604209697 -0.04639073986)
(0.1146084476 -0.04362532518 -0.04362535842)
(0.1051139091 -0.03893570544 -0.04003313522)
(0.09440594535 0.03557913543 -0.03557902518)
(0.1051138822 0.04003308469 -0.03893550243)
(0.1125634261 0.03154384865 -0.04187385027)
(0.1190424116 0.02528973861 -0.04306509205)
(0.1227542099 0.01555818603 -0.04526736678)
(0.1248541459 0.005367008444 -0.04594820547)
(0.1248541454 -0.005366980921 -0.04594819339)
(0.122754212 -0.01555811885 -0.04526731712)
(0.1190424298 -0.02528962693 -0.04306508323)
(0.1125634704 -0.03154374378 -0.04187388393)
(0.1051139397 -0.04003306474 -0.03893561503)
(0.0944059371 -0.03557923058 -0.03557916837)
(0.1585060132 0.07127108956 -0.02722511229)
(0.1733451561 0.05563671443 -0.02923319837)
(0.1859601719 0.04415867331 -0.03262068287)
(0.1946358709 0.03172356229 -0.03172351013)
(0.2004506281 0.01856936325 -0.02995351448)
(0.2031229944 0.005901396939 -0.02900215294)
(0.203122974 -0.005901326957 -0.02900215619)
(0.2004505987 -0.01856928622 -0.02995350789)
(0.1946358571 -0.03172348729 -0.03172353154)
(0.1859601907 -0.04415861605 -0.03262073194)
(0.1733451584 -0.05563678082 -0.02923334085)
(0.158505994 -0.07127122527 -0.02722528642)
(0.148413018 0.07096068973 -0.03644809401)
(0.1622816944 0.05600728015 -0.04021705864)
(0.1750615788 0.04478011858 -0.04478005459)
(0.185960159 0.03262071571 -0.04415858037)
(0.1927399905 0.01975069414 -0.04261363836)
(0.1959621464 0.006690924076 -0.04173583668)
(0.1959621323 -0.006690868027 -0.04173583333)
(0.1927399714 -0.01975062292 -0.04261361563)
(0.1859601641 -0.03262064352 -0.04415859383)
(0.175061594 -0.0447800805 -0.04478010259)
(0.162281698 -0.05600736297 -0.04021720917)
(0.1484130058 -0.07096084091 -0.03644827695)
(0.1362517145 0.0644131238 -0.04772931758)
(0.1487386506 0.05101104175 -0.05101091598)
(0.1622816614 0.04021711609 -0.05600717231)
(0.1733451151 0.02923321637 -0.05563657499)
(0.1802733141 0.01711623025 -0.05531099124)
(0.1836716374 0.005738187173 -0.05488706298)
(0.1836716326 -0.005738162422 -0.0548870551)
(0.1802733155 -0.01711617625 -0.05531095999)
(0.1733451503 -0.02923314497 -0.05563658526)
(0.1622816966 -0.04021707891 -0.05600721988)
(0.1487386566 -0.05101111251 -0.05101103787)
(0.1362516728 -0.06441322686 -0.04772945276)
(0.1236132345 0.06341985887 -0.06341971059)
(0.1362517348 0.04772941315 -0.06441296351)
(0.1484129996 0.03644810325 -0.07096057316)
(0.1585060229 0.02722509308 -0.0712709212)
(0.164678646 0.01582217778 -0.07309168082)
(0.1680284209 0.005434377312 -0.07341760238)
(0.1680284126 -0.005434346593 -0.07341759864)
(0.1646786259 -0.01582213316 -0.07309165285)
(0.1585059972 -0.02722504114 -0.07127093653)
(0.1484129931 -0.03644807625 -0.07096060987)
(0.1362517382 -0.04772949899 -0.06441308693)
(0.1236132103 -0.06342000483 -0.06341977305)
(0.175550904 0.1047984957 -0.04826129949)
(0.1958885621 0.08784514106 -0.05066936403)
(0.2175763045 0.07690865544 -0.05362853842)
(0.2338315669 0.06089458996 -0.06089454312)
(0.2440931544 0.03851281825 -0.06543875572)
(0.2484102604 0.01329436666 -0.06657993565)
(0.2484102464 -0.01329432894 -0.06657992753)
(0.2440931361 -0.03851278616 -0.06543873562)
(0.2338315742 -0.06089457478 -0.06089457014)
(0.2175763526 -0.07690866332 -0.05362859934)
(0.1958886173 -0.08784519967 -0.05066948124)
(0.1755509469 -0.1047985669 -0.04826143323)
(0.1645012323 0.09838844891 -0.06221014379)
(0.1848019329 0.08044062652 -0.06380270214)
(0.2053126522 0.06865147731 -0.06865145629)
(0.2175762771 0.05362855356 -0.07690859936)
(0.2272269189 0.03251431372 -0.08214914495)
(0.2319400366 0.01081599326 -0.08384683962)
(0.2319400249 -0.01081595328 -0.08384683181)
(0.2272269089 -0.0325142807 -0.08214912635)
(0.2175762968 -0.05362852742 -0.07690862385)
(0.205312718 -0.06865147122 -0.0686515185)
(0.184801996 -0.08044068538 -0.06380281576)
(0.1645012624 -0.09838849744 -0.06221027283)
(0.1522417217 0.08932140347 -0.07427693228)
(0.1719000184 0.07487509693 -0.07487500228)
(0.1848019029 0.06380272795 -0.08044056513)
(0.1958885214 0.0506693839 -0.08784504502)
(0.2042559797 0.0313488629 -0.09388562557)
(0.2086938706 0.01068477388 -0.09656970228)
(0.2086938647 -0.01068472461 -0.09656970143)
(0.2042559767 -0.03134882131 -0.09388561681)
(0.195888542 -0.05066935097 -0.08784507381)
(0.1848019448 -0.06380273084 -0.08044060233)
(0.171900047 -0.07487519308 -0.0748750703)
(0.1522416705 -0.08932148542 -0.07427698767)
(0.1354626521 0.08877549083 -0.08877535049)
(0.1522417148 0.07427702959 -0.08932130941)
(0.1645011778 0.06221017786 -0.09838841297)
(0.1755508694 0.04826133119 -0.1047984216)
(0.1826128398 0.02901811655 -0.1106200834)
(0.1861853029 0.00984200866 -0.1128697468)
(0.1861852971 -0.009841994065 -0.1128697432)
(0.1826128256 -0.02901808422 -0.110620058)
(0.1755508608 -0.04826127359 -0.1047984403)
(0.1645012 -0.06221015621 -0.09838843767)
(0.1522417541 -0.07427710113 -0.08932135895)
(0.1354626102 -0.08877554984 -0.08877537376)
(0.2419165705 0.1359733184 -0.05428284051)
(0.2680977568 0.1122873917 -0.06007497697)
(0.2939689962 0.08120844218 -0.06234644068)
(0.3144717911 0.0573959435 -0.05739592415)
(0.3261448925 0.03234558505 -0.05504640146)
(0.3307972553 0.010048482 -0.05342573179)
(0.3307972473 -0.01004842746 -0.05342572251)
(0.3261448885 -0.03234555102 -0.05504637761)
(0.3144718235 -0.05739593242 -0.05739593883)
(0.2939690759 -0.08120845548 -0.06234649749)
(0.2680978435 -0.1122874764 -0.06007508856)
(0.241916605 -0.1359734034 -0.054282947)
(0.219240363 0.1338141791 -0.07243282327)
(0.2439272754 0.1134741831 -0.08387792122)
(0.2672452386 0.0849702043 -0.08497020517)
(0.2939689546 0.06234644351 -0.0812084316)
(0.3089886343 0.03857923397 -0.08141083624)
(0.3160730039 0.01304568242 -0.08166668247)
(0.316072998 -0.01304561097 -0.08166666988)
(0.3089886402 -0.03857918419 -0.08141080391)
(0.2939689932 -0.06234642339 -0.08120843336)
(0.2672452993 -0.08497023002 -0.08497024036)
(0.2439273146 -0.1134742736 -0.0838779959)
(0.2192403361 -0.133814244 -0.07243291244)
(0.1855065009 0.1248947159 -0.09779747963)
(0.214614337 0.1088897332 -0.1088896381)
(0.2439272355 0.08387795769 -0.113474151)
(0.2680977162 0.06007499711 -0.1122873604)
(0.2834013395 0.03561843726 -0.113104765)
(0.2907969953 0.0117983224 -0.1128336244)
(0.2907969903 -0.01179828124 -0.1128336105)
(0.2834013423 -0.03561840496 -0.1131047202)
(0.268097742 -0.06007498054 -0.112287338)
(0.2439272886 -0.08387799201 -0.1134741411)
(0.214614355 -0.1088898371 -0.1088896644)
(0.1855064296 -0.1248947844 -0.09779751787)
(0.1465246907 0.1200990271 -0.1200988803)
(0.1855065303 0.09779761141 -0.124894643)
(0.2192403034 0.0724328532 -0.1338141608)
(0.2419164968 0.05428283417 -0.135973295)
(0.2542829005 0.03223441542 -0.1398067497)
(0.2601004227 0.01103273042 -0.1413671594)
(0.2601004243 -0.01103272588 -0.1413671448)
(0.2542829187 -0.03223439854 -0.1398066973)
(0.2419165379 -0.05428280669 -0.1359732683)
(0.2192403681 -0.0724328525 -0.1338141511)
(0.1855065865 -0.09779767776 -0.1248946604)
(0.1465246358 -0.1200990821 -0.1200989055)
(0.2596422984 0.2267279744 -0.09131032612)
(0.338583179 0.1849067234 -0.08637683336)
(0.3780931205 0.165608254 -0.1006720142)
(0.4054700548 0.1212501562 -0.1212502025)
(0.4198645965 0.07277299562 -0.1289403785)
(0.4235765129 0.02387816604 -0.1299219829)
(0.4235765034 -0.023878118 -0.1299219699)
(0.4198645999 -0.07277299181 -0.1289403603)
(0.4054700984 -0.121250188 -0.1212502257)
(0.3780932106 -0.1656083173 -0.1006720727)
(0.3385832601 -0.1849068332 -0.08637690999)
(0.2596423171 -0.2267280704 -0.09131038633)
(0.2379957499 0.212994812 -0.1249225485)
(0.3228598484 0.1750211893 -0.1210259884)
(0.361380235 0.1451027018 -0.1451027591)
(0.3780930801 0.100671959 -0.1656082996)
(0.3930501639 0.0557522213 -0.1706512016)
(0.4003836974 0.01769449286 -0.1715113721)
(0.4003836934 -0.01769448165 -0.1715113608)
(0.3930501726 -0.05575222334 -0.1706511681)
(0.3780931158 -0.1006719743 -0.1656082838)
(0.3613802895 -0.145102748 -0.1451027567)
(0.3228598522 -0.1750212725 -0.1210260359)
(0.2379956882 -0.2129948647 -0.124922623)
(0.2076414133 0.1821335482 -0.15544328)
(0.2893401992 0.154759091 -0.1547590604)
(0.3228598153 0.1210259711 -0.175021204)
(0.3385831105 0.08637679782 -0.1849067415)
(0.3475131591 0.04988635974 -0.1903182249)
(0.3520211374 0.01665303496 -0.1930194537)
(0.3520211361 -0.01665301179 -0.1930194387)
(0.3475131698 -0.04988634626 -0.1903181819)
(0.3385831387 -0.0863768027 -0.1849067157)
(0.3228598424 -0.1210260061 -0.1750211952)
(0.2893401715 -0.154759172 -0.1547590844)
(0.2076413142 -0.1821335873 -0.1554433559)
(0.1488767527 0.1751862255 -0.1751862094)
(0.2076414551 0.1554433116 -0.1821335348)
(0.2379957399 0.1249225393 -0.2129948426)
(0.2596422647 0.09131034781 -0.2267280063)
(0.2720413573 0.05288637223 -0.2353463409)
(0.2776373319 0.01766102241 -0.2387872951)
(0.2776373294 -0.0176609067 -0.2387872781)
(0.2720413592 -0.05288626445 -0.2353462913)
(0.2596422943 -0.09131026036 -0.2267279787)
(0.2379957915 -0.1249224945 -0.2129948492)
(0.2076414677 -0.1554433462 -0.1821335714)
(0.1488766665 -0.1751862323 -0.1751862992)
(0.4647278938 0.3262426696 -0.05864764841)
(0.4824178269 0.2605507583 -0.07001446181)
(0.5419451372 0.1443184044 -0.06558162232)
(0.5574487648 0.0934085419 -0.05443756728)
(0.5777110363 0.05819526702 -0.05819528673)
(0.5836346345 0.02046008157 -0.05984128123)
(0.583634616 -0.02046008689 -0.05984127891)
(0.5777110165 -0.05819529997 -0.05819528926)
(0.5574488326 -0.09340860041 -0.05443760966)
(0.5419453208 -0.1443185133 -0.06558168951)
(0.482418006 -0.260550938 -0.07001449214)
(0.464728049 -0.326242812 -0.05864766023)
(0.4422605366 0.314787874 -0.1009336346)
(0.4687649016 0.2523219417 -0.1191690474)
(0.5274571635 0.1417798128 -0.107535229)
(0.5458667678 0.09366344731 -0.09366352181)
(0.5574486893 0.05443751776 -0.09340858622)
(0.5653272422 0.01898774853 -0.09550704602)
(0.565327226 -0.01898773242 -0.09550703856)
(0.5574486549 -0.05443752183 -0.09340857809)
(0.5458667975 -0.0936634959 -0.09366355975)
(0.5274572552 -0.1417799202 -0.1075352789)
(0.4687649689 -0.2523220825 -0.1191691148)
(0.4422605913 -0.3147879652 -0.100933653)
(0.3903934627 0.3045301647 -0.1394556537)
(0.4381759072 0.2464350431 -0.1707213821)
(0.4975997056 0.1529528036 -0.1529528238)
(0.5274571249 0.1075351626 -0.1417798697)
(0.5419450465 0.06558154124 -0.1443184763)
(0.5489360953 0.02242153038 -0.1466409602)
(0.5489360956 -0.02242147453 -0.1466409438)
(0.54194505 -0.06558150857 -0.1443184443)
(0.5274571419 -0.1075351762 -0.1417798749)
(0.4975997172 -0.1529528651 -0.152952873)
(0.4381758633 -0.2464351309 -0.1707214902)
(0.390393374 -0.3045302214 -0.1394557271)
(0.304911818 0.2889664166 -0.2126629406)
(0.3818911351 0.2422434608 -0.2422433681)
(0.4381758987 0.1707214409 -0.2464350232)
(0.4687648718 0.1191690889 -0.2523219553)
(0.4824178109 0.0700144688 -0.2605508274)
(0.488886277 0.02304643101 -0.2639444718)
(0.4888862771 -0.02304628652 -0.2639444499)
(0.4824178336 -0.07001434251 -0.2605507644)
(0.468764919 -0.1191690013 -0.252321919)
(0.4381759307 -0.1707214133 -0.246435038)
(0.3818910706 -0.2422434941 -0.2422434777)
(0.3049116752 -0.2889664583 -0.2126630718)
(0.1788100323 0.2684111089 -0.2684110651)
(0.3049118601 0.2126630577 -0.2889663962)
(0.3903935195 0.1394557261 -0.3045302151)
(0.4422605872 0.1009337089 -0.3147879431)
(0.464727977 0.0586476744 -0.326242761)
(0.473227761 0.01977530395 -0.3303382173)
(0.4732277649 -0.01977522033 -0.3303381954)
(0.4647280057 -0.05864758964 -0.3262427076)
(0.4422606588 -0.1009336091 -0.3147878998)
(0.3903936081 -0.1394556297 -0.3045302027)
(0.3049118666 -0.212662999 -0.2889664431)
(0.1788099392 -0.2684111183 -0.2684111681)
(0.51994478 0.649876248 -0.05951610163)
(0.8143591022 0.4442194841 -0.07489529783)
(0.7664074402 0.3151965822 -0.09428111081)
(0.725500544 0.1702951873 -0.100451268)
(0.7253569834 0.09823381851 -0.09823385303)
(0.7306944243 0.03217821037 -0.09605991613)
(0.7306944186 -0.03217819084 -0.09605990638)
(0.7253570359 -0.09823383266 -0.09823384833)
(0.7255007564 -0.1702952822 -0.1004513393)
(0.7664077798 -0.3151967758 -0.09428120257)
(0.8143593323 -0.444219644 -0.07489534345)
(0.5199448898 -0.6498763564 -0.05951615583)
(0.5196357032 0.6364788086 -0.1088293337)
(0.8094578067 0.4401233015 -0.1373138179)
(0.7587016512 0.3109754046 -0.1720250807)
(0.7222468082 0.1738032749 -0.1738033466)
(0.7255004614 0.100451203 -0.1702952736)
(0.7316041403 0.03248228492 -0.1691568813)
(0.731604144 -0.03248224565 -0.1691568664)
(0.7255005367 -0.1004511905 -0.170295256)
(0.7222469653 -0.1738033398 -0.1738033869)
(0.7587017998 -0.310975531 -0.1720251906)
(0.8094578632 -0.4401233845 -0.1373139031)
(0.5196357586 -0.6364788769 -0.1088293717)
(0.5179139187 0.6140028026 -0.1661397166)
(0.7792118567 0.4436332196 -0.2189796663)
(0.7613273431 0.3009843073 -0.3009842605)
(0.7587016227 0.1720251148 -0.3109754546)
(0.7664074383 0.09428111696 -0.3151966859)
(0.7718827013 0.02982618879 -0.3190559227)
(0.7718827111 -0.02982612831 -0.3190559011)
(0.7664075046 -0.09428106911 -0.315196622)
(0.7587017106 -0.172025097 -0.310975431)
(0.761327358 -0.3009843284 -0.3009843327)
(0.7792117715 -0.4436332585 -0.2189797896)
(0.5179138627 -0.6140028311 -0.1661397689)
(0.5070951112 0.5629336441 -0.2848141371)
(0.7217529154 0.3837821784 -0.3837821115)
(0.7792118975 0.2189797628 -0.4436332321)
(0.8094578642 0.1373139097 -0.4401233786)
(0.8143592249 0.07489535627 -0.4442196063)
(0.8128741977 0.02444356466 -0.4510927405)
(0.8128742161 -0.02444353762 -0.4510927184)
(0.8143592689 -0.07489531709 -0.4442195468)
(0.8094579283 -0.1373138563 -0.4401233183)
(0.7792119075 -0.218979701 -0.4436332337)
(0.7217528275 -0.3837821416 -0.3837822141)
(0.5070950135 -0.5629336427 -0.2848142073)
(0.401034364 0.4490109252 -0.4490109473)
(0.5070951793 0.2848142099 -0.5629336956)
(0.5179140244 0.1661397755 -0.614002904)
(0.5196357832 0.1088293688 -0.6364789555)
(0.5199448807 0.05951610474 -0.6498764006)
(0.5215331637 0.0196694554 -0.653714927)
(0.5215331934 -0.0196694889 -0.6537149303)
(0.5199449465 -0.05951613595 -0.6498763992)
(0.519635858 -0.1088293808 -0.6364789432)
(0.51791403 -0.1661397228 -0.6140029029)
(0.5070951251 -0.2848141019 -0.5629337396)
(0.4010342923 -0.4490108554 -0.4490110281)
(0.04950459676 0.01772167199 -0.00859356125)
(0.04707530138 0.01565549593 -0.01062915676)
(0.04450759435 0.01352679502 -0.01165671991)
(0.04196860558 0.01119712905 -0.01077338723)
(0.05055354651 0.02401020076 -0.01135451089)
(0.04733159845 0.0207846191 -0.01379695527)
(0.04384858279 0.01777009575 -0.01489747869)
(0.0405675305 0.01442910412 -0.0136875278)
(0.05053634879 0.03333468085 -0.01511228336)
(0.04626135659 0.02837287881 -0.01833054294)
(0.04162735712 0.02380816885 -0.01954507117)
(0.03758383194 0.01869874321 -0.01779719181)
(0.04645776329 0.04661084613 -0.0204937376)
(0.041694498 0.03863610879 -0.02466277839)
(0.03625668177 0.03143480998 -0.0256685731)
(0.03189238236 0.02395471223 -0.02294494135)
(0.03831371699 0.06091040216 -0.02728259072)
(0.03264644105 0.04951479966 -0.0320216851)
(0.02672549797 0.03886639394 -0.03208475924)
(0.02213614065 0.02887869057 -0.02784312632)
(0.01427156238 0.06708378179 -0.02723459769)
(0.01120864191 0.05223136689 -0.0312757614)
(0.008349683908 0.03873574783 -0.03036500249)
(0.005931679229 0.02650063066 -0.02482767955)
(0.05455355471 0.02302961376 -0.01038966165)
(0.05134669228 0.02077394652 -0.01288901056)
(0.04817022036 0.01790057045 -0.01474936354)
(0.04439366031 0.0149991411 -0.01372342397)
(0.05723493887 0.03187986734 -0.01427171212)
(0.05284036013 0.02830828268 -0.01734331762)
(0.04846806251 0.02414263522 -0.01943879698)
(0.04339835777 0.02024345369 -0.01807122231)
(0.0581152306 0.04465349226 -0.01923244612)
(0.05215092106 0.03924841011 -0.02314239733)
(0.04651826855 0.03287525042 -0.02570801064)
(0.04023420906 0.02694672559 -0.02374945146)
(0.05359502872 0.06325027726 -0.02695463685)
(0.0468205468 0.05427468194 -0.03142349877)
(0.04051992181 0.0440822554 -0.03397484477)
(0.03386120044 0.03504594561 -0.03061429168)
(0.04482921746 0.08435419895 -0.03337433206)
(0.03737559811 0.0706085903 -0.03859234329)
(0.03117475453 0.05519706206 -0.04177837866)
(0.02433072911 0.04292550478 -0.03656370702)
(0.01756645885 0.09261144896 -0.03496289047)
(0.01375406943 0.07434227963 -0.0396370289)
(0.01096058824 0.05400225448 -0.04165255058)
(0.007768840464 0.03954629278 -0.03298376205)
(0.06192202431 0.02981031193 -0.01240716131)
(0.05810861585 0.026735282 -0.01555232432)
(0.05425423441 0.02341312108 -0.01847013463)
(0.04958033486 0.01929421164 -0.01735680899)
(0.06764537754 0.04108782966 -0.01754363476)
(0.06250693497 0.03598507664 -0.02135711089)
(0.05712260882 0.03120614029 -0.02450221016)
(0.05115381766 0.02567742338 -0.02277489978)
(0.07134354774 0.05605965769 -0.02289652007)
(0.06448333158 0.0480410352 -0.02778487637)