/*--------------------------------*- C++ -*----------------------------------*\
  =========                 |
  \\      /  F ield         | OpenFOAM: The Open Source CFD Toolbox
   \\    /   O peration     | Website:  https://openfoam.org
    \\  /    A nd           | Version:  7
     \\/     M anipulation  |
\*---------------------------------------------------------------------------*/
FoamFile
{
    version     2.0;
    format      ascii;
    class       volScalarField;
    location    "1e-05";
    object      Uy;
}
// * * * * * * * * * * * * * * * * * * * * * * * * * * * * * * * * * * * * * //

dimensions      [0 1 -1 0 0 0 0];

internalField   nonuniform List<scalar> 
5000
(
1.010042e-16
1.0194905e-16
0
0
-5.1834746e-17
5.9455958e-32
5.2700178e-17
0
0
-5.1951733e-17
-1.0081506e-16
4.7981003e-17
4.4677043e-17
-4.0619354e-17
0
-3.1162797e-17
-3.6938448e-45
2.1675784e-17
0
1.3763004e-17
-1.0628386e-17
-8.0507358e-18
1.1977168e-17
-4.3794347e-18
-3.1519273e-18
-1.841948e-32
1.5623511e-18
1.077948e-18
-1.4691377e-18
8.5779357e-33
-5.7614223e-33
2.1732557e-19
2.8379502e-19
-1.8359459e-19
1.0206396e-33
-3.2563726e-33
-8.1928638e-34
2.9599493e-20
-1.8409335e-20
-1.1372761e-20
6.9808153e-21
-1.4646149e-34
-2.5830426e-21
7.789683e-22
1.4019708e-21
-2.7892912e-22
-1.656688e-22
-6.7082966e-36
-1.1527058e-22
0
1.9705886e-23
1.6275081e-39
-6.6301758e-24
7.6481384e-24
-7.6825961e-38
-2.5171507e-24
7.1852944e-25
-1.4119042e-38
-2.3182026e-25
0
7.3893281e-26
1.4157885e-39
6.6174617e-42
1.3050803e-26
-7.2912939e-27
1.4136988e-40
2.267041e-27
-1.2866989e-27
-6.7398515e-28
3.3699258e-28
1.2254276e-28
0
-9.1907066e-29
1.2254276e-28
-1.5317844e-28
1.2254276e-28
0
1.2254276e-28
-8.7071864e-45
3.0635689e-29
-3.0635689e-29
-8.7071864e-45
8.7071864e-45
0
0
1.0666303e-42
-3.0635689e-29
0
1.5317844e-28
3.1781231e-42
-3.2129518e-42
9.1907066e-29
-3.0635689e-29
6.1271378e-29
-1.7029319e-55
9.1907066e-29
0
0
-9.1907066e-29
-4.249107e-42
-1.2254276e-28
3.0635689e-29
7.1329271e-45
0
-6.1271378e-29
-9.1907066e-29
-3.0635689e-29
-6.1271378e-29
0
0
-6.1271378e-29
-1.2254276e-28
0
3.0635689e-29
1.0709839e-42
6.1271378e-29
-6.1271378e-29
3.4828746e-44
-3.2129518e-42
5.1475576e-73
-4.2764235e-44
2.6121559e-44
9.1907066e-29
0
-2.1382118e-44
6.1271378e-29
6.1271378e-29
-2.1382118e-44
3.0635689e-29
-2.1256123e-42
-3.0635689e-29
1.2254276e-28
3.0635689e-29
-6.1271378e-29
0
0
-3.0635689e-29
-3.0635689e-29
-1.0622767e-42
-3.0635689e-29
3.0635689e-29
3.0635689e-29
0
6.1271378e-29
5.3455294e-45
-6.1271378e-29
9.1907066e-29
4.7213783e-56
9.1907066e-29
-3.0635689e-29
1.0628061e-42
-2.1332607e-42
-6.1271378e-29
9.1907066e-29
-1.0628061e-42
3.0635689e-29
9.1907066e-29
0
0
0
-3.0635689e-29
3.0635689e-29
3.0635689e-29
-3.0635689e-29
2.1245535e-42
3.5664636e-45
-2.1434196e-42
1.2254276e-28
0
0
6.1271378e-29
0
6.1271378e-29
4.2440916e-42
0
-6.1271378e-29
-6.3736605e-42
3.0635689e-29
-3.0635689e-29
6.1271378e-29
-1.2254276e-28
-2.1158463e-42
-4.2142782e-42
2.3593283e-56
3.0635689e-29
-3.0635689e-29
-6.4224858e-55
-2.1071391e-42
2.1071391e-42
-9.1907066e-29
0
0
-9.1907066e-29
-9.1907066e-29
0
0
6.3839698e-42
-5.900219e-57
-1.5317844e-28
0
-4.2440916e-42
-3.0635689e-29
0
6.1271378e-29
-3.0635689e-29
1.2721199e-41
1.306078e-44
2.1291788e-42
3.0635689e-29
8.7071864e-45
8.4807996e-42
0
3.0635689e-29
0
-1.0691059e-44
-2.1201999e-42
-1.7005135e-41
-9.1907066e-29
0
-1.2254276e-28
-9.1907066e-29
0
0
0
1.2254276e-28
3.9904363e-55
9.1907066e-29
0
0
-6.1271378e-29
-6.1271378e-29
2.1382118e-44
-3.0635689e-29
0
-2.1576855e-42
6.1271378e-29
-9.1907066e-29
3.2073177e-44
0
-1.5317844e-28
2.5520763e-41
-1.1121209e-57
6.1271378e-29
-9.1907066e-29
-2.1327452e-42
0
-3.0635689e-29
0
9.1907066e-29
1.2747321e-41
0
-6.1271378e-29
4.249107e-42
-2.1271656e-41
-4.2403998e-42
-3.0635689e-29
-9.1907066e-29
-1.2254276e-28
0
-2.1184794e-42
-6.1271378e-29
0
-6.1271378e-29
0
1.2254276e-28
9.1907066e-29
-3.0635689e-29
0
-8.498214e-42
9.1907066e-29
3.0635689e-29
-1.4871874e-41
-1.2254276e-28
-3.0635689e-29
4.2578142e-42
-2.1332607e-42
-1.7414373e-44
-2.1158463e-42
-6.1271378e-29
0
0
3.0635689e-29
6.1271378e-29
0
0
0
0
3.0635689e-29
2.1114927e-42
6.1271378e-29
-1.306078e-44
6.1271378e-29
1.2254276e-28
-4.2534606e-42
8.4895068e-42
1.306078e-44
6.1271378e-29
5.3455294e-45
-2.1382118e-44
-6.1271378e-29
-9.1907066e-29
-6.1271378e-29
-3.0635689e-28
0
3.2073177e-44
-9.1907066e-29
1.2254276e-28
5.9028624e-57
-2.6121559e-44
8.7071864e-45
-3.0635689e-29
-6.1271378e-29
6.1271378e-29
1.2254276e-28
-1.2254276e-28
-8.8503286e-57
-3.0635689e-29
-1.1787965e-54
-1.8381413e-28
0
0
6.1271378e-29
4.7417098e-54
-8.516715e-42
0
6.1271378e-29
3.0635689e-29
-6.1271378e-29
1.4547537e-60
1.2760382e-41
-4.3535932e-45
-3.0635689e-29
6.1271378e-29
9.1907066e-29
0
-6.2230153e-60
-1.0300835e-70
0
1.0691059e-43
-8.498214e-42
-6.1271378e-29
-8.5069212e-42
6.1271378e-29
-8.4596849e-42
9.1907066e-29
-6.1271378e-29
4.3535932e-45
3.0635689e-29
0
0
-3.0635689e-29
4.249107e-42
-3.2073177e-44
4.3535932e-45
1.8381413e-28
-6.1271378e-29
3.0635689e-29
-1.2254276e-28
-6.1271378e-29
-1.4249191e-44
-1.2254276e-28
-9.1907066e-29
-9.1907066e-29
-6.1271378e-29
9.1907066e-29
5.900219e-57
3.0635689e-29
3.0635689e-29
-6.1271378e-29
-6.1271378e-29
-3.3958027e-41
-8.7071864e-45
6.1271378e-29
-6.1271378e-29
-3.0635689e-29
-1.7013842e-41
1.1774557e-54
-6.1271378e-29
-2.4508551e-28
2.757212e-28
-8.498214e-42
5.0989284e-41
-2.3531491e-54
6.1271378e-29
-3.0635689e-28
8.498214e-42
-6.1271378e-29
0
0
-3.0635689e-29
-7.4141393e-58
-3.0635689e-29
-3.0635689e-29
6.1271378e-29
9.1907066e-29
4.2512246e-42
-3.0635689e-29
1.7414373e-44
9.1907066e-29
0
-8.5345223e-42
1.2254276e-28
-6.1271378e-29
-2.4508551e-28
-6.1271378e-29
-3.3967016e-41
1.6976367e-41
1.6965692e-41
6.1271378e-29
0
-1.8381413e-28
9.1907066e-29
6.1271378e-29
1.2254276e-28
1.5317844e-28
-2.9740445e-60
4.2534606e-42
3.0635689e-29
3.0635689e-29
3.0635689e-29
-3.0635689e-29
1.4828279e-57
-3.0385817e-60
0
4.2764235e-44
-5.3455294e-45
0
-1.4843472e-57
-1.7005135e-41
3.0635689e-29
-9.1907066e-29
-4.2534606e-42
-2.5481581e-41
-8.7071864e-45
-4.2764235e-44
3.0635689e-29
-9.1907066e-29
-1.8381413e-28
1.7013842e-41
2.4508551e-28
6.1271378e-29
-2.5507347e-41
6.1271378e-29
-1.2254276e-28
-6.1271378e-29
2.5507703e-41
-1.2254276e-28
0
0
-3.0635689e-29
0
4.2512246e-42
9.1907066e-29
1.1799519e-56
8.5025676e-42
0
9.1907066e-29
1.2478457e-44
9.1907066e-29
-2.4508551e-28
-1.2254276e-28
1.2254276e-28
0
0
0
1.702255e-41
3.0635689e-29
0
0
6.1271378e-29
-2.5529471e-41
8.5042365e-42
0
0
0
0
0
0
0
0
-8.5095821e-42
-5.1015405e-41
6.1271378e-29
6.1271378e-29
-1.2254276e-28
-8.5095821e-42
4.2578142e-41
9.1907066e-29
-1.7013842e-41
-1.8381413e-28
0
0
-6.1271378e-29
-8.5069212e-42
3.0635689e-29
0
0
0
0
0
0
0
-1.7047696e-41
-5.1006698e-41
-6.1271378e-29
6.1271378e-29
8.7071864e-45
6.1271378e-29
-3.3975442e-41
6.1271378e-29
1.2254276e-28
8.8503286e-57
2.757212e-28
0
-1.8381413e-28
0
0
-2.4508551e-28
3.3992856e-41
1.8381413e-28
-1.6036588e-44
3.0635689e-29
-3.0635689e-29
3.0635689e-29
-3.0635689e-29
-1.438155e-69
-3.0635689e-29
3.0635689e-29
0
3.0635689e-29
-6.1271378e-29
-8.5528471e-44
-9.1907066e-29
-8.5095821e-42
7.1329271e-45
-6.1271378e-29
6.1271378e-29
6.1271378e-29
-3.0635689e-29
0
-3.0635689e-29
-9.1907066e-29
-9.1907066e-29
-1.8381413e-28
-2.6121559e-44
-2.1382118e-44
3.0635689e-29
4.2534606e-42
-3.0635689e-29
8.7071864e-45
1.8381413e-28
-1.2254276e-28
0
-2.5520763e-41
-4.3535932e-45
-6.1271378e-29
3.0635689e-29
8.5069212e-42
8.498214e-42
-2.3599134e-56
-9.1907066e-29
1.4249191e-44
-8.8503286e-57
-2.3916638e-54
4.3535932e-45
-1.2254276e-28
-8.498214e-42
-2.6727647e-44
0
0
3.0635689e-29
2.5494642e-41
3.0635689e-29
-6.1271378e-29
4.2534606e-42
-1.1800438e-56
4.2534606e-42
-3.0635689e-29
4.2476581e-42
-4.249107e-42
3.0635689e-29
0
0
-9.1907066e-29
9.1907066e-29
-7.6510047e-41
-3.0635689e-29
-3.0635689e-29
0
-9.1907066e-29
-6.1271378e-29
-9.1907066e-29
-9.1907066e-29
0
9.1907066e-29
3.0635689e-29
-1.2115978e-43
9.1907066e-29
-6.1271378e-29
3.0635689e-29
4.249107e-42
6.1271378e-29
1.7013842e-41
6.1271378e-29
0
0
0
-3.0635689e-29
-1.2254276e-28
0
-9.1907066e-29
-1.273426e-41
6.1271378e-29
0
0
-3.0635689e-29
8.498214e-42
-8.4895068e-42
1.2254276e-28
-6.1271378e-29
-1.2747321e-41
3.0635689e-29
0
9.1907066e-29
-4.2534606e-42
3.0635689e-29
8.5024491e-42
6.1271378e-29
3.0635689e-29
-6.1271378e-29
0
-8.507803e-42
-9.1907066e-29
6.1271378e-29
-1.0691059e-44
0
-3.0635689e-29
-3.0635689e-29
3.0635689e-29
-6.1271378e-29
1.8381413e-28
-8.5069212e-41
-9.1907066e-29
-1.5951181e-72
-3.0635689e-29
6.1271378e-29
4.7649655e-54
-1.4249191e-44
6.1271378e-29
-6.1271378e-29
-1.7873977e-45
-9.1907066e-29
4.6339031e-44
0
0
-1.2254276e-28
2.3600876e-56
1.2254276e-28
0
0
-1.8381413e-28
-2.3600876e-56
6.1271378e-29
0
0
1.8381413e-28
-3.0635689e-29
3.0635689e-28
6.1271378e-29
0
1.8381413e-28
-3.4027685e-41
1.2254276e-28
-3.0635689e-29
0
3.0635689e-29
3.0635689e-29
-8.7071864e-45
-6.1271378e-29
-8.5131402e-42
6.1271378e-29
9.1907066e-29
-6.1271378e-29
1.0691059e-44
8.5069212e-42
8.5060156e-42
6.1271378e-29
3.4027685e-41
-9.1907066e-29
-1.0691059e-44
3.0635689e-29
-8.5184941e-42
9.1907066e-29
6.1271378e-29
1.7013842e-41
1.2254276e-28
-9.1907066e-29
4.3535932e-45
-6.1271378e-29
1.5317844e-28
-1.5317844e-28
-3.0635689e-29
-3.0635689e-29
1.2254276e-28
-1.702255e-41
-6.1271378e-29
6.1271378e-29
1.306078e-44
1.2254276e-28
-1.7414373e-44
8.516715e-42
0
3.0635689e-29
0
-9.1907066e-29
0
0
0
3.0635689e-29
2.9501095e-57
3.0635689e-29
0
6.1271378e-29
-1.7013842e-41
3.0635689e-29
0
0
0
6.1271378e-29
-8.5069212e-42
-6.1271378e-29
0
-3.0635689e-29
-8.5025676e-42
3.0635689e-29
0
-3.0635689e-29
6.1271378e-29
-1.702255e-41
1.2254276e-28
-1.5317844e-28
0
6.1271378e-29
1.7013842e-41
0
0
-3.0635689e-29
-3.0635689e-29
-1.7013842e-41
-3.0635689e-29
2.9679347e-57
8.7071864e-45
4.7422597e-54
-8.7071864e-45
-3.0635689e-29
0
3.0635689e-29
2.5507703e-41
2.5507703e-41
3.6012079e-73
2.3643675e-54
0
1.8381413e-28
4.7227977e-54
3.0635689e-29
8.5149276e-42
-8.5025676e-42
-9.1907066e-29
1.2470125e-44
8.5069212e-42
8.5069212e-42
-8.5487798e-42
-3.0635689e-29
6.1271378e-29
0
-8.5024575e-42
1.7013842e-41
6.1271378e-29
0
0
0
6.1271378e-29
-6.8055369e-41
-6.1271378e-29
0
0
0
0
0
0
0
6.1271378e-29
-6.8090198e-41
-6.1271378e-29
-3.0635689e-29
3.0635689e-29
3.0635689e-29
-8.5112748e-42
5.0989284e-41
3.0635689e-29
-1.7008465e-41
1.2254276e-28
1.5317844e-28
-9.1907066e-29
8.5273977e-42
-1.7005135e-41
3.0635689e-29
-9.1907066e-29
5.0989284e-41
9.1907066e-29
-3.0635689e-29
9.1907066e-29
-8.507803e-42
6.1271378e-29
-9.1907066e-29
0
-3.0635689e-29
6.1271378e-29
-8.498214e-42
3.0635689e-29
-1.6036588e-44
-9.1907066e-29
-9.1907066e-29
-3.0635689e-29
3.0635689e-29
1.7013842e-41
-3.0635689e-29
1.7024501e-41
-8.7071864e-45
1.2254276e-28
9.448839e-54
3.0635689e-29
-3.0635689e-29
0
9.1907066e-29
0
0
0
3.0635689e-29
3.0635689e-29
3.0635689e-29
-6.1271378e-29
0
3.0635689e-29
1.702255e-41
6.1271378e-29
0
0
3.0635689e-29
-6.8020541e-41
-3.0635689e-29
0
0
0
-3.401027e-41
-3.0635689e-29
0
-6.1271378e-29
8.5069212e-42
2.3662644e-54
-3.4027685e-41
-1.2254276e-28
0
6.1271378e-29
1.7000782e-41
9.1907066e-29
0
2.5503781e-41
-6.1271378e-29
-3.0635689e-29
-6.1271378e-29
-1.7031257e-41
4.9897162e-44
1.7013842e-41
-1.0699391e-44
0
0
-6.1271378e-29
-1.7005135e-41
6.1271378e-29
0
-6.1271378e-29
-8.4971036e-42
-9.1907066e-29
1.2254276e-28
0
-3.0635689e-29
-6.1271378e-29
-5.1015405e-41
3.401027e-41
-6.1271378e-29
1.0204823e-40
-3.0635689e-29
1.696925e-41
-2.5507703e-41
-9.4553264e-54
1.7008456e-41
-2.5494642e-41
-3.0635689e-29
0
0
0
1.8381413e-28
7.1245953e-45
1.2254276e-28
-8.5024491e-42
0
0
1.2254276e-28
2.9501095e-57
-6.1271378e-29
0
-6.1271378e-29
-3.0635689e-29
1.2254276e-28
3.0635689e-29
0
-6.1271378e-29
-8.7071864e-45
-9.1907066e-29
4.249107e-41
1.2254276e-28
3.0635689e-29
3.4828746e-44
-6.1271378e-29
-1.4851068e-57
1.6996428e-41
3.0635689e-29
0
-3.0635689e-29
1.663981e-69
-6.1271378e-29
-3.0635689e-29
1.5302009e-40
8.5095821e-42
-6.1271378e-29
8.7071864e-45
-3.0635689e-29
0
0
0
-1.0691059e-44
3.0635689e-29
-1.2254276e-28
2.4508551e-28
3.4027685e-41
-3.3992856e-41
-9.1907066e-29
0
1.7012031e-41
4.3535932e-45
1.2254276e-28
9.1907066e-29
1.0197857e-40
-9.1907066e-29
3.0635689e-29
4.7422597e-54
-1.7026297e-41
0
-9.1907066e-29
-1.2254276e-28
0
1.6036588e-44
3.0635689e-29
-3.0635689e-29
0
6.1271378e-29
0
0
3.0635689e-29
2.5512056e-41
3.0635689e-29
0
0
-6.1271378e-29
1.2254276e-28
-3.0635689e-29
9.1907066e-29
-9.1907066e-29
-3.0635689e-29
-1.2254276e-28
-1.5317844e-28
5.9578923e-41
9.1907066e-29
-4.7165883e-54
-1.6996428e-41
3.0635689e-29
-3.0635689e-29
0
-3.0635689e-29
-3.5548789e-60
-6.1271378e-29
1.2254276e-28
6.1271378e-29
9.1907066e-29
-2.4508551e-28
-1.2254276e-28
-3.0635689e-29
-2.5498435e-41
3.0635689e-29
-1.7013842e-41
-6.1271378e-29
-5.3455294e-45
-8.5025676e-42
-8.5112748e-42
-1.2254276e-28
0
0
-9.1907066e-29
8.4917581e-42
0
-6.1271378e-29
-3.7427038e-44
0
9.1907066e-29
-1.7013842e-41
-3.0635689e-29
-3.0635689e-29
8.498214e-42
-3.0635689e-29
0
6.1271378e-29
6.8037955e-41
-6.1271378e-29
-6.1271378e-29
8.4938604e-42
6.1271378e-29
1.2254276e-28
8.5025676e-42
3.0635689e-29
0
6.1271378e-29
-1.2254276e-28
1.7414373e-44
-1.7013842e-41
-1.6036588e-44
-1.2254276e-28
0
-2.4508551e-28
1.3604108e-40
9.1907066e-29
1.7005135e-41
6.1271378e-29
1.0202939e-40
1.2254276e-28
-2.1382118e-44
6.1271378e-29
-2.5500215e-41
0
9.1907066e-29
1.8381413e-28
4.3535932e-45
-1.2254276e-28
1.7004898e-41
-3.0635689e-29
-3.0635689e-29
1.2254276e-28
6.1271378e-29
1.5307234e-40
-1.2254276e-28
-1.6976383e-41
-9.4885183e-54
1.2254276e-28
-9.1907066e-29
9.1907066e-29
-1.2254276e-28
-2.5494642e-41
-1.8381413e-28
6.1271378e-29
-6.1271378e-29
6.1271378e-29
2.967175e-57
6.1271378e-29
9.4426266e-54
6.1271378e-29
8.5025676e-42
3.5401314e-56
-1.2254276e-28
-1.2254276e-28
1.0691059e-44
0
9.1907066e-29
2.0413128e-40
8.4935372e-42
-6.1271378e-29
6.8020541e-41
3.6762827e-28
2.9501095e-57
-3.0635689e-29
0
0
-3.0635689e-29
-3.0635689e-29
0
0
0
0
0
3.0635689e-29
0
-2.1444982e-28
1.5317844e-28
5.1024113e-41
1.2254276e-28
0
0
0
-8.5042282e-42
1.2254276e-28
-9.1907066e-29
-3.0635689e-29
-5.1041527e-41
3.0635689e-28
0
0
-2.4508551e-28
1.7414373e-44
8.4953162e-42
1.2254276e-28
-6.1271378e-29
1.7012031e-41
4.7287351e-54
6.1271378e-29
0
0
6.1271378e-29
6.1271378e-29
0
0
3.2073177e-44
4.2764235e-44
0
3.0635689e-29
-9.1907066e-29
1.2254276e-28
3.0635689e-29
6.1271378e-29
-6.1271378e-29
-6.1271378e-29
-3.4027685e-41
1.7042334e-41
-3.0635689e-29
-8.5025676e-42
1.2254276e-28
0
-9.1907066e-29
3.4018977e-41
-8.4988827e-42
6.1271378e-29
9.4455953e-54
3.0635689e-29
0
1.6036588e-44
8.5069212e-42
4.3535932e-45
0
3.0635689e-29
1.2254276e-28
0
6.1271378e-29
-6.8055369e-41
-6.1271378e-29
-1.306078e-44
-3.0635689e-28
1.2254276e-28
-1.2254276e-28
6.1271378e-29
-5.3455294e-45
0
-5.1021828e-41
5.1006698e-41
-4.9784122e-60
0
6.1271378e-29
4.7165853e-54
6.1271378e-29
8.5069212e-42
6.1271378e-29
-1.8381413e-28
-3.8259377e-40
3.0635689e-28
-6.1271378e-29
-3.4001563e-41
-1.2254276e-28
-8.4917581e-42
-1.2254276e-28
-6.1271378e-29
1.2254276e-28
-6.1271378e-29
-7.6518754e-41
6.1271378e-29
6.1271378e-29
-4.2534606e-41
1.8381413e-28
-1.0197857e-40
1.8381413e-28
-6.8020541e-41
6.1271378e-29
-3.0635689e-29
1.8381413e-28
-9.1907066e-29
-9.5331094e-54
9.1907066e-29
6.8055369e-41
-1.0691059e-44
6.1271378e-29
-2.5512056e-41
1.1870219e-56
-2.9656557e-57
-6.1271378e-29
0
-1.2254276e-28
-9.1907066e-29
0
0
0
0
0
-9.1907066e-29
-8.489979e-42
0
3.0635689e-29
6.1271378e-29
1.5309846e-40
-6.1271378e-29
0
0
0
-3.0635689e-29
-9.1907066e-29
6.1271378e-29
3.0635689e-29
-1.2254276e-28
1.0208305e-40
-3.0635689e-28
0
0
0
-3.0635689e-29
3.0635689e-29
5.3455294e-45
-3.0635689e-29
-4.7254883e-54
-6.1271378e-29
0
0
3.0635689e-29
3.0635689e-29
0
-9.1907066e-29
-8.7071864e-45
3.0635689e-29
-3.0635689e-29
-9.1907066e-29
0
1.2254276e-28
6.1271378e-29
0
9.1907066e-29
-6.1271378e-29
1.2254276e-28
3.0635689e-29
-3.0635689e-29
3.6762827e-28
3.0635689e-29
-4.3535932e-45
0
-3.0635689e-29
-6.1271378e-29
-3.0635689e-29
2.9501095e-57
-3.0635689e-29
-6.2230153e-61
-3.0635689e-29
0
6.1271378e-29
1.8381413e-28
0
6.1271378e-29
1.8381413e-28
9.439108e-54
1.6978171e-41
2.4508551e-28
-3.0635689e-28
-1.2254276e-28
3.0635689e-29
-3.0635689e-29
0
3.0635689e-29
1.8381413e-28
-6.1271378e-29
8.845719e-68
-9.1907066e-29
1.8381413e-28
6.1271378e-29
3.0635689e-29
-5.935512e-57
-6.1271378e-29
-3.0635689e-29
3.0635689e-29
3.0635689e-29
-6.1271378e-29
3.6762827e-28
9.1907066e-29
-9.1907066e-29
3.0635689e-29
3.0635689e-29
-6.1271378e-29
1.2254276e-28
-9.1907066e-29
-5.7880221e-53
5.1024113e-41
-9.1907066e-29
-3.0635689e-29
1.6036588e-44
3.401693e-41
-9.1907066e-29
1.8381413e-28
1.583828e-60
3.398129e-41
-3.0635689e-29
-9.1907066e-29
2.757212e-28
6.1271378e-29
-4.8109765e-44
0
-3.6762827e-28
-9.1907066e-29
1.8381413e-28
-1.7004898e-41
-6.1271378e-29
-1.0203081e-40
1.0201775e-40
1.6997765e-41
0
-1.8381413e-28
-1.2254276e-28
0
0
6.1271378e-29
-6.1271378e-29
-3.0635689e-29
-1.8381413e-28
0
1.8381413e-28
-1.2829271e-43
-2.1382118e-44
-6.1271378e-29
3.401027e-41
3.0635689e-29
-6.1271378e-29
-6.1271378e-29
4.0812324e-40
1.8381413e-28
-9.1907066e-29
0
-1.2254276e-28
0
-1.360585e-40
1.7008465e-41
-6.1271378e-29
1.8381413e-28
-8.7071864e-45
6.1271378e-29
0
5.3455294e-44
9.1907066e-29
-1.2254276e-28
-1.0204387e-40
-1.4265854e-44
-1.2254276e-28
-6.1271378e-29
1.020134e-40
-1.2254276e-28
1.2254276e-28
-3.0635689e-29
-1.8381413e-28
-1.8381413e-28
0
9.621953e-44
-1.8381413e-28
2.757212e-28
-3.0635689e-28
1.8381413e-28
-6.1271378e-29
6.1271378e-29
-1.2254276e-28
1.8381413e-28
9.1907066e-29
1.2254276e-28
-1.2254276e-28
1.7414373e-44
1.2254276e-28
1.8381413e-28
-9.1907066e-29
-3.0635689e-29
-5.1024113e-41
-2.2402855e-59
0
-1.8381413e-28
1.2254276e-28
-6.1271378e-29
-6.1271378e-29
-3.0635689e-29
0
3.0635689e-29
-5.93435e-57
1.2254276e-28
-1.0200469e-40
-1.5317844e-28
0
6.1271378e-29
-1.8381413e-28
-2.757212e-28
1.8381413e-28
9.1907066e-29
-6.1271378e-29
1.2254276e-28
6.1271378e-29
6.1271378e-29
1.7008465e-41
9.1907066e-29
-2.4508551e-28
1.8381413e-28
-1.7815654e-44
9.1907066e-29
-6.1271378e-29
-3.3999106e-41
-1.8381413e-28
6.8020541e-41
-6.8020541e-41
-9.1907066e-29
-6.8020541e-41
0
6.1271378e-29
6.1271378e-29
3.0635689e-29
-6.1271378e-29
3.0635689e-29
-2.757212e-28
-6.1271378e-29
-1.8381413e-28
-9.1907066e-29
-1.7414373e-44
0
2.4508551e-28
1.2254276e-28
0
1.5317844e-28
1.2254276e-28
6.1271378e-29
3.0635689e-29
-1.0203081e-40
-1.8381413e-28
-3.4009797e-41
-3.0635689e-29
3.563964e-44
6.1271378e-29
-1.7008465e-41
5.1028961e-41
3.0635689e-29
0
1.0204823e-40
3.0635689e-29
6.1271378e-29
-9.1907066e-29
-5.1002345e-41
5.1015405e-41
8.7071864e-45
-3.0635689e-29
-1.8381413e-28
-9.1907066e-29
4.1026829e-44
6.8020541e-41
0
0
0
6.1271378e-29
-3.401027e-41
-1.7000782e-41
-1.2254276e-28
1.8381413e-28
9.1907066e-29
6.8003126e-41
1.1873513e-56
9.1907066e-29
6.1271378e-29
0
0
0
9.1907066e-29
-1.2254276e-28
9.1907066e-29
-1.9066349e-53
-6.1271378e-29
0
0
6.1271378e-29
1.3604108e-40
1.7000782e-40
-6.1271378e-29
-6.1271378e-29
-6.1271378e-29
-6.1271378e-29
6.1271378e-29
1.8381413e-28
3.0635689e-29
0
0
0
-1.8381413e-28
-1.2254276e-28
-9.1907066e-29
3.401027e-40
1.2254276e-28
-1.0620517e-55
-6.1271378e-29
-6.1271378e-29
-1.9066349e-53
-3.4013363e-41
-6.1271378e-29
0
1.7009489e-41
-6.1271378e-29
-1.8381413e-28
-5.112518e-41
-1.2254276e-28
6.1271378e-29
3.4001563e-41
3.0635689e-29
-2.757212e-28
-6.1271378e-29
-6.1271378e-29
-1.2254276e-28
1.5317844e-28
1.2254276e-28
3.0635689e-29
9.1907066e-29
-3.401027e-41
1.7000782e-41
1.0691059e-44
0
3.0635689e-29
-6.1271378e-29
1.2829271e-43
6.1271378e-29
6.1271378e-29
-9.1907066e-29
1.0201775e-40
-3.4038312e-41
3.0635689e-29
3.0635689e-29
3.0635689e-29
-6.1271378e-29
6.1271378e-29
-5.3455294e-45
3.0635689e-29
6.1271378e-29
-3.0635689e-29
6.1271378e-29
1.6996428e-41
-1.2254276e-28
-9.1907066e-29
9.1907066e-29
5.1082408e-41
1.2254276e-28
-1.8381413e-28
-8.7071864e-45
-1.8381413e-28
3.0635689e-29
-1.8381413e-28
3.0635689e-29
-3.1861183e-55
1.020134e-40
-1.2254276e-28
1.8381413e-28
6.1271378e-29
-3.2073177e-44
1.18687e-56
-1.8381413e-28
9.1907066e-29
-2.757212e-28
-1.8381413e-28
1.4265854e-44
0
3.0635689e-29
6.1271378e-29
-8.7071864e-45
-9.1907066e-29
1.7008465e-41
-6.1271378e-29
-8.7071864e-45
-6.1271378e-29
-6.1271378e-29
1.0204823e-40
1.8381413e-28
-1.8381413e-28
-1.2254276e-28
0
0
-3.0635689e-29
1.0217195e-40
6.1271378e-29
5.0980851e-41
-3.401027e-41
-6.1271378e-29
6.1271378e-29
-4.2764235e-44
-3.0635689e-29
-1.8381413e-28
7.1329271e-45
-6.1271378e-29
-2.757212e-28
-6.1271378e-29
5.1024113e-41
-3.3992856e-41
-6.1271378e-29
0
0
-9.1907066e-29
0
1.8381413e-28
-1.2254276e-28
3.6762827e-28
1.7414373e-44
1.5317844e-28
-2.4508551e-28
3.0635689e-29
-1.7001332e-41
3.401027e-41
-3.0635689e-29
-6.1271378e-29
-1.6036588e-44
3.2073177e-44
-6.1271378e-29
6.8037955e-41
6.1271378e-29
-3.0635689e-29
6.1271378e-29
9.1907066e-29
0
-1.8381413e-28
-6.1271378e-29
9.1907066e-29
1.9066349e-53
6.1271378e-29
-9.1907066e-29
-1.2254276e-28
1.6996428e-41
-6.1271378e-29
5.1015405e-41
1.8381413e-28
-3.4005917e-41
-3.4005917e-41
-1.2254276e-28
-9.1907066e-29
-6.1271378e-29
3.4018977e-41
2.0404421e-40
-6.1271378e-29
-3.0635689e-29
1.2254276e-28
-3.6762827e-28
-6.1271378e-29
-1.8381413e-28
2.4508551e-28
3.167656e-60
1.8381413e-28
5.0975497e-41
1.9603052e-44
-3.6762827e-28
4.0815807e-40
-4.2764235e-44
-3.0635689e-29
-1.2254276e-28
-3.6762827e-28
1.8381413e-28
1.0691059e-44
-6.8003126e-41
-6.1271378e-29
-6.1271378e-29
1.7005135e-41
0
-6.1271378e-29
2.0409645e-40
-1.8381413e-28
1.8381413e-28
1.8381413e-28
0
0
0
9.1907066e-29
3.6762827e-28
9.1907066e-29
6.8020541e-41
-5.3455294e-45
9.1907066e-29
3.0635689e-29
-1.6036588e-44
3.0635689e-29
-6.1271378e-29
3.0635689e-28
3.4020488e-41
-1.5317844e-28
3.0609243e-40
0
1.8381413e-28
2.4508551e-28
0
1.2254276e-28
1.9059862e-53
6.1271378e-29
5.1078841e-41
3.0635689e-29
6.1271378e-29
0
0
0
-6.1271378e-29
-1.5106465e-52
6.8065932e-41
3.0635689e-29
0
-2.1382118e-44
3.0635689e-29
8.8957533e-68
-5.1024113e-41
9.1907066e-29
0
0
2.4508551e-28
3.0635689e-28
6.1271378e-29
-3.4005917e-41
-9.1907066e-29
-1.3607591e-40
-2.4508551e-28
0
-1.2254276e-28
-3.0635689e-29
-6.1271378e-29
-3.0635689e-29
3.0635689e-29
-4.5953533e-28
3.0635689e-29
1.0203081e-40
1.2254276e-28
-3.6762827e-28
-1.8381413e-28
0
0
0
-9.1907066e-29
3.4031179e-41
9.1907066e-29
2.4508551e-28
0
1.8381413e-28
1.0203081e-40
6.1271378e-29
1.2254276e-28
-1.5317844e-28
9.1907066e-29
3.0635689e-29
-1.0204366e-40
1.0203652e-40
3.4009797e-41
3.0635689e-29
0
-6.1271378e-29
-9.1907066e-29
0
-9.1907066e-29
3.3988414e-41
-9.1907066e-29
-1.2254276e-28
1.0203081e-40
-3.0635689e-29
2.0409645e-40
3.0635689e-29
-3.4018977e-41
3.2785397e-69
6.1271378e-29
0
-6.1271378e-29
1.2254276e-28
-1.0198128e-40
9.1907066e-29
-9.1907066e-29
0
-1.2254276e-28
-1.8381413e-28
2.4508551e-28
-6.1271378e-29
6.1271378e-29
-4.5953533e-28
1.8381413e-28
0
6.1271378e-29
1.2254276e-28
3.0635689e-29
-2.757212e-28
-6.1271378e-29
1.5304622e-40
-1.2254276e-28
6.3722468e-55
9.1907066e-29
6.1271378e-29
1.8381413e-28
1.2254276e-28
-2.757212e-28
-6.1271378e-29
-1.8381413e-28
3.4014624e-40
1.8381413e-28
6.1271378e-29
-3.401027e-41
-3.4088209e-41
-6.8020541e-41
1.2254276e-28
1.2254276e-28
-9.1907066e-29
3.0635689e-29
-3.779425e-53
6.1271378e-29
1.0203081e-40
0
6.1271378e-29
-4.7499109e-56
0
-1.360585e-40
-6.1271378e-29
-9.1907066e-29
-1.7008465e-41
-2.8942523e-53
3.0609243e-40
9.1907066e-29
3.0635689e-29
6.1271378e-29
-3.401027e-41
-2.9665114e-57
0
6.1271378e-29
-3.3913577e-41
6.8011833e-41
-5.0998658e-41
3.4001563e-41
-3.0635689e-29
3.4024062e-41
6.1271378e-29
3.0635689e-29
3.3992856e-41
-1.7005135e-41
-6.1271378e-29
1.2254276e-28
-3.4009797e-41
-3.0614468e-40
-1.0203081e-40
9.1907066e-29
-1.2254276e-28
-8.7071864e-45
-6.1271378e-29
-5.3455294e-45
-1.8381413e-28
-3.0635689e-29
-3.6762827e-28
1.3604108e-40
9.1907066e-29
-6.8005361e-41
6.7976829e-41
6.1228935e-40
-6.1271378e-29
1.0691059e-44
3.0635689e-29
-1.2254276e-28
6.1271378e-29
2.757212e-28
0
0
6.1271378e-29
1.7414373e-44
-1.8381413e-28
0
-2.757212e-28
3.4024054e-41
-9.1907066e-29
-1.5192908e-60
-3.3041909e-69
1.0691059e-44
0
-1.5305492e-40
6.1271378e-29
-3.0635689e-29
-2.1382118e-44
6.8055369e-41
3.0635689e-29
1.2254276e-28
-6.1271378e-29
0
-1.2254276e-28
4.5953533e-28
3.6762827e-28
-1.0200086e-40
3.6762827e-28
3.0635689e-29
-3.0635689e-29
0
-9.1907066e-29
9.1907066e-29
-4.8109765e-44
-8.901525e-57
-6.1271378e-29
-6.1271378e-29
-9.1907066e-29
4.2764235e-44
3.0635689e-29
-3.0635689e-29
-1.8381413e-28
2.757212e-28
2.0406162e-40
-2.7211699e-40
-3.6762827e-28
2.4508551e-28
6.1271378e-29
9.1907066e-29
-3.4036392e-41
9.1907066e-29
-2.4508551e-28
1.2254276e-28
1.0199378e-40
0
6.1271378e-29
-1.7005135e-41
1.6581444e-75
-1.8381413e-28
3.3990202e-41
-2.757212e-28
6.1271378e-29
3.1861183e-55
1.8381413e-28
-3.0635689e-29
-1.0202939e-40
-3.0635689e-29
6.1271378e-29
3.4013363e-41
-6.1271378e-29
3.0609243e-40
1.2254276e-28
9.1907066e-29
6.8055369e-41
-1.360585e-40
1.2254276e-28
-2.4508551e-28
-6.8020541e-41
0
0
6.1271378e-29
0
0
-3.6762827e-28
6.8020541e-41
-1.7414373e-44
1.780305e-56
0
-3.0635689e-29
3.0635689e-29
-5.3455294e-45
6.1271378e-29
-1.2254276e-28
-1.9066349e-53
-6.1271378e-29
-6.1271378e-29
-1.7016495e-52
-1.3604108e-40
1.2254276e-28
-1.2254276e-28
6.1271378e-29
-1.3604108e-40
-6.1271378e-29
0
-6.1271378e-29
-3.0635689e-29
-1.8381413e-28
-1.5317844e-28
3.3974165e-41
1.0204823e-40
-3.0635689e-29
0
0
-2.4508551e-28
-1.8381413e-28
0
1.8381413e-28
6.1271378e-29
0
-9.1907066e-29
1.2254276e-28
0
-1.2254276e-28
0
0
3.0635689e-29
-6.8020541e-41
-6.1271378e-29
0
-6.1271378e-29
-1.7005135e-41
1.7015589e-41
0
1.2254276e-28
1.8381413e-28
-1.6917582e-41
3.4005917e-41
-3.0635689e-29
6.8026726e-41
-1.2254276e-28
-6.1271378e-29
-1.7414373e-44
4.7480877e-56
6.0771634e-60
-4.2764235e-44
0
2.37374e-56
-6.1271378e-29
9.1907066e-29
9.1907066e-29
9.1907066e-29
9.1907066e-29
-3.0635689e-29
3.4005917e-41
6.1271378e-29
-1.2254276e-28
2.3742048e-56
-1.2254276e-28
-2.0404421e-40
6.1271378e-29
3.0635689e-29
6.1271378e-29
-6.1271378e-29
6.8011833e-41
-1.7013842e-41
-3.0635689e-29
-2.4508551e-28
1.2254276e-28
1.2254276e-28
0
1.6999553e-41
3.7770513e-53
-6.1271378e-29
-1.0203081e-40
-9.1907066e-29
-3.0635689e-28
0
-1.2254276e-28
-2.7204733e-40
-6.1271378e-29
-3.0635689e-29
1.8381413e-28
-3.4001563e-41
-1.8381413e-28
9.1907066e-29
-3.3995531e-41
9.1907066e-29
1.2254276e-28
1.6036588e-44
0
1.2254276e-28
-1.2254276e-28
-5.514424e-28
6.1271378e-29
-1.2254276e-28
-1.8381413e-28
-3.0635689e-29
-6.1271378e-29
1.7036971e-41
3.0635689e-29
3.401027e-41
-3.4009797e-41
-9.1907066e-29
-2.4508551e-28
-6.1271378e-29
0
0
0
1.8381413e-28
1.8381413e-28
-9.621953e-44
-6.8020541e-41
3.786023e-53
-3.4001563e-41
6.8029248e-41
-2.1382118e-44
0
-3.0635689e-28
-6.1271378e-29
3.0635689e-29
-9.1907066e-29
1.7012031e-41
0
0
6.1271378e-29
-3.0609243e-40
-2.7208216e-40
1.8381413e-28
-1.2254276e-28
-1.8381413e-28
0
-1.2254276e-28
1.7000782e-40
3.6762827e-28
-3.0635689e-28
-6.8037955e-41
6.1271378e-29
0
6.1271378e-29
-1.5317844e-28
2.4508551e-28
1.7022714e-41
7.5661943e-53
-6.8076623e-41
6.8023168e-41
-6.1271378e-29
0
0
0
-6.1271378e-29
-1.8381413e-28
1.2254276e-28
0
6.1271378e-29
0
-3.0635689e-29
2.0410512e-40
-9.1907066e-29
3.4020488e-41
1.2254276e-28
3.0635689e-29
-6.1271378e-29
-1.7004898e-41
1.0204387e-40
-1.2254276e-28
2.7208216e-40
-6.9657492e-44
-1.2254276e-28
0
-6.1271378e-29
0
3.0635689e-29
0
0
0
-9.1907066e-29
3.0635689e-28
1.2254276e-28
-1.2254276e-28
-3.0635689e-29
-1.2254276e-28
-6.1271378e-29
0
0
-1.8381413e-28
6.1271378e-29
0
0
6.1271378e-29
3.401027e-41
6.1271378e-29
-5.1012916e-41
9.1907066e-29
-9.1907066e-29
-3.0635689e-29
-3.0635689e-28
-6.1271378e-29
0
1.2254276e-28
3.4001563e-41
6.1271378e-29
-9.1907066e-29
-1.2254276e-28
-6.1271378e-29
-6.1271378e-29
-1.0691059e-44
8.7071864e-45
-3.0635689e-29
-1.8381413e-28
1.2254276e-28
0
1.4160526e-55
6.1271378e-29
-1.2254276e-28
-4.2764235e-44
-1.2254276e-28
0
6.1271378e-29
6.1271378e-29
3.401027e-41
3.0635689e-29
-6.1271378e-29
6.1271378e-29
-6.1271378e-29
-1.7004898e-41
-6.1271378e-29
-2.1382118e-44
-3.0635689e-29
-1.2254276e-28
6.1271378e-29
3.4013363e-41
2.8601106e-53
6.1271378e-29
-6.8044533e-41
-6.1271378e-29
3.4001563e-41
-4.7220192e-52
-6.1271378e-29
1.0691059e-43
-2.7208216e-40
1.2254276e-28
-1.2254276e-28
3.0635689e-29
-8.7071864e-45
-1.3604108e-40
1.7092214e-41
-6.1271378e-29
-1.3604108e-40
5.1002345e-41
-6.1271378e-29
8.7071864e-45
-1.8381413e-28
1.2254276e-28
-3.4828746e-44
-1.3604108e-40
1.8381413e-28
-6.8008902e-41
2.0406162e-40
-2.4508551e-28
3.0635689e-29
-3.0635689e-29
0
-3.0635689e-29
3.401027e-41
-1.0691059e-44
0
0
-2.4508551e-28
8.7071864e-45
-2.4508551e-28
-8.911993e-45
3.4001563e-41
6.1271378e-29
3.401027e-40
2.8531709e-44
0
3.0635689e-29
1.2254276e-28
3.0635689e-29
1.360585e-40
-1.2254276e-28
1.2254276e-28
-1.7001332e-41
3.4001563e-41
-6.1271378e-29
0
0
-9.1907066e-29
1.1903595e-40
-1.5317844e-28
-6.1271378e-29
-3.6762827e-28
9.1907066e-29
3.0635689e-29
6.1271378e-29
-9.1907066e-29
-2.0404421e-40
-1.2254276e-28
-1.7414373e-44
-5.1019759e-40
1.5317844e-28
1.8381413e-28
1.5317844e-28
0
-3.0635689e-29
9.1907066e-29
-3.4013363e-41
1.7033405e-41
7.5588798e-53
-6.8003126e-41
6.8003126e-41
1.8381413e-28
-6.1271378e-29
1.5303316e-40
-3.0635689e-28
8.7071864e-45
-5.3455294e-45
0
6.1271378e-29
-1.8381413e-28
-1.0208305e-40
-9.1907066e-29
-3.0635689e-29
6.8005344e-41
-1.2254276e-28
3.4016921e-41
-2.757212e-28
-3.0635689e-28
6.1271378e-29
-1.8381413e-28
-3.0635689e-29
-6.1271378e-29
-1.2254276e-28
1.8381413e-28
-1.0218621e-40
3.0635689e-29
-3.0635689e-29
-4.2764235e-44
-3.0635689e-29
-3.4038312e-41
1.6997774e-41
-1.6987083e-41
-6.1271378e-29
-3.0635689e-29
-6.1271378e-29
6.1271378e-29
1.8880701e-55
-8.7071864e-45
6.1271378e-29
6.1271378e-29
1.0205693e-40
-6.7950883e-41
-1.0204823e-40
-9.4403505e-56
1.0204366e-40
3.4014624e-41
0
-6.1271378e-29
-3.401693e-41
-6.1271378e-29
-6.8020541e-41
-6.1271378e-29
1.0204823e-40
-9.1907066e-29
1.2254276e-28
0
3.0635689e-29
-6.8003126e-41
3.0635689e-29
-1.0691059e-44
0