/*--------------------------------*- C++ -*----------------------------------*\
| =========                 |                                                 |
| \\      /  F ield         | OpenFOAM: The Open Source CFD Toolbox           |
|  \\    /   O peration     | Version:  4.x                                   |
|   \\  /    A nd           | Web:      www.OpenFOAM.org                      |
|    \\/     M anipulation  |                                                 |
\*---------------------------------------------------------------------------*/
FoamFile
{
    version     2.0;
    format      ascii;
    class       volScalarField;
    location    "0.48";
    object      T;
}
// * * * * * * * * * * * * * * * * * * * * * * * * * * * * * * * * * * * * * //

dimensions      [0 0 0 1 0 0 0];

internalField   nonuniform List<scalar> 
6273
(
299.999792
299.9997921
299.9997845
299.9997781
299.999772
299.9997694
299.9998021
299.9998019
299.9997967
299.9997928
299.9997891
299.9997864
299.9998121
299.9998143
299.9998151
299.9998184
299.9998207
299.9998211
299.9998285
299.9998339
299.9998423
299.9998548
299.999866
299.9998724
299.999843
299.9998513
299.9998661
299.9998881
299.9999099
299.9999242
299.9998513
299.9998599
299.9998783
299.9999068
299.9999368
299.9999589
299.9994589
299.9994586
299.9994598
299.9994709
299.9994815
299.9994892
299.9994712
299.9994739
299.9994822
299.9995001
299.9995158
299.9995241
299.9994956
299.9995058
299.9995279
299.9995605
299.9995871
299.9996001
299.999538
299.9995549
299.999591
299.9996401
299.9996831
299.9997076
299.9995804
299.9996016
299.9996472
299.9997109
299.9997727
299.9998145
299.9996092
299.9996297
299.9996774
299.9997493
299.9998264
299.9998878
299.9993191
299.9993311
299.9993572
299.9994012
299.9994388
299.9994585
299.9993311
299.9993475
299.999382
299.9994333
299.9994754
299.9994949
299.9993577
299.9993823
299.9994318
299.9994967
299.9995485
299.9995718
299.9994056
299.9994358
299.9994961
299.9995732
299.9996387
299.9996734
299.9994533
299.9994831
299.9995451
299.9996291
299.99971
299.9997648
299.9994836
299.9995077
299.9995627
299.9996478
299.9997421
299.9998196
299.9993622
299.9993882
299.9994369
299.9994986
299.9995385
299.9995442
299.9993703
299.9994003
299.9994549
299.9995208
299.9995635
299.9995696
299.9993868
299.9994213
299.9994847
299.9995583
299.9996078
299.9996195
299.9994169
299.9994517
299.9995171
299.9995945
299.9996539
299.9996793
299.9994461
299.9994753
299.9995324
299.9996073
299.9996767
299.9997213
299.9994598
299.9994795
299.9995232
299.9995913
299.9996661
299.9997299
299.9995648
299.9995917
299.9996342
299.9996749
299.999685
299.9996656
299.9995628
299.999591
299.9996366
299.9996803
299.9996935
299.9996768
299.9995562
299.9995857
299.9996347
299.9996828
299.9997042
299.9996968
299.9995519
299.9995789
299.999625
299.9996745
299.9997065
299.9997149
299.9995475
299.9995669
299.9996024
299.9996484
299.9996901
299.9997171
299.999537
299.9995455
299.999565
299.999602
299.9996517
299.9997006
299.9997908
299.9998073
299.9998308
299.9998463
299.9998382
299.9998068
299.9997784
299.9997959
299.9998218
299.9998407
299.9998356
299.9998086
299.9997552
299.9997732
299.9998019
299.9998248
299.9998261
299.9998102
299.9997337
299.9997496
299.9997746
299.9997982
299.9998083
299.9998044
299.9997198
299.9997279
299.9997417
299.9997592
299.9997752
299.9997869
299.9997081
299.999705
299.9997032
299.9997088
299.9997264
299.9997541
299.9998511
299.9998587
299.9998769
299.9999071
299.9999404
299.9999675
299.9998436
299.9998498
299.9998666
299.9998956
299.9999282
299.9999555
299.9998324
299.9998385
299.999856
299.9998833
299.9999111
299.9999347
299.9998272
299.9998358
299.9998583
299.9998866
299.9999101
299.9999246
299.9998375
299.99985
299.9998791
299.9999103
299.9999321
299.9999414
299.9998643
299.9998799
299.9999129
299.9999464
299.9999689
299.9999795
299.9998914
299.9999055
299.9999357
299.9999679
299.9999936
300.0000118
299.9999008
299.9999113
299.9999361
299.9999657
299.9999944
300.0000193
299.9998898
299.9998968
299.9999136
299.9999403
299.9999718
300.0000013
299.9998678
299.9998706
299.9998807
299.9999046
299.999939
299.9999722
299.9998441
299.9998426
299.999849
299.9998716
299.9999083
299.9999469
299.9998193
299.9998161
299.9998221
299.9998451
299.9998819
299.9999225
299.9996157
299.9996325
299.9996764
299.9997483
299.9998315
299.9999073
299.9996022
299.9996156
299.9996546
299.9997223
299.9998054
299.999887
299.999575
299.9995893
299.99963
299.9996948
299.9997674
299.9998412
299.9995657
299.9995865
299.9996372
299.9997046
299.9997691
299.9998226
299.9995982
299.9996266
299.9996908
299.9997631
299.9998206
299.9998584
299.9996702
299.9997015
299.9997694
299.9998433
299.9998992
299.9999337
299.9997305
299.9997568
299.9998143
299.9998814
299.9999395
299.9999847
299.9997351
299.9997523
299.9997947
299.9998537
299.9999165
299.9999759
299.9996897
299.9996974
299.9997247
299.9997779
299.9998488
299.9999223
299.9996262
299.9996258
299.9996436
299.9996932
299.9997737
299.9998631
299.9995664
299.9995604
299.9995754
299.9996256
299.9997138
299.9998167
299.9995143
299.9995078
299.9995236
299.9995783
299.9996717
299.9997789
299.9994861
299.9995039
299.9995506
299.9996321
299.9997319
299.9998247
299.9994642
299.9994779
299.9995181
299.9995942
299.9996948
299.9997984
299.9994312
299.9994484
299.9994951
299.9995725
299.9996657
299.9997628
299.999434
299.9994586
299.9995177
299.9995994
299.9996831
299.999762
299.9994953
299.9995269
299.9995989
299.9996844
299.9997577
299.9998127
299.9995966
299.9996263
299.9996936
299.9997726
299.9998366
299.999881
299.9996539
299.9996732
299.9997224
299.9997861
299.9998445
299.9998922
299.9996271
299.9996349
299.9996646
299.9997151
299.9997766
299.9998388
299.9995482
299.9995465
299.9995629
299.9996079
299.9996828
299.9997726
299.9994732
299.9994666
299.99948
299.9995271
299.9996191
299.9997399
299.9994235
299.9994165
299.9994323
299.9994877
299.9995933
299.9997305
299.9993906
299.9993859
299.9994051
299.9994681
299.9995797
299.9997176
299.9994492
299.9994617
299.9994924
299.999551
299.9996311
299.9997123
299.9994153
299.9994245
299.9994528
299.9995115
299.9995952
299.9996839
299.9993834
299.9993987
299.9994394
299.9995083
299.9995929
299.999681
299.9994
299.9994226
299.9994775
299.9995561
299.9996368
299.9997124
299.9994842
299.9995117
299.9995761
299.9996564
299.9997275
299.9997869
299.9995941
299.9996141
299.9996635
299.9997257
299.9997797
299.9998255
299.9996342
299.9996389
299.9996603
299.9996982
299.9997403
299.9997822
299.999584
299.9995746
299.9995776
299.9995991
299.9996412
299.9996971
299.9995038
299.9994889
299.9994873
299.9995099
299.999566
299.9996527
299.9994548
299.999441
299.9994432
299.9994741
299.9995479
299.9996569
299.9994454
299.9994353
299.9994412
299.9994796
299.9995644
299.9996815
299.9994587
299.9994527
299.9994599
299.9994973
299.9995765
299.9996865
299.9995109
299.9995107
299.9995186
299.9995477
299.9996022
299.9996672
299.9994668
299.9994664
299.9994758
299.9995091
299.9995705
299.9996434
299.9994353
299.9994426
299.9994666
299.9995138
299.9995793
299.9996558
299.9994566
299.9994713
299.9995102
299.9995721
299.9996387
299.9997113
299.9995451
299.9995625
299.9996073
299.9996687
299.9997282
299.9997919
299.9996401
299.9996463
299.9996704
299.9997112
299.9997537
299.9998082
299.9996521
299.9996409
299.9996394
299.999654
299.9996829
299.9997334
299.9995933
299.9995701
299.9995514
299.999557
299.9995832
299.999644
299.9995507
299.9995244
299.9995031
299.9995091
299.999542
299.9996165
299.9995579
299.9995342
299.9995159
299.9995229
299.9995597
299.9996371
299.9996
299.999581
299.9995656
299.9995714
299.9996018
299.9996619
299.9996465
299.9996299
299.9996101
299.9996045
299.9996191
299.9996604
299.9996841
299.9996724
299.9996569
299.9996548
299.9996724
299.9997177
299.9996431
299.9996307
299.9996157
299.9996164
299.99964
299.999697
299.9996104
299.9996061
299.9996063
299.9996192
299.9996518
299.9997148
299.9996236
299.9996274
299.999643
299.9996744
299.9997168
299.9997851
299.9996893
299.999697
299.9997203
299.9997567
299.9997985
299.9998691
299.9997434
299.9997403
299.9997463
299.9997669
299.9998001
299.9998725
299.9997155
299.9996965
299.9996794
299.9996832
299.9997065
299.999777
299.9996542
299.9996269
299.9995989
299.9995965
299.9996169
299.9996872
299.9996437
299.9996162
299.9995878
299.9995831
299.9996016
299.9996661
299.9996944
299.9996705
299.9996431
299.9996327
299.999642
299.9996814
299.9997573
299.9997358
299.9997062
299.9996855
299.9996778
299.9996881
299.9998013
299.9997792
299.9997419
299.9997077
299.9996833
299.9996724
299.9997951
299.9997935
299.9998007
299.9998251
299.9998615
299.9998979
299.9997758
299.9997769
299.9997848
299.999809
299.9998434
299.9998758
299.9997633
299.9997658
299.9997734
299.9997955
299.9998253
299.999855
299.9997547
299.9997565
299.9997629
299.9997828
299.9998115
299.9998416
299.9997477
299.9997488
299.9997543
299.9997741
299.9998049
299.9998376
299.9997421
299.99974
299.9997445
299.9997662
299.9998002
299.9998369
299.9994691
299.9994647
299.9994822
299.9995405
299.9996342
299.999734
299.9994304
299.9994278
299.9994462
299.9995036
299.9995917
299.9996837
299.9993948
299.9993923
299.99941
299.9994658
299.9995493
299.9996382
299.9993596
299.9993577
299.999376
299.9994334
299.9995217
299.9996162
299.9993279
299.9993274
299.9993488
299.9994135
299.9995126
299.9996188
299.9993069
299.9993055
299.9993313
299.9994041
299.9995124
299.9996282
299.9993649
299.9993619
299.9993819
299.9994454
299.9995528
299.999677
299.9993361
299.9993329
299.9993508
299.9994102
299.9995106
299.9996252
299.9992968
299.9992927
299.9993088
299.9993675
299.9994691
299.9995877
299.9992486
299.9992466
299.9992667
299.9993351
299.9994512
299.9995827
299.9992056
299.9992089
299.9992389
299.9993239
299.9994586
299.9996092
299.9991804
299.9991869
299.9992255
299.9993219
299.9994679
299.999631
299.9994736
299.9994669
299.9994694
299.9994993
299.9995661
299.9996538
299.9994751
299.9994651
299.999459
299.9994786
299.9995368
299.9996194
299.9994534
299.9994403
299.9994305
299.9994524
299.9995192
299.9996118
299.9994151
299.999405
299.9994037
299.9994419
299.9995303
299.9996433
299.9993794
299.9993778
299.9993911
299.9994501
299.9995627
299.9996975
299.9993598
299.9993623
299.9993851
299.9994571
299.9995822
299.9997299
299.9996827
299.9996619
299.9996297
299.9996098
299.9996079
299.9996246
299.999699
299.999673
299.9996292
299.9995957
299.999589
299.9996077
299.9996978
299.999668
299.9996203
299.9995899
299.999591
299.9996229
299.9996849
299.9996586
299.9996204
299.9996065
299.9996287
299.999684
299.9996743
299.9996562
299.9996318
299.9996374
299.9996813
299.9997572
299.9996688
299.999654
299.9996399
299.9996558
299.9997109
299.999797
299.9998289
299.999803
299.999756
299.9997079
299.9996654
299.9996434
299.999846
299.9998162
299.999761
299.9997026
299.9996579
299.9996377
299.999855
299.9998253
299.9997691
299.9997135
299.9996784
299.9996689
299.9998605
299.9998375
299.9997907
299.9997511
299.999735
299.9997408
299.9998675
299.9998524
299.9998215
299.9997989
299.9997982
299.9998168
299.9998717
299.9998598
299.9998404
299.9998258
299.9998302
299.9998558
299.9997738
299.9997884
299.9998137
299.9998469
299.9998872
299.9999245
299.9999356
299.9999128
299.9998825
299.9998745
299.9998914
299.9999075
299.999789
299.9998
299.9998207
299.99985
299.9998872
299.9999236
299.9999359
299.9999156
299.9998883
299.9998815
299.9998963
299.9999091
299.9998229
299.9998296
299.9998437
299.9998668
299.9998985
299.9999315
299.9999427
299.9999256
299.9999025
299.9998964
299.9999052
299.9999098
299.9998747
299.9998762
299.9998808
299.9998937
299.9999168
299.9999458
299.9999579
299.9999453
299.9999244
299.9999145
299.9999137
299.9999092
299.9999285
299.999926
299.9999215
299.999923
299.9999377
299.9999634
299.9999784
299.9999681
299.9999441
299.9999258
299.9999167
299.9999071
299.9999663
299.999963
299.9999539
299.9999471
299.9999561
299.9999817
299.9999995
299.9999865
299.999956
299.9999284
299.9999132
299.9999049
299.9995005
299.9995235
299.9995623
299.9996217
299.9997065
299.9997912
299.9998179
299.9997692
299.9997161
299.9997145
299.9997572
299.99978
299.9995317
299.9995477
299.9995784
299.9996302
299.9997094
299.9997909
299.9998168
299.9997703
299.9997207
299.9997191
299.9997552
299.9997708
299.9996043
299.9996095
299.9996246
299.9996615
299.9997286
299.9998022
299.9998255
299.9997844
299.9997408
299.9997369
299.9997569
299.9997585
299.9997129
299.9997081
299.9997041
299.9997183
299.9997635
299.999826
299.9998498
299.9998177
299.9997758
299.9997617
299.9997619
299.9997487
299.9998274
299.9998182
299.9997955
299.9997856
299.9998091
299.9998617
299.9998891
299.999861
299.9998107
299.9997797
299.9997641
299.9997429
299.9999147
299.9999079
299.9998782
299.9998484
299.9998568
299.9999044
299.9999368
299.9999031
299.9998358
299.9997877
299.9997625
299.9997448
299.9994649
299.9994704
299.9994887
299.9995342
299.9996182
299.9997064
299.9997264
299.9996705
299.9996247
299.9996373
299.9996852
299.9997024
299.9994972
299.9994957
299.9995052
299.9995425
299.9996197
299.9997012
299.9997169
299.9996615
299.999618
299.9996286
299.999669
299.9996806
299.9995702
299.9995576
299.9995516
299.9995725
299.9996336
299.9997043
299.9997159
299.9996639
299.9996227
299.9996268
299.9996502
299.9996509
299.9996741
299.999655
299.9996299
299.9996295
299.9996649
299.9997208
299.9997307
299.9996833
299.9996407
299.9996322
299.9996381
299.9996291
299.9997784
299.999761
299.9997208
299.9996963
299.9997111
299.9997539
299.9997656
299.9997215
299.9996671
299.9996432
299.9996369
299.9996237
299.9998533
299.9998448
299.9998043
299.9997633
299.9997655
299.9998024
299.9998173
299.9997677
299.9996967
299.9996592
299.999645
299.9996362
299.9995285
299.9995104
299.999513
299.9995486
299.9996271
299.9996988
299.999689
299.9996052
299.9995583
299.9995845
299.9996416
299.9996637
299.9995528
299.9995303
299.9995265
299.9995544
299.9996235
299.999686
299.9996693
299.9995848
299.999541
299.9995669
299.9996185
299.9996367
299.9996048
299.9995773
299.9995628
299.9995776
299.9996295
299.9996757
299.9996494
299.9995705
299.9995322
299.9995523
299.9995886
299.9995978
299.9996735
299.9996488
299.9996243
299.9996233
299.9996508
299.9996823
299.9996531
299.999579
299.9995409
299.9995499
299.9995685
299.9995701
299.9997323
299.9997191
299.9996898
299.9996741
299.9996855
299.9997045
299.9996766
299.9996084
299.9995649
299.9995591
299.9995656
299.9995614
299.9997626
299.9997629
299.9997454
299.9997279
299.9997354
299.9997529
299.9997305
299.9996657
299.9996077
299.9995846
299.9995782
299.9995731
299.9996271
299.9996038
299.9996108
299.9996556
299.9997322
299.9997707
299.9997065
299.9995887
299.9995414
299.9995845
299.9996533
299.999678
299.9996413
299.9996174
299.9996206
299.9996573
299.9997217
299.9997478
299.9996769
299.9995631
299.999522
299.9995673
299.9996312
299.9996519
299.9996713
299.9996492
299.9996478
299.9996712
299.9997153
299.9997201
299.999643
299.9995429
299.9995125
299.9995545
299.9996028
299.999614
299.9997058
299.9996913
299.9996883
299.9996998
299.9997225
299.9997149
299.9996397
299.9995496
299.9995225
299.999555
299.9995854
299.9995881
299.9997278
299.9997265
299.9997254
299.9997311
299.999743
299.999729
299.9996595
299.9995804
299.9995534
299.9995688
299.9995828
299.9995737
299.9997306
299.9997467
299.9997627
299.9997814
299.9997964
299.9997824
299.9997212
299.9996527
299.9996163
299.9996079
299.9995981
299.9995811
299.9997666
299.9997473
299.9997571
299.9998033
299.9998684
299.9998712
299.9997629
299.9996285
299.9995942
299.9996642
299.99974
299.9997596
299.9997728
299.9997553
299.9997636
299.9998036
299.9998558
299.9998463
299.9997331
299.9996071
299.9995826
299.9996569
299.999727
299.9997419
299.9997853
299.999774
299.9997818
299.9998114
299.9998413
299.9998124
299.9996973
299.9995928
299.9995832
299.9996567
299.9997107
299.9997162
299.9997953
299.9997941
299.9998052
299.9998274
299.9998407
299.9998006
299.9996915
299.9996029
299.9996004
299.9996658
299.9997032
299.9996965
299.9997942
299.9998072
299.9998277
299.9998498
299.9998547
299.9998139
299.9997144
299.9996428
299.9996437
299.9996867
299.9997024
299.9996788
299.9997833
299.9998191
299.9998633
299.999903
299.9999157
299.9998817
299.9997994
299.9997412
299.9997308
299.9997341
299.999715
299.9996808
299.9999317
299.9999505
299.9999543
299.9999443
299.9999299
299.9999273
299.999937
299.9999432
299.9999459
299.999942
299.9999244
299.9998989
299.9999027
299.9999208
299.999926
299.9999196
299.9999119
299.9999192
299.9999289
299.9999326
299.9999369
299.9999362
299.9999212
299.9998935
299.9998813
299.9998996
299.9999044
299.9998997
299.9999018
299.9999147
299.9999228
299.9999213
299.9999206
299.9999201
299.9999094
299.9998852
299.9998693
299.999888
299.9998929
299.9998917
299.9998979
299.999913
299.9999216
299.9999177
299.9999108
299.9999046
299.9998947
299.9998764
299.9998677
299.9998877
299.9998925
299.9998914
299.9998995
299.9999187
299.99993
299.999923
299.9999088
299.999898
299.999889
299.9998745
299.9998708
299.9998924
299.9998967
299.9998944
299.9999042
299.9999265
299.9999381
299.9999285
299.9999115
299.999899
299.9998894
299.9998764
299.999823
299.9998736
299.9998747
299.9998364
299.9997928
299.9997995
299.9998428
299.9998819
299.9998997
299.9998843
299.999828
299.9997547
299.9997598
299.9998047
299.9998063
299.999781
299.9997644
299.9997888
299.9998253
299.9998486
299.9998636
299.9998575
299.9998098
299.9997299
299.999715
299.9997633
299.9997708
299.9997536
299.9997542
299.9997858
299.9998141
299.9998182
299.9998189
299.9998119
299.9997742
299.9997029
299.9996995
299.9997521
299.9997607
299.9997482
299.9997565
299.9997927
299.9998157
299.9998086
299.999794
299.9997787
299.9997461
299.9996869
299.9997114
299.9997673
299.9997747
299.9997626
299.9997743
299.9998133
299.999833
299.9998157
299.9997891
299.9997673
299.9997363
299.9996849
299.9997286
299.9997873
299.9997936
299.9997787
299.9997898
299.9998293
299.9998481
299.9998273
299.9997953
299.9997689
299.9997372
299.9996893
299.9997896
299.9998482
299.9998379
299.999774
299.9997311
299.9997665
299.9998542
299.999933
299.9999617
299.9999265
299.9998293
299.9997158
299.999723
299.9997733
299.9997655
299.9997232
299.999713
299.9997613
299.9998281
299.9998776
299.9999009
299.9998763
299.9997861
299.9996602
299.9996912
299.9997461
299.9997427
299.9997104
299.9997158
299.9997687
299.9998174
299.9998359
299.9998409
299.9998155
299.9997344
299.9996152
299.9996991
299.9997588
299.999756
299.999731
299.9997422
299.9997891
299.9998197
299.9998196
299.9998056
299.9997729
299.9996983
299.9995908
299.9997403
299.9998059
299.9998027
299.9997723
299.999777
299.9998153
299.999835
299.9998199
299.9997941
299.9997558
299.9996842
299.9995837
299.9997729
299.9998426
299.9998358
299.999797
299.9997964
299.9998311
299.9998477
299.9998277
299.9997956
299.9997529
299.9996808
299.9995829
299.9997412
299.9997807
299.9997641
299.9997146
299.9997223
299.9998124
299.9999427
300.0000291
300.0000391
299.9999665
299.9998334
299.9996949
299.9996994
299.999735
299.999722
299.9996927
299.9997198
299.9998208
299.9999256
299.9999812
299.9999827
299.9999124
299.9997754
299.9996188
299.9996975
299.9997357
299.9997262
299.9997102
299.9997549
299.9998521
299.9999246
299.9999487
299.999932
299.9998539
299.9997167
299.9995624
299.9997421
299.9997859
299.9997786
299.9997696
299.9998113
299.9998874
299.9999312
299.9999305
299.9998944
299.9998107
299.999678
299.9995329
299.9998103
299.9998589
299.9998493
299.9998316
299.9998581
299.9999153
299.9999415
299.9999252
299.9998786
299.9997913
299.9996609
299.9995218
299.999852
299.9999012
299.9998866
299.9998613
299.9998795
299.999928
299.9999483
299.9999266
299.999875
299.9997848
299.9996542
299.9995183
299.9996574
299.9996657
299.999655
299.9996554
299.9997212
299.9998712
300.0000078
300.000062
300.0000422
299.9999421
299.9997975
299.9996651
299.999639
299.9996484
299.99964
299.9996534
299.9997392
299.9998936
300.000006
300.0000384
300.0000073
299.999902
299.9997438
299.9995942
299.9996663
299.9996816
299.9996759
299.9996993
299.9997996
299.99994
300.0000222
300.0000271
299.9999728
299.9998574
299.9996963
299.9995485
299.9997418
299.9997606
299.9997568
299.9997812
299.9998711
299.9999842
300.0000372
300.0000191
299.9999469
299.9998238
299.999665
299.9995269
299.9998261
299.9998484
299.9998408
299.9998541
299.999924
300.0000138
300.0000483
300.0000176
299.9999362
299.9998082
299.999651
299.9995196
299.9998721
299.9998948
299.9998828
299.9998887
299.9999483
300.0000277
300.0000548
300.0000187
299.9999325
299.9998018
299.9996453
299.9995174
299.9996407
299.9996362
299.9996325
299.9996609
299.9997667
299.9999313
300.0000368
300.0000511
300.000004
299.9999098
299.999789
299.9996902
299.9996341
299.9996297
299.9996239
299.9996587
299.9997833
299.99995
300.0000425
300.0000466
299.999992
299.9998869
299.999752
299.9996482
299.9996749
299.9996728
299.9996694
299.9997121
299.9998425
299.9999937
300.0000638
300.000049
299.9999779
299.9998606
299.9997232
299.9996298
299.9997562
299.9997555
299.9997527
299.9997929
299.99991
300.0000352
300.0000821
300.0000508
299.9999658
299.9998412
299.9997066
299.999623
299.999839
299.9998389
299.9998318
299.9998627
299.9999602
300.000061
300.0000932
300.0000525
299.9999595
299.9998301
299.9996986
299.9996232
299.9998815
299.999881
299.9998702
299.9998953
299.9999829
300.0000722
300.0000972
300.0000513
299.9999548
299.9998242
299.9996946
299.9996233
299.9999091
299.9998962
299.9998765
299.9998533
299.9998296
299.9998133
299.9999074
299.999891
299.9998684
299.9998425
299.9998174
299.9997973
299.9999003
299.9998776
299.9998498
299.9998193
299.9997922
299.999771
299.9998948
299.9998698
299.9998393
299.9998052
299.9997751
299.999754
299.9998921
299.999871
299.9998402
299.9998056
299.9997739
299.9997533
299.9998932
299.9998792
299.999853
299.9998193
299.9997875
299.9997673
299.9997652
299.9997186
299.9996607
299.9996011
299.9995469
299.9995123
299.9997483
299.9996961
299.9996334
299.9995708
299.9995159
299.9994792
299.9997237
299.9996627
299.9995918
299.9995232
299.9994667
299.9994314
299.9997079
299.9996443
299.9995699
299.9994959
299.9994367
299.999403
299.9997062
299.9996492
299.9995775
299.9995035
299.9994425
299.9994094
299.9997172
299.9996767
299.9996147
299.9995427
299.9994823
299.9994495
299.9996798
299.9996313
299.9995762
299.9995231
299.9994807
299.9994556
299.9996537
299.9996026
299.999545
299.9994909
299.9994494
299.9994242
299.9996165
299.9995608
299.9994981
299.9994394
299.9993977
299.9993737
299.9995926
299.9995374
299.9994727
299.9994092
299.999365
299.9993415
299.9995921
299.9995449
299.9994834
299.9994201
299.9993743
299.99935
299.9996138
299.9995814
299.9995299
299.9994702
299.9994255
299.9994005
299.9996515
299.9996226
299.9996009
299.9995933
299.9995944
299.9995949
299.999622
299.9995926
299.9995706
299.9995633
299.9995645
299.9995626
299.9995778
299.9995468
299.9995221
299.999511
299.9995094
299.9995055
299.9995485
299.9995186
299.9994926
299.9994776
299.9994729
299.999468
299.9995435
299.9995231
299.9995017
299.9994892
299.9994845
299.9994788
299.9995611
299.9995558
299.999549
299.9995442
299.9995419
299.9995364
299.9996642
299.9996438
299.9996432
299.9996703
299.9997075
299.9997283
299.9996356
299.9996167
299.9996181
299.9996471
299.9996831
299.9996993
299.9995927
299.9995757
299.9995788
299.9996069
299.9996394
299.9996533
299.9995638
299.9995502
299.9995587
299.99959
299.9996233
299.9996379
299.9995561
299.999555
299.9995759
299.9996175
299.9996554
299.9996717
299.9995696
299.9995892
299.999635
299.9996923
299.9997354
299.9997544
299.9997299
299.9997001
299.9996989
299.9997333
299.9997802
299.9998073
299.9997096
299.9996832
299.9996857
299.9997242
299.9997709
299.9997946
299.9996799
299.9996588
299.9996674
299.9997107
299.9997586
299.9997814
299.9996582
299.9996451
299.9996677
299.9997216
299.9997744
299.9997988
299.9996529
299.9996567
299.9996992
299.9997707
299.9998332
299.9998601
299.9996641
299.9996936
299.9997692
299.9998592
299.9999203
299.9999439
299.9999016
299.9998938
299.9998738
299.9998418
299.9998109
299.9997928
299.9999127
299.9999112
299.9998923
299.999862
299.9998345
299.9998205
299.9999295
299.9999236
299.9999048
299.9998783
299.9998585
299.9998504
299.9999419
299.9999323
299.999915
299.9998974
299.9998881
299.9998858
299.999952
299.9999409
299.9999296
299.999922
299.999921
299.9999224
299.9999619
299.9999516
299.9999446
299.9999405
299.9999417
299.9999434
299.9999672
299.9999574
299.9999476
299.9999404
299.9999388
299.9999387
299.999969
299.9999582
299.9999426
299.9999277
299.9999202
299.9999171
299.9999681
299.9999568
299.9999381
299.9999154
299.9999007
299.9998945
299.9999522
299.999945
299.9999269
299.9999006
299.9998816
299.999873
299.9999208
299.9999167
299.9999004
299.9998756
299.999857
299.999848
299.999894
299.9998827
299.9998648
299.9998444
299.9998302
299.999824
299.999747
299.9997203
299.9996687
299.9996008
299.9995453
299.9995169
299.9997822
299.9997648
299.9997143
299.9996528
299.9996085
299.9995884
299.9998202
299.999796
299.9997472
299.9996994
299.999674
299.9996647
299.9998464
299.9998175
299.9997795
299.9997563
299.9997517
299.9997527
299.9998662
299.9998416
299.9998227
299.9998191
299.9998282
299.9998349
299.9998923
299.9998718
299.9998592
299.999858
299.9998659
299.9998722
299.9999227
299.9998934
299.9998688
299.9998558
299.9998522
299.9998535
299.9999493
299.9999113
299.9998686
299.9998329
299.9998148
299.9998093
299.9999569
299.999917
299.9998631
299.9998098
299.9997786
299.9997662
299.9999175
299.9998853
299.9998306
299.9997721
299.9997348
299.9997181
299.9998322
299.9998049
299.9997553
299.9997041
299.9996716
299.9996566
299.9997483
299.9997051
299.9996596
299.9996239
299.9996074
299.9996023
299.9996579
299.9996363
299.999595
299.9995429
299.9995043
299.9994841
299.9997006
299.9996838
299.9996462
299.999606
299.999582
299.9995717
299.999736
299.9997127
299.9996835
299.9996657
299.9996638
299.9996662
299.9997586
299.9997381
299.9997284
299.9997353
299.9997561
299.9997685
299.9997831
299.9997749
299.9997786
299.999802
299.9998293
299.9998434
299.9998264
299.9998167
299.9998161
299.9998307
299.9998455
299.9998534
299.9998959
299.9998608
299.9998378
299.9998251
299.9998185
299.9998161
299.9999761
299.999916
299.9998614
299.9998169
299.9997893
299.9997765
300.0000111
299.9999438
299.9998696
299.9998037
299.9997612
299.9997407
299.9999663
299.9999049
299.9998245
299.9997539
299.9997088
299.9996867
299.9998453
299.9997885
299.9997158
299.9996595
299.9996285
299.9996145
299.9997165
299.9996458
299.9995893
299.9995622
299.999558
299.9995607
299.9996012
299.9996086
299.9996166
299.9996222
299.9996252
299.9996231
299.9996356
299.9996507
299.9996678
299.9996868
299.9997006
299.9997049
299.9996622
299.9996755
299.999704
299.9997409
299.9997716
299.9997837
299.9996878
299.9997017
299.9997407
299.9997947
299.999836
299.9998526
299.9997265
299.9997386
299.9997791
299.999831
299.9998642
299.9998771
299.9997896
299.9997888
299.9998076
299.9998323
299.9998434
299.9998462
299.9998876
299.9998546
299.9998385
299.9998249
299.9998085
299.9997984
299.9999983
299.9999339
299.9998791
299.9998288
299.9997885
299.9997676
300.0000402
299.9999652
299.999886
299.9998146
299.9997625
299.9997362
299.9999896
299.9999136
299.9998247
299.9997505
299.9997029
299.9996801
299.9998528
299.9997793
299.9997013
299.9996489
299.9996236
299.999614
299.9997038
299.9996262
299.9995767
299.9995621
299.9995727
299.999583
299.9996045
299.9996408
299.999709
299.9997767
299.9998205
299.999839
299.9996319
299.999682
299.9997625
299.9998354
299.9998794
299.9998968
299.9996569
299.9997075
299.9997935
299.9998719
299.9999185
299.999936
299.9996877
299.9997308
299.9998135
299.9998924
299.999936
299.9999519
299.9997341
299.9997622
299.999828
299.9998904
299.9999212
299.999932
299.9998086
299.9998128
299.9998427
299.9998697
299.9998785
299.9998798
299.9999093
299.9998809
299.9998703
299.9998596
299.9998438
299.9998342
299.9999986
299.9999436
299.9998983
299.9998556
299.9998207
299.999803
300.0000196
299.9999546
299.9998843
299.9998219
299.9997784
299.9997578
299.9999532
299.9998827
299.9998041
299.9997425
299.9997053
299.9996891
299.9998158
299.9997485
299.9996858
299.9996462
299.999633
299.9996308
299.9996792
299.999617
299.9995861
299.9995866
299.9996039
299.9996146
299.9996876
299.9997447
299.9998416
299.9999327
299.9999822
300
299.9997124
299.9997815
299.9998881
299.9999711
300.0000104
300.0000226
299.9997388
299.9998077
299.9999107
299.9999875
300.0000225
300.0000317
299.9997796
299.9998294
299.9999193
299.99999
300.0000227
300.0000316
299.9998333
299.9998559
299.9999226
299.9999801
300.0000079
300.0000168
299.9998988
299.9998961
299.9999285
299.999963
299.9999806
299.9999866
299.999956
299.9999359
299.9999365
299.9999478
299.999954
299.9999548
299.9999832
299.9999503
299.9999304
299.9999191
299.9999128
299.9999082
299.9999716
299.9999271
299.9998854
299.9998544
299.9998382
299.9998303
299.9999
299.9998505
299.9997974
299.9997622
299.9997466
299.9997404
299.999794
299.9997436
299.9997013
299.9996832
299.9996813
299.9996819
299.9996973
299.9996596
299.9996475
299.9996522
299.9996641
299.9996702
299.9998734
299.9998543
299.9998331
299.9998186
299.9998128
299.9998118
299.9998638
299.9998345
299.999815
299.9998068
299.9998093
299.9998129
299.9998542
299.9998265
299.9998103
299.9998082
299.9998172
299.9998231
299.999851
299.9998276
299.9998168
299.9998192
299.9998295
299.9998343
299.9998541
299.9998365
299.9998291
299.9998311
299.9998389
299.9998421
299.9998592
299.9998435
299.9998354
299.999835
299.9998405
299.9998437
299.999684
299.9996246
299.9995835
299.9995683
299.9995736
299.9995801
299.9996444
299.9995778
299.9995473
299.999547
299.9995684
299.9995842
299.9996218
299.9995616
299.9995388
299.9995492
299.9995813
299.9996014
299.9996162
299.9995651
299.9995489
299.9995642
299.9995964
299.9996155
299.9996246
299.9995806
299.9995665
299.9995789
299.9996066
299.9996242
299.9996333
299.9995907
299.999575
299.9995838
299.999609
299.9996276
299.9996109
299.9995351