/*--------------------------------*- C++ -*----------------------------------*\
  =========                 |
  \\      /  F ield         | OpenFOAM: The Open Source CFD Toolbox
   \\    /   O peration     | Website:  https://openfoam.org
    \\  /    A nd           | Version:  7
     \\/     M anipulation  |
\*---------------------------------------------------------------------------*/
FoamFile
{
    version     2.0;
    format      ascii;
    class       volScalarField;
    location    "0.00053";
    object      rho;
}
// * * * * * * * * * * * * * * * * * * * * * * * * * * * * * * * * * * * * * //

dimensions      [1 -3 0 0 0 0 0];

internalField   nonuniform List<scalar> 
5000
(
1.4235637
1.4235637
1.4235637
1.4235637
1.4235637
1.4235637
1.4235637
1.4235637
1.4235637
1.4235637
1.4235637
1.4235637
1.4235637
1.4235637
1.4235637
1.4235637
1.4235637
1.4235637
1.4235637
1.4235637
1.4235637
1.4235637
1.4235637
1.4235637
1.4235637
1.4235637
1.4235637
1.4235637
1.4235637
1.4235637
1.4235637
1.4235637
1.4235637
1.4235637
1.4235637
1.4235637
1.4235637
1.4235637
1.4235637
1.4235637
1.4235637
1.4235637
1.4235637
1.4235637
1.4235637
1.4235637
1.4235637
1.4235637
1.4235637
1.4235637
1.4235637
1.4235637
1.4235637
1.4235637
1.4235637
1.4235637
1.4235637
1.4235637
1.4235637
1.4235637
1.4235637
1.4235637
1.4235637
1.4235637
1.4235637
1.4235637
1.4235637
1.4235637
1.4235637
1.4235637
1.4235637
1.4235637
1.4235637
1.4235637
1.4235637
1.4235637
1.4235637
1.4235637
1.4235637
1.4235637
1.4235637
1.4235637
1.4235637
1.4235637
1.4235637
1.4235637
1.4235637
1.4235637
1.4235637
1.4235637
1.4235637
1.4235637
1.4235637
1.4235637
1.4235637
1.4235637
1.4235637
1.4235637
1.4235637
1.4235637
1.4235637
1.4235637
1.4235637
1.4235637
1.4235637
1.4235637
1.4235637
1.4235637
1.4235637
1.4235637
1.4235637
1.4235637
1.4235637
1.4235637
1.4235637
1.4235637
1.4235637
1.4235637
1.4235637
1.4235637
1.4235637
1.4235637
1.4235637
1.4235637
1.4235637
1.4235637
1.4235637
1.4235637
1.4235637
1.4235637
1.4235637
1.4235637
1.4235637
1.4235637
1.4235637
1.4235637
1.4235637
1.4235637
1.4235637
1.4235637
1.4235637
1.4235637
1.4235637
1.4235637
1.4235637
1.4235637
1.4235637
1.4235637
1.4235637
1.4235637
1.4235637
1.4235637
1.4235637
1.4235637
1.4235637
1.4235637
1.4235637
1.4235637
1.4235637
1.4235637
1.4235637
1.4235637
1.4235637
1.4235637
1.4235637
1.4235637
1.4235637
1.4235637
1.4235637
1.4235637
1.4235637
1.4235637
1.4235637
1.4235637
1.4235637
1.4235637
1.4235637
1.4235637
1.4235637
1.4235637
1.4235637
1.4235637
1.4235637
1.4235637
1.4235637
1.4235637
1.4235637
1.4235637
1.4235637
1.4235637
1.4235637
1.4235637
1.4235637
1.4235637
1.4235637
1.4235637
1.4235637
1.4235637
1.4235637
1.4235637
1.4235637
1.4235637
1.4235637
1.4235637
1.4235637
1.4235637
1.4235637
1.4235637
1.4235637
1.4235637
1.4235637
1.4235637
1.4235637
1.4235637
1.4235637
1.4235637
1.4235637
1.4235637
1.4235637
1.4235637
1.4235637
1.4235637
1.4235637
1.4235637
1.4235637
1.4235637
1.4235637
1.4235637
1.4235637
1.4235637
1.4235637
1.4235637
1.4235637
1.4235637
1.4235637
1.4235637
1.4235637
1.4235637
1.4235637
1.4235637
1.4235637
1.4235637
1.4235637
1.4235637
1.4235637
1.4235637
1.4235637
1.4235637
1.4235637
1.4235637
1.4235637
1.4235637
1.4235637
1.4235637
1.4235637
1.4235637
1.4235637
1.4235637
1.4235637
1.4235637
1.4235637
1.4235637
1.4235637
1.4235637
1.4235637
1.4235637
1.4235637
1.4235637
1.4235637
1.4235637
1.4235637
1.4235637
1.4235637
1.4235637
1.4235637
1.4235637
1.4235637
1.4235637
1.4235637
1.4235637
1.4235637
1.4235637
1.4235637
1.4235637
1.4235637
1.4235637
1.4235637
1.4235637
1.4235637
1.4235637
1.4235637
1.4235637
1.4235637
1.4235637
1.4235637
1.4235637
1.4235637
1.4235637
1.4235637
1.4235637
1.4235637
1.4235637
1.4235637
1.4235637
1.4235637
1.4235637
1.4235637
1.4235637
1.4235637
1.4235637
1.4235637
1.4235637
1.4235637
1.4235637
1.4235637
1.4235637
1.4235637
1.4235637
1.4235637
1.4235637
1.4235637
1.4235637
1.4235637
1.4235637
1.4235637
1.4235637
1.4235637
1.4235637
1.4235637
1.4235637
1.4235637
1.4235637
1.4235637
1.4235637
1.4235637
1.4235637
1.4235637
1.4235637
1.4235637
1.4235637
1.4235637
1.4235637
1.4235637
1.4235637
1.4235637
1.4235637
1.4235637
1.4235637
1.4235637
1.4235637
1.4235637
1.4235637
1.4235637
1.4235637
1.4235637
1.4235637
1.4235637
1.4235637
1.4235637
1.4235637
1.4235637
1.4235637
1.4235637
1.4235637
1.4235637
1.4235637
1.4235637
1.4235637
1.4235637
1.4235637
1.4235637
1.4235637
1.4235637
1.4235637
1.4235637
1.4235637
1.4235637
1.4235637
1.4235637
1.4235637
1.4235637
1.4235637
1.4235637
1.4235637
1.4235637
1.4235637
1.4235637
1.4235637
1.4235637
1.4235637
1.4235637
1.4235637
1.4235637
1.4235637
1.4235637
1.4235637
1.4235637
1.4235637
1.4235637
1.4235637
1.4235637
1.4235637
1.4235637
1.4235637
1.4235637
1.4235637
1.4235637
1.4235637
1.4235637
1.4235637
1.4235637
1.4235637
1.4235637
1.4235637
1.4235637
1.4235637
1.4235637
1.4235637
1.4235637
1.4235637
1.4235637
1.4235637
1.4235637
1.4235637
1.4235637
1.4235637
1.4235637
1.4235637
1.4235637
1.4235637
1.4235637
1.4235637
1.4235637
1.4235637
1.4235637
1.4235637
1.4235637
1.4235637
1.4235637
1.4235637
1.4235637
1.4235637
1.4235637
1.4235637
1.4235637
1.4235637
1.4235637
1.4235637
1.4235637
1.4235637
1.4235637
1.4235637
1.4235637
1.4235637
1.4235637
1.4235637
1.4235637
1.4235637
1.4235637
1.4235637
1.4235637
1.4235637
1.4235637
1.4235637
1.4235637
1.4235637
1.4235637
1.4235637
1.4235637
1.4235637
1.4235637
1.4235637
1.4235637
1.4235637
1.4235637
1.4235637
1.4235637
1.4235637
1.4235637
1.4235637
1.4235637
1.4235637
1.4235637
1.4235637
1.4235637
1.4235637
1.4235637
1.4235637
1.4235637
1.4235637
1.4235637
1.4235637
1.4235637
1.4235637
1.4235637
1.4235637
1.4235637
1.4235637
1.4235637
1.4235637
1.4235637
1.4235637
1.4235637
1.4235637
1.4235637
1.4235637
1.4235637
1.4235637
1.4235637
1.4235637
1.4235637
1.4235637
1.4235637
1.4235637
1.4235637
1.4235637
1.4235637
1.4235637
1.4235637
1.4235637
1.4235637
1.4235637
1.4235637
1.4235637
1.4235637
1.4235637
1.4235637
1.4235637
1.4235637
1.4235637
1.4235637
1.4235637
1.4235637
1.4235637
1.4235637
1.4235637
1.4235637
1.4235637
1.4235637
1.4235637
1.4235637
1.4235637
1.4235637
1.4235637
1.4235637
1.4235637
1.4235637
1.4235637
1.4235637
1.4235637
1.4235637
1.4235637
1.4235637
1.4235637
1.4235637
1.4235637
1.4235637
1.4235637
1.4235637
1.4235637
1.4235637
1.4235637
1.4235637
1.4235637
1.4235637
1.4235637
1.4235637
1.4235637
1.4235637
1.4235637
1.4235637
1.4235637
1.4235637
1.4235637
1.4235637
1.4235637
1.4235637
1.4235637
1.4235637
1.4235637
1.4235637
1.4235637
1.4235637
1.4235637
1.4235637
1.4235637
1.4235637
1.4235637
1.4235637
1.4235637
1.4235637
1.4235637
1.4235637
1.4235637
1.4235637
1.4235637
1.4235637
1.4235637
1.4235637
1.4235637
1.4235637
1.4235637
1.4235637
1.4235637
1.4235637
1.4235637
1.4235637
1.4235637
1.4235637
1.4235637
1.4235637
1.4235637
1.4235637
1.4235637
1.4235637
1.4235637
1.4235637
1.4235637
1.4235637
1.4235637
1.4235637
1.4235637
1.4235637
1.4235637
1.4235637
1.4235637
1.4235637
1.4235637
1.4235637
1.4235637
1.4235637
1.4235637
1.4235637
1.4235637
1.4235637
1.4235637
1.4235637
1.4235637
1.4235637
1.4235637
1.4235637
1.4235637
1.4235637
1.4235637
1.4235637
1.4235637
1.4235637
1.4235637
1.4235637
1.4235637
1.4235637
1.4235637
1.4235637
1.4235637
1.4235637
1.4235637
1.4235637
1.4235637
1.4235637
1.4235637
1.4235637
1.4235637
1.4235637
1.4235637
1.4235637
1.4235637
1.4235637
1.4235637
1.4235637
1.4235637
1.4235637
1.4235637
1.4235637
1.4235637
1.4235637
1.4235637
1.4235637
1.4235637
1.4235637
1.4235637
1.4235637
1.4235637
1.4235637
1.4235637
1.4235637
1.4235637
1.4235637
1.4235637
1.4235637
1.4235637
1.4235637
1.4235637
1.4235637
1.4235637
1.4235637
1.4235637
1.4235637
1.4235637
1.4235637
1.4235637
1.4235637
1.4235637
1.4235637
1.4235637
1.4235637
1.4235637
1.4235637
1.4235637
1.4235637
1.4235637
1.4235637
1.4235637
1.4235637
1.4235637
1.4235637
1.4235637
1.4235637
1.4235637
1.4235637
1.4235637
1.4235637
1.4235637
1.4235637
1.4235637
1.4235637
1.4235637
1.4235637
1.4235637
1.4235637
1.4235637
1.4235637
1.4235637
1.4235637
1.4235637
1.4235637
1.4235637
1.4235637
1.4235637
1.4235637
1.4235637
1.4235637
1.4235637
1.4235637
1.4235637
1.4235637
1.4235637
1.4235637
1.4235637
1.4235637
1.4235637
1.4235637
1.4235637
1.4235637
1.4235637
1.4235637
1.4235637
1.4235637
1.4235637
1.4235637
1.4235637
1.4235637
1.4235637
1.4235637
1.4235637
1.4235637
1.4235637
1.4235637
1.4235637
1.4235637
1.4235637
1.4235637
1.4235637
1.4235637
1.4235637
1.4235637
1.4235637
1.4235637
1.4235637
1.4235637
1.4235637
1.4235637
1.4235637
1.4235637
1.4235637
1.4235637
1.4235637
1.4235637
1.4235637
1.4235637
1.4235637
1.4235637
1.4235637
1.4235637
1.4235637
1.4235637
1.4235637
1.4235637
1.4235637
1.4235637
1.4235637
1.4235637
1.4235637
1.4235637
1.4235637
1.4235637
1.4235637
1.4235637
1.4235637
1.4235637
1.4235637
1.4235637
1.4235637
1.4235637
1.4235637
1.4235637
1.4235637
1.4235637
1.4235637
1.4235637
1.4235637
1.4235637
1.4235637
1.4235637
1.4235637
1.4235637
1.4235637
1.4235637
1.4235637
1.4235637
1.4235637
1.4235637
1.4235637
1.4235637
1.4235637
1.4235637
1.4235637
1.4235637
1.4235637
1.4235637
1.4235637
1.4235637
1.4235637
1.4235637
1.4235637
1.4235637
1.4235637
1.4235637
1.4235637
1.4235637
1.4235637
1.4235637
1.4235637
1.4235637
1.4235637
1.4235637
1.4235637
1.4235637
1.4235637
1.4235637
1.4235637
1.4235637
1.4235637
1.4235637
1.4235637
1.4235637
1.4235637
1.4235637
1.4235637
1.4235637
1.4235637
1.4235637
1.4235637
1.4235637
1.4235637
1.4235637
1.4235637
1.4235637
1.4235637
1.4235637
1.4235637
1.4235637
1.4235637
1.4235637
1.4235637
1.4235637
1.4235637
1.4235637
1.4235637
1.4235637
1.4235637
1.4235637
1.4235637
1.4235637
1.4235637
1.4235637
1.4235637
1.4235637
1.4235637
1.4235637
1.4235637
1.4235637
1.4235637
1.4235637
1.4235637
1.4235637
1.4235637
1.4235637
1.4235637
1.4235637
1.4235637
1.4235637
1.4235637
1.4235637
1.4235637
1.4235637
1.4235637
1.4235637
1.4235637
1.4235637
1.4235637
1.4235637
1.4235637
1.4235637
1.4235637
1.4235637
1.4235637
1.4235637
1.4235637
1.4235637
1.4235637
1.4235637
1.4235637
1.4235637
1.4235637
1.4235637
1.4235637
1.4235637
1.4235637
1.4235637
1.4235637
1.4235637
1.4235637
1.4235637
1.4235637
1.4235637
1.4235637
1.4235637
1.4235637
1.4235637
1.4235637
1.4235637
1.4235637
1.4235637
1.4235637
1.4235637
1.4235637
1.4235637
1.4235637
1.4235637
1.4235637
1.4235637
1.4235637
1.4235637
1.4235637
1.4235637
1.4235637
1.4235637
1.4235637
1.4235637
1.4235637
1.4235637
1.4235637
1.4235637
1.4235637
1.4235637
1.4235637
1.4235637
1.4235637
1.4235637
1.4235637
1.4235637
1.4235637
1.4235637
1.4235637
1.4235637
1.4235637
1.4235637
1.4235637
1.4235637
1.4235637
1.4235637
1.4235637
1.4235637
1.4235637
1.4235637
1.4235637
1.4235637
1.4235637
1.4235637
1.4235637
1.4235637
1.4235637
1.4235637
1.4235637
1.4235637
1.4235637
1.4235637
1.4235637
1.4235637
1.4235637
1.4235637
1.4235637
1.4235637
1.4235637
1.4235637
1.4235637
1.4235637
1.4235637
1.4235637
1.4235637
1.4235637
1.4235637
1.4235637
1.4235637
1.4235637
1.4235637
1.4235637
1.4235637
1.4235637
1.4235637
1.4235637
1.4235637
1.4235637
1.4235637
1.4235637
1.4235637
1.4235637
1.4235637
1.4235637
1.4235637
1.4235637
1.4235637
1.4235637
1.4235637
1.4235637
1.4235637
1.4235637
1.4235637
1.4235637
1.4235637
1.4235637
1.4235637
1.4235637
1.4235637
1.4235637
1.4235637
1.4235637
1.4235637
1.4235637
1.4235637
1.4235637
1.4235637
1.4235637
1.4235637
1.4235637
1.4235637
1.4235637
1.4235637
1.4235637
1.4235637
1.4235637
1.4235637
1.4235637
1.4235637
1.4235637
1.4235637
1.4235637
1.4235637
1.4235637
1.4235637
1.4235637
1.4235637
1.4235637
1.4235637
1.4235637
1.4235637
1.4235637
1.4235637
1.4235637
1.4235637
1.4235637
1.4235637
1.4235637
1.4235637
1.4235637
1.4235637
1.4235637
1.4235637
1.4235637
1.4235637
1.4235637
1.4235637
1.4235637
1.4235637
1.4235637
1.4235637
1.4235637
1.4235637
1.4235637
1.4235637
1.4235637
1.4235637
1.4235637
1.4235637
1.4235637
1.4235637
1.4235637
1.4235637
1.4235637
1.4235637
1.4235637
1.4235637
1.4235637
1.4235637
1.4235637
1.4235637
1.4235637
1.4235637
1.4235637
1.4235637
1.4235637
1.4235637
1.4235637
1.4235637
1.4235637
1.4235637
1.4235637
1.4235637
1.4235637
1.4235637
1.4235637
1.4235637
1.4235637
1.4235637
1.4235637
1.4235637
1.4235637
1.4235637
1.4235637
1.4235637
1.4235637
1.4235637
1.4235637
1.4235637
1.4235637
1.4235637
1.4235637
1.4235637
1.4235637
1.4235637
1.4235637
1.4235637
1.4235637
1.4235637
1.4235637
1.4235637
1.4235637
1.4235637
1.4235637
1.4235637
1.4235637
1.4235637
1.4235637
1.4235637
1.4235637
1.4235637
1.4235637
1.4235637
1.4235637
1.4235637
1.4235637
1.4235637
1.4235637
1.4235637
1.4235637
1.4235637
1.4235637
1.4235637
1.4235637
1.4235637
1.4235637
1.4235637
1.4235637
1.4235637
1.4235637
1.4235637
1.4235637
1.4235637
1.4235637
1.4235637
1.4235637
1.4235637
1.4235637
1.4235637
1.4235637
1.4235637
1.4235637
1.4235637
1.4235637
1.4235637
1.4235637
1.4235637
1.4235637
1.4235637
1.4235637
1.4235637
1.4235637
1.4235637
1.4235637
1.4235637
1.4235637
1.4235637
1.4235637
1.4235637
1.4235637
1.4235637
1.4235637
1.4235637
1.4235637
1.4235637
1.4235637
1.4235637
1.4235637
1.4235637
1.4235637
1.4235637
1.4235637
1.4235637
1.4235637
1.4235637
1.4235637
1.4235637
1.4235637
1.4235637
1.4235637
1.4235637
1.4235637
1.4235637
1.4235637
1.4235637
1.4235637
1.4235637
1.4235637
1.4235637
1.4235637
1.4235637
1.4235637
1.4235637
1.4235637
1.4235637
1.4235637
1.4235637
1.4235637
1.4235637
1.4235637
1.4235637
1.4235637
1.4235637
1.4235637
1.4235637
1.4235637
1.4235637
1.4235637
1.4235637
1.4235637
1.4235637
1.4235637
1.4235637
1.4235637
1.4235637
1.4235637
1.4235637
1.4235637
1.4235637
1.4235637
1.4235637
1.4235637
1.4235637
1.4235637
1.4235637
1.4235637
1.4235637
1.4235637
1.4235637
1.4235637
1.4235637
1.4235637
1.4235637
1.4235637
1.4235637
1.4235637
1.4235637
1.4235637
1.4235637
1.4235637
1.4235637
1.4235637
1.4235637
1.4235637
1.4235637
1.4235637
1.4235637
1.4235637
1.4235637
1.4235637
1.4235637
1.4235637
1.4235637
1.4235637
1.4235637
1.4235637
1.4235637
1.4235637
1.4235637
1.4235637
1.4235637
1.4235637
1.4235637
1.4235637
1.4235637
1.4235637
1.4235637
1.4235637
1.4235637
1.4235637
1.4235636
1.4235636
1.4235636
1.4235636
1.4235636
1.4235636
1.4235636
1.4235636
1.4235636
1.4235636
1.4235636
1.4235636
1.4235636
1.4235636
1.4235636
1.4235636
1.4235636
1.4235636
1.4235636
1.4235636
1.4235636
1.4235636
1.4235636
1.4235635
1.4235635
1.4235635
1.4235635
1.4235635
1.4235635
1.4235635
1.4235634
1.4235634
1.4235634
1.4235634
1.4235634
1.4235633
1.4235633
1.4235633
1.4235632
1.4235632
1.4235631
1.4235631
1.4235631
1.423563
1.4235629
1.4235629
1.4235628
1.4235627
1.4235627
1.4235626
1.4235625
1.4235624
1.4235623
1.4235622
1.423562
1.4235619
1.4235618
1.4235616
1.4235614
1.4235613
1.4235611
1.4235608
1.4235606
1.4235604
1.4235601
1.4235598
1.4235595
1.4235592
1.4235588
1.4235585
1.4235581
1.4235576
1.4235572
1.4235567
1.4235561
1.4235556
1.423555
1.4235543
1.4235536
1.4235528
1.423552
1.4235512
1.4235502
1.4235493
1.4235482
1.4235471
1.4235459
1.4235446
1.4235432
1.4235418
1.4235402
1.4235385
1.4235368
1.4235349
1.4235329
1.4235307
1.4235285
1.423526
1.4235235
1.4235207
1.4235178
1.4235147
1.4235114
1.423508
1.4235043
1.4235003
1.4234962
1.4234918
1.4234871
1.4234821
1.4234769
1.4234713
1.4234655
1.4234593
1.4234527
1.4234457
1.4234384
1.4234306
1.4234225
1.4234138
1.4234047
1.4233951
1.4233849
1.4233742
1.423363
1.4233511
1.4233386
1.4233255
1.4233116
1.4232971
1.4232818
1.4232657
1.4232488
1.4232311
1.4232125
1.4231929
1.4231724
1.4231509
1.4231284
1.4231048
1.4230801
1.4230542
1.4230271
1.4229987
1.4229691
1.4229381
1.4229057
1.4228718
1.4228365
1.4227996
1.4227611
1.4227209
1.4226791
1.4226354
1.4225899
1.4225426
1.4224932
1.4224419
1.4223885
1.422333
1.4222752
1.4222152
1.4221529
1.4220882
1.422021
1.4219513
1.421879
1.421804
1.4217263
1.4216458
1.4215624
1.421476
1.4213867
1.4212942
1.4211986
1.4210998
1.4209976
1.4208921
1.4207831
1.4206707
1.4205546
1.4204348
1.4203114
1.4201841
1.420053
1.4199179
1.4197788
1.4196357
1.4194883
1.4193368
1.419181
1.4190209
1.4188564
1.4186874
1.4185138
1.4183357
1.4181529
1.4179655
1.4177733
1.4175762
1.4173743
1.4171675
1.4169557
1.416739
1.4165171
1.4162902
1.4160581
1.4158209
1.4155784
1.4153307
1.4150777
1.4148193
1.4145557
1.4142866
1.4140122
1.4137323
1.4134471
1.4131563
1.4128601
1.4125584
1.4122513
1.4119386
1.4116204
1.4112968
1.4109676
1.410633
1.4102928
1.4099472
1.4095961
1.4092395
1.4088775
1.40851
1.4081372
1.407759
1.4073754
1.4069865
1.4065922
1.4061928
1.4057881
1.4053782
1.4049631
1.404543
1.4041177
1.4036875
1.4032523
1.4028122
1.4023672
1.4019174
1.4014629
1.4010037
1.4005399
1.4000715
1.3995986
1.3991213
1.3986396
1.3981537
1.3976635
1.3971692
1.3966709
1.3961686
1.3956624
1.3951524
1.3946387
1.3941213
1.3936004
1.393076
1.3925483
1.3920173
1.3914831
1.3909459
1.3904056
1.3898625
1.3893165
1.3887679
1.3882167
1.387663
1.3871069
1.3865486
1.3859881
1.3854255
1.384861
1.3842947
1.3837266
1.3831569
1.3825858
1.3820132
1.3814393
1.3808643
1.3802883
1.3797113
1.3791336
1.3785551
1.3779761
1.3773967
1.3768169
1.3762369
1.3756568
1.3750768
1.3744969
1.3739173
1.3733382
1.3727595
1.3721816
1.3716044
1.3710281
1.3704529
1.3698788
1.3693061
1.3687347
1.3681649
1.3675967
1.3670304
1.366466
1.3659036
1.3653434
1.3647854
1.3642299
1.363677
1.3631267
1.3625792
1.3620347
1.3614932
1.3609548
1.3604197
1.3598881
1.3593599
1.3588354
1.3583147
1.3577979
1.357285
1.3567762
1.3562717
1.3557715
1.3552758
1.3547845
1.354298
1.3538162
1.3533392
1.3528673
1.3524003
1.3519386
1.3514821
1.3510309
1.3505851
1.3501449
1.3497103
1.3492813
1.3488581
1.3484407
1.3480292
1.3476237
1.3472242
1.3468309
1.3464436
1.3460626
1.3456878
1.3453193
1.3449572
1.3446014
1.3442521
1.3439092
1.3435728
1.3432428
1.3429194
1.3426025
1.3422922
1.3419883
1.3416911
1.3414003
1.3411161
1.3408384
1.3405672
1.3403025
1.3400443
1.3397924
1.339547
1.3393079
1.3390751
1.3388486
1.3386282
1.3384141
1.338206
1.338004
1.3378079
1.3376177
1.3374334
1.3372548
1.3370819
1.3369145
1.3367527
1.3365963
1.3364452
1.3362993
1.3361586
1.3360229
1.3358921
1.3357662
1.335645
1.3355285
1.3354164
1.3353088
1.3352055
1.3351064
1.3350113
1.3349203
1.3348331
1.3347497
1.33467
1.3345938
1.334521
1.3344516
1.3343854
1.3343223
1.3342622
1.334205
1.3341507
1.334099
1.3340499
1.3340034
1.3339592
1.3339174
1.3338778
1.3338403
1.3338048
1.3337713
1.3337397
1.3337099
1.3336817
1.3336552
1.3336303
1.3336068
1.3335848
1.333564
1.3335446
1.3335263
1.3335092
1.3334932
1.3334782
1.3334642
1.3334511
1.3334389
1.3334275
1.3334169
1.333407
1.3333977
1.3333892
1.3333812
1.3333738
1.3333669
1.3333606
1.3333547
1.3333492
1.3333441
1.3333395
1.3333352
1.3333312
1.3333275
1.3333241
1.333321
1.3333182
1.3333155
1.3333131
1.3333109
1.3333089
1.333307
1.3333053
1.3333037
1.3333023
1.333301
1.3332998
1.3332987
1.3332978
1.3332969
1.333296
1.3332953
1.3332946
1.333294
1.3332935
1.333293
1.3332925
1.3332921
1.3332918
1.3332914
1.3332911
1.3332909
1.3332906
1.3332904
1.3332902
1.3332901
1.3332899
1.3332898
1.3332896
1.3332895
1.3332894
1.3332893
1.3332892
1.3332891
1.3332889
1.3332887
1.3332886
1.3332885
1.3332883
1.3332881
1.333288
1.3332878
1.3332877
1.3332875
1.3332873
1.3332872
1.3332871
1.3332869
1.3332867
1.3332866
1.3332865
1.3332864
1.3332863
1.3332861
1.3332861
1.333286
1.3332858
1.3332857
1.3332856
1.3332856
1.3332855
1.3332853
1.3332852
1.3332852
1.333285
1.3332849
1.3332848
1.3332847
1.3332846
1.3332844
1.3332843
1.3332842
1.3332841
1.3332839
1.3332838
1.3332837
1.3332836
1.3332835
1.3332834
1.3332833
1.3332832
1.3332831
1.333283
1.3332829
1.3332828
1.3332827
1.3332826
1.3332825
1.3332825
1.3332824
1.3332822
1.3332821
1.3332821
1.333282
1.3332819
1.3332818
1.3332817
1.3332816
1.3332816
1.3332815
1.3332814
1.3332813
1.3332812
1.3332811
1.333281
1.333281
1.3332809
1.3332809
1.3332808
1.3332807
1.3332806
1.3332805
1.3332804
1.3332803
1.3332802
1.33328
1.3332799
1.3332798
1.3332797
1.3332796
1.3332795
1.3332794
1.3332793
1.3332793
1.3332793
1.3332792
1.3332791
1.3332791
1.3332791
1.333279
1.333279
1.3332789
1.3332788
1.3332788
1.3332787
1.3332786
1.3332786
1.3332785
1.3332784
1.3332784
1.3332783
1.3332782
1.3332781
1.3332781
1.333278
1.333278
1.3332779
1.3332779
1.3332778
1.3332778
1.3332777
1.3332777
1.3332776
1.3332776
1.3332775
1.3332774
1.3332774
1.3332773
1.3332772
1.3332771
1.3332771
1.333277
1.333277
1.3332769
1.3332769
1.3332769
1.3332768
1.3332768
1.3332767
1.3332767
1.3332767
1.3332766
1.3332766
1.3332766
1.3332765
1.3332765
1.3332764
1.3332764
1.3332763
1.3332763
1.3332762
1.3332761
1.3332761
1.333276
1.333276
1.3332759
1.3332759
1.3332758
1.3332758
1.3332757
1.3332757
1.3332756
1.3332755
1.3332755
1.3332754
1.3332753
1.3332753
1.3332752
1.3332752
1.3332752
1.3332751
1.3332751
1.3332751
1.333275
1.333275
1.333275
1.333275
1.333275
1.3332749
1.3332749
1.3332749
1.3332749
1.3332749
1.3332749
1.3332749
1.3332749
1.3332749
1.3332749
1.3332748
1.3332748
1.3332748
1.3332748
1.3332748
1.3332747
1.3332747
1.3332747
1.3332746
1.3332746
1.3332746
1.3332746
1.3332746
1.3332745
1.3332745
1.3332745
1.3332745
1.3332745
1.3332744
1.3332744
1.3332744
1.3332743
1.3332743
1.3332742
1.3332742
1.3332742
1.3332742
1.3332742
1.3332742
1.3332741
1.3332741
1.333274
1.333274
1.333274
1.3332739
1.3332739
1.3332739
1.3332739
1.3332738
1.3332738
1.3332738
1.3332737
1.3332737
1.3332737
1.3332737
1.3332737
1.3332736
1.3332736
1.3332736
1.3332736
1.3332736
1.3332735
1.3332735
1.3332735
1.3332734
1.3332734
1.3332734
1.3332734
1.3332733
1.3332733
1.3332733
1.3332732
1.3332732
1.3332732
1.3332732
1.3332731
1.3332731
1.3332731
1.3332731
1.333273
1.333273
1.333273
1.3332729
1.3332729
1.3332729
1.3332728
1.3332728
1.3332728
1.3332728
1.3332728
1.3332728
1.3332727
1.3332727
1.3332727
1.3332726
1.3332726
1.3332726
1.3332725
1.3332725
1.3332725
1.3332724
1.3332724
1.3332724
1.3332723
1.3332723
1.3332723
1.3332723
1.3332722
1.3332722
1.3332721
1.3332721
1.3332721
1.3332721
1.333272
1.333272
1.333272
1.3332719
1.3332718
1.3332718
1.3332717
1.3332717
1.3332717
1.3332716
1.3332716
1.3332716
1.3332715
1.3332715
1.3332714
1.3332714
1.3332713
1.3332713
1.3332712
1.3332712
1.3332711
1.3332711
1.3332711
1.3332711
1.333271
1.333271
1.3332709
1.3332709
1.3332708
1.3332708
1.3332708
1.3332707
1.3332707
1.3332706
1.3332705
1.3332705
1.3332705
1.3332705
1.3332704
1.3332704
1.3332703
1.3332703
1.3332702
1.3332702
1.3332702
1.3332702
1.3332701
1.3332701
1.33327
1.3332699
1.3332699
1.3332698
1.3332698
1.3332697
1.3332697
1.3332697
1.3332696
1.3332696
1.3332696
1.3332695
1.3332694
1.3332694
1.3332693
1.3332693
1.3332692
1.3332692
1.3332691
1.3332691
1.333269
1.333269
1.3332689
1.3332689
1.3332688
1.3332687
1.3332687
1.3332686
1.3332685
1.3332685
1.3332684
1.3332684
1.3332683
1.3332683
1.3332682
1.3332682
1.3332681
1.333268
1.333268
1.3332679
1.3332679
1.3332678
1.3332677
1.3332677
1.3332676
1.3332675
1.3332674
1.3332674
1.3332673
1.3332672
1.3332672
1.3332671
1.333267
1.333267
1.3332669
1.3332668
1.3332667
1.3332667
1.3332666
1.3332665
1.3332664
1.3332664
1.3332663
1.3332662
1.3332661
1.3332661
1.333266
1.333266
1.3332659
1.3332658
1.3332658
1.3332657
1.3332656
1.3332655
1.3332655
1.3332654
1.3332653
1.3332652
1.3332651
1.3332651
1.333265
1.3332649
1.3332648
1.3332647
1.3332647
1.3332646
1.3332645
1.3332645
1.3332644
1.3332644
1.3332643
1.3332642
1.3332641
1.333264
1.333264
1.3332639
1.3332638
1.3332637
1.3332636
1.3332636
1.3332635
1.3332634
1.3332633
1.3332632
1.3332631
1.333263
1.3332629
1.3332629
1.3332628
1.3332627
1.3332627
1.3332626
1.3332625
1.3332623
1.3332622
1.3332622
1.3332621
1.333262
1.3332619
1.3332618
1.3332617
1.3332616
1.3332615
1.3332614
1.3332613
1.3332612
1.3332611
1.333261
1.3332609
1.3332608
1.3332607
1.3332606
1.3332605
1.3332604
1.3332603
1.3332602
1.3332601
1.33326
1.3332599
1.3332597
1.3332596
1.3332595
1.3332594
1.3332593
1.3332592
1.3332591
1.333259
1.3332589
1.3332588
1.3332587
1.3332585
1.3332584
1.3332583
1.3332581
1.333258
1.3332578
1.3332577
1.3332576
1.3332575
1.3332574
1.3332573
1.3332572
1.3332571
1.333257
1.3332568
1.3332567
1.3332566
1.3332564
1.3332562
1.3332561
1.3332559
1.3332558
1.3332557
1.3332555
1.3332554
1.3332553
1.3332551
1.333255
1.3332548
1.3332546
1.3332544
1.3332543
1.3332541
1.333254
1.3332539
1.3332538
1.3332536
1.3332535
1.3332534
1.3332532
1.333253
1.3332529
1.3332527
1.3332526
1.3332524
1.3332522
1.333252
1.3332518
1.3332517
1.3332515
1.3332513
1.3332512
1.333251
1.3332508
1.3332506
1.3332504
1.3332502
1.33325
1.3332498
1.3332497
1.3332495
1.3332493
1.3332491
1.3332489
1.3332487
1.3332485
1.3332482
1.333248
1.3332478
1.3332476
1.3332475
1.3332472
1.333247
1.3332468
1.3332466
1.3332464
1.3332462
1.333246
1.3332458
1.3332455
1.3332453
1.333245
1.3332448
1.3332445
1.3332443
1.3332441
1.3332438
1.3332436
1.3332433
1.3332431
1.3332428
1.3332425
1.3332423
1.3332421
1.3332418
1.3332416
1.3332413
1.333241
1.3332407
1.3332404
1.3332401
1.3332398
1.3332395
1.3332392
1.3332389
1.3332386
1.3332382
1.3332379
1.3332376
1.3332373
1.333237
1.3332366
1.3332363
1.333236
1.3332357
1.3332353
1.333235
1.3332346
1.3332342
1.3332338
1.3332334
1.333233
1.3332326
1.3332322
1.3332319
1.3332315
1.3332311
1.3332306
1.3332302
1.3332298
1.3332293
1.3332289
1.3332285
1.3332281
1.3332276
1.3332272
1.3332267
1.3332263
1.3332257
1.3332252
1.3332247
1.3332241
1.3332236
1.333223
1.3332225
1.333222
1.3332215
1.333221
1.3332204
1.3332199
1.3332194
1.3332189
1.3332183
1.3332178
1.3332172
1.3332167
1.3332162
1.3332156
1.333215
1.3332145
1.3332139
1.3332134
1.3332129
1.3332124
1.333212
1.3332116
1.3332113
1.333211
1.3332107
1.3332104
1.3332101
1.3332099
1.3332098
1.3332096
1.3332095
1.3332095
1.3332095
1.3332095
1.3332095
1.3332097
1.3332099
1.3332101
1.3332104
1.3332106
1.3332109
1.3332111
1.3332113
1.3332114
1.3332115
1.3332115
1.3332115
1.3332115
1.3332115
1.3332113
1.3332109
1.3332103
1.3332095
1.3332085
1.3332074
1.3332062
1.333205
1.3332036
1.3332023
1.333201
1.3331997
1.3331984
1.3331972
1.3331959
1.3331946
1.3331933
1.3331919
1.3331904
1.333189
1.3331878
1.3331867
1.3331858
1.3331852
1.3331847
1.3331845
1.3331843
1.3331842
1.3331842
1.333184
1.3331836
1.3331832
1.3331828
1.3331825
1.3331821
1.3331815
1.3331802
1.3331775
1.3331705
1.3331521
1.3331032
1.3329735
1.3326315
1.3317322
1.329412
1.3239286
1.3165879
1.3086892
1.3008221
1.2934733
1.2869704
1.2814805
1.2770361
1.2735725
1.2709665
1.2690693
1.2677305
1.266814
1.2662047
1.2658115
1.2655653
1.265416
1.2653288
1.2652803
1.2652552
1.2652438
1.26524
1.2652398
1.2652415
1.2652472
1.2652551
1.2652626
1.2652699
1.2652768
1.2652832
1.2652891
1.2652944
1.265299
1.265303
1.2653063
1.2653092
1.2653116
1.2653138
1.2653157
1.2653176
1.2653193
1.265321
1.2653227
1.2653244
1.265326
1.2653276
1.2653292
1.2653307
1.2653321
1.2653334
1.2653346
1.2653359
1.2653372
1.2653385
1.2653398
1.2653413
1.2653428
1.2653445
1.2653463
1.2653483
1.2653504
1.2653526
1.2653548
1.2653571
1.2653594
1.2653618
1.265364
1.2653663
1.2653685
1.2653707
1.2653727
1.2653747
1.2653766
1.2653784
1.2653802
1.2653817
1.2653832
1.2653846
1.2653859
1.2653871
1.2653882
1.2653893
1.2653903
1.2653913
1.2653923
1.2653932
1.2653941
1.2653949
1.2653957
1.2653964
1.2653971
1.2653978
1.2653985
1.2653992
1.2653999
1.2654005
1.2654011
1.2654017
1.2654023
1.2654029
1.2654035
1.265404
1.2654046
1.2654051
1.2654057
1.2654062
1.2654067
1.2654072
1.2654077
1.2654081
1.2654086
1.265409
1.2654095
1.2654099
1.2654103
1.2654108
1.2654112
1.2654117
1.2654121
1.2654125
1.265413
1.2654134
1.2654137
1.2654141
1.2654145
1.2654149
1.2654152
1.2654156
1.2654159
1.2654163
1.2654166
1.265417
1.2654173
1.2654177
1.265418
1.2654183
1.2654187
1.265419
1.2654193
1.2654196
1.2654199
1.2654202
1.2654205
1.2654208
1.2654211
1.2654214
1.2654217
1.265422
1.2654222
1.2654225
1.2654228
1.2654231
1.2654233
1.2654236
1.2654238
1.2654241
1.2654243
1.2654246
1.2654248
1.2654251
1.2654253
1.2654255
1.2654258
1.265426
1.2654262
1.2654265
1.2654267
1.2654269
1.2654272
1.2654274
1.2654276
1.2654278
1.265428
1.2654282
1.2654284
1.2654287
1.2654289
1.2654291
1.2654293
1.2654295
1.2654297
1.2654299
1.2654301
1.2654303
1.2654305
1.2654307
1.2654309
1.265431
1.2654312
1.2654314
1.2654316
1.2654317
1.2654319
1.2654321
1.2654323
1.2654324
1.2654326
1.2654328
1.2654329
1.2654331
1.2654333
1.2654334
1.2654336
1.2654338
1.2654339
1.2654341
1.2654343
1.2654344
1.2654346
1.2654347
1.2654349
1.265435
1.2654352
1.2654353
1.2654355
1.2654356
1.2654357
1.2654359
1.265436
1.2654361
1.2654363
1.2654364
1.2654366
1.2654367
1.2654369
1.265437
1.2654372
1.2654373
1.2654374
1.2654376
1.2654377
1.2654378
1.2654379
1.265438
1.2654381
1.2654383
1.2654384
1.2654385
1.2654387
1.2654388
1.2654389
1.265439
1.2654391
1.2654393
1.2654394
1.2654395
1.2654396
1.2654397
1.2654399
1.26544
1.2654401
1.2654402
1.2654403
1.2654404
1.2654405
1.2654406
1.2654407
1.2654408
1.2654409
1.265441
1.2654411
1.2654412
1.2654413
1.2654414
1.2654415
1.2654416
1.2654417
1.2654418
1.2654419
1.2654421
1.2654422
1.2654423
1.2654423
1.2654424
1.2654425
1.2654426
1.2654427
1.2654428
1.2654429
1.265443
1.2654431
1.2654432
1.2654432
1.2654433
1.2654434
1.2654435
1.2654436
1.2654437
1.2654437
1.2654438
1.2654439
1.265444
1.2654441
1.2654442
1.2654443
1.2654444
1.2654444
1.2654445
1.2654446
1.2654446
1.2654447
1.2654448
1.2654449
1.265445
1.2654451
1.2654451
1.2654452
1.2654453
1.2654454
1.2654454
1.2654455
1.2654456
1.2654456
1.2654457
1.2654458
1.2654459
1.265446
1.2654461
1.2654462
1.2654462
1.2654463
1.2654463
1.2654464
1.2654464
1.2654465
1.2654466
1.2654467
1.2654467
1.2654468
1.2654469
1.2654469
1.265447
1.2654471
1.2654472
1.2654472
1.2654473
1.2654474
1.2654474
1.2654475
1.2654476
1.2654476
1.2654477
1.2654477
1.2654478
1.2654479
1.2654479
1.265448
1.2654481
1.2654482
1.2654482
1.2654483
1.2654484
1.2654484
1.2654485
1.2654485
1.2654486
1.2654487
1.2654487
1.2654488
1.2654488
1.2654489
1.265449
1.265449
1.2654491
1.2654491
1.2654492
1.2654492
1.2654493
1.2654494
1.2654495
1.2654495
1.2654496
1.2654496
1.2654497
1.2654497
1.2654497
1.2654498
1.2654498
1.2654499
1.2654499
1.26545
1.2654501
1.2654501
1.2654502
1.2654503
1.2654503
1.2654504
1.2654504
1.2654505
1.2654505
1.2654506
1.2654506