/*--------------------------------*- C++ -*----------------------------------*\
  =========                 |
  \\      /  F ield         | OpenFOAM: The Open Source CFD Toolbox
   \\    /   O peration     | Website:  https://openfoam.org
    \\  /    A nd           | Version:  7
     \\/     M anipulation  |
\*---------------------------------------------------------------------------*/
FoamFile
{
    version     2.0;
    format      ascii;
    class       surfaceScalarField;
    location    "0.00282";
    object      phi;
}
// * * * * * * * * * * * * * * * * * * * * * * * * * * * * * * * * * * * * * //

dimensions      [1 0 -1 0 0 0 0];

internalField   nonuniform List<scalar> 
4999
(
-3.3345563
-3.3336809
-3.3328038
-3.3319254
-3.3310453
-3.3301638
-3.3292806
-3.3283961
-3.3275097
-3.3266219
-3.3257323
-3.3248412
-3.3239483
-3.3230538
-3.3221575
-3.3212596
-3.3203598
-3.3194583
-3.318555
-3.3176499
-3.3167428
-3.315834
-3.3149232
-3.3140106
-3.313096
-3.3121795
-3.311261
-3.3103405
-3.3094179
-3.3084934
-3.3075667
-3.306638
-3.3057072
-3.3047742
-3.3038391
-3.3029018
-3.3019623
-3.3010206
-3.3000767
-3.2991305
-3.2981819
-3.2972311
-3.296278
-3.2953224
-3.2943645
-3.2934043
-3.2924415
-3.2914764
-3.2905087
-3.2895386
-3.288566
-3.2875908
-3.2866131
-3.2856328
-3.2846499
-3.2836644
-3.2826762
-3.2816854
-3.2806919
-3.2796957
-3.2786968
-3.2776951
-3.2766907
-3.2756835
-3.2746735
-3.2736607
-3.272645
-3.2716265
-3.2706051
-3.2695808
-3.2685535
-3.2675234
-3.2664903
-3.2654543
-3.2644152
-3.2633732
-3.2623281
-3.26128
-3.2602289
-3.2591747
-3.2581174
-3.2570571
-3.2559936
-3.254927
-3.2538572
-3.2527844
-3.2517083
-3.2506291
-3.2495467
-3.2484611
-3.2473723
-3.2462802
-3.2451849
-3.2440864
-3.2429847
-3.2418796
-3.2407713
-3.2396597
-3.2385448
-3.2374267
-3.2363052
-3.2351804
-3.2340522
-3.2329208
-3.2317858
-3.2306478
-3.229506
-3.2283614
-3.227213
-3.2260616
-3.2249065
-3.2237485
-3.2225866
-3.2214218
-3.2202532
-3.2190817
-3.2179063
-3.216728
-3.2155459
-3.2143609
-3.213172
-3.2119802
-3.2107845
-3.209586
-3.2083836
-3.2071783
-3.2059692
-3.2047571
-3.2035413
-3.2023225
-3.2010999
-3.1998745
-3.1986452
-3.1974131
-3.1961771
-3.1949383
-3.1936957
-3.1924502
-3.191201
-3.189949
-3.1886932
-3.1874345
-3.1861721
-3.1849069
-3.1836381
-3.1823663
-3.181091
-3.1798128
-3.178531
-3.1772464
-3.1759581
-3.1746671
-3.1733725
-3.1720752
-3.1707743
-3.1694707
-3.1681635
-3.1668537
-3.1655403
-3.1642242
-3.1629047
-3.1615825
-3.1602569
-3.1589287
-3.157597
-3.1562628
-3.1549251
-3.1535849
-3.1522413
-3.1508952
-3.1495458
-3.1481939
-3.1468387
-3.145481
-3.1441201
-3.1427567
-3.1413902
-3.1400212
-3.138649
-3.1372745
-3.1358968
-3.1345168
-3.1331337
-3.1317482
-3.1303598
-3.128969
-3.1275752
-3.1261792
-3.1247802
-3.123379
-3.1219749
-3.1205686
-3.1191594
-3.1177481
-3.116334
-3.1149177
-3.1134986
-3.1120775
-3.1106536
-3.1092276
-3.107799
-3.1063684
-3.1049351
-3.1034998
-3.1020619
-3.1006221
-3.0991797
-3.0977354
-3.0962886
-3.0948399
-3.0933887
-3.0919357
-3.0904803
-3.0890231
-3.0875635
-3.0861021
-3.0846384
-3.083173
-3.0817053
-3.0802359
-3.0787642
-3.0772909
-3.0758154
-3.0743383
-3.072859
-3.0713781
-3.0698951
-3.0684106
-3.066924
-3.0654359
-3.0639457
-3.0624541
-3.0609605
-3.0594654
-3.0579685
-3.0564701
-3.0549698
-3.0534681
-3.0519646
-3.0504597
-3.0489531
-3.0474451
-3.0459353
-3.0444243
-3.0429116
-3.0413976
-3.0398819
-3.038365
-3.0368465
-3.0353268
-3.0338055
-3.032283
-3.030759
-3.0292339
-3.0277072
-3.0261795
-3.0246503
-3.02312
-3.0215882
-3.0200555
-3.0185213
-3.0169861
-3.0154496
-3.0139121
-3.0123732
-3.0108334
-3.0092924
-3.0077503
-3.0062071
-3.0046629
-3.0031176
-3.0015713
-3.0000239
-2.9984757
-2.9969263
-2.995376
-2.9938247
-2.9922725
-2.9907193
-2.9891653
-2.9876103
-2.9860545
-2.9844978
-2.9829402
-2.9813817
-2.9798225
-2.9782624
-2.9767015
-2.9751398
-2.9735774
-2.9720141
-2.9704501
-2.9688854
-2.9673199
-2.9657537
-2.9641868
-2.9626192
-2.961051
-2.959482
-2.9579124
-2.9563421
-2.9547712
-2.9531997
-2.9516275
-2.9500547
-2.9484814
-2.9469075
-2.945333
-2.9437579
-2.9421823
-2.9406061
-2.9390294
-2.9374521
-2.9358744
-2.9342961
-2.9327174
-2.9311382
-2.9295585
-2.9279782
-2.9263976
-2.9248165
-2.923235
-2.921653
-2.9200706
-2.9184877
-2.9169045
-2.9153209
-2.9137369
-2.9121524
-2.9105676
-2.9089824
-2.9073969
-2.905811
-2.9042248
-2.9026382
-2.9010513
-2.8994641
-2.8978765
-2.8962886
-2.8947005
-2.893112
-2.8915233
-2.8899342
-2.888345
-2.8867554
-2.8851656
-2.8835754
-2.8819851
-2.8803945
-2.8788036
-2.8772125
-2.8756212
-2.8740296
-2.8724377
-2.8708456
-2.8692533
-2.8676607
-2.8660679
-2.8644748
-2.8628815
-2.8612879
-2.8596941
-2.8581001
-2.8565057
-2.8549111
-2.8533164
-2.8517213
-2.850126
-2.8485304
-2.8469348
-2.8453389
-2.8437424
-2.8421465
-2.8405492
-2.8389532
-2.8373554
-2.835759
-2.834161
-2.832564
-2.8309658
-2.8293683
-2.82777
-2.8261721
-2.8245736
-2.8229753
-2.8213766
-2.819778
-2.8181791
-2.8165802
-2.8149811
-2.813382
-2.8117827
-2.8101833
-2.8085838
-2.8069842
-2.8053846
-2.8037848
-2.8021849
-2.800585
-2.7989849
-2.7973848
-2.7957846
-2.7941843
-2.7925839
-2.7909835
-2.7893829
-2.7877823
-2.7861816
-2.7845809
-2.7829801
-2.7813791
-2.7797782
-2.7781771
-2.7765761
-2.7749749
-2.7733737
-2.7717723
-2.7701711
-2.7685696
-2.7669682
-2.7653666
-2.7637651
-2.7621634
-2.7605617
-2.7589599
-2.7573581
-2.7557562
-2.7541544
-2.7525524
-2.7509504
-2.7493483
-2.7477462
-2.746144
-2.7445418
-2.7429396
-2.7413373
-2.7397349
-2.7381325
-2.7365301
-2.7349276
-2.7333251
-2.7317225
-2.7301199
-2.7285172
-2.7269145
-2.7253118
-2.723709
-2.7221062
-2.7205034
-2.7189005
-2.7172975
-2.7156946
-2.7140915
-2.7124885
-2.7108854
-2.7092823
-2.7076791
-2.7060759
-2.7044727
-2.7028694
-2.7012661
-2.6996627
-2.6980594
-2.6964559
-2.6948525
-2.693249
-2.6916455
-2.6900419
-2.6884383
-2.6868347
-2.685231
-2.6836273
-2.6820236
-2.6804199
-2.6788161
-2.6772123
-2.6756084
-2.6740045
-2.6724006
-2.6707967
-2.6691927
-2.6675887
-2.6659846
-2.6643806
-2.6627765
-2.6611723
-2.6595681
-2.6579639
-2.6563597
-2.6547554
-2.6531511
-2.6515468
-2.6499424
-2.6483379
-2.6467334
-2.6451289
-2.6435243
-2.6419197
-2.640315
-2.6387103
-2.6371055
-2.6355006
-2.6338957
-2.6322907
-2.6306856
-2.6290805
-2.6274753
-2.62587
-2.6242647
-2.6226592
-2.6210537
-2.6194481
-2.6178425
-2.6162367
-2.6146309
-2.613025
-2.611419
-2.6098129
-2.6082068
-2.6066006
-2.6049943
-2.6033879
-2.6017815
-2.600175
-2.5985684
-2.5969618
-2.595355
-2.5937483
-2.5921414
-2.5905346
-2.5889276
-2.5873206
-2.5857135
-2.5841064
-2.5824993
-2.5808921
-2.5792848
-2.5776775
-2.5760701
-2.5744627
-2.5728553
-2.5712478
-2.5696403
-2.5680327
-2.5664251
-2.5648175
-2.5632098
-2.561602
-2.5599942
-2.5583864
-2.5567786
-2.5551707
-2.5535627
-2.5519547
-2.5503467
-2.5487387
-2.5471306
-2.5455224
-2.5439143
-2.542306
-2.5406978
-2.5390895
-2.5374812
-2.5358728
-2.5342644
-2.5326559
-2.5310474
-2.5294389
-2.5278303
-2.5262217
-2.524613
-2.5230043
-2.5213956
-2.5197868
-2.518178
-2.5165691
-2.5149602
-2.5133512
-2.5117423
-2.5101332
-2.5085242
-2.506915
-2.5053059
-2.5036967
-2.5020875
-2.5004782
-2.4988689
-2.4972595
-2.4956501
-2.4940407
-2.4924312
-2.4908216
-2.4892121
-2.4876025
-2.4859928
-2.4843831
-2.4827734
-2.4811636
-2.4795538
-2.4779439
-2.476334
-2.4747241
-2.4731141
-2.471504
-2.469894
-2.4682838
-2.4666737
-2.4650635
-2.4634532
-2.4618429
-2.4602326
-2.4586222
-2.4570118
-2.4554014
-2.4537909
-2.4521803
-2.4505697
-2.4489591
-2.4473484
-2.4457377
-2.444127
-2.4425162
-2.4409053
-2.4392945
-2.4376835
-2.4360726
-2.4344616
-2.4328505
-2.4312394
-2.4296283
-2.4280171
-2.4264059
-2.4247947
-2.4231834
-2.421572
-2.4199607
-2.4183492
-2.4167378
-2.4151263
-2.4135148
-2.4119032
-2.4102916
-2.4086799
-2.4070682
-2.4054564
-2.4038447
-2.4022328
-2.4006209
-2.399009
-2.3973971
-2.3957851
-2.394173
-2.3925609
-2.3909487
-2.3893365
-2.3877243
-2.3861119
-2.3844996
-2.3828871
-2.3812746
-2.3796621
-2.3780495
-2.3764368
-2.374824
-2.3732112
-2.3715983
-2.3699853
-2.3683723
-2.3667592
-2.365146
-2.3635327
-2.3619194
-2.360306
-2.3586925
-2.3570789
-2.3554652
-2.3538515
-2.3522376
-2.3506237
-2.3490098
-2.3473957
-2.3457815
-2.3441673
-2.342553
-2.3409386
-2.3393242
-2.3377097
-2.3360951
-2.3344804
-2.3328657
-2.3312509
-2.329636
-2.3280211
-2.3264061
-2.324791
-2.3231759
-2.3215607
-2.3199455
-2.3183302
-2.3167148
-2.3150994
-2.3134839
-2.3118684
-2.3102529
-2.3086372
-2.3070216
-2.3054059
-2.3037901
-2.3021743
-2.3005584
-2.2989425
-2.2973266
-2.2957106
-2.2940946
-2.2924785
-2.2908624
-2.2892462
-2.28763
-2.2860137
-2.2843974
-2.2827811
-2.2811647
-2.2795483
-2.2779318
-2.2763153
-2.2746988
-2.2730822
-2.2714655
-2.2698489
-2.2682321
-2.2666154
-2.2649986
-2.2633817
-2.2617649
-2.2601479
-2.258531
-2.256914
-2.2552969
-2.2536798
-2.2520627
-2.2504455
-2.2488283
-2.2472111
-2.2455938
-2.2439764
-2.2423591
-2.2407416
-2.2391242
-2.2375067
-2.2358892
-2.2342716
-2.232654
-2.2310363
-2.2294186
-2.2278009
-2.2261831
-2.2245653
-2.2229474
-2.2213295
-2.2197116
-2.2180936
-2.2164756
-2.2148575
-2.2132394
-2.2116213
-2.2100031
-2.2083849
-2.2067666
-2.2051484
-2.20353
-2.2019116
-2.2002932
-2.1986748
-2.1970563
-2.1954378
-2.1938192
-2.1922006
-2.190582
-2.1889633
-2.1873446
-2.1857258
-2.184107
-2.1824882
-2.1808693
-2.1792504
-2.1776314
-2.1760125
-2.1743934
-2.1727744
-2.1711553
-2.1695362
-2.167917
-2.1662978
-2.1646785
-2.1630593
-2.1614399
-2.1598206
-2.1582012
-2.1565817
-2.1549623
-2.1533427
-2.1517232
-2.1501036
-2.1484839
-2.1468643
-2.1452445
-2.1436248
-2.1420049
-2.1403851
-2.1387652
-2.1371452
-2.1355252
-2.1339051
-2.132285
-2.1306649
-2.1290447
-2.1274244
-2.1258041
-2.1241837
-2.1225632
-2.1209427
-2.1193222
-2.1177016
-2.1160809
-2.1144601
-2.1128393
-2.1112185
-2.1095975
-2.1079765
-2.1063555
-2.1047343
-2.1031131
-2.1014919
-2.0998706
-2.0982492
-2.0966277
-2.0950062
-2.0933846
-2.091763
-2.0901412
-2.0885195
-2.0868976
-2.0852757
-2.0836538
-2.0820318
-2.0804097
-2.0787876
-2.0771654
-2.0755431
-2.0739209
-2.0722985
-2.0706761
-2.0690537
-2.0674312
-2.0658086
-2.064186
-2.0625634
-2.0609407
-2.059318
-2.0576952
-2.0560724
-2.0544496
-2.0528267
-2.0512038
-2.0495808
-2.0479578
-2.0463348
-2.0447117
-2.0430886
-2.0414655
-2.0398423
-2.0382191
-2.0365959
-2.0349726
-2.0333493
-2.031726
-2.0301027
-2.0284793
-2.0268559
-2.0252324
-2.023609
-2.0219855
-2.0203619
-2.0187384
-2.0171148
-2.0154912
-2.0138676
-2.0122439
-2.0106203
-2.0089966
-2.0073728
-2.0057491
-2.0041253
-2.0025015
-2.0008777
-1.9992538
-1.99763
-1.9960061
-1.9943822
-1.9927582
-1.9911343
-1.9895103
-1.9878863
-1.9862622
-1.9846382
-1.9830141
-1.98139
-1.9797659
-1.9781418
-1.9765176
-1.9748934
-1.9732692
-1.971645
-1.9700208
-1.9683965
-1.9667723
-1.965148
-1.9635236
-1.9618993
-1.960275
-1.9586506
-1.9570262
-1.9554018
-1.9537774
-1.9521529
-1.9505285
-1.948904
-1.9472795
-1.945655
-1.9440305
-1.9424059
-1.9407814
-1.9391568
-1.9375322
-1.9359076
-1.934283
-1.9326584
-1.9310337
-1.929409
-1.9277844
-1.9261597
-1.9245349
-1.9229102
-1.9212855
-1.9196607
-1.918036
-1.9164112
-1.9147864
-1.9131616
-1.9115368
-1.9099119
-1.9082871
-1.9066622
-1.9050373
-1.9034124
-1.9017875
-1.9001626
-1.8985376
-1.8969127
-1.8952877
-1.8936627
-1.8920377
-1.8904127
-1.8887876
-1.8871626
-1.8855375
-1.8839124
-1.8822873
-1.8806621
-1.879037
-1.8774118
-1.8757866
-1.8741613
-1.8725361
-1.8709108
-1.8692855
-1.8676601
-1.8660347
-1.8644093
-1.8627839
-1.8611584
-1.8595329
-1.8579074
-1.8562818
-1.8546562
-1.8530306
-1.8514049
-1.8497792
-1.8481535
-1.8465277
-1.8449019
-1.843276
-1.8416501
-1.8400242
-1.8383982
-1.8367722
-1.8351462
-1.8335201
-1.831894
-1.8302678
-1.8286416
-1.8270154
-1.8253891
-1.8237628
-1.8221364
-1.8205101
-1.8188836
-1.8172572
-1.8156307
-1.8140042
-1.8123776
-1.810751
-1.8091244
-1.8074978
-1.8058711
-1.8042444
-1.8026177
-1.8009909
-1.7993641
-1.7977373
-1.7961105
-1.7944836
-1.7928567
-1.7912298
-1.7896029
-1.7879759
-1.786349
-1.784722
-1.7830949
-1.7814679
-1.7798409
-1.7782138
-1.7765867
-1.7749596
-1.7733325
-1.7717053
-1.7700782
-1.768451
-1.7668238
-1.7651966
-1.7635694
-1.7619421
-1.7603149
-1.7586876
-1.7570603
-1.755433
-1.7538057
-1.7521784
-1.7505511
-1.7489237
-1.7472964
-1.745669
-1.7440416
-1.7424142
-1.7407868
-1.7391593
-1.7375319
-1.7359044
-1.734277
-1.7326495
-1.731022
-1.7293944
-1.7277669
-1.7261394
-1.7245118
-1.7228842
-1.7212567
-1.7196291
-1.7180014
-1.7163738
-1.7147462
-1.7131185
-1.7114908
-1.7098632
-1.7082355
-1.7066077
-1.70498
-1.7033523
-1.7017245
-1.7000967
-1.6984689
-1.6968411
-1.6952133
-1.6935855
-1.6919576
-1.6903298
-1.6887019
-1.687074
-1.6854461
-1.6838182
-1.6821902
-1.6805623
-1.6789343
-1.6773063
-1.6756783
-1.6740503
-1.6724222
-1.6707942
-1.6691661
-1.667538
-1.6659099
-1.6642818
-1.6626537
-1.6610255
-1.6593974
-1.6577692
-1.656141
-1.6545128
-1.6528846
-1.6512563
-1.649628
-1.6479998
-1.6463715
-1.6447431
-1.6431148
-1.6414864
-1.6398581
-1.6382297
-1.6366013
-1.6349728
-1.6333444
-1.6317159
-1.6300874
-1.6284589
-1.6268303
-1.6252018
-1.6235732
-1.6219446
-1.620316
-1.6186873
-1.6170586
-1.6154299
-1.6138012
-1.6121724
-1.6105436
-1.6089148
-1.607286
-1.6056571
-1.6040282
-1.6023992
-1.6007702
-1.5991412
-1.5975122
-1.5958831
-1.594254
-1.5926248
-1.5909956
-1.5893664
-1.5877371
-1.5861078
-1.5844785
-1.5828491
-1.5812196
-1.5795902
-1.5779606
-1.5763311
-1.5747015
-1.5730718
-1.5714421
-1.5698124
-1.5681826
-1.5665528
-1.5649229
-1.5632929
-1.561663
-1.5600329
-1.5584029
-1.5567728
-1.5551426
-1.5535124
-1.5518821
-1.5502518
-1.5486215
-1.5469911
-1.5453607
-1.5437302
-1.5420996
-1.5404691
-1.5388385
-1.5372078
-1.5355771
-1.5339463
-1.5323156
-1.5306847
-1.5290539
-1.527423
-1.525792
-1.524161
-1.52253
-1.5208989
-1.5192678
-1.5176367
-1.5160055
-1.5143743
-1.512743
-1.5111118
-1.5094805
-1.5078491
-1.5062177
-1.5045863
-1.5029548
-1.5013234
-1.4996919
-1.4980603
-1.4964287
-1.4947971
-1.4931655
-1.4915338
-1.4899021
-1.4882704
-1.4866386
-1.4850069
-1.483375
-1.4817432
-1.4801113
-1.4784794
-1.4768475
-1.4752155
-1.4735836
-1.4719516
-1.4703195
-1.4686875
-1.4670554
-1.4654232
-1.4637911
-1.4621589
-1.4605267
-1.4588945
-1.4572622
-1.4556299
-1.4539976
-1.4523653
-1.4507329
-1.4491005
-1.4474681
-1.4458357
-1.4442032
-1.4425707
-1.4409382
-1.4393056
-1.437673
-1.4360404
-1.4344078
-1.4327751
-1.4311424
-1.4295097
-1.427877
-1.4262442
-1.4246114
-1.4229786
-1.4213457
-1.4197128
-1.4180799
-1.416447
-1.414814
-1.413181
-1.411548
-1.409915
-1.4082819
-1.4066488
-1.4050157
-1.4033825
-1.4017494
-1.4001162
-1.3984829
-1.3968497
-1.3952164
-1.3935831
-1.3919497
-1.3903163
-1.3886829
-1.3870495
-1.3854161
-1.3837826
-1.3821491
-1.3805156
-1.378882
-1.3772484
-1.3756148
-1.3739812
-1.3723475
-1.3707138
-1.3690801
-1.3674463
-1.3658125
-1.3641787
-1.3625449
-1.360911
-1.3592771
-1.3576432
-1.3560093
-1.3543753
-1.3527413
-1.3511072
-1.3494732
-1.3478391
-1.346205
-1.3445708
-1.3429366
-1.3413024
-1.3396681
-1.3380338
-1.3363995
-1.3347652
-1.3331308
-1.3314963
-1.3298619
-1.3282274
-1.3265928
-1.3249583
-1.3233237
-1.321689
-1.3200543
-1.3184196
-1.3167848
-1.31515
-1.3135152
-1.3118803
-1.3102454
-1.3086104
-1.3069754
-1.3053403
-1.3037052
-1.30207
-1.3004348
-1.2987996
-1.2971643
-1.295529
-1.2938936
-1.2922581
-1.2906227
-1.2889871
-1.2873515
-1.2857159
-1.2840802
-1.2824445
-1.2808087
-1.2791729
-1.277537
-1.2759011
-1.2742652
-1.2726291
-1.2709931
-1.2693569
-1.2677208
-1.2660846
-1.2644483
-1.262812
-1.2611756
-1.2595392
-1.2579028
-1.2562663
-1.2546297
-1.2529932
-1.2513565
-1.2497198
-1.2480831
-1.2464463
-1.2448095
-1.2431727
-1.2415358
-1.2398989
-1.2382619
-1.2366249
-1.2349878
-1.2333507
-1.2317136
-1.2300764
-1.2284392
-1.226802
-1.2251647
-1.2235274
-1.22189
-1.2202526
-1.2186152
-1.2169777
-1.2153402
-1.2137027
-1.2120651
-1.2104276
-1.2087899
-1.2071523
-1.2055146
-1.2038769
-1.2022391
-1.2006013
-1.1989635
-1.1973257
-1.1956878
-1.1940499
-1.192412
-1.190774
-1.1891361
-1.1874981
-1.18586
-1.1842219
-1.1825839
-1.1809457
-1.1793076
-1.1776694
-1.1760312
-1.174393
-1.1727547
-1.1711164
-1.1694781
-1.1678398
-1.1662014
-1.164563
-1.1629246
-1.1612862
-1.1596477
-1.1580092
-1.1563707
-1.1547321
-1.1530936
-1.151455
-1.1498164
-1.1481777
-1.1465391
-1.1449004
-1.1432616
-1.1416229
-1.1399841
-1.1383453
-1.1367065
-1.1350677
-1.1334288
-1.1317899
-1.130151
-1.128512
-1.1268731
-1.1252341
-1.1235951
-1.121956
-1.120317
-1.1186779
-1.1170387
-1.1153996
-1.1137604
-1.1121213
-1.110482
-1.1088428
-1.1072035
-1.1055643
-1.1039249
-1.1022856
-1.1006462
-1.0990069
-1.0973674
-1.095728
-1.0940885
-1.092449
-1.0908095
-1.08917
-1.0875304
-1.0858908
-1.0842512
-1.0826115
-1.0809719
-1.0793321
-1.0776924
-1.0760526
-1.0744129
-1.072773
-1.0711332
-1.0694933
-1.0678534
-1.0662134
-1.0645735
-1.0629335
-1.0612934
-1.0596533
-1.0580132
-1.0563731
-1.0547329
-1.0530927
-1.0514525
-1.0498122
-1.0481719
-1.0465315
-1.0448912
-1.0432507
-1.0416103
-1.0399698
-1.0383292
-1.0366887
-1.035048
-1.0334074
-1.0317667
-1.030126
-1.0284852
-1.0268444
-1.0252035
-1.0235626
-1.0219217
-1.0202807
-1.0186397
-1.0169986
-1.0153575
-1.0137163
-1.0120752
-1.0104339
-1.0087926
-1.0071513
-1.00551
-1.0038685
-1.0022271
-1.0005856
-0.99894408
-0.9973025
-0.99566089
-0.99401923
-0.99237753
-0.99073579
-0.98909401
-0.9874522
-0.98581034
-0.98416844
-0.9825265
-0.98088452
-0.97924251
-0.97760045
-0.97595836
-0.97431623
-0.97267406
-0.97103186
-0.96938962
-0.96774735
-0.96610504
-0.9644627
-0.96282032
-0.96117792
-0.95953548
-0.957893
-0.9562505
-0.95460797
-0.9529654
-0.95132281
-0.94968018
-0.94803753
-0.94639485
-0.94475214
-0.9431094
-0.94146664
-0.93982385
-0.93818104
-0.9365382
-0.93489534
-0.93325246
-0.93160955
-0.92996662
-0.92832367
-0.92668069
-0.9250377
-0.92339468
-0.92175164
-0.92010859
-0.91846551
-0.91682242
-0.91517931
-0.91353618
-0.91189303
-0.91024986
-0.90860667
-0.90696346
-0.90532024
-0.903677
-0.90203374
-0.90039047
-0.89874718
-0.89710389
-0.89546057
-0.89381725
-0.89217391
-0.89053056
-0.8888872
-0.88724382
-0.88560044
-0.88395704
-0.88231363
-0.88067021
-0.87902678
-0.87738334
-0.87573988
-0.87409642
-0.87245295
-0.87080947
-0.86916598
-0.86752248
-0.86587898
-0.86423547
-0.86259195
-0.86094842
-0.85930489
-0.85766136
-0.85601781
-0.85437426
-0.85273071
-0.85108715
-0.84944358
-0.84780002
-0.84615645
-0.84451287
-0.8428693
-0.84122572
-0.83958214
-0.83793856
-0.83629498
-0.83465139
-0.83300781
-0.83136422
-0.82972064
-0.82807706
-0.82643347
-0.8247899
-0.82314632
-0.82150275
-0.81985918
-0.81821561
-0.81657204
-0.81492848
-0.81328492
-0.81164136
-0.80999781
-0.80835425
-0.80671071
-0.80506716
-0.80342362
-0.80178009
-0.80013656
-0.79849304
-0.79684953
-0.79520602
-0.79356252
-0.79191903
-0.79027554
-0.78863207
-0.78698859
-0.78534513
-0.78370166
-0.78205821
-0.78041476
-0.77877132
-0.77712788
-0.77548445
-0.77384103
-0.77219761
-0.77055421
-0.76891081
-0.76726741
-0.76562402
-0.76398064
-0.76233726
-0.76069389
-0.75905052
-0.75740716
-0.75576381
-0.75412046
-0.75247712
-0.75083377
-0.74919044
-0.7475471
-0.74590377
-0.74426045
-0.74261712
-0.7409738
-0.73933049
-0.73768717
-0.73604387
-0.73440056
-0.73275726
-0.73111396
-0.72947066
-0.72782737
-0.72618407
-0.72454078
-0.72289749
-0.7212542
-0.71961091
-0.71796762
-0.71632434
-0.71468106
-0.71303778
-0.71139451
-0.70975123
-0.70810797
-0.7064647
-0.70482144
-0.70317818
-0.70153492
-0.69989167
-0.69824843
-0.69660518
-0.69496195
-0.69331872
-0.6916755
-0.69003229
-0.68838908
-0.68674589
-0.68510271
-0.68345954
-0.68181639
-0.68017324
-0.67853011
-0.67688699
-0.67524389
-0.6736008
-0.67195773
-0.67031468
-0.66867165
-0.66702864
-0.66538566
-0.6637427
-0.66209977
-0.66045687
-0.658814
-0.65717115
-0.65552834
-0.65388556
-0.65224282
-0.65060012
-0.64895745
-0.64731483
-0.64567225
-0.64402971
-0.64238722
-0.64074478
-0.63910239
-0.63746005
-0.63581776
-0.63417553
-0.63253336
-0.63089125
-0.6292492
-0.62760722
-0.62596531
-0.62432347
-0.6226817
-0.62104
-0.61939839
-0.61775685
-0.61611539
-0.61447402
-0.61283274
-0.61119155
-0.60955045
-0.60790944
-0.60626854
-0.60462773
-0.60298703
-0.60134644
-0.59970595
-0.59806558
-0.59642532
-0.59478519
-0.59314517
-0.59150528
-0.58986551
-0.58822587
-0.58658637
-0.584947
-0.58330777
-0.58166869
-0.58002975
-0.57839096
-0.57675232
-0.57511384
-0.57347552
-0.57183736
-0.57019936
-0.56856154
-0.56692388
-0.56528641
-0.56364911
-0.56201199
-0.56037506
-0.55873832
-0.55710177
-0.55546542
-0.55382927
-0.55219332
-0.55055757
-0.54892204
-0.54728671
-0.54565161
-0.54401672
-0.54238206
-0.54074762
-0.53911342
-0.53747944
-0.53584571
-0.53421221
-0.53257896
-0.53094596
-0.52931321
-0.52768071
-0.52604847
-0.52441649
-0.52278477
-0.52115333
-0.51952215
-0.51789125
-0.51626063
-0.51463029
-0.51300024
-0.51137047
-0.50974099
-0.50811181
-0.50648293
-0.50485435
-0.50322607
-0.5015981
-0.49997044
-0.49834309
-0.49671606
-0.49508935
-0.49346297
-0.4918369
-0.49021117
-0.48858577
-0.4869607
-0.48533598
-0.48371159
-0.48208754
-0.48046385
-0.4788405
-0.4772175
-0.47559486
-0.47397257
-0.47235064
-0.47072908
-0.46910787
-0.46748703
-0.46586656
-0.46424646
-0.46262673
-0.46100738
-0.4593884
-0.4577698
-0.45615158
-0.45453374
-0.45291628
-0.45129921
-0.44968253
-0.44806623
-0.44645032
-0.4448348
-0.44321968
-0.44160495
-0.43999061
-0.43837666
-0.43676312
-0.43514997
-0.43353722
-0.43192487
-0.43031291
-0.42870136
-0.4270902
-0.42547945
-0.4238691
-0.42225915
-0.4206496
-0.41904045
-0.41743171
-0.41582336
-0.41421542
-0.41260788
-0.41100074
-0.409394
-0.40778766
-0.40618172
-0.40457618
-0.40297103
-0.40136629
-0.39976193
-0.39815798
-0.39655442
-0.39495124
-0.39334846
-0.39174607
-0.39014407
-0.38854245
-0.38694122
-0.38534038
-0.38373991
-0.38213983
-0.38054013
-0.3789408
-0.37734185
-0.37574327
-0.37414507
-0.37254723
-0.37094977
-0.36935266
-0.36775592
-0.36615954
-0.36456352
-0.36296785
-0.36137254
-0.35977758
-0.35818296
-0.35658869
-0.35499475
-0.35340116
-0.35180791
-0.35021499
-0.3486224
-0.34703013
-0.3454382
-0.34384658
-0.34225528
-0.3406643
-0.33907363
-0.33748328
-0.33589322
-0.33430348
-0.33271403
-0.33112488
-0.32953603
-0.32794747
-0.3263592
-0.32477121
-0.3231835
-0.32159607
-0.32000892
-0.31842203
-0.31683543
-0.31524908
-0.31366299
-0.31207716
-0.31049158
-0.30890625
-0.30732117
-0.30573633
-0.30415173
-0.30256736
-0.30098323
-0.29939933
-0.29781565
-0.29623219
-0.29464895
-0.29306593
-0.29148312
-0.28990051
-0.28831811
-0.28673592
-0.28515392
-0.28357212
-0.2819905
-0.28040908
-0.27882784
-0.27724678
-0.2756659
-0.27408519
-0.27250465
-0.27092428
-0.26934407
-0.26776402
-0.26618413
-0.26460439
-0.2630248
-0.26144535
-0.25986604
-0.25828687
-0.25670783
-0.25512893
-0.25355015
-0.25197149
-0.25039296
-0.24881454
-0.24723624
-0.24565804
-0.24407996
-0.24250197
-0.24092409
-0.23934631
-0.23776861
-0.23619102
-0.2346135
-0.23303608
-0.23145873
-0.22988147
-0.22830428
-0.22672716
-0.22515011
-0.22357313
-0.2219962
-0.22041934
-0.21884253
-0.21726577
-0.21568907
-0.2141124
-0.21253578
-0.2109592
-0.20938265
-0.20780613
-0.20622964
-0.20465317
-0.20307673
-0.2015003
-0.19992389
-0.19834749
-0.1967711
-0.19519471
-0.19361833
-0.19204195
-0.19046556
-0.18888916
-0.18731275
-0.18573633
-0.18415989
-0.18258342
-0.18100694
-0.17943043
-0.17785389
-0.17627731
-0.1747007
-0.17312405
-0.17154736
-0.16997063
-0.16839384
-0.166817
-0.1652401
-0.16366314
-0.16208612
-0.16050902
-0.15893186
-0.15735461
-0.15577728
-0.15419986
-0.15262235
-0.15104475
-0.14946704
-0.14788923
-0.14631132
-0.14473328
-0.14315513
-0.14157686
-0.13999847
-0.13841994
-0.13684128
-0.13526249
-0.13368355
-0.13210446
-0.13052522
-0.12894582
-0.12736626
-0.12578653
-0.12420663
-0.12262656
-0.1210463
-0.11946585
-0.11788522
-0.11630438
-0.11472335
-0.1131421
-0.11156065
-0.10997897
-0.10839708
-0.10681495
-0.10523259
-0.10364999
-0.10206715
-0.10048406
-0.098900708
-0.097317097
-0.095733219
-0.094149068
-0.092564639
-0.090979926
-0.089394923
-0.087809626
-0.086224029
-0.084638127
-0.083051916
-0.081465391
-0.079878548
-0.078291383
-0.076703889
-0.075116064
-0.0735279
-0.071939391
-0.07035053
-0.068761311
-0.067171726
-0.065581769
-0.063991432
-0.06240071
-0.060809598
-0.059218091
-0.057626184
-0.056033873
-0.054441154
-0.052848022
-0.051254471
-0.049660498
-0.048066097
-0.046471262
-0.04487599
-0.043280275
-0.041684112
-0.040087497
-0.038490425
-0.036892891
-0.035294891
-0.033696419
-0.032097473
-0.030498046
-0.028898136
-0.027297736
-0.025696844
-0.024095455
-0.022493565
-0.020891169
-0.019288265
-0.017684847
-0.016080913
-0.014476457
-0.012871478
-0.01126597
-0.0096599305
-0.0080533561
-0.0064462431
-0.0048385882
-0.0032303881
-0.0016216392
-1.233775e-05
0.0015975123
0.003207921
0.0048188905
0.006430423
0.0080425212
0.0096551875
0.011268424
0.012882234
0.014496619
0.016111581
0.017727122
0.019343245
0.020959951
0.022577242
0.02419512
0.025813587
0.027432644
0.029052292
0.030672533
0.032293367
0.033914798
0.035536824
0.037159447
0.038782669
0.040406489
0.042030909
0.043655928
0.045281548
0.046907768
0.048534589
0.050162011
0.051790034
0.053418658
0.055047883
0.056677708
0.058308134
0.059939161
0.06157079
0.063203019
0.064835847
0.066469276
0.068103302
0.069737925
0.071373141
0.073008946
0.074645339
0.076282316
0.077919874
0.079558011
0.081196726
0.082836017
0.084475884
0.086116325
0.087757339
0.089398924
0.09104108
0.092683804
0.094327092
0.095970944
0.097615356
0.099260324
0.10090585
0.10255192
0.10419854
0.1058457
0.10749341
0.10914165
0.11079042
0.11243972
0.11408955
0.1157399
0.11739077
0.11904216
0.12069405
0.12234645
0.12399935
0.12565275
0.12730665
0.12896103
0.1306159
0.13227125
0.13392707
0.13558337
0.13724014
0.13889736
0.14055505
0.14221319
0.14387178
0.14553082
0.14719029
0.1488502
0.15051054
0.15217131
0.15383249
0.1554941
0.15715611
0.15881853
0.16048135
0.16214456
0.16380816
0.16547214
0.1671365
0.16880124
0.17046634
0.1721318
0.17379762
0.17546379
0.1771303
0.17879716
0.18046436
0.18213188
0.18379974
0.18546792
0.18713641
0.18880522
0.19047434
0.19214377
0.19381349
0.19548351
0.19715382
0.19882441
0.20049529
0.20216644
0.20383786
0.20550954
0.20718149
0.2088537
0.21052616
0.21219886
0.21387181
0.21554499
0.21721841
0.21889206
0.22056594
0.22224003
0.22391434
0.22558886
0.22726358
0.22893851
0.23061364
0.23228896
0.23396448
0.23564018
0.23731606
0.23899212
0.24066836
0.24234477
0.24402135
0.24569809
0.247375
0.24905206
0.25072928
0.25240665
0.25408418
0.25576184
0.25743965
0.25911761
0.26079569
0.26247391
0.26415226
0.26583074
0.26750935
0.26918807
0.27086692
0.27254588
0.27422495
0.27590414
0.27758343
0.27926283
0.28094234
0.28262194
0.28430164
0.28598144
0.28766134
0.28934132
0.2910214
0.29270156
0.29438181
0.29606215
0.29774257
0.29942307
0.30110366
0.30278432
0.30446505
0.30614587
0.30782675
0.30950771
0.31118874
0.31286984
0.31455101
0.31623224
0.31791354
0.3195949
0.32127632
0.32295781
0.32463935
0.32632095
0.32800261
0.32968433
0.3313661
0.33304792
0.33472979
0.33641172
0.3380937
0.33977573
0.34145781
0.34313994
0.34482212
0.34650434
0.34818661
0.34986893
0.35155129
0.35323369
0.35491614
0.35659863
0.35828116
0.35996372
0.36164633
0.36332898
0.36501167
0.36669439
0.36837715
0.37005994
0.37174277
0.37342564
0.37510853
0.37679146
0.37847442
0.38015742
0.38184044
0.38352349
0.38520657
0.38688968
0.38857281
0.39025597
0.39193916
0.39362237
0.3953056
0.39698885
0.39867213
0.40035543
0.40203874
0.40372208
0.40540543
0.40708881
0.4087722
0.4104556
0.41213903
0.41382246
0.41550591
0.41718938
0.41887285
0.42055634
0.42223983
0.42392334
0.42560685
0.42729037
0.4289739
0.43065744
0.43234099
0.43402454
0.4357081
0.43739166
0.43907523
0.44075881
0.44244238
0.44412596
0.44580954
0.44749313
0.44917671
0.4508603
0.45254388
0.45422746
0.45591105
0.45759463
0.4592782
0.46096178
0.46264535
0.46432891
0.46601248
0.46769603
0.46937958
0.47106312
0.47274666
0.47443019
0.47611371
0.47779722
0.47948072
0.48116421
0.48284769
0.48453116
0.48621463
0.48789808
0.48958152
0.49126495
0.49294836
0.49463177
0.49631516
0.49799854
0.49968191
0.50136526
0.5030486
0.50473193
0.50641523
0.50809853
0.50978181
0.51146507
0.51314832
0.51483155
0.51651476
0.51819796
0.51988113
0.52156429
0.52324744
0.52493057
0.52661367
0.52829676
0.52997983
0.53166288
0.53334591
0.53502893
0.53671192
0.53839489
0.54007785
0.54176078
0.5434437
0.54512659
0.54680946
0.54849231
0.55017514
0.55185794
0.55354073
0.55522349
0.55690623
0.55858895
0.56027165
0.56195432
0.56363697
0.5653196
0.56700221
0.56868479
0.57036736
0.5720499
0.57373241
0.57541491
0.57709738
0.57877983
0.58046226
0.58214467
0.58382706
0.58550943
0.58719177
0.5888741
0.5905564
0.59223868
0.59392094
0.59560317
0.59728539
0.59896759
0.60064976
0.60233191
0.60401405
0.60569616
0.60737826
0.60906033
0.61074239
0.61242442
0.61410644
0.61578844
0.61747042
0.61915239
0.62083433
0.62251626
0.62419818
0.62588007
0.62756195
0.62924382
0.63092567
0.6326075
0.63428932
0.63597113
0.63765292
0.63933469
0.64101645
0.6426982
0.64437993
0.64606165
0.64774336
0.64942506
0.65110674
0.65278842
0.65447008
0.65615173
0.65783337
0.659515
0.66119661
0.66287822
0.66455982
0.6662414
0.66792299
0.66960455
0.67128612
0.67296767
0.67464921
0.67633075
0.67801227
0.6796938
0.6813753
0.68305681
0.68473831
0.6864198
0.68810129
0.68978277
0.69146425
0.69314572
0.69482718
0.69650865
0.6981901
0.69987155
0.70155299
0.70323442
0.70491585
0.70659727
0.70827868
0.7099601
0.7116415
0.71332289
0.71500428
0.71668566
0.71836704
0.72004841
0.72172977
0.72341113
0.72509249
0.72677383
0.72845517
0.7301365
0.73181782
0.73349914
0.73518044
0.73686174
0.73854303
0.74022431
0.74190558
0.74358684
0.7452681
0.74694934
0.74863058
0.75031181
0.75199303
0.75367425
0.75535545
0.75703664
0.75871783
0.760399
0.76208017
0.76376132
0.76544247
0.76712361
0.76880473
0.77048585
0.77216695
0.77384804
0.77552912
0.77721019
0.77889124
0.78057229
0.78225332
0.78393434
0.78561536
0.78729636
0.78897734
0.79065832
0.79233928
0.79402024
0.79570118
0.7973821
0.79906302
0.80074393
0.80242482
0.8041057
0.80578657
0.80746742
0.80914826
0.81082908
0.8125099
0.81419069
0.81587148
0.81755226
0.81923302
0.82091376
0.8225945
0.82427522
0.82595592
0.82763662
0.8293173