/*--------------------------------*- C++ -*----------------------------------*\
  =========                 |
  \\      /  F ield         | OpenFOAM: The Open Source CFD Toolbox
   \\    /   O peration     | Website:  https://openfoam.org
    \\  /    A nd           | Version:  7
     \\/     M anipulation  |
\*---------------------------------------------------------------------------*/
FoamFile
{
    version     2.0;
    format      ascii;
    class       volScalarField;
    location    "0.00235";
    object      p;
}
// * * * * * * * * * * * * * * * * * * * * * * * * * * * * * * * * * * * * * //

dimensions      [1 -1 -2 0 0 0 0];

internalField   nonuniform List<scalar> 
5000
(
99788.939
99788.94
99788.94
99788.94
99788.941
99788.941
99788.942
99788.942
99788.943
99788.943
99788.944
99788.944
99788.944
99788.945
99788.945
99788.946
99788.946
99788.946
99788.947
99788.947
99788.948
99788.948
99788.949
99788.949
99788.949
99788.95
99788.95
99788.951
99788.951
99788.952
99788.952
99788.952
99788.953
99788.953
99788.954
99788.954
99788.954
99788.955
99788.955
99788.956
99788.956
99788.957
99788.957
99788.957
99788.958
99788.958
99788.959
99788.959
99788.959
99788.96
99788.96
99788.961
99788.961
99788.961
99788.962
99788.962
99788.963
99788.963
99788.964
99788.964
99788.964
99788.965
99788.965
99788.966
99788.966
99788.966
99788.967
99788.967
99788.968
99788.968
99788.968
99788.969
99788.969
99788.97
99788.97
99788.97
99788.971
99788.971
99788.972
99788.972
99788.973
99788.973
99788.973
99788.974
99788.974
99788.975
99788.975
99788.975
99788.976
99788.976
99788.977
99788.977
99788.977
99788.978
99788.978
99788.979
99788.979
99788.979
99788.98
99788.98
99788.981
99788.981
99788.982
99788.982
99788.982
99788.983
99788.983
99788.984
99788.984
99788.984
99788.985
99788.985
99788.986
99788.986
99788.986
99788.987
99788.987
99788.988
99788.988
99788.988
99788.989
99788.989
99788.99
99788.99
99788.991
99788.991
99788.991
99788.992
99788.992
99788.993
99788.993
99788.993
99788.994
99788.994
99788.995
99788.995
99788.996
99788.996
99788.996
99788.997
99788.997
99788.998
99788.998
99788.998
99788.999
99788.999
99789
99789
99789.001
99789.001
99789.001
99789.002
99789.002
99789.003
99789.003
99789.004
99789.004
99789.004
99789.005
99789.005
99789.006
99789.006
99789.007
99789.007
99789.007
99789.008
99789.008
99789.009
99789.009
99789.01
99789.01
99789.01
99789.011
99789.011
99789.012
99789.012
99789.013
99789.013
99789.013
99789.014
99789.014
99789.015
99789.015
99789.016
99789.016
99789.016
99789.017
99789.017
99789.018
99789.018
99789.019
99789.019
99789.02
99789.02
99789.02
99789.021
99789.021
99789.022
99789.022
99789.023
99789.023
99789.024
99789.024
99789.024
99789.025
99789.025
99789.026
99789.026
99789.027
99789.027
99789.028
99789.028
99789.028
99789.029
99789.029
99789.03
99789.03
99789.031
99789.031
99789.032
99789.032
99789.033
99789.033
99789.033
99789.034
99789.034
99789.035
99789.035
99789.036
99789.036
99789.037
99789.037
99789.038
99789.038
99789.039
99789.039
99789.039
99789.04
99789.04
99789.041
99789.041
99789.042
99789.042
99789.043
99789.043
99789.044
99789.044
99789.045
99789.045
99789.046
99789.046
99789.046
99789.047
99789.047
99789.048
99789.048
99789.049
99789.049
99789.05
99789.05
99789.051
99789.051
99789.052
99789.052
99789.053
99789.053
99789.054
99789.054
99789.055
99789.055
99789.056
99789.056
99789.057
99789.057
99789.057
99789.058
99789.058
99789.059
99789.059
99789.06
99789.06
99789.061
99789.061
99789.062
99789.062
99789.063
99789.063
99789.064
99789.064
99789.065
99789.065
99789.066
99789.066
99789.067
99789.067
99789.068
99789.068
99789.069
99789.069
99789.07
99789.07
99789.071
99789.071
99789.072
99789.072
99789.073
99789.073
99789.074
99789.074
99789.075
99789.075
99789.076
99789.076
99789.077
99789.077
99789.078
99789.078
99789.079
99789.079
99789.08
99789.08
99789.081
99789.082
99789.082
99789.083
99789.083
99789.084
99789.084
99789.085
99789.085
99789.086
99789.086
99789.087
99789.087
99789.088
99789.088
99789.089
99789.089
99789.09
99789.09
99789.091
99789.091
99789.092
99789.093
99789.093
99789.094
99789.094
99789.095
99789.095
99789.096
99789.096
99789.097
99789.097
99789.098
99789.099
99789.099
99789.1
99789.1
99789.101
99789.101
99789.102
99789.102
99789.103
99789.103
99789.104
99789.105
99789.105
99789.106
99789.106
99789.107
99789.107
99789.108
99789.108
99789.109
99789.11
99789.11
99789.111
99789.111
99789.112
99789.112
99789.113
99789.114
99789.114
99789.115
99789.115
99789.116
99789.116
99789.117
99789.118
99789.118
99789.119
99789.119
99789.12
99789.12
99789.121
99789.122
99789.122
99789.123
99789.123
99789.124
99789.125
99789.125
99789.126
99789.126
99789.127
99789.127
99789.128
99789.129
99789.129
99789.13
99789.13
99789.131
99789.132
99789.132
99789.133
99789.133
99789.134
99789.135
99789.135
99789.136
99789.136
99789.137
99789.138
99789.138
99789.139
99789.14
99789.14
99789.141
99789.141
99789.142
99789.143
99789.143
99789.144
99789.145
99789.145
99789.146
99789.147
99789.147
99789.148
99789.148
99789.149
99789.15
99789.15
99789.151
99789.152
99789.152
99789.153
99789.154
99789.154
99789.155
99789.156
99789.156
99789.157
99789.158
99789.158
99789.159
99789.16
99789.16
99789.161
99789.162
99789.162
99789.163
99789.164
99789.165
99789.165
99789.166
99789.167
99789.167
99789.168
99789.169
99789.169
99789.17
99789.171
99789.172
99789.172
99789.173
99789.174
99789.175
99789.175
99789.176
99789.177
99789.177
99789.178
99789.179
99789.18
99789.18
99789.181
99789.182
99789.183
99789.183
99789.184
99789.185
99789.186
99789.186
99789.187
99789.188
99789.189
99789.19
99789.19
99789.191
99789.192
99789.193
99789.193
99789.194
99789.195
99789.196
99789.197
99789.197
99789.198
99789.199
99789.2
99789.201
99789.202
99789.202
99789.203
99789.204
99789.205
99789.206
99789.207
99789.207
99789.208
99789.209
99789.21
99789.211
99789.212
99789.213
99789.213
99789.214
99789.215
99789.216
99789.217
99789.218
99789.219
99789.22
99789.221
99789.221
99789.222
99789.223
99789.224
99789.225
99789.226
99789.227
99789.228
99789.229
99789.23
99789.231
99789.232
99789.233
99789.234
99789.235
99789.236
99789.237
99789.238
99789.239
99789.24
99789.241
99789.242
99789.243
99789.244
99789.245
99789.246
99789.247
99789.248
99789.249
99789.25
99789.251
99789.252
99789.253
99789.254
99789.255
99789.256
99789.257
99789.258
99789.259
99789.261
99789.262
99789.263
99789.264
99789.265
99789.266
99789.267
99789.268
99789.27
99789.271
99789.272
99789.273
99789.274
99789.275
99789.277
99789.278
99789.279
99789.28
99789.281
99789.283
99789.284
99789.285
99789.286
99789.288
99789.289
99789.29
99789.292
99789.293
99789.294
99789.295
99789.297
99789.298
99789.299
99789.301
99789.302
99789.303
99789.305
99789.306
99789.308
99789.309
99789.31
99789.312
99789.313
99789.315
99789.316
99789.318
99789.319
99789.32
99789.322
99789.323
99789.325
99789.326
99789.328
99789.33
99789.331
99789.333
99789.334
99789.336
99789.337
99789.339
99789.341
99789.342
99789.344
99789.346
99789.347
99789.349
99789.351
99789.352
99789.354
99789.356
99789.357
99789.359
99789.361
99789.363
99789.365
99789.366
99789.368
99789.37
99789.372
99789.374
99789.376
99789.378
99789.38
99789.381
99789.383
99789.385
99789.387
99789.389
99789.391
99789.393
99789.395
99789.398
99789.4
99789.402
99789.404
99789.406
99789.408
99789.41
99789.412
99789.415
99789.417
99789.419
99789.421
99789.424
99789.426
99789.428
99789.431
99789.433
99789.435
99789.438
99789.44
99789.443
99789.445
99789.448
99789.45
99789.453
99789.455
99789.458
99789.46
99789.463
99789.465
99789.468
99789.471
99789.473
99789.476
99789.479
99789.482
99789.484
99789.487
99789.49
99789.493
99789.496
99789.499
99789.501
99789.504
99789.507
99789.51
99789.513
99789.516
99789.519
99789.522
99789.526
99789.529
99789.532
99789.535
99789.538
99789.541
99789.545
99789.548
99789.551
99789.555
99789.558
99789.561
99789.565
99789.568
99789.572
99789.575
99789.579
99789.582
99789.586
99789.589
99789.593
99789.596
99789.6
99789.604
99789.608
99789.611
99789.615
99789.619
99789.623
99789.627
99789.63
99789.634
99789.638
99789.642
99789.646
99789.65
99789.654
99789.659
99789.663
99789.667
99789.671
99789.675
99789.679
99789.684
99789.688
99789.692
99789.697
99789.701
99789.706
99789.71
99789.715
99789.719
99789.724
99789.728
99789.733
99789.738
99789.742
99789.747
99789.752
99789.757
99789.761
99789.766
99789.771
99789.776
99789.781
99789.786
99789.791
99789.796
99789.801
99789.806
99789.812
99789.817
99789.822
99789.827
99789.833
99789.838
99789.843
99789.849
99789.854
99789.86
99789.865
99789.871
99789.877
99789.882
99789.888
99789.894
99789.899
99789.905
99789.911
99789.917
99789.923
99789.929
99789.935
99789.941
99789.947
99789.953
99789.959
99789.966
99789.972
99789.978
99789.984
99789.991
99789.997
99790.004
99790.01
99790.017
99790.023
99790.03
99790.037
99790.044
99790.05
99790.057
99790.064
99790.071
99790.078
99790.085
99790.092
99790.099
99790.106
99790.114
99790.121
99790.128
99790.136
99790.143
99790.151
99790.158
99790.166
99790.173
99790.181
99790.189
99790.197
99790.204
99790.212
99790.22
99790.228
99790.236
99790.245
99790.253
99790.261
99790.269
99790.278
99790.286
99790.295
99790.303
99790.312
99790.321
99790.33
99790.339
99790.348
99790.357
99790.366
99790.375
99790.384
99790.393
99790.403
99790.412
99790.422
99790.431
99790.441
99790.451
99790.461
99790.471
99790.481
99790.491
99790.501
99790.512
99790.522
99790.532
99790.543
99790.554
99790.565
99790.576
99790.587
99790.598
99790.609
99790.621
99790.632
99790.644
99790.656
99790.668
99790.68
99790.692
99790.704
99790.717
99790.73
99790.742
99790.755
99790.769
99790.782
99790.795
99790.809
99790.823
99790.837
99790.851
99790.866
99790.88
99790.895
99790.91
99790.926
99790.941
99790.957
99790.973
99790.99
99791.007
99791.024
99791.041
99791.058
99791.076
99791.094
99791.113
99791.132
99791.151
99791.171
99791.191
99791.211
99791.232
99791.253
99791.275
99791.297
99791.32
99791.343
99791.367
99791.391
99791.416
99791.441
99791.467
99791.494
99791.521
99791.549
99791.577
99791.606
99791.636
99791.667
99791.699
99791.731
99791.764
99791.798
99791.833
99791.869
99791.906
99791.944
99791.983
99792.023
99792.064
99792.106
99792.15
99792.194
99792.24
99792.288
99792.336
99792.386
99792.438
99792.491
99792.546
99792.602
99792.66
99792.72
99792.781
99792.844
99792.91
99792.977
99793.046
99793.118
99793.191
99793.267
99793.345
99793.426
99793.509
99793.595
99793.683
99793.774
99793.868
99793.965
99794.065
99794.168
99794.274
99794.383
99794.496
99794.612
99794.732
99794.856
99794.984
99795.115
99795.251
99795.391
99795.535
99795.684
99795.837
99795.995
99796.158
99796.326
99796.499
99796.678
99796.862
99797.051
99797.247
99797.448
99797.656
99797.87
99798.09
99798.317
99798.551
99798.792
99799.04
99799.295
99799.559
99799.83
99800.109
99800.397
99800.692
99800.997
99801.311
99801.634
99801.966
99802.308
99802.66
99803.022
99803.394
99803.777
99804.171
99804.577
99804.994
99805.422
99805.863
99806.316
99806.782
99807.261
99807.753
99808.258
99808.778
99809.312
99809.86
99810.423
99811.002
99811.596
99812.206
99812.833
99813.476
99814.136
99814.814
99815.509
99816.223
99816.955
99817.706
99818.477
99819.267
99820.077
99820.909
99821.761
99822.634
99823.53
99824.448
99825.388
99826.352
99827.34
99828.351
99829.388
99830.449
99831.536
99832.649
99833.788
99834.955
99836.149
99837.371
99838.622
99839.901
99841.21
99842.55
99843.919
99845.32
99846.753
99848.218
99849.715
99851.246
99852.811
99854.409
99856.043
99857.713
99859.418
99861.16
99862.939
99864.756
99866.612
99868.506
99870.44
99872.413
99874.428
99876.484
99878.581
99880.721
99882.904
99885.131
99887.402
99889.717
99892.079
99894.486
99896.94
99899.441
99901.99
99904.587
99907.234
99909.93
99912.676
99915.474
99918.323
99921.224
99924.177
99927.184
99930.245
99933.36
99936.531
99939.757
99943.04
99946.379
99949.776
99953.232
99956.745
99960.318
99963.951
99967.645
99971.399
99975.216
99979.094
99983.035
99987.039
99991.108
99995.24
99999.438
100003.7
100008.03
100012.43
100016.89
100021.42
100026.02
100030.69
100035.42
100040.23
100045.11
100050.06
100055.08
100060.17
100065.33
100070.57
100075.88
100081.26
100086.71
100092.25
100097.85
100103.53
100109.29
100115.13
100121.04
100127.02
100133.09
100139.23
100145.45
100151.75
100158.13
100164.59
100171.13
100177.74
100184.44
100191.22
100198.08
100205.02
100212.04
100219.14
100226.33
100233.6
100240.95
100248.38
100255.9
100263.5
100271.18
100278.95
100286.8
100294.74
100302.76
100310.86
100319.05
100327.33
100335.69
100344.13
100352.66
100361.28
100369.98
100378.76
100387.63
100396.59
100405.64
100414.77
100423.98
100433.28
100442.67
100452.14
100461.7
100471.35
100481.08
100490.9
100500.8
100510.8
100520.87
100531.03
100541.28
100551.62
100562.04
100572.55
100583.14
100593.81
100604.58
100615.43
100626.36
100637.38
100648.48
100659.67
100670.95
100682.31
100693.75
100705.28
100716.89
100728.58
100740.36
100752.23
100764.17
100776.2
100788.31
100800.51
100812.79
100825.15
100837.59
100850.11
100862.72
100875.4
100888.17
100901.02
100913.95
100926.96
100940.05
100953.21
100966.46
100979.79
100993.19
101006.68
101020.24
101033.88
101047.6
101061.39
101075.26
101089.21
101103.23
101117.33
101131.51
101145.76
101160.08
101174.48
101188.95
101203.5
101218.12
101232.81
101247.57
101262.41
101277.32
101292.3
101307.35
101322.47
101337.66
101352.92
101368.25
101383.65
101399.12
101414.65
101430.25
101445.92
101461.66
101477.46
101493.33
101509.27
101525.27
101541.33
101557.46
101573.65
101589.91
101606.23
101622.61
101639.05
101655.56
101672.12
101688.75
101705.44
101722.18
101738.99
101755.85
101772.78
101789.76
101806.8
101823.9
101841.05
101858.26
101875.52
101892.84
101910.22
101927.65
101945.14
101962.67
101980.26
101997.91
102015.6
102033.35
102051.15
102069
102086.9
102104.85
102122.85
102140.9
102159
102177.14
102195.34
102213.58
102231.87
102250.2
102268.58
102287.01
102305.48
102323.99
102342.55
102361.15
102379.8
102398.49
102417.22
102435.99
102454.81
102473.66
102492.56
102511.49
102530.47
102549.49
102568.54
102587.63
102606.76
102625.93
102645.14
102664.38
102683.65
102702.97
102722.32
102741.7
102761.12
102780.57
102800.06
102819.57
102839.13
102858.71
102878.33
102897.97
102917.65
102937.36
102957.1
102976.87
102996.66
103016.49
103036.35
103056.23
103076.14
103096.08
103116.04
103136.03
103156.05
103176.09
103196.16
103216.26
103236.37
103256.51
103276.68
103296.86
103317.07
103337.31
103357.56
103377.84
103398.13
103418.45
103438.79
103459.15
103479.52
103499.92
103520.33
103540.77
103561.22
103581.68
103602.17
103622.67
103643.19
103663.72
103684.27
103704.84
103725.41
103746.01
103766.61
103787.23
103807.87
103828.51
103849.17
103869.84
103890.53
103911.22
103931.92
103952.64
103973.36
103994.09
104014.84
104035.59
104056.35
104077.12
104097.89
104118.68
104139.47
104160.26
104181.06
104201.87
104222.69
104243.5
104264.33
104285.16
104305.99
104326.82
104347.66
104368.5
104389.34
104410.19
104431.03
104451.88
104472.73
104493.58
104514.43
104535.28
104556.12
104576.97
104597.81
104618.66
104639.5
104660.34
104681.17
104702.01
104722.83
104743.66
104764.48
104785.29
104806.1
104826.91
104847.71
104868.5
104889.28
104910.06
104930.83
104951.59
104972.35
104993.09
105013.83
105034.56
105055.28
105075.98
105096.68
105117.37
105138.04
105158.7
105179.36
105199.99
105220.62
105241.23
105261.83
105282.42
105302.99
105323.55
105344.09
105364.61
105385.13
105405.62
105426.1
105446.56
105467
105487.43
105507.84
105528.22
105548.59
105568.95
105589.28
105609.59
105629.88
105650.15
105670.4
105690.63
105710.83
105731.02
105751.18
105771.32
105791.43
105811.52
105831.59
105851.63
105871.65
105891.64
105911.61
105931.55
105951.46
105971.35
105991.2
106011.04
106030.84
106050.61
106070.36
106090.08
106109.76
106129.42
106149.05
106168.64
106188.21
106207.74
106227.24
106246.71
106266.15
106285.55
106304.92
106324.26
106343.56
106362.83
106382.06
106401.25
106420.41
106439.54
106458.63
106477.68
106496.69
106515.66
106534.6
106553.5
106572.36
106591.18
106609.96
106628.7
106647.4
106666.06
106684.67
106703.25
106721.78
106740.27
106758.72
106777.13
106795.49
106813.8
106832.07
106850.3
106868.48
106886.62
106904.71
106922.76
106940.75
106958.7
106976.6
106994.46
107012.27
107030.02
107047.73
107065.39
107083
107100.56
107118.06
107135.52
107152.93
107170.28
107187.58
107204.83
107222.03
107239.17
107256.26
107273.29
107290.28
107307.2
107324.07
107340.89
107357.65
107374.35
107391
107407.59
107424.12
107440.59
107457.01
107473.37
107489.67
107505.91
107522.09
107538.21
107554.27
107570.27
107586.21
107602.09
107617.9
107633.66
107649.35
107664.98
107680.55
107696.05
107711.49
107726.87
107742.18
107757.43
107772.61
107787.73
107802.78
107817.77
107832.69
107847.55
107862.33
107877.06
107891.71
107906.3
107920.81
107935.26
107949.65
107963.96
107978.2
107992.38
108006.49
108020.52
108034.49
108048.38
108062.21
108075.96
108089.65
108103.26
108116.8
108130.27
108143.67
108156.99
108170.24
108183.42
108196.53
108209.57
108222.53
108235.42
108248.23
108260.97
108273.64
108286.23
108298.75
108311.19
108323.56
108335.85
108348.07
108360.21
108372.28
108384.27
108396.19
108408.03
108419.8
108431.49
108443.1
108454.64
108466.1
108477.48
108488.79
108500.02
108511.18
108522.25
108533.26
108544.18
108555.03
108565.8
108576.49
108587.11
108597.65
108608.11
108618.49
108628.8
108639.03
108649.18
108659.26
108669.25
108679.18
108689.02
108698.79
108708.48
108718.09
108727.62
108737.08
108746.46
108755.77
108764.99
108774.14
108783.22
108792.21
108801.13
108809.98
108818.75
108827.44
108836.05
108844.59
108853.06
108861.44
108869.75
108877.99
108886.15
108894.24
108902.25
108910.19
108918.05
108925.83
108933.55
108941.18
108948.75
108956.24
108963.66
108971
108978.27
108985.47
108992.6
108999.65
109006.63
109013.54
109020.38
109027.15
109033.84
109040.47
109047.02
109053.51
109059.92
109066.26
109072.54
109078.75
109084.88
109090.95
109096.95
109102.89
109108.75
109114.55
109120.28
109125.95
109131.55
109137.08
109142.55
109147.96
109153.3
109158.57
109163.78
109168.93
109174.02
109179.04
109184
109188.89
109193.73
109198.51
109203.22
109207.87
109212.47
109217
109221.48
109225.9
109230.25
109234.56
109238.8
109242.99
109247.12
109251.19
109255.21
109259.17
109263.08
109266.93
109270.74
109274.48
109278.18
109281.82
109285.41
109288.95
109292.43
109295.87
109299.25
109302.59
109305.88
109309.11
109312.3
109315.45
109318.54
109321.59
109324.59
109327.54
109330.45
109333.31
109336.13
109338.91
109341.64
109344.33
109346.97
109349.57
109352.13
109354.65
109357.13
109359.57
109361.97
109364.32
109366.64
109368.92
109371.17
109373.37
109375.54
109377.67
109379.76
109381.82
109383.84
109385.82
109387.78
109389.69
109391.58
109393.43
109395.24
109397.03
109398.78
109400.5
109402.19
109403.85
109405.48
109407.08
109408.65
109410.19
109411.7
109413.18
109414.64
109416.07
109417.47
109418.84
109420.19
109421.51
109422.81
109424.08
109425.32
109426.54
109427.74
109428.92
109430.07
109431.19
109432.3
109433.38
109434.44
109435.48
109436.5
109437.5
109438.47
109439.43
109440.37
109441.28
109442.18
109443.06
109443.92
109444.76
109445.59
109446.39
109447.18
109447.96
109448.71
109449.45
109450.17
109450.88
109451.57
109452.25
109452.91
109453.56
109454.19
109454.81
109455.42
109456.01
109456.58
109457.15
109457.7
109458.24
109458.76
109459.28
109459.78
109460.27
109460.75
109461.22
109461.68
109462.12
109462.56
109462.98
109463.4
109463.8
109464.2
109464.59
109464.96
109465.33
109465.69
109466.04
109466.38
109466.71
109467.04
109467.35
109467.66
109467.96
109468.26
109468.54
109468.82
109469.09
109469.36
109469.61
109469.87
109470.11
109470.35
109470.58
109470.81
109471.03
109471.24
109471.45
109471.66
109471.85
109472.05
109472.24
109472.42
109472.6
109472.77
109472.94
109473.1
109473.26
109473.42
109473.57
109473.71
109473.86
109474
109474.13
109474.26
109474.39
109474.51
109474.64
109474.75
109474.87
109474.98
109475.09
109475.19
109475.29
109475.39
109475.49
109475.58
109475.67
109475.76
109475.84
109475.93
109476.01
109476.08
109476.16
109476.23
109476.31
109476.37
109476.44
109476.51
109476.57
109476.63
109476.69
109476.75
109476.8
109476.86
109476.91
109476.96
109477.01
109477.06
109477.11
109477.15
109477.2
109477.24
109477.28
109477.32
109477.36
109477.39
109477.43
109477.47
109477.5
109477.53
109477.56
109477.59
109477.62
109477.65
109477.68
109477.71
109477.73
109477.76
109477.78
109477.81
109477.83
109477.85
109477.87
109477.89
109477.91
109477.93
109477.95
109477.97
109477.99
109478
109478.02
109478.04
109478.05
109478.07
109478.08
109478.09
109478.11
109478.12
109478.13
109478.15
109478.16
109478.17
109478.18
109478.19
109478.2
109478.21
109478.22
109478.23
109478.24
109478.24
109478.25
109478.26
109478.27
109478.27
109478.28
109478.29
109478.29
109478.3
109478.31
109478.31
109478.32
109478.32
109478.33
109478.33
109478.34
109478.34
109478.35
109478.35
109478.36
109478.36
109478.36
109478.37
109478.37
109478.38
109478.38
109478.38
109478.39
109478.39
109478.39
109478.39
109478.4
109478.4
109478.4
109478.4
109478.41
109478.41
109478.41
109478.41
109478.41
109478.42
109478.42
109478.42
109478.42
109478.42
109478.42
109478.43
109478.43
109478.43
109478.43
109478.43
109478.43
109478.43
109478.43
109478.44
109478.44
109478.44
109478.44
109478.44
109478.44
109478.44
109478.44
109478.44
109478.44
109478.44
109478.45
109478.45
109478.45
109478.45
109478.45
109478.45
109478.45
109478.45
109478.45
109478.45
109478.45
109478.45
109478.45
109478.45
109478.45
109478.45
109478.45
109478.45
109478.45
109478.45
109478.46
109478.46
109478.46
109478.46
109478.46
109478.46
109478.46
109478.46
109478.46
109478.46
109478.46
109478.46
109478.46
109478.46
109478.46
109478.46
109478.46
109478.46
109478.46
109478.46
109478.46
109478.46
109478.46
109478.46
109478.46
109478.46
109478.46
109478.46
109478.46
109478.46
109478.46
109478.46
109478.46
109478.46
109478.46
109478.46
109478.46
109478.46
109478.46
109478.46
109478.46
109478.46
109478.46
109478.46
109478.46
109478.46
109478.46
109478.46
109478.46
109478.46
109478.46
109478.46
109478.46
109478.46
109478.46
109478.46
109478.46
109478.46
109478.46
109478.46
109478.46
109478.46
109478.46
109478.46
109478.46
109478.46
109478.46
109478.46
109478.46
109478.46
109478.46
109478.46
109478.46
109478.46
109478.46
109478.46
109478.46
109478.46
109478.46
109478.46
109478.46
109478.46
109478.46
109478.46
109478.46
109478.46
109478.46
109478.46
109478.46
109478.46
109478.46
109478.46
109478.46
109478.46
109478.46
109478.46
109478.46
109478.46
109478.46
109478.46
109478.46
109478.46
109478.46
109478.46
109478.46
109478.46
109478.46
109478.46
109478.46
109478.46
109478.46
109478.46
109478.46
109478.46
109478.46
109478.46
109478.46
109478.46
109478.46
109478.46
109478.46
109478.46
109478.46
109478.46
109478.46
109478.46
109478.46
109478.46
109478.46
109478.46
109478.46
109478.46
109478.46
109478.46
109478.46
109478.46
109478.46
109478.46
109478.46
109478.46
109478.46
109478.46
109478.46
109478.46
109478.46
109478.46
109478.46
109478.46
109478.46
109478.46
109478.46
109478.46
109478.46
109478.46
109478.46
109478.46
109478.46
109478.46
109478.46
109478.46
109478.46
109478.46
109478.46
109478.46
109478.46
109478.46
109478.46
109478.46
109478.46
109478.46
109478.46
109478.46
109478.46
109478.46
109478.46
109478.46
109478.46
109478.46
109478.46
109478.46
109478.46
109478.46
109478.47
109478.47
109478.47
109478.47
109478.47
109478.47
109478.47
109478.47
109478.47
109478.47
109478.47
109478.47
109478.47
109478.47
109478.47
109478.47
109478.47
109478.47
109478.47
109478.47
109478.47
109478.47
109478.47
109478.47
109478.47
109478.47
109478.47
109478.47
109478.47
109478.47
109478.47
109478.47
109478.47
109478.47
109478.47
109478.47
109478.47
109478.47
109478.47
109478.47
109478.47
109478.47
109478.47
109478.47
109478.47
109478.47
109478.47
109478.47
109478.47
109478.47
109478.47
109478.47
109478.47
109478.47
109478.47
109478.47
109478.47
109478.47
109478.47
109478.47
109478.47
109478.47
109478.47
109478.47
109478.47
109478.47
109478.47
109478.47
109478.47
109478.47
109478.47
109478.47
109478.47
109478.47
109478.47
109478.47
109478.47
109478.47
109478.47
109478.47
109478.47
109478.47
109478.47
109478.47
109478.47
109478.47
109478.47
109478.47
109478.47
109478.47
109478.47
109478.47
109478.47
109478.47
109478.47
109478.47
109478.47
109478.47
109478.47
109478.47
109478.47
109478.47
109478.47
109478.47
109478.47
109478.47
109478.47
109478.47
109478.47
109478.47
109478.47
109478.47
109478.47
109478.47
109478.47
109478.47
109478.47
109478.47
109478.47
109478.47
109478.47
109478.47
109478.47
109478.47
109478.47
109478.47
109478.47
109478.47
109478.47
109478.47
109478.47
109478.47
109478.47
109478.47
109478.47
109478.47
109478.47
109478.47
109478.47
109478.47
109478.47
109478.47
109478.47
109478.47
109478.47
109478.47
109478.47
109478.47
109478.47
109478.47
109478.47
109478.47
109478.47
109478.47
109478.47
109478.47
109478.47
109478.47
109478.47
109478.47
109478.47
109478.47
109478.47
109478.47
109478.47
109478.47
109478.47
109478.47
109478.47
109478.47
109478.47
109478.47
109478.47
109478.47
109478.47
109478.47
109478.47
109478.47
109478.47
109478.47
109478.47
109478.47
109478.47
109478.47
109478.47
109478.47
109478.47
109478.47
109478.47
109478.47
109478.47
109478.47
109478.47
109478.47
109478.47
109478.47
109478.47
109478.47
109478.47
109478.47
109478.47
109478.47
109478.47
109478.47
109478.47
109478.47
109478.47
109478.47
109478.47
109478.47
109478.47
109478.47
109478.47
109478.47
109478.47
109478.47
109478.47
109478.47
109478.47
109478.47
109478.47
109478.47
109478.47
109478.47
109478.47
109478.47
109478.47
109478.47
109478.47
109478.47
109478.47
109478.47
109478.47
109478.47
109478.47
109478.47
109478.47
109478.47
109478.47
109478.47
109478.47
109478.47
109478.47
109478.47
109478.47
109478.47
109478.47
109478.47
109478.47
109478.47
109478.47
109478.47
109478.47
109478.47
109478.47
109478.47
109478.47
109478.47
109478.47
109478.47
109478.47
109478.47
109478.47
109478.47
109478.47
109478.47
109478.47
109478.47
109478.47
109478.47
109478.47
109478.47
109478.47
109478.47
109478.47
109478.47
109478.47
109478.47
109478.47
109478.47
109478.47
109478.47
109478.47
109478.47
109478.47
109478.47
109478.47
109478.47
109478.47
109478.47
109478.47
109478.47
109478.47
109478.47
109478.47
109478.47
109478.47
109478.47
109478.47
109478.47
109478.47
109478.47
109478.47
109478.47
109478.47
109478.47
109478.47
109478.47
109478.47
109478.47
109478.47
109478.47
109478.47
109478.47
109478.47
109478.47
109478.47
109478.47
109478.47
109478.47
109478.47
109478.47
109478.47
109478.47
109478.47
109478.47
109478.47
109478.47
109478.47
109478.47
109478.47
109478.47
109478.47
109478.47
109478.47
109478.47
109478.47
109478.47
109478.47
109478.47
109478.47
109478.47
109478.47
109478.47
109478.47
109478.47
109478.47
109478.47
109478.47
109478.47
109478.47
109478.47
109478.47
109478.47
109478.47
109478.47
109478.47
109478.47
109478.47
109478.47
109478.47
109478.47
109478.47
109478.47
109478.47
109478.47
109478.47
109478.47
109478.47
109478.47
109478.47
109478.47
109478.47
109478.47
109478.47
109478.47
109478.47
109478.47
109478.47
109478.47
109478.47
109478.47
109478.47
109478.47
109478.47
109478.47
109478.47
109478.47
109478.47
109478.47
109478.47
109478.47
109478.47
109478.47
109478.47
109478.47
109478.47
109478.47
109478.47
109478.47
109478.47
109478.47
109478.47
109478.47
109478.47
109478.47
109478.47
109478.47
109478.47
109478.47
109478.47
109478.47
109478.47
109478.47
109478.47
109478.47
109478.47
109478.47
109478.47
109478.47
109478.47
109478.47
109478.47
109478.47
109478.47
109478.47
109478.47
109478.47
109478.47
109478.47
109478.47
109478.47
109478.47
109478.47
109478.47
109478.47
109478.47
109478.47
109478.47
109478.47
109478.47
109478.47
109478.47
109478.47
109478.47
109478.47
109478.47
109478.47
109478.47
109478.47
109478.47
109478.47
109478.46
109478.46
109478.45
109478.45
109478.45
109478.45
109478.47
109478.48
109478.49
109478.49
109478.48
109478.48
109478.48
109478.47
109478.47
109478.47
109478.47
109478.47
109478.47
109478.47
109478.47
109478.47
109478.47
109478.47
109478.47
109478.47
109478.47
109478.47
109478.47
109478.47
109478.47
109478.47
109478.47
109478.47
109478.47
109478.47
109478.47
109478.47
109478.47
109478.47
109478.47
109478.47
109478.47
109478.47
109478.47
109478.47
109478.47
109478.47
109478.47
109478.47
109478.47
109478.47
109478.47
109478.47
109478.47
109478.47
109478.47
109478.47
109478.47
109478.47
109478.47
109478.47
109478.47
109478.47
109478.47
109478.47
109478.47
109478.47
109478.47
109478.47
109478.47
109478.47
109478.47
109478.47
109478.47
109478.47
109478.47
109478.47
109478.47
109478.47
109478.47
109478.47
109478.47
109478.47
109478.47
109478.47
109478.47
109478.47
109478.47
109478.47
109478.47
109478.47
109478.47
109478.47
109478.47
109478.47
109478.47
109478.47
109478.47
109478.47
109478.47
109478.47
109478.47
109478.47
109478.47
109478.47
109478.47
109478.47
109478.47
109478.47
109478.47
109478.47
109478.47
109478.47
109478.47
109478.47
109478.47
109478.47
109478.47
109478.47
109478.47
109478.47
109478.47
109478.47
109478.47
109478.47
109478.47
109478.47
109478.47
109478.47
109478.47
109478.47
109478.47
109478.47
109478.47
109478.47
109478.47
109478.47
109478.47
109478.47
109478.47
109478.47
109478.47
109478.47
109478.47
109478.47
109478.47
109478.47
109478.47
109478.47
109478.47
109478.47
109478.47
109478.47
109478.47
109478.47
109478.47
109478.47
109478.47
109478.47
109478.47
109478.47
109478.47
109478.47
109478.47
109478.47
109478.47
109478.47
109478.47
109478.47
109478.47
109478.47
109478.47
109478.47
109478.47
109478.47
109478.47
109478.47
109478.47
109478.47
109478.47
109478.47
109478.47
109478.47
109478.47
109478.47
109478.47
109478.47
109478.47
109478.47
109478.47
109478.47
109478.47
109478.47
109478.47
109478.47
109478.47
109478.47
109478.47
109478.47
109478.47
109478.47
109478.47
109478.47
109478.47
109478.47
109478.47
109478.47
109478.47