/*--------------------------------*- C++ -*----------------------------------*\
  =========                 |
  \\      /  F ield         | OpenFOAM: The Open Source CFD Toolbox
   \\    /   O peration     | Website:  https://openfoam.org
    \\  /    A nd           | Version:  7
     \\/     M anipulation  |
\*---------------------------------------------------------------------------*/
FoamFile
{
    version     2.0;
    format      ascii;
    class       volScalarField;
    location    "0.00235";
    object      Uz;
}
// * * * * * * * * * * * * * * * * * * * * * * * * * * * * * * * * * * * * * //

dimensions      [0 1 -1 0 0 0 0];

internalField   nonuniform List<scalar> 
5000
(
0
0
0
0
0
-3.2495253e-21
-6.9103589e-36
9.8530657e-21
3.3366467e-21
-6.741556e-21
-6.7456238e-21
3.3621366e-21
-2.8640665e-35
-2.959267e-35
6.7208046e-21
-6.7196803e-21
-9.7504848e-52
-2.9559546e-35
-3.3525057e-21
6.7001523e-21
3.347659e-21
0
0
-3.3404296e-21
2.8461983e-35
-2.7493859e-35
-3.3333662e-21
3.3310456e-21
3.3287465e-21
-3.3264701e-21
5.8105077e-35
-2.8324803e-35
-3.3197362e-21
3.3175201e-21
3.3153214e-21
0
0
-3.3088067e-21
-3.3066542e-21
3.3045146e-21
-5.5377225e-35
-3.3003007e-21
3.298237e-21
-5.5741835e-35
-3.2942084e-21
3.2922572e-21
-1.1315609e-34
1.1262518e-34
-1.1303148e-34
5.6019732e-35
3.2834058e-21
0
0
0
0
0
0
0
0
0
0
0
0
-3.2507579e-21
-3.2489254e-21
3.2396364e-21
-5.5694853e-35
3.0850581e-52
3.2472805e-21
0
0
-3.2371554e-21
-3.2431222e-21
0
3.2432026e-21
1.1193818e-34
-3.2377697e-21
-3.2325526e-21
3.2276634e-21
6.454742e-21
-6.4674957e-21
1.8442075e-36
9.7302878e-21
-6.4674423e-21
-3.3613779e-34
6.4584269e-21
-9.6754402e-21
3.230896e-21
3.2443532e-21
-3.245102e-21
3.2345232e-21
3.235563e-21
1.130564e-34
-6.4935189e-21
-2.2423125e-34
-3.2452551e-21
-3.2452709e-21
-1.1357043e-34
2.2541527e-34
6.4990169e-21
3.2495155e-21
-3.2436095e-21
4.6203284e-37
3.2520103e-21
0
-3.2541869e-21
-1.1333013e-34
3.2494508e-21
-3.2574315e-21
-3.2583799e-21
6.4943404e-21
3.2489157e-21
-9.7885292e-21
-3.2639593e-21
9.7588189e-21
-3.2548051e-21
-3.2688564e-21
-1.8587464e-36
-3.2587777e-21
9.782466e-21
-2.289959e-34
-6.5621659e-21
6.5606753e-21
3.2799315e-21
-3.2777334e-21
3.2742399e-21
-3.2759515e-21
-6.5764684e-21
3.2899908e-21
1.1321703e-34
3.2807467e-21
6.5922646e-21
-3.2977012e-21
-3.2921548e-21
-3.3012667e-21
-1.1513685e-34
-1.1455405e-34
1.1488047e-34
6.6006101e-21
3.313927e-21
-3.3188845e-21
-6.6200275e-21
-3.3126417e-21
-3.3263361e-21
2.3086838e-34
6.6533719e-21
-9.4716651e-37
9.4932195e-37
-4.9420676e-51
3.3586078e-21
-2.3332877e-34
4.6946538e-34
3.376489e-21
-3.3808066e-21
3.3851199e-21
1.1750713e-34
-3.3924369e-21
3.3960633e-21
-4.8309062e-37
-3.4029354e-21
0
3.4094146e-21
2.3613515e-34
-6.8294869e-21
3.4175391e-21
-9.7213659e-37
-3.4233777e-21
3.4262547e-21
-3.4289288e-21
3.4317873e-21
-1.4311291e-33
-9.5364399e-34
3.4410708e-21
-6.8885195e-21
0
-2.3933043e-34
-7.1871502e-34
3.4582201e-21
3.4618421e-21
2.3885137e-34
-3.469256e-21
3.4729408e-21
2.3912326e-34
1.4837456e-36
4.8267394e-34
-6.9730618e-21
3.4896575e-21
3.4928906e-21
-2.4046897e-34
2.4121635e-34
-7.2835637e-34
2.4216679e-34
-3.5096148e-21
0
0
0
0
-3.5260793e-21
7.3589277e-34
3.5335976e-21
3.5374542e-21
-3.5415212e-21
-3.5454735e-21
7.0992474e-21
2.4594667e-34
-7.3865697e-34
-3.5612808e-21
-3.5644637e-21
3.567958e-21
0
3.57557e-21
2.4775763e-34
-3.5842915e-21
-3.5877711e-21
5.0011685e-34
3.5948643e-21
-7.1969808e-21
3.6022392e-21
3.6062745e-21
-3.6101655e-21
3.614346e-21
0
0
0
3.6314017e-21
-3.6356863e-21
-7.280029e-21
3.6440416e-21
-2.5346837e-34
3.6508811e-21
3.6547851e-21
-7.3174103e-21
1.0410236e-36
-1.0423323e-36
3.6717295e-21
3.6754553e-21
-7.3587717e-21
5.2346559e-37
-7.6816889e-34
3.6912144e-21
-2.0523144e-33
-5.1311816e-34
3.7039905e-21
-3.7084751e-21
0
-3.7174718e-21
3.721988e-21
3.7264766e-21
-3.7308305e-21
0
-3.7384902e-21
3.7428192e-21
3.7471652e-21
-1.3025079e-33
-7.5136341e-21
-7.5234393e-21
1.1298543e-20
7.5404785e-21
0
-7.5578434e-21
-3.7834441e-21
3.7882358e-21
3.79292e-21
3.7977803e-21
-7.6055555e-21
-7.6153324e-21
3.8126901e-21
7.6354867e-21
1.0603865e-33
-7.6545197e-21
3.8315765e-21
-5.3206312e-34
-3.8409017e-21
7.6914929e-21
-3.8508667e-21
5.3701375e-34
3.8611044e-21
-3.8660216e-21
3.8709591e-21
-7.7520894e-21
1.6192683e-33
7.7723164e-21
-7.7829004e-21
-2.6967132e-34
3.9019527e-21
0
0
3.9180822e-21
-3.9233884e-21
-7.8568124e-21
3.933333e-21
-1.1193855e-36
3.9437631e-21
3.9491108e-21
-3.9546585e-21
0
-3.9658443e-21
-3.9712239e-21
0
7.9643817e-21
3.987655e-21
-7.9863962e-21
2.7675451e-34
-1.1381756e-36
4.0103164e-21
4.0160986e-21
-4.0217915e-21
4.027484e-21
-4.0331061e-21
2.2957189e-36
8.0886624e-21
-4.0500463e-21
-4.0558316e-21
-4.0617169e-21
-5.6417174e-34
4.0735399e-21
0
0
-4.0913568e-21
5.6887845e-34
-1.1388423e-33
-5.7114244e-34
4.1155916e-21
-4.1217179e-21
5.8660597e-37
4.1340154e-21
0
0
0
0
0
0
0
-4.183653e-21
0
4.1963834e-21
0
-4.2092337e-21
-1.1694224e-33
4.2222155e-21
0
0
-4.2418807e-21
-5.8985718e-34
4.2550478e-21
0
0
-4.27483e-21
-4.2814787e-21
4.2881809e-21
4.2949357e-21
0
-4.308539e-21
6.1324861e-37
4.322185e-21
-4.329056e-21
-4.3359707e-21
4.3429106e-21
4.3498669e-21
0
-4.3638549e-21
-4.3708793e-21
4.3779091e-21
4.3849492e-21
0
-4.3991071e-21
-4.4062445e-21
4.4134289e-21
4.4206552e-21
0
0
0
0
0
0
0
0
-4.4869689e-21
5.8031632e-51
4.5020329e-21
0
0
0
-4.532534e-21
-6.2972624e-34
4.5480549e-21
-4.5558776e-21
6.3362866e-34
-6.4966544e-37
-6.3582299e-34
4.5875086e-21
-4.5955327e-21
4.6035985e-21
-2.562466e-33
-4.6198458e-21
4.6280365e-21
0
0
-4.6528718e-21
-6.4716805e-34
4.6696831e-21
-4.6781718e-21
-4.6867113e-21
0
4.7039147e-21
4.7125642e-21
-4.7212417e-21
-1.3127388e-33
-1.6772026e-51
-6.5911971e-34
4.7559828e-21
-4.7646047e-21
6.6573286e-51
-6.6391296e-34
-4.7905797e-21
0
0
4.818391e-21
6.8620219e-37
-2.0138355e-33
4.8519491e-21
0
0
-4.8943702e-21
1.3613753e-33
4.9264732e-21
0
0
0
-4.990757e-21
7.1148333e-37
5.0227206e-21
-5.0391144e-21
5.055644e-21
-1.409828e-33
-1.0175801e-20
5.1033696e-21
2.1319828e-33
7.1282745e-34
-7.1507417e-34
-5.1662939e-21
0
0
5.2097938e-21
7.2551956e-34
-1.4547778e-33
-6.8077571e-52
-5.2704465e-21
5.2850912e-21
5.3018845e-21
0
-5.3363918e-21
-7.4305151e-34
5.3673012e-21
0
0
-5.4178384e-21
1.5443239e-36
-7.5840686e-52
-5.4651873e-21
5.4814398e-21
-7.616882e-34
7.6540736e-34
-1.5342804e-33
-5.543408e-21
5.5586324e-21
-1.547746e-33
1.5528071e-33
-1.5571658e-33
-5.6208698e-21
5.6370668e-21
-1.5698446e-33
7.8883357e-34
0
-5.7042115e-21
5.7221325e-21
-7.9702442e-34
8.1844278e-37
-8.0224522e-34
8.0576358e-34
5.8176523e-21
-5.8382404e-21
-5.8590736e-21
5.8799784e-21
5.9010515e-21
0
-5.9438666e-21
-5.9655096e-21
0
6.0092449e-21
-8.3737009e-34
8.6021595e-37
8.4264487e-34
-6.0975744e-21
6.1195554e-21
8.5183382e-34
-1.7116992e-33
-6.1867751e-21
-6.2084185e-21
1.2459671e-20
-8.885319e-37
8.7060366e-34
6.3011915e-21
-6.3232023e-21
8.8090124e-34
6.3685057e-21
0
0
0
-6.4682243e-21
-6.4937032e-21
6.5209964e-21
6.5481868e-21
0
-6.5995608e-21
-6.6263003e-21
6.654234e-21
6.6821914e-21
0
-6.7362864e-21
-6.764296e-21
6.7934113e-21
1.8944972e-33
-6.8511508e-21
0
0
0
0
7.0006592e-21
-1.9505232e-33
-7.0629972e-21
7.0944152e-21
9.8930527e-34
-9.9466432e-34
-1.5401126e-51
7.2206497e-21
7.2529224e-21
-1.457069e-20
-1.0160601e-33
1.0197094e-33
-7.3870764e-21
0
7.458866e-21
7.4944344e-21
-7.5301981e-21
-2.099054e-33
7.6049501e-21
0
0
-7.722753e-21
1.0768334e-33
7.805137e-21
0
-7.8868048e-21
1.1265579e-36
-2.2124066e-33
-1.1105181e-33
8.0452629e-21
-8.0830674e-21
1.1540123e-36
-2.2659135e-33
-8.2033584e-21
8.2475473e-21
2.3017366e-33
1.183649e-36
-1.1621645e-33
-8.4144507e-21
8.4606985e-21
0
-4.7504976e-33
-1.1934322e-33
-3.6008964e-33
-1.2369978e-36
-8.7549232e-21
8.8044809e-21
-9.3969371e-51
-1.2358859e-33
2.4847437e-33
-1.2487637e-33
1.8079863e-20
-9.087278e-21
-9.1404425e-21
-1.2770477e-33
1.2844091e-33
1.8593495e-20
-9.3428262e-21
-9.3939078e-21
-2.5666217e-51
0
-2.9181144e-51
-9.6185808e-21
9.6739016e-21
-2.5082337e-51
-1.3567188e-33
-1.3988766e-36
-9.9072449e-21
1.9933099e-20
2.7833382e-33
-1.0082694e-20
1.4068477e-33
-1.4155429e-33
1.0274379e-20
-1.0345431e-20
1.1884373e-50
-4.3639429e-33
2.9276763e-33
-2.9436684e-33
-2.9644465e-33
-3.3047516e-51
0
1.0887374e-20
0
0
-1.1107455e-20
-3.1043972e-33
1.1256149e-20
0
0
-2.2982972e-20
-9.6327156e-33
2.3310329e-20
-1.1741511e-20
1.6803494e-36
-1.6527717e-33
-1.198577e-20
0
0
0
-1.2341683e-20
-3.4480954e-33
1.2522422e-20
0
0
-1.2804307e-20
1.8332839e-36
1.3002624e-20
0
0
-1.329789e-20
-3.716498e-33
-3.7509619e-33
3.7786873e-33
1.3715725e-20
-1.3821217e-20
3.8650968e-33
-3.8948499e-33
3.923134e-33
1.4255908e-20
0
0
-1.4605026e-20
1.3929916e-49
1.483545e-20
0
0
-1.519751e-20
9.2043881e-50
1.5439275e-20
0
0
-1.5817394e-20
9.892375e-50
1.6075285e-20
0
0
-1.6471493e-20
2.3599706e-36
1.6742556e-20
-1.6878769e-20
4.7275559e-33
-4.7664587e-33
4.8035243e-33
1.7441922e-20
0
0
0
0
0
-1.8321314e-20
5.1267372e-33
1.8622946e-20
0
0
0
0
0
0
0
-1.9880274e-20
1.1125404e-32
2.0207181e-20
0
0
0
0
0
0
0
-2.1563484e-20
6.0333307e-33
2.1915751e-20
0
0
-2.2450462e-20
6.2873969e-33
2.2813515e-20
0
0
0
-2.3552914e-20
-6.5957131e-33
2.3930593e-20
0
0
0
0
0
0
0
-2.5484209e-20
3.6497673e-36
2.5883258e-20
0
0
0
0
0
0
0
-2.7530985e-20
-3.9423157e-36
2.7953227e-20
0
0
0
-2.8813875e-20
1.6118849e-32
2.9250611e-20
0
-2.9692337e-20
-8.3109927e-33
3.0138656e-20
0
0
-3.0817666e-20
-3.1045868e-20
3.127537e-20
3.1506493e-20
0
0
0
0
3.2678864e-20
-4.6777958e-36
-6.6313717e-20
-3.3397746e-20
6.7279025e-20
6.77648e-20
-3.4126662e-20
-3.4372511e-20
0
0
0
0
-3.5620431e-20
-9.9666131e-33
3.6129239e-20
0
0
0
0
0
0
0
0
0
0
0
0
0
0
-4.0120957e-20
2.2436055e-32
4.0678606e-20
0
0
4.1526129e-20
-1.1610413e-32
5.9827661e-36
-4.2389341e-20
-4.2680256e-20
-2.3859274e-32
1.2020567e-32
4.3563365e-20
0
0
0
0
0
-4.5378725e-20
2.5366866e-32
4.5999406e-20
0
0
0
0
0
0
0
-4.8563492e-20
2.7139723e-32
4.9226351e-20
0
0
0
0
0
0
0
-5.1974467e-20
4.3578296e-32
5.2688427e-20
0
0
0
0
0
0
0
0
-5.6041604e-20
8.019198e-36
5.682197e-20
0
0
0
0
-5.8836328e-20
5.9250813e-20
5.9669555e-20
-1.2018511e-19
-1.680513e-32
6.0951177e-20
0
0
0
0
-6.3179635e-20
1.766261e-32
1.2821272e-19
-6.457806e-20
-6.5055668e-20
6.553925e-20
0
0
0
-6.7535466e-20
-1.887723e-32
6.8574991e-20
6.9105663e-20
-6.9643713e-20
-7.0189522e-20
7.074366e-20
0
0
-7.2460102e-20
-7.3050658e-20
7.3650699e-20
7.4260744e-20
7.4881458e-20
4.1937156e-32
-7.6157054e-20
0
0
0
-7.8853621e-20
-7.9560876e-20
8.0282729e-20
8.1019663e-20
8.1772017e-20
2.2908038e-32
-8.3324815e-20
0
0
0
-8.6646843e-20
2.4292078e-32
8.8428163e-20
0
0
0
0
0
0
0
-9.6514978e-20
2.7102031e-32
1.976401e-19
2.7774025e-32
-1.0125785e-19
0
0
-1.0518827e-19
1.5145546e-35
-2.9991831e-32
3.0385959e-32
1.1100537e-19
1.1257453e-19
-3.1709144e-32
-1.1586275e-19
0
0
-1.2120163e-19
1.0251198e-31
3.4709083e-32
-1.8060115e-35
1.2918033e-19
-1.3134415e-19
-1.3358132e-19
2.7179011e-19
-7.6721315e-32
-1.4076457e-19
1.4332619e-19
0
-1.4871856e-19
-4.2105787e-32
1.5449451e-19
0
-1.6068566e-19
1.6394638e-19
-1.8580087e-31
-1.7081824e-19
1.744387e-19
0
-1.8207326e-19
0
1.9026412e-19
0
-1.9905157e-19
2.0368351e-19
-1.1566424e-31
-2.1345359e-19
2.1860325e-19
0
-2.2946266e-19
-6.5306563e-32
2.4111568e-19
0
-2.5361985e-19
2.6020894e-19
-7.5895311e-35
-2.7410006e-19
2.8141918e-19
0
-2.9684806e-19
-3.0497506e-19
3.1338899e-19
3.2209947e-19
-3.311167e-19
3.404511e-19
3.5011308e-19
-3.6011301e-19
0
0
0
0
0
0
-4.4052371e-19
6.423337e-49
9.3442307e-19
-4.8123979e-19
-4.9574307e-19
5.1073565e-19
0
0
-5.5879747e-19
-5.7589798e-19
5.9356527e-19
6.1181576e-19
0
-6.5013401e-19
-1.862067e-31
6.9099312e-19
0
0
-7.5736834e-19
-7.8092671e-19
8.0523504e-19
8.303137e-19
0
-8.8286528e-19
2.5279487e-31
9.3875515e-19
-9.6800865e-19
-5.5434107e-31
-1.4626479e-34
-1.0612783e-18
1.0942837e-18
1.1282885e-18
0
0
-1.2365572e-18
3.5381055e-31
1.3142098e-18
0
-1.3964938e-18
-1.4394435e-18
1.4836373e-18
1.5291043e-18
0
0
0
0
0
0
-1.885582e-18
5.3907487e-31
2.0006682e-18
0
0
0
0
0
0
-2.4554431e-18
3.5136485e-48
2.6014007e-18
2.677234e-18
7.6423153e-31
-2.8348001e-18
0
0
0
0
-3.2649294e-18
-9.3182836e-31
3.4523005e-18
-3.5494306e-18
-3.6489115e-18
3.7507847e-18
-2.1398689e-30
-3.2992755e-30
-3.3891396e-30
1.1621407e-30
-2.3866615e-30
1.2252224e-30
4.5344093e-18
0
-4.7822422e-18
4.088437e-30
-7.1641818e-34
-5.1752303e-18
5.3120636e-18
5.4518882e-18
-5.5947473e-18
1.593258e-30
-4.9022076e-30
-3.3546079e-30
-3.4382634e-30
1.7631494e-30
-3.6180145e-30
-6.6833665e-18
6.8520602e-18
7.0241762e-18
-7.1997573e-18
2.0468615e-30
-8.3943969e-30
-2.1502851e-30
2.2041071e-30
2.2555372e-30
2.311437e-30
-8.5293672e-18
0
8.942801e-18
-2.5409461e-30
4.2075682e-47
9.5920987e-18
0
-1.0044839e-17
1.0277284e-17
1.0513827e-17
-1.0754503e-17
0
0
0
0
-1.2021064e-17
3.4101762e-30
-6.9723063e-30
1.2832708e-17
1.3112055e-17
-1.3395849e-17
0
0
0
0
-1.4882425e-17
-2.1591162e-33
1.550905e-17
0
0
0
0
0
0
0
-1.8202297e-17
-1.8560214e-17
1.8922895e-17
1.9290347e-17
0
0
0
0
0
0
-2.1996572e-17
-2.240235e-17
2.2812917e-17
2.3228271e-17
0
0
0
0
0
0
-2.6269041e-17
-2.672234e-17
2.7180321e-17
2.7642963e-17
0
0
0
0
0
0
-3.1010146e-17
1.7494506e-29
3.2012787e-17
0
0
0
0
0
0
-3.5658779e-17
1.0051048e-29
3.6738319e-17
0
0
0
0
-3.9507247e-17
-5.6946684e-33
4.0641847e-17
-4.1214739e-17
2.7925427e-47
4.237144e-17
-4.2955138e-17
2.4181675e-29
4.4132949e-17
-4.4726946e-17
-2.516485e-29
-2.5498299e-29
4.6789133e-46
-2.6163785e-29
-1.3244397e-29
4.8358449e-17
-4.897437e-17
-4.9593171e-17
1.0042957e-16
-2.8205139e-29
-1.0293237e-16
0
5.2728025e-17
-1.4817758e-29
-1.5002334e-29
-4.5485574e-29
-4.6027605e-29
-3.102657e-29
4.7101556e-29
-3.1752616e-29
1.6077226e-29
5.8520679e-17
0
-5.9829955e-17
-8.5957424e-33
-5.0902306e-29
-5.1460819e-29
8.8772595e-33
3.5042712e-29
-1.7714856e-29
-6.4461693e-17
0
6.5796685e-17
-3.6893542e-29
-9.5405659e-33
6.7806651e-17
0
-6.9150747e-17
6.9823808e-17
7.0497449e-17
-7.1171594e-17
0
0
-7.3196324e-17
8.2019374e-29
-4.1358247e-29
4.1765159e-29
-2.1086323e-29
7.6574195e-17
7.7249621e-17
-7.7924835e-17
0
0
0
0
-8.1295298e-17
-2.2760824e-29
-9.1742502e-29
8.3310635e-17
8.3980861e-17
-8.4650201e-17
0
0
0
0
-8.7981373e-17
-8.8644072e-17
8.9305449e-17
8.9965444e-17
0
0
0
0
0
0
-9.4541913e-17
-9.518881e-17
9.5833826e-17
9.6476908e-17
0
0
0
0
0
0
-1.0092019e-16
8.4563078e-29
2.0433904e-16
-1.027906e-16
-3.1022771e-16
-1.0402538e-16
0
2.1050004e-16
-1.1754904e-28
-3.545441e-28
-1.0706729e-16
-2.153353e-16
2.165305e-16
-1.0886005e-16
-1.0945202e-16
1.1004112e-16
-1.1062732e-16
1.5803975e-32
1.117909e-16
1.1236821e-16
-1.1294251e-16
-1.1351376e-16
1.1408193e-16
-1.1464698e-16
-1.637217e-32
1.1576766e-16
0
0
0
2.3594126e-16
-1.1851323e-16
-2.3810507e-16
1.1958852e-16
-1.2012115e-16
-1.2065043e-16
2.4235266e-16
-2.0573723e-46
-1.2221792e-16
1.2273358e-16
2.4649159e-16
1.2375454e-16
-3.7277944e-16
1.2476159e-16
-2.6551952e-45
-3.7726382e-16
2.5249166e-16
1.2673351e-16
1.2721764e-16
2.5539641e-16
-2.5635038e-16
-1.2864859e-16
-1.2911839e-16
1.295846e-16
1.300472e-16
-3.9151854e-16
1.3096154e-16
1.3141326e-16
-1.3186135e-16
-1.3230579e-16
-1.8864425e-32
3.9955121e-16
-1.3361723e-16
2.2318082e-28
-2.2396681e-28
-4.0468721e-16
1.3531457e-16
1.3572974e-16
2.7228247e-16
-1.3654906e-16
-2.7390642e-16
2.7470736e-16
-1.3775048e-16
1.381436e-16
1.3853306e-16
-4.1675652e-16
1.3930095e-16
1.3967939e-16
-2.8010832e-16
-1.4042526e-16
1.407927e-16
4.2346946e-16
-1.4151661e-16
-5.6749233e-16
7.894618e-29
2.8515013e-16
1.4292059e-16
0
2.8720147e-16
3.1953935e-28
-4.3279909e-16
1.4459374e-16
-3.217609e-28
1.4523765e-16
1.455542e-16
-2.9173431e-16
0
0
0
-1.4708312e-16
8.1827028e-29
2.9533934e-16
-1.4795762e-16
-2.9648403e-16
4.4556862e-16
-4.9557252e-28
-2.9814802e-16
1.493443e-16
0
0
0
3.0078088e-16
-1.5064326e-16
-3.0178523e-16
4.534155e-16
-4.3025049e-32
-3.0323984e-16
0
0
-1.5231629e-16
8.4693846e-29
3.0552692e-16
-1.5298194e-16
-3.0639408e-16
4.6022626e-16
-2.5576383e-28
-3.0764416e-16
1.5402371e-16
-1.5422199e-16
3.0883387e-16
1.5460855e-16
-5.1550006e-28
-1.5498182e-16
-3.1032697e-16
4.660256e-16
-8.8401157e-32
-1.5568878e-16
8.6512655e-29
-1.5602259e-16
-1.5618461e-16
8.6782456e-29
4.6949675e-16
-4.4522957e-32
-4.7040095e-16
3.1389237e-16
-3.7655902e-46
-3.1445662e-16
1.5736458e-16
-1.5749767e-16
3.1525517e-16
1.5775434e-16
-3.5058184e-28
-1.5799835e-16
-3.1623128e-16
-1.5822979e-16
-1.5834081e-16
4.7534614e-16
0
-1.5865517e-16
-8.8120384e-29
8.8173378e-29
-8.8202075e-29
1.590309e-16
-1.7664421e-28
1.592003e-16
-5.3047634e-28
-4.7807231e-16
3.1886287e-16
4.7850718e-16
1.5957032e-16
-4.7890563e-16
-3.1939414e-16
4.7926773e-16
-1.5981174e-16
-4.7959369e-16
0
0
1.6000507e-16
1.6004592e-16
0
-1.6011868e-16
-1.6015061e-16
3.2035917e-16
-3.5570511e-28
-4.8068595e-16
1.7790046e-28
1.6026589e-16
1.602801e-16
1.6029138e-16
-1.6029973e-16
-1.6030512e-16
1.6030747e-16
4.809204e-16
-1.6030321e-16
-6.4118679e-16
1.6028728e-16
3.205499e-16
1.6025972e-16
0
-1.6022056e-16
0
-1.6016982e-16
1.6014011e-16
-3.5548736e-28
1.6007205e-16
-5.3298518e-28
-4.799774e-16
1.5994836e-16
1.5990139e-16
-1.5985154e-16
-1.5979882e-16
1.5974324e-16
4.7905438e-16
-1.5962348e-16
-6.3823727e-16
2.6563635e-28
1.5942241e-16
3.1869935e-16
1.5927408e-16
-3.1839127e-16
-8.8320549e-29
-2.259955e-32
1.5894321e-16
-3.5270276e-28
-1.5876068e-16
4.7599545e-16
-1.7603322e-28
-3.1693111e-16
0
0
-1.5814485e-16
8.7719914e-29
3.1583367e-16
-1.5779857e-16
-3.1535491e-16
-1.5755351e-16
1.7472285e-28
4.718913e-16
1.5716464e-16
-1.5702933e-16
3.1378237e-16
-8.9102175e-32
-5.2161516e-28
-1.5645972e-16
-3.1262044e-16
4.6847363e-16
-1.7323104e-28
-3.1168934e-16
0
0
3.107071e-16
-3.44556e-28
-1.7204274e-28
-4.4007277e-32
-4.6397675e-16
-3.0895629e-16
2.5697942e-28
4.6232422e-16
1.5391877e-16
-1.5372661e-16
3.0706321e-16
1.7018019e-28
-5.0995934e-28
-1.5292949e-16
-3.0544617e-16
4.5754148e-16
-1.5230172e-16
-1.5208675e-16
1.5186894e-16
-1.5164826e-16
3.0284946e-16
-1.6785314e-28
-1.509691e-16
-2.1421016e-32
-3.0100408e-16
3.0052845e-16
-2.4978076e-28
-2.9956001e-16
1.495336e-16
0
-1.4903222e-16
-8.2561532e-29
4.455582e-16
-1.4825869e-16
-2.9599024e-16
-1.4772869e-16
-1.4745939e-16
1.4718723e-16
1.4691221e-16
1.4663433e-16
-1.4635358e-16
8.1079935e-29
-8.0900204e-29
1.4549417e-16
-1.6123753e-28
1.4490693e-16
-4.8161395e-28
-4.3292473e-16
2.8800923e-16
1.115895e-46
-1.4338879e-16
-1.5881644e-28
7.9263797e-29
4.2733096e-16
-1.421229e-16
-4.2539791e-16
0
0
1.4081145e-16
1.4047649e-16
2.8027736e-16
-1.3979804e-16
-2.7890914e-16
2.7821654e-16
-1.3875915e-16
-4.1522162e-16
1.3805244e-16
1.3769486e-16
1.3733447e-16
1.3697127e-16
-2.7321055e-16
-1.3623647e-16
1.3586488e-16
4.0647151e-16
-1.3511334e-16
-1.8998783e-45
-2.2368631e-28
-2.6793038e-16
2.6715389e-16
2.6637189e-16
-1.327922e-16
-2.647914e-16
2.6399294e-16
1.3159451e-16
-3.9356949e-16
-3.9234732e-16
1.3037234e-16
2.599191e-16
1.2954407e-16
-7.1674686e-29
-2.5741012e-16
-1.2828156e-16
1.2785541e-16
2.5485322e-16
-1.8047101e-32
-2.5312227e-16
2.5224895e-16
-2.0933025e-28
-2.5048671e-16
1.2479892e-16
2.4870385e-16
2.4780474e-16
0
-1.2299566e-16
-3.6761558e-16
-1.2207889e-16
1.2161676e-16
0
0
0
0
-1.1926934e-16
6.5938917e-29
3.5494042e-16
-1.1783199e-16
-3.5204447e-16
-1.16862e-16
1.9382153e-28
2.3176553e-16
1.1538972e-16
-1.1489442e-16
2.2879378e-16
1.1389714e-16
-3.7768995e-28
-1.1289108e-16
-2.2476962e-16
3.356292e-16
-3.1652085e-32
-1.1085326e-16
1.5680055e-32
-1.0982186e-16
-1.0930311e-16
1.2076497e-28
3.2477898e-16
-3.0620127e-32
-3.2162521e-16
-2.1335983e-16
5.8890899e-29
2.1123469e-16
1.0508332e-16
-1.045475e-16
2.0801983e-16
1.0347059e-16
-3.4277309e-28
-1.0238684e-16
-2.0368494e-16
3.0388943e-16
-1.1187522e-28
-1.0019975e-16
-9.9649068e-17
-9.9096889e-17
-5.4670977e-29
5.4376943e-29
1.948633e-16
5.3758543e-29
-1.9262915e-16
1.9150812e-16
-4.7557758e-28
-2.8388775e-16
1.8813004e-16
-1.0382536e-28
-1.8586616e-16
9.2365448e-17
9.1796755e-17
1.8245407e-16
-9.0656326e-17
-2.7025399e-16
0
0
0
2.6336772e-16
2.6164017e-16
-2.5991044e-16
-2.5817867e-16
1.709633e-16
-2.4130925e-32
8.4324074e-17
-2.7895491e-28
-2.4949323e-16
2.4775169e-16
-4.0973093e-28
-1.6284345e-16
-4.4860933e-29
4.4560854e-29
1.5935241e-16
-7.9093929e-17
7.851151e-17
-2.5958337e-28
-2.3203925e-16
2.3029149e-16
7.6181272e-17
-1.6785228e-28
1.5003283e-16
-1.4886841e-16
-7.3852203e-17
-7.327045e-17
-2.1806698e-16
8.0050706e-29
7.1527152e-17
2.1284056e-16
-4.6870856e-28
-2.0936316e-16
0
6.8630848e-17
1.3610675e-16
-6.7476603e-17
6.690058e-17
-2.2089365e-28
-1.315019e-16
1.9553231e-16
-1.4342404e-28
-7.1123021e-29
-7.0453178e-29
-6.9820917e-29
6.2324699e-17
-1.852723e-16
-1.8357409e-16
6.0626537e-17
1.2012599e-16
0
-5.8939968e-17
6.4794707e-29
-1.2838381e-28
6.3574182e-29
5.6711318e-17
-5.6158034e-17
-5.5606389e-17
1.6516929e-16
2.8328855e-45
-8.9873913e-29
5.3417069e-17
-5.8668411e-29
1.046667e-16
-1.0358874e-16
-1.0251472e-16
-5.072237e-17
5.5710768e-29
4.9658597e-17
0
0
0
9.5113976e-17
-4.7037211e-17
-9.3039518e-17
1.3801402e-16
-4.5491986e-17
-1.3494521e-16
1.3342187e-16
-1.4643575e-28
-8.6931896e-17
1.2889737e-16
8.4936487e-17
0
-8.2962206e-17
-1.3650897e-28
-4.0504777e-17
-8.0041502e-17
3.9539526e-17
0
7.7171186e-17
1.0832348e-32
4.1789663e-29
-3.7176383e-17
-1.1013762e-16
1.0875508e-16
-5.9635467e-29
-1.0601725e-16
1.0466209e-16
-1.7207439e-28
-6.798643e-17
3.3550828e-17
-3.3111595e-17
6.5351075e-17
3.2242678e-17
-1.4126922e-28
-3.1386628e-17
-6.1926942e-17
-3.054358e-17
-3.0126972e-17
5.9427323e-17
2.9303668e-17
0
-2.8493696e-17
1.5598153e-29
7.5928473e-47
2.7303937e-17
-7.6494505e-33
2.6527686e-17
8.7987297e-46
-7.7295256e-17
7.6166775e-17
7.5048594e-17
-4.9293817e-17
-4.8562124e-17
0
4.7119444e-17
-2.3204242e-17
-6.8556684e-17
6.7511038e-17
-3.6905411e-29
-4.3633955e-17
2.1478823e-17
0
-2.081291e-17
-2.0485152e-17
2.0160859e-17
-3.3038163e-29
3.9045286e-17
1.0918888e-32
-5.6694658e-17
0
5.4862638e-17
3.597471e-17
-5.3071752e-17
-3.4794447e-17
5.1321792e-17
1.6820694e-17
-6.6150017e-17
-1.6257685e-17
3.1962456e-17
3.1416246e-17
-1.7138921e-29
-1.5171912e-17
-1.4908779e-17
-1.464894e-17
1.4392383e-17
-1.5696543e-29
2.7778122e-17
-4.5434969e-29
-4.0196084e-17
0
0
2.5374255e-17
-2.7660233e-29
-1.2228536e-17
3.6011777e-17
-1.1782411e-17
-1.9253364e-29
-3.7795975e-29
-3.3408718e-17
1.0926905e-17
-5.9492054e-30
1.1675693e-29
1.031679e-17
-1.0119308e-17
1.4103891e-33
-5.4025756e-30
1.0594164e-29
9.3582172e-18
0
-8.9946643e-18
1.7634103e-17
8.642181e-18
-1.6940059e-17
0
8.1337932e-18
-7.96966e-18
-1.5616298e-17
2.29477e-17
-2.4958987e-29
-2.4442495e-29
7.187802e-18
-2.1117051e-17
9.7951193e-34
6.7488319e-18
6.6073785e-18
-6.4683148e-18
-6.3316146e-18
6.1972531e-18
0
-5.9354463e-18
1.1615897e-17
-9.4645819e-30
-5.5596301e-18
-1.2077235e-29
-1.1810581e-29
-1.4789074e-33
-1.0177912e-17
1.492964e-17
1.4598568e-17
0
-9.3030402e-18
-1.3641466e-17
-6.316351e-34
4.3442405e-18
4.2456406e-18
-4.1489109e-18
-4.0540244e-18
3.9609543e-18
0
7.5603286e-18
7.3847939e-18
-1.0819045e-17
-3.5219933e-18
3.4393052e-18
-9.5447448e-34
-3.2788291e-18
-6.4019881e-18
-3.1247302e-18
5.0798351e-30
1.1907281e-17
-9.6753889e-30
-8.5047074e-18
2.7661316e-18
2.6987898e-18
2.632855e-18
-2.5683042e-18
-2.5051133e-18
-2.4432587e-18
-6.7720939e-34
2.3234727e-18
-2.2655001e-18
6.6263388e-18
4.3065777e-18
-6.2970147e-18
2.0459058e-18
3.987944e-18
-3.8863693e-18
1.8935246e-18
-1.8449717e-18
-3.5950098e-18
5.2533079e-18
-1.7057447e-18
5.534208e-30
4.8542727e-18
-3.1515199e-18
-1.534402e-18
-1.4939979e-18
-2.9090551e-18
1.4159723e-18
1.3097323e-73
2.6830841e-18
1.3056348e-18
-1.4105337e-30
-1.2363512e-18
-2.4058789e-18
2.3406508e-18
-1.1384941e-18
-3.3222935e-18
3.231365e-18
1.0475493e-18
-1.4817717e-46
9.9054934e-19
-2.8892787e-18
-9.363149e-19
9.1020224e-19
1.7694821e-18
-8.5991595e-19
8.3571099e-19
-2.7047043e-30
-1.5782175e-18
2.300068e-18
8.2731166e-31
-3.2134378e-30
1.5602634e-30
-1.3652129e-18
1.3258336e-18
-6.4373632e-19
-2.5002217e-18
6.0686368e-19
1.1783009e-18
0
1.1102255e-18
-1.1962188e-30
-2.9720411e-34
-5.6324091e-31
-4.9227822e-19
-4.7760821e-19
4.6333537e-19
4.4944902e-19
-8.7187572e-19
8.4558505e-19
-4.5516864e-31
-7.9514012e-19
7.7095573e-19
1.2446624e-30
-4.0219864e-31
-3.5117847e-19
-6.8074682e-19
3.2986953e-19
-3.1966063e-19
1.7192941e-31
3.0010215e-19
5.8147745e-19
-2.8164133e-19
-5.4560363e-19
2.6421411e-19
-2.5587307e-19
4.1266959e-31
-2.3990958e-19
-5.1585395e-31
4.4972637e-19
4.3533156e-19
4.6770887e-31
-6.7912116e-31
6.5719847e-31
-1.9092772e-19
-1.847337e-19
-1.7872398e-19
1.7289182e-19
0
0
-1.5641977e-19
8.3960527e-32
2.0784529e-35
1.5698607e-31
1.3670739e-19
0
-1.277254e-19
-2.4688007e-19
1.1928848e-19
2.3053672e-19
2.227516e-19
2.1520978e-19
-3.1185019e-19
-3.3440478e-31
2.9093114e-19
-1.8730883e-19
-1.808752e-19
0
-8.4312423e-20
1.627944e-19
7.8574472e-20
-1.5168197e-19
-7.3194801e-20
7.8415317e-32
2.0448075e-19
-6.5769473e-20
-1.9037307e-19
1.8365919e-19
5.9052589e-20
-1.7086465e-19
6.0968313e-32
5.2965361e-20
1.0214667e-19
5.4659391e-32
-9.4972705e-20
9.1562776e-20
-4.4131344e-20
-1.2760774e-19
0
3.950347e-20
7.6127932e-20
-2.0367921e-32
3.5336247e-20
6.8090886e-20
-6.5599995e-20
-6.3194199e-20
0
-2.9311742e-20
-3.1336267e-32
-3.0177243e-32
-2.9051317e-32
7.5585211e-20
4.8516594e-20
0
-4.4973622e-20
-4.8056528e-32
-2.0835676e-20
-6.0157365e-20
1.9296484e-20
-1.0303837e-32
2.5390799e-36
1.7195129e-20
3.309778e-20
-1.5925123e-20
-3.0644405e-20
1.4739904e-20
0
2.7274122e-20
-1.3118122e-20
-3.7863399e-20
1.2143641e-20
1.1682922e-20
2.2475564e-20
-1.0808023e-20
-3.1180258e-20
9.9944048e-21
-1.066968e-32
-1.8493905e-20
8.8964835e-21
8.5584886e-21
1.6463999e-20
2.3750649e-20
-1.5225715e-20
-1.4640597e-20
1.4080875e-20
7.5176164e-33
-1.3035181e-20
1.2541896e-20
6.6972086e-33
-1.1605309e-20
0
1.0735673e-20
1.0329525e-20
0
-1.4353219e-20
-4.6043768e-21
-1.2591848e-36
-4.2626405e-21
-4.102106e-21
-4.3830363e-33
7.605928e-21
7.3244502e-21
-1.1743288e-32
-6.788053e-21
6.533369e-21
1.0475649e-32
-6.0615003e-21
0
0
0
0
5.0311065e-21
2.6911273e-33
-4.6743944e-21
-2.2553332e-21
4.3523815e-21
-6.991772e-33
-4.0464706e-21
3.8982738e-21
2.0858068e-33
-1.8125128e-21
3.50209e-21
-5.6364081e-33
-3.2690389e-21
3.1559756e-21
3.0442453e-21
-2.9340435e-21
-2.8303919e-21
0
0
0
0
-1.1967829e-21
1.1559771e-21
1.1131267e-21
-1.1931455e-33
1.1877712e-76
-1.0093159e-21
-1.955731e-21
-9.4711486e-22
1.6960624e-21
2.3050974e-21
-7.9891285e-22
-1.6404247e-21
2.2712207e-21
1.4262794e-21
-2.1168308e-21
-1.3982732e-21
-6.8954576e-22
-7.4935633e-34
1.3170767e-21
0
-6.1234448e-22
5.8532924e-22
-1.2595484e-33
-1.5770061e-37
-1.8070166e-33
-5.2913258e-22
-5.1291524e-22
1.4034231e-37
9.5043732e-22
9.1949056e-22
-1.489693e-33
-8.7203e-22
0
0
0
-3.8197945e-22
-3.7172758e-22
3.6123551e-22
3.4868634e-22
-3.3536383e-22
6.4527506e-22
9.3639971e-22
0
-5.9661526e-22
-3.2179008e-34
-2.786705e-22
-8.0008535e-22
2.5571828e-22
-4.1152424e-34
4.8231964e-22
-1.5729371e-33
-4.5968084e-22
-1.2280924e-34
-3.0140573e-38
2.0409766e-22
-1.97693e-22
3.8525665e-22
1.867362e-22
-3.5792268e-22
3.4111854e-22
4.641187e-38
-1.7613562e-34
-1.5615294e-22
-4.6170651e-22
2.9770952e-22
1.0384079e-51
1.3013615e-22
-2.0470358e-34
-2.4039275e-22
1.2049949e-22
2.4143047e-22
-1.3135944e-34
-3.3535333e-22
2.8974459e-38
9.3353656e-23
-8.9219177e-23
1.7879579e-22
9.1296697e-23
-1.8362626e-22
1.7879592e-22
9.2421153e-35
-4.1583786e-34
1.5122762e-34
-1.3033328e-22
1.3167271e-22
-6.793737e-23
-1.379106e-22
6.7731691e-23
-6.3608944e-23
1.1445671e-22
-8.5494115e-35
-1.4518643e-22
0
0
1.5809596e-22
5.282881e-23
-1.0155348e-22
9.3450889e-23
2.3971993e-38
-1.7413081e-34
-4.3088009e-35
-8.0785037e-23
8.4991042e-23
8.7546416e-23
-4.3584413e-23
-1.250075e-22
-3.8601641e-23
3.605397e-23
0
0
-3.8882437e-23
2.2698153e-35
1.2526073e-22
1.1631175e-38
-7.7508181e-23
-3.6959263e-23
4.1021259e-35
1.1632976e-22
9.2048506e-35
-8.7483928e-23
0
-4.3896917e-23
8.4300514e-23
4.1368945e-23
-9.4678535e-35
-4.5423904e-23
-9.697408e-23
5.066558e-23
0
0
0
0
-5.1865581e-23
3.0551714e-35
1.7364513e-22
-5.9459768e-23
-1.7850806e-22
1.7667591e-22
5.9115513e-23
-1.2142775e-22
-6.3170852e-23
-1.0944998e-34
2.0335871e-22
-3.9300536e-38
-2.3325587e-34
-7.0963091e-23
-1.442875e-22
-7.3391898e-23
-8.2867308e-35
7.6182367e-23
7.8120588e-23
8.033827e-23
8.2399216e-23
-1.8576491e-34
-1.6798634e-22
0
0
-8.8026397e-23
-1.5131799e-34
-1.3258462e-38
1.3409133e-38
9.4127957e-23
1.883144e-22
1.9108859e-22
-1.9633831e-22
-1.1249607e-34
-1.0363817e-22
-3.1313754e-22
0
0
1.0547985e-22
1.0818207e-22
0
-1.1317441e-22
6.3030855e-35
1.1311094e-22
-1.1342422e-22
2.3037066e-22
-3.9257795e-34
-3.6185246e-22
1.2219805e-22
1.2212769e-22
2.4347297e-22
-1.2241829e-22
-3.7285517e-22
1.2679299e-22
-7.1628735e-35
2.6013188e-22
1.300222e-22
-2.6032711e-22
2.6251123e-22
-3.387053e-51
-2.7017769e-22
0
0
2.7370485e-22
-1.5284335e-34
-4.6465797e-34
-2.7330907e-51
-4.2837127e-22
-1.5832203e-34
1.4208311e-22
2.8508637e-22
2.8848702e-22
-2.935506e-22
-3.3087301e-34
-1.4956155e-22
-4.9374317e-34
1.4709606e-22
-2.9513025e-22
0
-1.5286775e-22
1.7258684e-34
1.5588064e-22
3.0789631e-22
1.6890754e-34
-3.0447756e-22
0
0
-1.6059663e-22
8.9735893e-35
4.8002311e-22
1.7510832e-34
-3.1393945e-22
0
1.6094062e-22
-1.6405591e-22
-1.6592364e-22
-1.6556285e-22
-1.6370859e-22
3.2490574e-22
4.8815213e-22
-1.6440371e-22
-3.3417285e-22
5.0825106e-22
3.254248e-52
-3.3784365e-22
0
0
0
0
3.4496003e-22
3.461823e-22
-1.7203513e-22
-5.1278924e-22
-1.8972212e-34
1.7184447e-22
-3.4802384e-22
-3.5248743e-22
1.7687886e-22
7.0117343e-22
3.4662585e-22
-5.1733812e-22
-3.4597375e-22
5.2444199e-22
3.9290356e-34
-3.5601972e-22
0
0
0
3.5004251e-22
1.9496657e-34
-3.9135986e-34
1.762132e-22
-5.2625643e-22
1.7445041e-22
1.7395784e-22
-5.2205156e-22
-3.4827517e-22
1.7363729e-22
3.4456641e-22
3.4145267e-22
-5.6548787e-34
1.8825833e-34
-4.8217046e-38
-3.3791692e-22
0
-1.6407235e-22
-1.6218599e-22
1.6140705e-22
1.61585e-22
-1.6138276e-22
-1.5948883e-22
3.115472e-22
1.5200337e-22
-1.4966222e-22
1.48966e-22
-1.4923858e-22
-2.9780925e-22
0
0
4.111064e-22
1.3367988e-22
-2.6419771e-22
-1.3179958e-22
-1.3117771e-22
2.5733721e-22
-1.3778831e-34
-2.3772999e-22
0
1.123294e-22
3.3356575e-22
2.4418317e-34