/*--------------------------------*- C++ -*----------------------------------*\
  =========                 |
  \\      /  F ield         | OpenFOAM: The Open Source CFD Toolbox
   \\    /   O peration     | Website:  https://openfoam.org
    \\  /    A nd           | Version:  7
     \\/     M anipulation  |
\*---------------------------------------------------------------------------*/
FoamFile
{
    version     2.0;
    format      ascii;
    class       volScalarField;
    location    "0.001";
    object      rho;
}
// * * * * * * * * * * * * * * * * * * * * * * * * * * * * * * * * * * * * * //

dimensions      [1 -3 0 0 0 0 0];

internalField   nonuniform List<scalar> 
5000
(
1.4235637
1.4235637
1.4235637
1.4235637
1.4235637
1.4235637
1.4235637
1.4235637
1.4235637
1.4235637
1.4235637
1.4235637
1.4235637
1.4235637
1.4235637
1.4235637
1.4235637
1.4235637
1.4235637
1.4235637
1.4235637
1.4235637
1.4235637
1.4235637
1.4235637
1.4235637
1.4235637
1.4235637
1.4235637
1.4235637
1.4235637
1.4235637
1.4235637
1.4235637
1.4235637
1.4235637
1.4235637
1.4235637
1.4235637
1.4235637
1.4235637
1.4235637
1.4235637
1.4235637
1.4235637
1.4235637
1.4235637
1.4235637
1.4235637
1.4235637
1.4235637
1.4235637
1.4235637
1.4235637
1.4235637
1.4235637
1.4235637
1.4235637
1.4235637
1.4235637
1.4235637
1.4235637
1.4235637
1.4235637
1.4235637
1.4235637
1.4235637
1.4235637
1.4235637
1.4235637
1.4235637
1.4235637
1.4235637
1.4235637
1.4235637
1.4235637
1.4235637
1.4235637
1.4235637
1.4235637
1.4235637
1.4235637
1.4235637
1.4235637
1.4235637
1.4235637
1.4235637
1.4235637
1.4235637
1.4235637
1.4235637
1.4235637
1.4235637
1.4235637
1.4235637
1.4235637
1.4235637
1.4235637
1.4235637
1.4235637
1.4235637
1.4235637
1.4235637
1.4235637
1.4235637
1.4235637
1.4235637
1.4235637
1.4235637
1.4235637
1.4235637
1.4235637
1.4235637
1.4235637
1.4235637
1.4235637
1.4235637
1.4235637
1.4235637
1.4235637
1.4235637
1.4235637
1.4235637
1.4235637
1.4235637
1.4235637
1.4235637
1.4235637
1.4235637
1.4235637
1.4235637
1.4235637
1.4235637
1.4235637
1.4235637
1.4235637
1.4235637
1.4235637
1.4235637
1.4235637
1.4235637
1.4235637
1.4235637
1.4235637
1.4235637
1.4235637
1.4235637
1.4235637
1.4235637
1.4235637
1.4235637
1.4235637
1.4235637
1.4235637
1.4235637
1.4235637
1.4235637
1.4235637
1.4235637
1.4235637
1.4235637
1.4235637
1.4235637
1.4235637
1.4235637
1.4235637
1.4235637
1.4235637
1.4235637
1.4235637
1.4235637
1.4235637
1.4235637
1.4235637
1.4235637
1.4235637
1.4235637
1.4235637
1.4235637
1.4235637
1.4235637
1.4235637
1.4235637
1.4235637
1.4235637
1.4235637
1.4235637
1.4235637
1.4235637
1.4235637
1.4235637
1.4235637
1.4235637
1.4235637
1.4235637
1.4235637
1.4235637
1.4235637
1.4235637
1.4235637
1.4235637
1.4235637
1.4235637
1.4235637
1.4235637
1.4235637
1.4235637
1.4235637
1.4235637
1.4235637
1.4235637
1.4235637
1.4235637
1.4235637
1.4235637
1.4235637
1.4235637
1.4235637
1.4235637
1.4235637
1.4235637
1.4235637
1.4235637
1.4235637
1.4235637
1.4235637
1.4235637
1.4235637
1.4235637
1.4235637
1.4235637
1.4235637
1.4235637
1.4235637
1.4235637
1.4235637
1.4235637
1.4235637
1.4235637
1.4235637
1.4235637
1.4235637
1.4235637
1.4235637
1.4235637
1.4235637
1.4235637
1.4235637
1.4235637
1.4235637
1.4235637
1.4235637
1.4235637
1.4235637
1.4235637
1.4235637
1.4235637
1.4235637
1.4235637
1.4235637
1.4235637
1.4235637
1.4235637
1.4235637
1.4235637
1.4235637
1.4235637
1.4235637
1.4235637
1.4235637
1.4235637
1.4235637
1.4235637
1.4235637
1.4235637
1.4235637
1.4235637
1.4235637
1.4235637
1.4235637
1.4235637
1.4235637
1.4235637
1.4235637
1.4235637
1.4235637
1.4235637
1.4235637
1.4235637
1.4235637
1.4235637
1.4235637
1.4235637
1.4235637
1.4235637
1.4235637
1.4235637
1.4235637
1.4235637
1.4235637
1.4235637
1.4235637
1.4235637
1.4235637
1.4235637
1.4235637
1.4235637
1.4235637
1.4235637
1.4235637
1.4235637
1.4235637
1.4235637
1.4235637
1.4235637
1.4235637
1.4235637
1.4235637
1.4235637
1.4235637
1.4235637
1.4235637
1.4235637
1.4235637
1.4235637
1.4235637
1.4235637
1.4235637
1.4235637
1.4235637
1.4235637
1.4235637
1.4235637
1.4235637
1.4235637
1.4235637
1.4235637
1.4235637
1.4235637
1.4235637
1.4235637
1.4235637
1.4235637
1.4235637
1.4235637
1.4235637
1.4235637
1.4235637
1.4235637
1.4235637
1.4235637
1.4235637
1.4235637
1.4235637
1.4235637
1.4235637
1.4235637
1.4235637
1.4235637
1.4235637
1.4235637
1.4235637
1.4235637
1.4235637
1.4235637
1.4235637
1.4235637
1.4235637
1.4235637
1.4235637
1.4235637
1.4235637
1.4235637
1.4235637
1.4235637
1.4235637
1.4235637
1.4235637
1.4235637
1.4235637
1.4235637
1.4235637
1.4235637
1.4235637
1.4235637
1.4235637
1.4235637
1.4235637
1.4235637
1.4235637
1.4235637
1.4235637
1.4235637
1.4235637
1.4235637
1.4235637
1.4235636
1.4235636
1.4235636
1.4235636
1.4235636
1.4235636
1.4235636
1.4235636
1.4235636
1.4235636
1.4235636
1.4235636
1.4235636
1.4235636
1.4235636
1.4235636
1.4235636
1.4235636
1.4235636
1.4235636
1.4235636
1.4235636
1.4235636
1.4235636
1.4235636
1.4235636
1.4235636
1.4235636
1.4235636
1.4235636
1.4235636
1.4235636
1.4235636
1.4235636
1.4235635
1.4235635
1.4235635
1.4235635
1.4235635
1.4235635
1.4235635
1.4235635
1.4235635
1.4235635
1.4235635
1.4235634
1.4235634
1.4235634
1.4235634
1.4235634
1.4235634
1.4235633
1.4235633
1.4235633
1.4235633
1.4235633
1.4235632
1.4235632
1.4235632
1.4235632
1.4235631
1.4235631
1.4235631
1.423563
1.423563
1.423563
1.4235629
1.4235629
1.4235629
1.4235628
1.4235628
1.4235627
1.4235627
1.4235626
1.4235625
1.4235625
1.4235624
1.4235624
1.4235623
1.4235622
1.4235621
1.423562
1.423562
1.4235619
1.4235618
1.4235617
1.4235616
1.4235614
1.4235613
1.4235612
1.4235611
1.4235609
1.4235608
1.4235606
1.4235605
1.4235603
1.4235602
1.42356
1.4235598
1.4235596
1.4235594
1.4235592
1.4235589
1.4235587
1.4235584
1.4235582
1.4235579
1.4235576
1.4235573
1.423557
1.4235566
1.4235563
1.4235559
1.4235555
1.4235551
1.4235547
1.4235543
1.4235538
1.4235533
1.4235528
1.4235523
1.4235518
1.4235512
1.4235506
1.42355
1.4235493
1.4235486
1.4235479
1.4235472
1.4235464
1.4235456
1.4235447
1.4235439
1.4235429
1.423542
1.423541
1.4235399
1.4235388
1.4235377
1.4235365
1.4235353
1.423534
1.4235327
1.4235313
1.4235298
1.4235283
1.4235267
1.4235251
1.4235234
1.4235216
1.4235197
1.4235178
1.4235158
1.4235137
1.4235116
1.4235093
1.423507
1.4235045
1.423502
1.4234994
1.4234966
1.4234938
1.4234909
1.4234878
1.4234846
1.4234813
1.4234779
1.4234743
1.4234707
1.4234668
1.4234629
1.4234588
1.4234545
1.4234501
1.4234455
1.4234407
1.4234358
1.4234307
1.4234254
1.4234199
1.4234143
1.4234084
1.4234023
1.423396
1.4233895
1.4233828
1.4233758
1.4233686
1.4233611
1.4233534
1.4233454
1.4233372
1.4233286
1.4233198
1.4233107
1.4233013
1.4232916
1.4232816
1.4232712
1.4232605
1.4232495
1.4232381
1.4232263
1.4232142
1.4232017
1.4231888
1.4231755
1.4231617
1.4231476
1.423133
1.423118
1.4231025
1.4230865
1.4230701
1.4230532
1.4230357
1.4230178
1.4229993
1.4229803
1.4229607
1.4229406
1.4229199
1.4228986
1.4228767
1.4228542
1.422831
1.4228073
1.4227828
1.4227577
1.4227319
1.4227054
1.4226781
1.4226502
1.4226215
1.422592
1.4225618
1.4225307
1.4224989
1.4224663
1.4224328
1.4223984
1.4223632
1.4223271
1.4222901
1.4222522
1.4222133
1.4221735
1.4221327
1.422091
1.4220482
1.4220044
1.4219596
1.4219138
1.4218668
1.4218188
1.4217697
1.4217195
1.4216681
1.4216156
1.4215619
1.421507
1.4214509
1.4213935
1.421335
1.4212751
1.421214
1.4211516
1.4210879
1.4210229
1.4209565
1.4208888
1.4208196
1.4207491
1.4206772
1.4206038
1.420529
1.4204527
1.420375
1.4202957
1.4202149
1.4201326
1.4200488
1.4199634
1.4198764
1.4197878
1.4196976
1.4196058
1.4195123
1.4194172
1.4193205
1.419222
1.4191218
1.4190199
1.4189163
1.418811
1.4187039
1.418595
1.4184843
1.4183719
1.4182576
1.4181416
1.4180237
1.4179039
1.4177823
1.4176588
1.4175335
1.4174063
1.4172771
1.4171461
1.4170131
1.4168782
1.4167414
1.4166026
1.4164619
1.4163192
1.4161746
1.4160279
1.4158793
1.4157287
1.4155761
1.4154215
1.4152648
1.4151062
1.4149455
1.4147828
1.4146181
1.4144514
1.4142826
1.4141117
1.4139389
1.4137639
1.413587
1.4134079
1.4132269
1.4130437
1.4128585
1.4126713
1.412482
1.4122906
1.4120972
1.4119018
1.4117043
1.4115047
1.4113031
1.4110995
1.4108938
1.410686
1.4104762
1.4102644
1.4100506
1.4098348
1.4096169
1.409397
1.4091751
1.4089512
1.4087253
1.4084975
1.4082676
1.4080358
1.407802
1.4075663
1.4073286
1.4070889
1.4068473
1.4066039
1.4063585
1.4061111
1.4058619
1.4056109
1.4053579
1.4051031
1.4048464
1.4045879
1.4043276
1.4040655
1.4038015
1.4035358
1.4032683
1.4029991
1.4027281
1.4024553
1.4021809
1.4019047
1.4016269
1.4013474
1.4010662
1.4007834
1.4004989
1.4002128
1.3999252
1.3996359
1.3993451
1.3990528
1.3987589
1.3984635
1.3981666
1.3978682
1.3975684
1.3972671
1.3969644
1.3966603
1.3963548
1.396048
1.3957397
1.3954302
1.3951193
1.3948072
1.3944938
1.3941791
1.3938632
1.3935461
1.3932278
1.3929083
1.3925877
1.3922659
1.391943
1.3916191
1.391294
1.390968
1.3906409
1.3903128
1.3899837
1.3896536
1.3893226
1.3889907
1.3886579
1.3883242
1.3879897
1.3876543
1.3873182
1.3869812
1.3866435
1.3863051
1.3859659
1.3856261
1.3852856
1.3849444
1.3846026
1.3842602
1.3839173
1.3835738
1.3832297
1.3828852
1.3825402
1.3821947
1.3818488
1.3815025
1.3811558
1.3808087
1.3804613
1.3801136
1.3797656
1.3794174
1.3790689
1.3787202
1.3783713
1.3780223
1.3776731
1.3773238
1.3769744
1.376625
1.3762755
1.375926
1.3755765
1.3752271
1.3748777
1.3745284
1.3741793
1.3738303
1.3734814
1.3731327
1.3727843
1.3724361
1.3720882
1.3717405
1.3713932
1.3710463
1.3706997
1.3703535
1.3700077
1.3696624
1.3693176
1.3689732
1.3686294
1.3682862
1.3679435
1.3676015
1.3672601
1.3669193
1.3665793
1.3662399
1.3659013
1.3655635
1.3652264
1.3648902
1.3645548
1.3642203
1.3638867
1.363554
1.3632222
1.3628915
1.3625617
1.362233
1.3619053
1.3615787
1.3612532
1.3609288
1.3606056
1.3602836
1.3599628
1.3596432
1.3593249
1.3590079
1.3586922
1.3583778
1.3580648
1.3577532
1.3574429
1.3571342
1.3568268
1.356521
1.3562167
1.3559139
1.3556127
1.355313
1.355015
1.3547185
1.3544238
1.3541307
1.3538393
1.3535497
1.3532617
1.3529756
1.3526912
1.3524087
1.352128
1.3518491
1.3515721
1.3512971
1.3510239
1.3507527
1.3504834
1.3502161
1.3499508
1.3496875
1.3494263
1.3491671
1.34891
1.3486549
1.348402
1.3481512
1.3479025
1.347656
1.3474117
1.3471695
1.3469296
1.3466919
1.3464564
1.3462231
1.3459921
1.3457634
1.3455369
1.3453127
1.3450909
1.3448713
1.3446541
1.3444393
1.3442267
1.3440165
1.3438087
1.3436032
1.3434002
1.3431995
1.3430011
1.3428052
1.3426117
1.3424206
1.3422318
1.3420455
1.3418616
1.3416801
1.341501
1.3413243
1.3411501
1.3409782
1.3408088
1.3406417
1.3404771
1.3403148
1.340155
1.3399975
1.3398425
1.3396898
1.3395395
1.3393916
1.339246
1.3391028
1.3389619
1.3388233
1.3386871
1.3385532
1.3384216
1.3382922
1.3381652
1.3380404
1.3379179
1.3377976
1.3376795
1.3375636
1.3374499
1.3373384
1.3372291
1.3371219
1.3370168
1.3369138
1.3368129
1.3367141
1.3366173
1.3365225
1.3364298
1.336339
1.3362502
1.3361634
1.3360785
1.3359954
1.3359143
1.335835
1.3357575
1.3356818
1.335608
1.3355359
1.3354655
1.3353968
1.3353298
1.3352645
1.3352008
1.3351388
1.3350783
1.3350194
1.334962
1.3349061
1.3348518
1.3347988
1.3347474
1.3346973
1.3346486
1.3346013
1.3345553
1.3345106
1.3344672
1.3344251
1.3343842
1.3343445
1.334306
1.3342686
1.3342324
1.3341972
1.3341632
1.3341302
1.3340983
1.3340674
1.3340374
1.3340085
1.3339804
1.3339533
1.3339271
1.3339018
1.3338773
1.3338537
1.3338308
1.3338088
1.3337875
1.3337669
1.3337471
1.333728
1.3337096
1.3336918
1.3336747
1.3336582
1.3336424
1.3336271
1.3336124
1.3335982
1.3335846
1.3335716
1.333559
1.3335469
1.3335353
1.3335242
1.3335135
1.3335032
1.3334933
1.3334839
1.3334748
1.3334661
1.3334578
1.3334498
1.3334422
1.3334349
1.3334279
1.3334212
1.3334148
1.3334087
1.3334029
1.3333973
1.3333919
1.3333868
1.333382
1.3333773
1.3333729
1.3333687
1.3333646
1.3333608
1.3333571
1.3333537
1.3333503
1.3333472
1.3333442
1.3333413
1.3333386
1.333336
1.3333336
1.3333312
1.333329
1.3333269
1.3333249
1.333323
1.3333213
1.3333196
1.3333179
1.3333164
1.333315
1.3333136
1.3333123
1.3333111
1.3333099
1.3333088
1.3333078
1.3333068
1.3333059
1.3333051
1.3333042
1.3333035
1.3333027
1.3333021
1.3333014
1.3333008
1.3333002
1.3332997
1.3332992
1.3332987
1.3332983
1.3332978
1.3332975
1.3332971
1.3332967
1.3332964
1.3332961
1.3332958
1.3332956
1.3332953
1.3332951
1.3332949
1.3332947
1.3332945
1.3332943
1.3332942
1.333294
1.3332939
1.3332937
1.3332936
1.3332935
1.3332934
1.3332933
1.3332932
1.3332932
1.3332931
1.333293
1.333293
1.3332929
1.3332928
1.3332928
1.3332927
1.3332927
1.3332926
1.3332925
1.3332925
1.3332924
1.3332923
1.3332923
1.3332922
1.3332921
1.333292
1.3332919
1.3332918
1.3332918
1.3332917
1.3332916
1.3332915
1.3332915
1.3332914
1.3332913
1.3332912
1.3332912
1.3332911
1.333291
1.3332909
1.3332909
1.3332908
1.3332908
1.3332907
1.3332906
1.3332906
1.3332905
1.3332904
1.3332904
1.3332903
1.3332903
1.3332902
1.3332901
1.3332901
1.33329
1.33329
1.3332899
1.3332899
1.3332898
1.3332898
1.3332897
1.3332896
1.3332896
1.3332895
1.3332895
1.3332894
1.3332893
1.3332893
1.3332893
1.3332892
1.3332891
1.3332891
1.3332891
1.333289
1.333289
1.3332889
1.3332889
1.3332888
1.3332888
1.3332888
1.3332887
1.3332887
1.3332886
1.3332886
1.3332885
1.3332885
1.3332884
1.3332884
1.3332883
1.3332883
1.3332882
1.3332882
1.3332882
1.3332881
1.3332881
1.3332881
1.333288
1.333288
1.333288
1.333288
1.3332879
1.3332879
1.3332879
1.3332878
1.3332878
1.3332878
1.3332877
1.3332877
1.3332877
1.3332876
1.3332876
1.3332875
1.3332875
1.3332875
1.3332874
1.3332874
1.3332874
1.3332873
1.3332873
1.3332873
1.3332872
1.3332872
1.3332871
1.3332871
1.3332871
1.3332871
1.333287
1.333287
1.333287
1.333287
1.3332869
1.3332869
1.3332869
1.3332869
1.3332869
1.3332869
1.3332868
1.3332868
1.3332868
1.3332868
1.3332867
1.3332867
1.3332867
1.3332867
1.3332867
1.3332867
1.3332867
1.3332866
1.3332866
1.3332866
1.3332866
1.3332866
1.3332866
1.3332866
1.3332866
1.3332866
1.3332865
1.3332865
1.3332865
1.3332865
1.3332864
1.3332864
1.3332864
1.3332864
1.3332864
1.3332864
1.3332863
1.3332863
1.3332863
1.3332863
1.3332863
1.3332862
1.3332862
1.3332862
1.3332862
1.3332862
1.3332861
1.3332861
1.3332861
1.3332861
1.3332861
1.3332861
1.3332861
1.333286
1.333286
1.333286
1.333286
1.333286
1.333286
1.333286
1.333286
1.333286
1.333286
1.333286
1.333286
1.333286
1.333286
1.333286
1.333286
1.333286
1.333286
1.333286
1.333286
1.333286
1.333286
1.333286
1.333286
1.333286
1.333286
1.333286
1.333286
1.333286
1.333286
1.333286
1.333286
1.333286
1.333286
1.333286
1.333286
1.333286
1.333286
1.333286
1.333286
1.333286
1.333286
1.333286
1.333286
1.333286
1.333286
1.333286
1.333286
1.333286
1.333286
1.333286
1.333286
1.333286
1.333286
1.333286
1.333286
1.333286
1.333286
1.333286
1.333286
1.333286
1.333286
1.333286
1.333286
1.333286
1.333286
1.3332859
1.3332859
1.3332859
1.3332859
1.3332859
1.3332859
1.3332859
1.3332859
1.3332859
1.3332859
1.3332859
1.3332859
1.3332859
1.3332859
1.3332859
1.3332859
1.3332859
1.3332859
1.3332859
1.3332859
1.3332859
1.333286
1.333286
1.333286
1.333286
1.3332859
1.3332859
1.3332859
1.3332859
1.3332859
1.3332859
1.3332859
1.3332859
1.3332859
1.3332859
1.3332859
1.3332859
1.3332859
1.3332859
1.3332859
1.333286
1.333286
1.333286
1.333286
1.333286
1.333286
1.333286
1.333286
1.333286
1.333286
1.333286
1.333286
1.333286
1.333286
1.333286
1.333286
1.333286
1.333286
1.333286
1.3332859
1.3332859
1.3332859
1.333286
1.333286
1.333286
1.333286
1.3332859
1.3332859
1.3332859
1.3332859
1.3332859
1.3332859
1.3332859
1.3332859
1.3332859
1.3332859
1.3332859
1.3332859
1.3332859
1.3332859
1.3332859
1.3332859
1.3332859
1.3332859
1.3332859
1.3332859
1.3332859
1.3332859
1.3332859
1.3332859
1.3332859
1.3332859
1.3332858
1.3332858
1.3332858
1.3332858
1.3332858
1.3332858
1.3332858
1.3332858
1.3332858
1.3332858
1.3332858
1.3332858
1.3332858
1.3332858
1.3332858
1.3332858
1.3332858
1.3332858
1.3332858
1.3332858
1.3332858
1.3332858
1.3332858
1.3332858
1.3332857
1.3332857
1.3332857
1.3332857
1.3332857
1.3332857
1.3332857
1.3332857
1.3332857
1.3332857
1.3332857
1.3332857
1.3332857
1.3332857
1.3332857
1.3332857
1.3332857
1.3332857
1.3332857
1.3332857
1.3332857
1.3332856
1.3332856
1.3332856
1.3332856
1.3332856
1.3332856
1.3332856
1.3332856
1.3332856
1.3332856
1.3332856
1.3332856
1.3332856
1.3332856
1.3332855
1.3332855
1.3332855
1.3332855
1.3332855
1.3332855
1.3332855
1.3332855
1.3332855
1.3332855
1.3332855
1.3332855
1.3332855
1.3332855
1.3332855
1.3332855
1.3332855
1.3332854
1.3332854
1.3332854
1.3332854
1.3332854
1.3332854
1.3332854
1.3332854
1.3332854
1.3332854
1.3332854
1.3332854
1.3332853
1.3332853
1.3332853
1.3332853
1.3332853
1.3332853
1.3332853
1.3332853
1.3332853
1.3332853
1.3332853
1.3332853
1.3332853
1.3332852
1.3332852
1.3332852
1.3332852
1.3332852
1.3332852
1.3332852
1.3332852
1.3332852
1.3332852
1.3332852
1.3332852
1.3332852
1.3332852
1.3332852
1.3332851
1.3332851
1.3332851
1.3332851
1.3332851
1.3332851
1.3332851
1.3332851
1.3332851
1.3332851
1.3332851
1.3332851
1.333285
1.333285
1.333285
1.333285
1.333285
1.333285
1.333285
1.333285
1.333285
1.333285
1.333285
1.3332849
1.3332849
1.3332849
1.3332849
1.3332849
1.3332849
1.3332849
1.3332849
1.3332849
1.3332848
1.3332848
1.3332848
1.3332848
1.3332848
1.3332848
1.3332848
1.3332848
1.3332848
1.3332848
1.3332848
1.3332847
1.3332847
1.3332847
1.3332847
1.3332847
1.3332847
1.3332847
1.3332847
1.3332847
1.3332846
1.3332846
1.3332846
1.3332846
1.3332846
1.3332846
1.3332846
1.3332845
1.3332845
1.3332845
1.3332845
1.3332845
1.3332845
1.3332845
1.3332845
1.3332845
1.3332845
1.3332845
1.3332845
1.3332844
1.3332844
1.3332844
1.3332844
1.3332844
1.3332844
1.3332844
1.3332843
1.3332843
1.3332843
1.3332843
1.3332843
1.3332843
1.3332843
1.3332843
1.3332843
1.3332842
1.3332842
1.3332842
1.3332842
1.3332842
1.3332842
1.3332842
1.3332842
1.3332842
1.3332841
1.3332841
1.3332841
1.3332841
1.3332841
1.3332841
1.3332841
1.333284
1.333284
1.333284
1.333284
1.333284
1.333284
1.333284
1.333284
1.333284
1.3332839
1.3332839
1.3332839
1.3332839
1.3332839
1.3332839
1.3332839
1.3332838
1.3332838
1.3332838
1.3332838
1.3332838
1.3332838
1.3332838
1.3332838
1.3332837
1.3332837
1.3332837
1.3332837
1.3332837
1.3332837
1.3332836
1.3332836
1.3332836
1.3332836
1.3332836
1.3332836
1.3332836
1.3332836
1.3332835
1.3332835
1.3332835
1.3332835
1.3332835
1.3332835
1.3332835
1.3332835
1.3332834
1.3332834
1.3332834
1.3332834
1.3332834
1.3332833
1.3332833
1.3332833
1.3332833
1.3332833
1.3332833
1.3332833
1.3332833
1.3332832
1.3332832
1.3332832
1.3332832
1.3332832
1.3332832
1.3332831
1.3332831
1.3332831
1.3332831
1.3332831
1.3332831
1.333283
1.333283
1.333283
1.333283
1.333283
1.333283
1.3332829
1.3332829
1.3332829
1.3332829
1.3332829
1.3332829
1.3332828
1.3332828
1.3332828
1.3332828
1.3332828
1.3332828
1.3332828
1.3332827
1.3332827
1.3332827
1.3332827
1.3332827
1.3332826
1.3332826
1.3332826
1.3332826
1.3332826
1.3332825
1.3332825
1.3332825
1.3332825
1.3332825
1.3332825
1.3332825
1.3332824
1.3332824
1.3332824
1.3332824
1.3332824
1.3332823
1.3332823
1.3332823
1.3332823
1.3332823
1.3332822
1.3332822
1.3332822
1.3332822
1.3332822
1.3332821
1.3332821
1.3332821
1.3332821
1.3332821
1.3332821
1.3332821
1.333282
1.333282
1.333282
1.333282
1.3332819
1.3332819
1.3332819
1.3332819
1.3332819
1.3332818
1.3332818
1.3332818
1.3332818
1.3332818
1.3332818
1.3332818
1.3332817
1.3332817
1.3332817
1.3332817
1.3332816
1.3332816
1.3332816
1.3332816
1.3332815
1.3332815
1.3332815
1.3332815
1.3332815
1.3332814
1.3332814
1.3332814
1.3332814
1.3332814
1.3332814
1.3332813
1.3332813
1.3332813
1.3332813
1.3332813
1.3332812
1.3332812
1.3332812
1.3332812
1.3332811
1.3332811
1.3332811
1.3332811
1.3332811
1.333281
1.333281
1.333281
1.333281
1.3332809
1.3332809
1.3332809
1.3332809
1.3332809
1.3332808
1.3332808
1.3332808
1.3332808
1.3332808
1.3332807
1.3332807
1.3332807
1.3332807
1.3332806
1.3332806
1.3332806
1.3332806
1.3332806
1.3332805
1.3332805
1.3332805
1.3332805
1.3332804
1.3332804
1.3332804
1.3332804
1.3332803
1.3332803
1.3332803
1.3332803
1.3332802
1.3332802
1.3332802
1.3332802
1.3332801
1.3332801
1.3332801
1.3332801
1.3332801
1.33328
1.33328
1.33328
1.3332799
1.3332799
1.3332799
1.3332799
1.3332798
1.3332798
1.3332798
1.3332798
1.3332797
1.3332797
1.3332797
1.3332797
1.3332796
1.3332796
1.3332796
1.3332796
1.3332795
1.3332795
1.3332795
1.3332794
1.3332794
1.3332794
1.3332794
1.3332793
1.3332793
1.3332793
1.3332793
1.3332792
1.3332792
1.3332792
1.3332791
1.3332791
1.3332791
1.3332791
1.333279
1.333279
1.333279
1.333279
1.3332789
1.3332789
1.3332789
1.3332789
1.3332788
1.3332788
1.3332788
1.3332787
1.3332787
1.3332787
1.3332786
1.3332786
1.3332786
1.3332786
1.3332785
1.3332785
1.3332785
1.3332785
1.3332784
1.3332784
1.3332784
1.3332783
1.3332783
1.3332783
1.3332782
1.3332782
1.3332782
1.3332782
1.3332781
1.3332781
1.3332781
1.333278
1.333278
1.333278
1.3332779
1.3332779
1.3332779
1.3332778
1.3332778
1.3332778
1.3332777
1.3332777
1.3332777
1.3332776
1.3332776
1.3332776
1.3332776
1.3332775
1.3332775
1.3332775
1.3332774
1.3332774
1.3332774
1.3332774
1.3332773
1.3332773
1.3332773
1.3332772
1.3332772
1.3332771
1.3332771
1.3332771
1.333277
1.333277
1.333277
1.3332769
1.3332769
1.3332769
1.3332769
1.3332768
1.3332768
1.3332768
1.3332767
1.3332767
1.3332766
1.3332766
1.3332766
1.3332765
1.3332765
1.3332765
1.3332764
1.3332764
1.3332764
1.3332763
1.3332763
1.3332763
1.3332762
1.3332762
1.3332761
1.3332761
1.3332761
1.333276
1.333276
1.333276
1.3332759
1.3332759
1.3332759
1.3332758
1.3332758
1.3332757
1.3332757
1.3332757
1.3332756
1.3332756
1.3332755
1.3332755
1.3332755
1.3332754
1.3332754
1.3332753
1.3332753
1.3332753
1.3332752
1.3332752
1.3332752
1.3332751
1.3332751
1.3332751
1.333275
1.333275
1.3332749
1.3332749
1.3332749
1.3332748
1.3332748
1.3332747
1.3332747
1.3332747
1.3332746
1.3332746
1.3332745
1.3332745
1.3332744
1.3332744
1.3332743
1.3332743
1.3332743
1.3332742
1.3332742
1.3332741
1.3332741
1.3332741
1.333274
1.333274
1.3332739
1.3332739
1.3332738
1.3332738
1.3332737
1.3332737
1.3332736
1.3332736
1.3332735
1.3332735
1.3332735
1.3332734
1.3332734
1.3332733
1.3332733
1.3332732
1.3332732
1.3332731
1.3332731
1.3332731
1.333273
1.333273
1.3332729
1.3332729
1.3332728
1.3332728
1.3332727
1.3332726
1.3332726
1.3332725
1.3332725
1.3332725
1.3332724
1.3332724
1.3332723
1.3332723
1.3332722
1.3332722
1.3332721
1.3332721
1.333272
1.333272
1.3332719
1.3332719
1.3332718
1.3332718
1.3332717
1.3332717
1.3332716
1.3332716
1.3332715
1.3332715
1.3332714
1.3332714
1.3332713
1.3332712
1.3332712
1.3332711
1.3332711
1.333271
1.333271
1.3332709
1.3332708
1.3332708
1.3332707
1.3332707
1.3332706
1.3332706
1.3332705
1.3332705
1.3332704
1.3332704
1.3332703
1.3332703
1.3332702
1.3332701
1.3332701
1.33327
1.33327
1.3332699
1.3332698
1.3332698
1.3332697
1.3332697
1.3332696
1.3332696
1.3332695
1.3332694
1.3332694
1.3332693
1.3332692
1.3332692
1.3332691
1.3332691
1.333269
1.3332689
1.3332689
1.3332688
1.3332687
1.3332687
1.3332686
1.3332685
1.3332685
1.3332684
1.3332684
1.3332683
1.3332682
1.3332682
1.3332681
1.3332681
1.333268
1.3332679
1.3332678
1.3332678
1.3332677
1.3332676
1.3332676
1.3332675
1.3332674
1.3332673
1.3332673
1.3332672
1.3332671
1.3332671
1.333267
1.3332669
1.3332669
1.3332668
1.3332667
1.3332666
1.3332666
1.3332665
1.3332664
1.3332663
1.3332663
1.3332662
1.3332661
1.3332661
1.333266
1.3332659
1.3332659
1.3332658
1.3332657
1.3332656
1.3332655
1.3332655
1.3332654
1.3332653
1.3332652
1.3332651
1.333265
1.333265
1.3332649
1.3332648
1.3332647
1.3332646
1.3332646
1.3332645
1.3332644
1.3332643
1.3332642
1.3332641
1.3332641
1.333264
1.3332639
1.3332638
1.3332637
1.3332636
1.3332635
1.3332634
1.3332634
1.3332633
1.3332632
1.3332631
1.333263
1.3332629
1.3332628
1.3332627
1.3332627
1.3332626
1.3332625
1.3332624
1.3332623
1.3332622
1.3332621
1.333262
1.3332619
1.3332618
1.3332617
1.3332616
1.3332615
1.3332614
1.3332614
1.3332612
1.3332612
1.333261
1.3332609
1.3332608
1.3332607
1.3332606
1.3332605
1.3332604
1.3332603
1.3332602
1.3332601
1.33326
1.3332599
1.3332597
1.3332596
1.3332595
1.3332594
1.3332593
1.3332592
1.3332591
1.333259
1.3332589
1.3332588
1.3332586
1.3332585
1.3332584
1.3332583
1.3332582
1.3332581
1.3332579
1.3332578
1.3332577
1.3332575
1.3332575
1.3332573
1.3332572
1.3332571
1.333257
1.3332568
1.3332567
1.3332566
1.3332565
1.3332563
1.3332562
1.3332561
1.333256
1.3332558
1.3332557
1.3332555
1.3332554
1.3332553
1.3332551
1.333255
1.3332549
1.3332547
1.3332546
1.3332545
1.3332543
1.3332542
1.333254
1.3332538
1.3332537
1.3332535
1.3332534
1.3332532
1.3332531
1.3332529
1.3332528
1.3332526
1.3332525
1.3332524
1.3332522
1.3332521
1.3332519
1.3332517
1.3332516
1.3332514
1.3332513
1.3332511
1.3332509
1.3332507
1.3332506
1.3332504
1.3332502
1.3332501
1.3332499
1.3332497
1.3332495
1.3332493
1.3332492
1.333249
1.3332488
1.3332486
1.3332484
1.3332482
1.333248
1.3332478
1.3332477
1.3332475
1.3332473
1.3332471
1.3332469
1.3332467
1.3332465
1.3332463
1.3332461
1.3332459
1.3332456
1.3332454
1.3332452
1.333245
1.3332448
1.3332445
1.3332443
1.3332441
1.3332439
1.3332436
1.3332434
1.3332432
1.333243
1.3332427
1.3332425
1.3332423
1.333242
1.3332418
1.3332416
1.3332413
1.333241
1.3332408
1.3332405
1.3332402
1.33324
1.3332397
1.3332394
1.3332392
1.3332389
1.3332386
1.3332384
1.3332381
1.3332378
1.3332376
1.3332373
1.333237
1.3332367
1.3332364
1.3332361
1.3332358
1.3332355
1.3332352
1.3332349
1.3332345
1.3332342
1.3332339
1.3332336
1.3332333
1.3332329
1.3332326
1.3332322
1.3332319
1.3332316
1.3332312
1.3332309
1.3332305
1.3332302
1.3332298
1.3332295
1.3332291
1.3332287
1.3332283
1.333228
1.3332276
1.3332272
1.3332268
1.3332264
1.3332259
1.3332255
1.3332251
1.3332247
1.3332243
1.3332239
1.3332235
1.3332231
1.3332226
1.3332222
1.3332218
1.3332213
1.3332209
1.3332204
1.3332199
1.3332194
1.3332189
1.3332184
1.3332179
1.3332174
1.3332169
1.3332163
1.3332157
1.3332152
1.3332146
1.333214
1.3332133
1.3332127
1.333212
1.3332113
1.3332106
1.3332099
1.3332092
1.3332084
1.3332076
1.3332068
1.333206
1.3332052
1.3332043
1.3332034
1.3332025
1.3332016
1.3332006
1.3331996
1.3331986
1.3331976
1.3331965
1.3331954
1.3331943
1.3331932
1.333192
1.3331908
1.3331896
1.3331884
1.3331871
1.3331858
1.3331844
1.3331831
1.3331816
1.3331802
1.3331786
1.3331771
1.3331755
1.3331739
1.3331723
1.3331706
1.333169
1.3331673
1.3331657
1.333164
1.3331624
1.3331608
1.3331592
1.3331576
1.3331561
1.3331546
1.3331532
1.333152
1.3331509
1.3331499
1.3331492
1.3331486
1.3331482
1.333148
1.3331479
1.3331479
1.3331479
1.3331481
1.3331485
1.3331498
1.3331527
1.3331568
1.3331617
1.3331668
1.3331714
1.3331747
1.3331765
1.3331769
1.3331767
1.3331748
1.3331682
1.3331496
1.3331006
1.3329778
1.3326719
1.3319358
1.3301429
1.3270698
1.3231831
1.3186177
1.3135542
1.3081992
1.3027627
1.2974382
1.2923882
1.2877364
1.2835645
1.2799148
1.2767952
1.2741863
1.2720495
1.2703337
1.2689822
1.2679372
1.267144
1.2665529
1.2661204
1.2658103
1.2655924
1.2654431
1.2653438
1.2652801
1.2652417
1.2652205
1.2652108
1.2652082
1.2652087
1.2652123
1.2652222
1.2652338
1.2652448
1.2652552
1.2652649
1.2652739
1.2652822
1.2652898
1.2652968
1.2653031
1.2653089
1.2653142
1.2653191
1.2653235
1.2653275
1.2653312
1.2653345
1.2653376
1.2653405
1.2653431
1.2653456
1.2653479
1.26535
1.265352
1.265354
1.2653558
1.2653575
1.2653592
1.2653607
1.2653623
1.2653637
1.2653651
1.2653664
1.2653677
1.265369
1.2653702
1.2653713
1.2653724
1.2653735
1.2653745
1.2653755
1.2653765
1.2653774
1.2653784
1.2653792
1.2653801
1.2653809
1.2653817
1.2653825
1.2653833
1.2653841
1.2653848
1.2653856
1.2653863
1.265387
1.2653877
1.2653883
1.265389
1.2653897
1.2653903
1.265391
1.2653916
1.2653923
1.2653929
1.2653935
1.2653941
1.2653948
1.2653954
1.265396
1.2653966
1.2653972
1.2653978
1.2653984
1.265399
1.2653996
1.2654002
1.2654007
1.2654013
1.2654019
1.2654024
1.2654029
1.2654035
1.265404
1.2654045
1.265405
1.2654055
1.265406
1.2654065
1.265407
1.2654074
1.2654079
1.2654083
1.2654088
1.2654092
1.2654096
1.26541
1.2654104
1.2654108
1.2654112
1.2654116
1.265412
1.2654124
1.2654127
1.2654131
1.2654134
1.2654138
1.2654141
1.2654145
1.2654148
1.2654151
1.2654155
1.2654158
1.2654161
1.2654164
1.2654167
1.2654171
1.2654174
1.2654177
1.265418
1.2654182
1.2654185
1.2654188
1.2654191
1.2654194
1.2654197
1.2654199
1.2654202
1.2654205
1.2654207
1.265421
1.2654213
1.2654215
1.2654218
1.265422
1.2654223
1.2654225
1.2654228
1.265423
1.2654232
1.2654235
1.2654237
1.2654239
1.2654242
1.2654244
1.2654246
1.2654248
1.2654251
1.2654253
1.2654255
1.2654257
1.2654259
1.2654261
1.2654263
1.2654265
1.2654268
1.265427
1.2654272
1.2654274
1.2654276
1.2654278
1.265428
1.2654282
1.2654283
1.2654285
1.2654287
1.2654289
1.2654291
1.2654293
1.2654295
1.2654296
1.2654298
1.26543
1.2654302
1.2654303
1.2654305
1.2654307
1.2654309
1.265431
1.2654312
1.2654314
1.2654315
1.2654317
1.2654319
1.265432
1.2654322
1.2654323
1.2654325
1.2654327
1.2654328
1.265433
1.2654331
1.2654333
1.2654334
1.2654336
1.2654337
1.2654339
1.265434
1.2654342
1.2654343
1.2654345
1.2654346
1.2654347
1.2654349
1.265435
1.2654352
1.2654353
1.2654354
1.2654356
1.2654357
1.2654358
1.265436
1.2654361
1.2654362
1.2654364
1.2654365
1.2654366
1.2654368
1.2654369
1.265437
1.2654371
1.2654373
1.2654374
1.2654375
1.2654376
1.2654378
1.2654379
1.265438
1.2654381
1.2654382
1.2654383
1.2654385
1.2654386
1.2654387
1.2654388
1.2654389
1.2654391
1.2654392
1.2654393
1.2654394
1.2654395
1.2654396
1.2654397
1.2654398
1.2654399
1.26544
1.2654401
1.2654402
1.2654403
1.2654405
1.2654406
1.2654407
1.2654408
1.2654409
1.265441
1.2654411
1.2654412
1.2654413
1.2654414
1.2654415
1.2654416
1.2654417
1.2654418
1.2654419
1.265442
1.2654421
1.2654421
1.2654422
1.2654423
1.2654424
1.2654425
1.2654426
1.2654427
1.2654428
1.2654429
1.265443
1.2654431
1.2654432
1.2654432
1.2654433
1.2654434
1.2654435
1.2654436
1.2654437
1.2654438
1.2654439
1.265444
1.2654441
1.2654441
1.2654442
1.2654443
1.2654444
1.2654444
1.2654445
1.2654446
1.2654447
1.2654448
1.2654449
1.265445
1.265445
1.2654451
1.2654452
1.2654453
1.2654453
1.2654454
1.2654455
1.2654456
1.2654456
1.2654457
1.2654458
1.2654459
1.265446
1.265446
1.2654461
1.2654462
1.2654463
1.2654464
1.2654464
1.2654465
1.2654466
1.2654466
1.2654467
1.2654468
1.2654468
1.2654469
1.265447
1.265447
1.2654471