/*--------------------------------*- C++ -*----------------------------------*\
  =========                 |
  \\      /  F ield         | OpenFOAM: The Open Source CFD Toolbox
   \\    /   O peration     | Website:  https://openfoam.org
    \\  /    A nd           | Version:  7
     \\/     M anipulation  |
\*---------------------------------------------------------------------------*/
FoamFile
{
    version     2.0;
    format      ascii;
    class       volScalarField;
    location    "0.00107";
    object      Uy;
}
// * * * * * * * * * * * * * * * * * * * * * * * * * * * * * * * * * * * * * //

dimensions      [0 1 -1 0 0 0 0];

internalField   nonuniform List<scalar> 
5000
(
8.7584443e-17
9.6005686e-17
0
0
-5.0781979e-17
5.7777459e-32
5.087124e-17
0
0
-5.0977038e-17
-1.0199399e-16
5.1006146e-17
5.1000561e-17
-5.0982477e-17
0
-5.0903581e-17
-3.8128983e-47
5.0794997e-17
0
5.0694947e-17
-5.0658627e-17
-5.0635829e-17
1.0125054e-16
-5.0630937e-17
-5.0648062e-17
-4.1769789e-31
5.0713869e-17
5.0756226e-17
-1.0159803e-16
8.8145216e-31
-8.8934015e-31
5.0913492e-17
1.0188131e-16
-1.0192582e-16
8.8382358e-31
-4.4345812e-30
-1.7682286e-30
1.0199483e-16
-1.0199115e-16
-1.0198472e-16
1.0197243e-16
-3.506419e-30
-1.0194265e-16
5.0963191e-17
1.5286035e-16
-5.0944423e-17
-5.0934044e-17
-3.4881455e-30
-1.0182773e-16
0
5.0893279e-17
7.2309706e-33
-5.0872422e-17
1.0172489e-16
-1.7776952e-30
-1.0168231e-16
5.0829807e-17
-1.7549157e-30
-5.0807793e-17
0
5.0784996e-17
1.7316923e-30
1.4427171e-32
5.0749186e-17
-5.073578e-17
1.7732128e-30
5.070884e-17
-5.0695314e-17
-5.0680311e-17
5.066612e-17
5.0650614e-17
-5.0636143e-17
-5.0620639e-17
1.0121302e-16
5.0591732e-17
-5.0578741e-17
0
5.0554572e-17
-7.1827171e-33
-5.0535647e-17
5.0528132e-17
-1.4359561e-32
1.4358342e-32
5.0517481e-17
5.051656e-17
1.758884e-30
-5.0520888e-17
0
-5.0530765e-17
-5.24276e-30
-1.7669687e-30
5.0552711e-17
5.0559966e-17
-1.0113672e-16
-3.5001591e-30
5.058295e-17
0
0
-5.0599123e-17
-3.5092904e-30
1.0121095e-16
-5.060753e-17
-1.0121496e-16
0
5.0605038e-17
5.0602882e-17
-5.05987e-17
-5.0594834e-17
0
0
5.0576698e-17
5.0570199e-17
0
-5.0554747e-17
1.7670245e-30
5.053787e-17
-5.0528712e-17
1.4358635e-32
-1.7657812e-30
-2.5138183e-49
1.0098331e-16
-2.1521847e-32
-5.0472395e-17
0
-5.0452859e-17
5.0443054e-17
5.0433141e-17
-1.0084651e-16
-5.0413307e-17
1.0080674e-16
5.0393396e-17
-5.0383423e-17
-5.0373431e-17
-5.0363434e-17
0
5.0343404e-17
5.0333372e-17
-5.0323328e-17
-1.7445868e-30
5.0303196e-17
-5.0293102e-17
-5.0282987e-17
0
5.0262675e-17
5.025247e-17
-5.0242225e-17
5.0231935e-17
-2.8547671e-32
-5.0211196e-17
5.0200734e-17
-5.0190202e-17
3.4941651e-30
5.0168902e-17
-5.0158122e-17
5.0147248e-17
5.0136278e-17
-5.0125207e-17
0
0
-5.0091399e-17
-5.0079944e-17
5.006841e-17
5.0056808e-17
-5.0045157e-17
-3.46977e-30
5.0021788e-17
-5.0010122e-17
-4.9998509e-17
0
4.9975585e-17
4.9964353e-17
0
-4.9942565e-17
-4.9932099e-17
0
4.9912252e-17
1.0382157e-29
-4.9894148e-17
4.988585e-17
4.9878102e-17
-4.9870934e-17
-3.4438704e-30
3.4292892e-30
2.1253661e-32
4.9848438e-17
-4.9844396e-17
-6.912841e-30
3.4278957e-30
-3.4277421e-30
4.9834248e-17
0
0
-4.9832093e-17
-4.9832181e-17
0
0
4.9834069e-17
-2.4864786e-49
-4.9836107e-17
0
4.983827e-17
-4.9839249e-17
-1.3811265e-29
9.9681375e-17
-4.984106e-17
-1.0348049e-29
-7.0828218e-33
-4.9840357e-17
4.9839417e-17
-7.0824178e-33
-6.8980343e-30
3.448868e-30
-4.9831613e-17
0
4.9825183e-17
3.4479784e-30
1.3826133e-29
4.9812426e-17
0
-4.9801971e-17
-4.9796204e-17
0
0
0
4.976995e-17
3.4439195e-30
-4.9755183e-17
0
0
4.9731405e-17
4.9723116e-17
-4.9714674e-17
-4.9706092e-17
0
4.9688566e-17
4.9679647e-17
-4.9670639e-17
-4.9661553e-17
0
4.9643181e-17
-1.378235e-29
-3.4414147e-30
4.961524e-17
-4.960585e-17
-4.959643e-17
0
4.9577518e-17
-6.8890723e-30
4.9558533e-17
6.872347e-30
-9.9078991e-17
4.9529963e-17
-6.8683807e-30
-1.718875e-29
-3.4258315e-30
-4.9491774e-17
4.9482217e-17
4.9472659e-17
0
-4.9453537e-17
-4.9443975e-17
0
4.9424848e-17
4.9415284e-17
-9.8811438e-17
-4.9396153e-17
4.9386586e-17
4.9377018e-17
1.3694327e-29
-4.9357874e-17
4.9348298e-17
-3.4215893e-30
-4.9329132e-17
4.931954e-17
-3.426601e-30
3.4329393e-30
-1.4009264e-32
-3.403586e-30
4.9271441e-17
0
0
-4.9242409e-17
-4.9232689e-17
0
0
0
0
4.9183667e-17
3.3891855e-30
-9.8327618e-17
2.0955532e-32
4.9143776e-17
4.9133689e-17
-6.8203163e-30
-6.8049428e-30
-6.9779731e-33
-4.9092825e-17
-4.9082477e-17
-4.9072076e-17
9.8123248e-17
1.4715337e-16
-4.9040574e-17
-9.8059967e-17
0
4.9008695e-17
4.8998009e-17
-4.8987306e-17
1.3919985e-32
-2.0875412e-32
1.3913901e-32
4.8944514e-17
4.8933878e-17
-4.8923294e-17
-9.7825551e-17
4.8902338e-17
3.0558466e-49
4.8881772e-17
1.3542912e-29
-9.7723455e-17
0
0
9.7665874e-17
-2.7114766e-29
-9.7629573e-17
0
4.8797613e-17
4.8789426e-17
-4.878152e-17
6.931189e-33
-6.7707561e-30
6.9291536e-33
4.8752886e-17
-4.8746502e-17
-4.8740431e-17
0
4.8729223e-17
-6.7648533e-30
-4.8719226e-17
9.7429322e-17
-1.3512056e-29
-4.870634e-17
-1.3523731e-29
-9.7398e-17
9.7391307e-17
4.8692497e-17
-4.8689508e-17
-6.9187913e-33
-4.8683945e-17
0
0
4.8676276e-17
-6.7509557e-30
-9.7342639e-17
6.9162541e-33
1.4599875e-16
-4.8663611e-17
-4.866087e-17
9.7316004e-17
-4.8654985e-17
4.8651797e-17
9.7296835e-17
-4.8644826e-17
-4.8641003e-17
-4.8636931e-17
4.8632593e-17
8.0787218e-50
-4.862306e-17
4.8617837e-17
-4.8612293e-17
4.8606418e-17
1.3467683e-29
1.3811141e-32
4.8586705e-17
-9.7158824e-17
4.8571746e-17
1.3485174e-29
-1.3469033e-29
-4.8546458e-17
-9.7074498e-17
1.4558293e-16
1.3458593e-29
-2.6911411e-29
1.3438921e-29
-9.6970367e-17
9.6947081e-17
-1.3443015e-29
-9.6897989e-17
0
0
4.8408954e-17
-6.712249e-30
-4.8380047e-17
-4.8364909e-17
4.8349303e-17
1.4499967e-16
-4.8316656e-17
-4.8299576e-17
-1.372256e-32
-4.8263833e-17
0
9.6451893e-17
9.6412326e-17
-4.8185797e-17
-9.6329662e-17
-4.8143246e-17
9.6242046e-17
9.6196279e-17
-9.614915e-17
-9.6100611e-17
0
9.599911e-17
-4.7973022e-17
-9.5891361e-17
4.7917502e-17
4.7888457e-17
-6.8011038e-33
6.640392e-30
4.7795803e-17
-4.7762968e-17
-4.7729099e-17
4.769416e-17
-6.610082e-30
-6.767339e-33
-6.599599e-30
-4.7542915e-17
4.7502028e-17
-1.9767973e-29
-6.5832759e-30
-1.3147332e-29
-4.7324861e-17
4.7276932e-17
-6.5570616e-30
-1.3079826e-29
-6.6966704e-33
-9.4138368e-17
-4.7012979e-17
4.6954958e-17
9.379013e-17
-6.5023299e-30
-9.3538872e-17
-4.6703582e-17
9.3271244e-17
4.6565494e-17
-4.6493136e-17
-4.6418484e-17
-1.2861519e-29
4.6262037e-17
0
0
4.6008506e-17
0
-4.5826101e-17
4.5730667e-17
6.4847419e-33
-1.2636573e-29
0
-4.531898e-17
4.5208182e-17
4.5094075e-17
-8.995315e-17
-4.4855599e-17
4.4731063e-17
0
0
-4.4335219e-17
1.2278508e-29
4.4051896e-17
0
0
-4.3595916e-17
1.8097839e-29
4.327014e-17
0
0
0
0
0
0
0
0
8.3129866e-17
2.2951936e-29
-4.1127768e-17
4.0900588e-17
-4.0667526e-17
4.0428471e-17
-1.1169527e-29
-3.9931932e-17
-1.1016742e-29
-3.941007e-17
0
0
3.8577838e-17
1.0631482e-29
-3.7988765e-17
0
0
0
0
0
0
0
7.0679927e-17
-2.9115108e-29
-6.9201211e-17
3.4218836e-17
4.8073746e-33
3.3430689e-17
-1.831214e-29
-6.5218389e-17
-3.2185753e-17
-2.0926077e-47
9.39394e-17
0
-6.081155e-17
0
0
5.795726e-17
-7.9016481e-30
-8.3947742e-17
2.7471056e-17
2.6950492e-17
-2.6420863e-17
2.5882144e-17
-2.5334322e-17
-6.8731445e-30
2.4211326e-17
-2.3636143e-17
0
-2.2458421e-17
2.1855899e-17
4.2488583e-17
-2.0623619e-17
-1.9993907e-17
-1.9355187e-17
-1.8707495e-17
3.6101743e-17
1.738536e-17
-1.6711012e-17
0
1.5336028e-17
-1.4635516e-17
-1.3926412e-17
3.962637e-17
3.5478047e-33
-2.3496615e-17
1.1005615e-17
1.4237687e-30
9.4957791e-18
-2.4808824e-33
-1.5907987e-17
7.1713787e-18
0
-1.5503602e-30
-6.7899273e-34
-3.9653938e-18
3.1458232e-18
-6.44154e-31
-2.0378397e-31
-8.7498542e-35
2.2687511e-19
-1.0796513e-18
4.1634562e-47
7.7917907e-31
5.225992e-34
9.1117623e-18
7.5453943e-31
-6.3297953e-18
0
0
9.0312749e-18
4.1366893e-30
-1.0857422e-17
1.1777769e-17
-1.7635726e-30
1.7926424e-46
2.0220761e-30
-1.5500915e-17
-1.6441323e-17
-2.411333e-30
1.8333149e-17
0
0
-2.1193579e-17
2.2152699e-17
-1.9241704e-29
-2.4077352e-17
2.5043075e-17
0
-2.6979508e-17
-2.7949855e-17
2.8921628e-17
2.9894205e-17
0
-3.1841899e-17
-3.2816414e-17
6.7582288e-17
3.4766194e-17
-3.5740847e-17
-3.6715159e-17
-5.2274136e-30
-3.866223e-17
-1.1005679e-29
8.1211304e-17
0
0
0
-4.4475027e-17
-4.5437693e-17
0
4.735622e-17
6.6938613e-30
-4.9264423e-17
0
0
5.2103965e-17
7.3570469e-30
-7.4792237e-30
5.4912257e-17
-5.584054e-17
2.3619495e-29
5.7684803e-17
0
5.9511166e-17
8.3883415e-30
-6.1318465e-17
6.221471e-17
-6.3105683e-17
-6.3991284e-17
6.4871543e-17
0
-6.6614916e-17
-6.7477988e-17
6.8334965e-17
6.9185847e-17
0
7.0868924e-17
-7.1700809e-17
-7.2526237e-17
7.3344876e-17
1.4831356e-16
-4.1630865e-29
-2.2727988e-16
3.7459296e-47
7.7334952e-17
1.562231e-16
-4.3762455e-29
-1.5928575e-16
8.0397252e-17
-8.1144109e-17
8.1883427e-17
8.2614881e-17
-1.6667719e-16
0
0
1.7092481e-16
-2.6028223e-46
-1.7367633e-16
0
0
1.7768075e-16
-2.4405589e-46
-1.8026733e-16
0
0
1.8402037e-16
9.2618516e-17
-1.8643636e-16
-9.3809286e-17
0
1.899306e-16
-5.3053605e-29
-1.9217201e-16
9.6633172e-17
0
-9.7700513e-17
9.8220704e-17
-1.4030649e-32
-9.9234123e-17
9.9727107e-17
-1.0021091e-16
-1.0068565e-16
1.0115115e-16
1.0160739e-16
-2.8338451e-29
-1.0249193e-16
1.0292029e-16
2.8695235e-29
-1.0374862e-16
1.0414865e-16
-1.0453923e-16
-1.0492033e-16
1.0529177e-16
1.0565364e-16
-2.9435752e-29
-1.0634863e-16
1.0668157e-16
-1.5206294e-32
-1.0731829e-16
1.0762207e-16
-1.0791594e-16
-1.0819996e-16
1.0847417e-16
2.1747692e-16
-6.0561243e-29
-2.1847423e-16
1.0947145e-16
-1.5588713e-32
-2.1982003e-16
-3.1296307e-32
1.1030806e-16
0
-1.1066553e-16
0
1.1098189e-16
0
0
0
1.1149079e-16
-3.6315279e-48
-1.1168278e-16
0
-1.1183261e-16
3.1070106e-29
1.1194022e-16
0
0
0
1.1202621e-16
-3.1105851e-29
-1.1200411e-16
0
-1.1193881e-16
-3.1053705e-29
1.1182977e-16
0
-1.1167697e-16
1.1158391e-16
-6.1943121e-29
-1.1136447e-16
1.1123815e-16
0
1.109517e-16
3.076463e-29
-1.106203e-16
0
-1.1024356e-16
1.1003805e-16
6.099035e-29
-1.0959297e-16
6.0714823e-29
1.5504292e-32
-3.0237866e-29
1.5427945e-32
1.0827845e-16
0
-1.0767142e-16
2.9793826e-29
2.9701468e-29
-1.7773483e-47
2.9522091e-29
0
2.1113824e-16
2.9205676e-29
-1.0477393e-16
1.043586e-16
-2.8844899e-29
-1.0349217e-16
-1.0304111e-16
-2.8483919e-29
2.8352046e-29
-1.0161638e-16
1.0111758e-16
1.0060685e-16
0
9.9549437e-17
-2.7491108e-29
-9.8444251e-17
0
0
0
1.9218109e-16
-1.0604311e-28
-1.8968457e-16
0
0
0
0
0
0
0
1.7875507e-16
-4.9253424e-29
-1.7578987e-16
-8.7136446e-17
8.636657e-17
8.5585361e-17
-2.3557352e-29
-4.6596562e-29
-8.3174567e-17
8.234884e-17
-8.1512193e-17
-8.0664716e-17
7.9806483e-17
7.8937614e-17
-4.3328249e-29
-7.7168442e-17
-7.6268362e-17
2.0904032e-29
7.4437847e-17
7.3507669e-17
-7.2567735e-17
-7.1618196e-17
7.0659216e-17
-6.9690953e-17
0
6.772727e-17
6.6732202e-17
-1.8232834e-29
-6.4716549e-17
6.3696362e-17
-6.2668214e-17
-6.1632317e-17
6.0588891e-17
-5.9538159e-17
-1.623883e-29
5.7415687e-17
5.634442e-17
7.8538852e-33
-1.0836618e-16
-2.9478486e-29
5.1998376e-17
5.0897911e-17
0
-4.8682105e-17
0
0
0
-4.4199074e-17
-4.3069344e-17
4.1936641e-17
4.0801286e-17
0
-3.8523928e-17
1.0385714e-29
3.6239932e-17
0
0
-3.2807433e-17
1.7575318e-29
3.0518774e-17
0
0
-2.7092307e-17
1.4406053e-29
2.4816461e-17
0
-2.2550718e-17
5.9486138e-30
-5.6334627e-30
5.3251871e-30
1.8061197e-17
0
1.5843277e-17
-8.1810004e-30
-1.3647115e-17
0
-1.147551e-17
1.0399745e-17
9.3310894e-18
-1.6539679e-17
-2.0058697e-30
1.2341423e-17
-1.4254457e-30
-4.1046804e-18
0
0
-1.0722403e-18
2.2440933e-32
-9.0019582e-19
0
2.8312672e-18
-3.7806888e-18
-4.719144e-18
5.6464853e-18
0
-7.4673042e-18
8.3604215e-18
5.1296787e-30
-5.6111775e-30
1.0959093e-17
-9.8083913e-30
1.2607869e-17
-1.3449098e-17
3.9575392e-30
-8.3588837e-30
-3.1657139e-17
4.6026462e-30
1.7342921e-17
0
0
0
-4.0425773e-17
-2.0896552e-17
4.3133207e-17
2.2223347e-17
0
0
2.4110823e-17
-2.8732219e-47
-2.5302043e-17
0
-5.2879834e-17
-2.6989188e-17
5.5050339e-17
2.8047967e-17
0
-5.8109441e-17
-8.3954258e-33
9.0030273e-17
-8.4519594e-30
-6.1830889e-17
3.1349478e-17
1.805994e-32
-3.2181428e-17
9.0513035e-30
1.8289302e-29
3.3341581e-17
0
3.4058019e-17
-1.9099383e-29
-6.9461757e-17
3.5050735e-17
-5.8873945e-29
-3.5662313e-17
7.1905853e-17
-5.1488901e-33
-3.6502559e-17
0
0
0
-3.7495945e-17
3.7722344e-17
7.588094e-17
-3.8150395e-17
-1.0649682e-29
-1.069267e-29
-3.8733446e-17
0
3.9085398e-17
-5.577873e-33
-7.8818845e-17
3.9561616e-17
2.2029479e-29
-3.9847488e-17
-3.9981153e-17
2.228634e-29
8.0462577e-17
0
4.0459863e-17
4.0566529e-17
0
-4.0765066e-17
-4.0857314e-17
4.0945199e-17
0
-4.1107925e-17
0
0
4.1324382e-17
-3.4466694e-29
-4.1450094e-17
0
0
4.1615275e-17
4.1664528e-17
-4.1711095e-17
-4.1754942e-17
4.1796176e-17
4.1834997e-17
-8.3743056e-17
-4.1905836e-17
1.165131e-29
4.1968127e-17
-2.3299192e-29
-2.3313774e-29
4.2047058e-17
-4.2069833e-17
4.2090982e-17
-4.2110573e-17
-3.5921074e-32
4.2145386e-17
-8.43215e-17
-4.217484e-17
-4.218773e-17
8.4398941e-17
8.4420251e-17
-4.2219756e-17
4.2228408e-17
-4.2236134e-17
2.3460077e-29
8.4498048e-17
-4.2254206e-17
1.1728403e-29
-1.1741394e-29
-4.2265253e-17
0
0
4.2270643e-17
4.2272963e-17
0
-4.2271789e-17
-4.2271182e-17
0
-4.2269712e-17
1.1736983e-29
4.2265922e-17
-4.2263542e-17
1.1722993e-29
4.2257927e-17
0
4.2251283e-17
2.3456641e-29
-4.2243744e-17
4.2239687e-17
-1.1709936e-29
-4.2231039e-17
-4.2226483e-17
-1.1718147e-29
4.2216953e-17
0
-4.2206936e-17
4.2201936e-17
-1.1993057e-32
2.3431419e-29
4.2185884e-17
-4.2180467e-17
0
-8.4338812e-17
9.3616409e-29
4.2158103e-17
2.3397774e-29
8.4293257e-17
-8.4281688e-17
-8.4269947e-17
8.4258226e-17
8.4246548e-17
4.2117271e-17
0
-4.2105414e-17
-8.4198598e-17
5.9818568e-33
-4.2088067e-17
4.2081887e-17
4.2075431e-17
-4.2069498e-17
8.4127616e-17
-8.4115904e-17
-7.0038114e-29
8.4092077e-17
-8.4080234e-17
2.333218e-29
-4.2028302e-17
4.2022422e-17
4.2016556e-17
-4.2010696e-17
-1.1651977e-29
-8.3998113e-17
8.3986517e-17
8.3975002e-17
-8.3963508e-17
-1.1649931e-29
-4.1970244e-17
2.3305433e-29
4.1958836e-17
1.1643595e-29
5.266283e-49
4.1941834e-17
8.3872383e-17
-4.1930571e-17
-1.1732358e-48
-4.1919339e-17
-6.9819779e-29
4.1908163e-17
-8.3805171e-17
2.3256036e-29
8.3782953e-17
1.2566141e-49
-4.1880412e-17
0
0
-4.1863886e-17
4.1858403e-17
8.3705851e-17
0
0
0
-4.1831205e-17
-4.1825805e-17
0
4.1815066e-17
-4.1809718e-17
-6.9625735e-29
8.3598187e-17
0
0
0
-4.1778064e-17
-4.1772865e-17
4.1767675e-17
-4.1762502e-17
-2.319037e-29
8.3504466e-17
0
0
-8.3473949e-17
1.1860924e-32
4.172689e-17
-4.1721895e-17
4.171691e-17
-4.1711948e-17
2.3162409e-29
8.340414e-17
0
0
-4.1687367e-17
-4.1682526e-17
0
0
4.1668043e-17
4.1663255e-17
0
-4.1653735e-17
-4.1648973e-17
4.1644229e-17
-4.1639499e-17
-4.1634798e-17
4.1630129e-17
4.1625491e-17
-2.3114563e-29
-4.1616198e-17
4.1611567e-17
1.154751e-29
-4.1602366e-17
0
-4.1593182e-17
2.3090717e-29
4.1583925e-17
-4.1579336e-17
2.3083122e-29
4.1570503e-17
0
-4.1561491e-17
1.1539532e-29
5.9049603e-33
-4.1548044e-17
4.1543603e-17
4.1539163e-17
0
-8.3060627e-17
4.6123656e-29
4.1521485e-17
5.8999371e-33
8.3025481e-17
-8.3016742e-17
-8.300807e-17
8.2999462e-17
4.1495464e-17
0
-8.2973763e-17
6.9066083e-29
8.2955907e-17
0
-8.2936391e-17
-2.302727e-29
4.1459499e-17
1.1511491e-29
8.2905306e-17
-8.2896585e-17
-1.0351221e-28
8.2875875e-17
-8.2867882e-17
2.2991176e-29
8.2852938e-17
4.1421971e-17
-8.2834987e-17
-4.141328e-17
8.2818207e-17
-8.2809742e-17
-1.0340642e-28
8.2792938e-17
-8.278449e-17
1.1492613e-29
-4.138366e-17
4.5913931e-29
1.2412567e-16
-2.2964001e-29
-8.2732958e-17
4.1362069e-17
8.2715533e-17
-4.1353638e-17
2.2958108e-29
-4.1345721e-17
-4.591866e-29
4.1336677e-17
-8.2664267e-17
3.4416069e-29
-4.588162e-29
2.2923829e-29
4.1315605e-17
0
4.1307208e-17
4.1302683e-17
0
0
0
0
0
-4.1276891e-17
-4.1272646e-17
0
4.126412e-17
-4.1259811e-17
-6.8723255e-29
8.2502248e-17
0
0
0
-4.1233647e-17
-4.1229252e-17
4.1224789e-17
4.1220367e-17
-8.2431969e-17
-6.8661757e-29
8.2414171e-17
0
-8.2396269e-17
-6.8620268e-29
4.1189131e-17
-4.1184596e-17
4.1180101e-17
-4.1175554e-17
-2.2853024e-29
8.2332782e-17
0
0
-4.1152581e-17
-4.1147916e-17
0
-4.1138598e-17
-1.1690954e-32
-4.1129159e-17
4.1124428e-17
1.2335911e-16
0
8.2220305e-17
8.22107e-17
0
-1.2328697e-16
-8.2181557e-17
8.2171825e-17
-4.1081001e-17
-4.1076066e-17
1.2321339e-16
4.1066182e-17
5.8351476e-33
4.1056191e-17
-4.1051152e-17
-4.1046098e-17
-4.1041032e-17
-1.1175451e-49
-4.1030822e-17
-4.1025694e-17
4.1020544e-17
0
8.202033e-17
8.2009893e-17
0
-4.0994403e-17
-8.1978195e-17
-2.2743304e-29
-4.0978486e-17
-8.1946275e-17
8.1935508e-17
8.1924697e-17
4.0956932e-17
4.0951484e-17
0
-4.09405e-17
-1.2280497e-16
4.0929473e-17
1.4626058e-47
-1.22755e-16
8.182547e-17
4.0907122e-17
4.0901478e-17
8.1791641e-17
-8.1780277e-17
-4.0884429e-17
4.0878697e-17
4.0872962e-17
4.0867217e-17
-1.225843e-16
-4.0855628e-17
1.2254945e-16
4.0843985e-17
-4.0838138e-17
-8.1664537e-17
4.0826384e-17
-4.0820483e-17
6.7953955e-29
-6.7967274e-29
-1.2240805e-16
4.0796722e-17
4.0790738e-17
8.1569493e-17
4.0778741e-17
-8.1545428e-17
-1.1586588e-32
-4.0760633e-17
4.0754573e-17
1.2224551e-16
-1.2222725e-16
-4.0736335e-17
1.2219066e-16
0
-1.221539e-16
-4.0711812e-17
1.2211697e-16
-4.0699516e-17
-8.1386694e-17
-2.2584473e-29
4.5156286e-29
4.0674757e-17
0
8.1324699e-17
8.1312245e-17
-4.0649923e-17
-4.0643683e-17
-8.1274809e-17
4.0631146e-17
4.0624893e-17
-8.1237306e-17
0
8.1212181e-17
8.1199565e-17
-4.0593542e-17
-8.1174501e-17
2.2525492e-29
4.0574638e-17
-8.1136685e-17
4.0562e-17
-1.3506898e-28
-8.109881e-17
4.0543045e-17
0
8.1060861e-17
0
-8.9973141e-29
-4.0511418e-17
-8.1010153e-17
1.2149606e-16
-1.1508625e-32
-8.097212e-17
0
8.0946603e-17
4.0467002e-17
-8.0921275e-17
4.491609e-29
4.0447907e-17
-8.0883225e-17
4.0435208e-17
-6.7311665e-29
-8.0844982e-17
4.0416184e-17
-4.0409763e-17
8.0806732e-17
1.2119124e-16
0
-1.2115297e-16
-8.0755889e-17
1.2111497e-16
8.0730658e-17
-4.0358905e-17
-8.0705026e-17
4.0346228e-17
4.0339924e-17
-8.0667021e-17
4.0327096e-17
8.064159e-17
-4.0314521e-17
5.7281313e-33
-8.0603428e-17
-8.059075e-17
1.2086733e-16
-4.0282794e-17
-6.7080801e-29
1.2080995e-16
0
-1.2077228e-16
-8.050216e-17
4.0244676e-17
4.0238314e-17
4.0232037e-17
0
4.021941e-17
-2.2321284e-29
-8.0413367e-17
2.2308566e-29
4.019413e-17
0
4.0181423e-17
-8.0350173e-17
-1.2050641e-16
8.0325074e-17
1.2046869e-16
4.0149877e-17
-4.0143536e-17
-8.0274502e-17
4.013099e-17
-4.0124702e-17
-4.0118381e-17
8.0224099e-17
-8.0211489e-17
-4.0099479e-17
1.2027965e-16
8.0173856e-17
-4.0080616e-17
-1.2022292e-16
8.8963194e-29
-8.8949305e-29
-4.005551e-17
-4.4460727e-29
-4.0042932e-17
4.0036645e-17
4.0030375e-17
4.0024126e-17
-4.0017874e-17
-4.0011604e-17
1.2001598e-16
-3.9999056e-17
-7.9985594e-17
1.1995966e-16
1.1363088e-32
-3.9974059e-17
7.9935592e-17
3.9961539e-17
0
-3.9949053e-17
-3.9942822e-17
-7.9873172e-17
3.993034e-17
-1.3296543e-28
-1.1975357e-16
3.9911628e-17
3.9905405e-17
3.9899181e-17
-3.9892952e-17
-3.9886721e-17
1.1964148e-16
-3.9874273e-17
-7.9736113e-17
-6.6390387e-29
-3.9855631e-17
7.9698828e-17
1.1952959e-16
2.2106892e-29
-2.2109109e-29
-5.6594126e-33
-3.9818373e-17
-7.9624339e-17
-3.9805965e-17
1.1939929e-16
-4.4176905e-29
-7.957474e-17
0
0
3.9768794e-17
-2.2071265e-29
2.206218e-29
3.9750226e-17
-7.9488084e-17
-3.973786e-17
-4.4096909e-29
3.9725498e-17
1.1915795e-16
3.9713138e-17
0
0
0
-1.1906533e-16
-7.9364547e-17
1.1902831e-16
-4.4050929e-29
-7.9327526e-17
0
0
7.9290492e-17
-8.8010777e-29
-4.3987259e-29
7.9253386e-17
-3.9620498e-17
-7.9228603e-17
-7.9216208e-17
3.9601912e-17
1.187872e-16
3.9589564e-17
0
0
0
-1.1869492e-16
-7.9117644e-17
1.1865802e-16
-8.7805319e-29
-3.9540401e-17
5.6181588e-33
-3.9528151e-17
7.9044013e-17
-4.3868598e-29
-3.9509713e-17
7.9007216e-17
0
-2.1926319e-29
-7.8970381e-17
-7.8958086e-17
1.1841885e-16
7.8933723e-17
-3.9460726e-17
-2.1894672e-29
3.9448428e-17
-1.1832703e-16
-7.8872503e-17
3.9430113e-17
3.9423954e-17
-3.941783e-17
-3.9411744e-17
3.9405646e-17
3.93995e-17
-2.1866292e-29
2.1857286e-29
3.9381088e-17
0
3.9368853e-17
-7.8725374e-17
-1.180696e-16
7.8700863e-17
7.8688719e-17
3.9338268e-17
-4.3659065e-29
-7.8652014e-17
3.931989e-17
-3.9313791e-17
-3.930769e-17
7.8603147e-17
-7.8590896e-17
-3.928933e-17
3.9283223e-17
7.8554224e-17
3.9270981e-17
-7.8529676e-17
2.1780408e-29
-3.9252593e-17
-3.9246475e-17
1.1772103e-16
-3.9234231e-17
-3.9228149e-17
1.1766622e-16
-5.5729246e-33
-1.1762956e-16
-3.9203749e-17
1.1759298e-16
-3.9191568e-17
-1.857942e-47
-6.5231467e-29
-7.834657e-17
7.8334367e-17
7.8322186e-17
-3.9155014e-17
4.3461256e-29
7.8285641e-17
-3.9136722e-17
-1.1739192e-16
-3.9124549e-17
3.911844e-17
0
3.9106233e-17
7.820027e-17
-5.5555937e-33
-1.1726366e-16
-3.9081776e-17
7.8151337e-17
-5.5521159e-33
-7.8126809e-17
7.811455e-17
-6.5040175e-29
-7.8090051e-17
1.1711666e-16
7.806551e-17
0
0
-3.9014382e-17
-1.1702471e-16
-3.9002094e-17
1.1698785e-16
-4.3284613e-29
-7.7967317e-17
7.7955011e-17
7.7942697e-17
-3.8965193e-17
-7.7918077e-17
3.8952874e-17
3.8946714e-17
-1.1682167e-16
-3.8934401e-17
-6.4835484e-29
2.1593672e-29
3.8916001e-17
-3.8909906e-17
7.7807659e-17
1.1669335e-16
0
-1.1665727e-16
-7.7759515e-17
1.1662124e-16
-1.1046862e-32
-3.8861577e-17
7.7710789e-17
-3.8849112e-17
-3.8842748e-17
-4.3114244e-29
3.8829919e-17
7.7647065e-17
-3.8817265e-17
-7.7622128e-17
-7.7609536e-17
4.308306e-29
3.8791839e-17
-3.8785415e-17
7.7558037e-17
1.1631775e-16
0
-1.162787e-16
-7.7506045e-17
1.1623933e-16
-4.3018103e-29
-3.8733164e-17
3.8726469e-17
3.8719743e-17
-2.147765e-29
-7.7412438e-17
2.1481117e-29
7.7385135e-17
-4.2941479e-29
-4.2933791e-29
-7.7343575e-17
-1.1599432e-16
7.7315395e-17
-4.291896e-29
-1.286888e-28
3.8635959e-17
3.8628548e-17
7.7242123e-17
-1.1584055e-16
-3.8605917e-17
7.7196471e-17
-7.7180851e-17
-2.1931611e-32
1.157235e-16
3.8566439e-17
-3.8558268e-17
-1.1564987e-16
1.2837178e-28
7.7065954e-17
3.8524318e-17
-7.7031025e-17
-1.1551971e-16
1.1549256e-16
3.8488338e-17
4.2706573e-29
3.8469422e-17
-7.6919415e-17
2.1342581e-29
-3.8439794e-17
3.8429565e-17
-1.2797509e-28
-1.1522549e-16
1.1519289e-16
1.1515967e-16
0
0
0
-3.8339944e-17
-1.1498298e-16
-3.8315137e-17
-4.2521402e-29
-3.8289177e-17
1.1482709e-16
3.8261917e-17
-3.8247864e-17
-3.823351e-17
-3.8218799e-17
7.6407396e-17
-3.8188202e-17
3.8172309e-17
-1.2707699e-28
-7.6278785e-17
1.1436708e-16
7.6209771e-17
0
-7.6136962e-17
-4.2240796e-29
3.8030189e-17
-1.1403103e-16
-3.7989979e-17
3.7969041e-17
0
0
3.7902854e-17
7.5759337e-17
-8.4051481e-29
-7.56627e-17
-3.7806201e-17
3.7780419e-17
-3.7753994e-17
3.7726872e-17
1.3495803e-46
-6.2740397e-29
1.1292279e-16
0
0
-7.509628e-17
-7.5031033e-17
-3.7482033e-17
4.1567334e-29
1.1223764e-16
-4.1504174e-29
-7.4678791e-17
0
7.4524653e-17
3.7222357e-17
-7.436278e-17
3.7139354e-17
3.7096221e-17
-1.1115604e-16
3.7006744e-17
-1.2309488e-28
-7.3825635e-17
1.1059216e-16
7.3628171e-17
0
0
0
-1.0980618e-16
-7.3091596e-17
1.0946465e-16
7.2858656e-17
0
-7.2615037e-17
4.023688e-29
3.6179968e-17
-7.2227946e-17
3.6046508e-17
-3.5977592e-17
-3.5907195e-17
1.0750575e-16
-7.1523432e-17
-7.1373139e-17
3.5609809e-17
-3.5531454e-17
7.0902995e-17
1.0610969e-16
0
-1.0560463e-16
-7.0229523e-17
3.5026283e-17
3.4936101e-17
-3.8682315e-29
3.4750408e-17
-1.1543602e-28
-3.4557386e-17
-1.9131795e-29
-1.9262545e-47
3.4254253e-17
0
3.4042762e-17
-6.7868292e-17
-1.0147095e-16
1.0113379e-16
1.0079085e-16
0
-6.6724837e-17
-6.6484405e-17
6.6240091e-17
-3.299594e-17
-3.2869858e-17
9.8225304e-17
-6.5223321e-17
-6.49591e-17
3.2345464e-17
6.4418816e-17
3.207136e-17
-9.5793898e-17
-3.1789218e-17
-5.2696346e-29
6.299808e-17
1.782097e-32
-9.3602848e-17
6.2097866e-17
9.2684771e-17
3.0738928e-17
-9.1742905e-17
-6.0842132e-17
9.0777691e-17
-6.6829622e-29
-5.9859513e-17
-2.9762136e-17
1.6426155e-29
5.884248e-17
-3.2469719e-29
2.9072894e-17
2.8895955e-17
-8.6151618e-17
-2.8536672e-17
-3.1477657e-29
5.6340611e-17
-9.3201178e-29
-8.3391047e-17
5.5215704e-17
-3.0452661e-29
-3.0246639e-29
-6.0023668e-29
-2.6834902e-17
7.9913234e-17
-2.6439075e-17
-4.3686314e-29
-8.6716067e-29
-7.7502827e-17
2.5629894e-17
5.0848347e-17
-2.7994846e-29
2.5008785e-17
2.4799186e-17
-4.9176793e-17
-4.8752949e-17
2.6821671e-29
7.1848064e-17
-2.6341833e-29
-2.351805e-17
4.6601835e-17
-2.3082868e-17
-2.2863961e-17
1.2562838e-29
-1.2446883e-29
2.220252e-17
-4.3961211e-17
2.1758049e-17
-7.173326e-29
-7.0975965e-29
6.3260907e-17
-4.1724595e-17
5.8654529e-33
4.0823618e-17
-2.0186088e-17
-5.9880325e-17
-1.9733917e-17
5.8522695e-17
-2.1404957e-29
-1.9054586e-17
3.7656102e-17
-3.7203098e-17
-9.1812051e-29
1.8148877e-17
-1.7922813e-17
1.7696987e-17
-3.4942879e-17
1.7246221e-17
5.1064178e-17
0
0
-3.2699533e-17
-4.5835618e-33
3.1809607e-17
-1.5683316e-17
-4.6387703e-17
-1.5242598e-17
4.5070327e-17
4.2078726e-33
1.6194589e-29
2.8742525e-17
-4.2467429e-17
-6.9650824e-29
1.3728089e-17
-1.3515889e-17
-1.3304842e-17
1.4544876e-29
1.2886395e-17
-2.5358181e-17
2.4946234e-17
-4.0859701e-29
-2.4130542e-17
3.55904e-17
2.3326267e-17
-1.1464313e-17
-3.3801105e-17
-1.1071321e-17
1.0877192e-17
0
-1.0493828e-17
1.0304677e-17
3.035175e-17
5.5127742e-30
-1.9495282e-17
9.5654894e-18
9.3851412e-18
-1.8413263e-17
9.029989e-18
-8.8552326e-18
-1.7364754e-17
2.5534298e-17
-2.7784023e-29
1.8154019e-29
1.6020386e-17
-1.5694098e-17
-7.6859003e-18
-7.5267544e-18
-8.187677e-30
7.2144909e-18
-1.4122785e-17
1.382067e-17
2.0283978e-17
0
-6.4694512e-18
3.5117375e-30
1.7581066e-33
-1.8141165e-17
-5.9103873e-18
1.7327329e-17
-5.6432192e-18
-6.7297763e-46
1.615286e-17
-5.2579125e-18
-1.5400746e-17
-5.0112801e-18
9.7820099e-18
-4.7727603e-18
4.6565446e-18
-1.5128086e-29
-8.8602971e-18
1.29598e-17
4.6780132e-30
-1.8232909e-29
8.0022348e-18
-7.7975156e-18
-4.2167147e-30
3.6997935e-18
-7.2063257e-18
-3.5084214e-18
0
0
6.4707059e-18
-6.9894734e-30
-1.7407806e-33
-3.3067433e-30
-2.8966344e-18
-2.8163627e-18
2.7377995e-18
2.660934e-18
-5.1715149e-18
5.0245079e-18
-2.7092172e-30
-4.7403496e-18
4.603081e-18
7.4418093e-30
-2.4078657e-30
2.1049678e-18
-4.085009e-18
1.9815417e-18
-4.2675463e-30
-3.7280229e-18
0
3.5042686e-18
1.6982659e-18
-3.2915108e-18
-1.594581e-18
1.5447197e-18
-2.4918503e-30
-1.4488358e-18
0
0
2.628475e-18
2.5434846e-18
0
-2.3803686e-18
-1.1510797e-18
1.1130573e-18
-1.0760909e-18
1.0401597e-18
0
-1.9426745e-18
0
0
8.7536856e-19
-9.3832618e-31
-8.1597298e-19
0
7.6007953e-19
4.0708504e-31
-7.0749965e-19
0
1.3161718e-18
1.2690489e-18
-6.1169913e-19
-6.5445058e-31
5.6818039e-19
-1.0949102e-18
-1.0547904e-18
1.0159589e-18
1.3903577e-34
1.045917e-30
1.2887278e-34
-8.7288282e-19
4.2002023e-19
-4.4866118e-31
3.8879556e-19
-3.7396464e-19
-1.0789292e-18
1.037459e-18
3.3247577e-19
-3.1959025e-19
-3.4093633e-31
-2.9513624e-19
5.6710059e-19
5.4476514e-19
-5.2324226e-19
-8.3669231e-31
-2.4123797e-19
-2.3158528e-19
4.4456235e-19
-2.1332078e-19
2.2721708e-31
-1.0907356e-31
1.8841216e-19
3.6143011e-19
-3.466033e-19
-3.3233357e-19
0
1.5271551e-19
1.6250468e-31
-2.8057385e-19
-1.4923099e-31
3.8635736e-19
2.4673973e-19
0
-2.2636732e-19
-2.406293e-31
-1.0378194e-19
-9.9352556e-20
2.8531017e-19
-5.0518927e-32
-1.7428472e-19
8.3406326e-20
1.5962945e-19
-7.6362065e-20
-1.4609389e-19
-6.9869797e-20
0
1.2786745e-19
-6.1162536e-20
-1.7551502e-19
5.5953399e-20
5.3504911e-20
1.0231366e-19
4.8907533e-20
-9.3517207e-20
-4.4710969e-20
-4.2758606e-20
4.5394808e-32
3.9099247e-20
3.7381099e-20
7.1468482e-20
3.4159306e-20
0
0
0
-5.7156073e-20
-5.4661157e-20
5.2268157e-20
2.7743588e-32
2.6537952e-32
-2.538866e-32
-4.8620285e-32
4.1912667e-20
0
-3.837879e-20
-1.8364394e-20
1.7583321e-20
-1.6844365e-20
-1.6141055e-20
0
0
2.8412106e-20
-4.5346366e-32
-2.8978963e-32
2.5030955e-20
-2.4015059e-20
-2.3052119e-20
0
2.1252778e-20
-1.13244e-32
-1.9596204e-20
1.8822311e-20
1.0041316e-32
-1.7384159e-20
0
1.6078835e-20
7.7338568e-21
-1.4878423e-20
7.1537063e-21
1.5276402e-32
-1.3235483e-20
1.2744936e-20
1.2277655e-20
0
0
0
-1.0516964e-20
-1.0119892e-20
9.742694e-21
0
-9.013006e-21
0
-4.1576357e-21
7.9898647e-21
3.8381892e-21
-3.6827638e-21
7.0419648e-21
3.3585788e-21
-6.4216659e-21
-3.0746596e-21
-3.2658765e-33
2.8083643e-21
-5.9310733e-33
1.4233674e-36
4.6435047e-21
0
-2.0311008e-21
-3.6873705e-21
-1.7743412e-21
0
0
0
-1.3808221e-21
2.5126592e-21
1.1274245e-21
-9.9986744e-22
-8.7893073e-22
7.6406115e-22
6.5057134e-22
-1.069084e-21
0
5.8213766e-22
3.3341354e-22
0
0
3.6799707e-22
3.3138957e-34
4.1543444e-22
5.3708871e-22
-6.6009939e-22
7.7831676e-22
-8.891307e-22
-1.9946392e-21
-1.1093442e-21
0
2.7033838e-21
1.6281675e-33
-1.5706201e-21
1.6700238e-21
1.7746016e-21
3.7760891e-21
-4.015162e-21
-2.1239663e-21
6.3312863e-37
-2.3208927e-21
4.8281875e-21
-2.5135529e-21
2.6204194e-21
-2.5413458e-49
-2.8367049e-21
5.8570113e-21
-6.0204806e-21
-6.1854885e-21
0
3.2802732e-21
6.7652113e-21
-1.9304907e-33
-3.5571031e-21
-3.62422e-21
7.3846814e-21
7.5370332e-21
-3.8545855e-21
-7.8901017e-21
-8.0556182e-21
4.0941673e-21
8.2976608e-21
-4.2051321e-21
4.2690349e-21
-7.2292719e-33
-4.4187523e-21
8.9731644e-21
-9.077186e-21
-5.0845946e-33
2.5686844e-32
-9.3617453e-21
9.485298e-21
2.1347344e-32
-4.8610072e-21
9.798707e-21
-4.9314234e-21
1.4121505e-36
-2.2259209e-32
-5.0626801e-21
1.0226522e-20
-1.1442834e-32
2.8766083e-33
-5.2118168e-21
1.4902634e-36
1.0563177e-20
-1.0643313e-20
-3.0423825e-36
2.3861808e-32
-1.0789973e-20
1.0842611e-20
1.2109653e-32
-1.0976019e-20
5.5114384e-21
5.5241661e-21
5.5354658e-21
-5.5517795e-21
6.1881791e-33
1.1198445e-20
0
0
-1.1280618e-20
-1.6039986e-36
1.1300887e-20
-5.6619435e-21
6.298493e-33
-5.6855436e-21
-1.2632955e-32
1.1373121e-20
0
5.6787402e-21
-1.1359786e-20
-5.6820032e-21
1.2618053e-32
-5.6751764e-21
1.1319463e-20
-5.6428236e-21
6.2492743e-33
1.1244595e-20
0
0
-5.5807824e-21
3.0821302e-33
-5.5267084e-21
5.5057876e-21
1.6464408e-20
-1.641048e-20
-5.4444799e-21
1.0815355e-20
-5.3671195e-21
-8.8782679e-33
-5.3016261e-21
2.9970983e-36
1.7460135e-32
-5.2029777e-21
1.0307359e-20
5.1027751e-21
0
5.0145567e-21
-4.9736169e-21
-4.9299151e-21
-4.8761646e-21
1.0687945e-32
-5.2744159e-33
5.2110485e-33
9.2813671e-21
-4.5861435e-21
-7.5362471e-33
8.9128679e-21
-6.2277581e-37
-4.3106337e-21
-8.4830234e-21
-8.3489654e-21
8.2114284e-21
4.474767e-33
3.943539e-21
3.8580789e-21
-7.5508165e-21