/*--------------------------------*- C++ -*----------------------------------*\
  =========                 |
  \\      /  F ield         | OpenFOAM: The Open Source CFD Toolbox
   \\    /   O peration     | Website:  https://openfoam.org
    \\  /    A nd           | Version:  7
     \\/     M anipulation  |
\*---------------------------------------------------------------------------*/
FoamFile
{
    version     2.0;
    format      ascii;
    class       volVectorField;
    location    "0.00155";
    object      U;
}
// * * * * * * * * * * * * * * * * * * * * * * * * * * * * * * * * * * * * * //

dimensions      [0 1 -1 0 0 0 0];

internalField   nonuniform List<vector> 
5000
(
(14.87608 -3.9479602e-16 0)
(14.934851 -4.8543412e-16 0)
(15.011806 0 0)
(15.093918 0 0)
(15.151444 2.5469991e-16 0)
(15.199942 -2.8661178e-31 2.5210638e-16)
(15.251802 -2.5055855e-16 5.3409767e-31)
(15.309458 0 -7.5325488e-16)
(15.370868 0 -2.5253246e-16)
(15.431463 2.5267092e-16 5.0534184e-16)
(15.488663 5.0352284e-16 5.0352284e-16)
(15.546009 -2.5104663e-16 -2.5104663e-16)
(15.603842 -2.5051198e-16 2.1359936e-30)
(15.661968 2.5008501e-16 2.2034315e-30)
(15.719752 0 -4.9906788e-16)
(15.777212 2.4889709e-16 4.9779418e-16)
(15.834593 5.1754409e-46 2.5877204e-46)
(15.891871 -2.4763673e-16 2.1818603e-30)
(15.948995 0 2.4698735e-16)
(16.00596 -2.463267e-16 -4.926534e-16)
(16.06277 2.4565624e-16 -2.4565624e-16)
(16.119428 2.4497554e-16 0)
(16.175928 -4.8856832e-16 0)
(16.232267 2.4358212e-16 2.4358212e-16)
(16.288443 2.4286954e-16 -2.0708302e-30)
(16.344454 1.9958425e-30 1.9958425e-30)
(16.400296 -2.4141276e-16 2.4141276e-16)
(16.455969 -2.4066853e-16 -2.4066853e-16)
(16.511468 4.7982752e-16 -2.3991376e-16)
(16.566792 -4.1461748e-30 2.3914846e-16)
(16.621938 4.166599e-30 -4.166599e-30)
(16.676904 -2.375863e-16 2.0257827e-30)
(16.731688 -4.7357897e-16 2.3678949e-16)
(16.786286 4.7196441e-16 -2.359822e-16)
(16.840697 -4.0771036e-30 -2.3516448e-16)
(16.894918 2.0380332e-29 0)
(16.948947 8.096416e-30 0)
(17.002781 -4.652978e-16 2.326489e-16)
(17.056418 4.6357933e-16 2.3178966e-16)
(17.109856 4.6184026e-16 -2.3092013e-16)
(17.163092 -4.6008065e-16 3.8575022e-30)
(17.216123 1.5761079e-29 2.2915028e-16)
(17.268948 4.5650009e-16 -2.2825004e-16)
(17.321563 -2.2733964e-16 3.8445218e-30)
(17.373968 -6.7925734e-16 2.2641911e-16)
(17.426158 2.254885e-16 -2.254885e-16)
(17.478133 2.2454785e-16 7.7222609e-30)
(17.529889 1.5315586e-29 -7.6577928e-30)
(17.581424 4.4527321e-16 7.6565326e-30)
(17.632736 0 -3.7800776e-30)
(17.683823 -2.2068574e-16 -2.2068574e-16)
(17.734682 -3.1220619e-32 0)
(17.785311 2.1869566e-16 0)
(17.835708 -4.3537211e-16 0)
(17.88587 7.5743908e-30 0)
(17.935796 4.3127601e-16 0)
(17.985483 -2.1459968e-16 0)
(18.034928 7.3744551e-30 0)
(18.08413 2.1249477e-16 0)
(18.133087 0 0)
(18.181795 -2.1035263e-16 0)
(18.230254 -7.1372981e-30 0)
(18.27846 -5.9166574e-32 0)
(18.326413 -2.0707096e-16 2.0707096e-16)
(18.374109 2.0595914e-16 2.0595914e-16)
(18.421547 -7.1608876e-30 -2.0483848e-16)
(18.468724 -2.0370909e-16 3.5028052e-30)
(18.515638 2.0257105e-16 5.6440869e-47)
(18.562288 2.0142446e-16 -2.0142446e-16)
(18.608672 -2.0026942e-16 0)
(18.654787 -1.9910601e-16 0)
(18.700631 1.9793435e-16 1.9793435e-16)
(18.746203 1.9675455e-16 1.9675455e-16)
(18.7915 -3.9113338e-16 0)
(18.836521 -1.943709e-16 -1.943709e-16)
(18.881264 1.9316728e-16 -6.6705253e-30)
(18.925727 0 1.9195595e-16)
(18.969907 -1.9073702e-16 1.9073702e-16)
(19.013805 2.6931079e-32 -1.8951062e-16)
(19.057416 1.8827686e-16 -3.7655371e-16)
(19.100741 -1.8703586e-16 3.7407173e-16)
(19.143776 5.2804056e-32 -1.0560811e-31)
(19.186521 -5.2447339e-32 -5.5359801e-16)
(19.228974 -1.8327073e-16 3.6654147e-16)
(19.271132 -1.8200208e-16 1.8932485e-29)
(19.312995 -6.2922929e-30 -3.6145367e-16)
(19.354561 1.7944515e-16 5.3833545e-16)
(19.395829 0 -1.7815716e-16)
(19.436796 1.76863e-16 -1.76863e-16)
(19.477462 1.8212754e-29 1.7556282e-16)
(19.517824 6.0917907e-30 -1.7425677e-16)
(19.557883 -1.7294501e-16 -1.7294501e-16)
(19.597635 -1.7162767e-16 -5.9754908e-30)
(19.637081 3.4060982e-16 3.4060982e-16)
(19.676218 1.1694361e-29 1.1694361e-29)
(19.715045 -1.6764379e-16 1.6764379e-16)
(19.753562 0 1.6630575e-16)
(19.791767 0 5.7903332e-30)
(19.829658 1.6361554e-16 -1.1393071e-29)
(19.867235 1.125282e-29 -3.2452739e-16)
(19.904497 -3.218152e-16 -1.609076e-16)
(19.941443 1.5954742e-16 1.5954742e-16)
(19.978072 3.1636667e-16 -2.2479204e-32)
(20.014382 0 -1.5681552e-16)
(20.050374 -1.5544417e-16 0)
(20.086045 -1.5406945e-16 1.5406945e-16)
(20.121396 1.5269157e-16 5.3162004e-30)
(20.156426 1.513107e-16 -1.513107e-16)
(20.191133 0 1.4992704e-16)
(20.225518 0 1.4854077e-16)
(20.259579 -1.471521e-16 -2.9430421e-16)
(20.293317 -1.4576123e-16 -1.4576123e-16)
(20.32673 0 4.3310501e-16)
(20.359818 1.4297364e-16 1.4297364e-16)
(20.392581 -4.9493597e-30 -4.2473199e-16)
(20.425018 -1.4017961e-16 1.4017961e-16)
(20.45713 1.387807e-16 1.387807e-16)
(20.488915 -3.904597e-32 7.809194e-32)
(20.520373 4.7536878e-30 1.359801e-16)
(20.551505 6.8120414e-47 -4.0373648e-16)
(20.582311 -2.6635438e-16 9.3114037e-30)
(20.612789 5.6179232e-32 2.635508e-16)
(20.642941 1.3037367e-16 -2.6074733e-16)
(20.672765 0 -1.2897221e-16)
(20.702263 1.2757123e-16 1.2757123e-16)
(20.731435 -1.2617096e-16 -1.2617096e-16)
(20.76028 -1.2477161e-16 1.2477161e-16)
(20.788799 2.467468e-16 2.467468e-16)
(20.816992 1.2197654e-16 -1.2197654e-16)
(20.844859 -2.4116251e-16 -4.1639573e-30)
(20.872401 -1.1918776e-16 -1.1918776e-16)
(20.899619 1.1779627e-16 -2.3559255e-16)
(20.926512 1.1640702e-16 1.1640702e-16)
(20.953082 1.1502021e-16 1.1502021e-16)
(20.979328 0 1.1363608e-16)
(21.005253 -1.1225483e-16 3.9083308e-30)
(21.030855 -1.1087669e-16 3.844592e-30)
(21.056137 1.0950187e-16 -3.8124821e-30)
(21.081098 3.7493727e-30 -2.1626119e-16)
(21.10574 -1.0676308e-16 -1.0676308e-16)
(21.130064 1.0539954e-16 1.0539954e-16)
(21.15407 1.0404019e-16 2.0808039e-16)
(21.17776 0 1.0268525e-16)
(21.201134 -1.0133494e-16 1.0133494e-16)
(21.224195 -9.9989451e-17 -6.9341656e-30)
(21.246942 9.8649009e-17 -1.9729802e-16)
(21.269377 -9.7313821e-17 2.7658252e-32)
(21.291502 5.4560641e-32 -2.7280321e-32)
(21.313317 9.4660033e-17 -5.7537774e-46)
(21.334824 -9.3341845e-17 -9.3341845e-17)
(21.356025 9.2029729e-17 6.382167e-30)
(21.37692 -6.3173933e-30 -1.2634787e-29)
(21.397512 -8.9424512e-17 -8.9424512e-17)
(21.417802 8.8131805e-17 8.8131805e-17)
(21.437791 -8.6845954e-17 -8.6845954e-17)
(21.457482 -8.5567154e-17 -2.966997e-30)
(21.476875 8.4295591e-17 8.4295591e-17)
(21.495972 0 -8.3031444e-17)
(21.514776 0 1.1620913e-32)
(21.533289 8.0526143e-17 8.0526143e-17)
(21.551511 7.9285335e-17 0)
(21.569444 -7.8052658e-17 -7.8052658e-17)
(21.587092 -7.682828e-17 -5.3170442e-30)
(21.604455 7.5612361e-17 1.5122472e-16)
(21.621536 5.159915e-30 -7.4405069e-17)
(21.638337 -7.3206561e-17 2.0806556e-32)
(21.65486 7.2016988e-17 7.2016988e-17)
(21.671106 7.0836506e-17 -7.0836506e-17)
(21.687079 0 6.966526e-17)
(21.70278 -6.8503392e-17 -6.8503392e-17)
(21.718212 -6.7351043e-17 2.8062638e-29)
(21.733376 0 1.8365924e-29)
(21.748276 6.5075439e-17 -6.5075439e-17)
(21.762913 6.3952442e-17 1.2790488e-16)
(21.777289 0 0)
(21.791408 -6.173667e-17 4.2813745e-30)
(21.805272 -1.2616824e-29 1.2616824e-29)
(21.818882 5.9561967e-17 -5.9561967e-17)
(21.832242 -5.8490286e-17 -5.8490286e-17)
(21.845354 -5.7429191e-17 -3.9581718e-30)
(21.85822 5.6378778e-17 5.6378778e-17)
(21.870843 3.8219838e-30 -5.5339136e-17)
(21.883226 -3.7354955e-30 -3.7354955e-30)
(21.895371 -2.2719968e-32 -2.2719968e-32)
(21.90728 -5.2285707e-17 -7.2444897e-30)
(21.918957 5.1289991e-17 1.0257998e-16)
(21.930404 6.9772611e-30 -5.0305441e-17)
(21.941624 -3.3930896e-30 -4.9332118e-17)
(21.952618 3.3269207e-30 3.3269207e-30)
(21.963391 -4.7419405e-17 -3.2682708e-30)
(21.973944 0 9.6634393e-30)
(21.984281 0 -3.1460564e-30)
(21.994404 4.463591e-17 4.463591e-17)
(22.004315 4.3731068e-17 0)
(22.014018 0 0)
(22.023515 0 0)
(22.032809 -4.1085972e-17 0)
(22.041903 -4.111212e-47 4.0227494e-17)
(22.050799 3.9380652e-17 -8.209812e-30)
(22.0595 0 -3.8545452e-17)
(22.06801 -3.7721908e-17 -3.7721908e-17)
(22.07633 3.6910014e-17 3.6910014e-17)
(22.084463 1.0006437e-29 3.6109765e-17)
(22.092413 -7.0642321e-17 -7.0642321e-17)
(22.100182 3.4544183e-17 -2.3906945e-30)
(22.107772 7.0131769e-30 7.0131769e-30)
(22.115187 4.6931399e-33 3.3025036e-17)
(22.12243 3.2282825e-17 3.2282825e-17)
(22.129502 -3.1552147e-17 -3.1552147e-17)
(22.136406 4.3816293e-33 0)
(22.143146 4.1697509e-30 -3.012527e-17)
(22.149725 -2.0366879e-30 -2.0366879e-30)
(22.156144 2.8744089e-17 2.8744089e-17)
(22.162406 0 2.8070524e-17)
(22.168514 -2.7408236e-17 -3.8170457e-30)
(22.174472 -1.8517802e-30 -2.6757176e-17)
(22.18028 -7.2485382e-30 5.2234565e-17)
(22.185943 -2.5488491e-17 -2.5488491e-17)
(22.191462 0 -2.4870738e-17)
(22.196841 2.4263955e-17 2.4263955e-17)
(22.202081 2.3668067e-17 -2.3668067e-17)
(22.207186 0 0)
(22.212158 0 0)
(22.216999 0 0)
(22.221712 -2.1391936e-17 -2.1391936e-17)
(22.2263 -1.4429178e-30 2.0849346e-17)
(22.230764 2.0317156e-17 4.0634312e-17)
(22.235108 0 -1.9795279e-17)
(22.239334 0 1.3400394e-30)
(22.243444 -1.8782075e-17 -1.8782075e-17)
(22.24744 -1.8290556e-17 -1.8290556e-17)
(22.251325 1.7808956e-17 3.5617912e-17)
(22.255101 1.7337173e-17 -4.9275209e-33)
(22.258771 0 4.7961934e-33)
(22.262337 -1.6422643e-17 -1.6422643e-17)
(22.2658 -1.5979677e-17 -1.5979677e-17)
(22.269164 1.5546102e-17 3.1092205e-17)
(22.27243 1.5121804e-17 -2.1489375e-33)
(22.275601 0 3.0638565e-30)
(22.278679 -1.4300583e-17 -1.4300583e-17)
(22.281665 3.8607065e-30 7.721413e-30)
(22.284562 9.3725809e-31 1.8745162e-30)
(22.287372 -1.3135466e-17 -1.3135466e-17)
(22.290098 1.2764415e-17 1.2764415e-17)
(22.29274 1.2401824e-17 0)
(22.295301 0 1.2047578e-17)
(22.297783 -1.1701553e-17 -1.1701553e-17)
(22.300188 1.579341e-30 -1.1363624e-17)
(22.302517 -1.1033677e-17 1.1033677e-17)
(22.304773 -1.4856747e-30 0)
(22.306958 2.0794443e-17 1.0397222e-17)
(22.309072 -1.0090472e-17 -1.0090472e-17)
(22.311119 1.3580204e-30 -9.7912082e-18)
(22.313099 3.2978848e-30 3.2978848e-30)
(22.315015 6.3771661e-31 1.8429288e-17)
(22.316867 8.9371009e-18 1.7874202e-17)
(22.318659 -8.6665486e-18 -2.5999646e-17)
(22.32039 -8.4028698e-18 -1.680574e-17)
(22.322064 0 0)
(22.32368 7.895634e-18 1.5791268e-17)
(22.325242 7.6518349e-18 7.6518349e-18)
(22.326751 0 -7.4144197e-18)
(22.328207 -7.1832648e-18 -7.1832648e-18)
(22.329613 -6.9582546e-18 -6.9582546e-18)
(22.330969 1.3478536e-17 1.3478536e-17)
(22.332278 6.526184e-18 1.3052368e-17)
(22.33354 -6.3188885e-18 -6.3188885e-18)
(22.334758 -6.1172629e-18 -1.2234526e-17)
(22.335931 -1.6425134e-30 -1.6425134e-30)
(22.337062 5.7305548e-18 1.146111e-17)
(22.338151 -5.5452448e-18 -5.5452448e-18)
(22.339201 3.7206721e-31 7.4413441e-31)
(22.340211 5.1901432e-18 5.1901432e-18)
(22.341184 -5.02013e-18 -1.004026e-17)
(22.34212 3.3737868e-31 4.8549927e-18)
(22.343021 -3.2690179e-31 -6.5380357e-31)
(22.343888 1.2900388e-33 -4.5389206e-18)
(22.344721 3.0304015e-31 4.3877685e-18)
(22.345522 -4.2410685e-18 -4.2410685e-18)
(22.346292 0 8.1974285e-18)
(22.347031 0 -1.6524849e-30)
(22.347741 3.8266358e-18 -7.6532715e-18)
(22.348423 3.6967118e-18 7.3934236e-18)
(22.349077 0 2.471191e-31)
(22.349705 0 -3.4486012e-18)
(22.350308 0 0)
(22.350885 0 0)
(22.351438 -3.1043509e-18 -3.1043509e-18)
(22.351968 -2.0653869e-31 2.9966739e-18)
(22.352476 5.784761e-18 5.784761e-18)
(22.352962 -1.1900403e-33 -2.791388e-18)
(22.353428 -2.693606e-18 7.6556886e-34)
(22.353873 -2.5989478e-18 -2.5989478e-18)
(22.354299 3.4811859e-31 -2.5073355e-18)
(22.354706 3.3512267e-31 2.4186833e-18)
(22.355094 3.3152624e-34 0)
(22.355466 2.2499382e-18 2.2499382e-18)
(22.35582 2.1696912e-18 2.1696912e-18)
(22.356158 2.092089e-18 0)
(22.356481 -4.0341266e-18 -4.0341266e-18)
(22.356789 -5.8336132e-18 -1.9445377e-18)
(22.357082 1.8744379e-18 3.7488758e-18)
(22.357361 3.6133995e-18 -1.2503602e-31)
(22.357626 0 4.9489364e-34)
(22.357879 -1.6780249e-18 -1.6780249e-18)
(22.35812 -1.6169575e-18 -1.6169575e-18)
(22.358348 1.5579842e-18 1.5579842e-18)
(22.358565 -4.2662096e-34 -1.5010391e-18)
(22.358771 6.1649469e-34 1.4460652e-18)
(22.358966 -3.9591483e-34 -7.9182966e-34)
(22.359151 -1.3417864e-18 -2.6835728e-18)
(22.359326 -1.2923669e-18 1.2923669e-18)
(22.359492 1.2446858e-18 1.2446858e-18)
(22.359648 2.3973722e-18 1.1986861e-18)
(22.359797 -1.1543182e-18 1.6010157e-31)
(22.359936 -2.0229689e-48 -1.111529e-18)
(22.360068 -1.0702655e-18 0)
(22.360193 -2.8555844e-31 0)
(22.36031 1.9842544e-18 9.9212718e-19)
(22.36042 0 -1.3261354e-31)
(22.360523 0 2.5520085e-31)
(22.36062 -1.7703413e-18 1.2302293e-31)
(22.360711 4.7320496e-31 -8.5206854e-19)
(22.360796 1.6403393e-18 8.2016967e-19)
(22.360875 0 -1.1218458e-34)
(22.360949 -7.5980131e-19 -7.5980131e-19)
(22.361018 -7.3124718e-19 0)
(22.361082 7.0372084e-19 0)
(22.361141 -9.6232589e-35 0)
(22.361196 9.0464321e-32 0)
(22.361246 -8.9081811e-35 0)
(22.361293 -6.0298037e-19 0)
(22.361335 5.7988942e-19 0)
(22.361374 5.5752141e-19 5.5752141e-19)
(22.361409 0 0)
(22.361441 -5.146707e-19 -5.146707e-19)
(22.361469 6.8589732e-32 0)
(22.361494 4.7374436e-19 4.7374436e-19)
(22.361515 -9.0744063e-19 1.2586015e-31)
(22.361534 1.2033135e-31 -4.3378924e-19)
(22.361549 4.1376171e-19 0)
(22.36156 1.0924289e-31 0)
(22.361568 7.4500086e-19 3.7250043e-19)
(22.361577 -7.1420584e-19 4.9580187e-32)
(22.36159 -3.3297858e-19 -3.3297858e-19)
(22.361594 3.130889e-19 0)
(22.361587 4.3283379e-35 0)
(22.361589 2.9768352e-19 2.9768352e-19)
(22.361598 0 2.6904521e-19)
(22.361592 0 -2.6199307e-19)
(22.361581 -2.5189047e-19 -2.5189047e-19)
(22.361586 3.3921992e-32 0)
(22.361594 4.7774587e-19 2.3887293e-19)
(22.361582 -3.0486859e-35 -3.0486859e-35)
(22.361556 -6.4431339e-19 -2.1477113e-19)
(22.361547 2.0786418e-19 2.0786418e-19)
(22.361552 1.9697556e-19 1.9697556e-19)
(22.361544 -3.9550603e-19 -1.9775302e-19)
(22.361536 1.8500025e-19 -1.8500025e-19)
(22.361521 -1.751376e-19 0)
(22.361494 -3.5589514e-19 1.7794757e-19)
(22.361497 1.7650573e-19 1.7650573e-19)
(22.361507 1.7604333e-19 -1.7604333e-19)
(22.361494 1.6850489e-19 -1.6850489e-19)
(22.361469 -1.6425151e-19 0)
(22.361456 1.8926926e-49 1.6454023e-19)
(22.361453 1.5827806e-19 1.5827806e-19)
(22.36146 -1.5307324e-19 -1.5307324e-19)
(22.361452 1.4772484e-19 -1.4772484e-19)
(22.361418 -1.4906196e-19 0)
(22.361396 -4.1067045e-32 0)
(22.361407 -4.2948741e-35 0)
(22.361409 -1.5114478e-19 0)
(22.361407 2.8383606e-19 0)
(22.36141 -1.4391196e-19 0)
(22.361422 -3.8614764e-32 0)
(22.361412 3.6520402e-32 0)
(22.361383 1.3483161e-19 1.3483161e-19)
(22.361358 2.6529605e-19 -5.7577528e-48)
(22.361363 -4.0667752e-19 -1.3555917e-19)
(22.361367 -3.767707e-32 0)
(22.361369 7.0133212e-32 0)
(22.361357 -3.4549711e-32 0)
(22.361338 2.5458018e-19 1.2729009e-19)
(22.361338 -2.4872647e-19 1.7248924e-32)
(22.361341 3.2643051e-32 -1.1767677e-19)
(22.361339 2.4538599e-19 1.22693e-19)
(22.361337 0 -1.6445638e-32)
(22.361334 0 1.6528922e-35)
(22.361332 -1.1507532e-19 1.5977063e-32)
(22.361338 1.5122929e-32 -1.09035e-19)
(22.361349 1.0723517e-19 1.0723517e-19)
(22.361344 9.9115163e-20 -9.9115163e-20)
(22.361325 -1.0186442e-19 5.6600396e-32)
(22.361306 -3.0803931e-19 1.0267977e-19)
(22.361312 1.0577854e-19 -1.0577854e-19)
(22.361311 1.0508009e-19 0)
(22.361303 2.9554792e-35 0)
(22.361303 1.0409415e-19 1.0409415e-19)
(22.361311 0 1.4291819e-32)
(22.361315 -2.0139082e-19 -1.0069541e-19)
(22.361311 -1.8236594e-19 9.1182972e-20)
(22.361301 9.1378137e-20 9.1378137e-20)
(22.361294 1.731347e-19 0)
(22.361296 8.3384149e-20 -8.3384149e-20)
(22.361299 -1.6848805e-19 -8.4244026e-20)
(22.361302 -1.6940398e-19 8.4701992e-20)
(22.361307 1.6790158e-19 2.3299534e-32)
(22.361317 1.6732311e-19 4.8478186e-49)
(22.361315 0 1.1206886e-32)
(22.361298 -1.5986696e-19 -7.993348e-20)
(22.36128 7.8954101e-20 7.8954101e-20)
(22.361283 1.6180032e-19 4.7704947e-49)
(22.361286 -7.9652036e-20 1.1058893e-32)
(22.361281 -7.8397515e-20 7.8397515e-20)
(22.361278 1.1084239e-35 0)
(22.36128 -1.0611809e-32 0)
(22.361285 -7.4337855e-20 -7.4337855e-20)
(22.361286 7.2310453e-20 -1.0275933e-35)
(22.361286 7.3513789e-20 3.0588634e-32)
(22.361287 -7.1566528e-20 -7.1566528e-20)
(22.361282 9.7265464e-33 0)
(22.361278 9.7909456e-36 0)
(22.361286 9.2883134e-33 6.6967925e-20)
(22.361294 6.6203907e-20 -1.8355283e-32)
(22.361294 -6.2366808e-20 -6.2366808e-20)
(22.361293 2.3769756e-32 0)
(22.361296 7.2721384e-33 0)
(22.361303 1.3798228e-32 0)
(22.361309 4.9196623e-20 4.9196623e-20)
(22.361314 -4.8523089e-20 -6.8955457e-36)
(22.361319 6.8261886e-33 -4.9165846e-20)
(22.361327 1.3615328e-32 4.9107817e-20)
(22.361331 7.3770682e-36 -5.1911503e-20)
(22.361334 1.0637944e-19 1.4784844e-32)
(22.361336 5.5397878e-20 1.1079576e-19)
(22.361336 -5.5999884e-20 -5.5999884e-20)
(22.361337 -1.0502583e-19 -2.1872687e-32)
(22.361338 7.3999854e-33 -7.3999854e-33)
(22.361337 1.0457584e-19 7.2596571e-33)
(22.361335 4.9598376e-20 4.9598376e-20)
(22.361339 -1.0179298e-19 0)
(22.361348 -4.9912394e-20 0)
(22.361352 5.0068502e-20 -5.0068502e-20)
(22.361349 4.8881782e-20 -6.7867491e-33)
(22.361345 1.1965417e-32 1.1965417e-32)
(22.361344 -3.7636978e-20 -2.1296134e-49)
(22.361346 0 3.7333216e-20)
(22.361355 0 -3.9034625e-20)
(22.361365 -4.0920365e-20 -4.0920365e-20)
(22.36137 0 0)
(22.361375 3.7967841e-20 3.7967841e-20)
(22.36138 -3.648509e-20 5.0655917e-33)
(22.361382 -5.3479615e-36 -3.7632934e-20)
(22.361387 1.1234161e-32 0)
(22.361395 0 0)
(22.361398 4.4168952e-20 4.4168952e-20)
(22.3614 -4.4232853e-20 -1.2571733e-35)
(22.361404 -4.4125954e-20 9.132374e-50)
(22.361405 8.6962769e-20 4.3481384e-20)
(22.361403 4.0528757e-20 -4.0528757e-20)
(22.3614 -3.9005944e-20 5.4045011e-33)
(22.361402 0 -5.4620816e-33)
(22.361408 0 1.0847713e-32)
(22.361409 3.7255436e-20 3.7255436e-20)
(22.361408 -9.621771e-33 -3.4632836e-20)
(22.361409 -3.3017998e-20 9.168441e-33)
(22.361412 0 -9.4244373e-33)
(22.361414 0 9.2522019e-33)
(22.361417 3.0033757e-20 3.0033757e-20)
(22.361419 -1.1747671e-32 -2.8194708e-20)
(22.361424 -2.6440496e-20 7.3419997e-33)
(22.361428 0 -3.9529517e-33)
(22.36143 0 0)
(22.361432 0 2.6744209e-20)
(22.361434 0 -2.3180277e-20)
(22.361435 0 3.0810769e-33)
(22.361442 0 -3.3068438e-36)
(22.361448 0 3.2174575e-33)
(22.361449 0 -2.9044531e-33)
(22.361452 -3.9071875e-20 -1.9535938e-20)
(22.36146 -1.175681e-32 2.1180542e-20)
(22.361469 2.1621077e-20 2.1621077e-20)
(22.361476 -1.9963115e-20 -1.9963115e-20)
(22.361483 1.828094e-20 -1.828094e-20)
(22.361488 -1.8429272e-20 0)
(22.361494 5.4787626e-33 1.9710309e-20)
(22.361499 2.0229431e-20 2.0229431e-20)
(22.361503 5.3826625e-33 0)
(22.361505 1.9886593e-20 -1.9886593e-20)
(22.361509 0 3.1820503e-33)
(22.361515 0 -3.6481527e-36)
(22.361518 -2.5194502e-20 -3.4944256e-33)
(22.361522 -6.2218397e-33 2.2406502e-20)
(22.361527 1.9476137e-20 -1.9476137e-20)
(22.361528 0 -2.414997e-33)
(22.36153 0 4.6892422e-33)
(22.361535 0 1.7832273e-20)
(22.361541 0 1.8037059e-20)
(22.361545 0 -3.1091927e-20)
(22.361549 0 1.8561174e-36)
(22.361554 0 -1.7646649e-33)
(22.36156 -2.5972986e-20 -1.2986493e-20)
(22.361566 1.0476637e-32 1.2584974e-20)
(22.361572 2.3883423e-20 -1.6579879e-33)
(22.361576 -1.2217605e-20 -1.2217605e-20)
(22.361581 -1.8996828e-36 0)
(22.361586 -1.4665956e-20 0)
(22.361591 8.357296e-33 0)
(22.361599 3.1815063e-20 1.5907531e-20)
(22.361602 1.6659196e-20 1.6659196e-20)
(22.361599 -7.5985685e-50 -1.8137718e-20)
(22.361594 -5.7788038e-20 -1.9262679e-20)
(22.361596 0 0)
(22.361597 3.8721684e-20 1.9360842e-20)
(22.361593 0 1.9156359e-20)
(22.361591 0 -2.1107214e-20)
(22.361594 -4.3996508e-20 -2.1998254e-20)
(22.361594 6.0405418e-33 0)
(22.36159 5.6328116e-20 1.8776039e-20)
(22.36159 -1.6670686e-20 1.6670686e-20)
(22.361593 -1.4011597e-20 -1.4011597e-20)
(22.361593 1.2771063e-20 -3.5462702e-33)
(22.361595 -1.3344081e-20 1.3344081e-20)
(22.361598 1.3069006e-20 0)
(22.361598 2.6699964e-33 0)
(22.361598 -6.13373e-21 0)
(22.361604 5.8652408e-21 0)
(22.361611 0 -6.266472e-21)
(22.361616 4.7453956e-21 1.3163532e-33)
(22.361621 -3.3468757e-21 3.3468757e-21)
(22.361626 -6.8675038e-21 -3.4337519e-21)
(22.361632 4.0003425e-21 -5.5540775e-34)
(22.361638 4.2947958e-21 5.9689999e-34)
(22.361644 4.2920525e-21 -6.0476031e-51)
(22.361651 3.9041757e-21 -3.9041757e-21)
(22.361657 -6.5652023e-21 -3.2826011e-21)
(22.36166 -3.3690492e-21 6.7380984e-21)
(22.361662 4.2517704e-21 5.9031602e-34)
(22.361666 0 -7.1601236e-34)
(22.361669 -6.1783746e-21 6.1783746e-21)
(22.361673 7.8287729e-21 0)
(22.361679 9.3859098e-21 -9.3859098e-21)
(22.361678 -2.8264666e-20 -9.4215553e-21)
(22.361671 -2.7283641e-36 9.5995778e-21)
(22.361663 2.2359736e-20 3.1012494e-33)
(22.361665 -1.204752e-20 -1.204752e-20)
(22.361666 -1.6362026e-33 0)
(22.361667 -1.0824155e-20 0)
(22.361668 3.1533246e-36 1.1094774e-20)
(22.361667 2.2008396e-20 -1.5262596e-33)
(22.361666 -9.5723807e-21 -9.5723807e-21)
(22.361662 0 0)
(22.361661 2.3634431e-33 8.5113881e-21)
(22.361662 1.4445694e-36 -1.4445694e-36)
(22.361662 1.0248387e-20 2.8457732e-33)
(22.361662 -8.8274821e-21 1.2243536e-33)
(22.361661 2.126478e-33 -7.6580136e-21)
(22.361661 8.1987024e-34 5.9111925e-21)
(22.361662 4.0906195e-37 -4.0906195e-37)
(22.361663 5.40144e-22 1.4998724e-34)
(22.361666 -9.9082369e-22 9.9082369e-22)
(22.361668 -1.4564273e-50 -1.7818487e-21)
(22.36167 1.6577652e-34 -1.6577652e-34)
(22.361672 -1.7580834e-37 1.7580834e-37)
(22.361674 -4.7564715e-21 -3.3019437e-34)
(22.361677 -3.8962545e-34 -2.8091654e-21)
(22.36168 2.8309318e-21 2.8309318e-21)
(22.361683 0 0)
(22.361686 0 -1.4294131e-33)
(22.361688 -2.5095876e-21 -3.4807464e-34)
(22.36169 -9.6154754e-34 -9.6154754e-34)
(22.361692 2.0006426e-21 -2.8430842e-37)
(22.361694 -1.7578208e-21 -1.7578208e-21)
(22.361696 2.2071999e-34 1.5897429e-21)
(22.361698 7.0973789e-50 7.0973789e-50)
(22.3617 -1.3438969e-34 -1.3438969e-34)
(22.361702 8.0744054e-22 2.2421017e-34)
(22.361703 7.9133266e-22 -1.0986867e-34)
(22.361704 8.6491478e-35 1.2471919e-21)
(22.361705 -3.7174004e-22 -3.7174004e-22)
(22.361707 0 -2.9277438e-22)
(22.361709 0 -5.9878414e-35)
(22.36171 6.2501471e-22 8.6777074e-35)
(22.361712 -8.462395e-22 1.692479e-21)
(22.361713 9.2935407e-34 -1.116379e-21)
(22.361714 1.1204946e-21 -1.1204946e-21)
(22.361715 -5.985133e-22 3.4428495e-50)
(22.361716 0 0)
(22.361716 1.1347962e-22 -2.2158726e-50)
(22.361713 8.0444369e-22 -8.0444369e-22)
(22.36171 -1.211923e-21 1.211923e-21)
(22.36171 -5.9482805e-22 4.6339004e-50)
(22.361711 0 -2.6454417e-35)
(22.361711 5.1411517e-22 -7.306016e-38)
(22.361712 7.1506228e-22 -7.1506228e-22)
(22.361711 -2.0136322e-21 2.0136322e-21)
(22.361708 -1.4401681e-21 3.9990603e-34)
(22.361706 8.6851019e-22 -8.6851019e-22)
(22.361707 1.9756301e-22 2.7401583e-35)
(22.361707 7.6179493e-35 -7.6179493e-35)
(22.361705 1.3793194e-21 1.3793194e-21)
(22.361705 4.3525895e-34 -1.5674834e-21)
(22.361705 -2.8871119e-21 5.3648226e-50)
(22.361703 0 -8.4507348e-34)
(22.3617 0 7.8984625e-34)
(22.361695 0 -8.6193598e-34)
(22.361695 2.293494e-21 -6.3685763e-34)
(22.361695 1.8732896e-21 -1.6501562e-50)
(22.361695 0 0)
(22.361692 -3.713257e-21 3.713257e-21)
(22.361689 -6.289253e-34 0)
(22.361687 4.8143892e-21 0)
(22.361687 0 -4.6945601e-21)
(22.361687 0 -1.1770855e-33)
(22.361686 -4.3892365e-21 4.3892365e-21)
(22.361683 -7.3058936e-34 0)
(22.361679 7.944788e-34 0)
(22.361677 -4.9454537e-21 -9.8909074e-21)
(22.361677 4.4560537e-21 -3.7095393e-33)
(22.361677 -2.1842373e-33 1.0498773e-20)
(22.361675 -6.2684524e-21 -6.2684524e-21)
(22.361673 0 9.5254154e-37)
(22.36167 -6.8460248e-21 -9.5050243e-34)
(22.361667 -9.9467862e-34 -7.1642052e-21)
(22.361664 7.0865848e-21 0)
(22.361664 -6.1131618e-21 0)
(22.361663 5.8951182e-21 0)
(22.361661 6.7084818e-21 -6.7084818e-21)
(22.361658 -7.4859742e-21 -2.0765784e-33)
(22.361653 0 7.7876319e-21)
(22.361649 6.6286697e-21 0)
(22.361649 5.6539484e-21 0)
(22.361649 -5.9977794e-21 -5.9977794e-21)
(22.361647 -6.9173241e-21 9.8301088e-37)
(22.361644 0 7.8026556e-21)
(22.36164 -8.1217232e-21 0)
(22.361639 8.1259726e-21 0)
(22.361637 7.8192661e-21 -7.8192661e-21)
(22.361635 -7.8308351e-21 -2.1722414e-33)
(22.361631 -1.6777668e-20 -2.3306044e-33)
(22.361629 4.7610376e-33 2.3805188e-33)
(22.361628 2.4039559e-20 8.0131863e-21)
(22.361627 -2.2096281e-50 -7.9139848e-21)
(22.361624 -8.5390578e-21 2.369913e-33)
(22.361621 -1.8176942e-20 -2.522396e-33)
(22.361617 5.1534122e-33 2.5767061e-33)
(22.361615 1.8191812e-20 9.0959058e-21)
(22.361615 -8.114322e-21 0)
(22.361614 7.967272e-21 0)
(22.361611 -8.892791e-21 -8.892791e-21)
(22.361608 -9.4857799e-21 5.1110937e-50)
(22.361604 1.933408e-20 9.66704e-21)
(22.361603 0 0)
(22.361602 0 0)
(22.3616 -1.7579321e-20 -8.7896606e-21)
(22.361597 2.3418956e-50 4.6837913e-50)
(22.361595 1.9510413e-20 9.7552066e-21)
(22.361594 0 0)
(22.361592 0 0)
(22.36159 -1.8591382e-20 -9.2956911e-21)
(22.361587 -2.0310818e-50 -4.0621635e-50)
(22.361584 1.9457666e-20 9.7288328e-21)
(22.361582 0 0)
(22.361581 0 0)
(22.36158 -1.7616861e-20 -8.8084307e-21)
(22.361578 -8.8133872e-21 1.2524576e-36)
(22.361574 1.8109282e-20 9.0546412e-21)
(22.361571 9.0449314e-21 -9.0449314e-21)
(22.36157 0 2.3768486e-33)
(22.36157 -1.5975282e-20 -2.2191441e-33)
(22.361568 4.5144668e-33 2.2572334e-33)
(22.361565 1.7299424e-20 8.6497119e-21)
(22.361561 -8.8512588e-21 0)
(22.361558 0 0)
(22.361557 8.0696469e-21 0)
(22.361556 -7.7380642e-21 0)
(22.361553 1.1273252e-36 0)
(22.36155 8.3220971e-21 -8.3220971e-21)
(22.361546 -8.2613624e-21 2.2928419e-33)
(22.361545 7.641431e-21 7.641431e-21)
(22.361544 7.2652887e-21 0)
(22.361542 -7.5528965e-21 0)
(22.361538 -8.0155066e-21 0)
(22.361533 2.2429592e-33 0)
(22.361531 7.6679059e-21 0)
(22.361531 -6.7053899e-21 0)
(22.361531 -1.8309204e-33 0)
(22.361528 7.3727217e-21 -7.3727217e-21)
(22.361526 -7.8682742e-21 4.3674901e-33)
(22.361523 8.0727319e-21 8.0727319e-21)
(22.36152 8.0418506e-21 0)
(22.361518 -7.9229519e-21 0)
(22.361516 -7.8337092e-21 0)
(22.361514 2.1592302e-33 0)
(22.361512 7.8019708e-21 0)
(22.361509 -7.9178425e-21 0)
(22.361507 1.1267279e-36 0)
(22.361505 7.7880348e-21 -7.7880348e-21)
(22.361503 -7.6395069e-21 2.1202534e-33)
(22.361501 7.6433793e-21 7.6433793e-21)
(22.361498 7.8659727e-21 0)
(22.361496 -7.9622636e-21 0)
(22.361494 -1.5713169e-20 -7.8565843e-21)
(22.361492 4.3514179e-33 2.1757089e-33)
(22.36149 1.566413e-20 7.832065e-21)
(22.361488 -7.7360107e-21 0)
(22.361486 1.0852975e-36 0)
(22.361484 1.5318827e-20 0)
(22.361481 2.2061648e-36 -7.7622523e-21)
(22.36148 -7.7677809e-21 -2.1580621e-33)
(22.361478 0 7.6290524e-21)
(22.361476 7.5672901e-21 0)
(22.361473 0 0)
(22.361472 -7.6400654e-21 0)
(22.36147 0 0)
(22.361468 0 0)
(22.361465 0 0)
(22.361462 -7.6573461e-21 0)
(22.361461 -5.6668295e-51 -7.3738929e-21)
(22.36146 7.1461872e-21 1.0155343e-36)
(22.361458 0 7.2128217e-21)
(22.361455 7.5372457e-21 0)
(22.361452 -2.1136429e-33 0)
(22.361451 -7.4140416e-21 0)
(22.361449 0 0)
(22.361447 0 0)
(22.361445 0 0)
(22.361443 -7.3978733e-21 0)
(22.361441 2.0170017e-33 -7.2637603e-21)
(22.361439 7.1987998e-21 -1.023011e-36)
(22.361436 0 7.3010027e-21)
(22.361434 7.2937247e-21 0)
(22.361433 1.9527003e-33 0)
(22.361432 -6.909919e-21 0)
(22.361429 0 -6.9862162e-21)
(22.361426 7.1231641e-21 3.9549096e-33)
(22.361424 -7.0793964e-21 7.0793964e-21)
(22.361423 3.7619318e-33 0)
(22.361422 6.6294088e-21 -6.6294088e-21)
(22.361419 -6.7951707e-21 -1.8878493e-33)
(22.361416 0 6.9338059e-21)
(22.361412 -6.8658563e-21 0)
(22.361411 -1.8384321e-33 0)
(22.36141 6.1870928e-21 -6.1870928e-21)
(22.361409 0 -6.0622035e-21)
(22.361407 6.3408223e-21 6.3408223e-21)
(22.361405 -6.5306176e-21 6.5306176e-21)
(22.361403 -3.5906166e-33 0)
(22.361401 6.3372036e-21 0)
(22.361399 -3.5206598e-33 0)
(22.361396 -9.1204534e-37 0)
(22.361393 1.7442301e-33 6.2782243e-21)
(22.361392 -8.4596962e-37 -8.4596962e-37)
(22.361391 -5.7267172e-21 -1.1453434e-20)
(22.361389 0 -5.8073976e-21)
(22.361387 6.0477021e-21 1.2095404e-20)
(22.361384 -1.711326e-33 1.2332193e-20)
(22.361382 -1.6921779e-33 -6.0971035e-21)
(22.36138 1.6372247e-51 -5.9100335e-21)
(22.361378 -1.6196804e-33 0)
(22.361376 0 0)
(22.361374 -1.2017534e-20 0)
(22.361372 -1.6723316e-33 0)
(22.36137 5.934335e-21 -5.934335e-21)
(22.361368 -5.9475582e-21 -1.6523638e-33)
(22.361366 1.6860677e-33 6.0750879e-21)
(22.361363 6.1335814e-21 0)
(22.361361 6.0868652e-21 0)
(22.36136 1.6612695e-33 0)
(22.361358 -1.6607072e-33 0)
(22.361356 6.1652757e-21 0)
(22.361354 -6.2879664e-21 0)
(22.361352 -6.2466349e-21 0)
(22.361351 0 0)
(22.361349 -6.2982032e-21 0)
(22.361346 1.7761629e-33 0)
(22.361345 6.4198502e-21 0)
(22.361344 0 0)
(22.361342 0 0)
(22.36134 0 0)
(22.361338 -1.3449261e-20 -6.7246303e-21)
(22.361335 7.5787493e-33 3.7893746e-33)
(22.361333 1.3390855e-20 6.6954275e-21)
(22.361333 0 0)
(22.361332 0 0)
(22.361331 0 6.386933e-21)
(22.361329 0 -1.8820191e-33)
(22.361327 0 1.0015738e-36)
(22.361324 0 -7.1233871e-21)
(22.361322 0 -6.9957021e-21)
(22.361321 -1.367648e-20 -3.7967146e-33)
(22.361321 3.657398e-33 1.828699e-33)
(22.36132 1.3001617e-20 6.5008086e-21)
(22.361318 6.7535138e-21 0)
(22.361316 -6.9356783e-21 0)
(22.361314 -6.9755166e-21 0)
(22.361313 1.920968e-33 0)
(22.361312 3.7071457e-33 0)
(22.361311 6.567558e-21 -6.567558e-21)
(22.361309 -6.7114586e-21 3.7263232e-33)
(22.361307 6.8859303e-21 6.8859303e-21)
(22.361304 6.856341e-21 0)
(22.361304 -6.6894083e-21 0)
(22.361303 -6.4441012e-21 0)
(22.361301 3.525003e-33 0)
(22.3613 6.4987026e-21 0)
(22.361298 6.5945788e-21 0)
(22.361296 -1.8185601e-33 0)
(22.361295 -6.3988518e-21 -6.3988518e-21)
(22.361294 -6.2997926e-21 3.4968636e-33)
(22.361292 6.3625468e-21 6.3625468e-21)
(22.36129 6.3318484e-21 0)
(22.361289 -6.1252724e-21 0)
(22.361288 5.9473517e-21 0)
(22.361286 0 0)
(22.361284 -6.0224553e-21 0)
(22.361282 -6.0246858e-21 0)
(22.36128 1.6437787e-33 0)
(22.361279 5.6975684e-21 -5.6975684e-21)
(22.361278 -5.5954888e-21 4.6596773e-33)
(22.361276 5.6774893e-21 5.6774893e-21)
(22.361274 5.7765546e-21 0)
(22.361272 -5.7374624e-21 0)
(22.361271 5.5699535e-21 0)
(22.36127 1.5155399e-33 0)
(22.361268 -5.4476324e-21 0)
(22.361266 -5.5127943e-21 0)
(22.361264 -7.7955528e-37 0)
(22.361263 1.0660276e-20 0)