/*--------------------------------*- C++ -*----------------------------------*\
  =========                 |
  \\      /  F ield         | OpenFOAM: The Open Source CFD Toolbox
   \\    /   O peration     | Website:  https://openfoam.org
    \\  /    A nd           | Version:  7
     \\/     M anipulation  |
\*---------------------------------------------------------------------------*/
FoamFile
{
    version     2.0;
    format      ascii;
    class       volScalarField;
    location    "0.00109";
    object      mag(U);
}
// * * * * * * * * * * * * * * * * * * * * * * * * * * * * * * * * * * * * * //

dimensions      [0 1 -1 0 0 0 0];

internalField   nonuniform List<scalar> 
5000
(
1.5055328e-13
1.9739657e-13
3.0453882e-13
2.0878778e-13
2.4057985e-13
2.6318794e-13
2.6646653e-13
1.8613952e-13
3.9817738e-14
3.1597276e-15
7.810887e-15
1.6122091e-13
2.2380482e-13
1.1873719e-13
1.5949363e-13
3.623739e-14
1.5350472e-13
1.0265161e-13
4.3405985e-13
5.268551e-13
5.0687153e-13
5.4625018e-13
5.2609316e-13
5.0362462e-13
6.3719982e-13
7.5032391e-13
8.2202079e-13
8.7110627e-13
7.7511379e-13
6.9367997e-13
9.9509519e-13
8.3757607e-13
8.2414019e-13
8.061299e-13
6.8140858e-13
7.0899226e-13
7.2996203e-13
6.2850049e-13
3.8931637e-13
8.9610422e-13
7.982606e-13
8.7570678e-13
8.9583183e-13
9.2365953e-13
8.1680939e-13
8.3850565e-13
8.1806124e-13
1.1230732e-12
1.1125452e-12
8.3317127e-13
6.6961723e-13
4.9243762e-13
9.7676087e-13
8.4914809e-13
9.1782043e-13
1.0262281e-12
1.0747481e-12
6.9540771e-13
7.5251827e-13
7.627266e-13
5.3143187e-13
4.7696191e-13
2.8180161e-13
3.5418882e-13
5.6623039e-13
3.5350359e-13
2.7417124e-13
5.1558581e-13
4.820722e-13
6.7222217e-13
3.5760193e-13
5.1104137e-13
7.2730384e-13
3.4273459e-13
5.8638506e-13
6.183694e-13
5.4001832e-13
4.8829627e-13
6.2350994e-13
6.8930837e-13
5.6578152e-13
4.714751e-13
5.7082852e-13
2.6546478e-13
2.4330829e-13
5.250929e-14
2.3957914e-13
2.249446e-13
1.9535814e-13
2.3886171e-13
5.1155228e-13
3.8536459e-13
5.9751631e-13
7.4632005e-13
9.8598424e-13
1.3097449e-12
1.5526599e-12
1.7049016e-12
2.2634295e-12
2.6075756e-12
2.7375352e-12
3.0672808e-12
3.2568364e-12
3.7661417e-12
3.9189241e-12
3.9508457e-12
4.611484e-12
5.2140887e-12
5.7565596e-12
6.5006958e-12
7.0662524e-12
7.5101506e-12
8.3448464e-12
9.3935328e-12
1.0517848e-11
1.1678893e-11
1.3560263e-11
1.4732318e-11
1.5780938e-11
1.7403311e-11
1.9134164e-11
2.1062677e-11
2.2873122e-11
2.5202563e-11
2.7657891e-11
3.0409156e-11
3.3401787e-11
3.6713218e-11
4.0248141e-11
4.3849289e-11
4.7742977e-11
5.2036136e-11
5.6812646e-11
6.255321e-11
6.8649178e-11
7.4928867e-11
8.2034561e-11
8.9596645e-11
9.8040929e-11
1.0711666e-10
1.1676279e-10
1.2781742e-10
1.3984291e-10
1.5268424e-10
1.6601608e-10
1.8139187e-10
1.9789506e-10
2.1600474e-10
2.3611955e-10
2.5818843e-10
2.815979e-10
3.0685354e-10
3.3490493e-10
3.6517208e-10
3.983704e-10
4.3461505e-10
4.7361459e-10
5.1581328e-10
5.6205736e-10
6.1257406e-10
6.6708354e-10
7.2555693e-10
7.8994217e-10
8.6085316e-10
9.3747352e-10
1.0199027e-09
1.1095031e-09
1.2070162e-09
1.3137653e-09
1.4287268e-09
1.554128e-09
1.6903746e-09
1.8377391e-09
1.9974774e-09
2.1710176e-09
2.3593085e-09
2.5631286e-09
2.7851051e-09
3.0254746e-09
3.2857335e-09
3.568102e-09
3.8742929e-09
4.2057601e-09
4.5655771e-09
4.9554002e-09
5.377117e-09
5.8342196e-09
6.3293836e-09
6.8658257e-09
7.4458298e-09
8.0739661e-09
8.7538841e-09
9.4899537e-09
1.0286287e-08
1.1146923e-08
1.207897e-08
1.3087054e-08
1.4176607e-08
1.5355084e-08
1.6628784e-08
1.8005129e-08
1.9493043e-08
2.1100865e-08
2.2838006e-08
2.47149e-08
2.6741149e-08
2.8929285e-08
3.1292497e-08
3.3843496e-08
3.6597237e-08
3.9569263e-08
4.2776362e-08
4.623643e-08
4.99693e-08
5.39953e-08
5.8337421e-08
6.3019295e-08
6.8066736e-08
7.3508134e-08
7.9372345e-08
8.5691778e-08
9.2501402e-08
9.9836851e-08
1.0773742e-07
1.1624669e-07
1.2541037e-07
1.3527517e-07
1.4589469e-07
1.5732497e-07
1.6962521e-07
1.8286018e-07
1.9709808e-07
2.1241316e-07
2.2888411e-07
2.4659559e-07
2.6563864e-07
2.8610822e-07
3.0810944e-07
3.3175418e-07
3.5715924e-07
3.8445258e-07
4.1376877e-07
4.4525416e-07
4.7906343e-07
5.1536282e-07
5.5432898e-07
5.9615122e-07
6.4103332e-07
6.8919068e-07
7.408533e-07
7.9626885e-07
8.5570054e-07
9.1942879e-07
9.8775348e-07
1.0609946e-06
1.1394937e-06
1.2236158e-06
1.3137487e-06
1.4103066e-06
1.5137314e-06
1.624494e-06
1.7430954e-06
1.8700705e-06
2.00599e-06
2.151459e-06
2.3071242e-06
2.473674e-06
2.6518417e-06
2.8424072e-06
3.0462001e-06
3.2641037e-06
3.4970568e-06
3.7460595e-06
4.0121754e-06
4.2965346e-06
4.6003401e-06
4.924867e-06
5.2714745e-06
5.6416042e-06
6.0367881e-06
6.4586567e-06
6.9089366e-06
7.389464e-06
7.9021882e-06
8.4491766e-06
9.0326239e-06
9.6548598e-06
1.0318356e-05
1.1025731e-05
1.1779764e-05
1.2583402e-05
1.3439768e-05
1.4352172e-05
1.5324122e-05
1.6359334e-05
1.7461744e-05
1.8635522e-05
1.9885081e-05
2.1215097e-05
2.2630514e-05
2.4136569e-05
2.57388e-05
2.7443067e-05
2.925557e-05
3.1182861e-05
3.3231869e-05
3.540992e-05
3.7724756e-05
4.0184556e-05
4.2797966e-05
4.5574114e-05
4.8522638e-05
5.1653719e-05
5.4978105e-05
5.8507137e-05
6.2252785e-05
6.6227676e-05
7.0445133e-05
7.4919204e-05
7.9664702e-05
8.4697245e-05
9.0033295e-05
9.5690199e-05
0.00010168623
0.00010804066
0.00011477374
0.00012190684
0.00012946244
0.0001374642
0.00014593703
0.00015490711
0.00016440202
0.00017445074
0.00018508375
0.00019633311
0.00020823249
0.00022081729
0.00023412471
0.00024819381
0.00026306564
0.00027878327
0.00029539194
0.00031293913
0.00033147467
0.00035105082
0.00037172243
0.00039354699
0.00041658481
0.0004408991
0.00046655611
0.00049362527
0.0005221793
0.0005522944
0.00058405035
0.00061753066
0.00065282279
0.00069001824
0.00072921276
0.00077050651
0.00081400425
0.00085981552
0.00090805486
0.00095884194
0.0010123019
0.0010685653
0.0011277688
0.0011900548
0.0012555722
0.0013244765
0.0013969296
0.0014731007
0.0015531664
0.0016373108
0.0017257256
0.0018186109
0.0019161753
0.0020186361
0.0021262195
0.0022391613
0.0023577069
0.0024821119
0.0026126423
0.0027495749
0.0028931975
0.0030438098
0.0032017229
0.0033672609
0.0035407601
0.0037225702
0.0039130546
0.0041125905
0.0043215697
0.0045403991
0.0047695008
0.005009313
0.0052602901
0.0055229034
0.0057976419
0.0060850123
0.0063855396
0.0066997682
0.0070282616
0.0073716039
0.0077303994
0.008105274
0.0084968752
0.0089058731
0.0093329609
0.0097788552
0.010244297
0.010730052
0.011236913
0.011765696
0.012317246
0.012892436
0.013492165
0.014117362
0.014768986
0.015448026
0.016155501
0.016892463
0.017659994
0.018459212
0.019291266
0.02015734
0.021058655
0.021996465
0.022972062
0.023986774
0.025041969
0.026139051
0.027279465
0.028464696
0.029696268
0.030975747
0.032304742
0.033684904
0.035117927
0.036605548
0.038149551
0.039751763
0.041414057
0.043138355
0.044926621
0.046780871
0.048703168
0.050695622
0.052760394
0.054899693
0.057115779
0.059410963
0.061787606
0.064248121
0.066794972
0.069430676
0.072157801
0.074978969
0.077896855
0.080914186
0.084033743
0.08725836
0.090590927
0.094034384
0.097591727
0.10126601
0.10506032
0.10897784
0.11302175
0.11719534
0.12150192
0.12594485
0.13052756
0.13525353
0.14012627
0.14514938
0.15032648
0.15566125
0.16115742
0.16681878
0.17264914
0.17865239
0.18483245
0.19119329
0.19773893
0.20447343
0.21140089
0.21852546
0.22585133
0.23338272
0.24112391
0.2490792
0.25725294
0.26564951
0.27427331
0.28312879
0.29222044
0.30155275
0.31113027
0.32095754
0.33103917
0.34137976
0.35198393
0.36285635
0.37400167
0.38542459
0.3971298
0.40912201
0.42140594
0.43398633
0.4468679
0.4600554
0.47355357
0.48736715
0.50150088
0.5159595
0.53074773
0.54587029
0.56133189
0.57713723
0.59329099
0.60979784
0.6266624
0.64388931
0.66148316
0.67944853
0.69778994
0.71651192
0.73561893
0.75511543
0.77500581
0.79529443
0.81598562
0.83708365
0.85859276
0.88051712
0.90286085
0.92562805
0.94882273
0.97244886
0.99651034
1.021011
1.0459547
1.071345
1.0971857
1.1234803
1.1502323
1.1774453
1.2051224
1.2332671
1.2618825
1.2909718
1.320538
1.3505841
1.381113
1.4121275
1.4436302
1.4756239
1.5081111
1.5410942
1.5745756
1.6085575
1.6430422
1.6780317
1.713528
1.749533
1.7860486
1.8230763
1.8606178
1.8986747
1.9372483
1.97634
2.0159509
2.0560822
2.0967349
2.1379099
2.1796079
2.2218299
2.2645762
2.3078475
2.3516442
2.3959666
2.4408149
2.4861891
2.5320894
2.5785156
2.6254676
2.6729451
2.7209476
2.7694747
2.8185259
2.8681005
2.9181976
2.9688165
3.0199561
3.0716155
3.1237935
3.1764887
3.2297001
3.283426
3.3376649
3.3924154
3.4476757
3.503444
3.5597184
3.6164971
3.673778
3.7315589
3.7898377
3.8486122
3.9078798
3.9676383
4.0278851
4.0886176
4.1498331
4.2115289
4.2737022
4.3363501
4.3994696
4.4630577
4.5271114
4.5916274
4.6566025
4.7220334
4.7879167
4.8542491
4.921027
4.9882469
5.0559052
5.1239982
5.1925221
5.2614733
5.3308478
5.4006418
5.4708513
5.5414724
5.6125009
5.6839328
5.7557639
5.82799
5.9006069
5.9736103
6.0469959
6.1207592
6.1948959
6.2694015
6.3442714
6.4195012
6.4950862
6.5710218
6.6473033
6.7239261
6.8008854
6.8781764
6.9557942
7.0337342
7.1119913
7.1905607
7.2694374
7.3486164
7.4280928
7.5078615
7.5879174
7.6682554
7.7488704
7.8297573
7.9109109
7.9923259
8.0739971
8.1559193
8.2380872
8.3204954
8.4031387
8.4860116
8.5691088
8.6524248
8.7359543
8.8196918
8.9036318
8.9877688
9.0720973
9.1566117
9.2413064
9.326176
9.4112147
9.496417
9.5817772
9.6672896
9.7529485
9.8387483
9.9246831
10.010747
10.096935
10.183241
10.269658
10.356182
10.442806
10.529524
10.616331
10.703221
10.790187
10.877225
10.964327
11.051488
11.138701
11.225962
11.313263
11.4006
11.487965
11.575352
11.662756
11.75017
11.837589
11.925006
12.012414
12.099809
12.187182
12.274529
12.361843
12.449118
12.536347
12.623524
12.710643
12.797698
12.884681
12.971588
13.058411
13.145144
13.23178
13.318314
13.404739
13.491048
13.577234
13.663292
13.749215
13.834997
13.92063
14.006108
14.091425
14.176575
14.26155
14.346344
14.430951
14.515363
14.599575
14.683579
14.76737
14.85094
14.934283
15.017392
15.10026
15.182881
15.265249
15.347356
15.429196
15.510763
15.592049
15.673049
15.753754
15.83416
15.914259
15.994044
16.073509
16.152648
16.231453
16.309919
16.388039
16.465805
16.543213
16.620254
16.696924
16.773214
16.84912
16.924634
16.99975
17.074462
17.148764
17.222649
17.29611
17.369143
17.441741
17.513898
17.585607
17.656862
17.727659
17.797991
17.867851
17.937235
18.006137
18.074551
18.142471
18.209892
18.276809
18.343216
18.409108
18.47448
18.539327
18.603643
18.667425
18.730666
18.793363
18.85551
18.917104
18.97814
19.038613
19.098519
19.157855
19.216616
19.274799
19.332399
19.389414
19.445839
19.501673
19.55691
19.611549
19.665586
19.719019
19.771845
19.824061
19.875666
19.926657
19.977031
20.026789
20.075927
20.124444
20.172339
20.21961
20.266257
20.312279
20.357674
20.402444
20.446586
20.490102
20.53299
20.575252
20.616888
20.657898
20.698282
20.738043
20.777181
20.815697
20.853593
20.89087
20.92753
20.963575
20.999008
21.033831
21.068046
21.101655
21.134663
21.167071
21.198884
21.230104
21.260735
21.290781
21.320245
21.349132
21.377446
21.405191
21.432372
21.458993
21.48506
21.510576
21.535548
21.55998
21.583877
21.607246
21.630091
21.652419
21.674235
21.695545
21.716355
21.736671
21.7565
21.775847
21.794719
21.813124
21.831066
21.848553
21.865591
21.882187
21.898348
21.914081
21.929392
21.944289
21.958779
21.972868
21.986563
21.999871
22.0128
22.025357
22.037548
22.049381
22.060862
22.071999
22.082799
22.093268
22.103414
22.113243
22.122763
22.13198
22.140902
22.149534
22.157884
22.165958
22.173763
22.181306
22.188593
22.19563
22.202424
22.208981
22.215307
22.221409
22.227292
22.232963
22.238427
22.24369
22.248758
22.253637
22.258332
22.262848
22.267191
22.271366
22.275378
22.279233
22.282935
22.286489
22.2899
22.293172
22.296311
22.29932
22.302204
22.304967
22.307614
22.310148
22.312573
22.314894
22.317113
22.319235
22.321264
22.323201
22.325053
22.32682
22.328507
22.330116
22.331652
22.333116
22.334511
22.33584
22.337106
22.338312
22.339459
22.340551
22.341589
22.342576
22.343514
22.344405
22.345252
22.346056
22.346818
22.347542
22.348228
22.348878
22.349495
22.350078
22.350631
22.351155
22.35165
22.352118
22.352561
22.352979
22.353375
22.353748
22.3541
22.354433
22.354747
22.355043
22.355322
22.355584
22.355832
22.356064
22.356284
22.35649
22.356683
22.356866
22.357037
22.357197
22.357348
22.357489
22.357622
22.357746
22.357862
22.357971
22.358072
22.358167
22.358256
22.358338
22.358415
22.358487
22.358553
22.358615
22.358672
22.358725
22.358774
22.358819
22.35886
22.358898
22.358933
22.358964
22.358993
22.359019
22.359043
22.359064
22.359084
22.359101
22.359118
22.359134
22.359147
22.359161
22.359184
22.359207
22.359221
22.359235
22.359264
22.359295
22.359315
22.359332
22.35936
22.359392
22.359417
22.359436
22.359461
22.359492
22.359521
22.359543
22.359564
22.359591
22.359617
22.359638
22.359659
22.359683
22.359707
22.359729
22.359749
22.359767
22.359786
22.359805
22.359822
22.359837
22.35985
22.359862
22.359874
22.359884
22.359893
22.359902
22.359916
22.359929
22.359931
22.359938
22.359961
22.35998
22.359986
22.359996
22.360021
22.360046
22.360061
22.360074
22.360097
22.360118
22.360136
22.360154
22.360172
22.360189
22.360207
22.36022
22.36023
22.360246
22.360268
22.360288
22.360305
22.360318
22.360334
22.360351
22.360367
22.360378
22.36039
22.360405
22.360419
22.360427
22.360434
22.360447
22.360462
22.360471
22.360479
22.360488
22.360501
22.360514
22.360524
22.36053
22.360541
22.360558
22.360571
22.360578
22.360586
22.360603
22.360618
22.360623
22.360628
22.360643
22.36066
22.360667
22.360672
22.360686
22.360703
22.360714
22.360722
22.360733
22.360748
22.36076
22.360768
22.360775
22.360789
22.360804
22.360816
22.360823
22.36083
22.36084
22.360855
22.360868
22.360875
22.360881
22.360893
22.360906
22.360913
22.360916
22.360921
22.360934
22.360948
22.360956
22.360961
22.360971
22.360985
22.360998
22.361008
22.36102
22.361033
22.361046
22.361058
22.361071
22.361084
22.361097
22.36111
22.36112
22.361131
22.361141
22.361151
22.361161
22.361172
22.361183
22.361194
22.361205
22.361218
22.361231
22.361242
22.361254
22.361268
22.36128
22.361284
22.361288
22.361293
22.361298
22.361304
22.361305
22.361304
22.361307
22.361307
22.361296
22.36128
22.361282
22.361283
22.361278
22.361276
22.361281
22.361275
22.361262
22.361261
22.361265
22.361263
22.361263
22.361269
22.361276
22.361283
22.361289
22.361297
22.361306
22.361315
22.361324
22.361333
22.361342
22.361352
22.361361
22.36137
22.361378
22.361387
22.361395
22.361403
22.361411
22.361419
22.361426
22.361433
22.36144
22.361447
22.361452
22.361458
22.361464
22.361469
22.361475
22.36148
22.361484
22.361489
22.361492
22.361496
22.3615
22.361505
22.361507
22.361508
22.361509
22.361512
22.361511
22.361513
22.361516
22.361513
22.361506
22.361499
22.361501
22.361504
22.361502
22.361496
22.361488
22.361488
22.361487
22.361488
22.361492
22.361492
22.361488
22.361486
22.361486
22.361485
22.361487
22.361491
22.361495
22.361498
22.3615
22.361502
22.361504
22.361507
22.361509
22.361512
22.361514
22.361517
22.361519
22.361521
22.361522
22.361523
22.361525
22.361526
22.361524
22.36152
22.361518
22.361519
22.361519
22.36152
22.36152
22.36152
22.36152
22.361521
22.361522
22.361523
22.361523
22.361523
22.361524
22.361524
22.361523
22.361521
22.361521
22.361521
22.361521
22.361519
22.361518
22.361516
22.361516
22.361517
22.361517
22.361514
22.361508
22.361508
22.361509
22.361509
22.361506
22.361503
22.361499
22.361497
22.361497
22.361496
22.361493
22.361487
22.361486
22.361486
22.361483
22.361477
22.361474
22.361473
22.361471
22.361466
22.361462
22.361461
22.361459
22.361454
22.36145
22.361447
22.361443
22.361438
22.361436
22.361435
22.361433
22.361429
22.361424
22.36142
22.361418
22.361416
22.361413
22.361409
22.361404
22.361402
22.361401
22.361399
22.361395
22.36139
22.361388
22.361386
22.361383
22.36138
22.361378
22.361376
22.361372
22.361368
22.361363
22.361361
22.361361
22.361359
22.361356
22.361353
22.361349
22.361345
22.361342
22.36134
22.361338
22.361335
22.36133
22.361327
22.361325
22.361323
22.36132
22.361317
22.361315
22.361312
22.361309
22.361305
22.361303
22.361302
22.3613
22.361297
22.361294
22.361291
22.36129
22.361289
22.361287
22.361284
22.36128
22.36128
22.361279
22.361278
22.361275
22.361272
22.36127
22.361269
22.361268
22.361266
22.361264
22.361263
22.361261
22.36126
22.361258
22.361257
22.361256
22.361255
22.361252
22.361248
22.361248
22.361248
22.361247
22.361245
22.361242
22.36124
22.361238
22.361236
22.361234
22.361231
22.36123
22.361229
22.361227
22.361225
22.361221
22.361219
22.361217
22.361216
22.361214
22.361211
22.361208
22.361205
22.361204
22.361202
22.3612
22.361197
22.361194
22.361192
22.36119
22.361188
22.361186
22.361184
22.361182
22.361179
22.361177
22.361176
22.361174
22.361172
22.361169
22.361167
22.361165
22.361164
22.361162
22.36116
22.361157
22.361155
22.361154
22.361153
22.361152
22.361149
22.361147
22.361144
22.361142
22.361142
22.361141
22.361139
22.361137
22.361135
22.361132
22.361129
22.361128
22.361127
22.361126
22.361125
22.361123
22.36112
22.361118
22.361117
22.361115
22.361114
22.361111
22.361109
22.361107
22.361106
22.361104
22.361102
22.361099
22.361097
22.361096
22.361094
22.361092
22.36109
22.361087
22.361085
22.361084
22.361082
22.361079
22.361077
22.361075
22.361073
22.361071
22.361069
22.361066
22.361063
22.361062
22.36106
22.361058
22.361056
22.361053
22.36105
22.361049
22.361048
22.361047
22.361045
22.361042
22.36104
22.361038
22.361036
22.361035
22.361034
22.361032
22.36103
22.361028
22.361027
22.361026
22.361024
22.361023
22.361021
22.361019
22.361018
22.361017
22.361016
22.361014
22.361013
22.361012
22.361011
22.36101
22.361008
22.361007
22.361005
22.361004
22.361003
22.361002
22.361001
22.360999
22.360997
22.360996
22.360995
22.360993
22.360992
22.360991
22.36099
22.360988
22.360986
22.360985
22.360983
22.360982
22.36098
22.360979
22.360977
22.360976
22.360975
22.360973
22.360971
22.36097
22.360968
22.360967
22.360965
22.360963
22.360962
22.360961
22.36096
22.360958
22.360956
22.360954
22.360953
22.360952
22.360951
22.360949
22.360948
22.360946
22.360945
22.360944
22.360943
22.360941
22.360939
22.360938
22.360937
22.360936
22.360935
22.360933
22.360931
22.36093
22.360929
22.360927
22.360925
22.360924
22.360922
22.360921
22.360919
22.360918
22.360916
22.360914
22.360912
22.360911
22.360909
22.360907
22.360905
22.360903
22.360901
22.3609
22.360898
22.360896
22.360893
22.360891
22.360889
22.360887
22.360885
22.360882
22.36088
22.360878
22.360876
22.360874
22.360871
22.360869
22.360866
22.360864
22.360862
22.36086
22.360857
22.360855
22.360852
22.36085
22.360848
22.360846
22.360844
22.360842
22.360839
22.360838
22.360836
22.360834
22.360831
22.360829
22.360828
22.360826
22.360824
22.360823
22.360821
22.360819
22.360817
22.360816
22.360815
22.360813
22.360812
22.36081
22.360809
22.360808
22.360807
22.360805
22.360804
22.360803
22.360802
22.360801
22.3608
22.360799
22.360798
22.360797
22.360796
22.360795
22.360794
22.360793
22.360793
22.360792
22.360791
22.36079
22.360789
22.360788
22.360788
22.360787
22.360786
22.360785
22.360783
22.360783
22.360782
22.360781
22.36078
22.360779
22.360778
22.360777
22.360776
22.360775
22.360774
22.360773
22.360771
22.36077
22.36077
22.360769
22.360768
22.360766
22.360765
22.360764
22.360763
22.360762
22.36076
22.360759
22.360758
22.360756
22.360755
22.360754
22.360753
22.360751
22.36075
22.360749
22.360748
22.360747
22.360746
22.360744
22.360743
22.360741
22.36074
22.360739
22.360738
22.360737
22.360736
22.360735
22.360733
22.360732
22.360731
22.36073
22.360729
22.360728
22.360727
22.360725
22.360724
22.360722
22.360721
22.36072
22.360719
22.360718
22.360717
22.360716
22.360715
22.360713
22.360712
22.360711
22.36071
22.360709
22.360708
22.360706
22.360705
22.360703
22.360702
22.360702
22.360701
22.360699
22.360698
22.360697
22.360696
22.360694
22.360693
22.360692
22.360691
22.36069
22.360689
22.360688
22.360686
22.360685
22.360684
22.360684
22.360683
22.360681
22.36068
22.360679
22.360678
22.360677
22.360676
22.360675
22.360674
22.360673
22.360671
22.36067
22.36067
22.360669
22.360668
22.360667
22.360666
22.360664
22.360663
22.360663
22.360662
22.360661
22.360659
22.360658
22.360657
22.360656
22.360655
22.360654
22.360653
22.360652
22.360651
22.36065
22.360649
22.360648
22.360647
22.360646
22.360645
22.360644
22.360643
22.360642
22.36064
22.36064
22.360639
22.360638
22.360637
22.360635
22.360634
22.360633
22.360632
22.360632
22.360631
22.360629
22.360628
22.360627
22.360626
22.360625
22.360624
22.360623
22.360622
22.360621
22.360619
22.360619
22.360618
22.360617
22.360616
22.360615
22.360614
22.360612
22.360612
22.360611
22.36061
22.360609
22.360608
22.360607
22.360606
22.360605
22.360604
22.360603
22.360602
22.360601
22.3606
22.360599
22.360598
22.360597
22.360596
22.360595
22.360594
22.360593
22.360592
22.360591
22.36059
22.360589
22.360588
22.360587
22.360586
22.360585
22.360585
22.360584
22.360583
22.360582
22.36058
22.360579
22.360579
22.360578
22.360577
22.360576
22.360575
22.360573
22.360573
22.360572
22.360571
22.36057
22.360568
22.360567
22.360566
22.360565
22.360564
22.360563
22.360562
22.360561
22.360559
22.360558
22.360558
22.360557
22.360556
22.360554
22.360553
22.360552
22.360551
22.36055
22.360549
22.360548
22.360547
22.360546
22.360544
22.360543
22.360542
22.360541
22.36054
22.360539
22.360538
22.360537
22.360536
22.360535
22.360534
22.360533
22.360532
22.360531
22.36053
22.360529
22.360528
22.360527
22.360527
22.360526
22.360525
22.360525
22.360524
22.360523
22.360522
22.360521
22.360521
22.36052
22.36052
22.360519
22.360518
22.360518
22.360517
22.360517
22.360516
22.360516
22.360515
22.360514
22.360514
22.360514
22.360513
22.360513
22.360512
22.360512
22.360511
22.360511
22.360511
22.36051
22.36051
22.360509
22.360509
22.360508
22.360508
22.360507
22.360507
22.360506
22.360506
22.360506
22.360505
22.360504
22.360504
22.360503
22.360503
22.360502
22.360502
22.360501
22.3605
22.360499
22.360499
22.360498
22.360497
22.360496
22.360496
22.360495
22.360494
22.360493
22.360492
22.360491
22.36049
22.360489
22.360488
22.360487
22.360486
22.360485
22.360484
22.360483
22.360482
22.360481
22.36048
22.360478
22.360477
22.360476
22.360475
22.360474
22.360472
22.360471
22.36047
22.360469
22.360467
22.360466
22.360465
22.360463
22.360462
22.36046
22.360459
22.360458
22.360457
22.360456
22.360455
22.360453
22.360452
22.36045
22.360449
22.360448
22.360447
22.360446
22.360445
22.360444
22.360442
22.360441
22.36044
22.360438
22.360437
22.360436
22.360436
22.360435
22.360433
22.360432
22.360431
22.36043
22.360429
22.360428
22.360427
22.360426
22.360425
22.360424
22.360423
22.360423
22.360422
22.360421
22.36042
22.360419
22.360418
22.360418
22.360417
22.360416
22.360415
22.360414
22.360414
22.360413
22.360412
22.360412
22.360411
22.36041
22.36041
22.360409
22.360408
22.360407
22.360407
22.360406
22.360406
22.360405
22.360404
22.360404
22.360403
22.360402
22.360402
22.360401
22.3604
22.3604
22.360399
22.360398
22.360398
22.360397
22.360396
22.360396
22.360395
22.360394
22.360394
22.360393
22.360393
22.360392
22.360391
22.36039
22.36039
22.360389
22.360389
22.360388
22.360387
22.360386
22.360386
22.360385
22.360384
22.360384
22.360383
22.360382
22.360381
22.360381
22.36038
22.360379
22.360378
22.360378
22.360377
22.360376
22.360375
22.360375
22.360374
22.360373
22.360372
22.360371
22.360371
22.36037
22.360369
22.360368
22.360367
22.360366
22.360366
22.360365
22.360364
22.360363
22.360362
22.360361
22.36036
22.36036
22.360359
22.360358
22.360357
22.360356
22.360355
22.360355
22.360354
22.360353
22.360352
22.360351
22.36035
22.360349
22.360348
22.360348
22.360347
22.360346
22.360345
22.360344
22.360343
22.360342
22.360341
22.36034
22.36034
22.360339
22.360338
22.360337
22.360336
22.360335
22.360334
22.360333
22.360333
22.360332
22.360331
22.36033
22.360329
22.360328
22.360327
22.360326
22.360326
22.360325
22.360324
22.360323
22.360322
22.360321
22.36032
22.360319
22.360319
22.360318
22.360317
22.360316
22.360315
22.360314
22.360313
22.360312
22.360312
22.360311
22.360311
22.36031
22.360309
22.360308
22.360307
22.360306
22.360305
22.360304
22.360304
22.360303
22.360302
22.360301
22.3603
22.360299
22.360299
22.360298
22.360297
22.360296
22.360296
22.360295
22.360294
22.360293
22.360292
22.360292
22.360291
22.36029
22.360289
22.360288
22.360288
22.360287
22.360286
22.360285
22.360285
22.360284
22.360283
22.360283
22.360282
22.360281
22.36028
22.36028
22.360279
22.360278
22.360278
22.360277
22.360276
22.360275
22.360275
22.360274
22.360274
22.360273
22.360272
22.360272
22.360271
22.360271
22.36027
22.36027
22.360269
22.360268
22.360268
22.360267
22.360267
22.360266
22.360266
22.360265
22.360265
22.360264
22.360264
22.360263
22.360263
22.360262
22.360262
22.360261
22.360261
22.36026
22.36026
22.360259
22.360259
22.360258
22.360258
22.360258
22.360257
22.360257
22.360257
22.360256
22.360255
22.360255
22.360255
22.360255
22.360254
22.360254
22.360253
22.360253
22.360252
22.360252
22.360252
22.360251
22.360251
22.36025
22.36025
22.36025
22.360249
22.360249
22.360248
22.360248
22.360247
22.360247
22.360246
22.360246
22.360246
22.360245
22.360245
22.360244
22.360243
22.360243
22.360242
22.360242
22.360242
22.360241
22.36024
22.36024
22.360239
22.360238
22.360238
22.360238
22.360237
22.360236
22.360236
22.360235
22.360234
22.360233
22.360233
22.360232
22.360231
22.360231
22.36023
22.360229
22.360228
22.360228
22.360227
22.360226
22.360225
22.360224
22.360224
22.360223
22.360222
22.360221
22.36022
22.360219
22.360218
22.360218
22.360217
22.360216
22.360215
22.360214
22.360213
22.360212
22.360211
22.36021
22.360209
22.360208
22.360207
22.360206
22.360205
22.360204
22.360203
22.360202
22.360201
22.3602
22.360199
22.360199
22.360198
22.360196
22.360195
22.360194
22.360193
22.360192
22.360191
22.36019
22.360189
22.360188
22.360187
22.360186
22.360185
22.360184
22.360183
22.360182
22.360181
22.36018
22.360179
22.360178
22.360177
22.360176
22.360175
22.360174
22.360173
22.360172
22.360171
22.36017
22.360169
22.360169
22.360168
22.360167
22.360165
22.360164
22.360164
22.360163
22.360162
22.360161
22.36016
22.360159
22.360158
22.360157
22.360156
22.360155
22.360154
22.360153
22.360152
22.360151
22.360151
22.36015
22.360149
22.360148
22.360147
22.360146
22.360145
22.360145
22.360144
22.360143
22.360142
22.360141
22.36014
22.360139
22.360139
22.360138
22.360137
22.360136
22.360135
22.360135
22.360134
22.360133
22.360132
22.360131
22.360131
22.36013
22.360129
22.360129
22.360128
22.360127
22.360126
22.360126
22.360125
22.360124
22.360124
22.360123
22.360122
22.360122
22.360121
22.360121
22.36012
22.360119
22.360119
22.360118
22.360117
22.360117
22.360116
22.360116
22.360115
22.360115
22.360114
22.360114
22.360113
22.360113
22.360112
22.360111
22.360111
22.36011
22.36011
22.360109
22.360109
22.360108
22.360108
22.360107
22.360107
22.360107
22.360106
22.360105
22.360105
22.360104
22.360104
22.360104
22.360103
22.360103
22.360102
22.360102
22.360101
22.360101
22.3601
22.3601
22.360099
22.360099
22.360098
22.360098
22.360097
22.360097
22.360096
22.360096
22.360095
22.360095
22.360094
22.360094
22.360093
22.360093
22.360092
22.360092
22.360091
22.360091
22.36009
22.36009
22.360089
22.360089
22.360088
22.360087
22.360087
22.360086
22.360086
22.360085
22.360085
22.360084
22.360084
22.360083
22.360083
22.360082
22.360082
22.360081
22.36008
22.36008
22.360079
22.360079
22.360078
22.360078
22.360077
22.360076
22.360076
22.360075
22.360075
22.360074
22.360074
22.360073
22.360072
22.360072
22.360071
22.360071
22.36007
22.36007
22.360069
22.360069
22.360068
22.360068
22.360067
22.360067
22.360066
22.360066
22.360065
22.360065
22.360064
22.360064
22.360063
22.360062
22.360062
22.360061
22.360061
22.36006
22.36006
22.360059
22.360059
22.360058
22.360057
22.360057
22.360056
22.360056
22.360055
22.360055
22.360054
22.360054
22.360053
22.360053
22.360052
22.360052
22.360051
22.36005
22.36005
22.36005
22.360049
22.360049
22.360048
22.360048
22.360047
22.360047
22.360046
22.360045
22.360045
22.360044
22.360044
22.360043
22.360042
22.360041
22.36004
22.36004
22.360039
22.360038
22.360038
22.360037
22.360037
22.360036
22.360036
22.360036
22.360035
22.360035
22.360034
22.360033
22.360031
22.360029
22.360027
22.360025
22.360024
22.360022
22.360022
22.360023
22.360025
22.360029
22.360034
22.36004
22.360045
22.360048
22.360049
22.360045
22.360036
22.360023
22.360007
22.359998
22.360016
22.360106
22.360401
22.361226
22.363069
22.362262
22.359665
22.359601
22.359902
22.35989
22.359871
22.359895
22.359932
22.359959
22.359982
22.360003
22.360019
22.360029
22.360034
22.360037
22.360038
22.360037
22.360036
22.360034
22.360032
22.360031
22.36003
22.360029
22.360028
22.360027
22.360027
22.360026
22.360026
22.360025
22.360024
22.360021
22.36001
22.360013
22.360022
22.360023
22.360022
22.360021
22.360021
22.360021
22.36002
22.36002
22.36002
22.360019
22.360019
22.360018
22.360018
22.360017
22.360017
22.360016
22.360015
22.360015
22.360014
22.360013
22.360013
22.360012
22.360011
22.36001
22.36001
22.360009
22.360008
22.360007
22.360007
22.360006
22.360005
22.360004
22.360004
22.360003
22.360002
22.360002
22.360001
22.36
22.359999
22.359999
22.359998
22.359997
22.359996
22.359996
22.359995
22.359994
22.359993
22.359993
22.359992
22.359991
22.35999
22.359989
22.359989
22.359988
22.359987
22.359986
22.359986
22.359985
22.359984
22.359984
22.359983
22.359982
22.359982
22.359981
22.35998
22.35998
22.359979
22.359978
22.359978
22.359977
22.359977
22.359976
22.359975
22.359975
22.359974
22.359973
22.359973
22.359972
22.359971
22.359971
22.35997
22.359969
22.359969
22.359968
22.359968
22.359967
22.359966
22.359966
22.359965
22.359964
22.359964
22.359963
22.359962
22.359962
22.359961
22.35996
22.35996
22.359959
22.359958
22.359958
22.359957
22.359957
22.359956
22.359955
22.359955
22.359954
22.359953
22.359953
22.359952
22.359951
22.359951
22.35995
22.359949
22.359949
22.359948
22.359947
22.359947
22.359946
22.359945
22.359945
22.359944
22.359943
22.359943
22.359942
22.359941
22.359941
22.35994
22.35994
22.359939
22.359939
22.359938
22.359937
22.359937
22.359936
22.359936