/*--------------------------------*- C++ -*----------------------------------*\
  =========                 |
  \\      /  F ield         | OpenFOAM: The Open Source CFD Toolbox
   \\    /   O peration     | Website:  https://openfoam.org
    \\  /    A nd           | Version:  7
     \\/     M anipulation  |
\*---------------------------------------------------------------------------*/
FoamFile
{
    version     2.0;
    format      ascii;
    class       volScalarField;
    location    "0.00109";
    object      p;
}
// * * * * * * * * * * * * * * * * * * * * * * * * * * * * * * * * * * * * * //

dimensions      [1 -1 -2 0 0 0 0];

internalField   nonuniform List<scalar> 
5000
(
120000
120000
120000
120000
120000
120000
120000
120000
120000
120000
120000
120000
120000
120000
120000
120000
120000
120000
120000
120000
120000
120000
120000
120000
120000
120000
120000
120000
120000
120000
120000
120000
120000
120000
120000
120000
120000
120000
120000
120000
120000
120000
120000
120000
120000
120000
120000
120000
120000
120000
120000
120000
120000
120000
120000
120000
120000
120000
120000
120000
120000
120000
120000
120000
120000
120000
120000
120000
120000
120000
120000
120000
120000
120000
120000
120000
120000
120000
120000
120000
120000
120000
120000
120000
120000
120000
120000
120000
120000
120000
120000
120000
120000
120000
120000
120000
120000
120000
120000
120000
120000
120000
120000
120000
120000
120000
120000
120000
120000
120000
120000
120000
120000
120000
120000
120000
120000
120000
120000
120000
120000
120000
120000
120000
120000
120000
120000
120000
120000
120000
120000
120000
120000
120000
120000
120000
120000
120000
120000
120000
120000
120000
120000
120000
120000
120000
120000
120000
120000
120000
120000
120000
120000
120000
120000
120000
120000
120000
120000
120000
120000
120000
120000
120000
120000
120000
120000
120000
120000
120000
120000
120000
120000
120000
120000
120000
120000
120000
120000
120000
120000
120000
120000
120000
120000
120000
120000
120000
120000
120000
120000
120000
120000
120000
120000
120000
120000
120000
120000
120000
120000
120000
120000
120000
120000
120000
120000
120000
120000
120000
120000
120000
120000
120000
120000
120000
120000
120000
120000
120000
120000
120000
120000
120000
120000
120000
120000
120000
120000
120000
120000
120000
120000
120000
120000
120000
120000
120000
120000
120000
120000
120000
120000
120000
120000
120000
120000
120000
120000
120000
120000
120000
120000
120000
120000
120000
120000
120000
120000
120000
120000
120000
120000
120000
120000
120000
120000
120000
120000
120000
120000
120000
120000
120000
120000
120000
120000
120000
120000
120000
120000
120000
120000
120000
120000
120000
120000
119999.99
119999.99
119999.99
119999.99
119999.99
119999.99
119999.99
119999.99
119999.99
119999.99
119999.99
119999.99
119999.99
119999.99
119999.99
119999.99
119999.99
119999.98
119999.98
119999.98
119999.98
119999.98
119999.98
119999.98
119999.98
119999.97
119999.97
119999.97
119999.97
119999.97
119999.97
119999.96
119999.96
119999.96
119999.96
119999.95
119999.95
119999.95
119999.94
119999.94
119999.94
119999.93
119999.93
119999.92
119999.92
119999.91
119999.91
119999.9
119999.9
119999.89
119999.89
119999.88
119999.87
119999.86
119999.86
119999.85
119999.84
119999.83
119999.82
119999.81
119999.8
119999.78
119999.77
119999.76
119999.75
119999.73
119999.71
119999.7
119999.68
119999.66
119999.64
119999.62
119999.6
119999.58
119999.56
119999.53
119999.51
119999.48
119999.45
119999.42
119999.39
119999.35
119999.32
119999.28
119999.24
119999.2
119999.16
119999.11
119999.06
119999.01
119998.96
119998.91
119998.85
119998.79
119998.72
119998.66
119998.59
119998.51
119998.44
119998.36
119998.27
119998.18
119998.09
119997.99
119997.89
119997.78
119997.67
119997.55
119997.43
119997.3
119997.17
119997.03
119996.88
119996.73
119996.57
119996.4
119996.22
119996.04
119995.85
119995.65
119995.44
119995.22
119995
119994.76
119994.51
119994.25
119993.98
119993.7
119993.41
119993.1
119992.79
119992.45
119992.11
119991.75
119991.37
119990.98
119990.58
119990.15
119989.71
119989.26
119988.78
119988.28
119987.77
119987.23
119986.67
119986.1
119985.49
119984.87
119984.22
119983.54
119982.84
119982.12
119981.36
119980.58
119979.77
119978.93
119978.05
119977.15
119976.21
119975.23
119974.23
119973.18
119972.1
119970.98
119969.82
119968.61
119967.37
119966.08
119964.75
119963.37
119961.94
119960.47
119958.95
119957.37
119955.74
119954.06
119952.32
119950.53
119948.67
119946.76
119944.78
119942.75
119940.64
119938.47
119936.23
119933.92
119931.54
119929.09
119926.56
119923.95
119921.27
119918.5
119915.66
119912.72
119909.71
119906.6
119903.4
119900.11
119896.73
119893.25
119889.67
119885.99
119882.21
119878.33
119874.33
119870.23
119866.02
119861.7
119857.26
119852.7
119848.02
119843.22
119838.3
119833.25
119828.08
119822.77
119817.33
119811.75
119806.03
119800.18
119794.18
119788.04
119781.75
119775.32
119768.73
119761.99
119755.09
119748.03
119740.82
119733.44
119725.89
119718.18
119710.3
119702.25
119694.02
119685.61
119677.03
119668.27
119659.32
119650.19
119640.87
119631.37
119621.67
119611.77
119601.69
119591.4
119580.91
119570.23
119559.33
119548.24
119536.93
119525.42
119513.69
119501.76
119489.6
119477.23
119464.65
119451.84
119438.81
119425.56
119412.08
119398.37
119384.44
119370.28
119355.89
119341.26
119326.41
119311.31
119295.98
119280.42
119264.61
119248.57
119232.28
119215.76
119198.99
119181.98
119164.72
119147.22
119129.47
119111.48
119093.24
119074.75
119056.01
119037.02
119017.78
118998.29
118978.56
118958.57
118938.33
118917.83
118897.09
118876.1
118854.85
118833.35
118811.6
118789.6
118767.35
118744.84
118722.09
118699.08
118675.82
118652.31
118628.56
118604.55
118580.29
118555.79
118531.03
118506.03
118480.79
118455.3
118429.56
118403.58
118377.35
118350.89
118324.18
118297.23
118270.04
118242.62
118214.95
118187.05
118158.92
118130.55
118101.95
118073.12
118044.06
118014.77
117985.25
117955.51
117925.55
117895.36
117864.95
117834.33
117803.48
117772.42
117741.15
117709.66
117677.97
117646.06
117613.95
117581.63
117549.11
117516.39
117483.47
117450.35
117417.04
117383.53
117349.83
117315.94
117281.87
117247.61
117213.16
117178.54
117143.74
117108.76
117073.6
117038.28
117002.78
116967.12
116931.3
116895.31
116859.15
116822.85
116786.38
116749.76
116712.99
116676.08
116639.01
116601.81
116564.46
116526.97
116489.35
116451.59
116413.7
116375.68
116337.54
116299.27
116260.88
116222.37
116183.75
116145.01
116106.16
116067.21
116028.14
115988.98
115949.71
115910.35
115870.89
115831.34
115791.7
115751.97
115712.16
115672.27
115632.29
115592.24
115552.12
115511.93
115471.66
115431.34
115390.95
115350.5
115309.99
115269.43
115228.81
115188.15
115147.44
115106.69
115065.9
115025.07
114984.2
114943.3
114902.38
114861.42
114820.44
114779.45
114738.43
114697.4
114656.35
114615.3
114574.24
114533.18
114492.11
114451.05
114409.99
114368.94
114327.9
114286.87
114245.86
114204.87
114163.9
114122.96
114082.04
114041.16
114000.31
113959.49
113918.72
113877.99
113837.3
113796.66
113756.08
113715.54
113675.07
113634.65
113594.3
113554.02
113513.8
113473.66
113433.59
113393.6
113353.69
113313.86
113274.12
113234.47
113194.92
113155.46
113116.1
113076.84
113037.68
112998.64
112959.7
112920.88
112882.18
112843.59
112805.13
112766.79
112728.59
112690.51
112652.57
112614.77
112577.1
112539.58
112502.21
112464.99
112427.92
112391
112354.25
112317.65
112281.22
112244.95
112208.86
112172.94
112137.19
112101.62
112066.24
112031.03
111996.02
111961.19
111926.56
111892.12
111857.89
111823.85
111790.01
111756.38
111722.96
111689.76
111656.76
111623.98
111591.43
111559.09
111526.98
111495.09
111463.44
111432.01
111400.82
111369.87
111339.16
111308.68
111278.45
111248.47
111218.73
111189.24
111160.01
111131.02
111102.3
111073.83
111045.62
111017.68
110989.99
110962.57
110935.42
110908.54
110881.93
110855.59
110829.52
110803.73
110778.21
110752.97
110728
110703.32
110678.92
110654.8
110630.96
110607.41
110584.13
110561.15
110538.45
110516.04
110493.91
110472.07
110450.52
110429.26
110408.28
110387.6
110367.2
110347.09
110327.27
110307.74
110288.5
110269.54
110250.87
110232.49
110214.4
110196.59
110179.07
110161.83
110144.87
110128.2
110111.81
110095.7
110079.87
110064.31
110049.04
110034.04
110019.31
110004.86
109990.67
109976.76
109963.11
109949.73
109936.61
109923.75
109911.16
109898.81
109886.73
109874.9
109863.32
109851.98
109840.9
109830.05
109819.45
109809.08
109798.95
109789.06
109779.39
109769.95
109760.74
109751.75
109742.97
109734.41
109726.07
109717.93
109710.01
109702.28
109694.76
109687.43
109680.3
109673.36
109666.61
109660.04
109653.66
109647.45
109641.42
109635.56
109629.87
109624.35
109618.99
109613.78
109608.74
109603.85
109599.1
109594.51
109590.05
109585.74
109581.57
109577.52
109573.61
109569.83
109566.18
109562.64
109559.22
109555.92
109552.74
109549.66
109546.69
109543.82
109541.06
109538.4
109535.83
109533.35
109530.97
109528.68
109526.47
109524.34
109522.3
109520.33
109518.44
109516.62
109514.88
109513.2
109511.59
109510.05
109508.56
109507.14
109505.78
109504.47
109503.22
109502.02
109500.88
109499.78
109498.73
109497.72
109496.76
109495.84
109494.97
109494.13
109493.33
109492.56
109491.83
109491.14
109490.48
109489.84
109489.24
109488.67
109488.12
109487.6
109487.11
109486.64
109486.19
109485.77
109485.36
109484.98
109484.61
109484.27
109483.94
109483.63
109483.34
109483.06
109482.79
109482.54
109482.3
109482.08
109481.87
109481.67
109481.48
109481.3
109481.13
109480.97
109480.82
109480.68
109480.54
109480.42
109480.3
109480.18
109480.08
109479.98
109479.89
109479.8
109479.72
109479.64
109479.56
109479.5
109479.43
109479.37
109479.32
109479.26
109479.21
109479.17
109479.12
109479.08
109479.05
109479.01
109478.98
109478.95
109478.92
109478.89
109478.87
109478.85
109478.83
109478.81
109478.79
109478.77
109478.76
109478.75
109478.74
109478.72
109478.71
109478.71
109478.7
109478.69
109478.68
109478.68
109478.67
109478.66
109478.66
109478.65
109478.64
109478.63
109478.62
109478.61
109478.6
109478.59
109478.58
109478.57
109478.56
109478.55
109478.53
109478.52
109478.51
109478.5
109478.49
109478.48
109478.47
109478.46
109478.45
109478.44
109478.43
109478.42
109478.41
109478.4
109478.39
109478.39
109478.38
109478.37
109478.37
109478.36
109478.36
109478.36
109478.35
109478.35
109478.35
109478.34
109478.34
109478.34
109478.33
109478.32
109478.32
109478.31
109478.3
109478.3
109478.29
109478.28
109478.28
109478.27
109478.26
109478.26
109478.25
109478.24
109478.23
109478.22
109478.22
109478.21
109478.2
109478.19
109478.19
109478.18
109478.17
109478.17
109478.16
109478.15
109478.15
109478.14
109478.13
109478.13
109478.12
109478.12
109478.11
109478.11
109478.1
109478.1
109478.1
109478.09
109478.09
109478.09
109478.08
109478.08
109478.07
109478.07
109478.06
109478.06
109478.05
109478.05
109478.05
109478.04
109478.04
109478.03
109478.03
109478.02
109478.02
109478.02
109478.01
109478.01
109478
109478
109478
109477.99
109477.99
109477.98
109477.98
109477.98
109477.98
109477.97
109477.97
109477.96
109477.96
109477.95
109477.95
109477.94
109477.94
109477.94
109477.93
109477.93
109477.92
109477.92
109477.91
109477.91
109477.91
109477.9
109477.9
109477.9
109477.89
109477.89
109477.89
109477.88
109477.88
109477.88
109477.87
109477.87
109477.87
109477.86
109477.86
109477.86
109477.86
109477.85
109477.85
109477.85
109477.84
109477.84
109477.83
109477.83
109477.83
109477.82
109477.82
109477.81
109477.81
109477.8
109477.8
109477.79
109477.78
109477.78
109477.77
109477.77
109477.76
109477.76
109477.75
109477.75
109477.74
109477.73
109477.73
109477.73
109477.72
109477.72
109477.72
109477.72
109477.72
109477.72
109477.72
109477.72
109477.72
109477.72
109477.72
109477.72
109477.72
109477.72
109477.72
109477.72
109477.72
109477.72
109477.72
109477.72
109477.72
109477.72
109477.72
109477.72
109477.72
109477.72
109477.72
109477.72
109477.72
109477.72
109477.72
109477.72
109477.72
109477.72
109477.72
109477.72
109477.72
109477.71
109477.71
109477.71
109477.71
109477.71
109477.71
109477.7
109477.7
109477.7
109477.7
109477.7
109477.7
109477.7
109477.69
109477.69
109477.69
109477.69
109477.69
109477.69
109477.69
109477.68
109477.68
109477.68
109477.68
109477.68
109477.68
109477.68
109477.68
109477.68
109477.68
109477.68
109477.69
109477.69
109477.69
109477.69
109477.69
109477.69
109477.69
109477.69
109477.69
109477.69
109477.69
109477.69
109477.69
109477.69
109477.69
109477.69
109477.69
109477.69
109477.69
109477.69
109477.69
109477.69
109477.7
109477.7
109477.7
109477.7
109477.7
109477.7
109477.7
109477.7
109477.7
109477.7
109477.71
109477.71
109477.71
109477.71
109477.71
109477.71
109477.71
109477.72
109477.72
109477.72
109477.72
109477.72
109477.72
109477.72
109477.72
109477.72
109477.72
109477.73
109477.73
109477.73
109477.73
109477.73
109477.73
109477.73
109477.73
109477.73
109477.73
109477.73
109477.73
109477.74
109477.74
109477.74
109477.74
109477.74
109477.74
109477.74
109477.74
109477.74
109477.74
109477.74
109477.74
109477.74
109477.74
109477.74
109477.75
109477.75
109477.75
109477.75
109477.75
109477.75
109477.75
109477.75
109477.75
109477.75
109477.75
109477.75
109477.75
109477.75
109477.76
109477.76
109477.76
109477.76
109477.76
109477.76
109477.76
109477.76
109477.76
109477.76
109477.76
109477.76
109477.76
109477.77
109477.77
109477.77
109477.77
109477.77
109477.77
109477.77
109477.77
109477.77
109477.77
109477.77
109477.77
109477.77
109477.77
109477.78
109477.78
109477.78
109477.78
109477.78
109477.78
109477.78
109477.78
109477.78
109477.78
109477.79
109477.79
109477.79
109477.79
109477.79
109477.79
109477.79
109477.79
109477.79
109477.8
109477.8
109477.8
109477.8
109477.8
109477.8
109477.8
109477.8
109477.8
109477.81
109477.81
109477.81
109477.81
109477.81
109477.81
109477.81
109477.81
109477.81
109477.81
109477.82
109477.82
109477.82
109477.82
109477.82
109477.82
109477.82
109477.82
109477.82
109477.82
109477.82
109477.82
109477.82
109477.82
109477.83
109477.83
109477.83
109477.83
109477.83
109477.83
109477.83
109477.83
109477.83
109477.83
109477.83
109477.83
109477.83
109477.83
109477.84
109477.84
109477.84
109477.84
109477.84
109477.84
109477.84
109477.84
109477.84
109477.84
109477.84
109477.84
109477.84
109477.85
109477.85
109477.85
109477.85
109477.85
109477.85
109477.85
109477.85
109477.85
109477.85
109477.85
109477.85
109477.85
109477.86
109477.86
109477.86
109477.86
109477.86
109477.86
109477.86
109477.86
109477.86
109477.86
109477.86
109477.86
109477.86
109477.86
109477.87
109477.87
109477.87
109477.87
109477.87
109477.87
109477.87
109477.87
109477.87
109477.87
109477.87
109477.87
109477.87
109477.87
109477.87
109477.87
109477.87
109477.87
109477.88
109477.88
109477.88
109477.88
109477.88
109477.88
109477.88
109477.88
109477.88
109477.88
109477.88
109477.88
109477.88
109477.88
109477.88
109477.88
109477.89
109477.89
109477.89
109477.89
109477.89
109477.89
109477.89
109477.89
109477.89
109477.89
109477.89
109477.89
109477.9
109477.9
109477.9
109477.9
109477.9
109477.9
109477.9
109477.9
109477.9
109477.9
109477.9
109477.9
109477.91
109477.91
109477.91
109477.91
109477.91
109477.91
109477.91
109477.91
109477.91
109477.91
109477.91
109477.91
109477.91
109477.91
109477.91
109477.92
109477.92
109477.92
109477.92
109477.92
109477.92
109477.92
109477.92
109477.92
109477.92
109477.92
109477.92
109477.92
109477.92
109477.92
109477.93
109477.93
109477.93
109477.93
109477.93
109477.93
109477.93
109477.93
109477.93
109477.93
109477.93
109477.93
109477.93
109477.93
109477.94
109477.94
109477.94
109477.94
109477.94
109477.94
109477.94
109477.94
109477.94
109477.94
109477.94
109477.94
109477.94
109477.94
109477.94
109477.94
109477.94
109477.94
109477.94
109477.94
109477.94
109477.95
109477.95
109477.95
109477.95
109477.95
109477.95
109477.95
109477.95
109477.95
109477.95
109477.95
109477.95
109477.95
109477.95
109477.95
109477.95
109477.95
109477.95
109477.95
109477.95
109477.95
109477.95
109477.95
109477.95
109477.95
109477.95
109477.95
109477.95
109477.95
109477.95
109477.95
109477.95
109477.95
109477.95
109477.95
109477.95
109477.95
109477.95
109477.95
109477.95
109477.95
109477.95
109477.95
109477.96
109477.96
109477.96
109477.96
109477.96
109477.96
109477.96
109477.96
109477.96
109477.96
109477.96
109477.96
109477.96
109477.96
109477.96
109477.96
109477.96
109477.97
109477.97
109477.97
109477.97
109477.97
109477.97
109477.97
109477.97
109477.97
109477.97
109477.97
109477.97
109477.97
109477.97
109477.97
109477.97
109477.97
109477.98
109477.98
109477.98
109477.98
109477.98
109477.98
109477.98
109477.98
109477.98
109477.98
109477.98
109477.98
109477.98
109477.98
109477.98
109477.98
109477.98
109477.98
109477.98
109477.98
109477.98
109477.98
109477.98
109477.99
109477.99
109477.99
109477.99
109477.99
109477.99
109477.99
109477.99
109477.99
109477.99
109477.99
109477.99
109477.99
109477.99
109477.99
109477.99
109477.99
109477.99
109477.99
109477.99
109477.99
109477.99
109477.99
109477.99
109477.99
109477.99
109478
109478
109478
109478
109478
109478
109478
109478
109478
109478
109478
109478
109478
109478
109478
109478
109478
109478
109478
109478
109478
109478
109478
109478
109478
109478
109478
109478
109478.01
109478.01
109478.01
109478.01
109478.01
109478.01
109478.01
109478.01
109478.01
109478.01
109478.01
109478.01
109478.01
109478.01
109478.01
109478.01
109478.01
109478.01
109478.01
109478.01
109478.01
109478.01
109478.01
109478.01
109478.01
109478.01
109478.01
109478.01
109478.02
109478.02
109478.02
109478.02
109478.02
109478.02
109478.02
109478.02
109478.02
109478.02
109478.02
109478.02
109478.02
109478.02
109478.02
109478.02
109478.02
109478.02
109478.02
109478.02
109478.02
109478.02
109478.02
109478.02
109478.02
109478.02
109478.02
109478.02
109478.02
109478.02
109478.03
109478.03
109478.03
109478.03
109478.03
109478.03
109478.03
109478.03
109478.03
109478.03
109478.03
109478.03
109478.03
109478.03
109478.03
109478.03
109478.03
109478.03
109478.03
109478.03
109478.03
109478.03
109478.03
109478.03
109478.03
109478.03
109478.03
109478.03
109478.03
109478.03
109478.03
109478.03
109478.04
109478.04
109478.04
109478.04
109478.04
109478.04
109478.04
109478.04
109478.04
109478.04
109478.04
109478.04
109478.04
109478.04
109478.04
109478.04
109478.04
109478.04
109478.04
109478.04
109478.04
109478.04
109478.04
109478.04
109478.04
109478.04
109478.04
109478.04
109478.04
109478.04
109478.04
109478.04
109478.04
109478.04
109478.04
109478.04
109478.04
109478.04
109478.04
109478.04
109478.04
109478.05
109478.05
109478.05
109478.05
109478.05
109478.05
109478.05
109478.05
109478.05
109478.05
109478.05
109478.05
109478.05
109478.05
109478.05
109478.05
109478.05
109478.05
109478.05
109478.05
109478.05
109478.05
109478.05
109478.05
109478.05
109478.05
109478.05
109478.05
109478.05
109478.05
109478.05
109478.05
109478.05
109478.05
109478.05
109478.05
109478.05
109478.06
109478.06
109478.06
109478.06
109478.06
109478.06
109478.06
109478.06
109478.06
109478.06
109478.06
109478.06
109478.06
109478.06
109478.06
109478.06
109478.06
109478.06
109478.06
109478.06
109478.06
109478.06
109478.06
109478.07
109478.07
109478.07
109478.07
109478.07
109478.07
109478.07
109478.07
109478.07
109478.07
109478.07
109478.07
109478.07
109478.07
109478.07
109478.07
109478.07
109478.07
109478.07
109478.07
109478.07
109478.07
109478.07
109478.07
109478.07
109478.07
109478.07
109478.07
109478.07
109478.07
109478.07
109478.07
109478.07
109478.07
109478.07
109478.07
109478.07
109478.07
109478.07
109478.07
109478.07
109478.07
109478.07
109478.07
109478.07
109478.07
109478.07
109478.07
109478.07
109478.07
109478.07
109478.07
109478.07
109478.07
109478.07
109478.07
109478.07
109478.07
109478.07
109478.07
109478.07
109478.07
109478.07
109478.07
109478.07
109478.07
109478.07
109478.07
109478.07
109478.07
109478.07
109478.07
109478.07
109478.07
109478.08
109478.08
109478.08
109478.08
109478.08
109478.08
109478.08
109478.08
109478.08
109478.08
109478.08
109478.08
109478.08
109478.08
109478.08
109478.08
109478.08
109478.08
109478.08
109478.08
109478.08
109478.08
109478.08
109478.08
109478.08
109478.08
109478.08
109478.08
109478.08
109478.08
109478.08
109478.08
109478.08
109478.08
109478.08
109478.08
109478.08
109478.08
109478.08
109478.08
109478.08
109478.08
109478.08
109478.08
109478.08
109478.08
109478.08
109478.08
109478.08
109478.08
109478.08
109478.08
109478.08
109478.09
109478.09
109478.09
109478.09
109478.09
109478.09
109478.09
109478.09
109478.09
109478.09
109478.09
109478.09
109478.09
109478.09
109478.09
109478.09
109478.09
109478.09
109478.09
109478.09
109478.09
109478.09
109478.09
109478.09
109478.09
109478.09
109478.09
109478.09
109478.09
109478.09
109478.09
109478.09
109478.09
109478.09
109478.09
109478.09
109478.09
109478.09
109478.09
109478.09
109478.09
109478.09
109478.09
109478.09
109478.09
109478.09
109478.09
109478.09
109478.09
109478.09
109478.09
109478.09
109478.09
109478.09
109478.09
109478.09
109478.09
109478.09
109478.09
109478.09
109478.09
109478.09
109478.09
109478.09
109478.09
109478.09
109478.09
109478.09
109478.09
109478.09
109478.09
109478.09
109478.09
109478.09
109478.09
109478.1
109478.1
109478.1
109478.1
109478.1
109478.1
109478.1
109478.1
109478.1
109478.1
109478.1
109478.1
109478.1
109478.1
109478.1
109478.1
109478.1
109478.1
109478.1
109478.1
109478.1
109478.1
109478.1
109478.1
109478.1
109478.1
109478.1
109478.1
109478.1
109478.1
109478.1
109478.1
109478.1
109478.1
109478.1
109478.1
109478.1
109478.1
109478.1
109478.1
109478.1
109478.1
109478.1
109478.1
109478.1
109478.1
109478.1
109478.1
109478.1
109478.1
109478.1
109478.1
109478.1
109478.1
109478.1
109478.1
109478.1
109478.1
109478.1
109478.1
109478.1
109478.1
109478.1
109478.1
109478.1
109478.1
109478.1
109478.1
109478.1
109478.1
109478.1
109478.1
109478.1
109478.1
109478.1
109478.1
109478.1
109478.1
109478.1
109478.1
109478.1
109478.11
109478.11
109478.11
109478.11
109478.11
109478.11
109478.11
109478.11
109478.11
109478.11
109478.11
109478.11
109478.11
109478.11
109478.11
109478.11
109478.11
109478.11
109478.11
109478.11
109478.11
109478.11
109478.11
109478.11
109478.11
109478.11
109478.11
109478.11
109478.11
109478.11
109478.11
109478.11
109478.11
109478.11
109478.11
109478.11
109478.11
109478.11
109478.11
109478.11
109478.12
109478.12
109478.12
109478.12
109478.12
109478.12
109478.12
109478.12
109478.12
109478.12
109478.12
109478.12
109478.12
109478.12
109478.12
109478.12
109478.12
109478.12
109478.12
109478.12
109478.12
109478.12
109478.12
109478.12
109478.12
109478.12
109478.12
109478.12
109478.12
109478.12
109478.12
109478.12
109478.12
109478.12
109478.12
109478.12
109478.12
109478.12
109478.12
109478.12
109478.12
109478.12
109478.12
109478.12
109478.12
109478.12
109478.12
109478.12
109478.12
109478.12
109478.12
109478.12
109478.12
109478.12
109478.12
109478.12
109478.12
109478.12
109478.12
109478.12
109478.12
109478.12
109478.12
109478.12
109478.12
109478.12
109478.12
109478.12
109478.12
109478.12
109478.12
109478.12
109478.12
109478.12
109478.12
109478.12
109478.12
109478.12
109478.12
109478.12
109478.12
109478.12
109478.12
109478.12
109478.12
109478.12
109478.12
109478.12
109478.12
109478.12
109478.12
109478.12
109478.12
109478.12
109478.12
109478.12
109478.12
109478.12
109478.12
109478.12
109478.12
109478.12
109478.12
109478.12
109478.12
109478.12
109478.12
109478.12
109478.12
109478.12
109478.12
109478.12
109478.12
109478.12
109478.12
109478.12
109478.12
109478.12
109478.12
109478.12
109478.12
109478.12
109478.12
109478.12
109478.12
109478.12
109478.12
109478.12
109478.12
109478.12
109478.12
109478.12
109478.12
109478.12
109478.12
109478.12
109478.12
109478.12
109478.12
109478.12
109478.12
109478.12
109478.12
109478.12
109478.12
109478.12
109478.12
109478.12
109478.12
109478.12
109478.12
109478.12
109478.12
109478.12
109478.12
109478.12
109478.12
109478.12
109478.12
109478.12
109478.12
109478.12
109478.12
109478.12
109478.12
109478.12
109478.12
109478.12
109478.12
109478.12
109478.12
109478.12
109478.12
109478.12
109478.12
109478.12
109478.12
109478.12
109478.12
109478.12
109478.12
109478.12
109478.12
109478.12
109478.12
109478.12
109478.12
109478.12
109478.12
109478.12
109478.12
109478.12
109478.12
109478.12
109478.12
109478.12
109478.12
109478.12
109478.12
109478.12
109478.12
109478.12
109478.12
109478.12
109478.12
109478.12
109478.12
109478.12
109478.12
109478.12
109478.12
109478.12
109478.12
109478.12
109478.13
109478.13
109478.13
109478.13
109478.13
109478.13
109478.13
109478.13
109478.13
109478.13
109478.13
109478.13
109478.13
109478.13
109478.13
109478.13
109478.13
109478.13
109478.13
109478.13
109478.13
109478.13
109478.13
109478.13
109478.13
109478.13
109478.13
109478.13
109478.13
109478.13
109478.13
109478.13
109478.13
109478.13
109478.13
109478.13
109478.13
109478.13
109478.13
109478.13
109478.13
109478.13
109478.13
109478.13
109478.13
109478.13
109478.13
109478.13
109478.13
109478.13
109478.13
109478.13
109478.13
109478.13
109478.13
109478.13
109478.13
109478.13
109478.13
109478.13
109478.13
109478.13
109478.13
109478.13
109478.13
109478.13
109478.13
109478.13
109478.13
109478.13
109478.13
109478.13
109478.13
109478.13
109478.13
109478.13
109478.13
109478.13
109478.13
109478.13
109478.13
109478.13
109478.13
109478.13
109478.13
109478.13
109478.13
109478.13
109478.13
109478.13
109478.13
109478.13
109478.13
109478.13
109478.13
109478.13
109478.13
109478.13
109478.14
109478.14
109478.14
109478.14
109478.14
109478.13
109478.13
109478.13
109478.13
109478.13
109478.14
109478.14
109478.14
109478.14
109478.14
109478.14
109478.14
109478.14
109478.14
109478.14
109478.13
109478.13
109478.13
109478.13
109478.12
109478.12
109478.12
109478.13
109478.14
109478.15
109478.16
109478.17
109478.18
109478.19
109478.19
109478.21
109478.03
109478.09
109478.12
109478.11
109478.11
109478.12
109478.13
109478.13
109478.14
109478.14
109478.14
109478.14
109478.14
109478.14
109478.14
109478.14
109478.14
109478.14
109478.14
109478.14
109478.14
109478.14
109478.14
109478.14
109478.14
109478.14
109478.14
109478.14
109478.14
109478.14
109478.14
109478.14
109478.14
109478.14
109478.14
109478.14
109478.14
109478.14
109478.14
109478.14
109478.14
109478.14
109478.14
109478.14
109478.14
109478.14
109478.14
109478.14
109478.14
109478.14
109478.14
109478.14
109478.14
109478.14
109478.14
109478.14
109478.13
109478.13
109478.13
109478.13
109478.13
109478.13
109478.13
109478.13
109478.13
109478.13
109478.13
109478.13
109478.13
109478.13
109478.13
109478.13
109478.13
109478.13
109478.13
109478.13
109478.13
109478.13
109478.13
109478.13
109478.13
109478.13
109478.13
109478.13
109478.13
109478.13
109478.13
109478.13
109478.13
109478.13
109478.13
109478.13
109478.13
109478.13
109478.13
109478.13
109478.13
109478.13
109478.13
109478.13
109478.13
109478.13
109478.13
109478.13
109478.13
109478.13
109478.13
109478.13
109478.13
109478.13
109478.13
109478.13
109478.13
109478.13
109478.13
109478.13
109478.13
109478.13
109478.13
109478.13
109478.13
109478.13
109478.13
109478.13
109478.13
109478.13
109478.13
109478.13
109478.13
109478.13
109478.13
109478.13
109478.13
109478.13
109478.13
109478.13
109478.13
109478.13
109478.13
109478.13
109478.13
109478.13
109478.13
109478.13
109478.13
109478.13
109478.13
109478.13
109478.13
109478.13
109478.13
109478.13
109478.13
109478.13
109478.13
109478.13
109478.13
109478.13
109478.13
109478.13
109478.13
109478.13
109478.13
109478.13
109478.13
109478.13
109478.13
109478.13
109478.13
109478.13
109478.13
109478.13
109478.13
109478.13
109478.13
109478.13
109478.13
109478.13
109478.13
109478.13
109478.13
109478.13
109478.13
109478.13
109478.13
109478.13
109478.13
109478.13
109478.13
109478.13
109478.13
109478.13
109478.13
109478.13
109478.13
109478.13
109478.13
109478.13
109478.13
109478.13
109478.13
109478.13
109478.13
109478.13
109478.13
109478.13
109478.13
109478.13
109478.13
109478.13
109478.13
109478.13
109478.13
109478.13
109478.13
109478.13
109478.13
109478.13
109478.13
109478.13
109478.13
109478.13
109478.13
109478.13
109478.13
109478.13
109478.13
109478.13
109478.13
109478.13
109478.13
109478.13
109478.13
109478.13
109478.13
109478.13
109478.13
109478.13
109478.13
109478.13
109478.13
109478.13
109478.13
109478.13
109478.13
109478.13
109478.13
109478.13
109478.13
109478.13
109478.13
109478.13
109478.13
109478.13
109478.13
109478.13
109478.13
109478.13
109478.13
109478.13
109478.13
109478.13
109478.13
109478.13
109478.13
109478.13
109478.13
109478.13
109478.13
109478.13
109478.13
109478.13
109478.13
109478.13
109478.13
109478.13
109478.13
109478.13
109478.13
109478.13
109478.13
109478.13
109478.13
109478.13
109478.13
109478.13
109478.13
109478.13
109478.13
109478.13
109478.13
109478.13
109478.13
109478.12
109478.12
109478.12
109478.12
109478.12
109478.12
109478.12
109478.12
109478.12
109478.12
109478.12
109478.12
109478.12
109478.12
109478.12
109478.12
109478.12
109478.12
109478.12
109478.12
109478.12
109478.12
109478.12
109478.12
109478.12
109478.12
109478.12
109478.12
109478.12
109478.12
109478.12
109478.12
109478.12
109478.12
109478.12
109478.12
109478.12
109478.12
109478.12
109478.12
109478.12
109478.12
109478.12
109478.12
109478.12
109478.12
109478.12
109478.12
109478.12
109478.12
109478.12
109478.12
109478.12
109478.12
109478.12
109478.12
109478.12
109478.12
109478.12
109478.12
109478.12
109478.12
109478.12
109478.12
109478.12
109478.12
109478.12
109478.12
109478.12
109478.12
109478.12
109478.12
109478.12
109478.12
109478.12
109478.12
109478.12
109478.12
109478.12
109478.12
109478.12
109478.12
109478.12
109478.12
109478.12
109478.12
109478.12
109478.12
109478.12
109478.12
109478.12
109478.12
109478.12
109478.12
109478.12
109478.12
109478.12
109478.12
109478.12
109478.12
109478.12
109478.12
109478.12
109478.12
109478.12
109478.12
109478.12
109478.12
109478.12
109478.12
109478.12
109478.12
109478.12
109478.12
109478.12
109478.12
109478.12
109478.12
109478.12
109478.12
109478.12
109478.12
109478.12
109478.12
109478.12
109478.12
109478.12
109478.12
109478.12
109478.12
109478.12
109478.12
109478.12
109478.12
109478.12
109478.12
109478.12
109478.12
109478.12