/*--------------------------------*- C++ -*----------------------------------*\
  =========                 |
  \\      /  F ield         | OpenFOAM: The Open Source CFD Toolbox
   \\    /   O peration     | Website:  https://openfoam.org
    \\  /    A nd           | Version:  7
     \\/     M anipulation  |
\*---------------------------------------------------------------------------*/
FoamFile
{
    version     2.0;
    format      ascii;
    class       volVectorField;
    location    "0.00054";
    object      U;
}
// * * * * * * * * * * * * * * * * * * * * * * * * * * * * * * * * * * * * * //

dimensions      [0 1 -1 0 0 0 0];

internalField   nonuniform List<vector> 
5000
(
(1.0198946e-12 -6.079764e-28 0)
(1.0204949e-12 -7.9998024e-43 0)
(1.3022893e-12 0 0)
(1.6062889e-12 0 0)
(1.4793172e-12 -5.06647e-29 0)
(1.6566515e-12 2.3039638e-43 -2.026588e-28)
(1.6172814e-12 -2.400334e-42 -4.6397623e-57)
(1.4604611e-12 0 -4.9307886e-42)
(1.2813472e-12 0 1.013294e-28)
(1.0836018e-12 -2.026588e-28 -4.053176e-28)
(1.4871988e-12 -4.053176e-28 -4.053176e-28)
(1.7484962e-12 -1.519941e-28 -1.519941e-28)
(1.8470859e-12 -4.559823e-28 3.8879389e-42)
(1.4254435e-12 3.039882e-28 2.6783579e-42)
(1.4748707e-12 0 4.053176e-28)
(1.6109026e-12 -4.559823e-28 -9.119646e-28)
(1.4337785e-12 -1.5612266e-55 -7.806133e-56)
(1.3780802e-12 1.519941e-28 -1.339179e-42)
(1.4997914e-12 0 5.06647e-29)
(1.257203e-12 5.850645e-42 1.170129e-41)
(1.4637908e-12 -5.06647e-29 5.06647e-29)
(1.7070444e-12 2.533235e-28 0)
(1.6028858e-12 1.601235e-42 0)
(1.1977584e-12 -2.026588e-28 -2.026588e-28)
(1.2335472e-12 8.0182941e-43 -6.8368088e-57)
(1.175113e-12 -8.3518688e-43 -8.3518688e-43)
(1.0942076e-12 1.013294e-28 -1.013294e-28)
(1.2525956e-12 -2.026588e-28 -2.026588e-28)
(9.7339659e-13 8.106352e-28 -4.053176e-28)
(8.1361943e-13 -7.0270896e-42 4.053176e-28)
(7.4021449e-13 3.5423443e-42 -3.5423443e-42)
(8.2246972e-13 -5.06647e-29 4.3199321e-43)
(5.2166806e-13 1.013294e-28 -5.06647e-29)
(4.9232221e-13 -3.039882e-28 1.519941e-28)
(4.803509e-13 -8.783862e-43 -5.06647e-29)
(5.549556e-13 4.4063308e-42 0)
(4.6361188e-13 -5.2703172e-42 0)
(7.4179471e-13 -1.013294e-28 5.06647e-29)
(1.1209624e-12 5.06647e-28 2.533235e-28)
(9.833593e-13 5.0786142e-42 -2.5157145e-42)
(1.0129808e-12 5.06647e-28 -4.2479333e-42)
(8.9349502e-13 -1.3938981e-41 -2.026588e-28)
(8.9909608e-13 -6.079764e-28 3.039882e-28)
(9.8706555e-13 5.06647e-28 -8.5678654e-42)
(9.1491267e-13 9.119646e-28 -3.039882e-28)
(7.9453046e-13 -3.039882e-28 3.039882e-28)
(7.4543943e-13 -4.053176e-28 -1.3938981e-41)
(8.4555223e-13 -3.4703455e-42 1.7351727e-42)
(8.6674689e-13 3.039882e-28 5.2271179e-42)
(9.1098714e-13 0 -8.6398642e-43)
(8.8304611e-13 2.533235e-28 2.533235e-28)
(8.0894918e-13 2.8799547e-44 0)
(1.2971015e-12 -1.013294e-28 0)
(1.3779369e-12 2.026588e-28 0)
(9.9221834e-13 3.5423443e-42 0)
(7.9356894e-13 1.013294e-28 0)
(1.0756148e-12 -2.026588e-28 0)
(1.1015163e-12 8.7478626e-42 0)
(8.5371193e-13 2.533235e-28 0)
(9.2667375e-13 0 0)
(5.3100334e-13 5.06647e-29 0)
(5.5358471e-13 5.1839185e-42 0)
(2.412278e-13 2.8799547e-44 0)
(4.2798643e-13 -5.06647e-29 5.06647e-29)
(8.3538207e-13 2.533235e-28 2.533235e-28)
(7.0984431e-13 -5.3135165e-42 -1.519941e-28)
(7.4559731e-13 1.013294e-28 -1.7423726e-42)
(6.1484511e-13 -5.06647e-29 -4.8788331e-57)
(9.2239332e-13 1.519941e-28 -1.519941e-28)
(9.3965488e-13 -1.519941e-28 0)
(1.0080741e-12 -5.06647e-29 0)
(1.2920415e-12 5.06647e-29 5.06647e-29)
(7.0145947e-13 -1.519941e-28 -1.519941e-28)
(6.2129676e-13 7.093058e-28 0)
(5.8055003e-13 3.546529e-28 3.546529e-28)
(7.0691812e-13 -2.026588e-28 6.99829e-42)
(9.0146701e-13 0 1.013294e-28)
(9.0048278e-13 -2.026588e-28 2.026588e-28)
(7.6891988e-13 7.1998869e-45 -5.06647e-29)
(6.7990344e-13 -3.63496e-43 7.26992e-43)
(6.0400664e-13 1.6036588e-42 -3.2073177e-42)
(5.1463517e-13 -8.6398642e-44 1.7279728e-43)
(4.3347993e-13 1.1519819e-43 1.2159528e-27)
(5.7968994e-13 2.533235e-28 -5.06647e-28)
(1.0444438e-12 5.06647e-29 -5.2703172e-42)
(9.1528781e-13 -7.0558891e-42 -4.053176e-28)
(9.8867461e-13 1.519941e-28 4.559823e-28)
(1.0704443e-12 0 -2.026588e-28)
(1.2750196e-12 5.06647e-28 -5.06647e-28)
(1.1953651e-12 4.7303257e-41 4.559823e-28)
(8.3749906e-13 7.0846887e-42 -2.026588e-28)
(1.0356591e-12 -2.533235e-28 -2.533235e-28)
(1.0380619e-12 -5.06647e-29 -1.7639723e-42)
(6.6771337e-13 -2.026588e-28 -2.026588e-28)
(7.8707263e-13 3.5063449e-42 3.5063449e-42)
(5.8945863e-13 3.039882e-28 -3.039882e-28)
(4.7123234e-13 0 -6.586411e-28)
(7.5575546e-13 0 -1.7783721e-42)
(1.1529072e-12 2.533235e-28 -1.7639723e-41)
(1.1930147e-12 3.5135448e-42 -1.013294e-28)
(1.1162491e-12 4.6817265e-42 2.3349651e-42)
(1.2586625e-12 -2.533235e-28 -2.533235e-28)
(1.381135e-12 -5.06647e-28 3.5999434e-44)
(1.3659269e-12 0 -2.026588e-28)
(1.1025208e-12 -1.519941e-28 0)
(1.1799065e-12 5.06647e-29 -5.06647e-29)
(1.3143766e-12 5.06647e-29 1.7639723e-42)
(1.2304647e-12 -9.621953e-43 9.621953e-43)
(1.4208064e-12 0 1.519941e-28)
(1.5794492e-12 0 3.546529e-28)
(1.6848373e-12 -3.039882e-28 -6.079764e-28)
(1.6616069e-12 -2.533235e-28 -2.533235e-28)
(1.6579932e-12 0 1.0639587e-27)
(1.6963271e-12 4.053176e-28 4.053176e-28)
(1.3690027e-12 -8.8558609e-42 -7.599705e-28)
(7.256515e-13 2.533235e-28 -2.533235e-28)
(3.4445241e-13 -5.06647e-28 -5.06647e-28)
(6.7591642e-13 2.8799547e-44 -5.7599095e-44)
(1.1655108e-12 8.8558609e-42 2.533235e-28)
(1.364081e-12 -9.7576662e-57 -1.2159528e-27)
(1.3379987e-12 -7.093058e-28 2.479641e-41)
(1.2772943e-12 1.2959796e-43 6.079764e-28)
(1.2427281e-12 1.013294e-28 -2.026588e-28)
(1.3200963e-12 0 4.0133546e-42)
(1.3252977e-12 5.06647e-28 5.06647e-28)
(1.2490363e-12 -5.06647e-28 -5.06647e-28)
(9.1261582e-13 -4.559823e-28 4.559823e-28)
(1.1929891e-12 1.4186116e-27 1.4186116e-27)
(9.8906108e-13 5.573117e-28 -5.573117e-28)
(8.3721041e-13 -6.079764e-28 -1.0497435e-41)
(7.7619589e-13 -3.039882e-28 -3.039882e-28)
(9.5401651e-13 4.053176e-28 -8.106352e-28)
(1.0420175e-12 4.053176e-28 4.053176e-28)
(6.6342414e-13 2.533235e-28 2.533235e-28)
(6.8084907e-13 0 1.519941e-28)
(7.1451619e-13 -5.06647e-29 1.7639723e-42)
(7.8379481e-13 -1.519941e-28 5.2703172e-42)
(1.1962894e-12 4.053176e-28 -1.4111778e-41)
(1.168947e-12 1.4054179e-41 -8.106352e-28)
(1.0287532e-12 1.519941e-28 1.519941e-28)
(1.1828624e-12 -4.053176e-28 -4.053176e-28)
(1.3814494e-12 -1.519941e-28 -3.039882e-28)
(1.5099699e-12 0 -2.533235e-28)
(1.3335455e-12 5.06647e-29 -5.06647e-29)
(1.3792952e-12 2.026588e-28 1.4054179e-41)
(1.6016255e-12 -4.053176e-28 8.106352e-28)
(1.3879151e-12 1.013294e-28 -2.8799547e-44)
(1.4449592e-12 -1.1519819e-43 5.7599095e-44)
(1.9071893e-12 -3.039882e-28 8.7818996e-56)
(1.9450043e-12 1.013294e-28 1.013294e-28)
(2.3185292e-12 1.519941e-28 1.0540634e-41)
(1.8051647e-12 -2.1167667e-41 -4.2335335e-41)
(1.9011887e-12 -2.026588e-28 -2.026588e-28)
(2.0106414e-12 2.026588e-28 2.026588e-28)
(1.765111e-12 -6.9525452e-42 -6.9761378e-42)
(1.4997211e-12 4.053176e-28 1.4054179e-41)
(1.2579761e-12 -4.559823e-28 -4.559823e-28)
(1.6443229e-12 0 1.519941e-28)
(1.4655846e-12 0 7.9198756e-44)
(1.8543888e-12 8.106352e-28 8.106352e-28)
(1.7555592e-12 3.039882e-28 0)
(1.5139663e-12 2.026588e-28 2.026588e-28)
(1.2763573e-12 4.053176e-28 2.8050759e-41)
(1.6269682e-12 -2.533235e-28 -5.06647e-28)
(1.5673409e-12 -3.5135448e-42 5.06647e-29)
(1.8878657e-12 -3.039882e-28 8.6398642e-44)
(2.2244933e-12 5.06647e-28 5.06647e-28)
(2.1326319e-12 2.026588e-28 -2.026588e-28)
(2.1632249e-12 0 3.039882e-28)
(1.4133882e-12 -2.533235e-28 -2.533235e-28)
(1.5532493e-12 -1.519941e-28 6.3330205e-41)
(1.8175037e-12 0 1.2648761e-40)
(1.6769873e-12 1.519941e-28 -1.519941e-28)
(1.2808015e-12 -3.039882e-28 -6.079764e-28)
(1.2735571e-12 0 0)
(8.9186432e-13 3.546529e-28 -2.4594814e-41)
(1.4020928e-12 2.1081269e-41 -2.1081269e-41)
(2.0356506e-12 3.546529e-28 -3.546529e-28)
(2.0841724e-12 -3.546529e-28 -3.546529e-28)
(1.887053e-12 5.06647e-29 3.4919451e-42)
(1.4555114e-12 -2.533235e-28 -2.533235e-28)
(1.2513097e-12 -1.399658e-41 2.026588e-28)
(1.2203109e-12 2.0908471e-41 2.0908471e-41)
(1.6292952e-12 2.1599661e-44 2.1599661e-44)
(1.9990325e-12 -2.533235e-28 -3.5099449e-41)
(1.694729e-12 -2.026588e-28 -4.053176e-28)
(1.5841201e-12 -7.0270896e-41 5.06647e-28)
(2.0579136e-12 2.4393217e-41 3.546529e-28)
(2.2662018e-12 -6.9694905e-42 -6.9694905e-42)
(1.8384079e-12 2.533235e-28 1.7459726e-41)
(1.9389626e-12 0 -5.2667172e-41)
(2.2297733e-12 0 -1.5062857e-55)
(2.0464231e-12 -1.013294e-28 -1.013294e-28)
(2.0498435e-12 -3.039882e-28 0)
(2.0351578e-12 0 0)
(2.068208e-12 0 0)
(2.0443393e-12 2.533235e-28 0)
(1.8552468e-12 -4.8788331e-57 -5.573117e-28)
(2.4695565e-12 -2.533235e-28 5.281117e-41)
(2.3808265e-12 0 1.519941e-28)
(2.160943e-12 -2.533235e-28 -2.533235e-28)
(2.6250591e-12 7.599705e-28 7.599705e-28)
(2.5560557e-12 1.1231824e-40 4.053176e-28)
(2.1174097e-12 -1.013294e-28 -1.013294e-28)
(2.1313199e-12 -2.026588e-28 1.402538e-41)
(2.2591438e-12 -2.1038069e-41 -2.1038069e-41)
(2.4063523e-12 7.1998869e-45 5.06647e-29)
(2.2157146e-12 1.013294e-28 1.013294e-28)
(1.785649e-12 -2.533235e-28 -2.533235e-28)
(2.1934007e-12 1.4399774e-44 0)
(2.187117e-12 -2.8050759e-41 2.026588e-28)
(1.9978042e-12 7.0772464e-55 7.0772464e-55)
(2.1958372e-12 3.039882e-28 3.039882e-28)
(2.1540036e-12 0 2.026588e-28)
(2.1276917e-12 -1.519941e-28 -2.1167667e-41)
(1.6916397e-12 1.2600415e-55 2.0686047e-42)
(1.9013545e-12 4.2184137e-41 -3.039882e-28)
(1.860442e-12 2.026588e-28 2.026588e-28)
(1.6402007e-12 0 5.06647e-28)
(1.5230605e-12 -5.573117e-28 -5.573117e-28)
(1.7897051e-12 -1.3438891e-41 1.3438891e-41)
(2.0193795e-12 0 0)
(1.7203283e-12 0 0)
(1.5024872e-12 0 0)
(1.8007982e-12 -5.573117e-28 -5.573117e-28)
(1.8495509e-12 -5.2595174e-41 7.599705e-28)
(1.4085697e-12 3.039882e-28 6.079764e-28)
(1.5904312e-12 0 -1.013294e-28)
(1.5196295e-12 0 1.8573331e-56)
(1.4697998e-12 -1.519941e-28 -1.519941e-28)
(1.4320055e-12 -2.026588e-28 -2.026588e-28)
(1.6890528e-12 3.0426787e-42 6.0853575e-42)
(1.6531936e-12 -2.026588e-28 5.7599095e-44)
(1.4899033e-12 0 -7.1998869e-44)
(1.3353205e-12 1.013294e-28 1.013294e-28)
(1.3883838e-12 -2.026588e-28 -2.026588e-28)
(1.7055215e-12 1.519941e-28 3.039882e-28)
(1.980316e-12 -2.533235e-28 3.5999434e-44)
(1.8622319e-12 0 -6.3330205e-41)
(1.6701673e-12 3.039882e-28 3.039882e-28)
(1.596912e-12 -1.4068579e-41 -2.8137158e-41)
(1.871768e-12 1.0540634e-41 2.1081269e-41)
(1.7691537e-12 -3.039882e-28 -3.039882e-28)
(1.6041294e-12 2.533235e-28 2.533235e-28)
(1.5719942e-12 -2.026588e-28 0)
(1.4164317e-12 0 -5.06647e-29)
(1.6538628e-12 -2.026588e-28 -2.026588e-28)
(1.6035406e-12 -2.8165957e-41 2.026588e-28)
(9.7758732e-13 8.612999e-28 -8.612999e-28)
(1.2026873e-12 1.1946052e-40 0)
(1.2734671e-12 -9.119646e-28 -4.559823e-28)
(1.4978143e-12 5.06647e-29 5.06647e-29)
(2.1356378e-12 -1.5145504e-54 9.6339796e-42)
(1.7633364e-12 -1.7589324e-41 -1.7589324e-41)
(1.4318965e-12 -7.0126898e-42 -2.026588e-28)
(1.1792144e-12 -3.546529e-28 -7.093058e-28)
(1.2241431e-12 4.559823e-28 1.3679469e-27)
(1.5934444e-12 2.533235e-28 5.06647e-28)
(1.5761723e-12 0 0)
(1.4774528e-12 2.026588e-28 4.053176e-28)
(1.5251882e-12 4.053176e-28 4.053176e-28)
(1.7279631e-12 0 -1.519941e-28)
(1.3313082e-12 2.533235e-28 2.533235e-28)
(1.6388088e-12 4.2718103e-41 4.2718103e-41)
(1.973475e-12 2.026588e-28 2.026588e-28)
(1.5896136e-12 -5.8545751e-42 -1.1685558e-41)
(1.6420573e-12 -6.3880228e-42 -6.3880228e-42)
(1.2556364e-12 1.013294e-28 2.026588e-28)
(1.3846176e-12 1.1243343e-40 1.1243343e-40)
(1.1728843e-12 -8.106352e-28 -1.6212704e-27)
(8.7717013e-13 6.079764e-28 6.079764e-28)
(1.1515096e-12 -1.7567724e-41 -3.5135448e-41)
(1.2666808e-12 -1.8195603e-41 -1.8183807e-41)
(1.0100743e-12 5.06647e-29 1.013294e-28)
(1.1037055e-12 1.0139658e-54 1.0783301e-41)
(1.2639203e-12 1.2869272e-54 1.8764909e-54)
(9.9640704e-13 -7.1998869e-44 2.533235e-28)
(1.2306667e-12 2.099487e-41 3.039882e-28)
(1.3081704e-12 -6.586411e-28 -6.586411e-28)
(1.4155601e-12 0 7.093058e-28)
(1.5177613e-12 0 2.1138868e-41)
(1.1389091e-12 -1.013294e-28 2.026588e-28)
(1.4067433e-12 1.013294e-28 2.026588e-28)
(1.7908261e-12 0 3.1820536e-55)
(1.3875095e-12 0 1.013294e-28)
(1.5921867e-12 0 0)
(1.710141e-12 0 0)
(1.3786595e-12 2.533235e-28 2.533235e-28)
(1.4696088e-12 2.7935561e-41 -4.053176e-28)
(1.4433613e-12 -6.079764e-28 -6.079764e-28)
(1.3657248e-12 2.1599661e-44 5.06647e-29)
(1.727263e-12 -3.039882e-28 8.6398642e-44)
(1.8213265e-12 -4.559823e-28 -4.559823e-28)
(1.587968e-12 3.5171447e-41 -2.533235e-28)
(1.2539566e-12 -2.1059669e-41 -1.519941e-28)
(1.1086563e-12 -5.0399208e-44 0)
(1.1694086e-12 4.0847071e-43 3.9667441e-43)
(1.368126e-12 -1.5282174e-41 -1.5282174e-41)
(1.534107e-12 2.0589295e-41 0)
(1.7967624e-12 -4.053176e-28 -4.053176e-28)
(1.7332208e-12 -4.559823e-28 -1.519941e-28)
(1.7478039e-12 -1.013294e-28 -2.026588e-28)
(1.8012629e-12 1.013294e-28 -3.5063449e-42)
(2.0213952e-12 0 5.7599095e-44)
(1.8745452e-12 1.013294e-28 1.013294e-28)
(1.4120956e-12 2.533235e-28 2.533235e-28)
(1.6945869e-12 -2.026588e-28 -2.026588e-28)
(1.4602741e-12 1.0079842e-43 3.546529e-28)
(1.4944892e-12 -1.2959796e-43 -3.039882e-28)
(1.8962213e-12 -1.5496767e-58 -3.0993533e-58)
(1.6152218e-12 3.546529e-28 7.093058e-28)
(1.7144625e-12 2.533235e-28 -2.533235e-28)
(1.7843266e-12 3.546529e-28 3.546529e-28)
(2.0426791e-12 6.079764e-28 3.039882e-28)
(2.303201e-12 -4.053176e-28 5.6216717e-41)
(1.9048376e-12 -3.4151832e-56 -3.546529e-28)
(1.5669313e-12 1.519941e-28 0)
(1.507854e-12 4.2119338e-41 0)
(1.6430291e-12 -2.026588e-28 -1.013294e-28)
(1.7532855e-12 0 2.1102868e-41)
(1.6832994e-12 0 1.4061379e-41)
(1.7500027e-12 -2.026588e-28 1.4082979e-41)
(1.9000488e-12 1.1254863e-40 -2.026588e-28)
(1.6208793e-12 5.06647e-28 2.533235e-28)
(1.646335e-12 0 -1.4399774e-44)
(1.4362284e-12 5.8800824e-43 5.8800824e-43)
(1.5934635e-12 -5.06647e-29 0)
(1.0927653e-12 2.533235e-28 0)
(1.3680543e-12 -1.4399774e-44 0)
(1.5034685e-12 -1.4068579e-41 0)
(1.0977846e-12 7.1998869e-45 0)
(1.3755346e-12 -2.533235e-28 0)
(1.3771314e-12 3.546529e-28 0)
(1.0727841e-12 1.013294e-28 1.013294e-28)
(1.2268581e-12 0 0)
(1.2548303e-12 -2.533235e-28 -2.533235e-28)
(1.0062691e-12 4.9240026e-41 0)
(8.0921944e-13 2.026588e-28 2.026588e-28)
(1.0104878e-12 -1.013294e-28 1.4054179e-41)
(1.2135983e-12 -5.6216717e-41 2.026588e-28)
(1.3521118e-12 -1.013294e-28 0)
(1.5099784e-12 -1.4068579e-41 0)
(1.3257485e-12 -5.06647e-28 -2.533235e-28)
(1.0149383e-12 6.079764e-28 -4.2205737e-41)
(9.7706562e-13 -5.06647e-29 -5.06647e-29)
(1.4273189e-12 4.559823e-28 0)
(1.0204239e-12 4.3199321e-44 0)
(8.753144e-13 3.546529e-28 3.546529e-28)
(8.0328638e-13 0 1.519941e-28)
(6.6675003e-13 0 2.026588e-28)
(7.2737604e-13 -3.546529e-28 -3.546529e-28)
(9.0676422e-13 1.0540634e-40 0)
(6.4439744e-13 9.119646e-28 4.559823e-28)
(3.5917063e-13 7.1998869e-45 7.1998869e-45)
(3.5003768e-13 9.119646e-28 3.039882e-28)
(5.045198e-13 -2.533235e-28 -2.533235e-28)
(3.5090512e-13 -2.026588e-28 -2.026588e-28)
(6.4031351e-13 -2.7796753e-43 -1.3898376e-43)
(7.0481338e-13 1.013294e-28 -1.013294e-28)
(6.5504776e-13 -1.013294e-28 0)
(8.9204097e-13 -1.1146234e-27 5.573117e-28)
(7.4332854e-13 2.533235e-28 2.533235e-28)
(4.6915022e-13 -3.546529e-28 3.546529e-28)
(5.7093713e-13 -3.546529e-28 3.546529e-28)
(9.1018728e-13 2.026588e-28 0)
(8.2308413e-13 4.8788331e-56 2.533235e-28)
(9.9602988e-13 4.559823e-28 4.559823e-28)
(8.6103037e-13 -1.519941e-28 -1.519941e-28)
(5.8798484e-13 -2.533235e-28 2.533235e-28)
(3.6060134e-13 5.573117e-28 0)
(7.6349805e-13 1.5443757e-40 0)
(6.0401532e-13 1.4399774e-43 0)
(6.0304186e-13 2.026588e-28 0)
(7.1732182e-13 5.06647e-28 0)
(7.1862931e-13 -3.546529e-28 0)
(8.8740586e-13 -7.0342895e-41 0)
(7.6096029e-13 2.8108358e-41 0)
(8.0804256e-13 5.06647e-29 5.06647e-29)
(6.0253739e-13 1.013294e-28 -7.806133e-56)
(4.6467436e-13 1.519941e-28 5.06647e-29)
(5.7213617e-13 1.4054179e-41 0)
(6.9456518e-13 2.8108358e-41 0)
(5.4209175e-13 -1.4039779e-41 0)
(5.295837e-13 -1.013294e-28 -5.06647e-29)
(6.5052662e-13 7.093058e-28 -4.9189627e-41)
(8.3435503e-13 -7.0270896e-41 2.533235e-28)
(8.6360449e-13 1.013294e-28 5.06647e-29)
(6.7365934e-13 0 9.3177833e-55)
(6.6918412e-13 0 2.1599661e-44)
(6.0238955e-13 -5.06647e-29 7.0342895e-42)
(3.7417286e-13 -7.0270896e-41 5.06647e-28)
(5.2406805e-13 -4.053176e-28 -4.053176e-28)
(8.1616401e-13 -3.039882e-28 3.039882e-28)
(1.109348e-12 5.573117e-28 -3.0966713e-40)
(1.336489e-12 4.559823e-28 -1.519941e-28)
(1.759204e-12 5.06647e-28 -5.06647e-28)
(1.7365018e-12 6.079764e-28 0)
(1.1430038e-12 1.2959796e-43 0)
(1.1308035e-12 1.519941e-28 1.519941e-28)
(1.3147557e-12 0 -4.2205737e-41)
(1.3846354e-12 3.039882e-28 1.519941e-28)
(1.3878846e-12 -1.013294e-28 5.06647e-29)
(1.1038037e-12 -5.06647e-29 -5.06647e-29)
(1.325339e-12 3.039882e-28 0)
(1.42546e-12 1.013294e-28 -1.013294e-28)
(1.1562906e-12 2.026588e-28 1.013294e-28)
(1.4415611e-12 -5.06647e-28 2.533235e-28)
(1.3843644e-12 4.053176e-28 5.6245516e-41)
(1.113314e-12 -4.053176e-28 -5.4124555e-69)
(1.1168964e-12 0 -7.0342895e-42)
(9.9070935e-13 -4.053176e-28 -2.026588e-28)
(1.1457584e-12 5.06647e-28 5.06647e-28)
(8.9054786e-13 1.3172822e-27 7.806133e-56)
(7.9345662e-13 -3.546529e-28 4.9240026e-41)
(6.3144916e-13 1.0013397e-41 -1.0019295e-41)
(5.2584535e-13 7.1998869e-45 0)
(8.0759493e-13 -2.8137158e-41 0)
(8.2739055e-13 -3.039882e-28 -3.039882e-28)
(5.2804925e-13 3.546529e-28 -5.0399208e-44)
(6.162991e-13 6.3144821e-41 2.6294394e-53)
(5.9371386e-13 1.519941e-28 1.519941e-28)
(5.5559742e-13 1.3493734e-55 0)
(6.9384403e-13 -2.1599661e-44 0)
(6.6910931e-13 -6.3243806e-41 -4.559823e-28)
(6.2218647e-13 -2.533235e-28 7.0234896e-41)
(1.0991639e-12 -3.546529e-28 -3.546529e-28)
(1.2308993e-12 1.4772008e-40 0)
(1.371564e-12 3.5171447e-41 0)
(1.4029918e-12 5.6245516e-41 0)
(1.2847826e-12 1.013294e-28 1.013294e-28)
(1.6754509e-12 -3.039882e-28 -4.3199321e-44)
(1.3563877e-12 1.4068579e-41 -1.013294e-28)
(1.4345638e-12 -4.2140938e-41 -1.519941e-28)
(1.5362958e-12 3.5999434e-44 -2.533235e-28)
(1.6578857e-12 6.079764e-28 8.4497872e-41)
(1.242806e-12 -2.026588e-28 -4.053176e-28)
(1.2173759e-12 1.519941e-28 1.519941e-28)
(1.3501113e-12 -1.013294e-28 -2.1102868e-41)
(1.041236e-12 -7.0342895e-42 7.0342895e-42)
(1.1897398e-12 1.2105825e-41 8.4108989e-55)
(1.09457e-12 -1.2128826e-42 -1.2128826e-42)
(1.0506132e-12 3.039882e-28 0)
(1.484287e-12 1.013294e-28 0)
(1.6697019e-12 2.533235e-28 -2.533235e-28)
(1.6677222e-12 3.546529e-28 -4.9240026e-41)
(1.7122638e-12 7.0306895e-41 7.0306895e-41)
(1.5797977e-12 -5.06647e-29 -2.4394166e-56)
(1.0551933e-12 0 -2.533235e-28)
(1.1417002e-12 0 3.039882e-28)
(1.4406806e-12 1.519941e-28 1.519941e-28)
(1.6471198e-12 0 0)
(1.7646737e-12 4.053176e-28 4.053176e-28)
(1.5669895e-12 -1.013294e-28 1.4068579e-41)
(1.9935683e-12 -7.1998869e-45 -5.06647e-29)
(1.8882832e-12 3.8998706e-54 0)
(1.5673306e-12 0 0)
(1.7136173e-12 -2.533235e-28 -2.533235e-28)
(1.8804359e-12 5.573117e-28 1.5839751e-43)
(1.8861293e-12 5.06647e-28 9.7576662e-57)
(1.9355473e-12 -5.06647e-28 -2.533235e-28)
(2.3120042e-12 1.8281711e-42 -1.8340692e-42)
(2.2027343e-12 -5.06647e-29 7.0198897e-42)
(2.2730366e-12 0 1.4068579e-41)
(2.2742471e-12 0 4.2184137e-41)
(2.381477e-12 3.546529e-28 3.546529e-28)
(1.852592e-12 8.1812603e-54 2.9376536e-41)
(1.8930869e-12 1.519941e-28 -4.2205737e-41)
(1.8702468e-12 0 -3.9105993e-54)
(1.7016255e-12 0 -2.8151558e-41)
(1.7399965e-12 -2.533235e-28 -2.533235e-28)
(1.6846698e-12 2.1110068e-40 5.06647e-28)
(1.7427188e-12 4.053176e-28 -1.1254863e-40)
(1.8671274e-12 0 7.0486892e-42)
(1.9389657e-12 0 0)
(1.5786036e-12 0 2.026588e-28)
(1.5690882e-12 0 -1.013294e-28)
(1.3209282e-12 0 -2.1102868e-41)
(1.3962724e-12 0 1.4399774e-44)
(1.4251795e-12 0 -3.5171447e-41)
(1.3798737e-12 0 7.7456383e-41)
(1.2520337e-12 1.519941e-27 7.599705e-28)
(1.2696237e-12 4.4996413e-40 -8.106352e-28)
(1.3346486e-12 -6.586411e-28 -6.586411e-28)
(1.3057082e-12 4.053176e-28 4.053176e-28)
(1.723408e-12 -2.533235e-28 2.533235e-28)
(1.7146485e-12 5.573117e-28 0)
(1.3171327e-12 -1.6899574e-40 -6.079764e-28)
(1.2553118e-12 -4.559823e-28 -4.559823e-28)
(1.2832659e-12 -4.2205737e-41 0)
(1.5715375e-12 3.039882e-28 -3.039882e-28)
(1.6261133e-12 0 1.0551434e-40)
(1.6709007e-12 0 -5.7599095e-44)
(1.3305734e-12 -5.06647e-29 -7.0270896e-42)
(1.4654397e-12 -4.2205737e-41 1.519941e-28)
(1.168045e-12 1.013294e-28 -1.013294e-28)
(1.059615e-12 0 -1.4054179e-41)
(9.4843921e-13 0 1.7143386e-54)
(6.443072e-13 0 -5.06647e-29)
(7.7450268e-13 0 2.533235e-28)
(1.0372596e-12 0 -1.3172822e-27)
(1.0758773e-12 0 9.3598529e-44)
(9.8266428e-13 0 -4.9189627e-41)
(7.5203052e-13 -2.9604364e-41 -1.4802182e-41)
(5.9146332e-13 -8.4353875e-41 -1.013294e-28)
(5.6813578e-13 -5.06647e-28 3.5171447e-41)
(4.3255318e-13 3.546529e-28 3.546529e-28)
(5.2353545e-13 2.1599661e-44 0)
(5.7152331e-13 2.533235e-28 0)
(5.1269088e-13 -1.4046979e-40 0)
(5.6433103e-13 -3.039882e-28 -1.519941e-28)
(7.6241705e-13 -2.533235e-28 -2.533235e-28)
(7.5992335e-13 -1.9515332e-56 1.013294e-28)
(9.4602149e-13 -1.0639587e-27 -3.546529e-28)
(8.7098093e-13 0 0)
(9.1751988e-13 -2.026588e-28 -1.013294e-28)
(1.1123799e-12 0 4.559823e-28)
(8.4430419e-13 0 -4.053176e-28)
(9.0241241e-13 -2.026588e-28 -1.013294e-28)
(8.4461907e-13 2.8108358e-41 0)
(8.8508987e-13 -4.559823e-28 -1.519941e-28)
(8.3136332e-13 1.519941e-28 -1.519941e-28)
(8.1838377e-13 1.013294e-28 1.013294e-28)
(9.7118968e-13 1.519941e-28 -4.2205737e-41)
(1.0311575e-12 -2.533235e-28 2.533235e-28)
(1.1611602e-12 5.06647e-29 0)
(1.1099197e-12 1.4054179e-41 0)
(1.4155853e-12 -2.533235e-28 0)
(1.7072937e-12 6.079764e-28 0)
(1.4263525e-12 0 -5.573117e-28)
(1.3208803e-12 3.039882e-28 8.4325075e-41)
(1.2351815e-12 -2.533235e-28 2.533235e-28)
(1.1661922e-12 -6.079764e-28 -3.039882e-28)
(1.3767495e-12 5.06647e-28 -7.0342895e-41)
(1.7175734e-12 4.053176e-28 5.6331915e-41)
(1.8368399e-12 1.519941e-28 -4.8788331e-57)
(1.6749237e-12 -1.519941e-28 1.519941e-28)
(1.7728262e-12 3.039882e-28 1.519941e-28)
(2.058339e-12 -1.013294e-28 2.026588e-28)
(2.0830876e-12 2.026588e-28 2.8137158e-41)
(1.8468006e-12 0 -1.4054179e-41)
(1.935857e-12 5.06647e-29 -5.06647e-29)
(1.5915733e-12 -5.06647e-29 0)
(1.7120114e-12 -2.026588e-28 2.026588e-28)
(1.7759288e-12 -1.519941e-28 -5.06647e-29)
(1.9540587e-12 -1.2959796e-43 4.559823e-28)
(1.6742579e-12 5.06647e-28 7.0270896e-41)
(1.4332471e-12 2.026588e-28 2.026588e-28)
(1.2220541e-12 2.8137158e-41 0)
(1.0245122e-12 6.7353671e-43 0)
(1.3907117e-12 5.7599095e-44 2.026588e-28)
(1.2868073e-12 2.026588e-28 -1.4054179e-41)
(1.4916276e-12 1.519941e-28 1.519941e-28)
(1.8173096e-12 0 0)
(1.451326e-12 4.2205737e-41 1.519941e-28)
(1.2196237e-12 -2.1599661e-44 2.1599661e-44)
(1.1574813e-12 -2.533235e-28 -7.0342895e-41)
(1.5192338e-12 1.013294e-28 -1.4054179e-41)
(1.8016578e-12 2.8137158e-41 -1.013294e-28)
(1.5390021e-12 1.4054179e-41 1.013294e-28)
(1.5596583e-12 7.1998869e-45 -7.1998869e-45)
(1.4801399e-12 -2.026588e-28 -5.6274316e-41)
(1.4366634e-12 1.013294e-28 -1.013294e-28)
(1.4159342e-12 -1.9515332e-56 1.013294e-28)
(1.5619509e-12 -1.1254863e-40 1.1254863e-40)
(1.4858857e-12 -5.7599095e-44 5.7599095e-44)
(1.6386736e-12 -2.026588e-28 -1.4068579e-41)
(1.9485448e-12 -7.0270896e-42 -5.06647e-29)
(2.0590882e-12 2.9661879e-41 2.9650083e-41)
(2.1094841e-12 0 0)
(2.1522021e-12 0 1.9690971e-40)
(2.0581578e-12 2.533235e-28 3.5135448e-41)
(1.7460414e-12 -4.2162538e-41 -4.2162538e-41)
(1.626773e-12 3.039882e-28 -4.3199321e-44)
(1.5506668e-12 -2.026588e-28 -2.026588e-28)
(1.8602015e-12 -1.4068579e-41 -1.013294e-28)
(2.1169343e-12 3.9030665e-56 3.9030665e-56)
(1.8219294e-12 7.0342895e-42 7.0342895e-42)
(1.9232969e-12 5.06647e-29 1.4068579e-41)
(1.954107e-12 -1.013294e-28 1.4068579e-41)
(1.5957701e-12 -1.4054179e-41 -2.026588e-28)
(2.1622035e-12 1.013294e-28 1.013294e-28)
(1.8954965e-12 0 -5.06647e-29)
(1.6889791e-12 0 -7.7377184e-41)
(1.5870708e-12 1.1146234e-27 1.5475437e-40)
(1.3096073e-12 -9.119646e-28 1.8239292e-27)
(1.5851437e-12 4.6394631e-40 -5.573117e-28)
(1.5729338e-12 2.533235e-28 -2.533235e-28)
(1.6242593e-12 1.519941e-28 1.4636499e-56)
(1.5402771e-12 0 0)
(1.2833618e-12 -5.06647e-29 -1.4636499e-56)
(1.6508913e-12 -1.519941e-28 1.519941e-28)
(1.7729024e-12 3.546529e-28 -3.546529e-28)
(1.3506872e-12 1.519941e-28 -1.4636499e-56)
(1.5430328e-12 0 2.0463024e-55)
(1.3502305e-12 1.519941e-28 -2.1599661e-44)
(1.3405973e-12 5.573117e-28 -5.573117e-28)
(1.6072562e-12 -9.119646e-28 9.119646e-28)
(1.3495919e-12 -5.06647e-29 1.4068579e-41)
(1.3268418e-12 1.013294e-28 -1.013294e-28)
(1.1780402e-12 2.026588e-28 2.8108358e-41)
(1.2803095e-12 1.4054179e-41 -1.4054179e-41)
(1.2695813e-12 -1.013294e-28 -1.013294e-28)
(1.3357831e-12 -2.8137158e-41 1.013294e-28)
(1.0637017e-12 -5.06647e-28 9.7576662e-56)
(7.9651562e-13 0 -1.8999061e-40)
(7.9837355e-13 0 7.0378894e-41)
(1.0469852e-12 0 3.1219008e-54)
(1.3806193e-12 1.013294e-28 -2.8137158e-41)
(1.2068026e-12 1.519941e-28 1.4636499e-56)
(1.3236912e-12 0 0)
(7.0806578e-13 -5.06647e-28 5.06647e-28)
(8.4580846e-13 -2.8079559e-41 0)
(1.0787481e-12 -2.6131619e-41 0)
(9.2460841e-13 0 -2.533235e-28)
(1.1438475e-12 0 -2.8137158e-41)
(1.3556262e-12 3.039882e-28 -3.039882e-28)
(1.4548397e-12 6.3243806e-41 0)
(1.4414118e-12 -9.1258566e-41 0)
(1.4513336e-12 7.599705e-28 1.519941e-27)
(1.1051135e-12 -3.546529e-28 2.9523856e-40)
(8.3983524e-13 -8.4325075e-41 4.053176e-28)
(9.5512504e-13 -3.039882e-28 -3.039882e-28)
(9.817972e-13 0 1.4399774e-44)
(1.3992755e-12 5.06647e-29 7.0342895e-42)
(1.1199604e-12 -2.8137158e-41 -2.026588e-28)
(8.9508912e-13 4.559823e-28 0)
(9.8908246e-13 -5.573117e-28 0)
(8.9754425e-13 5.06647e-28 0)
(1.0534238e-12 8.4185351e-41 -8.4185351e-41)
(1.1194112e-12 4.053176e-28 1.1243343e-40)
(1.2565096e-12 0 -4.559823e-28)
(1.3378937e-12 -2.533235e-28 0)
(1.116982e-12 -1.013294e-28 0)
(1.3582226e-12 1.013294e-28 1.013294e-28)
(1.4787093e-12 2.026588e-28 -2.8799547e-44)
(1.5184048e-12 0 -1.519941e-28)
(1.5477498e-12 3.039882e-28 0)
(1.543156e-12 -4.053176e-28 0)
(1.61003e-12 -2.533235e-28 2.533235e-28)
(1.6486378e-12 1.519941e-28 4.2162538e-41)
(1.5531726e-12 -4.053176e-28 -5.6303115e-41)
(1.2255798e-12 1.6882295e-40 8.4411474e-41)
(1.6506052e-12 1.519941e-28 5.06647e-29)
(1.5765045e-12 -1.4636499e-56 -5.06647e-29)
(1.3496431e-12 1.013294e-28 -2.8122758e-41)
(1.4539954e-12 3.039882e-28 4.2184137e-41)
(1.575845e-12 2.8108358e-41 1.4054179e-41)
(1.3994238e-12 4.053176e-28 2.026588e-28)
(1.4461471e-12 1.013294e-28 0)
(1.5647446e-12 -6.079764e-28 0)
(1.3190792e-12 6.079764e-28 6.079764e-28)
(1.5267085e-12 2.026588e-28 9.7576662e-55)
(1.3653574e-12 1.013294e-27 5.06647e-28)
(1.4929925e-12 0 0)
(1.5957773e-12 0 0)
(1.3860193e-12 -6.079764e-28 -3.039882e-28)
(1.5250417e-12 -2.7321465e-55 -5.4642931e-55)
(1.5114072e-12 -4.053176e-28 -2.026588e-28)
(1.5777893e-12 0 0)
(1.8589517e-12 0 0)
(2.2189402e-12 8.106352e-28 4.053176e-28)
(2.2025593e-12 5.3849699e-68 1.076994e-67)
(2.2512885e-12 -1.1146234e-27 -5.573117e-28)
(2.1112858e-12 0 0)
(2.068159e-12 0 0)
(2.1475038e-12 -2.8911294e-41 -1.4455647e-41)
(1.892789e-12 -3.039882e-28 4.3199321e-44)
(2.1869827e-12 1.013294e-28 5.06647e-29)
(2.4110907e-12 -6.079764e-28 6.079764e-28)
(2.229701e-12 0 -1.8298512e-40)
(1.9463442e-12 1.013294e-28 1.4075779e-41)
(1.8065701e-12 1.6882295e-40 8.4411474e-41)
(2.168653e-12 3.039882e-28 1.519941e-28)
(2.0524749e-12 1.519941e-28 0)
(2.0617378e-12 0 0)
(2.2465556e-12 1.013294e-28 0)
(1.6743641e-12 -3.546529e-28 0)
(1.7185351e-12 7.1998869e-45 0)
(2.1426556e-12 -4.053176e-28 4.053176e-28)
(1.8233384e-12 3.546529e-28 -9.8429653e-41)
(1.665638e-12 1.519941e-28 1.519941e-28)
(1.5895845e-12 2.533235e-28 0)
(1.3663298e-12 -2.026588e-28 0)
(1.4929714e-12 -2.533235e-28 0)
(1.6098792e-12 1.4068579e-41 0)
(1.7106719e-12 -2.026588e-28 0)
(1.6541469e-12 1.013294e-28 0)
(1.8672211e-12 2.8137158e-41 0)
(1.8231777e-12 5.06647e-29 -5.06647e-29)
(1.5287486e-12 -1.519941e-28 8.4368274e-41)
(1.6317269e-12 5.06647e-29 5.06647e-29)
(1.4348772e-12 1.013294e-28 0)
(1.511163e-12 5.06647e-29 0)
(1.6762269e-12 2.533235e-28 0)
(1.4386716e-12 -4.2205737e-41 0)
(1.22177e-12 -5.06647e-29 0)
(1.6942521e-12 3.546529e-28 0)
(1.6467216e-12 -7.1998869e-44 0)
(1.3433822e-12 -3.546529e-28 3.546529e-28)
(1.3237346e-12 3.546529e-28 -9.8429653e-41)
(1.6685807e-12 -5.06647e-29 -5.06647e-29)
(1.8031051e-12 -5.06647e-29 0)
(1.5541669e-12 -5.06647e-29 0)
(1.4013757e-12 -1.013294e-27 -5.06647e-28)
(1.4148358e-12 3.3781869e-40 1.6890935e-40)
(1.7170664e-12 5.06647e-28 2.533235e-28)
(1.8285002e-12 2.026588e-28 0)
(1.8408637e-12 -2.8799547e-44 0)
(1.6788481e-12 -5.06647e-28 0)
(1.4307042e-12 -1.4399774e-43 5.06647e-28)
(1.7297688e-12 2.026588e-28 5.6303115e-41)
(1.8113026e-12 0 1.013294e-28)
(1.4536408e-12 1.013294e-28 0)
(1.4656671e-12 0 0)
(1.5391159e-12 -1.013294e-28 0)
(1.6890529e-12 0 0)
(1.536067e-12 0 0)
(1.5801343e-12 0 0)
(1.8551333e-12 5.06647e-29 0)
(1.6324924e-12 -4.8788331e-57 5.06647e-29)
(1.5780964e-12 -5.06647e-29 -7.1998869e-45)
(1.5601553e-12 0 5.06647e-29)
(1.6990346e-12 1.013294e-28 0)
(1.5737689e-12 -5.6274316e-41 0)
(1.4215774e-12 1.013294e-28 0)
(1.6372874e-12 0 0)
(1.3124665e-12 0 0)
(1.5275418e-12 0 0)
(1.6585409e-12 -5.06647e-29 0)
(1.628691e-12 -4.2205737e-41 1.519941e-28)
(1.3467704e-12 -5.06647e-29 7.1998869e-45)
(1.3079853e-12 0 -2.026588e-28)
(1.4037937e-12 -4.559823e-28 0)
(1.6008151e-12 -7.0306895e-41 0)
(1.8199574e-12 1.3205899e-41 0)
(1.7735659e-12 0 -2.026588e-28)
(1.968987e-12 -5.06647e-29 -2.8129958e-41)
(1.6374664e-12 -1.6559103e-40 1.6559103e-40)
(2.0192642e-12 -1.1260623e-40 0)
(2.3230434e-12 -6.586411e-28 6.586411e-28)
(2.1550913e-12 3.546529e-28 9.8530452e-41)
(2.0155401e-12 0 1.013294e-28)
(2.170773e-12 1.013294e-28 0)
(1.9354416e-12 1.2661721e-40 0)
(1.9103126e-12 2.533235e-28 -2.533235e-28)
(1.9382755e-12 0 -4.559823e-28)
(1.9598176e-12 1.519941e-28 1.519941e-28)
(1.8834978e-12 -3.039882e-28 3.039882e-28)
(1.7578763e-12 -1.4068579e-40 0)
(1.6224101e-12 -5.06647e-29 0)
(1.5361977e-12 1.6877975e-40 0)
(1.643848e-12 2.1599661e-44 0)
(1.5235717e-12 -1.4075779e-41 -5.06647e-29)
(1.4476864e-12 7.1998869e-45 7.1998869e-45)
(1.178052e-12 -2.533235e-28 -5.06647e-28)
(1.1797208e-12 0 -2.026588e-28)