/*--------------------------------*- C++ -*----------------------------------*\
  =========                 |
  \\      /  F ield         | OpenFOAM: The Open Source CFD Toolbox
   \\    /   O peration     | Website:  https://openfoam.org
    \\  /    A nd           | Version:  7
     \\/     M anipulation  |
\*---------------------------------------------------------------------------*/
FoamFile
{
    version     2.0;
    format      ascii;
    class       surfaceScalarField;
    location    "0.002";
    object      phi;
}
// * * * * * * * * * * * * * * * * * * * * * * * * * * * * * * * * * * * * * //

dimensions      [1 0 -1 0 0 0 0];

internalField   nonuniform List<scalar> 
4999
(
-2.4418864
-2.4409337
-2.4399811
-2.4390284
-2.4380758
-2.4371231
-2.4361705
-2.4352178
-2.4342652
-2.4333125
-2.4323599
-2.4314072
-2.4304546
-2.4295019
-2.4285492
-2.4275966
-2.426644
-2.4256913
-2.4247387
-2.423786
-2.4228334
-2.4218808
-2.4209281
-2.4199755
-2.4190229
-2.4180702
-2.4171176
-2.416165
-2.4152123
-2.4142597
-2.4133071
-2.4123545
-2.4114019
-2.4104492
-2.4094966
-2.408544
-2.4075915
-2.4066389
-2.4056863
-2.4047338
-2.4037813
-2.4028288
-2.4018763
-2.400924
-2.3999717
-2.3990195
-2.3980674
-2.3971154
-2.3961635
-2.3952116
-2.3942597
-2.3933077
-2.3923555
-2.3914033
-2.3904508
-2.3894981
-2.3885452
-2.387592
-2.3866385
-2.3856849
-2.3847311
-2.3837771
-2.3828231
-2.3818689
-2.3809147
-2.3799604
-2.3790061
-2.3780518
-2.3770974
-2.376143
-2.3751887
-2.3742343
-2.3732799
-2.3723256
-2.3713711
-2.3704167
-2.3694624
-2.3685079
-2.3675536
-2.3665992
-2.3656447
-2.3646904
-2.3637359
-2.3627815
-2.3618273
-2.3608726
-2.3599184
-2.3589639
-2.3580095
-2.3570553
-2.3561005
-2.3551465
-2.3541918
-2.3532374
-2.3522833
-2.3513282
-2.3503748
-2.3494191
-2.3484661
-2.3475102
-2.3465573
-2.3456014
-2.3446482
-2.3436928
-2.3427391
-2.3417841
-2.3408301
-2.3398754
-2.3389211
-2.3379666
-2.3370121
-2.3360577
-2.3351032
-2.3341488
-2.3331943
-2.3322399
-2.3312855
-2.330331
-2.3293766
-2.3284221
-2.3274676
-2.3265132
-2.3255587
-2.3246043
-2.3236498
-2.3226953
-2.3217409
-2.3207864
-2.3198319
-2.3188774
-2.317923
-2.3169685
-2.316014
-2.3150595
-2.314105
-2.3131505
-2.3121961
-2.3112416
-2.3102871
-2.3093326
-2.3083781
-2.3074236
-2.3064691
-2.3055146
-2.3045601
-2.3036056
-2.3026511
-2.3016966
-2.300742
-2.2997876
-2.298833
-2.2978785
-2.296924
-2.2959695
-2.2950149
-2.2940605
-2.2931059
-2.2921514
-2.2911968
-2.2902423
-2.2892878
-2.2883333
-2.2873787
-2.2864242
-2.2854696
-2.2845151
-2.2835605
-2.282606
-2.2816514
-2.2806969
-2.2797423
-2.2787878
-2.2778332
-2.2768787
-2.2759241
-2.2749696
-2.274015
-2.2730605
-2.2721059
-2.2711514
-2.2701969
-2.2692424
-2.268288
-2.2673335
-2.2663791
-2.2654247
-2.2644704
-2.263516
-2.2625617
-2.2616074
-2.2606532
-2.2596989
-2.2587447
-2.2577904
-2.2568362
-2.2558819
-2.2549276
-2.2539732
-2.2530189
-2.2520644
-2.2511099
-2.2501553
-2.2492006
-2.2482458
-2.2472909
-2.246336
-2.2453809
-2.2444257
-2.2434704
-2.242515
-2.2415595
-2.2406039
-2.2396483
-2.2386925
-2.2377366
-2.2367807
-2.2358247
-2.2348687
-2.2339126
-2.2329565
-2.2320003
-2.2310441
-2.2300878
-2.2291315
-2.2281752
-2.2272189
-2.2262626
-2.2253062
-2.2243498
-2.2233935
-2.2224371
-2.2214807
-2.2205243
-2.2195679
-2.2186114
-2.217655
-2.2166986
-2.2157421
-2.2147857
-2.2138293
-2.2128728
-2.2119164
-2.2109599
-2.2100035
-2.209047
-2.2080905
-2.2071341
-2.2061776
-2.2052211
-2.2042646
-2.2033082
-2.2023517
-2.2013952
-2.2004387
-2.1994822
-2.1985257
-2.1975692
-2.1966127
-2.1956561
-2.1946996
-2.1937431
-2.1927866
-2.1918301
-2.1908735
-2.189917
-2.1889604
-2.1880039
-2.1870473
-2.1860908
-2.1851342
-2.1841777
-2.1832211
-2.1822645
-2.181308
-2.1803514
-2.1793948
-2.1784382
-2.1774816
-2.176525
-2.1755684
-2.1746118
-2.1736552
-2.1726986
-2.171742
-2.1707854
-2.1698287
-2.1688721
-2.1679155
-2.1669588
-2.1660022
-2.1650455
-2.1640889
-2.1631322
-2.1621756
-2.1612189
-2.1602623
-2.1593056
-2.1583489
-2.1573922
-2.1564356
-2.1554789
-2.1545222
-2.1535655
-2.1526088
-2.1516521
-2.1506954
-2.1497387
-2.148782
-2.1478253
-2.1468686
-2.1459119
-2.1449552
-2.1439985
-2.1430418
-2.1420851
-2.1411284
-2.1401717
-2.139215
-2.1382584
-2.1373017
-2.136345
-2.1353883
-2.1344317
-2.133475
-2.1325183
-2.1315616
-2.130605
-2.1296483
-2.1286917
-2.127735
-2.1267783
-2.1258216
-2.1248649
-2.1239082
-2.1229515
-2.1219947
-2.1210379
-2.1200811
-2.1191242
-2.1181673
-2.1172104
-2.1162534
-2.1152964
-2.1143393
-2.1133821
-2.1124249
-2.1114677
-2.1105103
-2.1095529
-2.1085954
-2.1076379
-2.1066803
-2.1057226
-2.1047648
-2.103807
-2.1028491
-2.1018912
-2.1009332
-2.0999751
-2.0990169
-2.0980588
-2.0971005
-2.0961422
-2.0951839
-2.0942255
-2.0932671
-2.0923086
-2.0913501
-2.0903916
-2.089433
-2.0884745
-2.0875158
-2.0865572
-2.0855985
-2.0846399
-2.0836812
-2.0827224
-2.0817637
-2.080805
-2.0798462
-2.0788874
-2.0779286
-2.0769698
-2.076011
-2.0750522
-2.0740934
-2.0731345
-2.0721757
-2.0712168
-2.070258
-2.0692991
-2.0683402
-2.0673813
-2.0664224
-2.0654635
-2.0645046
-2.0635456
-2.0625867
-2.0616277
-2.0606688
-2.0597098
-2.0587508
-2.0577919
-2.0568329
-2.0558739
-2.0549149
-2.0539559
-2.0529968
-2.0520378
-2.0510788
-2.0501197
-2.0491606
-2.0482016
-2.0472425
-2.0462834
-2.0453243
-2.0443652
-2.0434061
-2.0424469
-2.0414878
-2.0405287
-2.0395695
-2.0386103
-2.0376512
-2.036692
-2.0357328
-2.0347736
-2.0338144
-2.0328551
-2.0318959
-2.0309367
-2.0299774
-2.0290181
-2.0280589
-2.0270996
-2.0261403
-2.025181
-2.0242216
-2.0232623
-2.022303
-2.0213436
-2.0203842
-2.0194249
-2.0184655
-2.0175061
-2.0165467
-2.0155873
-2.0146278
-2.0136684
-2.0127089
-2.0117495
-2.01079
-2.0098305
-2.008871
-2.0079115
-2.006952
-2.0059924
-2.0050329
-2.0040733
-2.0031137
-2.0021542
-2.0011946
-2.000235
-1.9992754
-1.9983157
-1.9973561
-1.9963965
-1.9954368
-1.9944772
-1.9935175
-1.9925578
-1.9915981
-1.9906384
-1.9896787
-1.988719
-1.9877593
-1.9867996
-1.9858398
-1.9848801
-1.9839203
-1.9829606
-1.9820008
-1.981041
-1.9800812
-1.9791214
-1.9781616
-1.9772018
-1.9762419
-1.975282
-1.9743221
-1.9733622
-1.9724023
-1.9714423
-1.9704823
-1.9695223
-1.9685622
-1.9676021
-1.9666419
-1.9656818
-1.9647215
-1.9637612
-1.9628009
-1.9618405
-1.9608801
-1.9599196
-1.9589591
-1.9579985
-1.9570379
-1.9560772
-1.9551165
-1.9541557
-1.9531948
-1.9522339
-1.9512729
-1.9503119
-1.9493509
-1.9483898
-1.9474286
-1.9464674
-1.9455062
-1.9445449
-1.9435836
-1.9426223
-1.941661
-1.9406996
-1.9397382
-1.9387768
-1.9378154
-1.9368539
-1.9358925
-1.9349311
-1.9339697
-1.9330083
-1.9320469
-1.9310855
-1.9301242
-1.9291629
-1.9282016
-1.9272403
-1.9262791
-1.925318
-1.9243569
-1.9233958
-1.9224348
-1.9214739
-1.920513
-1.9195522
-1.9185915
-1.9176309
-1.9166704
-1.9157099
-1.9147496
-1.9137893
-1.9128292
-1.9118692
-1.9109093
-1.9099495
-1.9089898
-1.9080303
-1.9070709
-1.9061116
-1.9051525
-1.9041936
-1.9032348
-1.9022762
-1.9013177
-1.9003594
-1.8994013
-1.8984434
-1.8974857
-1.8965282
-1.8955709
-1.8946138
-1.8936569
-1.8927002
-1.8917438
-1.8907875
-1.8898316
-1.8888759
-1.8879204
-1.8869652
-1.8860102
-1.8850556
-1.8841012
-1.8831471
-1.8821933
-1.8812397
-1.8802865
-1.8793336
-1.878381
-1.8774288
-1.8764768
-1.8755252
-1.874574
-1.8736231
-1.8726725
-1.8717223
-1.8707725
-1.869823
-1.868874
-1.8679253
-1.866977
-1.8660291
-1.8650816
-1.8641345
-1.8631878
-1.8622415
-1.8612957
-1.8603503
-1.8594053
-1.8584608
-1.8575167
-1.8565731
-1.85563
-1.8546873
-1.853745
-1.8528033
-1.851862
-1.8509212
-1.8499809
-1.8490411
-1.8481018
-1.847163
-1.8462247
-1.8452869
-1.8443497
-1.8434129
-1.8424767
-1.841541
-1.8406059
-1.8396713
-1.8387372
-1.8378037
-1.8368707
-1.8359383
-1.8350064
-1.8340751
-1.8331444
-1.8322143
-1.8312847
-1.8303557
-1.8294273
-1.8284994
-1.8275722
-1.8266455
-1.8257194
-1.824794
-1.8238691
-1.8229448
-1.8220212
-1.8210981
-1.8201757
-1.8192538
-1.8183326
-1.817412
-1.816492
-1.8155726
-1.8146538
-1.8137356
-1.8128181
-1.8119011
-1.8109848
-1.8100691
-1.8091539
-1.8082394
-1.8073256
-1.8064123
-1.8054996
-1.8045875
-1.8036761
-1.8027652
-1.8018549
-1.8009452
-1.8000361
-1.7991276
-1.7982197
-1.7973123
-1.7964055
-1.7954993
-1.7945937
-1.7936886
-1.7927841
-1.7918802
-1.7909768
-1.7900739
-1.7891716
-1.7882698
-1.7873685
-1.7864678
-1.7855676
-1.7846679
-1.7837687
-1.7828701
-1.7819719
-1.7810742
-1.7801771
-1.7792804
-1.7783842
-1.7774884
-1.7765932
-1.7756984
-1.7748041
-1.7739102
-1.7730167
-1.7721238
-1.7712312
-1.7703391
-1.7694474
-1.7685562
-1.7676653
-1.7667749
-1.7658849
-1.7649953
-1.7641061
-1.7632173
-1.7623288
-1.7614408
-1.7605531
-1.7596658
-1.7587788
-1.7578922
-1.757006
-1.7561201
-1.7552346
-1.7543493
-1.7534645
-1.7525799
-1.7516957
-1.7508118
-1.7499282
-1.7490449
-1.7481619
-1.7472791
-1.7463967
-1.7455146
-1.7446327
-1.7437511
-1.7428697
-1.7419887
-1.7411078
-1.7402273
-1.7393469
-1.7384668
-1.7375869
-1.7367073
-1.7358278
-1.7349486
-1.7340696
-1.7331908
-1.7323121
-1.7314337
-1.7305554
-1.7296773
-1.7287994
-1.7279217
-1.7270441
-1.7261667
-1.7252894
-1.7244122
-1.7235352
-1.7226583
-1.7217816
-1.7209049
-1.7200284
-1.719152
-1.7182756
-1.7173994
-1.7165233
-1.7156472
-1.7147712
-1.7138953
-1.7130195
-1.7121437
-1.711268
-1.7103923
-1.7095167
-1.7086411
-1.7077655
-1.70689
-1.7060145
-1.705139
-1.7042635
-1.7033881
-1.7025126
-1.7016372
-1.7007617
-1.6998863
-1.6990108
-1.6981353
-1.6972597
-1.6963842
-1.6955086
-1.694633
-1.6937573
-1.6928815
-1.6920058
-1.6911299
-1.690254
-1.689378
-1.688502
-1.6876258
-1.6867496
-1.6858733
-1.6849969
-1.6841203
-1.6832437
-1.6823669
-1.68149
-1.680613
-1.6797358
-1.6788585
-1.677981
-1.6771034
-1.6762256
-1.6753476
-1.6744694
-1.673591
-1.6727125
-1.6718336
-1.6709546
-1.6700753
-1.6691958
-1.6683161
-1.667436
-1.6665557
-1.6656751
-1.6647942
-1.663913
-1.6630314
-1.6621496
-1.6612674
-1.6603848
-1.6595019
-1.6586186
-1.6577349
-1.6568508
-1.6559663
-1.6550813
-1.654196
-1.6533101
-1.6524239
-1.6515371
-1.6506499
-1.6497622
-1.648874
-1.6479852
-1.647096
-1.6462062
-1.6453158
-1.6444249
-1.6435334
-1.6426413
-1.6417487
-1.6408554
-1.6399615
-1.639067
-1.6381719
-1.6372761
-1.6363797
-1.6354826
-1.6345848
-1.6336864
-1.6327872
-1.6318874
-1.6309868
-1.6300855
-1.6291835
-1.6282808
-1.6273773
-1.626473
-1.625568
-1.6246622
-1.6237557
-1.6228483
-1.6219402
-1.6210312
-1.6201215
-1.6192109
-1.6182995
-1.6173873
-1.6164743
-1.6155604
-1.6146456
-1.6137301
-1.6128136
-1.6118963
-1.6109781
-1.610059
-1.6091391
-1.6082182
-1.6072965
-1.6063739
-1.6054504
-1.6045259
-1.6036006
-1.6026743
-1.6017472
-1.6008191
-1.5998901
-1.5989601
-1.5980292
-1.5970974
-1.5961646
-1.5952309
-1.5942963
-1.5933607
-1.5924242
-1.5914867
-1.5905482
-1.5896088
-1.5886684
-1.5877271
-1.5867848
-1.5858416
-1.5848974
-1.5839522
-1.5830061
-1.582059
-1.5811109
-1.5801619
-1.5792119
-1.5782609
-1.577309
-1.5763561
-1.5754023
-1.5744475
-1.5734917
-1.572535
-1.5715773
-1.5706187
-1.5696591
-1.5686985
-1.5677371
-1.5667746
-1.5658113
-1.564847
-1.5638817
-1.5629156
-1.5619485
-1.5609805
-1.5600116
-1.5590417
-1.558071
-1.5570994
-1.5561268
-1.5551534
-1.5541791
-1.553204
-1.5522279
-1.551251
-1.5502733
-1.5492947
-1.5483152
-1.547335
-1.5463539
-1.545372
-1.5443893
-1.5434058
-1.5424215
-1.5414364
-1.5404505
-1.5394639
-1.5384765
-1.5374884
-1.5364996
-1.53551
-1.5345197
-1.5335287
-1.532537
-1.5315446
-1.5305516
-1.5295578
-1.5285634
-1.5275684
-1.5265727
-1.5255764
-1.5245795
-1.523582
-1.5225838
-1.5215851
-1.5205858
-1.5195859
-1.5185855
-1.5175845
-1.5165829
-1.5155808
-1.5145782
-1.5135751
-1.5125715
-1.5115673
-1.5105627
-1.5095576
-1.508552
-1.507546
-1.5065395
-1.5055326
-1.5045252
-1.5035173
-1.5025091
-1.5015004
-1.5004914
-1.4994819
-1.498472
-1.4974618
-1.4964511
-1.4954401
-1.4944288
-1.493417
-1.4924049
-1.4913925
-1.4903798
-1.4893667
-1.4883533
-1.4873396
-1.4863255
-1.4853112
-1.4842966
-1.4832816
-1.4822664
-1.481251
-1.4802352
-1.4792192
-1.4782029
-1.4771864
-1.4761696
-1.4751526
-1.4741354
-1.4731179
-1.4721002
-1.4710823
-1.4700642
-1.4690459
-1.4680274
-1.4670087
-1.4659898
-1.4649707
-1.4639514
-1.462932
-1.4619124
-1.4608926
-1.4598726
-1.4588525
-1.4578323
-1.4568119
-1.4557913
-1.4547706
-1.4537498
-1.4527288
-1.4517077
-1.4506865
-1.4496651
-1.4486436
-1.447622
-1.4466003
-1.4455785
-1.4445565
-1.4435345
-1.4425123
-1.44149
-1.4404676
-1.4394451
-1.4384225
-1.4373998
-1.436377
-1.4353541
-1.4343311
-1.433308
-1.4322848
-1.4312615
-1.4302381
-1.4292147
-1.4281911
-1.4271674
-1.4261437
-1.4251199
-1.424096
-1.423072
-1.4220479
-1.4210237
-1.4199995
-1.4189751
-1.4179507
-1.4169262
-1.4159017
-1.414877
-1.4138523
-1.4128275
-1.4118026
-1.4107777
-1.4097527
-1.4087276
-1.4077024
-1.4066772
-1.4056519
-1.4046265
-1.4036011
-1.4025756
-1.40155
-1.4005244
-1.3994987
-1.3984729
-1.3974471
-1.3964212
-1.3953953
-1.3943693
-1.3933432
-1.3923171
-1.3912909
-1.3902647
-1.3892384
-1.3882121
-1.3871857
-1.3861592
-1.3851327
-1.3841061
-1.3830795
-1.3820528
-1.3810261
-1.3799993
-1.3789725
-1.3779456
-1.3769186
-1.3758916
-1.3748645
-1.3738374
-1.3728102
-1.371783
-1.3707557
-1.3697284
-1.368701
-1.3676735
-1.366646
-1.3656184
-1.3645908
-1.3635631
-1.3625353
-1.3615075
-1.3604797
-1.3594517
-1.3584237
-1.3573957
-1.3563676
-1.3553394
-1.3543112
-1.3532829
-1.3522546
-1.3512262
-1.3501978
-1.3491693
-1.3481407
-1.3471121
-1.3460834
-1.3450547
-1.3440259
-1.342997
-1.3419681
-1.3409392
-1.3399102
-1.3388812
-1.3378521
-1.3368229
-1.3357937
-1.3347645
-1.3337352
-1.3327058
-1.3316765
-1.330647
-1.3296176
-1.328588
-1.3275585
-1.3265289
-1.3254993
-1.3244696
-1.3234399
-1.3224101
-1.3213803
-1.3203505
-1.3193206
-1.3182908
-1.3172608
-1.3162309
-1.3152009
-1.3141708
-1.3131407
-1.3121106
-1.3110805
-1.3100503
-1.3090201
-1.3079899
-1.3069596
-1.3059293
-1.3048989
-1.3038686
-1.3028381
-1.3018077
-1.3007772
-1.2997467
-1.2987161
-1.2976855
-1.2966548
-1.2956241
-1.2945934
-1.2935626
-1.2925318
-1.2915009
-1.29047
-1.2894391
-1.2884081
-1.287377
-1.2863459
-1.2853148
-1.2842836
-1.2832523
-1.282221
-1.2811897
-1.2801583
-1.2791268
-1.2780953
-1.2770637
-1.2760321
-1.2750004
-1.2739686
-1.2729368
-1.271905
-1.270873
-1.2698411
-1.268809
-1.2677769
-1.2667448
-1.2657125
-1.2646803
-1.2636479
-1.2626155
-1.261583
-1.2605505
-1.2595179
-1.2584853
-1.2574526
-1.2564198
-1.255387
-1.2543542
-1.2533212
-1.2522882
-1.2512552
-1.2502221
-1.2491889
-1.2481557
-1.2471224
-1.2460891
-1.2450557
-1.2440223
-1.2429888
-1.2419552
-1.2409216
-1.2398879
-1.2388542
-1.2378205
-1.2367866
-1.2357528
-1.2347188
-1.2336848
-1.2326508
-1.2316167
-1.2305826
-1.2295484
-1.2285141
-1.2274798
-1.2264454
-1.225411
-1.2243765
-1.223342
-1.2223074
-1.2212728
-1.2202381
-1.2192033
-1.2181685
-1.2171336
-1.2160987
-1.2150637
-1.2140287
-1.2129936
-1.2119584
-1.2109232
-1.2098879
-1.2088526
-1.2078172
-1.2067817
-1.2057462
-1.2047106
-1.203675
-1.2026393
-1.2016035
-1.2005677
-1.1995318
-1.1984959
-1.1974598
-1.1964238
-1.1953876
-1.1943514
-1.1933152
-1.1922788
-1.1912425
-1.190206
-1.1891695
-1.1881329
-1.1870963
-1.1860596
-1.1850228
-1.183986
-1.1829491
-1.1819122
-1.1808751
-1.1798381
-1.1788009
-1.1777637
-1.1767265
-1.1756892
-1.1746518
-1.1736144
-1.1725769
-1.1715393
-1.1705017
-1.169464
-1.1684263
-1.1673885
-1.1663506
-1.1653127
-1.1642747
-1.1632367
-1.1621986
-1.1611604
-1.1601222
-1.159084
-1.1580456
-1.1570072
-1.1559688
-1.1549302
-1.1538917
-1.152853
-1.1518143
-1.1507756
-1.1497367
-1.1486979
-1.1476589
-1.1466199
-1.1455808
-1.1445417
-1.1435025
-1.1424632
-1.1414239
-1.1403845
-1.1393451
-1.1383056
-1.137266
-1.1362264
-1.1351867
-1.1341469
-1.1331071
-1.1320672
-1.1310272
-1.1299872
-1.1289471
-1.1279069
-1.1268667
-1.1258265
-1.1247861
-1.1237457
-1.1227052
-1.1216647
-1.1206241
-1.1195835
-1.1185428
-1.117502
-1.1164612
-1.1154203
-1.1143793
-1.1133383
-1.1122973
-1.1112561
-1.110215
-1.1091737
-1.1081325
-1.1070911
-1.1060497
-1.1050083
-1.1039668
-1.1029252
-1.1018836
-1.1008419
-1.0998002
-1.0987584
-1.0977166
-1.0966747
-1.0956328
-1.0945909
-1.0935488
-1.0925068
-1.0914647
-1.0904225
-1.0893803
-1.088338
-1.0872957
-1.0862533
-1.0852109
-1.0841684
-1.0831259
-1.0820833
-1.0810407
-1.079998
-1.0789552
-1.0779125
-1.0768696
-1.0758267
-1.0747837
-1.0737407
-1.0726976
-1.0716545
-1.0706113
-1.069568
-1.0685247
-1.0674813
-1.0664378
-1.0653943
-1.0643507
-1.063307
-1.0622632
-1.0612194
-1.0601755
-1.0591315
-1.0580874
-1.0570432
-1.055999
-1.0549546
-1.0539102
-1.0528657
-1.051821
-1.0507763
-1.0497315
-1.0486865
-1.0476415
-1.0465963
-1.0455511
-1.0445057
-1.0434602
-1.0424146
-1.0413688
-1.040323
-1.039277
-1.0382308
-1.0371845
-1.0361381
-1.0350915
-1.0340448
-1.0329979
-1.0319509
-1.0309037
-1.0298563
-1.0288088
-1.0277611
-1.0267132
-1.0256651
-1.0246169
-1.0235684
-1.0225198
-1.0214709
-1.0204218
-1.0193725
-1.018323
-1.0172733
-1.0162233
-1.0151731
-1.0141226
-1.0130719
-1.012021
-1.0109697
-1.0099182
-1.0088664
-1.0078143
-1.0067619
-1.0057092
-1.0046562
-1.0036029
-1.0025492
-1.0014952
-1.0004408
-0.9993861
-0.998331
-0.99727552
-0.99621964
-0.99516336
-0.99410666
-0.99304954
-0.99199197
-0.99093396
-0.98987548
-0.98881653
-0.98775709
-0.98669714
-0.98563668
-0.98457569
-0.98351415
-0.98245206
-0.98138939
-0.98032613
-0.97926227
-0.97819778
-0.97713266
-0.97606688
-0.97500044
-0.9739333
-0.97286546
-0.97179689
-0.97072758
-0.96965751
-0.96858666
-0.96751501
-0.96644254
-0.96536923
-0.96429506
-0.96322001
-0.96214405
-0.96106717
-0.95998934
-0.95891055
-0.95783076
-0.95674996
-0.95566812
-0.95458522
-0.95350123
-0.95241613
-0.9513299
-0.9502425
-0.94915391
-0.94806412
-0.94697308
-0.94588077
-0.94478718
-0.94369226
-0.94259598
-0.94149833
-0.94039928
-0.93929878
-0.93819682
-0.93709336
-0.93598838
-0.93488184
-0.93377371
-0.93266396
-0.93155255
-0.93043946
-0.92932466
-0.9282081
-0.92708975
-0.92596959
-0.92484758
-0.92372368
-0.92259786
-0.92147008
-0.92034031
-0.91920851
-0.91807465
-0.91693869
-0.91580059
-0.91466031
-0.91351782
-0.91237309
-0.91122606
-0.91007671
-0.908925
-0.90777088
-0.90661432
-0.90545529
-0.90429373
-0.90312961
-0.9019629
-0.90079354
-0.89962151
-0.89844676
-0.89726925
-0.89608894
-0.89490579
-0.89371976
-0.89253081
-0.8913389
-0.89014398
-0.88894603
-0.88774498
-0.88654082
-0.88533349
-0.88412295
-0.88290917
-0.88169209
-0.88047169
-0.87924792
-0.87802074
-0.87679012
-0.87555601
-0.87431836
-0.87307715
-0.87183233
-0.87058386
-0.86933171
-0.86807584
-0.86681621
-0.86555277
-0.8642855
-0.86301435
-0.8617393
-0.86046029
-0.8591773
-0.85789029
-0.85659922
-0.85530407
-0.85400479
-0.85270135
-0.85139372
-0.85008187
-0.84876576
-0.84744537
-0.84612066
-0.8447916
-0.84345817
-0.84212033
-0.84077805
-0.8394313
-0.83808007
-0.83672431
-0.83536402
-0.83399916
-0.83262971
-0.83125565
-0.82987695
-0.82849358
-0.82710554
-0.82571279
-0.82431532
-0.82291312
-0.82150616
-0.82009442
-0.8186779
-0.81725657
-0.81583043
-0.81439944
-0.81296361
-0.81152291
-0.81007734
-0.80862688
-0.80717154
-0.80571129
-0.80424614
-0.80277608
-0.8013011
-0.79982119
-0.79833635
-0.79684658
-0.79535188
-0.79385224
-0.79234767
-0.79083816
-0.78932372
-0.78780435
-0.78628004
-0.78475081
-0.78321665
-0.78167758
-0.7801336
-0.77858472
-0.77703094
-0.77547228
-0.77390874
-0.77234034
-0.77076708
-0.76918898
-0.76760605
-0.76601831
-0.76442576
-0.76282843
-0.76122634
-0.75961949
-0.7580079
-0.7563916
-0.75477059
-0.75314491
-0.75151457
-0.74987959
-0.74823999
-0.7465958
-0.74494704
-0.74329373
-0.7416359
-0.73997357
-0.73830677
-0.73663552
-0.73495984
-0.73327977
-0.73159533
-0.72990654
-0.72821344
-0.72651606
-0.72481442
-0.72310855
-0.72139849
-0.71968427
-0.71796591
-0.71624346
-0.71451693
-0.71278637
-0.7110518
-0.70931326
-0.70757077
-0.70582438
-0.70407411
-0.70232001
-0.7005621
-0.69880042
-0.697035
-0.69526588
-0.6934931
-0.69171668
-0.68993667
-0.68815311
-0.68636602
-0.68457544
-0.68278141
-0.68098397
-0.67918315
-0.67737899
-0.67557152
-0.67376078
-0.67194681
-0.67012964
-0.66830931
-0.66648587
-0.66465934
-0.66282976
-0.66099717
-0.65916161
-0.65732311
-0.65548171
-0.65363744
-0.65179035
-0.64994046
-0.64808782
-0.64623246
-0.64437442
-0.64251373
-0.64065043
-0.63878456
-0.63691616
-0.63504524
-0.63317187
-0.63129605
-0.62941784
-0.62753726
-0.62565436
-0.62376916
-0.62188171
-0.61999203
-0.61810016
-0.61620614
-0.61430999
-0.61241175
-0.61051145
-0.60860913
-0.60670481
-0.60479854
-0.60289033
-0.60098022
-0.59906825
-0.59715445
-0.59523884
-0.59332146
-0.59140233
-0.5894815
-0.58755897
-0.5856348
-0.583709
-0.5817816
-0.57985264
-0.57792213
-0.57599012
-0.57405662
-0.57212166
-0.57018526
-0.56824747
-0.56630829
-0.56436776
-0.5624259
-0.56048275
-0.55853831
-0.55659262
-0.5546457
-0.55269758
-0.55074827
-0.54879781
-0.54684621
-0.5448935
-0.5429397
-0.54098483
-0.53902891
-0.53707196
-0.53511402
-0.53315508
-0.53119519
-0.52923435
-0.52727259
-0.52530992
-0.52334637
-0.52138196
-0.5194167
-0.51745061
-0.51548371
-0.51351601
-0.51154755
-0.50957832
-0.50760836
-0.50563767
-0.50366627
-0.50169419
-0.49972143
-0.49774801
-0.49577395
-0.49379926
-0.49182396
-0.48984805
-0.48787157
-0.48589451
-0.48391689
-0.48193873
-0.47996004
-0.47798084
-0.47600113
-0.47402093
-0.47204025
-0.4700591
-0.4680775
-0.46609546
-0.46411299
-0.4621301
-0.4601468
-0.4581631
-0.45617902
-0.45419456
-0.45220974
-0.45022457
-0.44823905
-0.4462532
-0.44426702
-0.44228053
-0.44029373
-0.43830664
-0.43631926
-0.4343316
-0.43234367
-0.43035548
-0.42836704
-0.42637835
-0.42438942
-0.42240027
-0.42041089
-0.4184213
-0.41643149
-0.41444149
-0.4124513
-0.41046092
-0.40847036
-0.40647963
-0.40448873
-0.40249767
-0.40050645
-0.39851509
-0.39652358
-0.39453193
-0.39254015
-0.39054825
-0.38855622
-0.38656408
-0.38457183
-0.38257946
-0.380587
-0.37859444
-0.37660179
-0.37460904
-0.37261622
-0.37062331
-0.36863032
-0.36663727
-0.36464414
-0.36265096
-0.36065771
-0.3586644
-0.35667103
-0.35467761
-0.35268415
-0.35069063
-0.34869708
-0.34670348
-0.34470984
-0.34271616
-0.34072245
-0.33872871
-0.33673494
-0.33474115
-0.33274732
-0.33075348
-0.32875961
-0.32676572
-0.32477182
-0.3227779
-0.32078396
-0.31879001
-0.31679605
-0.31480208
-0.3128081
-0.31081411
-0.30882011
-0.3068261
-0.30483209
-0.30283807
-0.30084405
-0.29885003
-0.29685601
-0.29486198
-0.29286796
-0.29087393
-0.2888799
-0.28688588
-0.28489185
-0.28289782
-0.2809038
-0.27890977
-0.27691574
-0.27492172
-0.27292769
-0.27093366
-0.26893963
-0.26694559
-0.26495156
-0.26295752
-0.26096349
-0.25896944
-0.2569754
-0.25498135
-0.2529873
-0.25099324
-0.24899918
-0.24700511
-0.24501104
-0.24301695
-0.24102286
-0.23902876
-0.23703465
-0.23504053
-0.2330464
-0.23105226
-0.2290581
-0.22706393
-0.22506974
-0.22307554
-0.22108133
-0.21908709
-0.21709284
-0.21509857
-0.21310428
-0.21110997
-0.20911564
-0.20712129
-0.20512691
-0.2031325
-0.20113807
-0.19914361
-0.19714912
-0.19515461
-0.19316006
-0.19116547
-0.18917086
-0.18717621
-0.18518153
-0.18318682
-0.18119207
-0.17919729
-0.17720247
-0.17520762
-0.17321273
-0.1712178
-0.16922283
-0.16722782
-0.16523277
-0.16323767
-0.16124253
-0.15924734
-0.15725211
-0.15525683
-0.15326151
-0.15126614
-0.14927072
-0.14727525
-0.14527975
-0.14328419
-0.14128859
-0.13929295
-0.13729726
-0.13530153
-0.13330575
-0.13130992
-0.12931404
-0.12731811
-0.12532213
-0.1233261
-0.12133001
-0.11933387
-0.11733768
-0.11534143
-0.11334514
-0.1113488
-0.1093524
-0.10735597
-0.10535949
-0.10336296
-0.1013664
-0.099369792
-0.097373145
-0.095376455
-0.093379721
-0.091382939
-0.089386108
-0.087389226
-0.085392292
-0.083395303
-0.081398261
-0.079401165
-0.077404018
-0.075406823
-0.073409583
-0.071412304
-0.069414993
-0.067417655
-0.065420296
-0.063422922
-0.061425532
-0.059428124
-0.057430694
-0.055433232
-0.053435733
-0.051438188
-0.049440594
-0.047442952
-0.045445264
-0.043447532
-0.04144976
-0.039451947
-0.037454095
-0.035456205
-0.033458281
-0.031460332
-0.029462373
-0.02746442
-0.02546649
-0.023468585
-0.02147069
-0.019472779
-0.017474822
-0.015476809
-0.013478749
-0.011480663
-0.0094825605
-0.007484442
-0.0054863079
-0.0034881591
-0.0014899956
0.00050818434
0.0025063473
0.004504521
0.0065027056
0.0085008997
0.010499103
0.012497323
0.014495578
0.016493876
0.018492205
0.020490536
0.022488838
0.024487097
0.026485314
0.028483501
0.030481676
0.03247985
0.034478033
0.036476229
0.038474439
0.040472664
0.042470906
0.044469164
0.046467437
0.048465718
0.050464001
0.052462276
0.054460534
0.056458768
0.058456975
0.060455156
0.062453313
0.064451451
0.066449578
0.068447697
0.070445815
0.072443934
0.074442057
0.076440183
0.078438313
0.080436443
0.082434572
0.084432696
0.086430814
0.088428922
0.09042702
0.092425106
0.094423181
0.096421246
0.098419302
0.10041735
0.1024154
0.10441344
0.10641148
0.10840952
0.11040756
0.1124056
0.11440364
0.11640169
0.11839973
0.12039778
0.12239583
0.12439387
0.12639192
0.12838997
0.13038802
0.13238607
0.13438413
0.1363822
0.13838028
0.14037836
0.14237646
0.14437457
0.14637269
0.14837083
0.15036898
0.15236715
0.15436533
0.15636354
0.15836176
0.16036
0.16235826
0.16435654
0.16635484
0.16835317
0.17035152
0.1723499
0.17434831
0.17634675
0.17834522
0.18034372
0.18234225
0.18434082
0.18633942
0.18833806
0.19033674
0.19233545
0.19433421
0.196333
0.19833183
0.20033071
0.20232962
0.20432859
0.20632759
0.20832665
0.21032575
0.2123249
0.2143241
0.21632335
0.21832265
0.22032201
0.22232141
0.22432087
0.22632038
0.22831995
0.23031958
0.23231926
0.23431899
0.23631879
0.23831864
0.24031855
0.24231852
0.24431855
0.24631864
0.24831879
0.250319
0.25231927
0.2543196
0.25632
0.25832045
0.26032096
0.26232154
0.26432217
0.26632286
0.26832362
0.27032443
0.27232531
0.27432625
0.27632724
0.2783283
0.28032942
0.2823306
0.28433184
0.28633314
0.2883345
0.29033592
0.2923374
0.29433894
0.29634053
0.29834219
0.3003439
0.30234567
0.3043475
0.30634938
0.30835132
0.3103533
0.31235535
0.31435744
0.31635959
0.31836179
0.32036404
0.32236633
0.32436868
0.32637107
0.32837351
0.330376
0.33237853
0.33438111
0.33638373
0.33838639
0.34038909
0.34239184
0.34439462
0.34639745
0.34840031
0.35040321
0.35240615
0.35440912
0.35641212
0.35841516
0.36041822
0.36242132
0.36442445
0.36642761
0.3684308
0.37043401
0.37243725
0.37444051
0.3764438
0.37844711
0.38045044
0.38245379
0.38445716
0.38646055
0.38846396
0.39046739
0.39247083
0.39447429
0.39647776
0.39848124
0.40048473
0.40248824
0.40449175
0.40649527
0.4084988
0.41050234
0.41250589
0.41450944
0.41651299
0.41851655
0.42052011
0.42252367
0.42452723
0.42653079
0.42853436
0.43053792
0.43254147
0.43454503
0.43654858
0.43855212
0.44055566
0.44255919
0.44456271
0.44656622
0.44856972
0.45057321
0.45257669
0.45458016
0.45658362
0.45858706
0.46059049
0.4625939
0.4645973
0.46660068
0.46860404
0.47060738
0.4726107
0.47461401
0.47661729
0.47862055
0.48062379
0.48262701
0.4846302
0.48663337
0.48863652
0.49063965
0.49264275
0.49464582
0.49664887
0.49865189
0.50065488
0.50265784
0.50466077
0.50666367
0.50866654
0.51066938
0.51267219
0.51467496
0.5166777
0.51868041
0.52068308
0.52268572
0.52468833
0.5266909
0.52869343
0.53069593
0.5326984
0.53470082
0.53670321
0.53870555
0.54070786
0.54271014
0.54471237
0.54671457
0.54871673
0.55071884
0.55272092
0.55472296
0.55672496
0.55872692
0.56072883
0.5627307
0.56473253
0.56673432
0.56873606
0.57073776
0.57273941
0.57474102
0.57674259
0.57874411
0.58074558
0.58274701
0.58474839
0.58674972
0.588751
0.59075223
0.59275342
0.59475456
0.59675564
0.59875668
0.60075767
0.60275861
0.60475951
0.60676035
0.60876114
0.61076189
0.61276258
0.61476323
0.61676383
0.61876438
0.62076488
0.62276533
0.62476573
0.62676609
0.6287664
0.63076667
0.6327669
0.63476708
0.63676722
0.63876732
0.64076738
0.6427674
0.64476738
0.64676733
0.64876724
0.65076711
0.65276696
0.65476677
0.65676654
0.65876629
0.66076601
0.66276569
0.66476535
0.66676497
0.66876456
0.67076413
0.67276366
0.67476316
0.67676262
0.67876206
0.68076146
0.68276082
0.68476015
0.68675943
0.68875868
0.69075788
0.69275704
0.69475615
0.69675521
0.69875422
0.70075318
0.70275208
0.70475092
0.7067497
0.70874842
0.71074708
0.71274567
0.71474419
0.71674265
0.71874104
0.72073936
0.72273761
0.72473579
0.72673391
0.72873196
0.73072994
0.73272785
0.73472571
0.7367235
0.73872122
0.74071889
0.7427165
0.74471406
0.74671156
0.74870902
0.75070642
0.75270377
0.75470108
0.75669834
0.75869557
0.76069275
0.7626899
0.76468702
0.7666841
0.76868115
0.77067818
0.77267518
0.77467215
0.77666909
0.77866601
0.78066291
0.78265978
0.78465663
0.78665345
0.78865026
0.79064705
0.79264381
0.79464055
0.79663728
0.79863398
0.80063066
0.80262732
0.80462396
0.80662057
0.80861717
0.81061374
0.81261028
0.8146068
0.81660328
0.81859974
0.82059617
0.82259256
0.82458893
0.82658526
0.82858156
0.83057783
0.83257407
0.83457027
0.83656643
0.83856257
0.84055866
0.84255472
0.84455075
0.84654673
0.84854268
0.85053859
0.85253446
0.85453029
0.85652608
0.85852183
0.86051755
0.86251323
0.86450888
0.86650449
0.86850006
0.8704956
0.8724911
0.87448657
0.876482
0.8784774
0.88047276
0.88246808
0.88446338
0.88645863
0.88845386
0.89044905
0.8924442
0.89443933
0.89643442
0.89842948
0.90042451
0.90241951
0.90441447
0.90640941
0.90840432
0.9103992
0.91239404
0.91438886
0.91638365
0.91837841
0.92037313
0.92236783
0.9243625
0.92635714
0.92835175
0.93034633
0.93234088
0.93433541
0.93632991
0.93832438
0.94031883
0.94231325
0.94430764
0.946302
0.94829634
0.95029066
0.95228495
0.95427921
0.95627345
0.95826767
0.96026185
0.96225602
0.96425017
0.96624429
0.96823838
0.97023246
0.97222651
0.97422054
0.97621454
0.97820852
0.98020247
0.98219639
0.98419029
0.98618417
0.98817802
0.99017185
0.99216566
0.99415945
0.99615322
0.99814696
1.0001407
1.0021344
1.0041281
1.0061217
1.0081154
1.010109
1.0121026
1.0140961
1.0160897
1.0180832
1.0200767
1.0220702
1.0240637
1.0260571
1.0280505
1.0300439
1.0320373
1.0340307
1.036024
1.0380173
1.0400106
1.0420039
1.0439971
1.0459904
1.0479836
1.0499768
1.0519699
1.0539631
1.0559562
1.0579494
1.0599425
1.0619355
1.0639286
1.0659217
1.0679147
1.0699077
1.0719007
1.0738937
1.0758866
1.0778796
1.0798725
1.0818654
1.0838583
1.0858511
1.0878439
1.0898367
1.0918295
1.0938223
1.0958151
1.0978078
1.0998005
1.1017932
1.1037859
1.1057786
1.1077712
1.1097639
1.1117566
1.1137492
1.1157418
1.1177344
1.1197269
1.1217194