/*--------------------------------*- C++ -*----------------------------------*\
  =========                 |
  \\      /  F ield         | OpenFOAM: The Open Source CFD Toolbox
   \\    /   O peration     | Website:  https://openfoam.org
    \\  /    A nd           | Version:  7
     \\/     M anipulation  |
\*---------------------------------------------------------------------------*/
FoamFile
{
    version     2.0;
    format      ascii;
    class       volScalarField;
    location    "0.002";
    object      Ux;
}
// * * * * * * * * * * * * * * * * * * * * * * * * * * * * * * * * * * * * * //

dimensions      [0 1 -1 0 0 0 0];

internalField   nonuniform List<scalar> 
5000
(
-58.474222
-58.424576
-58.400388
-58.372464
-58.345487
-58.318146
-58.290852
-58.263392
-58.235941
-58.208384
-58.180832
-58.153215
-58.1256
-58.097944
-58.070288
-58.042607
-58.014927
-57.98723
-57.959533
-57.931833
-57.904128
-57.876425
-57.848721
-57.821019
-57.793318
-57.76562
-57.737924
-57.710233
-57.682545
-57.654861
-57.627181
-57.599507
-57.571837
-57.544172
-57.516513
-57.48886
-57.461211
-57.433569
-57.405932
-57.378302
-57.350677
-57.323058
-57.295446
-57.267841
-57.240243
-57.212653
-57.185071
-57.157497
-57.129929
-57.102369
-57.074813
-57.047263
-57.019713
-56.992167
-56.964619
-56.937073
-56.909523
-56.881973
-56.85442
-56.826867
-56.799312
-56.771759
-56.744207
-56.716658
-56.689111
-56.661569
-56.63403
-56.606496
-56.578966
-56.551442
-56.523922
-56.496408
-56.468898
-56.441394
-56.413895
-56.386402
-56.358913
-56.331431
-56.303952
-56.27648
-56.249012
-56.221549
-56.194091
-56.166639
-56.139192
-56.11175
-56.084313
-56.056882
-56.029455
-56.002035
-55.974619
-55.947209
-55.919804
-55.892404
-55.865009
-55.837619
-55.810233
-55.782853
-55.755477
-55.728107
-55.700742
-55.673383
-55.646029
-55.618681
-55.591338
-55.564001
-55.536668
-55.509341
-55.482019
-55.454702
-55.42739
-55.400083
-55.372782
-55.345485
-55.318193
-55.290907
-55.263626
-55.23635
-55.209079
-55.181812
-55.154551
-55.127295
-55.100043
-55.072797
-55.045556
-55.01832
-54.991089
-54.963863
-54.936643
-54.909427
-54.882217
-54.855011
-54.827811
-54.800616
-54.773426
-54.746242
-54.719062
-54.691887
-54.664718
-54.637553
-54.610394
-54.583239
-54.55609
-54.528946
-54.501807
-54.474673
-54.447544
-54.42042
-54.3933
-54.366186
-54.339076
-54.311971
-54.284872
-54.257778
-54.230689
-54.203605
-54.176526
-54.149452
-54.122383
-54.095319
-54.068259
-54.041205
-54.014155
-53.987111
-53.960071
-53.933037
-53.906009
-53.878985
-53.851966
-53.824952
-53.797943
-53.770938
-53.743938
-53.716943
-53.689953
-53.662968
-53.635988
-53.609014
-53.582046
-53.555083
-53.528126
-53.501174
-53.474227
-53.447286
-53.42035
-53.39342
-53.366496
-53.339577
-53.312665
-53.285759
-53.258858
-53.231963
-53.205073
-53.178188
-53.151307
-53.124431
-53.097559
-53.070692
-53.043828
-53.016967
-52.99011
-52.963256
-52.936404
-52.909555
-52.882708
-52.855863
-52.82902
-52.802179
-52.77534
-52.748503
-52.721668
-52.694837
-52.668007
-52.64118
-52.614356
-52.587535
-52.560716
-52.5339
-52.507087
-52.480278
-52.453472
-52.42667
-52.399873
-52.373079
-52.346291
-52.319506
-52.292726
-52.265951
-52.23918
-52.212413
-52.185651
-52.158894
-52.132141
-52.105393
-52.07865
-52.051911
-52.025177
-51.998448
-51.971724
-51.945005
-51.918291
-51.891581
-51.864876
-51.838176
-51.811481
-51.78479
-51.758104
-51.731423
-51.704747
-51.678076
-51.651409
-51.624747
-51.59809
-51.571438
-51.544791
-51.518148
-51.491511
-51.464878
-51.43825
-51.411627
-51.385008
-51.358394
-51.331785
-51.305181
-51.278581
-51.251986
-51.225396
-51.19881
-51.172229
-51.145653
-51.119082
-51.092515
-51.065953
-51.039396
-51.012843
-50.986295
-50.959752
-50.933213
-50.906679
-50.88015
-50.853626
-50.827107
-50.800592
-50.774082
-50.747576
-50.721075
-50.694579
-50.668088
-50.641601
-50.615119
-50.588642
-50.56217
-50.535702
-50.509238
-50.48278
-50.456326
-50.429877
-50.403432
-50.376993
-50.350558
-50.324128
-50.297702
-50.271281
-50.244864
-50.218453
-50.192045
-50.165643
-50.139245
-50.112853
-50.086465
-50.060081
-50.033703
-50.007329
-49.980961
-49.954597
-49.928238
-49.901883
-49.875533
-49.849188
-49.822847
-49.796511
-49.77018
-49.743854
-49.717533
-49.691217
-49.664907
-49.638601
-49.6123
-49.586003
-49.55971
-49.533422
-49.507138
-49.480858
-49.454583
-49.428312
-49.402046
-49.375783
-49.349524
-49.323269
-49.297018
-49.270771
-49.244527
-49.218286
-49.192049
-49.165816
-49.139585
-49.113357
-49.087132
-49.06091
-49.034691
-49.008474
-48.98226
-48.956049
-48.929841
-48.903636
-48.877433
-48.851234
-48.825037
-48.798842
-48.772651
-48.746463
-48.720279
-48.694097
-48.66792
-48.641745
-48.615574
-48.589407
-48.563243
-48.537083
-48.510927
-48.484775
-48.458626
-48.432481
-48.406341
-48.380204
-48.354072
-48.327943
-48.301819
-48.275699
-48.249583
-48.223471
-48.197364
-48.171261
-48.145163
-48.119068
-48.092979
-48.066893
-48.040812
-48.014735
-47.988663
-47.962595
-47.936531
-47.910471
-47.884417
-47.858366
-47.83232
-47.806278
-47.780241
-47.754208
-47.72818
-47.702156
-47.676136
-47.650121
-47.62411
-47.598103
-47.572101
-47.546103
-47.520109
-47.49412
-47.468134
-47.442154
-47.416177
-47.390205
-47.364237
-47.338273
-47.312314
-47.28636
-47.260409
-47.234464
-47.208522
-47.182585
-47.156652
-47.130723
-47.104798
-47.078878
-47.052961
-47.02705
-47.001142
-46.975239
-46.949341
-46.923446
-46.897556
-46.87167
-46.845789
-46.819911
-46.794038
-46.768169
-46.742304
-46.716443
-46.690587
-46.664734
-46.638886
-46.613042
-46.587203
-46.561368
-46.535537
-46.50971
-46.483887
-46.458069
-46.432254
-46.406444
-46.380638
-46.354836
-46.329038
-46.303244
-46.277455
-46.25167
-46.225889
-46.200112
-46.174339
-46.148571
-46.122807
-46.097047
-46.071291
-46.045539
-46.019792
-45.994048
-45.96831
-45.942575
-45.916845
-45.891118
-45.865397
-45.839679
-45.813965
-45.788256
-45.762551
-45.73685
-45.711154
-45.685461
-45.659773
-45.634089
-45.60841
-45.582734
-45.557063
-45.531396
-45.505733
-45.480074
-45.454419
-45.428767
-45.40312
-45.377476
-45.351836
-45.3262
-45.300568
-45.274939
-45.249314
-45.223692
-45.198074
-45.17246
-45.146848
-45.12124
-45.095635
-45.070033
-45.044434
-45.018838
-44.993245
-44.967655
-44.942068
-44.916484
-44.890903
-44.865325
-44.83975
-44.814178
-44.788609
-44.763043
-44.73748
-44.71192
-44.686363
-44.66081
-44.63526
-44.609714
-44.58417
-44.558631
-44.533094
-44.507562
-44.482033
-44.456508
-44.430988
-44.405471
-44.379959
-44.354451
-44.328948
-44.303449
-44.277955
-44.252466
-44.226982
-44.201503
-44.176029
-44.15056
-44.125097
-44.099639
-44.074187
-44.048741
-44.023301
-43.997866
-43.972438
-43.947017
-43.921601
-43.896192
-43.870789
-43.845393
-43.820004
-43.794621
-43.769246
-43.743878
-43.718518
-43.693165
-43.667819
-43.642481
-43.617151
-43.591829
-43.566515
-43.54121
-43.515912
-43.490624
-43.465344
-43.440073
-43.414811
-43.389558
-43.364314
-43.33908
-43.313856
-43.28864
-43.263435
-43.23824
-43.213055
-43.18788
-43.162715
-43.137561
-43.112419
-43.087287
-43.062166
-43.037057
-43.011959
-42.986873
-42.961799
-42.936737
-42.911687
-42.886649
-42.861623
-42.83661
-42.81161
-42.786622
-42.761648
-42.736687
-42.711739
-42.686805
-42.661884
-42.636977
-42.612084
-42.587206
-42.562341
-42.537491
-42.512656
-42.487835
-42.46303
-42.438239
-42.413464
-42.388704
-42.363959
-42.33923
-42.314517
-42.289819
-42.265138
-42.240473
-42.215824
-42.191191
-42.166575
-42.141975
-42.117393
-42.092827
-42.068278
-42.043746
-42.019231
-41.994734
-41.970254
-41.945792
-41.921347
-41.896921
-41.872512
-41.848121
-41.823748
-41.799393
-41.775057
-41.750739
-41.726439
-41.702159
-41.677896
-41.653653
-41.629428
-41.605222
-41.581036
-41.556868
-41.532719
-41.50859
-41.48448
-41.460389
-41.436318
-41.412266
-41.388234
-41.364221
-41.340228
-41.316254
-41.292301
-41.268367
-41.244452
-41.220557
-41.196682
-41.172826
-41.148991
-41.125175
-41.101379
-41.077602
-41.053846
-41.030109
-41.006391
-40.982693
-40.959015
-40.935356
-40.911716
-40.888095
-40.864493
-40.840911
-40.817347
-40.793802
-40.770276
-40.746769
-40.723281
-40.699811
-40.676359
-40.652925
-40.62951
-40.606113
-40.582734
-40.559373
-40.536029
-40.512703
-40.489394
-40.466103
-40.442828
-40.419571
-40.396331
-40.373107
-40.349901
-40.32671
-40.303536
-40.280378
-40.257236
-40.23411
-40.211
-40.187906
-40.164827
-40.141763
-40.118714
-40.095681
-40.072662
-40.049659
-40.02667
-40.003695
-39.980735
-39.957789
-39.934857
-39.911939
-39.889035
-39.866144
-39.843267
-39.820403
-39.797553
-39.774715
-39.75189
-39.729079
-39.706279
-39.683492
-39.660718
-39.637955
-39.615205
-39.592467
-39.56974
-39.547025
-39.524321
-39.501629
-39.478947
-39.456277
-39.433617
-39.410969
-39.38833
-39.365702
-39.343085
-39.320477
-39.297879
-39.275291
-39.252713
-39.230144
-39.207585
-39.185034
-39.162493
-39.13996
-39.117437
-39.094921
-39.072414
-39.049916
-39.027425
-39.004942
-38.982467
-38.96
-38.93754
-38.915088
-38.892643
-38.870204
-38.847773
-38.825348
-38.80293
-38.780518
-38.758113
-38.735714
-38.71332
-38.690932
-38.66855
-38.646174
-38.623803
-38.601437
-38.579076
-38.55672
-38.534369
-38.512023
-38.489681
-38.467343
-38.44501
-38.42268
-38.400355
-38.378034
-38.355716
-38.333402
-38.311091
-38.288784
-38.26648
-38.244179
-38.221882
-38.199586
-38.177294
-38.155004
-38.132717
-38.110432
-38.088149
-38.065868
-38.043589
-38.021312
-37.999037
-37.976763
-37.95449
-37.932219
-37.909949
-37.88768
-37.865411
-37.843143
-37.820876
-37.798609
-37.776342
-37.754075
-37.731808
-37.70954
-37.687272
-37.665003
-37.642733
-37.620461
-37.598189
-37.575914
-37.553638
-37.531359
-37.509078
-37.486795
-37.464509
-37.44222
-37.419927
-37.39763
-37.375329
-37.353025
-37.330716
-37.308404
-37.286086
-37.263761
-37.24143
-37.219094
-37.196753
-37.174406
-37.152054
-37.129695
-37.107325
-37.084944
-37.062557
-37.040164
-37.017766
-36.995363
-36.972951
-36.950522
-36.928074
-36.905615
-36.883156
-36.860696
-36.83823
-36.815754
-36.793257
-36.770726
-36.748179
-36.725635
-36.703094
-36.680555
-36.658001
-36.635424
-36.61282
-36.59018
-36.567529
-36.544879
-36.52223
-36.499578
-36.476912
-36.454229
-36.43152
-36.408782
-36.386027
-36.363248
-36.340455
-36.317656
-36.29484
-36.272012
-36.249172
-36.226322
-36.203473
-36.180609
-36.157728
-36.134814
-36.111857
-36.088866
-36.065839
-36.04279
-36.019721
-35.99665
-35.973573
-35.950487
-35.927385
-35.904268
-35.881131
-35.857976
-35.834809
-35.811623
-35.788417
-35.76519
-35.741937
-35.718663
-35.695376
-35.672082
-35.648775
-35.625445
-35.602091
-35.578712
-35.555307
-35.531882
-35.508444
-35.48499
-35.461516
-35.438023
-35.41451
-35.390978
-35.367422
-35.343841
-35.32023
-35.296591
-35.272934
-35.249267
-35.225597
-35.201907
-35.178183
-35.154428
-35.130644
-35.106837
-35.083024
-35.059203
-35.035353
-35.011468
-34.987554
-34.963622
-34.939679
-34.915737
-34.891793
-34.867827
-34.843819
-34.819788
-34.795735
-34.771665
-34.747596
-34.723514
-34.699409
-34.675273
-34.651118
-34.626936
-34.60273
-34.578513
-34.554271
-34.530016
-34.505746
-34.481466
-34.45718
-34.43287
-34.408535
-34.384173
-34.359791
-34.33539
-34.310978
-34.286558
-34.262132
-34.237688
-34.21322
-34.188728
-34.164214
-34.139684
-34.115147
-34.090604
-34.066061
-34.041515
-34.016953
-33.992362
-33.967751
-33.943121
-33.918478
-33.893833
-33.869183
-33.844533
-33.819881
-33.795223
-33.770551
-33.745861
-33.721145
-33.696402
-33.67164
-33.646863
-33.622084
-33.597306
-33.572529
-33.547753
-33.522977
-33.498196
-33.473403
-33.448596
-33.423767
-33.39892
-33.374066
-33.349211
-33.324359
-33.299513
-33.27467
-33.249821
-33.224939
-33.200034
-33.175117
-33.150201
-33.125291
-33.100392
-33.075503
-33.050619
-33.025734
-33.000829
-32.975902
-32.95095
-32.925986
-32.901024
-32.876072
-32.851134
-32.826207
-32.801286
-32.776362
-32.751416
-32.726457
-32.701479
-32.676485
-32.651492
-32.626504
-32.601529
-32.576569
-32.551622
-32.526679
-32.501718
-32.476723
-32.451722
-32.426722
-32.401732
-32.376759
-32.351802
-32.326855
-32.301909
-32.276944
-32.251959
-32.226957
-32.201949
-32.176946
-32.151955
-32.12698
-32.102016
-32.077059
-32.052101
-32.027132
-32.002161
-31.977187
-31.95221
-31.927232
-31.902245
-31.877258
-31.852276
-31.827303
-31.802345
-31.777397
-31.752455
-31.727508
-31.702541
-31.677575
-31.652611
-31.627657
-31.602715
-31.577784
-31.552859
-31.527929
-31.502975
-31.478011
-31.453047
-31.428092
-31.403154
-31.378234
-31.353326
-31.328423
-31.30351
-31.278583
-31.253657
-31.228724
-31.203792
-31.178855
-31.153908
-31.12896
-31.104016
-31.079084
-31.054169
-31.029273
-31.004392
-30.979518
-30.954643
-30.929747
-30.90484
-30.879934
-30.855036
-30.830154
-30.80529
-30.780438
-30.755588
-30.730722
-30.705845
-30.680968
-30.656089
-30.631212
-30.60633
-30.581436
-30.556543
-30.531658
-30.506788
-30.481938
-30.457103
-30.432277
-30.407453
-30.382621
-30.357789
-30.332955
-30.308118
-30.283282
-30.258449
-30.233625
-30.208816
-30.184024
-30.159242
-30.134462
-30.109657
-30.084824
-30.059974
-30.035118
-30.01027
-29.985441
-29.960638
-29.935859
-29.911099
-29.886347
-29.861593
-29.836817
-29.81203
-29.787221
-29.762407
-29.737592
-29.712782
-29.687983
-29.663198
-29.638428
-29.61367
-29.588922
-29.564179
-29.53944
-29.514706
-29.489978
-29.465254
-29.440534
-29.415813
-29.391087
-29.366356
-29.341626
-29.316896
-29.29217
-29.267448
-29.242732
-29.218021
-29.193316
-29.168613
-29.143912
-29.119207
-29.0945
-29.069795
-29.045094
-29.020398
-28.995708
-28.971019
-28.946327
-28.921633
-28.896945
-28.872266
-28.847599
-28.822941
-28.798285
-28.773613
-28.748932
-28.724258
-28.699596
-28.674952
-28.650323
-28.625697
-28.601055
-28.576394
-28.551737
-28.527088
-28.502454
-28.477835
-28.453225
-28.428616
-28.404
-28.379385
-28.354772
-28.330162
-28.305551
-28.280923
-28.256283
-28.231648
-28.207024
-28.18242
-28.15784
-28.133275
-28.108717
-28.084153
-28.059581
-28.035014
-28.010453
-27.985896
-27.961334
-27.936743
-27.912145
-27.887552
-27.862974
-27.838419
-27.813884
-27.789358
-27.764832
-27.740291
-27.715755
-27.691224
-27.666699
-27.642177
-27.617629
-27.593058
-27.56849
-27.543935
-27.519401
-27.494892
-27.4704
-27.445913
-27.421418
-27.396914
-27.372414
-27.347917
-27.323422
-27.298916
-27.274381
-27.249844
-27.225312
-27.200799
-27.176313
-27.151851
-27.127404
-27.102959
-27.078492
-27.054015
-27.02954
-27.005069
-26.980603
-26.956136
-26.931639
-26.907129
-26.88263
-26.858156
-26.833721
-26.809319
-26.784934
-26.760535
-26.736066
-26.711594
-26.687124
-26.662672
-26.638245
-26.613837
-26.589437
-26.565011
-26.540557
-26.516107
-26.491667
-26.46725
-26.442854
-26.41847
-26.394084
-26.369656
-26.345226
-26.320802
-26.296396
-26.272011
-26.247641
-26.223272
-26.198872
-26.174459
-26.150053
-26.125662
-26.101294
-26.076947
-26.05261
-26.028265
-26.003877
-25.979484
-25.955093
-25.930718
-25.906363
-25.882023
-25.857688
-25.833326
-25.808947
-25.784574
-25.760216
-25.735879
-25.711561
-25.687251
-25.662927
-25.638565
-25.614206
-25.589854
-25.565523
-25.541219
-25.516932
-25.492647
-25.468322
-25.443976
-25.419636
-25.395308
-25.370998
-25.346701
-25.322407
-25.298095
-25.273778
-25.249468
-25.225169
-25.200884
-25.176608
-25.152337
-25.128059
-25.103774
-25.079491
-25.055209
-25.030928
-25.006649
-24.982372
-24.958098
-24.933829
-24.909563
-24.885299
-24.861037
-24.836778
-24.812521
-24.788267
-24.764015
-24.739764
-24.715515
-24.691271
-24.667033
-24.642799
-24.618567
-24.594331
-24.570095
-24.545863
-24.52164
-24.49742
-24.473201
-24.44897
-24.424744
-24.400525
-24.376316
-24.352113
-24.327908
-24.30369
-24.279477
-24.255271
-24.231072
-24.206877
-24.182682
-24.158486
-24.134293
-24.110102
-24.085915
-24.061728
-24.037542
-24.013358
-23.989175
-23.964994
-23.940814
-23.916635
-23.892459
-23.868287
-23.84412
-23.819957
-23.795798
-23.771642
-23.747488
-23.723336
-23.699188
-23.675045
-23.650907
-23.626774
-23.602642
-23.578511
-23.55438
-23.530249
-23.506118
-23.481989
-23.457862
-23.433739
-23.40962
-23.385505
-23.361393
-23.337283
-23.313176
-23.289071
-23.26497
-23.24087
-23.216773
-23.192678
-23.168584
-23.144493
-23.120403
-23.096317
-23.072233
-23.048152
-23.024073
-22.999996
-22.975919
-22.951844
-22.927771
-22.903702
-22.879637
-22.855574
-22.831514
-22.807453
-22.783392
-22.759332
-22.735273
-22.711216
-22.687161
-22.663108
-22.639056
-22.615004
-22.590954
-22.566905
-22.542858
-22.518814
-22.494773
-22.470735
-22.446701
-22.42267
-22.398642
-22.374616
-22.350591
-22.326567
-22.302543
-22.27852
-22.254497
-22.230475
-22.206452
-22.182428
-22.158406
-22.134383
-22.110361
-22.086338
-22.062314
-22.038291
-22.014268
-21.990246
-21.966223
-21.942198
-21.918171
-21.894145
-21.870119
-21.846095
-21.822071
-21.798041
-21.774005
-21.749971
-21.725939
-21.70191
-21.677883
-21.653849
-21.629797
-21.605746
-21.581698
-21.557656
-21.533618
-21.509582
-21.48553
-21.461457
-21.437384
-21.413309
-21.389234
-21.365158
-21.341078
-21.316994
-21.29291
-21.26883
-21.244752
-21.220675
-21.196595
-21.172495
-21.148378
-21.12425
-21.100101
-21.075948
-21.051794
-21.027641
-21.00349
-20.979339
-20.955182
-20.931004
-20.906813
-20.882616
-20.858415
-20.834212
-20.810005
-20.785785
-20.761537
-20.737269
-20.712989
-20.688693
-20.664389
-20.640073
-20.615747
-20.591412
-20.567069
-20.542718
-20.51836
-20.493984
-20.46958
-20.445153
-20.420716
-20.396264
-20.371804
-20.347333
-20.32284
-20.298314
-20.273761
-20.249186
-20.224586
-20.199972
-20.175339
-20.150691
-20.126025
-20.101339
-20.07663
-20.051897
-20.027137
-20.002351
-19.97754
-19.952702
-19.927838
-19.902945
-19.878022
-19.853069
-19.828085
-19.803069
-19.778022
-19.752943
-19.727832
-19.702691
-19.67752
-19.652318
-19.627082
-19.601807
-19.576492
-19.551141
-19.525752
-19.500328
-19.474868
-19.449368
-19.423823
-19.398233
-19.372599
-19.34692
-19.321198
-19.295434
-19.269627
-19.243776
-19.217879
-19.191935
-19.165944
-19.139902
-19.113811
-19.087668
-19.061473
-19.035226
-19.008925
-18.982571
-18.956162
-18.929696
-18.903174
-18.876595
-18.849957
-18.823261
-18.796504
-18.769687
-18.742808
-18.715867
-18.688863
-18.661794
-18.63466
-18.607461
-18.580195
-18.552862
-18.52546
-18.497988
-18.470447
-18.442837
-18.415157
-18.387405
-18.35958
-18.33168
-18.303707
-18.275662
-18.247543
-18.219341
-18.191056
-18.162692
-18.134255
-18.105749
-18.07717
-18.048498
-18.019731
-17.990884
-17.961956
-17.932952
-17.903882
-17.874735
-17.845505
-17.816181
-17.786768
-17.75726
-17.727664
-17.697983
-17.668209
-17.638342
-17.608382
-17.578335
-17.548208
-17.518001
-17.487698
-17.457286
-17.426779
-17.396181
-17.365497
-17.334741
-17.303903
-17.272962
-17.241918
-17.210774
-17.17953
-17.148186
-17.116752
-17.085214
-17.053581
-17.021854
-16.990033
-16.958127
-16.926124
-16.894023
-16.861822
-16.829525
-16.79713
-16.764643
-16.732067
-16.699401
-16.666635
-16.633765
-16.600795
-16.567726
-16.534558
-16.501298
-16.467948
-16.434508
-16.400973
-16.367335
-16.3336
-16.299766
-16.265835
-16.231812
-16.197699
-16.163498
-16.129205
-16.094813
-16.060324
-16.025741
-15.991063
-15.956292
-15.921434
-15.88649
-15.851458
-15.816331
-15.781111
-15.7458
-15.710395
-15.674902
-15.639324
-15.603662
-15.567916
-15.532081
-15.496157
-15.460146
-15.424046
-15.38786
-15.351592
-15.315243
-15.278816
-15.242307
-15.205712
-15.169035
-15.132275
-15.095431
-15.058508
-15.021511
-14.98444
-14.947293
-14.910066
-14.872763
-14.835381
-14.79792
-14.760384
-14.722778
-14.685104
-14.647361
-14.609544
-14.571656
-14.533697
-14.495662
-14.457555
-14.419384
-14.381151
-14.342856
-14.304495
-14.266066
-14.227574
-14.18901
-14.150379
-14.111688
-14.072942
-14.034141
-13.99528
-13.956357
-13.917379
-13.878333
-13.839223
-13.800059
-13.760846
-13.721584
-13.682271
-13.642902
-13.603482
-13.564003
-13.524459
-13.484867
-13.445232
-13.405558
-13.365839
-13.326068
-13.286251
-13.246385
-13.206454
-13.166478
-13.126467
-13.086423
-13.046343
-13.006216
-12.966048
-12.925838
-12.885565
-12.845247
-12.804903
-12.764533
-12.724135
-12.683695
-12.643216
-12.602706
-12.562132
-12.521512
-12.480875
-12.44022
-12.399544
-12.358832
-12.318081
-12.27731
-12.236476
-12.195593
-12.154699
-12.113796
-12.072881
-12.031935
-11.990948
-11.949952
-11.908896
-11.867783
-11.826665
-11.785548
-11.744428
-11.703285
-11.662096
-11.620908
-11.579664
-11.53835
-11.497039
-11.455738
-11.414446
-11.373142
-11.33178
-11.290421
-11.249021
-11.207542
-11.166069
-11.124611
-11.083167
-11.041721
-11.000213
-10.95871
-10.917179
-10.87557
-10.83396
-10.79237
-10.7508
-10.709235
-10.667609
-10.625981
-10.584344
-10.542633
-10.500905
-10.459201
-10.417525
-10.375863
-10.334172
-10.29244
-10.250662
-10.208848
-10.167065
-10.125315
-10.08358
-10.0418
-9.9999823
-9.9581743
-9.9163646
-9.8744912
-9.832606
-9.7907455
-9.7489188
-9.70711
-9.6652767
-9.6233952
-9.5815043
-9.5395834
-9.4976645
-9.4557652
-9.4138751
-9.3719735
-9.3300609
-9.2881338
-9.2462081
-9.204258
-9.162311
-9.120362
-9.0784247
-9.036492
-8.9945479
-8.9526079
-8.9106398
-8.8686236
-8.8266314
-8.7846761
-8.7427492
-8.700825
-8.6588336
-8.616842
-8.5748188
-8.5327985
-8.4908065
-8.4488361
-8.4068703
-8.3648689
-8.3228654
-8.2808585
-8.238836
-8.1968224
-8.1548144
-8.1128147
-8.0708197
-8.0288168
-7.9868176
-7.9448121
-7.90276
-7.8607129
-7.8187086
-7.7767431
-7.7347871
-7.6927722
-7.650747
-7.6086974
-7.5666341
-7.5246127
-7.4826308
-7.4406629
-7.398648
-7.3566171
-7.3145898
-7.2725524
-7.2305241
-7.1885069
-7.1464995
-7.1044955
-7.0624862
-7.0204803
-6.9784695
-6.9364361
-6.8943835
-6.85237
-6.8104002
-6.7684496
-6.7264594
-6.6844306
-6.6424
-6.600338
-6.5583145
-6.5163383
-6.4743875
-6.432409
-6.3903783
-6.3483623
-6.3063373
-6.2643204
-6.2223166
-6.1803239
-6.1383365
-6.0963484
-6.0543559
-6.0123609
-5.9703586
-5.928326
-5.8863181
-5.8443577
-5.8024276
-5.7604782
-5.7184556
-5.67645
-5.6344287
-5.59242
-5.5504405
-5.5084829
-5.4665254
-5.4245278
-5.3825402
-5.3405548
-5.2985684
-5.2565589
-5.2145586
-5.1726028
-5.130684
-5.0887639
-5.0467479
-5.004748
-4.9627563
-4.9207703
-4.8787792
-4.836794
-4.7948349
-4.7529043
-4.7109791
-4.6689841
-4.6269885
-4.5850012
-4.5430212
-4.5010498
-4.4590832
-4.4171042
-4.3751265
-4.3331718
-4.2912494
-4.2493391
-4.2073657
-4.1653635
-4.1233775
-4.0813969
-4.0394219
-3.9974506
-3.9554819
-3.9135149
-3.8715478
-3.8295826
-3.7876192
-3.7456553
-3.7036803
-3.6617144
-3.6197676
-3.5778331
-3.5358839
-3.493905
-3.451932
-3.4099356
-3.3679556
-3.3260022
-3.2840662
-3.24211
-3.2001138
-3.1581379
-3.1161697
-3.0742078
-3.03224
-2.9902593
-2.9483007
-2.9063547
-2.8643716
-2.8223679
-2.780421
-2.7385169
-2.6966002
-2.6545733
-2.6125829
-2.5706003
-2.5286074
-2.4866247
-2.4446859
-2.4027864
-2.3608524
-2.3187954
-2.2767981
-2.2348185
-2.1928342
-2.1508673
-2.1089368
-2.0670177
-2.0250533
-1.9830797
-1.9410405
-1.899071
-1.857134
-1.815112
-1.7731287
-1.7312054
-1.6892826
-1.6472219
-1.6052358
-1.5632882
-1.5212854
-1.4792764
-1.4372934
-1.3953697
-1.3534798
-1.3114239
-1.2694026
-1.2274658
-1.1855696
-1.1435726
-1.1015825
-1.0596177
-1.0176756
-0.97569817
-0.93367428
-0.89174373
-0.84974022
-0.80772864
-0.76576216
-0.72380251
-0.68187574
-0.63987975
-0.5979146
-0.5559365
-0.51392504
-0.47196716
-0.43000177
-0.3880272
-0.34605695
-0.3040786
-0.26208714
-0.22011785
-0.17814045
-0.13617378
-0.094235982
-0.052256389
-0.010174448
0.031892105
0.073898744
0.11589264
0.15788061
0.19986502
0.24184706
0.2838276
0.32580735
0.36778651
0.40976479
0.45174163
0.49371661
0.53568964
0.577661
0.6196311
0.66160033
0.70356892
0.74553699
0.78750458
0.82947171
0.87143844
0.91340482
0.95537089
0.99733662
1.0393019
1.0812664
1.1232301
1.1651928
1.2071542
1.2491145
1.2910737
1.3330319
1.3749893
1.416946
1.458902
1.5008574
1.5428122
1.5847666
1.6267206
1.6686742
1.7106273
1.7525798
1.7945316
1.8364826
1.878433
1.9203826
1.9623316
2.00428
2.0462276
2.0881745
2.1301208
2.1720665
2.2140117
2.2559565
2.2979008
2.3398447
2.3817882
2.4237313
2.4656738
2.507616
2.5495577
2.5914989
2.6334398
2.6753802
2.7173203
2.75926
2.8011994
2.8431384
2.8850772
2.9270158
2.9689542
3.0108924
3.0528306
3.0947686
3.1367065
3.1786443
3.220582
3.2625197
3.3044574
3.3463951
3.3883329
3.4302707
3.4722085
3.5141464
3.5560845
3.5980227
3.6399612
3.6818998
3.7238387
3.765778
3.8077176
3.8496577
3.891598
3.9335386
3.9754796
4.017421
4.0593629
4.1013053
4.1432483
4.1851918
4.2271358
4.2690804
4.3110255
4.3529712
4.3949176
4.4368647
4.4788125
4.5207611
4.5627104
4.6046604
4.6466112
4.6885628
4.7305152
4.7724684
4.8144225
4.8563774
4.8983333
4.94029
4.9822476
5.0242061
5.0661656
5.108126
5.1500873
5.1920497
5.2340129
5.2759772
5.3179423
5.3599085
5.4018757
5.4438439
5.4858131
5.5277832
5.5697543
5.6117265
5.6536996
5.6956738
5.737649
5.7796252
5.8216024
5.8635806
5.9055597
5.94754
5.9895212
6.0315035
6.0734868
6.115471
6.1574562
6.1994424
6.2414295
6.2834177
6.3254069
6.367397
6.409388
6.4513799
6.4933726
6.5353663
6.577361
6.6193566
6.661353
6.7033503
6.7453483
6.7873471
6.8293468
6.8713473
6.9133486
6.9553506
6.9973534
7.0393568
7.0813609
7.1233657
7.1653712
7.2073774
7.2493843
7.2913918
7.3333998
7.3754084
7.4174176
7.4594273
7.5014377
7.5434485
7.5854599
7.6274717
7.6694839
7.7114966
7.7535097
7.7955233
7.8375372
7.8795515
7.9215662
7.9635811
8.0055964
8.047612
8.0896278
8.1316439
8.1736602
8.2156767
8.2576934
8.2997103
8.3417274
8.3837446
8.4257619
8.4677793
8.5097968
8.5518144
8.5938321
8.6358498
8.6778676
8.7198853
8.761903
8.8039207
8.8459383
8.8879559
8.9299735
8.971991
9.0140083
9.0560255
9.0980426
9.1400595
9.1820762
9.2240928
9.2661092
9.3081253
9.3501412
9.3921569
9.4341723
9.4761874
9.5182022
9.5602168
9.602231
9.6442448
9.6862583
9.7282714
9.7702842
9.8122967
9.8543087
9.8963202
9.9383314
9.9803421
10.022352
10.064362
10.106372
10.148381
10.190389
10.232397
10.274404
10.316411
10.358417
10.400423
10.442428
10.484433
10.526437
10.56844
10.610443
10.652445
10.694446
10.736447
10.778448
10.820447
10.862446
10.904444
10.946442
10.988439
11.030435
11.07243
11.114425
11.156419
11.198413
11.240405
11.282397
11.324388
11.366379
11.408368
11.450357
11.492346
11.534333
11.57632
11.618305
11.660291
11.702275
11.744258
11.786241
11.828223
11.870204
11.912184
11.954164
11.996142
12.03812
12.080097
12.122073
12.164048
12.206023
12.247996
12.289969
12.331941
12.373911
12.415881
12.45785
12.499818
12.541786
12.583752
12.625717
12.667682
12.709645
12.751608
12.79357
12.835531
12.877491
12.91945
12.961408
13.003366
13.045322
13.087278
13.129233
13.171187
13.21314
13.255093
13.297044
13.338995
13.380946
13.422895
13.464844
13.506792
13.54874
13.590687
13.632634
13.67458
13.716525
13.75847
13.800415
13.842359
13.884302
13.926246
13.968188
14.01013
14.052072
14.094013
14.135954
14.177895
14.219835
14.261774
14.303713
14.345651
14.387589
14.429526
14.471462
14.513398
14.555333
14.597267
14.6392
14.681132
14.723062
14.764991
14.806918
14.848843
14.890767
14.932692
14.97462
15.016548
15.058477
15.100399
15.142316
15.184233
15.22615
15.268068
15.309984
15.351899
15.393813
15.435727
15.477641
15.519553
15.561465
15.603376
15.645286
15.687197
15.729105
15.771012
15.812917
15.85482
15.896723
15.938627
15.980531
16.022436
16.064339
16.106241
16.148142
16.190044
16.231945
16.273847
16.315749
16.357649
16.39955
16.441451
16.483351
16.525252
16.567152
16.609053
16.650953
16.692853
16.734753
16.776653
16.818553
16.860452
16.902352
16.944251
16.98615
17.028049
17.069948
17.111847
17.153745
17.195643
17.237542
17.279439
17.321337
17.363234
17.405131
17.447028
17.488924
17.53082
17.572716
17.614612
17.656507
17.698402
17.740296
17.78219
17.824084
17.865977
17.90787
17.949763
17.991656
18.033548
18.075439
18.117331
18.159222
18.201113
18.243003
18.284894
18.326783
18.368673
18.410563
18.452452
18.494341
18.536229
18.578118
18.620006
18.661894
18.703782
18.74567
18.787557
18.829444
18.871332
18.913219
18.955106
18.996992
19.038879
19.080765
19.122652
19.164538
19.206424
19.248311
19.290197
19.332083
19.373969
19.415854
19.45774
19.499626
19.541512
19.583397
19.625283
19.667169
19.709054
19.75094
19.792826
19.834711
19.876597
19.918482
19.960368
20.002253
20.044139
20.086024
20.127909
20.169793
20.211677
20.25356
20.295442
20.337323
20.379202
20.421078
20.46295
20.504819
20.546684
20.588544
20.6304
20.672254
20.714109
20.755969
20.797839
20.839725
20.881629
20.923556
20.965505
21.007472
21.04945
21.091423
21.133388
21.175314
21.217196
21.259031
21.30083
21.342634
21.384464
21.426336
21.468253
21.510206
21.552177
21.594131
21.636061
21.677916
21.719733
21.761562
21.803426
21.845334
21.887277
21.929228
21.97118
22.013047
22.054889
22.096746
22.138633
22.180549
22.22248
22.264417
22.306305
22.348177
22.390058
22.431954
22.473864
22.515781
22.557693
22.599586
22.641479
22.683377
22.725282
22.76719
22.8091
22.851003
22.892905
22.934808
22.976714
23.018622
23.06053
23.102438
23.144345
23.186253
23.228161
23.270071
23.311981
23.353892
23.395803
23.437714
23.479625
23.521537
23.56345
23.605362
23.647275
23.689188
23.731101
23.773014
23.814924
23.856835
23.898739
23.940643
23.982536
24.024427
24.066306
24.108179
24.150038
24.19189
24.233727
24.275555
24.317372
24.359178
24.400974
24.442757
24.484528
24.526283
24.568024
24.609745
24.651454
24.693149
24.734847
24.776553
24.818274
24.860013
24.901769
24.943538
24.985313
25.027089
25.06886
25.110622
25.152373
25.194127
25.23589
25.277667
25.319461
25.361269
25.403086
25.444909
25.486735
25.528565
25.570401
25.612247
25.654104
25.695974
25.737858
25.779753
25.821657
25.863566
25.905478
25.94739
25.989298
26.031202
26.073101
26.114999
26.156898
26.198803
26.24072
26.282649
26.324589
26.366537
26.408484
26.450423
26.492347
26.534254
26.576144
26.618025
26.659907
26.701802
26.743719
26.785665
26.827637
26.869625
26.911615
26.953589
26.995531
27.037433
27.079292
27.121121
27.162945
27.204799
27.246718
27.288719
27.330784
27.372883
27.415018
27.457279
27.499929
27.544791
27.58713
27.625356
27.665907
27.709446
27.752253
27.794373
27.836875
27.879601
27.922171
27.964746
28.007349
28.049922
28.09245
28.134919
28.177321
28.219652
28.26192
28.304133
28.346305
28.388448
28.430572
28.472685
28.51479