-1.25 	300 	0.1108576839539692 	101370.2413526233
-1.247497497497497 	300.0328013300518 	0.1101015515221994 	101369.9523418554
-1.244994994994995 	300.0374916035292 	0.1092810543281933 	101369.6508881735
-1.242492492492492 	300.0375000209589 	0.1087069934217313 	101369.341341332
-1.23998998998999 	300.0372356436761 	0.1078287042713498 	101369.0238210003
-1.237487487487487 	300.0369581408356 	0.1070576639975926 	101368.6981756871
-1.234984984984985 	300.0366759218257 	0.1062445844734257 	101368.3644654429
-1.232482482482482 	300.0363869246432 	0.1054043717516102 	101368.0227185707
-1.22997997997998 	300.0360911872558 	0.1045487882653067 	101367.6730014996
-1.227477477477477 	300.0357887568572 	0.1036730738334197 	101367.3153706449
-1.224974974974975 	300.0354797471891 	0.102777208308638 	101366.9499630196
-1.222472472472472 	300.035164214319 	0.1018630649183939 	101366.5768370948
-1.21996996996997 	300.0348422867846 	0.1009315020056949 	101366.1961495958
-1.217467467467467 	300.034513977031 	0.09998161392915506 	101365.8079229032
-1.214964964964965 	300.0341793619622 	0.09901056292047336 	101365.4122404968
-1.212462462462462 	300.0338384649345 	0.09802207049051856 	101365.0091260618
-1.20995995995996 	300.0334912687464 	0.09701620052953069 	101364.5985639839
-1.207457457457457 	300.0331378779649 	0.09599304252391103 	101364.1806794785
-1.204954954954955 	300.0327782508722 	0.09495324441885661 	101363.7554204859
-1.202452452452452 	300.0324126151511 	0.09389350502833133 	101363.3230571789
-1.19994994994995 	300.0320410381347 	0.09281614750445127 	101362.8836713613
-1.197447447447447 	300.0316636172959 	0.09172242285043855 	101362.4373794913
-1.194944944944945 	300.0312804872718 	0.09061326418085745 	101361.9843389613
-1.192442442442442 	300.0308915040955 	0.08948807805508024 	101361.5243748879
-1.18993993993994 	300.0304968918033 	0.08834390122253498 	101361.0577535138
-1.187437437437437 	300.0300966955652 	0.08718349441738692 	101360.5845304899
-1.184934934934935 	300.02969083116 	0.08600765394208365 	101360.1046054126
-1.182432432432432 	300.0292795295188 	0.08481651565859408 	101359.6182527205
-1.17992992992993 	300.0288627389876 	0.08361005760352988 	101359.1254136022
-1.177427427427427 	300.0284405699767 	0.08238689194320903 	101358.6262199837
-1.174924924924925 	300.0280133365738 	0.08114868643660886 	101358.1210376325
-1.172422422422422 	300.027580875898 	0.07989575434848874 	101357.6096716704
-1.16991991991992 	300.0271432869479 	0.07862848230003194 	101357.092244168
-1.167417417417417 	300.0267009311557 	0.07734732200092162 	101356.5691861866
-1.164914914914915 	300.0262535355407 	0.07605115984874958 	101356.0401753982
-1.162412412412412 	300.0258010883004 	0.07474060822665253 	101355.5051935755
-1.15990990990991 	300.0253441622904 	0.07341680513172746 	101354.9649122776
-1.157407407407407 	300.0248825452883 	0.07207971916434081 	101354.4190794874
-1.154904904904904 	300.0244159301334 	0.07072865082326034 	101353.8673371864
-1.152402402402403 	300.0239451313965 	0.06936493117482731 	101353.3106548892
-1.1498998998999 	300.0234702880458 	0.0679889534051642 	101352.7491981967
-1.147397397397397 	300.0229904967194 	0.06659907911822019 	101352.1818970796
-1.144894894894895 	300.0225063796913 	0.06519711927626573 	101351.6094831981
-1.142392392392392 	300.0220189567646 	0.06378449506099483 	101351.0331565006
-1.13988988988989 	300.0215272007482 	0.06235969322187764 	101350.4517010536
-1.137387387387387 	300.0210304917028 	0.06092177020870961 	101349.8643867212
-1.134884884884885 	300.0205304627135 	0.05947339179231126 	101349.2731480799
-1.132382382382382 	300.020027672398 	0.05801635099932336 	101348.6786464538
-1.12987987987988 	300.0195204103608 	0.05654663948906831 	101348.0788602295
-1.127377377377377 	300.0190084167139 	0.05506479585468763 	101347.4734856935
-1.124874874874875 	300.0184936961224 	0.05357462773618621 	101346.8648928969
-1.122372372372372 	300.0179768767267 	0.05207617538991147 	101346.2538228589
-1.11986986986987 	300.0174563722833 	0.050567796602435 	101345.63839928
-1.117367367367367 	300.0169313474248 	0.0490468690389685 	101345.0176340043
-1.114864864864865 	300.0164028652962 	0.04751726589096569 	101344.3927857987
-1.112362362362362 	300.015872023082 	0.04598063080689787 	101343.7651506237
-1.10985985985986 	300.0153390236759 	0.04443519297382967 	101343.1349682977
-1.107357357357357 	300.0148037327685 	0.04288391544343752 	101342.5020793721
-1.104854854854855 	300.0142655442429 	0.0413242579614858 	101341.8657656738
-1.102352352352353 	300.0137233345755 	0.03975433596930898 	101341.2247005362
-1.09984984984985 	300.0131768479286 	0.03817298021471183 	101340.5785818198
-1.097347347347347 	300.0126281192321 	0.03658295388513173 	101339.9298170569
-1.094844844844845 	300.0120799900012 	0.03499463383785623 	101339.2817653529
-1.092342342342342 	300.0115326859046 	0.03340791826392792 	101338.6346901424
-1.08983983983984 	300.0109829492284 	0.03181485576470547 	101337.9847394739
-1.087337337337337 	300.0104271351873 	0.03020532370769294 	101337.3276053623
-1.084834834834835 	300.0098649278284 	0.02857709473326742 	101336.6629172241
-1.082332332332332 	300.0092999720044 	0.0269422802773692 	101335.9949851599
-1.07982982982983 	300.0087368739266 	0.02531186815614141 	101335.329254107
-1.077327327327327 	300.008177484962 	0.02369041594563306 	101334.6679114951
-1.074824824824825 	300.0076198317032 	0.02207408959770834 	101334.0086217658
-1.072322322322323 	300.0070601069541 	0.02045141339871632 	101333.3468838721
-1.06981981981982 	300.006495466736 	0.01881457096146114 	101332.679336316
-1.067317317317317 	300.0059254810787 	0.01716374667040444 	101332.005472571
-1.064814814814815 	300.005351791768 	0.01550316801482042 	101331.3272350923
-1.062312312312312 	300.0047767732237 	0.01383942608158918 	101330.647430797
-1.05980980980981 	300.0042023352414 	0.01217635704994326 	101329.9683169955
-1.057307307307307 	300.0036293163683 	0.01051532522613503 	101329.2908838027
-1.054804804804805 	300.0030575677279 	0.008858047013163353 	101328.6149549073
-1.052302302302302 	300.0024864061738 	0.007203157817014982 	101327.9397228291
-1.0497997997998 	300.0019151169246 	0.005548298460260169 	101327.2643425424
-1.047297297297297 	300.0013432243654 	0.003891590689186483 	101326.5882520961
-1.044794794794795 	300.0007705671286 	0.002231988906493911 	101325.9112601879
-1.042292292292292 	300.0001972160454 	0.0007122053690641918 	101325.2334515926
-1.03978978978979 	299.9996234089708 	0.001091000694063435 	101324.5551078643
-1.037287287287287 	299.9990494299033 	0.002753137775465615 	101323.8765633702
-1.034784784784785 	299.9984755110131 	0.004415273435403325 	101323.1980929573
-1.032282282282283 	299.9979018351075 	0.00607719336610124 	101322.5199131931
-1.02977977977978 	299.9973285375787 	0.007738392481962546 	101321.842184772
-1.027277277277277 	299.9967557161204 	0.009397895770618659 	101321.1650222593
-1.024774774774775 	299.9961834517046 	0.01105591895647274 	101320.4885200063
-1.022272272272272 	299.9956118318508 	0.01271162633999953 	101319.8127834431
-1.01976976976977 	299.9950409677506 	0.01436518026930185 	101319.1379448469
-1.017267267267267 	299.9944709892375 	0.01601652075122867 	101318.4641563499
-1.014764764764765 	299.9939020314397 	0.01766442356145898 	101317.7915753264
-1.012262262262262 	299.9933342234384 	0.01930956155536665 	101317.1203553885
-1.00975975975976 	299.9927676815561 	0.02094996640128307 	101316.4506386357
-1.007257257257257 	299.9922025046126 	0.02258678148535145 	101315.7825402752
-1.004754754754755 	299.9916387652975 	0.0242207190958416 	101315.1161424398
-1.002252252252252 	299.991076527262 	0.02584961644104777 	101314.4515181831
-0.9997497497497498 	299.99051586925 	0.02747480580941543 	101313.7887639594
-0.9972472472472473 	299.9899568954212 	0.02909312968172632 	101313.1280102255
-0.9947447447447449 	299.9893997362601 	0.03070605054497881 	101312.469408868
-0.9922422422422421 	299.9888445300946 	0.03231565897969263 	101311.8131151328
-0.9897397397397399 	299.9882914083162 	0.03391813413537779 	101311.1592792746
-0.9872372372372376 	299.987740485924 	0.03551431801378217 	101310.5080427446
-0.9847347347347346 	299.9871918574925 	0.03710249324766784 	101309.85952974
-0.9822322322322323 	299.986645603017 	0.03868424742840106 	101309.2138368398
-0.9797297297297296 	299.9861017936345 	0.04026138562411957 	101308.5710381774
-0.9772272272272275 	299.9855605073681 	0.04183001604621053 	101307.9312123363
-0.9747247247247248 	299.985021836006 	0.04339059393878859 	101307.2944667288
-0.9722222222222224 	299.984485886006 	0.04494274311661189 	101306.6609411994
-0.9697197197197196 	299.9839527767764 	0.04648660612018179 	101306.0307901915
-0.9672172172172175 	299.9834226303532 	0.04802273749882529 	101305.4041601807
-0.9647147147147147 	299.9828955694324 	0.04954964121848354 	101304.7811829752
-0.9622122122122124 	299.9823717077395 	0.05106731371370272 	101304.1619763308
-0.9597097097097099 	299.9818511344851 	0.05257526257221377 	101303.5466396843
-0.9572072072072073 	299.9813339125793 	0.05407384447433571 	101302.9352564145
-0.9547047047047047 	299.9808200945639 	0.05556287046090605 	101302.3279066676
-0.9522022022022023 	299.9803097468166 	0.05704126690408218 	101301.7246826492
-0.9496996996996998 	299.9798029683786 	0.05850932556051756 	101301.1256998007
-0.9471971971971973 	299.9792998854876 	0.05996655251931931 	101300.5310926866
-0.9446946946946947 	299.9788006310324 	0.06141214699587852 	101299.9409997297
-0.9421921921921923 	299.9783053286785 	0.06284673644720155 	101299.3555556457
-0.93968968968969 	299.9778140816481 	0.06427054425677389 	101298.7748867673
-0.9371871871871872 	299.9773269690091 	0.06568223600682163 	101298.1991025944
-0.9346846846846848 	299.976844054069 	0.06708138871253555 	101297.6282942263
-0.9321821821821823 	299.9763653943423 	0.06846718237649735 	101297.0625393426
-0.9296796796796799 	299.9758910499183 	0.06984074202080721 	101296.5019103047
-0.9271771771771771 	299.9754210969788 	0.0712031969703191 	101295.9464893946
-0.9246746746746748 	299.9749556347494 	0.07255216128518731 	101295.3963808412
-0.9221721721721724 	299.9744947802926 	0.07388702533323248 	101294.851708949
-0.9196696696696698 	299.9740386553785 	0.07520764074858011 	101294.3126065899
-0.9171671671671672 	299.9735873665454 	0.0765144889674082 	101293.7791971722
-0.9146646646646649 	299.9731409949842 	0.07780858610932298 	101293.2515805658
-0.9121621621621623 	299.9726996021559 	0.07908819728675644 	101292.7298368568
-0.9096596596596597 	299.9722632436801 	0.08035237287325811 	101292.2140391556
-0.9071571571571573 	299.9718319811377 	0.08160172796222173 	101291.7042661022
-0.9046546546546547 	299.971405890692 	0.08283566576258002 	101291.2006118381
-0.9021521521521524 	299.9709850596463 	0.0840548504566415 	101290.7031818404
-0.8996496496496498 	299.9705695740283 	0.08525905386169146 	101290.2120793295
-0.8971471471471473 	299.970159516515 	0.08644693491456586 	101289.7274016346
-0.894644644644645 	299.9697549683315 	0.08761923498332858 	101289.2492447407
-0.892142142142142 	299.9693560090859 	0.08877394888315485 	101288.7777032092
-0.8896396396396397 	299.9689627148422 	0.08991291421933632 	101288.3128626256
-0.8871371371371374 	299.968575145114 	0.09103673427729024 	101287.8547928147
-0.8846346346346349 	299.9681933527213 	0.09214279245574071 	101287.4035536013
-0.8821321321321324 	299.9678173962461 	0.09323259198131942 	101286.9592136933
-0.8796296296296297 	299.9674473504151 	0.09430331479577321 	101286.5218640548
-0.8771271271271271 	299.9670833006948 	0.09535718964160333 	101286.0916057097
-0.8746246246246248 	299.9667253274468 	0.09639553127368632 	101285.6685321923
-0.8721221221221224 	299.9663735078441 	0.09741483160378135 	101285.2527324062
-0.8696196196196196 	299.9660279211837 	0.09841640755955286 	101284.8442975465
-0.8671171171171175 	299.9656886382739 	0.09939832585713987 	101284.4433118338
-0.8646146146146148 	299.9653557080038 	0.1003623090031475 	101284.0498347056
-0.8621121121121121 	299.9650291572198 	0.101309540786882 	101283.6639000839
-0.8596096096096097 	299.9647090160354 	0.102237069072324 	101283.2855437688
-0.857107107107107 	299.9643953417499 	0.1031457086207084 	101282.9148340051
-0.8546046046046049 	299.9640882197363 	0.1040348919432063 	101282.5518700859
-0.8521021021021022 	299.9637877382515 	0.1049051176363844 	101282.1967529217
-0.8495995995995997 	299.963493971509 	0.1057566567023474 	101281.8495695957
-0.8470970970970974 	299.9632069885384 	0.1065883187267588 	101281.5104011085
-0.8445945945945946 	299.9629268453223 	0.1074003169452421 	101281.1793154351
-0.8420920920920922 	299.9626535672548 	0.1081920876897572 	101280.8563456149
-0.8395895895895897 	299.9623871580896 	0.1089639632422158 	101280.5414973045
-0.8370870870870872 	299.9621276295696 	0.1097159684014079 	101280.2347842184
-0.8345845845845846 	299.9618750208458 	0.1104475437966187 	101279.9362513906
-0.8320820820820823 	299.9616294020441 	0.1111588231670011 	101279.645980841
-0.8295795795795798 	299.9613908658525 	0.1118493665101505 	101279.3640797154
-0.8270770770770772 	299.9611594961412 	0.1125194166584548 	101279.0906453166
-0.8245745745745746 	299.960935348329 	0.1131688591033143 	101278.8257436353
-0.8220720720720721 	299.960718462751 	0.1137974603076877 	101278.5694228465
-0.8195695695695699 	299.9605088663694 	0.1144052131905816 	101278.321716948
-0.817067067067067 	299.9603065635832 	0.1149916595479743 	101278.082631911
-0.8145645645645651 	299.9601115471897 	0.1155565213425712 	101277.8521590732
-0.8120620620620621 	299.9599238287784 	0.1161001397089647 	101277.6303128534
-0.8095595595595597 	299.9597434536947 	0.1166229224443264 	101277.4171475753
-0.8070570570570572 	299.9595704856117 	0.1171240434040974 	101277.212738366
-0.8045545545545546 	299.9594049827724 	0.1176032278335776 	101277.0171528512
-0.8020520520520523 	299.9592469961756 	0.1180596636702092 	101276.8304499368
-0.7995495495495494 	299.9590965710559 	0.1184946139011581 	101276.6526822873
-0.7970470470470474 	299.9589537290713 	0.1189096122214834 	101276.4838735267
-0.7945445445445446 	299.9588184650831 	0.1193024108235758 	101276.3240189536
-0.7920420420420423 	299.9586907768887 	0.1196725304693564 	101276.1731175823
-0.7895395395395397 	299.9585706696897 	0.1200200548434341 	101276.0311756329
-0.7870370370370371 	299.9584581580787 	0.1203452328400319 	101275.8982106695
-0.7845345345345348 	299.9583532873652 	0.1206494930697679 	101275.774275985
-0.7820320320320323 	299.9582561180294 	0.1209314831762415 	101275.6594429868
-0.7795295295295296 	299.9581666902598 	0.1211902072135335 	101275.5537588698
-0.7770270270270272 	299.958085017767 	0.1214268796323358 	101275.4572396096
-0.7745245245245247 	299.9580111009174 	0.1216399727855882 	101275.3698855434
-0.7720220220220222 	299.9579449353678 	0.1218316282191635 	101275.2916916589
-0.7695195195195199 	299.9578865007486 	0.1220023842557178 	101275.2226346734
-0.767017017017017 	299.9578357678801 	0.122149520929302 	101275.1626792938
-0.7645145145145147 	299.9577927477669 	0.1222744339350962 	101275.1118386968
-0.7620120120120122 	299.9577575035655 	0.1223748113746806 	101275.0701880595
-0.7595095095095097 	299.9577300862328 	0.1224534986478485 	101275.0377865936
-0.7570070070070072 	299.9577105032208 	0.1225109656271386 	101275.0146437909
-0.7545045045045048 	299.9576987580724 	0.1225447729054451 	101275.0007628652
-0.7520020020020022 	299.9576948553491 	0.1225571450028112 	101274.9961508943
-0.7494994994994997 	299.9576987781026 	0.1225450808086462 	101275.0007861468
-0.7469969969969972 	299.957710474385 	0.1225110407809524 	101275.0146072272
-0.7444944944944945 	299.9577298942392 	0.1224561047801313 	101275.0375571929
-0.7419919919919924 	299.957757041796 	0.1223774939286957 	101275.0696394721
-0.7394894894894897 	299.9577919539605 	0.1222763785023311 	101275.110897853
-0.7369869869869872 	299.9578346490631 	0.1221520301820951 	101275.1613533444
-0.7344844844844846 	299.9578851304385 	0.1220054365097969 	101275.2210099376
-0.7319819819819822 	299.9579434143502 	0.1218368956959936 	101275.2898877275
-0.7294794794794797 	299.9580095107649 	0.1216454409575091 	101275.3679984221
-0.7269769769769773 	299.9580833902298 	0.1214316515293496 	101275.4553071919
-0.7244744744744747 	299.9581649880457 	0.1211951486360795 	101275.5517377074
-0.721971971971972 	299.958254244966 	0.1209366281126492 	101275.6572191658
-0.7194694694694695 	299.9583511436713 	0.1206561637814916 	101275.7717311874
-0.7169669669669674 	299.9584556902854 	0.1203533169413815 	101275.8952809188
-0.7144644644644647 	299.9585678794267 	0.1200283615179535 	101276.0278623706
-0.711961961961962 	299.9586876929985 	0.1196809539700897 	101276.1694555513
-0.7094594594594597 	299.9588151265964 	0.1193116865368026 	101276.3200555631
-0.7069569569569573 	299.9589501887207 	0.1189204023420209 	101276.4796711008
-0.7044544544544545 	299.959092873784 	0.1185069989798799 	101276.6482936421
-0.7019519519519523 	299.9592431282061 	0.1180719193369454 	101276.825860224
-0.6994494494494495 	299.9594008588161 	0.1176149656202992 	101277.0122621922
-0.6969469469469471 	299.959565991409 	0.1171365609179497 	101277.2074130341
-0.6944444444444446 	299.9597385185215 	0.1166366125376177 	101277.4113050108
-0.6919419419419421 	299.9599184628158 	0.1161152909169106 	101277.6239630453
-0.6894394394394396 	299.9601058045272 	0.1155726590266228 	101277.8453635537
-0.6869369369369374 	299.9603004735545 	0.11500857682875 	101278.0754227082
-0.6844344344344344 	299.9605024244406 	0.1144231298585997 	101278.3140863206
-0.6819319319319321 	299.9607116829628 	0.1138166330278584 	101278.5613856484
-0.6794294294294296 	299.9609282858887 	0.113189781942855 	101278.8173650685
-0.6769269269269272 	299.9611521517767 	0.112541878664471 	101279.0819303302
-0.6744244244244245 	299.9613830912148 	0.1118729877131468 	101279.3548577942
-0.6719219219219222 	299.9616209647283 	0.1111827053458455 	101279.6359823367
-0.6694194194194195 	299.9618658267594 	0.1104721820632659 	101279.9253644727
-0.6669169169169172 	299.9621178344865 	0.1097430759258806 	101280.22318949
-0.6644144144144146 	299.9623770061299 	0.1089931826616408 	101280.5294810624
-0.661911911911912 	299.9626431114511 	0.1082221269982162 	101280.8439659921
-0.6594094094094097 	299.9629158797308 	0.1074316161673868 	101281.1663262939
-0.656906906906907 	299.9631952905979 	0.1066212132042839 	101281.4965402045
-0.6544044044044046 	299.9634815648963 	0.105792221883961 	101281.8348672957
-0.6519019019019021 	299.963774825475 	0.1049439073016021 	101282.1814538374
-0.6493993993993996 	299.9640748588117 	0.104074685497037 	101282.5360465115
-0.6468968968968971 	299.9643812779551 	0.1031870961213793 	101282.8981861006
-0.6443943943943946 	299.9646939132578 	0.1022794624330174 	101283.2676722116
-0.6418918918918921 	299.9650129508787 	0.1013546671923233 	101283.6447240917
-0.6393893893893897 	299.965338691673 	0.1004124889382142 	101284.0296970173
-0.6368868868868871 	299.9656712109857 	0.09944916765916299 	101284.4226798643
-0.6343843843843846 	299.9660101693804 	0.09846777142512458 	101284.8232722707
-0.6318818818818821 	299.9663550265051 	0.09746729105170714 	101285.2308367593
-0.6293793793793795 	299.9667055749191 	0.09645126085619243 	101285.6451293779
-0.6268768768768773 	299.9670621399401 	0.09541890293715895 	101286.0665409183
-0.6243743743743745 	299.9674251423593 	0.0943668832072916 	101286.4955725935
-0.6218718718718721 	299.9677946528558 	0.09329723183915191 	101286.9322816866
-0.6193693693693696 	299.9681702022735 	0.09220909005279578 	101287.3761350822
-0.6168668668668671 	299.9685511335425 	0.09110557268117293 	101287.826349907
-0.6143643643643645 	299.9689371971347 	0.08998749716582516 	101288.2826340049
-0.6118618618618621 	299.969328797253 	0.08885288874699143 	101288.7454630707
-0.6093593593593596 	299.9697265167607 	0.08770083009958786 	101289.2155243915
-0.6068568568568571 	299.9701305867996 	0.08653010527822338 	101289.693090498
-0.6043543543543546 	299.9705405490898 	0.08534268626943849 	101290.1776190188
-0.6018518518518521 	299.9709555025078 	0.0841407236507319 	101290.6680459116
-0.5993493493493496 	299.9713748535286 	0.08292545174299584 	101291.163672501
-0.5968468468468471 	299.9717987267279 	0.08169705063893729 	101291.6646485239
-0.5943443443443446 	299.9722278632115 	0.08045325269176357 	101292.1718498804
-0.591841841841842 	299.9726629917762 	0.07919274473004659 	101292.6861380302
-0.5893393393393397 	299.9731042074239 	0.07791509843185757 	101293.207624694
-0.5868368368368371 	299.9735508019356 	0.0766219722745157 	101293.7354708659
-0.5843343343343346 	299.9740017133332 	0.07531632958262841 	101294.2684209971
-0.5818318318318321 	299.9744562236748 	0.07399959380285843 	101294.8056257203
-0.5793293293293297 	299.9749143910472 	0.07267226598457906 	101295.3471536091
-0.5768268268268271 	299.9753770333243 	0.07133141395293754 	101295.893971788
-0.5743243243243245 	299.9758450503556 	0.06997473975615309 	101296.4471439577
-0.5718218218218221 	299.9763187686691 	0.06860232460441706 	101297.0070559853
-0.5693193193193196 	299.9767976969527 	0.06721500315448109 	101297.5731268019
-0.5668168168168171 	299.9772808019948 	0.06581584085523697 	101298.1441362405
-0.5643143143143147 	299.9777670718312 	0.06440726451450808 	101298.7188883583
-0.5618118118118121 	299.9782561299953 	0.0629907824494301 	101299.2969379081
-0.5593093093093094 	299.9787483359233 	0.06156520336750485 	101299.8787131476
-0.5568068068068072 	299.9792444894499 	0.0601276852257933 	101300.4651583239
-0.5543043043043046 	299.9797454194902 	0.05867601188125605 	101301.0572522862
-0.551801801801802 	299.9802513900568 	0.05720963323031995 	101301.6553068491
-0.5492992992992995 	299.9807620063047 	0.05573085436217733 	101302.2588537829
-0.5467967967967969 	299.9812763264729 	0.05424146235969968 	101302.8667808836
-0.5442942942942947 	299.9817933296914 	0.05274388457104644 	101303.4778814153
-0.5417917917917919 	299.9823123575467 	0.05123939696161117 	101304.0913780312
-0.5392892892892895 	299.9828333650237 	0.04972884226009529 	101304.7072174403
-0.536786786786787 	299.9833568499663 	0.04821321336199842 	101305.3259874983
-0.5342842842842846 	299.983883545924 	0.04668821321633158 	101305.9485574577
-0.531781781781782 	299.9844140618583 	0.04515058966334733 	101306.5756452351
-0.5292792792792794 	299.9849487054747 	0.0436016623245454 	101307.2076148829
-0.526776776776777 	299.9854872530988 	0.0420399883512531 	101307.8442021208
-0.5242742742742745 	299.9860291080184 	0.0404703388822879 	101308.4847001921
-0.521771771771772 	299.9865734662694 	0.03889541945069249 	101309.1281606258
-0.5192692692692695 	299.9871195967772 	0.03731356831954214 	101309.7737186625
-0.516766766766767 	299.9876669619517 	0.03572847133114696 	101310.4207383541
-0.5142642642642645 	299.988215463542 	0.03413787905686559 	101311.0691052651
-0.511761761761762 	299.9887652856927 	0.03254482568876473 	101311.7190353653
-0.5092592592592596 	299.9893167709664 	0.03094857468735952 	101312.3709358092
-0.506756756756757 	299.9898702988912 	0.02934453978522568 	101313.0252538755
-0.5042542542542544 	299.9904262469228 	0.02773392084479073 	101313.6824353583
-0.5017517517517521 	299.9909848040508 	0.02611488684945511 	101314.34270461
-0.4992492492492494 	299.9915459055676 	0.02448939446239587 	101315.0059841971
-0.496746746746747 	299.9921092875443 	0.02285788615143687 	101315.6719635167
-0.4942442442442445 	299.9926745947897 	0.02122039874774198 	101316.3402215965
-0.4917417417417421 	299.9932414425165 	0.01957894932844012 	101317.0103029202
-0.4892392392392395 	299.9938094368345 	0.01793342974730033 	101317.6817427073
-0.486736736736737 	299.994378262201 	0.01628579325103212 	101318.3541678963
-0.4842342342342345 	299.994947677628 	0.01463651362003077 	101319.0272947873
-0.481731731731732 	299.9955175430794 	0.01298548975639226 	101319.7009560941
-0.4792292292292296 	299.9960878226463 	0.01133337227781899 	101320.3751101145
-0.4767267267267268 	299.9966585397302 	0.00967965556599833 	101321.0497847361
-0.4742242242242246 	299.9972296604503 	0.008025080736253236 	101321.7249390579
-0.471721721721722 	299.9978011461625 	0.0063696457926803 	101322.40052967
-0.4692192192192195 	299.9983728891262 	0.004713466412628842 	101323.0764274028
-0.4667167167167169 	299.9989448108323 	0.003056980963336268 	101323.752539339
-0.4642142142142145 	299.9995168261058 	0.001399904953882412 	101324.4287637778
-0.461711711711712 	300.0000888909145 	0.0006607912172654118 	101325.1050502097
-0.4592092092092094 	300.0006609941199 	0.001914639743659267 	101325.7813866318
-0.456706706706707 	300.0012330884115 	0.003571975304038645 	101326.4577164392
-0.4542042042042045 	300.0018050979874 	0.005229011775185113 	101327.1339497317
-0.451701701701702 	300.0023769308514 	0.006885767053009372 	101327.8099751472
-0.4491991991991995 	300.002948469035 	0.008541483833273081 	101328.4856547616
-0.4466966966966969 	300.0035195722924 	0.01019591137463192 	101329.1608242967
-0.4441941941941945 	300.0040900877455 	0.01184827576098093 	101329.8353032997
-0.441691691691692 	300.0046598640774 	0.01349845283523093 	101330.508913001
-0.4391891891891895 	300.0052287699676 	0.01514652705221013 	101331.1814954049
-0.436686686686687 	300.0057966974708 	0.01679191867295312 	101331.8529221725
-0.4341841841841846 	300.006363555697 	0.01843440606526916 	101332.5230874463
-0.431681681681682 	300.0069292578036 	0.02007289260718457 	101333.1918903347
-0.4291791791791794 	300.0074937072455 	0.02170759290765263 	101333.8592186581
-0.426676676676677 	300.0080567975554 	0.02333873162096659 	101334.5249435836
-0.4241741741741744 	300.0086184138233 	0.02496604740481373 	101335.1889268297
-0.421671671671672 	300.0091784422043 	0.0265890780299433 	101335.8510325978
-0.4191691691691694 	300.0097367746442 	0.02820592112691545 	101336.5111351058
-0.4166666666666669 	300.0102933095959 	0.02981751016083686 	101337.1691185407
-0.4141641641641645 	300.0108479522175 	0.03142425635866729 	101337.8248718445
-0.411661661661662 	300.0114006108854 	0.03302611487485934 	101338.4782833552
-0.4091591591591594 	300.0119511902379 	0.0346229143858247 	101339.1292375491
-0.406656656656657 	300.0124995906713 	0.03621047334433677 	101339.777613503
-0.4041541541541545 	300.013045704219 	0.03779070147105888 	101340.4232861865
-0.401651651651652 	300.0135894207922 	0.03936587473969722 	101341.0661305482
-0.3991491491491494 	300.0141306345648 	0.04093349580223987 	101341.7060232086
-0.396646646646647 	300.0146692401279 	0.04249565726564634 	101342.342840078
-0.3941441441441444 	300.0152051381006 	0.044047997882862 	101342.9764555072
-0.3916416416416419 	300.0157382264289 	0.04559032212114411 	101343.6067473072
-0.3891391391391395 	300.0162684125794 	0.04712635623586858 	101344.2336044875
-0.3866366366366368 	300.0167956083713 	0.04865355434945788 	101344.8569284721
-0.3841341341341344 	300.0173197287635 	0.0501730246869309 	101345.476624584
-0.381631631631632 	300.0178406873952 	0.05168207990733853 	101346.0925922358
-0.3791291291291294 	300.0183583928998 	0.05318126384633666 	101346.7047191078
-0.3766266266266269 	300.0188727450516 	0.05467136624456718 	101347.312879666
-0.3741241241241244 	300.0193836335897 	0.05615074031991914 	101347.9169393514
-0.371621621621622 	300.019890944968 	0.057620895595803 	101348.516766282
-0.3691191191191194 	300.0203945773928 	0.05907991194034604 	101349.112245415
-0.366616616616617 	300.0208944447888 	0.06052783438443975 	101349.7032833153
-0.3641141141141143 	300.0213904781328 	0.06196489444110168 	101350.289799706
-0.3616116116116119 	300.0218826128283 	0.06339027602864039 	101350.8717130821
-0.3591091091091095 	300.0223707760813 	0.06480448813153901 	101351.4489293439
-0.356606606606607 	300.0228548783734 	0.06620643262894067 	101352.0213358664
-0.3541041041041044 	300.0233348081857 	0.06759620464802774 	101352.5888012203
-0.3516016016016019 	300.0238104408665 	0.06897379192210459 	101353.1511846275
-0.3490990990990994 	300.0242816566504 	0.07033870379445574 	101353.7083548282
-0.346596596596597 	300.024748362515 	0.07169113380928929 	101354.2602070884
-0.3440940940940944 	300.0252104966206 	0.07303019257818993 	101354.8066657017
-0.3415915915915919 	300.0256680147444 	0.07435586290786297 	101355.3476701429
-0.3390890890890895 	300.0261208711023 	0.07566782676336788 	101355.8831550597
-0.3365865865865869 	300.0265689981229 	0.07696578458109732 	101356.4130357692
-0.3340840840840844 	300.0270123020961 	0.07824988913385519 	101356.937204747
-0.3315815815815819 	300.0274506714056 	0.07951942206560106 	101357.4555386021
-0.3290790790790794 	300.0278839888413 	0.08077438466139969 	101357.9679103116
-0.3265765765765769 	300.0283121476317 	0.08201427197020597 	101358.4741989975
-0.3240740740740744 	300.0287350563793 	0.08323904544166555 	101358.9742946644
-0.3215715715715718 	300.0291526443215 	0.08444897092854448 	101359.4681045949
-0.3190690690690695 	300.0295648653596 	0.08564347793158825 	101359.955562686
-0.3165665665665668 	300.0299716923987 	0.08682256863752008 	101360.4366277822
-0.3140640640640644 	300.0303730914109 	0.0879853424273177 	101360.9112592127
-0.311561561561562 	300.030768992308 	0.08913180471975318 	101361.3793830616
-0.3090590590590593 	300.0311592870106 	0.09026218673317524 	101361.8408815204
-0.3065565565565568 	300.031543850338 	0.09137594770401185 	101362.295617989
-0.3040540540540545 	300.0319225771407 	0.09247319899442849 	101362.7434727481
-0.3015515515515518 	300.0322953954097 	0.09355270071053524 	101363.1843561258
-0.2990490490490494 	300.0326622531538 	0.09461492878479896 	101363.6181987178
-0.2965465465465469 	300.033023112331 	0.09566045106673561 	101364.0449420279
-0.2940440440440444 	300.0333779387749 	0.09668889949332991 	101364.4645374605
-0.2915415415415418 	300.0337266972055 	0.09770040293400824 	101364.8769402074