/*--------------------------------*- C++ -*----------------------------------*\
  =========                 |
  \\      /  F ield         | OpenFOAM: The Open Source CFD Toolbox
   \\    /   O peration     | Website:  https://openfoam.org
    \\  /    A nd           | Version:  7
     \\/     M anipulation  |
\*---------------------------------------------------------------------------*/
FoamFile
{
    version     2.0;
    format      ascii;
    class       volScalarField;
    location    "0.00081";
    object      Uy;
}
// * * * * * * * * * * * * * * * * * * * * * * * * * * * * * * * * * * * * * //

dimensions      [0 1 -1 0 0 0 0];

internalField   nonuniform List<scalar> 
5000
(
1.2294877e-16
1.3813789e-16
0
0
-7.2603157e-17
8.2654304e-32
7.2800593e-17
0
0
-7.2934015e-17
-1.4590276e-16
7.295794e-17
7.2958328e-17
-7.29533e-17
0
-7.2934368e-17
-5.3278052e-48
7.290731e-17
0
7.287748e-17
-7.2861682e-17
-7.284741e-17
1.4566316e-16
-7.2817279e-17
-7.2801434e-17
-5.999328e-31
7.2771225e-17
7.2756875e-17
-1.4548198e-16
1.2608796e-30
-1.270937e-30
7.2696415e-17
1.4536101e-16
-1.4533227e-16
1.2595542e-30
-6.3171686e-30
-2.518057e-30
1.4521097e-16
-1.4517905e-16
-1.4515021e-16
1.4511822e-16
-4.9896602e-30
-1.4505724e-16
7.2514116e-17
2.1749407e-16
-7.2483453e-17
-7.2467289e-17
-4.9627378e-30
-1.4487268e-16
0
7.2405092e-17
1.0287251e-32
-7.237339e-17
1.4471615e-16
-2.5289476e-30
-1.4465051e-16
7.2307655e-17
-2.4963883e-30
-7.2272878e-17
0
7.2236205e-17
2.4630641e-30
2.051966e-32
7.2177326e-17
-7.2155249e-17
2.5217039e-30
7.2110287e-17
-7.2087131e-17
-7.2062315e-17
7.2037651e-17
7.2011855e-17
-7.198618e-17
-7.1959965e-17
1.4386811e-16
7.190823e-17
-7.1883077e-17
0
7.1835375e-17
-1.0205303e-32
-7.1793164e-17
7.1774771e-17
-2.0394992e-32
2.0391019e-32
7.1732996e-17
7.172401e-17
2.4969635e-30
-7.1713837e-17
0
-7.1713447e-17
-7.4398174e-30
-2.5072991e-30
7.1728925e-17
7.1737824e-17
-1.4349636e-16
-4.9662643e-30
7.1772129e-17
0
0
-7.181188e-17
-4.9809941e-30
1.436756e-16
-7.1849886e-17
-1.4372227e-16
0
7.1880514e-17
7.1888416e-17
-7.1895016e-17
-7.1900266e-17
0
0
7.1907498e-17
7.1907028e-17
0
-7.1902283e-17
2.5134657e-30
7.1892909e-17
-7.1886662e-17
2.0429376e-32
-2.512532e-30
-1.5423018e-49
1.437061e-16
-3.0628454e-32
-7.1832097e-17
0
-7.1809088e-17
7.1796955e-17
7.1784473e-17
-1.4354337e-16
-7.175863e-17
1.4349069e-16
7.1731867e-17
-7.1718219e-17
-7.1704429e-17
-7.1690518e-17
0
7.1662411e-17
7.1648246e-17
-7.1634023e-17
-2.4833782e-30
7.160545e-17
-7.1591116e-17
-7.1576761e-17
0
7.154801e-17
7.1533625e-17
-7.1519238e-17
7.1504855e-17
-4.0637632e-32
-7.1476113e-17
7.1461761e-17
-7.1447427e-17
4.9741154e-30
7.1418825e-17
-7.1404566e-17
7.139034e-17
7.1376151e-17
-7.1362005e-17
0
0
-7.1319868e-17
-7.1305941e-17
7.1292083e-17
7.1278298e-17
-7.1264593e-17
-4.9411816e-30
7.1237442e-17
-7.1224005e-17
-7.1210665e-17
0
7.1184286e-17
7.1171248e-17
0
-7.114547e-17
-7.1132719e-17
0
7.1107457e-17
1.4791079e-29
-7.1082427e-17
7.1069956e-17
7.1057485e-17
-7.1044988e-17
-4.9058376e-30
4.8847794e-30
3.0272115e-32
7.099409e-17
-7.0980948e-17
-9.8430535e-30
4.8802444e-30
-4.8792784e-30
7.0925368e-17
0
0
-7.0879125e-17
-7.0862574e-17
0
0
7.0808874e-17
6.71446e-49
-7.0769323e-17
0
7.0726524e-17
-7.0703875e-17
-1.9586361e-29
1.4131217e-16
-7.0630972e-17
-1.4659069e-29
-1.0029803e-32
-7.0551158e-17
7.0523223e-17
-1.0017903e-32
-9.7534272e-30
4.8746807e-30
-7.0406702e-17
0
7.0346846e-17
4.866411e-30
1.9507328e-29
7.0257472e-17
0
-7.0199536e-17
-7.017142e-17
0
0
0
7.0067318e-17
4.8475191e-30
-7.0021732e-17
0
0
6.9963343e-17
6.9946787e-17
-6.9931757e-17
-6.9918275e-17
0
6.9896001e-17
6.9887201e-17
-6.9879934e-17
-6.987417e-17
0
6.9866969e-17
-1.9400238e-29
-4.8450758e-30
6.9865972e-17
-6.9867849e-17
-6.9870769e-17
0
6.9879398e-17
-9.7127563e-30
6.9891101e-17
9.694689e-30
-1.3981017e-16
6.9912679e-17
-9.6978361e-30
-2.4277193e-29
-4.8401015e-30
-6.9944859e-17
6.9952904e-17
6.9960785e-17
0
-6.9975762e-17
-6.9982727e-17
0
6.9995323e-17
7.0000859e-17
-1.4001166e-16
-7.0010206e-17
7.0013956e-17
7.0017059e-17
1.942312e-29
-7.0021226e-17
7.0022213e-17
-4.8559869e-30
-7.0022055e-17
7.0020949e-17
-4.8657076e-30
4.8754878e-30
-1.9899072e-32
-4.8352173e-30
7.0005575e-17
0
0
-6.998909e-17
-6.9982511e-17
0
0
0
0
6.9942567e-17
4.8199907e-30
-1.3984751e-16
2.9806059e-32
6.9903599e-17
6.9893076e-17
-9.7024595e-30
-9.6810675e-30
-9.9276977e-33
-6.9848473e-17
-6.9836787e-17
-6.9824922e-17
1.3962578e-16
2.0940213e-16
-6.9788394e-17
-1.395519e-16
0
6.9750739e-17
6.973799e-17
-6.9725158e-17
1.9813414e-32
-2.971459e-32
1.9806023e-32
6.9673164e-17
6.9660034e-17
-6.9646863e-17
-1.3926731e-16
6.9620417e-17
3.7506368e-49
6.9593863e-17
1.9281583e-29
-1.3913446e-16
0
0
1.3905435e-16
-3.86052e-29
-1.3900086e-16
0
6.9473667e-17
6.9460282e-17
-6.9446897e-17
9.8670956e-33
-9.6382942e-30
9.8632921e-33
6.9393369e-17
-6.9379993e-17
-6.9366621e-17
0
6.933989e-17
-9.6252991e-30
-6.9313178e-17
1.3859966e-16
-1.9219787e-29
-6.9273152e-17
-1.9232074e-29
-1.38493e-16
1.3846636e-16
6.9219869e-17
-6.9206564e-17
-9.8329546e-33
-6.9179975e-17
0
0
6.9140141e-17
-9.5877555e-30
-1.3822724e-16
9.819753e-33
2.0726138e-16
-6.9073888e-17
-6.9060658e-17
1.3809487e-16
-6.903422e-17
6.9021011e-17
1.3801562e-16
-6.8994614e-17
-6.8981426e-17
-6.8968245e-17
6.8955071e-17
7.5037365e-49
-6.8928743e-17
6.891559e-17
-6.8902444e-17
6.8889304e-17
1.9086391e-29
1.9572055e-32
6.8849928e-17
-1.3767363e-16
6.8823712e-17
1.9107338e-29
-1.908415e-29
-6.8784439e-17
-1.3754272e-16
2.0627488e-16
1.9069644e-29
-3.8132044e-29
1.9042871e-29
-1.3741216e-16
1.3738609e-16
-1.9051554e-29
-1.3733399e-16
0
0
6.8627969e-17
-9.5167557e-30
-6.8601987e-17
-6.8589006e-17
6.8576031e-17
2.0568919e-16
-6.8550104e-17
-6.853715e-17
-1.947575e-32
-6.8511263e-17
0
1.3697081e-16
1.3694497e-16
-6.845957e-17
-1.3689333e-16
-6.8433764e-17
1.3684174e-16
1.3681597e-16
-1.3679021e-16
-1.3676447e-16
0
1.3671302e-16
-6.8343655e-17
-1.3666162e-16
6.8317971e-17
6.8305138e-17
-9.7049213e-33
9.4799283e-30
6.8266681e-17
-6.8253876e-17
-6.8241077e-17
6.8228284e-17
-9.4613493e-30
-9.6921894e-33
-9.4578054e-30
-6.8177182e-17
6.8164423e-17
-2.8386544e-29
-9.4604117e-30
-1.8907605e-29
-6.8113453e-17
6.8100727e-17
-9.4533424e-30
-1.8874132e-29
-9.6722755e-33
-1.3609978e-16
-6.8037196e-17
6.8024509e-17
1.3602366e-16
-9.4410063e-30
-1.3597298e-16
-6.7973829e-17
1.3592235e-16
6.7948528e-17
-6.7935888e-17
-6.7923254e-17
-1.8847779e-29
6.7898005e-17
0
0
6.7860181e-17
0
-6.7834997e-17
6.7822415e-17
9.6363578e-33
-1.8816318e-29
0
-6.7772152e-17
6.7759602e-17
6.7747059e-17
-1.3546904e-16
-6.7721991e-17
6.7709467e-17
0
0
-6.7671934e-17
1.8797294e-29
6.7646943e-17
0
0
-6.7609506e-17
2.8165135e-29
6.7584579e-17
0
0
0
0
0
0
0
0
1.3494545e-16
3.7445607e-29
-6.7447936e-17
6.7435552e-17
-6.7423174e-17
6.7410802e-17
-1.873436e-29
-6.7386077e-17
-1.8708343e-29
-6.7361378e-17
0
0
6.7324375e-17
1.8691218e-29
-6.7299738e-17
0
0
0
0
0
0
0
1.3440288e-16
-5.5933101e-29
-1.3435385e-16
6.7164677e-17
9.5429351e-33
6.7140201e-17
-3.7222968e-29
-1.342315e-16
-6.7103534e-17
-3.4391683e-49
2.0123736e-16
0
-1.3410946e-16
0
0
1.3403638e-16
-1.8587195e-29
-2.0098159e-16
6.6981709e-17
6.6969561e-17
-6.6957419e-17
6.6945282e-17
-6.6933152e-17
-1.8563618e-29
6.6908911e-17
-6.68968e-17
0
-6.6872595e-17
6.6860502e-17
1.3369683e-16
-6.6836335e-17
-6.682426e-17
-6.6812192e-17
-6.680013e-17
1.3357615e-16
6.6776024e-17
-6.676398e-17
0
6.6739911e-17
-6.6727885e-17
-6.6715866e-17
2.0011156e-16
1.8954962e-32
-1.3335969e-16
6.6667848e-17
9.2545028e-30
6.6643875e-17
-1.8937924e-32
-1.3323985e-16
6.6607961e-17
0
-1.8489065e-29
-9.4604642e-33
-6.6560156e-17
6.6548219e-17
-1.8475803e-29
-9.2267922e-30
-9.4519866e-33
-6.6500529e-17
6.648862e-17
3.3396321e-49
-1.8455958e-29
-9.4435288e-33
-1.3288208e-16
-9.2135875e-30
6.6417281e-17
0
0
-6.6381684e-17
-2.7616076e-29
6.6357978e-17
-6.6346132e-17
9.2098565e-30
1.3275753e-48
-9.2065708e-30
6.6298802e-17
6.6286982e-17
9.1922292e-30
-6.6263357e-17
0
0
6.6227958e-17
-6.6216169e-17
5.5113289e-29
6.6192607e-17
-6.6180834e-17
0
6.6157306e-17
6.614555e-17
-6.61338e-17
-6.6122057e-17
0
6.6098589e-17
6.6086865e-17
-1.321503e-16
-6.6063438e-17
6.6051736e-17
6.6040042e-17
9.1579971e-30
6.6016679e-17
1.8328278e-29
-1.319867e-16
0
0
0
6.5946815e-17
6.5935208e-17
0
-6.5912032e-17
-9.1308936e-30
6.5888908e-17
0
0
-6.5854333e-17
-9.1322663e-30
9.1213194e-30
-6.5819904e-17
6.5808464e-17
-2.7377743e-29
-6.5785642e-17
0
-6.5762903e-17
-9.1289509e-30
6.5740254e-17
-6.5728965e-17
6.5717701e-17
6.5706463e-17
-6.5695251e-17
0
6.567291e-17
6.5661783e-17
-6.5650686e-17
-6.563962e-17
0
-6.5617583e-17
6.5606615e-17
6.559568e-17
-6.558478e-17
-1.3114783e-16
3.641113e-29
1.966569e-16
2.8513819e-49
-6.5530833e-17
-1.3104032e-16
3.6344145e-29
1.3099786e-16
-6.5488379e-17
6.5477869e-17
-6.5467401e-17
-6.5456977e-17
1.3089319e-16
0
0
-1.3083143e-16
-2.07697e-48
1.3079071e-16
0
0
-1.3073031e-16
-1.9917873e-48
1.306905e-16
0
0
-1.3063149e-16
-6.5306001e-17
1.3059261e-16
6.5286652e-17
0
-1.3053497e-16
3.6241679e-29
1.30497e-16
-6.5239074e-17
0
6.5220355e-17
-6.521106e-17
9.2657343e-33
6.51926e-17
-6.5183432e-17
6.5174306e-17
6.516522e-17
-6.5156175e-17
-6.5147169e-17
1.8087582e-29
6.5129272e-17
-6.512038e-17
-1.8080175e-29
6.5102705e-17
-6.509392e-17
6.508517e-17
6.5076454e-17
-6.5067771e-17
-6.5059119e-17
1.8063229e-29
6.504191e-17
-6.5033351e-17
9.2405828e-33
6.5016318e-17
-6.5007844e-17
6.4999396e-17
6.4990974e-17
-6.4982578e-17
-1.2994841e-16
3.6097917e-29
1.2991507e-16
-6.4949232e-17
9.2286643e-33
1.2986539e-16
1.845264e-32
-6.4916237e-17
0
6.4899858e-17
0
-6.4883553e-17
0
0
0
-6.4851148e-17
-1.6139565e-49
6.4835042e-17
0
6.4818994e-17
-1.7996723e-29
-6.4803005e-17
0
0
0
-6.4771188e-17
1.798347e-29
6.4755358e-17
0
6.4739578e-17
1.7965508e-29
-6.4723848e-17
0
6.4708166e-17
-6.4700343e-17
3.5946044e-29
6.4684733e-17
-6.4676946e-17
0
-6.4661406e-17
-1.7953033e-29
6.4645913e-17
0
6.4630466e-17
-6.4622759e-17
-3.5884635e-29
6.460738e-17
-3.5866927e-29
-9.1790818e-33
1.7942979e-29
-9.1769088e-33
-6.4569126e-17
0
6.4553898e-17
-1.791405e-29
-1.7911944e-29
1.4075969e-49
-1.7916909e-29
0
-1.2901689e-16
-1.7910617e-29
6.4493365e-17
-6.4485835e-17
1.7895181e-29
6.4470797e-17
6.4463286e-17
1.7898088e-29
-1.7896005e-29
6.4440785e-17
-6.4433292e-17
-6.4425802e-17
0
-6.4410828e-17
1.7883526e-29
6.4395855e-17
0
0
0
-1.2873177e-16
7.1484171e-29
1.2870175e-16
0
0
0
0
0
0
0
-1.2858091e-16
3.5718401e-29
1.2855041e-16
6.4267553e-17
-6.425988e-17
-6.4252185e-17
1.7848539e-29
3.5638004e-29
6.4228951e-17
-6.4221153e-17
6.4213325e-17
6.4205466e-17
-6.4197575e-17
-6.4189651e-17
3.5625715e-29
6.4173693e-17
6.4165658e-17
-1.7797049e-29
-6.4149465e-17
-6.4141304e-17
6.4133099e-17
6.4124847e-17
-6.4116546e-17
6.4108196e-17
0
-6.409134e-17
-6.4082831e-17
1.7773937e-29
6.406564e-17
-6.4056955e-17
6.4048209e-17
6.4039398e-17
-6.4030522e-17
6.4021578e-17
1.7775015e-29
-6.400348e-17
-6.3994321e-17
-9.0928277e-33
1.2795155e-16
3.5515293e-29
-6.3956907e-17
-6.3947347e-17
0
6.3927963e-17
0
0
0
6.3888059e-17
6.387783e-17
-6.3867493e-17
-6.3857044e-17
0
6.3835798e-17
-1.7732001e-29
-6.3814061e-17
0
0
6.3780456e-17
-3.5396623e-29
-6.3757328e-17
0
0
6.3721435e-17
-3.5363406e-29
-6.3696631e-17
0
6.3671057e-17
-1.7676549e-29
1.7663807e-29
-1.7669091e-29
-6.3617324e-17
0
-6.3589009e-17
3.5279617e-29
6.3559609e-17
0
6.3529021e-17
-6.3513247e-17
-6.3497132e-17
1.2696132e-16
1.7640676e-29
-1.2689316e-16
1.7612952e-29
6.3410856e-17
0
0
6.3353833e-17
-1.7577541e-29
-6.3313258e-17
0
6.3270401e-17
-6.3248031e-17
-6.3224983e-17
6.320124e-17
0
-6.3151545e-17
6.3125522e-17
3.5024554e-29
-3.5009161e-29
6.3042288e-17
-5.2474195e-29
6.2982074e-17
-6.2950413e-17
1.7462039e-29
-3.4923127e-29
-1.2569725e-16
1.7423858e-29
6.2774549e-17
0
0
0
-1.2521867e-16
-6.2564094e-17
1.2503427e-16
6.2468383e-17
0
0
6.2310568e-17
2.5763732e-48
-6.2194874e-17
0
-1.2413988e-16
-6.2003762e-17
1.2386995e-16
6.1863468e-17
0
-1.2342372e-16
-1.7516732e-32
1.84644e-16
-1.7049076e-29
-1.2274181e-16
6.1277071e-17
3.4776535e-32
-6.1078133e-17
1.6939583e-29
3.376641e-29
6.0749385e-17
0
6.0508201e-17
-3.3524355e-29
-1.2049576e-16
6.0110113e-17
-9.9841746e-29
-5.9818475e-17
1.1932846e-16
-8.4560437e-33
-5.9337937e-17
0
0
0
-5.8608464e-17
5.8408851e-17
1.1640381e-16
-5.7987393e-17
-1.6040217e-29
-1.5959907e-29
-5.7296174e-17
0
5.6793229e-17
-8.033166e-33
-1.1250856e-16
5.5970667e-17
3.08893e-29
-5.5373875e-17
-5.5060166e-17
3.0413693e-29
1.0880156e-16
0
5.3696951e-17
5.3327679e-17
0
-5.2553022e-17
-5.2147072e-17
5.1728329e-17
0
-5.0851322e-17
0
0
4.9432717e-17
-4.0747763e-29
-4.8414909e-17
0
0
4.6774394e-17
4.6196082e-17
-4.5601567e-17
-4.4990577e-17
4.436284e-17
4.3718086e-17
-8.6112104e-17
-4.2376477e-17
1.1579381e-29
4.0963682e-17
-2.2319254e-29
-2.190191e-29
3.8706689e-17
-3.7916667e-17
3.7107424e-17
-3.6278744e-17
-3.0209795e-32
3.4562256e-17
-6.7348112e-17
-3.2765638e-17
-3.1836828e-17
6.1774923e-17
5.9834765e-17
-2.8926446e-17
2.7914516e-17
-2.6881468e-17
1.4343392e-29
4.9503146e-17
-2.3654533e-17
6.2545926e-30
-5.9442474e-30
-2.0234122e-17
0
0
1.6618751e-17
1.5370195e-17
0
-1.2807973e-17
-1.1494369e-17
0
-8.802434e-18
2.0615668e-30
6.0247271e-18
-4.6040058e-18
8.7644373e-31
1.6907762e-18
0
-1.2944558e-18
-1.5660014e-30
4.3659581e-18
-5.9314366e-18
2.0841416e-30
9.1222413e-18
1.0746878e-17
3.4388821e-30
-1.4053354e-17
0
1.7434242e-17
-1.9151828e-17
5.9364641e-33
-1.2573158e-29
-2.4409181e-17
2.6195321e-17
0
5.9631773e-17
-7.0271557e-29
-3.3498182e-17
-1.9628288e-29
-7.4477755e-17
7.8260081e-17
8.2068967e-17
-8.5903488e-17
-8.9762711e-17
-4.6822839e-17
0
5.0739479e-17
1.0542729e-16
-7.7730101e-33
5.6691126e-17
-5.8693414e-17
-6.0704035e-17
6.272246e-17
-1.2949631e-16
1.3356117e-16
1.1461922e-28
-1.4172693e-16
1.4582564e-16
-4.161223e-29
7.7024623e-17
-7.9085961e-17
-8.1150181e-17
8.3216726e-17
2.3657718e-29
1.7470913e-16
-1.7884948e-16
-1.8299004e-16
1.8712967e-16
2.654197e-29
9.7700889e-17
-5.5406077e-29
-1.0182849e-16
-2.8832798e-29
3.9312794e-46
-1.0799448e-16
-2.2008176e-16
1.1208192e-16
-8.7439445e-46
1.1614583e-16
1.9684324e-28
-1.2018203e-16
2.443769e-16
-6.8932896e-29
-2.5235084e-16
9.4210524e-47
1.3012458e-16
0
0
1.3596894e-16
-1.3789401e-16
-2.7961352e-16
0
0
0
1.4732582e-16
1.4917041e-16
0
-1.5281441e-16
1.54613e-16
2.6047855e-28
-3.1632278e-16
0
0
0
1.6505222e-16
1.6672986e-16
-1.6838876e-16
1.7002858e-16
9.5327009e-29
-3.4649922e-16
0
0
3.5585942e-16
-5.1002121e-32
-1.8094425e-16
1.8241917e-16
-1.8387226e-16
1.8530319e-16
-1.0369221e-28
-3.7619469e-16
0
0
1.9211543e-16
1.9340761e-16
0
0
-1.9713923e-16
-1.9833401e-16
0
2.0064851e-16
2.0176789e-16
-2.0286164e-16
2.0392955e-16
2.049715e-16
-2.0598725e-16
-2.0697661e-16
1.1548126e-28
2.0887538e-16
-2.0978441e-16
-5.8467908e-29
2.1152068e-16
0
2.131474e-16
-1.1877174e-28
-2.1466234e-16
2.1537759e-16
-1.1996298e-28
-2.1672308e-16
0
2.1795388e-16
-6.0680293e-29
-3.1131547e-32
2.195824e-16
-2.2006659e-16
-2.2052121e-16
0
4.4268234e-16
-2.4625363e-28
-2.2204115e-16
-3.1597241e-32
-4.4524016e-16
4.4572762e-16
4.4615377e-16
-4.4651837e-16
-2.234106e-16
0
4.4723683e-16
-3.7240592e-28
-4.474075e-16
0
4.4732185e-16
1.2417355e-28
-2.2348994e-16
-6.2021743e-29
-4.4638292e-16
4.4598787e-16
5.5639805e-28
-4.4500407e-16
4.4441482e-16
-1.231289e-28
-4.4304146e-16
-2.2112848e-16
4.4140655e-16
2.2024506e-16
-4.3950801e-16
4.3846031e-16
5.4618027e-28
-4.3616635e-16
4.3491936e-16
-6.0201857e-29
2.1611315e-16
-2.3899391e-28
-6.4390534e-16
1.1870068e-28
4.2604523e-16
-2.1216599e-16
-4.2255242e-16
2.1035312e-16
-1.162609e-28
2.0840769e-16
2.3034743e-28
-2.0632985e-16
4.1048052e-16
-1.6998016e-28
2.2534789e-28
-1.1194272e-28
-2.0055321e-16
0
-1.9801266e-16
-1.9669361e-16
0
0
0
0
0
1.8810507e-16
1.8656292e-16
0
-1.8338591e-16
1.8175142e-16
2.9998776e-28
-3.5678406e-16
0
0
0
1.7132053e-16
1.6948124e-16
-1.6761418e-16
-1.6571976e-16
3.2759688e-16
2.6965626e-28
-3.1975388e-16
0
3.1170729e-16
2.5620805e-28
-1.5173283e-16
1.4963727e-16
-1.4751909e-16
1.4537892e-16
7.9496533e-29
-2.8207036e-16
0
0
1.3437147e-16
1.3211365e-16
0
1.2754773e-16
3.5595698e-32
1.2292014e-16
-1.2058531e-16
-3.5471283e-16
0
-2.2701431e-16
-2.2225244e-16
0
3.1901288e-16
2.0786376e-16
-2.0303962e-16
9.9102411e-17
9.6680682e-17
-2.8276694e-16
-9.1828335e-17
-1.2704473e-32
-8.6971043e-17
8.4543166e-17
8.2117217e-17
7.9694263e-17
1.1668788e-46
7.4861635e-17
7.2454114e-17
-7.0053891e-17
0
-1.3055931e-16
-1.2581557e-16
0
5.8199895e-17
1.1173197e-16
2.9714952e-29
5.1243472e-17
9.7913853e-17
-9.3376413e-17
-8.8876624e-17
-4.2208221e-17
-3.9998897e-17
0
3.5646315e-17
1.0051466e-16
-3.1387879e-17
-1.0815535e-44
8.1691608e-17
-5.0383665e-17
-2.3180821e-17
-2.1198248e-17
-3.8489643e-17
3.4642458e-17
1.5428111e-17
-1.3566079e-17
-1.173571e-17
-9.9375267e-18
2.4516075e-17
6.439658e-18
-1.4222464e-17
-3.0760687e-18
1.4460782e-18
-2.7289701e-19
1.6829684e-18
-3.2104087e-18
7.826278e-30
-1.0242302e-29
-2.2693427e-17
8.942451e-18
1.0283295e-17
2.3176005e-17
1.285562e-17
-2.8173055e-17
-4.34305e-33
-1.6438335e-17
1.7559375e-17
5.5931816e-17
-5.9076643e-17
-2.0704436e-17
6.504229e-17
0
-7.0580656e-17
-2.4397192e-17
7.5697939e-17
-2.6033696e-17
-5.3601325e-17
-1.5283587e-29
3.1340496e-29
2.8901604e-17
0
6.0279198e-17
6.1422484e-17
-3.1251973e-17
-3.1762035e-17
-6.4485048e-17
3.2693634e-17
3.31155e-17
-6.7019096e-17
0
6.842935e-17
6.9054599e-17
-3.4814082e-17
-7.0149866e-17
1.9600486e-29
3.5523839e-17
-7.1424366e-17
3.5877661e-17
-1.1996679e-28
-7.2284823e-17
3.6242312e-17
0
7.2763319e-17
0
-8.0923849e-29
-3.6445742e-17
-7.2861468e-17
1.0919513e-16
-1.0331267e-32
-7.2570921e-17
0
7.2219304e-17
3.6000276e-17
-7.1753717e-17
3.9681489e-29
3.5589624e-17
-7.0855198e-17
3.5253491e-17
-5.8385508e-29
-6.9741515e-17
3.4663789e-17
-3.4446675e-17
6.8439126e-17
1.0194966e-16
0
-1.0045606e-16
-6.6447957e-17
9.8864439e-17
6.5357425e-17
-3.2396025e-17
-6.4213355e-17
3.1810938e-17
3.1509455e-17
-6.2405628e-17
3.0891162e-17
6.1148984e-17
-3.0253161e-17
4.2529906e-33
-5.9197413e-17
-5.8532155e-17
8.6789829e-17
-2.8590651e-17
-4.7048502e-29
8.3713053e-17
0
-8.1627117e-17
-5.3716805e-17
2.6506247e-17
2.6152907e-17
2.5798522e-17
0
2.5086851e-17
-1.372709e-29
-4.8746306e-17
1.3327379e-29
2.3659147e-17
0
2.2945701e-17
-4.517948e-17
-6.6703663e-17
4.3760538e-17
6.458069e-17
2.1174568e-17
-2.0823517e-17
-4.0947805e-17
2.0125859e-17
-1.9779469e-17
-1.9434762e-17
3.8183753e-17
-3.7501961e-17
-1.8412194e-17
5.4226906e-17
3.5482739e-17
-1.7409439e-17
-5.1239863e-17
3.7196881e-29
-3.6477044e-29
-1.610743e-17
-1.7528057e-29
-1.5473228e-17
1.5160562e-17
1.4851013e-17
1.4544662e-17
-1.4241589e-17
-1.3941875e-17
4.0936661e-17
-1.3352663e-17
-2.6126615e-17
3.8332687e-17
3.551425e-33
-1.2217073e-17
2.3884821e-17
1.1671495e-17
0
-1.1141065e-17
-1.0881617e-17
-2.1252061e-17
1.0374326e-17
-3.3725816e-29
-2.9647521e-17
9.6424021e-18
9.4061764e-18
9.1738228e-18
-8.9453257e-18
-8.7206738e-18
2.5499521e-17
-8.2828144e-18
-1.6139181e-17
-1.3091169e-29
-7.6544686e-18
1.4905071e-17
2.1762971e-17
3.9177235e-30
-3.8127939e-30
-9.4953794e-34
-6.4982331e-18
-1.2636604e-17
-6.141962e-18
1.7907559e-17
-6.4388189e-30
-1.1268425e-17
0
0
5.1578572e-18
-2.778666e-30
2.6955122e-30
4.7121355e-18
-9.1404431e-18
-4.4315914e-18
-4.7682176e-30
4.1640239e-18
1.2105045e-17
3.9091396e-18
0
0
0
-1.0308457e-17
-6.6506426e-18
9.652099e-18
-3.455945e-30
-6.0198019e-18
0
0
5.4380617e-18
-5.8333431e-30
-2.8168641e-30
4.902443e-18
-2.3668486e-18
-4.5697548e-18
-4.4105766e-18
2.128016e-18
6.1588053e-18
1.9799644e-18
0
0
0
-5.1279648e-18
-3.2930211e-18
4.7568175e-18
-3.3897012e-30
-1.4696352e-18
2.0097702e-34
-1.3604744e-18
2.6168553e-18
-1.3967343e-30
-1.2094931e-18
2.3246242e-18
0
-5.9542786e-31
-2.0596464e-18
-1.9773685e-18
2.8465673e-18
1.8206281e-18
-8.7313193e-19
-4.6466888e-31
8.0287513e-19
-2.3087811e-18
-1.4748336e-18
7.0638358e-19
6.7655828e-19
-6.4791919e-19
-6.2033683e-19
5.9371706e-19
5.6807386e-19
-3.0164459e-31
2.8843941e-31
4.9706883e-19
0
4.5429078e-19
-8.6838669e-19
-1.2448754e-18
7.9302949e-19
7.5757564e-19
3.6177457e-19
-3.8351741e-31
-6.5991558e-19
3.1502906e-19
-3.0067919e-19
-2.8695415e-19
5.477279e-19
-5.2263004e-19
-2.4923181e-19
2.3762776e-19
4.530391e-19
2.1588375e-19
-4.1141053e-19
1.0873091e-31
-1.8669144e-19
-1.777706e-19
5.0766204e-19
-1.6107855e-19
-1.5331541e-19
4.3755436e-19
-1.9707902e-35
-3.9558488e-19
-1.2537238e-19
3.5740965e-19
-1.1314336e-19
-2.878563e-47
-1.698973e-31
-1.9373655e-19
1.8377744e-19
1.743026e-19
-8.2680112e-20
8.7055181e-32
1.4862915e-19
-7.040523e-20
-2.0016796e-19
-6.3222908e-20
5.9856082e-20
0
5.3618801e-20
1.0153866e-19
-6.8282321e-36
-1.3633384e-19
-4.296918e-20
8.1255716e-20
-5.4593666e-36
-7.2673822e-20
6.8758738e-20
-5.4180143e-32
-6.1584708e-20
8.7493815e-20
5.525847e-20
0
0
-2.3542119e-20
-6.7005848e-20
-2.120274e-20
6.042635e-20
-2.1242894e-32
-3.6350034e-20
3.4535129e-20
3.2823541e-20
-1.5601241e-20
-2.9667349e-20
1.4108908e-20
1.3424987e-20
-3.8349544e-20
-1.2175602e-20
-1.9403378e-32
6.2434074e-33
1.0960436e-20
-1.0717834e-20
2.0954329e-20
3.1193913e-20
0
-3.3516964e-20
-2.2484776e-20
3.2898914e-20
-3.0692704e-36
-1.0742892e-20
2.1091872e-20
-1.0247896e-20
-1.0096038e-20
-1.1197604e-32
9.9917989e-21
1.9612983e-20
-9.6798283e-21
-1.9268403e-20
-1.9139533e-20
1.0532394e-32
9.4132926e-21
-9.4016869e-21
1.8790969e-20
2.7857855e-20
0
-2.7242877e-20
-1.793382e-20
2.662599e-20
-9.7633427e-33
-8.7109993e-21
8.6501779e-21
8.6131146e-21
-4.7776608e-33
-1.7304876e-20
4.8850392e-33
1.8142168e-20
-1.0267441e-32
-9.9616471e-33
-1.7702298e-20
-2.5918007e-20
1.7260262e-20
-1.030652e-32
-3.0219827e-32
8.8988811e-21
9.3855244e-21
1.9663593e-20
-2.8066511e-20
-8.7857168e-21
1.8560004e-20
-2.0208753e-20
-5.9740552e-36
3.0555163e-20
1.0258864e-20
-1.0484534e-20
-2.9077959e-20
3.1209166e-32
1.9875813e-20
9.4303019e-21
-1.8282191e-20
-2.7790544e-20
2.7730344e-20
9.6335076e-21
9.7345517e-33
7.8848335e-21
-1.5816835e-20
4.588172e-33
-8.6061303e-21
8.4629733e-21
-2.6128478e-32
-1.9759858e-20
1.7688196e-20
1.8588504e-20
0
0
0
-6.0132771e-21
-1.4338517e-20
-3.9848875e-21
-4.6748617e-33
-4.663239e-21
1.4438073e-20
4.5181173e-21
-3.928805e-21
-3.4730303e-21
-3.6650963e-21
8.1991736e-21
-4.1345678e-21
3.5599438e-21
-9.4792471e-33
-5.9229906e-21
1.0672819e-20
7.6159374e-21
0
-5.97165e-21
-2.7959906e-33
2.773569e-21
-9.803641e-21
-3.2925218e-21
2.6390064e-21
0
0
2.4103962e-21
4.4172042e-21
-1.8603729e-33
1.4637494e-22
-1.7477412e-22
6.2722542e-22
-6.790432e-22
2.52059e-22
3.75898e-48
1.545604e-33
-3.1017372e-21
0
0
4.7201994e-21
5.0244727e-21
2.4418559e-21
-2.7529348e-33
-8.0419913e-21
3.4027047e-33
7.2384274e-21
0
-7.1283658e-21
-3.1407167e-21
6.0086062e-21
-3.3493325e-21
-3.9431792e-21
1.1608666e-20
-3.2087665e-21
9.0164745e-33
5.0190934e-21
-7.4427175e-21
-4.9925298e-21
0
0
0
6.6689811e-21
3.3747478e-21
-5.4845772e-21
-5.5205274e-21
0
4.5530987e-21
-1.6876032e-33
-1.3224447e-21
3.434721e-21
-2.2531679e-21
2.2784785e-21
1.8958601e-21
-4.8795692e-21
3.3969138e-21
4.1689944e-21
-2.4958416e-21
2.6536079e-21
-5.1967128e-21
-7.8221199e-21
0
9.5464351e-21
6.7998411e-21
-3.4759202e-21
-3.5184763e-21
3.9766447e-33
-3.6927064e-21
1.2901683e-32
4.063108e-21
2.2958131e-33
9.4371541e-51
-4.0750753e-21
0
-4.3886364e-21
9.1540367e-21
1.3832025e-20
-1.3559431e-20
-1.327768e-20
0
8.8293379e-21
8.9680289e-21
-8.9769713e-21
4.386716e-21
4.2415432e-21
-1.239852e-20
8.1879778e-21
8.1417613e-21
-3.9729414e-21
-7.6182353e-21
-3.6669828e-21
1.0754312e-20
3.5072591e-21
5.6050168e-33
-6.3535592e-21
-1.7215028e-36
8.8414955e-21
-5.7324423e-21
-8.1915666e-21
-2.563072e-21
7.3307246e-21
4.7968951e-21
-7.0972337e-21
5.0673452e-33
4.3292347e-21
2.0843456e-21
-1.1597633e-33
-4.2805682e-21
2.3769539e-33
-2.0850194e-21
-2.0484716e-21
6.3411655e-21
2.2732488e-21
2.6656727e-33
-4.8437229e-21
7.9804352e-33
7.2446323e-21
-5.0471369e-21
3.0204259e-33
3.2587804e-33
6.8286823e-33
3.1222586e-21
-9.3865121e-21
3.1451407e-21
5.2943636e-33
1.0825729e-32
1.0067967e-20
-3.43374e-21
-6.8751586e-21
3.7663449e-33
-3.3349926e-21
-3.2440939e-21
6.1925289e-21
5.821856e-21
-3.0136064e-33
-7.5937815e-21
2.6011184e-33
2.0918314e-21
-3.5276662e-21
1.399826e-21
1.03745e-21
-3.7265873e-34
1.455011e-34
1.969533e-22
-1.3712024e-21
1.1613316e-21
-5.3085947e-33
-6.7713647e-33
7.5869173e-21
-6.1463751e-21
1.0323763e-36
8.2939179e-21
-4.597926e-21
-1.5098187e-20
-5.4702776e-21
1.7761872e-20
-7.0749634e-33
-6.7884198e-21
1.4258644e-20
-1.4828081e-20
-3.7508358e-32
7.70659e-21
-8.1385701e-21
8.4531827e-21
-1.7357063e-20
8.2657267e-21
2.4279578e-20
0
0
-1.6515159e-20
-2.4331687e-36
1.6382707e-20
-7.7095072e-21
-2.2759493e-20
-7.4828268e-21
2.2762556e-20
2.2005549e-36
8.5342821e-33
1.4970627e-20
-2.0916849e-20
-3.2814728e-32
6.4454652e-21
-6.3027105e-21
-6.0603888e-21
6.3665472e-33
5.3494779e-21
-1.0033162e-20
9.5689844e-21
-1.5271986e-32
-8.7585005e-21
1.2487793e-20
7.8312002e-21
-3.6674002e-21
-1.0373918e-20
-3.3158328e-21
3.2500078e-21
0
-3.134413e-21
3.0537022e-21
8.9983151e-21
1.6714946e-33
-6.1588597e-21
3.1695519e-21
3.2476238e-21
-6.6774989e-21
3.4738346e-21
-3.6548325e-21
-7.7366238e-21
1.2168266e-20
-1.4082263e-32
9.8302192e-33
9.3582326e-21
-9.9515708e-21
-5.2627459e-21
-5.5106133e-21
-6.3883098e-33
5.9808114e-21
-1.248521e-20
1.3086619e-20
2.0493152e-20
0
-7.2765733e-21
4.0797762e-33
2.1321785e-36
-2.3578479e-20
-8.1001106e-21
2.467236e-20
-7.8704373e-21
6.713283e-49
2.469037e-20
-8.4947594e-21
-2.4556758e-20
-8.1930777e-21
1.6438856e-20
-7.9278863e-21
8.2261118e-21
-2.6516142e-32
-1.562703e-20
2.3192843e-20
8.2000179e-33
-3.3415415e-32
1.5586334e-20
-1.567316e-20
-8.4875537e-33
7.3841354e-21
-1.3401508e-20
-6.1074805e-21
0
0
1.2099333e-20
-1.3136237e-32
-3.2040477e-36
-5.7543578e-33
-4.7949956e-21
-4.5953692e-21
4.4593328e-21
4.2740689e-21
-8.0094965e-21
7.3719922e-21
-3.7653179e-33
-6.266203e-21
5.7038181e-21
8.4870194e-33
-2.559132e-33
2.1351119e-21
-3.9542541e-21
1.774181e-21
-3.3615476e-33
-2.5282226e-21
0
1.938962e-21
8.4003763e-22
-1.3349213e-21
-4.8044653e-22
3.3880032e-22
-4.2951566e-34
-1.9389429e-22
0
0
-2.9867449e-22
-3.9543131e-22
0
4.9267281e-22
3.1869869e-22
-3.7883046e-22
3.8736615e-22
-3.6246597e-22
0
7.8479292e-22
0
0
-3.3375125e-22
2.8738991e-34
2.2913712e-22
0
-2.5853163e-22
-1.1711968e-34
1.2083652e-22
0
1.046791e-22
2.094364e-22
-1.4056701e-22
-2.0770005e-34
2.6692375e-22
-7.540016e-22
-9.8818336e-22
1.1559938e-21
1.7108058e-37
1.3386838e-33
1.8815077e-37
-1.6065337e-21
9.7012604e-22
-1.227276e-33
1.1769258e-21
-1.1876666e-21
-3.605525e-21
3.8112849e-21
1.3914695e-21
-1.5321704e-21
-1.822662e-33
-1.6993517e-21
3.4457554e-21
3.5154111e-21
-3.6599453e-21
-6.4217345e-33
-2.0167313e-21
-2.0660054e-21
4.16707e-21
-2.1024784e-21
2.3875605e-33
-1.2350177e-33
2.2896662e-21
4.6245185e-21
-4.5839046e-21
-4.5416049e-21
0
2.308296e-21
2.629986e-33
-4.8453349e-21
-2.7019178e-33
7.1606641e-21
4.6324131e-21
0
-4.4928549e-21
-5.0470341e-33
-2.3056928e-21
-2.3213645e-21
6.9766683e-21
-1.2803089e-33
-4.5108768e-21
2.1693758e-21
4.1569539e-21
-2.0533149e-21
-4.2043586e-21
-2.1629993e-21
0
4.2806932e-21
-2.0702813e-21
-6.0199264e-21
1.9921721e-21
2.0286183e-21
4.1590714e-21
2.1011758e-21
-4.1648563e-21
-2.0520081e-21
-2.0371739e-21
2.2728389e-33
2.0755396e-21
2.1028908e-21
4.2299538e-21
2.1214362e-21
0
0
0
-4.3790041e-21
-4.4186912e-21
4.4895214e-21
2.5364357e-33
2.5561016e-33
-2.5596893e-33
-5.1419165e-33
4.6737724e-21
0
-4.7926591e-21
-2.3973397e-21
2.4050199e-21
-2.4332107e-21
-2.4677949e-21
0
0
4.7791296e-21
-8.0174212e-33
-5.481846e-33
4.9946975e-21
-4.9126033e-21
-4.7792827e-21
0
4.6302635e-21
-2.6275174e-33
-4.7769859e-21
4.7164596e-21
2.552042e-33
-4.4601021e-21
0
4.3773606e-21
2.1845967e-21
-4.2578123e-21
2.044462e-21
4.4020553e-33
-3.9259586e-21
3.9464211e-21
3.8968196e-21
0
0
0
-3.2619457e-21
-3.3204046e-21
3.3580331e-21
0
-3.2195865e-21
0
-1.466803e-21
2.8236294e-21
1.3713893e-21
-1.3516217e-21
2.7087208e-21
1.3637465e-21
-2.7307826e-21
-1.3481652e-21
-1.4524639e-33
1.2668822e-21
-2.7638313e-33
7.0493457e-37
2.4917735e-21
0
-1.2767288e-21
-2.596937e-21
-1.3072819e-21
0
0
0
-1.318392e-21
2.7447728e-21
1.4074895e-21
-1.4060366e-21
-1.3940181e-21
1.4014682e-21
1.4371806e-21
-2.9816027e-21
0
3.0804527e-21
3.0765831e-21
0
0
-3.2549955e-21
-1.8470954e-33
-1.6808721e-21
-1.6844852e-21
1.6831109e-21
-1.6831619e-21
1.6877516e-21
3.405057e-21
1.73074e-21
0
-3.4926903e-21
-1.9065679e-33
1.687867e-21
-1.6854797e-21
-1.7105077e-21
-3.4808513e-21
3.4753661e-21
1.6907891e-21
-4.6131094e-37
1.5672753e-21
-3.1108827e-21
1.5806505e-21
-1.6053416e-21
-8.965682e-50
1.5406131e-21
-2.9126779e-21
2.7643439e-21
2.7155833e-21
0
-1.3891371e-21
-2.7331623e-21
7.2168575e-34
1.2172607e-21
1.1561744e-21
-2.280982e-21
-2.3044811e-21
1.1573593e-21
2.2543963e-21
2.1087343e-21
-9.799074e-22
-1.8843094e-21
9.4527143e-22
-9.6598262e-22
1.6117635e-33
9.3778128e-22
-1.7751113e-21
1.7009045e-21
9.3838546e-34
-4.7789486e-33
1.7370086e-21
-1.7003338e-21
-3.6682276e-33
8.2698368e-22
-1.7246253e-21
9.1252475e-22
-2.6742091e-37
4.1150144e-33
8.8364938e-22
-1.7330773e-21
2.0322057e-33
-5.5611036e-34
1.0817435e-21
-3.212087e-37
-2.2823598e-21
2.2615551e-21
6.4597009e-37
-5.2286812e-33
2.4988511e-21
-2.6684613e-21
-3.1215825e-33
2.8979234e-21
-1.4650445e-21
-1.4843082e-21
-1.5235784e-21
1.5860202e-21
-1.8521946e-33
-3.4626855e-21
0
0
3.5363907e-21
5.1476365e-37
-3.7844264e-21
1.9731495e-21
-2.2435646e-33
2.0280657e-21
4.4938739e-33
-4.0555031e-21
0
-2.0968406e-21
4.2761105e-21
2.1461303e-21
-4.7185693e-33
2.0952921e-21
-4.1472872e-21
2.079268e-21
-2.3403878e-33
-4.2439149e-21
0
0
1.9871166e-21
-1.0744021e-33
1.9187925e-21
-1.924703e-21
-5.7065633e-21
5.5210061e-21
1.758505e-21
-3.3409828e-21
1.6161369e-21
2.6630986e-33
1.5768425e-21
-8.6449715e-37
-4.7422579e-33
1.3167256e-21
-2.4761021e-21
-1.196241e-21
0
-1.1141765e-21
1.0224085e-21
9.1137607e-22
8.1558517e-22
-1.6972494e-33
8.213341e-34
-7.8580535e-34
-1.2832865e-21
5.3311991e-22
7.0432688e-34
-7.1213397e-22
4.7698629e-38
3.2752482e-22
5.9846903e-22
4.7192585e-22
-2.8256212e-22
-6.3686624e-35
-2.2947272e-23
-2.8006758e-23
7.1092799e-23
-4.4824823e-23
2.0547117e-23