/*--------------------------------*- C++ -*----------------------------------*\
  =========                 |
  \\      /  F ield         | OpenFOAM: The Open Source CFD Toolbox
   \\    /   O peration     | Website:  https://openfoam.org
    \\  /    A nd           | Version:  8
     \\/     M anipulation  |
\*---------------------------------------------------------------------------*/
FoamFile
{
    version     2.0;
    format      ascii;
    class       surfaceScalarField;
    location    "250";
    object      phi;
}
// * * * * * * * * * * * * * * * * * * * * * * * * * * * * * * * * * * * * * //

dimensions      [0 3 -1 0 0 0 0];

internalField   nonuniform List<scalar> 
246320
(
-3.3984635e-05
-6.4189736e-06
-7.0130618e-06
-3.246143e-05
-1.9697661e-06
2.8665295e-07
-2.9996211e-05
-4.8008694e-07
-2.1585437e-06
-2.7159227e-05
6.8577037e-07
-3.6858068e-06
-1.9994749e-05
6.7845337e-07
-7.9471167e-06
-4.6917411e-06
-1.5380223e-05
-1.6168141e-05
1.2580234e-06
1.4776789e-05
-4.1855188e-05
-1.9062365e-07
1.9273691e-05
-4.8295871e-05
1.7669542e-06
2.5415882e-06
-4.828826e-05
1.7666537e-06
-2.4151646e-06
-4.5626272e-05
2.5252076e-06
-4.6446107e-06
-3.9054807e-05
3.0334871e-06
-9.0473599e-06
-1.9324297e-05
3.157492e-06
-2.7571743e-05
7.4973337e-07
-2.0139914e-05
-2.5864601e-05
1.1215169e-06
2.5827619e-05
-4.1623735e-05
1.7495743e-06
1.3644877e-05
-4.7336703e-05
1.3619185e-06
5.9395861e-06
-4.8648155e-05
9.4094016e-07
1.9718581e-06
-4.6821333e-05
1.1323684e-06
-5.7862908e-07
-4.1130098e-05
1.5931338e-06
-4.3737407e-06
-2.7752837e-05
1.5689542e-06
-1.1858766e-05
1.2206853e-06
-2.8220225e-05
-1.4994058e-05
-2.7664922e-06
1.8689796e-05
-2.2953038e-05
-5.6277756e-06
1.51312e-05
-2.7343213e-05
-6.2154451e-06
1.1778977e-05
-2.996883e-05
-6.2634363e-06
9.6551909e-06
-3.0853683e-05
-6.0187118e-06
7.8768789e-06
-2.8694286e-05
-5.503464e-06
4.7963902e-06
-2.092535e-05
-4.4569087e-06
-1.8239919e-06
-2.9146065e-06
-1.6862641e-05
-2.2621999e-05
-3.7591597e-06
2.3463884e-05
-3.2829481e-05
-8.954877e-06
1.3377406e-05
-3.7159137e-05
-1.0143142e-05
8.0920149e-06
-3.8840924e-05
-1.0134512e-05
5.4095735e-06
-3.8665558e-05
-9.7005144e-06
3.3910488e-06
-3.523779e-05
-9.0338284e-06
-1.5481792e-08
-2.5292361e-05
-7.2692129e-06
-7.1953674e-06
-4.1405192e-06
-2.4056882e-05
-2.8283252e-05
-3.2602365e-06
2.7690501e-05
-4.1771387e-05
-8.2372636e-06
1.2638414e-05
-4.6862903e-05
-9.9458296e-06
4.7667306e-06
-4.7957455e-05
-1.0166551e-05
1.0249856e-06
-4.649735e-05
-9.7993474e-06
-1.4529112e-06
-4.164804e-05
-9.000841e-06
-4.956089e-06
-2.9699331e-05
-7.0572396e-06
-1.2193967e-05
-3.4589113e-06
-3.0387104e-05
-2.8139955e-05
-2.9806207e-06
2.7770112e-05
-4.1644522e-05
-7.421381e-06
1.2572872e-05
-4.681036e-05
-9.1984869e-06
4.3051755e-06
-4.7968006e-05
-9.5135639e-06
4.0464191e-07
-4.663227e-05
-9.1600283e-06
-2.0426901e-06
-4.1907774e-05
-8.3950339e-06
-5.3881838e-06
-3.0022935e-05
-6.5195016e-06
-1.2451596e-05
-3.1071895e-06
-3.0376062e-05
-2.7749078e-05
-2.8006474e-06
2.7489938e-05
-4.1086389e-05
-6.8999536e-06
1.2709654e-05
-4.6285436e-05
-8.6208664e-06
4.5140213e-06
-4.754254e-05
-8.9709917e-06
6.3308125e-07
-4.6315625e-05
-8.6624108e-06
-1.787791e-06
-4.1710638e-05
-7.9485834e-06
-5.1017042e-06
-2.9939957e-05
-6.1918719e-06
-1.2117901e-05
-2.9878001e-06
-3.0067357e-05
-2.7357295e-05
-2.7874209e-06
2.7265758e-05
-4.0558642e-05
-6.7571415e-06
1.2959806e-05
-4.5818169e-05
-8.4116433e-06
4.9641983e-06
-4.7194329e-05
-8.7766013e-06
1.105486e-06
-4.6066865e-05
-8.5152596e-06
-1.3380482e-06
-4.1527333e-05
-7.8416736e-06
-4.695811e-06
-2.9831642e-05
-6.1617448e-06
-1.1755172e-05
-3.0316297e-06
-2.9795396e-05
-2.7386596e-05
-2.8547e-06
2.7380389e-05
-4.0579436e-05
-6.8619683e-06
1.3214315e-05
-4.5913369e-05
-8.4525114e-06
5.2901976e-06
-4.7364203e-05
-8.8205254e-06
1.4194294e-06
-4.627286e-05
-8.6023118e-06
-1.0709082e-06
-4.172618e-05
-7.9520011e-06
-4.4940469e-06
-2.9988801e-05
-6.2831794e-06
-1.1643706e-05
-3.1576862e-06
-2.9881101e-05
-2.8096924e-05
-2.8099717e-06
2.7981983e-05
-4.1543214e-05
-6.8448267e-06
1.3346239e-05
-4.6931339e-05
-8.3905456e-06
5.2517873e-06
-4.8354441e-05
-8.7727828e-06
1.301003e-06
-4.7197643e-05
-8.5883916e-06
-1.2408859e-06
-4.2523485e-05
-7.9658028e-06
-4.7180647e-06
-3.055189e-05
-6.3032047e-06
-1.1985123e-05
-3.1825314e-06
-3.0535015e-05
-2.9017499e-05
-2.5903548e-06
2.8733763e-05
-4.2853172e-05
-6.5096908e-06
1.343173e-05
-4.8307969e-05
-8.0390688e-06
5.0306108e-06
-4.9675222e-05
-8.4385863e-06
9.6196494e-07
-4.8424159e-05
-8.2712935e-06
-1.6351388e-06
-4.3606071e-05
-7.6753513e-06
-5.1661842e-06
-3.1322081e-05
-6.0531053e-06
-1.2562435e-05
-3.0269488e-06
-3.1497108e-05
-2.9565636e-05
-2.3110424e-06
2.9227987e-05
-4.3716806e-05
-5.9975118e-06
1.3574444e-05
-4.9245791e-05
-7.5251726e-06
4.9500502e-06
-5.0594649e-05
-7.9407856e-06
7.8442363e-07
-4.9288481e-05
-7.7786379e-06
-1.8634322e-06
-4.4371829e-05
-7.2088624e-06
-5.43925e-06
-3.1872079e-05
-5.6612381e-06
-1.2924503e-05
-2.7786166e-06
-3.2128501e-05
-2.9503081e-05
-2.1519643e-06
2.9289167e-05
-4.3772932e-05
-5.6241176e-06
1.3833691e-05
-4.9390933e-05
-7.1498513e-06
5.1789676e-06
-5.0804975e-05
-7.5630744e-06
9.7130865e-07
-4.9529844e-05
-7.3963014e-06
-1.720383e-06
-4.4614238e-05
-6.8343883e-06
-5.3435776e-06
-3.2062364e-05
-5.347387e-06
-1.2894314e-05
-2.6006222e-06
-3.2264105e-05
-2.8979121e-05
-2.2425048e-06
2.9015119e-05
-4.3174877e-05
-5.6444929e-06
1.415553e-05
-4.888204e-05
-7.1610372e-06
5.6530773e-06
-5.0417672e-05
-7.5544796e-06
1.4622529e-06
-4.9229316e-05
-7.380484e-06
-1.2649811e-06
-4.4364621e-05
-6.8107163e-06
-4.9404051e-06
-3.1898194e-05
-5.3393977e-06
-1.251067e-05
-2.6152357e-06
-3.1892672e-05
-2.8500798e-05
-2.5554985e-06
2.8763247e-05
-4.2558333e-05
-6.0865316e-06
1.4432866e-05
-4.8342878e-05
-7.5725667e-06
6.1290338e-06
-5.0003062e-05
-7.9334006e-06
1.9738753e-06
-4.8904535e-05
-7.7521247e-06
-7.8615767e-07
-4.410097e-05
-7.1529575e-06
-4.5126346e-06
-3.172335e-05
-5.6333924e-06
-1.2111985e-05
-2.8317801e-06
-3.153185e-05
-2.8651865e-05
-2.9284287e-06
2.8970074e-05
-4.2690871e-05
-6.7094878e-06
1.4600364e-05
-4.8526161e-05
-8.1469017e-06
6.3429909e-06
-5.0230421e-05
-8.4720231e-06
2.1793941e-06
-4.913892e-05
-8.2866079e-06
-6.1338664e-07
-4.4298006e-05
-7.6602085e-06
-4.3796221e-06
-3.1859491e-05
-6.0671834e-06
-1.2037542e-05
-3.1208709e-06
-3.15792e-05
-2.9635952e-05
-3.1425688e-06
2.9803256e-05
-4.3925658e-05
-7.1285683e-06
1.4647584e-05
-4.9810358e-05
-8.500129e-06
6.1747716e-06
-5.14709e-05
-8.7947662e-06
1.9235662e-06
-5.0291775e-05
-8.5982895e-06
-9.1850754e-07
-4.5305747e-05
-7.9583371e-06
-4.7303666e-06
-3.2564777e-05
-6.3137121e-06
-1.251714e-05
-3.2833707e-06
-3.2420404e-05
-3.1102717e-05
-3.0923558e-06
3.1003188e-05
-4.5847528e-05
-7.0772613e-06
1.4639059e-05
-5.1788897e-05
-8.3807195e-06
5.7642523e-06
-5.3347682e-05
-8.6545037e-06
1.3639368e-06
-5.2020198e-05
-8.4427275e-06
-1.5289371e-06
-4.6812759e-05
-7.8192165e-06
-5.382601e-06
-3.3617463e-05
-6.1963831e-06
-1.3335932e-05
-3.2039837e-06
-3.370791e-05
-3.2504991e-05
-2.8027485e-06
3.2172171e-05
-4.7747595e-05
-6.5441045e-06
1.4656826e-05
-5.3758592e-05
-7.773487e-06
5.3505377e-06
-5.5225288e-05
-8.0291773e-06
7.9223193e-07
-5.3758686e-05
-7.8045992e-06
-2.1451624e-06
-4.8355192e-05
-7.217135e-06
-6.0358563e-06
-3.4711438e-05
-5.6914276e-06
-1.4167396e-05
-2.8991155e-06
-3.5030077e-05
-3.3482386e-05
-2.3848946e-06
3.3017843e-05
-4.9125846e-05
-5.6997853e-06
1.4752069e-05
-5.5210807e-05
-6.8457624e-06
5.1093865e-06
-5.6623924e-05
-7.0811427e-06
4.2125449e-07
-5.5056906e-05
-6.8559071e-06
-2.550052e-06
-4.95078e-05
-6.3235719e-06
-6.4703726e-06
-3.5526886e-05
-4.957842e-06
-1.4732714e-05
-2.4772765e-06
-3.5963098e-05
-3.3954836e-05
-1.9394523e-06
3.3467131e-05
-4.9858439e-05
-4.7502524e-06
1.4908812e-05
-5.6019908e-05
-5.7975211e-06
5.070053e-06
-5.7431175e-05
-6.0115714e-06
3.0346425e-07
-5.5824935e-05
-5.8029772e-06
-2.6900303e-06
-5.020401e-05
-5.3315129e-06
-6.6357498e-06
-3.6033192e-05
-4.1536572e-06
-1.4993377e-05
-2.0372181e-06
-3.6490312e-05
-3.3993381e-05
-1.5334135e-06
3.3545847e-05
-5.0009949e-05
-3.8477696e-06
1.5075785e-05
-5.6236267e-05
-4.7892114e-06
5.1809945e-06
-5.7680262e-05
-4.985365e-06
3.8481317e-07
-5.6079976e-05
-4.8053736e-06
-2.6236792e-06
-5.0441927e-05
-4.4029417e-06
-6.5905354e-06
-3.6209169e-05
-3.4153705e-06
-1.4990561e-05
-1.646645e-06
-3.6615897e-05
-3.3715269e-05
-1.2010455e-06
3.3347671e-05
-4.9725445e-05
-3.0895532e-06
1.5216698e-05
-5.6005952e-05
-3.9270004e-06
5.3859799e-06
-5.7509006e-05
-4.109404e-06
5.9902467e-07
-5.5955334e-05
-3.9611642e-06
-2.4218818e-06
-5.0352329e-05
-3.6215057e-06
-6.4049534e-06
-3.6157915e-05
-2.8004452e-06
-1.4828547e-05
-1.3333236e-06
-3.6492328e-05
-3.3210247e-05
-9.7979908e-07
3.2955859e-05
-4.9115939e-05
-2.5490013e-06
1.5335436e-05
-5.5434223e-05
-3.2906531e-06
5.6541696e-06
-5.7008819e-05
-3.4577489e-06
8.9850614e-07
-5.5523033e-05
-3.3364641e-06
-2.1311327e-06
-4.9986546e-05
-3.052502e-06
-6.1262751e-06
-3.5905315e-05
-2.3610578e-06
-1.4540678e-05
-1.1143565e-06
-3.6137827e-05
-3.2594845e-05
-8.9163202e-07
3.247793e-05
-4.8343132e-05
-2.2662885e-06
1.5437811e-05
-5.4694384e-05
-2.9100411e-06
5.945586e-06
-5.6352619e-05
-3.0520377e-06
1.2304395e-06
-5.4952289e-05
-2.9472364e-06
-1.8093116e-06
-4.9504903e-05
-2.6994433e-06
-5.8192937e-06
-3.5573692e-05
-2.0974244e-06
-1.4212016e-05
-9.9898737e-07
-3.5709044e-05
-3.2058424e-05
-9.3033659e-07
3.2070328e-05
-4.7649738e-05
-2.2198946e-06
1.5520332e-05
-5.4025139e-05
-2.7570912e-06
6.1993113e-06
-5.5753896e-05
-2.8634629e-06
1.5191784e-06
-5.4425641e-05
-2.7645314e-06
-1.5300366e-06
-4.9056609e-05
-2.5399884e-06
-5.5476819e-06
-3.5259784e-05
-1.9949765e-06
-1.3918102e-05
-9.7699548e-07
-3.5292128e-05
-3.1867177e-05
-1.0286969e-06
3.1942197e-05
-4.7394644e-05
-2.2865187e-06
1.5570719e-05
-5.3788033e-05
-2.7032495e-06
6.3173063e-06
-5.5550809e-05
-2.7652761e-06
1.6439156e-06
-5.4253858e-05
-2.6654973e-06
-1.4153252e-06
-4.89188e-05
-2.4573142e-06
-5.4369189e-06
-3.5162515e-05
-1.9559878e-06
-1.3811474e-05
-1.0000405e-06
-3.5156696e-05
-3.2206389e-05
-1.0755105e-06
3.223177e-05
-4.7837974e-05
-2.259798e-06
1.5583183e-05
-5.4245542e-05
-2.5474103e-06
6.2302708e-06
-5.5981544e-05
-2.5653756e-06
1.5156814e-06
-5.4646884e-05
-2.4643238e-06
-1.5550388e-06
-4.9262933e-05
-2.2797995e-06
-5.5800537e-06
-3.5401205e-05
-1.8419115e-06
-1.3992979e-05
-9.7433974e-07
-3.5435221e-05
-3.3036788e-05
-9.6594988e-07
3.2908595e-05
-4.8946414e-05
-1.9418888e-06
1.5571041e-05
-5.5377289e-05
-2.0926436e-06
5.9552367e-06
-5.7036956e-05
-2.0751148e-06
1.1494508e-06
-5.5603898e-05
-1.9794342e-06
-1.9364039e-06
-5.0099954e-05
-1.8349844e-06
-5.9665675e-06
-3.5988326e-05
-1.5078901e-06
-1.4459711e-05
-8.2046848e-07
-3.6155272e-05
-3.4126071e-05
-6.7168553e-07
3.3814503e-05
-5.0414753e-05
-1.2446049e-06
1.5571799e-05
-5.6880087e-05
-1.2373661e-06
5.5897965e-06
-5.8437681e-05
-1.1981184e-06
6.611492e-07
-5.6867626e-05
-1.1243412e-06
-2.4428083e-06
-5.1201922e-05
-1.03877e-06
-6.4784094e-06
-3.6769651e-05
-8.8666296e-07
-1.5067583e-05
-5.0584532e-07
-3.7091458e-05
-3.5313089e-05
-1.5597315e-07
3.4781931e-05
-5.2007959e-05
-1.0005888e-07
1.5531245e-05
-5.8513918e-05
1.0570014e-07
5.1429801e-06
-5.9947282e-05
1.2855724e-07
8.7688991e-08
-5.8209543e-05
1.491044e-07
-3.02817e-06
-5.2367976e-05
1.6570331e-07
-7.0618015e-06
-3.7614836e-05
8.7365789e-08
-1.5739497e-05
-1.8524552e-08
-3.8111948e-05
-3.6412433e-05
6.1792533e-07
3.562363e-05
-5.345088e-05
1.5652077e-06
1.5354906e-05
-5.995455e-05
2.0127233e-06
4.5773356e-06
-6.1301172e-05
2.0220529e-06
-5.6523249e-07
-5.9447953e-05
1.9455773e-06
-3.6659559e-06
-5.3429732e-05
1.8470725e-06
-7.7147109e-06
-3.8386393e-05
1.4792728e-06
-1.6447444e-05
7.0123726e-07
-3.9113397e-05
-3.7278298e-05
1.6795991e-06
3.6203196e-05
-5.4591916e-05
3.7997144e-06
1.5061577e-05
-6.1028657e-05
4.4567973e-06
3.9742656e-06
-6.2275216e-05
4.4480415e-06
-1.1966816e-06
-6.0333032e-05
4.244721e-06
-4.2565944e-06
-5.4156214e-05
3.9755324e-06
-8.319252e-06
-3.8900668e-05
3.2885521e-06
-1.7076272e-05
1.6973362e-06
-3.990349e-05
-3.7549213e-05
3.0503509e-06
3.6166187e-05
-5.4932052e-05
6.3720604e-06
1.479402e-05
-6.120911e-05
6.9365705e-06
3.7797456e-06
-6.2331618e-05
6.8453432e-06
-1.2912743e-06
-6.032422e-05
6.5364325e-06
-4.3137085e-06
-5.4042093e-05
6.0722258e-06
-8.3931754e-06
-3.8736531e-05
5.1312466e-06
-1.7158179e-05
2.9389079e-06
-3.9985515e-05
-3.532111e-05
3.5630774e-06
3.47931e-05
-5.1858013e-05
7.20124e-06
1.5691454e-05
-5.7916824e-05
7.1067877e-06
5.8717341e-06
-5.9055199e-05
6.7421738e-06
1.225693e-06
-5.7067832e-05
6.2510147e-06
-1.7167217e-06
-5.0973274e-05
5.7666131e-06
-5.8017449e-06
-3.6365946e-05
4.9697353e-06
-1.4457442e-05
3.4200039e-06
-3.68516e-05
-2.2457784e-05
2.600884e-05
-3.2525013e-05
1.7258465e-05
-3.7584957e-05
1.2157895e-05
-3.9984786e-05
9.1340081e-06
-4.0417646e-05
6.6770315e-06
-3.7514352e-05
2.8554386e-06
-2.752129e-05
-5.0274792e-06
-2.4106135e-05
-2.0053728e-05
4.963855e-06
1.5003466e-05
-2.5845276e-05
-3.0874356e-06
8.7893501e-06
-2.7311696e-05
-3.663744e-06
5.0124211e-06
-2.5901869e-05
-3.4096126e-06
1.8916078e-06
-2.0110212e-05
-3.440741e-06
-2.4321566e-06
-8.8834683e-06
-1.1257284e-05
-1.6847149e-05
2.4052049e-06
1.4284407e-05
-2.7158326e-05
-3.4131688e-06
1.3558438e-05
-3.8804359e-05
-1.2359311e-06
1.2662554e-05
-5.5375337e-05
-3.0785368e-06
2.4434656e-05
-6.168473e-05
-8.813999e-07
3.9176674e-06
-6.211584e-05
-1.6739238e-06
-1.737923e-06
-5.9589362e-05
-1.2681787e-06
-4.8453426e-06
-5.3950049e-05
-1.3958964e-07
-9.0622015e-06
-4.1933734e-05
4.6190824e-06
-2.5679446e-05
-3.0100732e-05
-1.9173637e-06
-1.0003725e-05
-1.933608e-05
-2.4917108e-08
-1.09066e-05
-5.4252787e-06
-1.3979948e-05
-1.9465901e-05
5.2704958e-06
1.4012878e-05
-4.3215947e-05
1.6557804e-06
2.4275708e-05
-6.212492e-05
3.9194805e-06
1.1376258e-05
-6.2759226e-05
-8.4506116e-06
7.6723745e-06
-8.5588816e-05
5.4789893e-06
7.0187756e-06
-8.8908372e-05
-4.1103186e-07
2.9300051e-06
-8.8708173e-05
-9.3484677e-07
-3.3142988e-06
-8.6168855e-05
-5.17975e-07
-7.1602202e-06
-8.1416858e-05
-7.6601703e-07
-1.2244526e-05
-6.5819828e-05
-7.6024435e-06
-1.8822875e-05
-6.0720271e-05
1.1579052e-05
-1.8807554e-05
-4.3878773e-05
1.1100567e-06
-1.8138754e-05
-2.2000319e-05
2.23854e-06
-2.9672402e-05
-3.9541803e-06
-1.8090708e-05
-1.2992099e-05
1.7976726e-06
1.0944482e-05
-3.5895484e-05
2.4946377e-06
2.5410702e-05
-5.3998066e-05
4.0250636e-06
1.567688e-05
-7.2455371e-05
4.9692766e-06
1.7228219e-05
-8.3700729e-05
1.5355022e-06
1.579257e-05
-6.9871279e-05
-6.2102644e-07
1.1339594e-05
-7.1564747e-05
-1.0074227e-07
3.7100157e-06
-7.2259886e-05
-6.5619308e-07
-2.195643e-06
-7.076288e-05
-1.8742488e-07
-6.6538489e-06
-6.888493e-05
3.1709574e-07
-1.2121316e-05
-8.5936776e-05
8.5407239e-07
-1.9104628e-05
-7.529339e-05
2.6702225e-06
-2.1941472e-05
-5.69111e-05
2.5492187e-06
-2.0017281e-05
-4.1260801e-05
3.9642728e-06
-1.7513727e-05
-1.7823879e-05
3.7695778e-06
-3.124712e-05
1.2246445e-06
-1.9072424e-05
-1.8763213e-05
4.941175e-07
1.976418e-05
-3.4859955e-05
2.0449511e-06
1.6414633e-05
-5.0085166e-05
2.5698456e-06
1.6567789e-05
-6.7595781e-05
1.7101466e-06
2.0593541e-05
-6.1555523e-05
-7.4022236e-07
2.1871779e-05
-6.34694e-05
-2.2176998e-06
1.694697e-05
-6.4635771e-05
-2.404716e-06
9.2107623e-06
-6.5497826e-05
-2.1068773e-06
4.0947794e-06
-6.4643695e-05
-1.4013141e-06
-4.0951513e-07
-6.2390801e-05
-6.7722012e-07
-5.766536e-06
-6.0784849e-05
-1.0922666e-07
-1.2592608e-05
-7.0303999e-05
1.8058731e-06
-1.7978863e-05
-5.4491935e-05
2.0342641e-06
-1.5424944e-05
-4.1565308e-05
2.4729697e-06
-1.1570388e-05
-2.5981399e-05
1.9945135e-06
-1.3884078e-05
1.2790387e-06
-2.6061857e-05
-1.2698524e-05
-2.2466867e-06
1.5104983e-05
-2.0816199e-05
-4.7525939e-06
1.4772762e-05
-2.9867014e-05
-5.8548175e-06
1.7391722e-05
-4.3708319e-05
-6.9850656e-06
2.2380282e-05
-4.3824878e-05
-8.118313e-06
2.5988611e-05
-4.8193641e-05
-6.808495e-06
2.3935993e-05
-5.1017193e-05
-5.7478804e-06
1.7752981e-05
-5.1909604e-05
-5.2334297e-06
1.3468774e-05
-5.0608285e-05
-4.7119534e-06
9.6941792e-06
-4.7677848e-05
-4.3398696e-06
5.3328877e-06
-4.5059733e-05
-4.5351362e-06
-1.2864354e-07
-4.8357735e-05
-7.0766741e-06
-4.7404324e-06
-3.7307658e-05
-5.8611359e-06
-3.2689379e-06
-2.8728573e-05
-5.3128138e-06
-8.850686e-07
-1.9110511e-05
-4.3484237e-06
-3.3498158e-06
-2.8075022e-06
-1.5053243e-05
-1.9720752e-05
-2.5771081e-06
1.9798624e-05
-3.0986615e-05
-7.0688567e-06
1.3480178e-05
-4.2043556e-05
-9.4600131e-06
1.4590341e-05
-5.7682008e-05
-1.1430704e-05
1.9969928e-05
-5.3235421e-05
-1.3116739e-05
2.3903485e-05
-5.6228914e-05
-1.0858148e-05
2.0247334e-05
-5.8238966e-05
-9.1758295e-06
1.3364897e-05
-5.8468109e-05
-8.7176682e-06
8.9687335e-06
-5.6742516e-05
-8.3746449e-06
5.1504542e-06
-5.3642226e-05
-8.2017758e-06
6.2123325e-07
-5.1265295e-05
-8.7078184e-06
-5.4703094e-06
-5.859123e-05
-1.2979686e-05
-1.0856289e-05
-4.4853381e-05
-1.0329764e-05
-9.2836602e-06
-3.4897302e-05
-9.0917084e-06
-6.2099026e-06
-2.3598359e-05
-6.8666065e-06
-8.8153365e-06
-3.7144251e-06
-2.2706778e-05
-2.318365e-05
-2.2523074e-06
2.2660068e-05
-3.7643394e-05
-6.3792241e-06
1.3690683e-05
-5.1361889e-05
-9.0449676e-06
1.3274042e-05
-6.9641458e-05
-1.1493168e-05
1.8286168e-05
-6.2608424e-05
-1.3740301e-05
2.1182539e-05
-6.4961641e-05
-1.1324378e-05
1.5331886e-05
-6.6522647e-05
-9.9544788e-06
6.9601497e-06
-6.6882337e-05
-9.6053809e-06
2.118792e-06
-6.5460592e-05
-9.3807598e-06
-1.9942957e-06
-6.2405301e-05
-9.2743433e-06
-7.0461774e-06
-5.984758e-05
-9.6076349e-06
-1.3902127e-05
-7.0206011e-05
-1.304502e-05
-1.9967211e-05
-5.3326479e-05
-1.0309932e-05
-1.6896495e-05
-4.1514526e-05
-8.8218701e-06
-1.2092797e-05
-2.80176e-05
-6.4579206e-06
-1.3924953e-05
-2.9678578e-06
-2.8765382e-05
-2.3052023e-05
-2.0445182e-06
2.2668325e-05
-3.7606609e-05
-5.642257e-06
1.3745161e-05
-5.1554786e-05
-8.1886415e-06
1.3078873e-05
-7.0266776e-05
-1.0605632e-05
1.7766416e-05
-6.3741843e-05
-1.2744608e-05
2.0165633e-05
-6.6204557e-05
-1.0422008e-05
1.4009767e-05
-6.8004071e-05
-9.2684758e-06
5.2726869e-06
-6.8596447e-05
-9.0288811e-06
3.0394937e-07
-6.7221231e-05
-8.9369248e-06
-3.9714623e-06
-6.3992998e-05
-8.9110822e-06
-9.0695918e-06
-6.1078262e-05
-9.1726853e-06
-1.5846251e-05
-7.0778609e-05
-1.2120348e-05
-2.1626712e-05
-5.366349e-05
-9.6183432e-06
-1.7811331e-05
-4.1814257e-05
-8.1808505e-06
-1.2503026e-05
-2.8332998e-05
-5.9484732e-06
-1.4003668e-05
-2.7044071e-06
-2.8596521e-05
-2.2748002e-05
-1.8963002e-06
2.2423972e-05
-3.711984e-05
-5.1444314e-06
1.38082e-05
-5.1037213e-05
-7.534658e-06
1.3244588e-05
-6.9830808e-05
-9.7758312e-06
1.7922197e-05
-6.3718862e-05
-1.1740842e-05
2.0295402e-05
-6.6220917e-05
-9.558545e-06
1.4228235e-05
-6.8035284e-05
-8.4804358e-06
5.4308362e-06
-6.8630544e-05
-8.3010949e-06
3.8281034e-07
-6.7245303e-05
-8.2830401e-06
-3.9319929e-06
-6.3990756e-05
-8.3244687e-06
-9.0141157e-06
-6.0974279e-05
-8.6094424e-06
-1.5745479e-05
-7.0344302e-05
-1.1408729e-05
-2.1432336e-05
-5.3404188e-05
-9.1011909e-06
-1.7483276e-05
-4.1686407e-05
-7.7535901e-06
-1.2161885e-05
-2.8298319e-05
-5.6842345e-06
-1.366634e-05
-2.6344398e-06
-2.8366334e-05
-2.234793e-05
-1.883484e-06
2.2160594e-05
-3.6535894e-05
-4.9986019e-06
1.3977069e-05
-5.0417974e-05
-7.2622665e-06
1.3598989e-05
-6.928187e-05
-9.3582063e-06
1.8391078e-05
-6.3572819e-05
-1.1179027e-05
2.0908946e-05
-6.6210865e-05
-9.0297791e-06
1.4980548e-05
-6.8061805e-05
-7.9515542e-06
6.1747509e-06
-6.8625952e-05
-7.793455e-06
1.06137e-06
-6.7224984e-05
-7.8231784e-06
-3.2876357e-06
-6.396546e-05
-7.9390157e-06
-8.4237656e-06
-6.0889415e-05
-8.2917261e-06
-1.5193227e-05
-7.0046216e-05
-1.1153618e-05
-2.0941714e-05
-5.3183476e-05
-8.9531825e-06
-1.7030342e-05
-4.1509324e-05
-7.6731505e-06
-1.1773275e-05
-2.8181853e-05
-5.6897692e-06
-1.3331038e-05
-2.6940475e-06
-2.8118421e-05
-2.2311784e-05
-1.9076165e-06
2.2175564e-05
-3.6461163e-05
-5.0643093e-06
1.415627e-05
-5.0406683e-05
-7.2623843e-06
1.3925545e-05
-6.9423876e-05
-9.2519558e-06
1.8871741e-05
-6.3895574e-05
-1.0975696e-05
2.1584749e-05
-6.666329e-05
-8.8188027e-06
1.5672457e-05
-6.8547971e-05
-7.6906715e-06
6.8243017e-06
-6.9074367e-05
-7.564117e-06
1.6249971e-06
-6.7641296e-05
-7.6390654e-06
-2.781835e-06
-6.4342285e-05
-7.8118437e-06
-7.9922595e-06
-6.1215673e-05
-8.2472154e-06
-1.4867687e-05
-7.0295395e-05
-1.1275016e-05
-2.0710522e-05
-5.3336082e-05
-9.086957e-06
-1.6852684e-05
-4.1594791e-05
-7.8281174e-06
-1.1602092e-05
-2.8241638e-05
-5.8373917e-06
-1.3209415e-05
-2.8176745e-06
-2.8108565e-05
-2.2810953e-05
-1.8251833e-06
2.2595934e-05
-3.7244473e-05
-5.0085706e-06
1.4326501e-05
-5.1423704e-05
-7.179182e-06
1.4088884e-05
-7.0749561e-05
-9.1460469e-06
1.916796e-05
-6.4980896e-05
-1.0828663e-05
2.1988759e-05
-6.7753382e-05
-8.7261682e-06
1.5953636e-05
-6.9652834e-05
-7.5990939e-06
6.9693669e-06
-7.0170357e-05
-7.5221758e-06
1.6707537e-06
-6.8701177e-05
-7.6312699e-06
-2.8211399e-06
-6.5349194e-05
-7.8250723e-06
-8.1389387e-06
-6.2202006e-05
-8.2799284e-06
-1.5141283e-05
-7.1552954e-05
-1.1368257e-05
-2.113587e-05
-5.4246838e-05
-9.1402886e-06
-1.7266552e-05
-4.2277267e-05
-7.8760089e-06
-1.1930616e-05
-2.8704829e-05
-5.8609002e-06
-1.3546584e-05
-2.8368322e-06
-2.8674244e-05
-2.3407658e-05
-1.6197297e-06
2.3087581e-05
-3.8273933e-05
-4.6814555e-06
1.4499198e-05
-5.2808263e-05
-6.8385274e-06
1.4173723e-05
-7.251874e-05
-8.8158305e-06
1.9346168e-05
-6.6345364e-05
-1.0510145e-05
2.2187464e-05
-6.9065203e-05
-8.5883642e-06
1.592936e-05
-7.0967067e-05
-7.5338187e-06
6.7886691e-06
-7.1510961e-05
-7.505623e-06
1.391869e-06
-7.0035149e-05
-7.6334125e-06
-3.211776e-06
-6.6635843e-05
-7.812401e-06
-8.6496979e-06
-6.3498905e-05
-8.230711e-06
-1.5797124e-05
-7.3271172e-05
-1.1171147e-05
-2.1944075e-05
-5.5513698e-05
-8.9139109e-06
-1.8004849e-05
-4.3237631e-05
-7.6322288e-06
-1.2526377e-05
-2.9348504e-05
-5.6334915e-06
-1.4111677e-05
-2.6922051e-06
-2.9481181e-05
-2.3633743e-05
-1.4074829e-06
2.3323868e-05
-3.88116e-05
-4.2455786e-06
1.4702599e-05
-5.363425e-05
-6.3661682e-06
1.4341896e-05
-7.3697311e-05
-8.3729254e-06
1.9571813e-05
-6.7326524e-05
-1.008262e-05
2.2361702e-05
-7.0014476e-05
-8.3759877e-06
1.5983151e-05
-7.1931064e-05
-7.4456155e-06
6.6987965e-06
-7.2513042e-05
-7.4404257e-06
1.2083212e-06
-7.103741e-05
-7.5646946e-06
-3.5014753e-06
-6.7607674e-05
-7.7108865e-06
-9.0425149e-06
-6.4465854e-05
-8.039488e-06
-1.6295743e-05
-7.4540418e-05
-1.0700677e-05
-2.2568962e-05
-5.6465125e-05
-8.460062e-06
-1.8539831e-05
-4.3969155e-05
-7.185928e-06
-1.2947679e-05
-2.9838642e-05
-5.2580698e-06
-1.4502597e-05
-2.4699433e-06
-3.0051561e-05
-2.3358765e-05
-1.3344555e-06
2.3196336e-05
-3.8581025e-05
-3.9788532e-06
1.492058e-05
-5.3565573e-05
-6.054791e-06
1.464953e-05
-7.3854131e-05
-8.0457387e-06
1.9925778e-05
-6.7636617e-05
-9.7603181e-06
2.2693663e-05
-7.0386054e-05
-8.1877192e-06
1.6321456e-05
-7.2330868e-05
-7.3490783e-06
6.9415857e-06
-7.2927916e-05
-7.3270096e-06
1.3647373e-06
-7.1448127e-05
-7.4298885e-06
-3.4209747e-06
-6.799662e-05
-7.5516239e-06
-9.0242833e-06
-6.4821444e-05
-7.8171297e-06
-1.6339144e-05
-7.4895696e-05
-1.0246111e-05
-2.2665411e-05
-5.6742624e-05
-8.0611355e-06
-1.8574291e-05
-4.4172598e-05
-6.8191817e-06
-1.2944415e-05
-2.9966409e-05
-4.9768169e-06
-1.4485229e-05
-2.3239426e-06
-3.0103528e-05
-2.2779858e-05
-1.4834445e-06
2.2848993e-05
-3.7828331e-05
-4.0880776e-06
1.5124406e-05
-5.281461e-05
-6.1099823e-06
1.5027662e-05
-7.3203211e-05
-8.0576679e-06
2.0354696e-05
-6.7422992e-05
-9.741478e-06
2.3153761e-05
-7.0331352e-05
-8.0962416e-06
1.6906291e-05
-7.2322648e-05
-7.2591302e-06
7.4738361e-06
-7.289879e-05
-7.18587e-06
1.8164379e-06
-7.1388235e-05
-7.2646246e-06
-3.0183929e-06
-6.7908999e-05
-7.3870505e-06
-8.6501489e-06
-6.4657743e-05
-7.6452654e-06
-1.5969196e-05
-7.4485542e-05
-1.0059738e-05
-2.2297658e-05
-5.6427457e-05
-7.9582181e-06
-1.8173898e-05
-4.3907524e-05
-6.7653162e-06
-1.258031e-05
-2.9776059e-05
-4.979444e-06
-1.4127272e-05
-2.3611176e-06
-2.9733642e-05
-2.2363882e-05
-1.7962874e-06
2.2605731e-05
-3.7189176e-05
-4.5566457e-06
1.5259184e-05
-5.2119364e-05
-6.5372133e-06
1.5333141e-05
-7.2531205e-05
-8.4055243e-06
2.0726623e-05
-6.716482e-05
-1.0036078e-05
2.3635597e-05
-7.0261219e-05
-8.123488e-06
1.7490505e-05
-7.2309772e-05
-7.176e-06
8.0203498e-06
-7.284743e-05
-7.0359763e-06
2.2874402e-06
-7.1293885e-05
-7.0949662e-06
-2.5783121e-06
-6.7780225e-05
-7.2492952e-06
-8.2213429e-06
-6.4451909e-05
-7.5932223e-06
-1.5534732e-05
-7.3983739e-05
-1.024787e-05
-2.1832629e-05
-5.602296e-05
-8.2283661e-06
-1.7707526e-05
-4.3558191e-05
-7.0802734e-06
-1.2156527e-05
-2.9527184e-05
-5.2886648e-06
-1.3720513e-05
-2.5798173e-06
-2.9303639e-05
-2.2593713e-05
-2.1078448e-06
2.283471e-05
-3.7391299e-05
-5.1442989e-06
1.5347899e-05
-5.2315222e-05
-7.1015731e-06
1.5469198e-05
-7.2808781e-05
-8.89712e-06
2.094272e-05
-6.746762e-05
-1.0426486e-05
2.3968539e-05
-7.0667793e-05
-8.1774228e-06
1.7792824e-05
-7.2758639e-05
-7.0532462e-06
8.2466935e-06
-7.3257895e-05
-6.857127e-06
2.4393021e-06
-7.1656821e-05
-6.9114623e-06
-2.4558288e-06
-6.8105373e-05
-7.1140071e-06
-8.1156526e-06
-6.4742351e-05
-7.5830345e-06
-1.5441636e-05
-7.4256473e-05
-1.0610541e-05
-2.1737929e-05
-5.6203154e-05
-8.671114e-06
-1.7621142e-05
-4.3677701e-05
-7.5666399e-06
-1.204225e-05
-2.9605524e-05
-5.7150239e-06
-1.3643857e-05
-2.8557048e-06
-2.9326344e-05
-2.3531196e-05
-2.2522283e-06
2.3606291e-05
-3.8645428e-05
-5.5168875e-06
1.5445156e-05
-5.375823e-05
-7.463768e-06
1.5437496e-05
-7.4493207e-05
-9.1813471e-06
2.0990021e-05
-6.865366e-05
-1.0593372e-05
2.4087181e-05
-7.1809559e-05
-8.1054294e-06
1.7682545e-05
-7.3904457e-05
-6.8361356e-06
8.0022861e-06
-7.4387982e-05
-6.6242428e-06
2.1243661e-06
-7.276044e-05
-6.6852988e-06
-2.8190417e-06
-6.9184607e-05
-6.925916e-06
-8.5335521e-06
-6.5877039e-05
-7.510061e-06
-1.5929798e-05
-7.5822901e-05
-1.0813954e-05
-2.2290823e-05
-5.7384411e-05
-8.940184e-06
-1.8178757e-05
-4.4598872e-05
-7.8760248e-06
-1.2480988e-05
-3.0233149e-05
-5.9670336e-06
-1.4109265e-05
-3.0058098e-06
-3.0079083e-05
-2.4787151e-05
-2.1733646e-06
2.4640497e-05
-4.0491958e-05
-5.4599001e-06
1.5603145e-05
-5.5962855e-05
-7.3689773e-06
1.5349563e-05
-7.7098331e-05
-9.0353951e-06
2.0950839e-05
-7.0440217e-05
-1.0329749e-05
2.4043752e-05
-7.344173e-05
-7.8016137e-06
1.7296699e-05
-7.551887e-05
-6.4958009e-06
7.460612e-06
-7.6024183e-05
-6.3001559e-06
1.5065352e-06
-7.4398608e-05
-6.3709787e-06
-3.5066425e-06
-7.0811004e-05
-6.6178161e-06
-9.3108213e-06
-6.7617047e-05
-7.2347892e-06
-1.6828616e-05
-7.8293158e-05
-1.0541661e-05
-2.3328839e-05
-5.9274104e-05
-8.7612137e-06
-1.9208834e-05
-4.6088225e-05
-7.7303252e-06
-1.3332503e-05
-3.1252264e-05
-5.8346458e-06
-1.4965136e-05
-2.9132373e-06
-3.1341442e-05
-2.588912e-05
-1.9162662e-06
2.5569824e-05
-4.2223173e-05
-4.9849437e-06
1.5815921e-05
-5.8124435e-05
-6.8187351e-06
1.5311778e-05
-7.9711159e-05
-8.426937e-06
2.0952988e-05
-7.2259946e-05
-9.6287906e-06
2.3987061e-05
-7.5078149e-05
-7.266131e-06
1.6907249e-05
-7.7137002e-05
-6.0389363e-06
6.9206486e-06
-7.7698079e-05
-5.8718502e-06
8.9292925e-07
-7.610149e-05
-5.9442392e-06
-4.1987194e-06
-7.2510284e-05
-6.1674385e-06
-1.0103761e-05
-6.9425599e-05
-6.7415455e-06
-1.7767913e-05
-8.0810446e-05
-9.7821324e-06
-2.442715e-05
-6.1200511e-05
-8.1086548e-06
-2.0275659e-05
-4.7608425e-05
-7.1237661e-06
-1.4202739e-05
-3.2287318e-05
-5.3283336e-06
-1.5825041e-05
-2.6094113e-06
-3.2589873e-05
-2.6586535e-05
-1.5733789e-06
2.6187509e-05
-4.3405283e-05
-4.2538096e-06
1.6045166e-05
-5.9669217e-05
-5.9693575e-06
1.5389496e-05
-8.1674903e-05
-7.5138587e-06
2.1056069e-05
-7.370537e-05
-8.6253623e-06
2.4012448e-05
-7.638732e-05
-6.5703563e-06
1.6708785e-05
-7.8437323e-05
-5.4995879e-06
6.5915579e-06
-7.9055281e-05
-5.3588713e-06
4.987481e-07
-7.7485266e-05
-5.4249987e-06
-4.6659994e-06
-7.3883902e-05
-5.6056274e-06
-1.0657222e-05
-7.085588e-05
-6.0749241e-06
-1.8448693e-05
-8.2712878e-05
-8.663769e-06
-2.5252809e-05
-6.2662022e-05
-7.1327284e-06
-2.1041972e-05
-4.8763618e-05
-6.2152786e-06
-1.481198e-05
-3.3076127e-05
-4.5975238e-06
-1.641914e-05
-2.2017466e-06
-3.3483506e-05
-2.6853652e-05
-1.226565e-06
2.6457693e-05
-4.395118e-05
-3.4547015e-06
1.6261986e-05
-6.0485124e-05
-5.0263702e-06
1.555472e-05
-8.2814678e-05
-6.4618913e-06
2.1250573e-05
-7.4660771e-05
-7.4906241e-06
2.4147789e-05
-7.728343e-05
-5.804061e-06
1.6737879e-05
-7.9330922e-05
-4.9234719e-06
6.5152031e-06
-7.9981349e-05
-4.802822e-06
3.7197879e-07
-7.8423084e-05
-4.8531561e-06
-4.8442515e-06
-7.4804284e-05
-4.9840363e-06
-1.0898037e-05
-7.1773879e-05
-5.3323524e-06
-1.8788215e-05
-8.3832362e-05
-7.4221616e-06
-2.569891e-05
-6.3516306e-05
-6.0476979e-06
-2.1422525e-05
-4.943445e-05
-5.2150419e-06
-1.5090017e-05
-3.3532542e-05
-3.8164421e-06
-1.6685226e-05
-1.791029e-06
-3.3944554e-05
-2.6777593e-05
-9.3133818e-07
2.6439792e-05
-4.3972253e-05
-2.7277108e-06
1.6434778e-05
-6.0655476e-05
-4.1266465e-06
1.5761649e-05
-8.3200473e-05
-5.4349121e-06
2.1483646e-05
-7.5147758e-05
-6.3787644e-06
2.4350828e-05
-7.7791156e-05
-5.05028e-06
1.6938738e-05
-7.9842127e-05
-4.3574892e-06
6.640396e-06
-8.0494089e-05
-4.2487601e-06
4.5804009e-07
-7.8923371e-05
-4.2767162e-06
-4.7945566e-06
-7.5273551e-05
-4.3581984e-06
-1.0888549e-05
-7.2191167e-05
-4.5887652e-06
-1.8838298e-05
-8.4233319e-05
-6.2176511e-06
-2.5813658e-05
-6.3813819e-05
-5.0125714e-06
-2.1472533e-05
-4.9668512e-05
-4.2743883e-06
-1.5095384e-05
-3.3693448e-05
-3.1034728e-06
-1.669232e-05
-1.4335678e-06
-3.4052915e-05
-2.6468748e-05
-7.1060494e-07
2.6211296e-05
-4.3613322e-05
-2.1499066e-06
1.6540112e-05
-6.035207e-05
-3.3669577e-06
1.5950476e-05
-8.2995875e-05
-4.5281727e-06
2.1711523e-05
-7.5245897e-05
-5.3955571e-06
2.4585417e-05
-7.7970873e-05
-4.3680765e-06
1.7233317e-05
-8.0032698e-05
-3.8313249e-06
6.8964476e-06
-8.066639e-05
-3.7285177e-06
6.88131e-07
-7.9071498e-05
-3.7331852e-06
-4.5834144e-06
-7.5383528e-05
-3.773978e-06
-1.069889e-05
-7.2218521e-05
-3.9189818e-06
-1.8687027e-05
-8.4084049e-05