/*--------------------------------*- C++ -*----------------------------------*\
  =========                 |
  \\      /  F ield         | OpenFOAM: The Open Source CFD Toolbox
   \\    /   O peration     | Website:  https://openfoam.org
    \\  /    A nd           | Version:  7
     \\/     M anipulation  |
\*---------------------------------------------------------------------------*/
FoamFile
{
    version     2.0;
    format      ascii;
    class       volScalarField;
    location    "0.00044";
    object      Ux;
}
// * * * * * * * * * * * * * * * * * * * * * * * * * * * * * * * * * * * * * //

dimensions      [0 1 -1 0 0 0 0];

internalField   nonuniform List<scalar> 
5000
(
1.2146027e-12
1.2760493e-12
1.192766e-12
1.0221647e-12
1.369794e-12
1.4376049e-12
1.0331572e-12
9.1284465e-13
1.0623007e-12
1.0105863e-12
9.3958231e-13
4.3421667e-13
7.153452e-13
9.5084258e-13
7.8122321e-13
4.4265418e-13
3.3854554e-13
4.6538609e-13
5.5058958e-13
6.0006322e-13
6.2411224e-13
6.1181147e-13
5.441607e-13
2.8506431e-13
9.0497736e-13
9.9257419e-13
8.3865323e-13
8.5101016e-13
6.4482672e-13
9.2314272e-13
9.9576884e-13
1.2240551e-12
8.8674569e-13
8.2089208e-13
9.1844406e-13
6.6447889e-13
4.6361188e-13
9.6084129e-13
9.0191581e-13
8.7383601e-13
1.0494886e-12
1.1855571e-12
1.2641737e-12
8.410345e-13
6.9586609e-13
8.3103822e-13
9.6448602e-13
8.4555223e-13
9.0325466e-13
8.7447938e-13
6.6399952e-13
6.6291812e-13
6.3996173e-13
5.3825833e-13
7.3666399e-13
1.0126155e-12
1.0756148e-12
9.5548522e-13
4.8863429e-13
3.790573e-13
3.8497228e-13
2.9803036e-13
-5.0834305e-14
9.9416554e-14
1.4173456e-13
-5.6818726e-14
1.9798085e-13
1.4024418e-13
-2.6808531e-14
2.6960792e-14
2.7791882e-13
4.5236294e-13
5.5542842e-13
5.4828123e-13
2.8848792e-13
2.6882496e-13
1.7131174e-13
2.4334303e-13
2.2130342e-13
2.4181028e-13
2.7543677e-13
3.6860411e-13
5.7951098e-13
7.25721e-13
7.1587392e-13
6.9624123e-13
5.1407368e-13
5.5933559e-13
8.0041862e-13
6.4774866e-13
5.4543695e-13
5.9756597e-13
7.4599978e-13
5.2168232e-13
7.8707263e-13
6.2596639e-13
8.7281774e-13
7.9226322e-13
4.5925969e-13
6.4539828e-13
4.9561712e-13
7.4755379e-13
9.4304187e-13
7.0878717e-13
1.066013e-12
8.1482883e-13
1.0223144e-12
1.339988e-12
1.2382675e-12
1.1413561e-12
1.3197597e-12
1.6250991e-12
1.1103767e-12
8.5664858e-13
7.4837069e-13
9.8120584e-13
1.0380999e-12
1.0044863e-12
9.8297203e-13
7.7995677e-13
8.2688998e-13
1.0217399e-12
1.0236815e-12
9.5501862e-13
9.2371229e-13
6.6491209e-13
4.0150712e-13
6.0886487e-13
6.2398344e-13
9.8324146e-13
1.068258e-12
1.0635398e-12
1.2975718e-12
1.4665949e-12
1.15545e-12
8.6054724e-13
7.4728704e-13
7.9470401e-13
1.0594237e-12
1.1747843e-12
1.0003235e-12
7.2430965e-13
1.1083845e-12
1.2240222e-12
9.0469424e-13
9.8099355e-13
1.1323608e-12
1.2259126e-12
1.5056039e-12
1.7989733e-12
1.6978972e-12
1.294056e-12
1.6456343e-12
1.6455638e-12
1.6555877e-12
1.3901978e-12
1.4770227e-12
1.7538462e-12
1.392569e-12
1.67185e-12
1.1349272e-12
1.2949197e-12
1.2763573e-12
1.3714138e-12
1.1657555e-12
1.1942182e-12
1.2387837e-12
1.0008912e-12
1.1775153e-12
9.3878724e-13
1.1516639e-12
1.1968717e-12
1.2754019e-12
1.0252472e-12
1.0180028e-12
1.0744031e-12
1.2925696e-12
1.4515264e-12
1.4635405e-12
1.1934055e-12
1.2364648e-12
1.4703563e-12
1.8409429e-12
1.665803e-12
1.5244316e-12
1.4756824e-12
1.1825347e-12
1.5102971e-12
1.7550931e-12
1.5463458e-12
1.4278539e-12
1.3170792e-12
1.27976e-12
1.3196882e-12
1.1954792e-12
1.3380527e-12
1.3871996e-12
1.198107e-12
1.3743236e-12
1.2855936e-12
8.8317126e-13
1.2012563e-12
6.9415973e-13
5.4757586e-13
1.0725947e-12
6.5280224e-13
6.5397966e-13
5.363575e-13
5.0787731e-13
6.6007467e-13
7.2680641e-13
9.7558678e-13
1.1736198e-12
9.4924738e-13
8.4992001e-13
7.4243782e-13
1.207707e-12
1.3493333e-12
1.2386153e-12
1.2675062e-12
1.1325653e-12
1.2527164e-12
1.2457274e-12
1.2834406e-12
1.3627051e-12
1.1559033e-12
9.7047652e-13
1.006307e-12
1.1180441e-12
9.5869109e-13
1.0669279e-12
9.9540531e-13
9.2303831e-13
9.7879461e-13
9.702429e-13
1.1328295e-12
9.0235068e-13
9.2159085e-13
6.2096797e-13
4.6541108e-13
3.5564799e-13
7.4002738e-13
6.3741306e-13
7.2794312e-13
6.9580791e-13
4.6722989e-13
5.5862993e-13
5.4481543e-13
4.6647863e-13
1.8046993e-13
6.8710926e-14
-3.551175e-14
-9.1335791e-14
1.5699478e-13
2.6364803e-13
8.3981502e-14
5.5894684e-14
1.3313388e-13
6.338451e-15
-5.5873243e-14
2.8369874e-14
2.3114474e-13
4.1861412e-13
3.6103705e-13
2.9411783e-13
1.6581079e-13
6.1983991e-13
4.5246561e-13
3.2589247e-13
3.6971349e-13
2.2003038e-13
2.753233e-13
2.8097117e-13
3.164268e-13
4.1005798e-13
4.6074947e-13
3.0275953e-13
2.0844934e-13
3.2246082e-13
2.8381947e-13
2.0943025e-14
1.5319948e-13
1.2897156e-13
1.9456763e-15
-1.0930879e-13
-1.60186e-13
3.0783869e-14
2.1041104e-13
2.2834485e-13
1.6558961e-13
5.2604622e-13
5.2250677e-13
2.8800042e-13
3.1019631e-13
4.872936e-13
5.2453208e-13
3.6623781e-13
8.2050951e-13
8.404595e-13
6.2851398e-13
7.1100344e-13
9.4463308e-13
8.885688e-13
8.5314673e-13
9.618511e-13
1.047018e-12
8.1840059e-13
9.8567315e-13
1.3119504e-12
1.6041592e-12
1.7247451e-12
1.8970013e-12
2.1494042e-12
1.8236325e-12
1.7190768e-12
2.0143609e-12
1.7859779e-12
1.8729317e-12
2.0811223e-12
2.0818553e-12
2.194408e-12
2.2976192e-12
2.2286187e-12
2.0954802e-12
2.3034747e-12
1.655275e-12
2.0680645e-12
2.1149827e-12
2.1712251e-12
2.3431471e-12
2.3390485e-12
2.2517209e-12
2.1072867e-12
1.8029394e-12
1.8109823e-12
1.8024468e-12
1.5173778e-12
1.5758825e-12
1.4850887e-12
1.4326449e-12
1.2790963e-12
1.4004551e-12
1.1797175e-12
1.1609694e-12
1.378651e-12
9.5271793e-13
8.7439281e-13
1.240392e-12
1.022333e-12
1.3238898e-12
1.5305468e-12
1.1988263e-12
1.338045e-12
1.5639268e-12
1.4087628e-12
1.6362605e-12
1.8477234e-12
1.6260231e-12
1.3254454e-12
1.4217108e-12
1.3301341e-12
1.4004683e-12
1.6739064e-12
1.6296623e-12
1.3117727e-12
1.0056229e-12
1.434123e-12
1.3356313e-12
1.5371867e-12
1.2732954e-12
1.0190524e-12
1.2246473e-12
1.515736e-12
1.5935081e-12
1.5948156e-12
1.3620068e-12
1.3450845e-12
1.6112134e-12
1.8803091e-12
2.1440315e-12
1.7403846e-12
1.643767e-12
1.7833557e-12
1.5518011e-12
1.4902052e-12
1.7835569e-12
1.7397908e-12
1.5498457e-12
1.7279093e-12
1.770638e-12
1.5059135e-12
1.8383475e-12
1.6193348e-12
1.6204567e-12
1.4460123e-12
1.284603e-12
1.6634863e-12
1.6541125e-12
1.3863579e-12
1.6433256e-12
1.7132053e-12
1.78947e-12
2.0530056e-12
1.9824788e-12
1.6079988e-12
1.3023216e-12
1.5875922e-12
1.4573799e-12
1.5514072e-12
1.810544e-12
1.5383258e-12
1.656867e-12
1.6572109e-12
1.5966274e-12
1.6536665e-12
1.5480627e-12
1.5377502e-12
1.5575458e-12
1.5502666e-12
1.6385165e-12
1.2873614e-12
1.3587682e-12
1.7160614e-12
1.7278345e-12
1.6444038e-12
1.7197959e-12
1.4864536e-12
1.3350562e-12
1.2934685e-12
1.2482749e-12
1.4198965e-12
1.3563877e-12
1.4345638e-12
1.3902648e-12
1.292808e-12
1.242806e-12
1.2173759e-12
1.0580492e-12
1.2602826e-12
1.1167243e-12
9.1203118e-13
1.1601365e-12
9.0016282e-13
1.0855776e-12
1.3026446e-12
1.383694e-12
1.54329e-12
1.0917011e-12
1.324239e-12
1.1121108e-12
8.0744128e-13
7.0594859e-13
8.3683425e-13
1.1538898e-12
6.4701924e-13
2.8955891e-13
2.8981455e-13
6.756797e-13
4.623265e-13
5.4825229e-13
8.8820142e-13
4.868694e-13
5.571717e-13
1.5679685e-13
1.5450338e-13
1.7323492e-13
2.1372981e-13
4.4644407e-13
7.1591587e-13
9.0031796e-13
1.1005456e-12
9.3954796e-13
8.0840227e-13
1.2088105e-12
1.2865415e-12
1.0214717e-12
8.4632731e-13
1.5788112e-12
1.5347028e-12
1.1608272e-12
1.1425104e-12
1.2331159e-12
1.4441719e-12
1.1231694e-12
1.0297605e-12
6.5592338e-13
5.8697745e-13
7.807109e-13
6.6263396e-13
9.5090553e-13
8.2294254e-13
9.0423762e-13
5.6391032e-13
9.1782327e-13
1.168045e-12
1.0961227e-12
1.0944703e-12
1.2649392e-12
1.2856114e-12
1.1832906e-12
1.0393696e-12
9.8266428e-13
1.0806004e-12
1.1755875e-12
1.0427367e-12
1.0166774e-12
1.2901985e-12
1.2286631e-12
1.3523694e-12
1.184963e-12
1.2005102e-12
1.3440476e-12
1.2015758e-12
1.1995508e-12
1.1000587e-12
1.0758721e-12
9.9033524e-13
1.26749e-12
1.6477899e-12
1.5057218e-12
1.4519953e-12
1.4390158e-12
1.0076974e-12
8.1211087e-13
1.0881446e-12
8.9087314e-13
8.6796882e-13
1.2692005e-12
1.5358758e-12
1.3938959e-12
9.4311944e-13
6.9159123e-13
4.2754766e-13
4.7630947e-13
4.8605262e-13
5.0667527e-13
6.4108557e-13
3.7898192e-13
4.4023828e-13
7.5156765e-13
1.169194e-12
1.1899879e-12
1.164395e-12
1.0092658e-12
1.0048568e-12
8.3457935e-13
9.5864617e-13
9.6649974e-13
5.499113e-13
5.5103313e-13
1.0677607e-12
1.1630578e-12
9.7763105e-13
1.1957716e-12
1.1831159e-12
1.047958e-12
9.3510959e-13
6.6991716e-13
6.9932349e-13
9.755341e-13
1.1150622e-12
1.2541246e-12
1.0508565e-12
1.0508423e-12
1.1938236e-12
1.0910571e-12
8.533119e-13
5.9877764e-13
6.8568131e-13
4.7284494e-13
2.6927738e-13
4.3176192e-13
3.1249346e-13
3.8241833e-13
5.0941428e-13
5.4710047e-13
5.8066539e-13
4.2647862e-13
5.3030418e-13
9.8951747e-14
-1.3778561e-13
7.0108367e-14
1.5565299e-13
3.4580684e-13
4.699287e-13
3.8038749e-13
5.5071639e-13
8.2108846e-13
6.6409074e-13
8.4526863e-13
9.2073603e-13
4.9513071e-13
3.6497753e-13
5.2081542e-13
8.02614e-13
5.7393422e-13
5.1202331e-13
4.3689777e-13
4.1414772e-13
5.5740819e-13
6.5967753e-13
6.8545707e-13
4.5959679e-13
1.1449981e-13
2.8540693e-13
5.7932697e-13
5.3587654e-13
5.7744846e-13
3.6712401e-13
6.300437e-13
5.6203472e-13
7.7279293e-13
7.86686e-13
7.4206959e-13
6.6924661e-13
4.4293211e-13
5.4214558e-13
6.3824098e-13
9.0371713e-13
8.8606689e-13
5.1126537e-13
6.2655517e-13
5.802118e-13
4.8658143e-13
4.6282068e-13
4.9350372e-13
3.6845048e-13
1.6738897e-13
2.50253e-13
3.8925591e-13
2.7079995e-13
2.4266078e-13
1.6778014e-13
2.9949746e-13
3.8347638e-13
3.5015637e-13
2.6997804e-13
8.2845492e-14
1.4971941e-13
-3.0719286e-14
-3.0872334e-13
-2.3473075e-13
-1.7478299e-13
-4.3142251e-13
-1.8368294e-13
-2.2536171e-13
-3.0496593e-14
4.8636517e-14
1.6837538e-13
2.869729e-13
1.5083073e-13
-1.5264862e-13
-4.6003077e-13
-2.5938012e-13
-1.5659535e-13
-2.2032226e-13
-2.638387e-13
-9.4934376e-14
-1.7458334e-13
-4.4103743e-13
-3.3660322e-13
-3.8949191e-13
-1.2171618e-13
-7.9180068e-14
-1.2783567e-14
1.3957683e-13
3.0893056e-14
1.7905574e-13
7.4593834e-14
-2.8933473e-13
-4.2666045e-13
-4.2040347e-13
-2.7736715e-13
-3.2052976e-13
-4.207901e-13
-1.9946452e-13
-4.4308615e-13
-5.4494627e-13
-7.7796548e-13
-8.4172833e-13
-9.6292096e-13
-1.11199e-12
-1.1892137e-12
-1.0260643e-12
-1.0186798e-12
-1.1734414e-12
-8.6488881e-13
-9.0736893e-13
-9.5141233e-13
-1.0267948e-12
-6.3175446e-13
-6.8257312e-13
-7.8882607e-13
-5.8725443e-13
-4.9623991e-13
-3.8457157e-13
-4.2319818e-13
-4.7072874e-13
-5.5502153e-13
-5.016536e-13
-3.0283854e-13
-2.413297e-13
-3.807446e-13
-2.0496593e-13
1.7357185e-13
1.2015452e-15
-2.5244235e-13
-4.9563319e-13
-7.3066429e-13
-6.8674606e-13
-7.8926686e-13
-7.4424082e-13
-5.9079397e-13
-4.6924442e-13
-5.7833435e-13
-5.7442845e-13
-9.8296871e-13
-1.157948e-12
-8.0993348e-13
-6.6749672e-13
-7.2189272e-13
-6.3031056e-13
-4.1841568e-13
-2.5161928e-13
-2.2127199e-13
-4.4365509e-13
-6.2244502e-13
-3.3435417e-13
-3.8589386e-13
-5.9828256e-13
-6.6115664e-13
-6.6343389e-13
-2.3905564e-13
-3.3409639e-13
-3.7050842e-13
-4.5340767e-13
-2.9449432e-13
-3.3395281e-13
-4.2675592e-13
-4.5154661e-13
-4.7346773e-13
-5.0349562e-13
-3.4826274e-13
-5.4708631e-13
-4.9919979e-13
-4.7123686e-13
-4.4969483e-13
-4.8950689e-13
-4.3258957e-13
-2.7599363e-13
-3.6220602e-13
-1.0852466e-13
-3.0181649e-13
-2.6817847e-13
-4.6479741e-13
-1.7106644e-13
-3.6212198e-13
-3.1421295e-13
-3.3594471e-13
-1.5157807e-13
-8.8820146e-14
-2.6992272e-13
-3.3265957e-13
-3.1404546e-13
-6.5569649e-14
1.2161866e-13
-2.1259612e-14
-2.3216904e-13
-2.4609653e-13
-2.8089346e-13
-2.6904329e-13
-2.0910053e-13
-1.0686886e-13
1.1989985e-15
-2.6899886e-13
-3.1208001e-13
-8.0483474e-14
-2.0455794e-13
8.5867795e-14
5.3801743e-13
3.4860781e-13
1.6414915e-13
1.6983234e-13
5.5648919e-13
4.697975e-13
3.1869493e-14
4.7596222e-13
4.2615137e-13
5.6070787e-13
5.9290851e-13
7.6239867e-13
6.0836075e-13
3.3926897e-13
7.0455238e-13
6.8663253e-13
5.7388698e-13
9.3181517e-13
2.322657e-13
2.2165952e-13
3.4552629e-13
3.5249713e-13
5.0484386e-13
5.1076689e-13
4.4646014e-13
2.5459176e-13
3.4960406e-13
3.9870209e-13
3.0127971e-13
3.0767832e-13
3.6502918e-13
4.1114848e-13
6.0975175e-13
6.2976434e-13
6.0000314e-13
5.9499427e-13
6.2133239e-13
7.1553249e-13
9.8477587e-13
9.255317e-13
1.1395889e-12
1.1206337e-12
8.7904743e-13
1.0113959e-12
1.2119853e-12
1.1571683e-12
1.261359e-12
1.4050747e-12
1.3927749e-12
1.3734278e-12
1.3821297e-12
1.2885187e-12
1.2474498e-12
1.2078317e-12
9.632775e-13
7.4909717e-13
8.0894002e-13
5.1070828e-13
7.4766436e-13
6.7234094e-13
3.6438863e-13
6.0715172e-13
3.7957119e-13
2.1786779e-13
2.9173632e-13
1.0649269e-13
1.6931051e-13
-5.1100852e-14
-3.7288256e-13
-4.5384943e-14
1.5160871e-13
3.910751e-13
4.4016988e-13
4.2296174e-13
2.3349045e-13
6.1263263e-14
7.7173379e-14
2.0344162e-13
8.0602405e-13
9.516934e-13
6.8844764e-13
5.4793457e-13
6.8098083e-13
6.4188073e-13
6.0459468e-13
5.0239742e-13
5.5770033e-13
7.6616091e-13
8.6873342e-13
1.0134633e-12
1.0208691e-12
9.2325529e-13
8.8220649e-13
6.237679e-13
2.4171839e-13
9.6966803e-14
2.9924576e-13
2.7752301e-13
3.1045322e-13
4.8470484e-13
7.834223e-13
6.6934617e-13
4.0370281e-13
2.6162419e-13
2.9250478e-13
5.4460493e-13
2.4883951e-13
2.1389018e-13
1.1819811e-13
1.6103399e-13
5.9337237e-14
-1.7828011e-13
-3.4675044e-13
-3.6001262e-13
-3.6224252e-13
-1.6313191e-13
-2.131306e-13
-1.2265593e-13
1.31257e-13
1.4139858e-13
-1.5097987e-13
-5.7777087e-14
8.5686326e-14
7.1147246e-14
1.3423573e-13
1.0026292e-14
8.4032023e-14
-3.068908e-14
-1.3301005e-15
1.2600636e-13
2.0271383e-13
4.263637e-13
2.5416424e-13
5.1405251e-14
1.8807218e-13
2.0575385e-13
1.0181982e-13
2.0590566e-13
3.880831e-13
4.3759572e-13
4.6925339e-13
3.6484856e-13
3.5308997e-13
1.4076556e-13
6.2999979e-14
4.634675e-13
3.9104409e-13
4.4918498e-13
2.2419778e-13
1.7594511e-13
2.9286681e-13
3.9202083e-14
-6.5171958e-14
-2.1726106e-13
2.8592156e-13
2.3778935e-13
2.9287891e-13
2.4551375e-13
1.8239214e-13
5.8639116e-13
5.2826696e-13
2.82837e-13
1.8084812e-13
-1.4823142e-13
4.5457301e-14
3.6083288e-13
4.2324876e-13
6.5829321e-13
5.7708521e-13
2.0342207e-13
2.0373928e-14
-4.5972336e-15
-5.0065573e-14
-4.3382883e-14
5.4417895e-14
1.2469164e-13
-1.7521064e-13
-5.643852e-13
-5.1529153e-13
-5.0961275e-13
-7.5128359e-13
-8.6431163e-13
-6.224273e-13
-5.8447111e-13
-5.7887765e-13
-6.7322031e-13
-8.2488278e-13
-6.9959874e-13
-5.532407e-13
-6.8857654e-13
-1.1111498e-12
-6.3160783e-13
-4.5142434e-13
-4.8910673e-13
-1.0287203e-13
-5.7804588e-14
-8.5719253e-14
-1.6878618e-13
-4.8705389e-13
-6.0026403e-13
-7.6985938e-13
-7.4395813e-13
-5.6133266e-13
-2.0539075e-13
-3.4538107e-13
-3.1533183e-13
-4.830901e-13
-4.9032832e-13
-7.0515357e-13
-7.3429567e-13
-8.0419495e-13
-6.367468e-13
-3.6150068e-13
-3.4818395e-13
-3.4486419e-13
-1.7612216e-13
-4.6790598e-14
-2.4793086e-14
2.1642879e-13
5.0542957e-13
6.5723307e-13
7.2679941e-13
1.0447792e-12
6.1486648e-13
4.5855482e-13
4.6226483e-13
8.5919882e-13
1.1063712e-12
1.1597188e-12
1.1090091e-12
1.2003106e-12
1.157564e-12
1.2088296e-12
1.455117e-12
1.513658e-12
1.5711852e-12
1.5825557e-12
1.1604868e-12
1.0039339e-12
1.1131373e-12
9.1866951e-13
8.706723e-13
5.7657786e-13
5.1066783e-13
2.0189256e-13
1.6010136e-13
1.127664e-13
6.0152827e-14
5.1291292e-14
2.3986168e-13
4.0867576e-13
1.7515865e-13
-4.157072e-14
-8.4594167e-14
-1.6869818e-13
-1.7269299e-13
-4.7993674e-14
3.1926269e-14
-2.7634548e-14
-2.2297714e-13
-1.4394022e-13
-1.1808995e-13
-1.5453954e-14
-1.554288e-13
-3.8341772e-13
-3.9776312e-13
-4.1040524e-13
-2.658062e-13
-1.8948058e-13
-2.352523e-13
-2.9218158e-13
2.6843548e-15
-4.6722091e-14
-8.3528315e-14
-1.4179369e-13
7.4008075e-14
2.080241e-13
1.0167547e-13
7.6211114e-14
1.0125819e-14
2.3057212e-14
-4.5632231e-14
-9.3347411e-14
6.7214528e-14
1.151559e-13
-1.8222734e-13
-2.0676463e-14
-1.1988402e-13
2.1299397e-13
-1.139119e-13
-1.268628e-13
-4.2244041e-14
6.1619424e-14
-4.7146315e-15
-6.8140857e-14
1.157944e-13
3.8224546e-13
4.0146262e-13
2.0758731e-13
2.9172416e-13
2.6335972e-13
3.593343e-13
1.7776246e-13
2.9191218e-13
3.1621565e-13
4.3010999e-13
-1.1944294e-13
-2.7358975e-13
1.0398268e-14
4.7099844e-14
1.0288622e-13
2.1355738e-13
1.8631708e-13
-2.0774117e-13
-4.4777592e-14
-6.7115537e-14
1.2424378e-13
2.3901806e-13
1.2950148e-13
3.5234952e-13
4.3218424e-13
2.4855051e-13
4.1589459e-13
5.6411514e-13
1.40688e-13
-1.2301417e-14
1.3470565e-13
1.0629897e-13
1.1243652e-13
1.491467e-13
3.0460332e-13
3.4150176e-13
1.9644002e-13
1.7943829e-13
1.0649903e-13
8.5463658e-14
9.273281e-14
2.0258063e-14
3.8580324e-13
5.1671157e-13
6.7083675e-13
5.6487865e-13
5.7119618e-13
7.2159698e-13
7.2856435e-13
7.8545928e-13
9.7407564e-13
1.4172005e-12
1.7720111e-12
1.8170805e-12
1.6311085e-12
1.7270176e-12
1.6905769e-12
1.9727092e-12
1.66845e-12
1.7233227e-12
1.7926747e-12
1.8185802e-12
1.7833289e-12
1.7924395e-12
1.8763324e-12
1.8366536e-12
1.6462525e-12
1.4732941e-12
1.6872025e-12
1.9093156e-12
1.971693e-12
2.1944094e-12
2.6149448e-12
2.4118509e-12
1.868192e-12
2.1141571e-12
2.0593524e-12
1.9262669e-12
2.1884122e-12
2.246115e-12
2.4205822e-12
1.8905017e-12
1.8317364e-12
1.979299e-12
2.1157659e-12
1.6725545e-12
1.3458384e-12
1.3195279e-12
1.3803889e-12
1.4485457e-12
1.4755889e-12
1.3813903e-12
1.1925437e-12
1.3006847e-12
1.1588212e-12
9.7715145e-13
8.8893449e-13
8.6639063e-13
7.7559919e-13
8.0089058e-13
7.1542841e-13
3.9443862e-13
2.671868e-13
2.5481009e-13
4.5734722e-13
4.1579327e-13
2.6830075e-13
6.8621025e-14
3.0904095e-13
2.67616e-13
3.7208532e-14
5.7463217e-14
6.5548641e-14
-1.5249416e-13
-3.5117868e-13
-3.0554191e-13
-1.2302042e-13
-2.5626168e-13
-8.8062608e-14
4.3342271e-14
2.1539812e-14
1.9360887e-13
1.9243134e-13
1.4339573e-13
-1.170133e-13
4.3120318e-14
1.4605244e-13
4.3829356e-13
3.2911798e-13
2.9317649e-13
4.6925291e-13
4.7606549e-13
2.510347e-13
2.3677591e-13
1.5867759e-13
6.9511216e-14
7.8040095e-15
3.8861601e-13
5.4277339e-13
4.2244225e-13
7.0348191e-13
6.4993467e-13
6.666022e-13
8.6297777e-13
7.2595424e-13
8.174324e-13
9.8582085e-13
7.3518505e-13
5.5047927e-13
6.6517674e-13
1.1655005e-12
1.2645122e-12
1.0661912e-12
1.0622745e-12
1.0652433e-12
1.161958e-12
1.365378e-12
9.234148e-13
9.9702849e-13
1.4990536e-12
1.4467516e-12
1.2824525e-12
1.4036043e-12
1.4115045e-12
1.6395328e-12
1.6245389e-12
1.4549742e-12
1.4241083e-12
1.3332704e-12
1.5683966e-12
1.7614674e-12
1.4707436e-12
1.3574411e-12
1.2902571e-12
1.2978509e-12
1.5490079e-12
1.5772251e-12
1.112298e-12
1.2686217e-12
1.6845777e-12
1.3847567e-12
1.5865188e-12
1.4823412e-12
1.4440323e-12
1.8170836e-12
1.9823859e-12
2.0501533e-12
1.7734465e-12
1.7033902e-12
1.9018269e-12
2.0391791e-12
1.5834878e-12
1.3553219e-12
1.4694074e-12
1.4137073e-12
1.2925406e-12
1.1639089e-12
1.464857e-12
1.3413258e-12
1.0494947e-12
7.2630754e-13
7.5610097e-13
6.8848063e-13
5.8157127e-13
3.5418976e-13
1.4233629e-13
-2.0135926e-14
2.1229614e-13
4.5426694e-13
1.4007473e-14
-3.0611866e-13
3.8159525e-14
2.2997263e-13
9.1581778e-14
1.0224396e-13
-2.6009086e-13
-5.5418685e-13
-1.2665957e-13
8.6759851e-14
2.3074455e-13
2.6424083e-13
1.206612e-13
1.3238453e-13
1.4254326e-13
7.790444e-14
1.77912e-13
3.8456599e-13
2.1626461e-13
2.9946216e-13
4.238791e-13
8.3662583e-13
8.5073626e-13
7.6363643e-13
8.1553147e-13
6.1095302e-13
5.7862888e-13
5.1640294e-13
6.6582417e-13
5.9025784e-13
4.5055277e-13
5.1862828e-13
3.991903e-13
2.686346e-13
-8.6620223e-14
-1.1452273e-13
-1.0321899e-13
2.4449988e-13
1.7817991e-13
-1.7624892e-13
-4.3928528e-13
-3.6919618e-13
-2.515869e-14
5.9310154e-14
1.3037592e-13
8.7258756e-14
2.1196835e-14
-6.3208746e-14
-3.8071298e-13
-5.7273559e-13
-5.2894883e-13
-8.8909571e-13
-6.3239707e-13
-4.6446371e-13
-5.610097e-13
-9.0449971e-13
-8.4866737e-13
-9.4574728e-13
-8.1777861e-13
-7.8693326e-13
-9.7664306e-13
-9.4965958e-13
-1.0962563e-12
-1.0016061e-12
-1.3697469e-12
-1.0496632e-12
-6.2262009e-13
-3.094917e-13
-2.100798e-13
-1.3656109e-13
-2.3051723e-13
-1.4276207e-13
-3.0105146e-13
-3.863994e-13
-4.7379122e-13
-5.660274e-13
-4.9007283e-13
-4.0026581e-13
1.1078215e-13
1.3861928e-13
1.1307705e-13
2.0568311e-13
1.1401927e-14
3.0024808e-14
4.1426659e-13
2.6650443e-13
4.3387725e-13
3.2511434e-13
3.8482732e-13
1.8286387e-13
-4.3274839e-14
-8.6455187e-14
-8.4370344e-14
3.5031519e-13
5.2928744e-13
3.7218472e-13
6.183876e-14
4.9670909e-14
9.8852037e-14
5.5350289e-14
1.5569815e-14
1.0992522e-13
4.8920999e-13
3.3184594e-13
4.2265387e-13
7.0586488e-13
9.9372073e-13
1.1754677e-12
1.5083081e-12
1.758227e-12
2.184878e-12
2.3380088e-12
2.6538944e-12
3.4234236e-12
4.1349891e-12
4.8160327e-12
5.9425514e-12
6.9857295e-12
7.6557877e-12
8.8023218e-12
1.0119298e-11
1.166402e-11
1.3335623e-11
1.5852325e-11
1.8511674e-11
2.1095502e-11
2.4023098e-11
2.7453586e-11
3.1180293e-11
3.5640367e-11
4.1543363e-11
4.7528831e-11
5.3628297e-11
6.1168401e-11
6.966219e-11
7.9368817e-11
9.0429446e-11
1.0335346e-10
1.1786711e-10
1.3357593e-10
1.5157362e-10
1.7268343e-10
1.9624296e-10
2.2337702e-10
2.537205e-10
2.8732862e-10
3.2615784e-10
3.7049287e-10
4.1995746e-10
4.7621435e-10
5.4036227e-10
6.1262597e-10
6.9416331e-10
7.8620655e-10
8.9046718e-10
1.0079932e-09
1.1409226e-09
1.2910177e-09
1.4608394e-09
1.6525296e-09
1.8684696e-09
2.1119874e-09
2.3870669e-09
2.6975497e-09
3.0466743e-09
3.439744e-09
3.8833304e-09
4.3824402e-09
4.9436218e-09
5.5760322e-09
6.2877465e-09
7.087944e-09
7.9874466e-09
8.9981785e-09
1.01344e-08
1.1410766e-08
1.2844526e-08
1.4453657e-08
1.6260282e-08
1.8287503e-08
2.0560363e-08
2.311008e-08
2.5968933e-08
2.9172477e-08
3.2761451e-08
3.6781466e-08
4.1282614e-08
4.6321716e-08
5.1960875e-08
5.8268543e-08
6.5322839e-08
7.3209528e-08
8.2024065e-08
9.1873862e-08
1.0287588e-07
1.1516114e-07
1.2887515e-07
1.4417923e-07
1.6125281e-07
1.8029325e-07
2.015226e-07
2.2518544e-07
2.5155028e-07
2.8091791e-07
3.1361918e-07
3.5002162e-07
3.9053196e-07
4.3559876e-07
4.8571869e-07
5.4144099e-07
6.0337214e-07
6.7218179e-07
7.4861003e-07
8.3347335e-07
9.2767242e-07
1.0322007e-06
1.1481534e-06
1.2767376e-06
1.4192832e-06
1.5772564e-06
1.7522698e-06
1.9460967e-06
2.1606916e-06
2.398202e-06
2.660989e-06
2.9516476e-06
3.2730275e-06
3.6282601e-06
4.020781e-06
4.4543614e-06
4.933138e-06
5.4616475e-06
6.0448623e-06
6.6882282e-06
7.3977139e-06
8.1798528e-06
9.0417954e-06
9.9913658e-06
1.103712e-05
1.2188412e-05
1.3455464e-05
1.4849442e-05
1.6382541e-05
1.8068072e-05
1.9920558e-05
2.1955838e-05
2.4191186e-05
2.6645424e-05
2.9339058e-05
3.2294422e-05
3.5535825e-05
3.9089718e-05
4.2984874e-05
4.7252578e-05
5.1926829e-05
5.7044566e-05
6.2645902e-05
6.8774379e-05
7.5477247e-05
8.2805752e-05
9.0815456e-05
9.9566573e-05
0.00010912434
0.00011955938
0.00013094816
0.00014337339
0.00015692454
0.00017169832
0.00018779924
0.00020534016
0.00022444298
0.00024523919
0.0002678707
0.00029249047
0.0003192634
0.00034836714
0.00037999296
0.00041434679
0.00045165017
0.00049214135
0.00053607647
0.0005837307
0.00063539963
0.00069140056
0.00075207395
0.00081778499
0.00088892518
0.00096591402
0.0010492009
0.0011392668
0.0012366265
0.0013418306
0.0014554679
0.0015781671
0.0017106003
0.0018534846
0.0020075854
0.0021737189
0.0023527552
0.0025456215
0.0027533054
0.0029768577
0.0032173969
0.0034761122
0.0037542675
0.0040532058
0.0043743528
0.0047192219
0.0050894181
0.0054866433
0.0059127008
0.0063695004
0.0068590639
0.0073835303
0.0079451614
0.0085463477
0.0091896143
0.0098776272
0.010613199
0.011399297
0.012239048
0.013135745
0.014092857
0.015114034
0.016203113
0.017364128
0.018601319
0.019919133
0.02132224
0.022815536
0.024404152
0.026093464
0.027889098
0.029796941
0.031823148
0.033974151
0.036256667
0.038677708
0.041244584
0.043964919
0.046846653
0.049898053
0.05312772
0.056544597
0.060157977
0.063977509
0.068013207
0.072275457
0.076775021
0.081523047
0.08653107
0.091811022
0.097375238
0.10323645
0.10940782
0.11590289
0.12273564
0.12992048
0.13747221
0.14540606
0.15373771
0.16248323
0.17165912
0.18128231
0.19137013
0.20194033
0.21301108
0.22460093
0.23672886
0.24941421
0.26267673
0.27653652
0.29101407
0.30613021
0.32190611
0.33836327
0.35552352
0.37340898
0.39204205
0.41144542
0.43164202
0.45265501
0.47450776
0.49722385
0.52082702
0.54534117
0.57079032
0.59719859
0.6245902
0.6529894
0.68242049
0.71290775
0.74447545
0.77714781
0.81094897
0.84590294
0.88203363
0.91936475
0.95791983
0.99772218
1.0387948
1.0811606
1.1248418
1.1698607
1.2162389
1.2639979
1.3131584
1.3637409
1.4157654
1.4692513
1.5242175
1.5806822
1.6386633
1.6981777
1.759242
1.8218719
1.8860824
1.951888
2.0193022
2.0883379
2.1590071
2.2313212
2.3052904
2.3809246
2.4582323
2.5372215
2.6178992
2.7002715
2.7843436
2.8701198
2.9576034
3.0467969
3.1377017
3.2303184
3.3246465
3.4206846
3.5184304
3.6178806
3.7190309
3.821876
3.9264097
4.0326249
4.1405133
4.2500658
4.3612725
4.4741222
4.588603
4.704702
4.8224053
4.9416981
5.0625648
5.1849888
5.3089525
5.4344375
5.5614246
5.6898935
5.8198233
5.9511921
6.0839771
6.2181549
6.353701
6.4905903
6.6287968
6.7682939
6.9090539
7.0510487
7.1942491
7.3386256
7.4841477
7.6307842
7.7785032
7.9272724
8.0770584
8.2278276
8.3795454
8.5321768
8.6856861
8.840037
8.9951927
9.1511158
9.3077683
9.4651117
9.623107
9.7817146
9.9408945
10.100606
10.260809
10.421461
10.58252
10.743945
10.905692
11.067718
11.229981
11.392435
11.555038
11.717743
11.880508
12.043286
12.206032
12.3687
12.531244
12.693618
12.855777
13.017672
13.179259
13.34049
13.501318
13.661697
13.821578
13.980918
14.139665
14.297776
14.455202
14.611897
14.767815
14.922907
15.07713
15.230435
15.382778
15.534113
15.684394
15.833578
15.981617
16.128471
16.274094
16.418443
16.561478
16.703154
16.843433
16.982272
17.119633
17.255476
17.389764
17.52246
17.653527
17.782931
17.910637
18.036612
18.160825
18.283244
18.403843
18.522589
18.639459
18.754427
18.867467
18.97856
19.087681
19.194815
19.29994
19.403043
19.504108
19.603121
19.700074
19.794955
19.887758
19.978475
20.067104
20.153642
20.238088
20.320445
20.400713
20.478901
20.555013
20.629058
20.701048
20.770992
20.838908
20.904808
20.968711
21.030636
21.090602
21.148633
21.204749
21.25898
21.311349
21.361884
21.410615
21.457571
21.502785
21.546287
21.588112
21.628294
21.666867
21.70387
21.739335
21.773303
21.80581
21.836894
21.866594
21.894949
21.921998
21.947778
21.972332
21.995696
22.017911
22.039015
22.059045
22.078044
22.096045
22.113089
22.129211
22.144448
22.158838
22.172412
22.18521
22.197262
22.208604
22.219266
22.229281
22.238681
22.247492
22.255748
22.263474
22.270698
22.277447
22.283745
22.289619
22.29509
22.300183
22.304918
22.309316
22.313399
22.317184
22.320691
22.323935
22.326936
22.329707
22.332264
22.334622
22.336792
22.33879
22.340625
22.342311
22.343857
22.345273
22.346572
22.347757
22.348841
22.34983
22.350731
22.351552
22.352298
22.352978
22.353593
22.354151
22.354657
22.355114
22.355528
22.355899
22.356236
22.356538
22.356809
22.357054
22.357272
22.357468
22.357642
22.357799
22.357938
22.358062
22.358173
22.35827
22.358358
22.358434
22.358503
22.358564
22.358617
22.358665
22.358706
22.358745
22.358778
22.35881
22.358842
22.358867
22.358892
22.358925
22.358972
22.35901
22.359028
22.359052
22.359103
22.359156
22.359182
22.359198
22.359235
22.359288
22.359321
22.359329
22.359348
22.359397
22.359445
22.359463
22.359472
22.359514
22.359568
22.359598
22.359613
22.359648
22.359699
22.35973
22.359743
22.35977
22.359822
22.359863
22.35987
22.359874
22.359915
22.359965
22.359995
22.360011
22.360032
22.360069
22.360108
22.360134
22.360149
22.360172
22.360211
22.360249
22.360273
22.360292
22.36032
22.360355
22.36038
22.360394
22.36041
22.360444
22.360479
22.360498
22.36051
22.360533
22.360568
22.360595
22.360612
22.36063
22.360659
22.36069
22.360709
22.360724
22.36075
22.360781
22.360799
22.360801
22.360815
22.360846
22.360873
22.360892
22.360902
22.360902
22.360911
22.360927
22.360944
22.360965
22.360987
22.361002
22.361017
22.361038
22.361063
22.36108
22.361094
22.361117
22.361143
22.36116
22.361171
22.361191
22.361207
22.361219
22.361247
22.36125
22.361221
22.361208
22.361216
22.361217
22.361227
22.361249
22.361264
22.361271
22.36128
22.361296
22.361318
22.36134
22.361358
22.361371
22.361389
22.361409
22.361424
22.361436
22.361453
22.361474
22.361495
22.361507
22.36152
22.361535
22.361553
22.361576
22.361589
22.361582
22.361585
22.36159
22.361574
22.361564
22.361577
22.361566
22.361533
22.361523
22.361525
22.361528
22.361535
22.361536
22.361532
22.361534
22.361533
22.361531
22.361537
22.361548
22.361561
22.361572
22.361583
22.361595
22.361606
22.361618
22.361631
22.361645
22.361659
22.361674
22.361688
22.361698
22.361704
22.361713
22.361719
22.361716
22.361705
22.361707
22.361717
22.361716
22.361706
22.361693
22.361694
22.361697
22.361704
22.361703
22.361692
22.36168
22.361686
22.361686
22.361677
22.361675
22.361672
22.361662
22.361639
22.361631
22.361639
22.361638
22.361629
22.361615
22.361614
22.361615
22.361611
22.361605
22.361603
22.361597
22.361585
22.36157
22.361568
22.361564
22.361556
22.361546
22.361542
22.361539
22.361533
22.361522
22.361508
22.361507
22.361508
22.361504
22.361493
22.361484
22.361484
22.361484
22.361481
22.361476
22.361468
22.361467
22.361466
22.361462
22.361452
22.36145
22.36145
22.361447
22.361439
22.361431
22.361433
22.361433
22.361428
22.361418
22.361405
22.361399
22.361399
22.361399
22.3614
22.361398
22.361394
22.361386
22.361375
22.361367
22.361367
22.361366
22.361364
22.36136
22.361357
22.361353
22.361346
22.361337
22.361326
22.361323
22.361322
22.361318
22.361311
22.361301
22.361292
22.361288
22.361283
22.361276
22.361268
22.361262
22.361255
22.361248
22.361238
22.361229
22.361222
22.361214
22.361209
22.361203
22.361197
22.36119
22.361182
22.361175
22.361169
22.361161
22.361153
22.361148
22.361142
22.361136
22.361127
22.361118
22.361114
22.361111
22.361107
22.361103
22.361097
22.361092
22.361087
22.361084
22.361081
22.361078
22.361072
22.361068
22.361069
22.361068
22.361066
22.361063
22.361059
22.361055
22.361055
22.361055
22.361054
22.361051
22.361047
22.361047
22.361047
22.361046
22.361043
22.36104
22.36104
22.361039
22.361037
22.361032
22.361029
22.361028
22.361027
22.361024
22.361018
22.361014
22.361014
22.361013
22.361009
22.361004
22.360997
22.360994
22.360992
22.360989
22.360985
22.360979
22.360974