/*--------------------------------*- C++ -*----------------------------------*\
  =========                 |
  \\      /  F ield         | OpenFOAM: The Open Source CFD Toolbox
   \\    /   O peration     | Website:  https://openfoam.org
    \\  /    A nd           | Version:  7
     \\/     M anipulation  |
\*---------------------------------------------------------------------------*/
FoamFile
{
    version     2.0;
    format      ascii;
    class       volVectorField;
    location    "2e-05";
    object      U;
}
// * * * * * * * * * * * * * * * * * * * * * * * * * * * * * * * * * * * * * //

dimensions      [0 1 -1 0 0 0 0];

internalField   nonuniform List<vector> 
5000
(
(-2.6396172e-13 3.7238554e-28 0)
(-2.5727679e-13 3.9898451e-28 0)
(-1.854021e-13 0 0)
(-1.2326636e-13 0 0)
(-1.3615129e-13 1.1969535e-28 0)
(-1.0941159e-13 -9.0718575e-44 7.9796902e-29)
(-4.8385281e-14 -1.1969535e-28 2.5514599e-43)
(-1.0480926e-13 0 -2.3939071e-28)
(-5.1186138e-14 0 -7.9796902e-29)
(-3.9011885e-14 1.9949226e-28 3.9898451e-28)
(4.0708692e-15 3.1918761e-28 3.1918761e-28)
(1.1021027e-13 -1.1969535e-28 -1.1969535e-28)
(7.1895864e-14 1.4512962e-43 -1.3950776e-55)
(-7.4862158e-15 -1.1969535e-28 -1.0546034e-42)
(-2.6511066e-14 0 7.9796902e-29)
(-1.5972392e-13 7.9796902e-29 1.595938e-28)
(-2.4557868e-13 6.1473297e-56 3.0736649e-56)
(-2.1457101e-13 7.9796902e-29 -7.0306895e-43)
(-7.0042399e-14 0 -3.9898451e-29)
(-9.3584287e-14 3.9898451e-29 7.9796902e-29)
(-6.9535273e-14 3.4371454e-43 -3.3442495e-43)
(-2.7074395e-14 1.1969535e-28 0)
(-7.6471283e-14 -7.9796902e-29 0)
(-5.7195973e-14 1.2829271e-43 1.2829271e-43)
(5.9736815e-15 1.6036588e-44 -1.3673618e-58)
(-7.9841363e-14 -6.5770967e-43 -6.5770967e-43)
(-5.5786982e-14 1.595938e-28 -1.595938e-28)
(-1.0275516e-13 7.9796902e-29 7.9796902e-29)
(-4.4257318e-14 0 0)
(2.8702513e-14 1.3834583e-42 -7.9796902e-29)
(3.7440044e-14 -1.3947981e-42 1.3947981e-42)
(9.2314442e-14 -3.9898451e-29 3.4019465e-43)
(-7.6945169e-15 -1.595938e-28 7.9796902e-29)
(3.5975166e-14 1.595938e-28 -7.9796902e-29)
(-1.6309843e-13 -6.9172913e-43 -3.9898451e-29)
(-2.2996132e-13 3.4699855e-42 0)
(-2.4828951e-13 -1.3834583e-42 0)
(-3.534382e-13 3.9898451e-28 -1.9949226e-28)
(-3.5303857e-13 -3.9898451e-28 -1.9949226e-28)
(-3.4917408e-13 -2.3939071e-28 1.1969535e-28)
(-1.3701373e-13 3.1918761e-28 -2.676198e-42)
(-1.1046848e-13 -1.0976948e-41 -1.595938e-28)
(-1.4137518e-13 -1.595938e-28 7.9796902e-29)
(3.7863699e-14 7.9796902e-29 -1.3494388e-42)
(1.0261493e-13 2.3939071e-28 -7.9796902e-29)
(9.6319481e-14 -7.9796902e-29 7.9796902e-29)
(1.2024398e-13 7.9796902e-29 2.7442369e-42)
(1.0170654e-13 1.3664485e-41 -6.8322426e-42)
(1.9591673e-13 3.1918761e-28 5.4884738e-42)
(8.9562459e-14 0 -2.0411679e-42)
(-4.3338397e-14 -1.1969535e-28 -1.1969535e-28)
(1.9468786e-14 -1.1339822e-44 0)
(-5.8249254e-14 -3.9898451e-29 0)
(-1.3921599e-14 2.3939071e-28 0)
(5.6706896e-14 -1.3947981e-42 0)
(7.7104078e-14 1.595938e-28 0)
(3.0580114e-14 -3.9898451e-29 0)
(-5.7605219e-14 -1.9101823e-71 0)
(-4.985522e-14 3.9898451e-29 0)
(1.3979659e-14 0 0)
(6.5529349e-14 1.1969535e-28 0)
(1.5656278e-13 2.7215572e-42 0)
(3.0511639e-13 2.2679644e-44 0)
(2.7282843e-13 7.9796902e-29 -7.9796902e-29)
(2.6494826e-13 2.060185e-42 2.060185e-42)
(3.9496485e-13 -4.1843943e-42 -1.1969535e-28)
(3.7139273e-13 -7.9796902e-29 1.3721184e-42)
(1.9044236e-13 -3.9898451e-29 3.8420811e-57)
(5.0770467e-14 -1.1969535e-28 1.1969535e-28)
(1.2735714e-13 -3.9898451e-29 0)
(1.1819735e-13 -7.9796902e-29 0)
(4.1650598e-14 -1.1969535e-28 -1.1969535e-28)
(8.5390963e-14 -7.9796902e-29 -7.9796902e-29)
(3.2609067e-14 1.595938e-28 0)
(-1.7242259e-13 1.9949226e-28 1.9949226e-28)
(-1.6926821e-13 -1.595938e-28 5.5111534e-42)
(-5.2298314e-14 0 -7.9796902e-29)
(-6.697296e-14 7.9796902e-29 -7.9796902e-29)
(-2.0560509e-14 6.9157227e-56 -9.289582e-45)
(4.5581051e-14 3.9898451e-29 -7.9796902e-29)
(4.7263246e-14 -1.1969535e-28 2.3939071e-28)
(3.5470768e-14 2.2679644e-44 -4.5359287e-44)
(-6.8501822e-14 -1.1339822e-44 -1.1969535e-28)
(-7.2886331e-14 -3.9898451e-29 7.9796902e-29)
(2.2226412e-14 3.9898451e-29 -4.1503748e-42)
(-2.9350574e-14 -2.7782563e-42 -1.595938e-28)
(-5.1796657e-14 3.9898451e-29 1.1969535e-28)
(-2.9352103e-14 0 -1.1969535e-28)
(-1.6442588e-14 1.9949226e-28 -1.9949226e-28)
(-3.677191e-14 5.006459e-55 4.1584894e-42)
(2.383962e-15 5.6501522e-56 -1.3934373e-42)
(-7.3264187e-14 -1.303264e-42 -1.2986193e-42)
(-1.7125778e-13 -3.9898451e-29 -1.3891282e-42)
(-5.7878429e-14 7.9796902e-29 7.9796902e-29)
(-8.4550232e-14 -1.3806233e-41 -1.3806233e-41)
(-1.2919473e-14 7.9796902e-29 -7.9796902e-29)
(-7.9320606e-15 0 1.1969535e-28)
(-1.5471049e-14 0 1.400468e-42)
(-8.8356767e-14 7.9796902e-29 -5.5565127e-42)
(-1.2582823e-13 8.3007496e-42 -2.3939071e-28)
(-1.1588793e-13 -3.1918761e-28 -1.595938e-28)
(-4.6490068e-14 1.9949226e-28 1.9949226e-28)
(1.8094231e-13 2.3939071e-28 -1.7009733e-44)
(6.9901302e-14 0 -7.9796902e-29)
(3.0105243e-14 -3.9898451e-29 0)
(5.2729261e-14 -3.9898451e-29 3.9898451e-29)
(-1.0486276e-13 -3.9898451e-29 -1.3891282e-42)
(-1.0206869e-13 -1.595938e-28 1.595938e-28)
(1.019634e-13 0 -1.595938e-28)
(1.7846381e-13 0 -1.1969535e-28)
(6.4805336e-14 7.9796902e-29 1.595938e-28)
(4.1574862e-14 1.1969535e-28 1.1969535e-28)
(1.4533955e-15 0 -4.7878141e-28)
(-2.8664694e-14 -3.9898451e-29 -3.9898451e-29)
(7.2977057e-14 -1.3947981e-42 -1.1969535e-28)
(5.4821342e-14 -3.9898451e-29 3.9898451e-29)
(1.7104054e-13 3.9898451e-29 3.9898451e-29)
(9.1792206e-14 3.4019465e-44 -6.8038931e-44)
(7.9404875e-14 -4.1843943e-42 -1.1969535e-28)
(3.0535585e-13 -3.8420811e-57 -1.1969535e-28)
(3.6597947e-13 -3.1918761e-28 1.1158385e-41)
(2.094422e-13 6.8038931e-44 3.1918761e-28)
(1.3380473e-13 7.9796902e-29 -1.595938e-28)
(1.7466517e-13 0 -1.595938e-28)
(1.5248578e-13 1.1969535e-28 1.1969535e-28)
(8.078787e-14 -7.9796902e-29 -7.9796902e-29)
(-4.114951e-14 -1.595938e-28 1.595938e-28)
(-8.934611e-14 1.595938e-28 1.595938e-28)
(-2.1113165e-13 -3.9898451e-29 3.9898451e-29)
(-1.2568186e-13 1.595938e-28 2.7555767e-42)
(-2.1864067e-13 1.595938e-28 1.595938e-28)
(-2.1423193e-13 -1.6633958e-41 3.3267916e-41)
(-5.7778911e-14 1.595938e-28 1.595938e-28)
(6.2843962e-15 7.9796902e-29 7.9796902e-29)
(-4.0179259e-14 0 -3.9898451e-29)
(-2.0202557e-14 1.1969535e-28 -4.1673845e-42)
(3.4413569e-15 1.1969535e-28 -4.1503748e-42)
(-8.148232e-14 -2.3939071e-28 8.334769e-42)
(6.9857899e-16 -5.5338331e-42 3.1918761e-28)
(-7.1545871e-15 7.9796902e-29 7.9796902e-29)
(-1.733037e-14 -1.1969535e-28 -1.1969535e-28)
(-7.8861154e-14 -7.9796902e-29 -1.595938e-28)
(-9.6371664e-14 0 -4.2212343e-42)
(2.3829448e-14 -1.595938e-28 1.595938e-28)
(6.9579142e-14 -1.1969535e-28 -8.3007496e-42)
(-5.0350776e-14 0 0)
(-1.7735526e-13 1.1969535e-28 -3.4019465e-44)
(-8.8366923e-14 -6.8038931e-44 3.4019465e-44)
(5.4420303e-14 7.9796902e-29 6.9157459e-56)
(1.104892e-13 -1.1969535e-28 -1.1969535e-28)
(1.7369807e-13 3.9898451e-29 2.7669165e-42)
(4.8228595e-14 -2.7782563e-42 -5.5565127e-42)
(-1.0905429e-14 -7.9796902e-29 -7.9796902e-29)
(2.5531791e-14 -1.4141187e-42 -1.4094739e-42)
(3.5555694e-14 7.9796902e-29 7.9796902e-29)
(1.2155299e-13 1.4115761e-42 1.1833958e-55)
(6.6910288e-14 2.7696969e-42 2.7696969e-42)
(1.2468729e-13 0 3.9898451e-29)
(1.7412242e-13 0 9.115745e-60)
(2.7542803e-13 6.4146353e-44 6.4146353e-44)
(4.2758928e-13 1.1969535e-28 0)
(3.3659094e-13 -1.1969535e-28 -1.1969535e-28)
(3.9104405e-13 -7.9796902e-29 -5.5224932e-42)
(3.720138e-13 7.9796902e-29 1.595938e-28)
(2.7131525e-13 -8.3007496e-42 1.1969535e-28)
(1.720008e-13 1.1969535e-28 -3.4019465e-44)
(8.4225678e-14 -2.3520329e-43 -2.3520329e-43)
(1.018875e-13 7.9796902e-29 -7.9796902e-29)
(1.2335362e-13 0 3.9898451e-29)
(-2.4105024e-14 1.1969535e-28 1.1969535e-28)
(9.7502249e-14 -1.6570953e-41 6.9417868e-54)
(1.8834471e-13 0 3.3202998e-41)
(1.2084385e-13 1.595938e-28 -1.595938e-28)
(3.0878229e-13 1.595938e-28 3.1918761e-28)
(1.965781e-13 0 0)
(1.5714558e-13 -1.9949226e-28 1.3834583e-41)
(9.6940298e-14 -8.3007496e-42 8.3007496e-42)
(9.4697148e-15 -7.9796902e-29 7.9796902e-29)
(-1.5023968e-14 1.595938e-28 1.595938e-28)
(-1.7107213e-13 2.7928916e-28 1.9249348e-41)
(-9.6068577e-14 -1.9949226e-28 -1.9949226e-28)
(-2.6461999e-14 -2.7555767e-42 3.9898451e-29)
(-6.2024273e-14 1.4786226e-70 1.4786226e-70)
(-5.4625385e-14 1.7009733e-44 1.7009733e-44)
(-1.8686981e-13 3.9898451e-29 5.5281631e-42)
(-1.3522266e-13 7.9796902e-29 1.595938e-28)
(-4.9602299e-14 2.2135332e-41 -1.595938e-28)
(-9.6044493e-14 -8.2327106e-42 -1.1969535e-28)
(1.6410846e-14 8.2327106e-42 8.2327106e-42)
(-1.3757482e-13 -1.595938e-28 -1.0999627e-41)
(-9.1781764e-14 0 8.2950797e-42)
(-6.1088883e-14 0 2.7555767e-42)
(1.9882996e-15 -6.4146353e-44 -6.4146353e-44)
(1.5600327e-13 3.9898451e-29 0)
(4.0921208e-14 0 0)
(2.3773252e-14 0 0)
(-3.6603193e-14 8.2981393e-42 0)
(-7.5101246e-14 -7.6841622e-57 -1.595938e-28)
(-1.8181988e-13 -2.3939071e-28 4.9906556e-41)
(-8.8010969e-14 0 1.1969535e-28)
(-2.4959363e-14 -2.1382118e-44 -2.1382118e-44)
(1.0190554e-14 0 0)
(6.4400803e-14 4.8883183e-56 1.7640247e-43)
(7.2974931e-14 0 0)
(1.7815454e-13 3.9898451e-29 -2.7612466e-42)
(2.1470908e-13 1.656748e-41 1.656748e-41)
(3.2540979e-13 1.7009733e-44 1.1969535e-28)
(2.4885886e-13 1.1969535e-28 1.1969535e-28)
(2.5688644e-13 -3.9898451e-29 -3.9898451e-29)
(1.9460068e-13 5.6699109e-45 0)
(1.3811872e-13 1.1044986e-41 -7.9796902e-29)
(1.5872557e-13 2.7612466e-42 2.7612466e-42)
(1.4498326e-14 -1.595938e-28 -1.595938e-28)
(3.6553286e-14 0 -1.1969535e-28)
(-4.4520202e-14 1.595938e-28 2.2226051e-41)
(7.7190753e-15 5.5224932e-42 7.9796902e-29)
(9.878363e-14 2.2146672e-41 -1.595938e-28)
(3.1095387e-15 1.1969535e-28 1.1969535e-28)
(1.9147851e-15 0 -7.9796902e-29)
(3.0805706e-14 1.595938e-28 1.595938e-28)
(-8.1317824e-14 7.9796902e-29 -7.9796902e-29)
(-1.3457859e-13 0 0)
(-1.7807543e-13 0 0)
(-3.8678955e-13 0 0)
(-3.3490594e-13 -1.9949226e-28 -1.9949226e-28)
(-2.4508208e-13 -8.2837398e-42 1.1969535e-28)
(-2.8447785e-13 3.9898451e-29 7.9796902e-29)
(-2.9884559e-13 0 7.9796902e-29)
(-3.468299e-13 0 -1.6635519e-41)
(-3.4189799e-13 1.1969535e-28 1.1969535e-28)
(-2.7929591e-13 2.1382118e-44 2.1382118e-44)
(-9.0700663e-14 1.595938e-28 3.1918761e-28)
(9.705016e-14 1.9949226e-28 -5.6699109e-44)
(-5.7113181e-14 0 -1.1339822e-44)
(-1.9344207e-13 1.9949226e-28 1.9949226e-28)
(-2.4077514e-13 2.3939071e-28 2.3939071e-28)
(-2.7046123e-13 -2.3939071e-28 -4.7878141e-28)
(-2.2384024e-13 -2.3939071e-28 3.4019465e-44)
(-1.6851242e-13 0 -1.6624179e-41)
(1.8190977e-14 -3.9898451e-29 -3.9898451e-29)
(-3.0270273e-16 4.4316024e-41 8.8632047e-41)
(-8.3817796e-15 1.1067666e-41 2.2135332e-41)
(-1.0599748e-14 3.9898451e-29 3.9898451e-29)
(-1.345528e-13 -2.3939071e-28 -2.3939071e-28)
(-7.54186e-14 -1.595938e-28 0)
(4.2827138e-14 0 1.1969535e-28)
(1.9811576e-13 -1.9949226e-28 -1.9949226e-28)
(1.9799168e-13 2.7725864e-41 -1.9949226e-28)
(2.1548776e-13 -7.9796902e-29 7.9796902e-29)
(1.850334e-13 -2.2135332e-41 0)
(1.964881e-13 2.3939071e-28 1.1969535e-28)
(2.3829648e-13 1.1969535e-28 1.1969535e-28)
(2.5548796e-13 -1.1067666e-41 7.9796902e-29)
(3.0302584e-13 -1.3851592e-41 -1.3851592e-41)
(2.3170374e-13 -1.1044986e-41 -3.1918761e-28)
(3.0302808e-13 -1.1969535e-28 -2.3939071e-28)
(3.7990109e-13 3.9898451e-29 1.1969535e-28)
(3.0654575e-13 1.9949226e-28 3.9898451e-28)
(1.9344074e-13 0 0)
(1.0841169e-13 3.9898451e-29 7.9796902e-29)
(2.4741646e-13 7.9796902e-29 7.9796902e-29)
(1.9463698e-13 0 2.3380182e-43)
(3.9846075e-14 3.9898451e-29 3.9898451e-29)
(1.5568088e-13 -3.9898451e-29 -3.9898451e-29)
(1.5721371e-13 2.3939071e-28 2.3939071e-28)
(4.2597083e-14 1.1969535e-28 2.3939071e-28)
(-1.4482483e-14 -3.9898451e-29 -3.9898451e-29)
(1.0564186e-13 -1.1969535e-28 -2.3939071e-28)
(7.0338128e-14 -6.6405997e-41 -6.6405997e-41)
(6.852444e-14 7.9796902e-29 1.595938e-28)
(6.4872389e-14 3.9898451e-29 3.9898451e-29)
(1.9768959e-14 -2.7669165e-42 -5.5338331e-42)
(-2.934482e-14 -8.3041856e-42 -8.2995408e-42)
(-7.146819e-14 -3.9898451e-29 -7.9796902e-29)
(-4.1725592e-14 -2.7725864e-42 -3.9898451e-29)
(-6.86131e-14 2.7782563e-42 5.5565127e-42)
(-3.0373817e-14 -9.115745e-60 3.2073177e-44)
(-2.4287652e-14 -5.5111534e-42 -7.9796902e-29)
(-1.9799461e-14 1.595938e-28 1.595938e-28)
(5.1082473e-14 0 -1.595938e-28)
(-5.6635973e-14 0 1.6646858e-41)
(1.1731898e-14 3.9898451e-29 -7.9796902e-29)
(1.7916973e-13 1.595938e-28 3.1918761e-28)
(1.0234203e-13 0 8.2837398e-42)
(1.2342821e-13 0 -3.9898451e-29)
(2.0489163e-13 0 0)
(1.9506881e-13 0 0)
(6.8943455e-14 3.9898451e-29 3.9898451e-29)
(1.4620238e-13 8.2497204e-42 -1.1969535e-28)
(1.838435e-13 7.9796902e-29 7.9796902e-29)
(1.2446081e-13 -3.4019465e-44 -7.9796902e-29)
(2.9651956e-14 3.9898451e-29 -1.1339822e-44)
(1.0089813e-13 -7.9796902e-29 -7.9796902e-29)
(-1.3810093e-14 2.7697515e-41 -1.9949226e-28)
(-1.1052103e-13 1.6584489e-41 1.1969535e-28)
(-1.0522684e-13 1.7009733e-44 0)
(-8.0982299e-14 1.1969535e-28 1.1969535e-28)
(-4.6549877e-14 -7.9796902e-29 -7.9796902e-29)
(-1.4068665e-13 -3.9898451e-29 0)
(-1.0371888e-14 -2.3939071e-28 -2.3939071e-28)
(-1.1498472e-13 -8.3183804e-42 -2.7743417e-42)
(-1.23219e-13 -1.1969535e-28 -2.3939071e-28)
(-6.5196528e-14 -3.1918761e-28 1.1044986e-41)
(-5.9547361e-14 0 -3.4019465e-44)
(2.1776189e-14 7.9796902e-29 7.9796902e-29)
(-2.5802468e-15 7.9796902e-29 7.9796902e-29)
(6.1028496e-15 -7.9796902e-29 -7.9796902e-29)
(1.8706582e-13 1.1339822e-44 3.9898451e-29)
(2.1671749e-13 1.7009733e-44 3.9898451e-29)
(1.4841209e-13 -2.2679644e-44 -4.5359287e-44)
(6.8205289e-14 -5.5226565e-42 -1.1045313e-41)
(3.9668868e-14 3.9898451e-29 -3.9898451e-29)
(-4.5625052e-14 -3.9898451e-29 -3.9898451e-29)
(-9.3025111e-14 -2.3939071e-28 -1.1969535e-28)
(-3.7859355e-14 1.9949226e-28 -2.7669165e-41)
(-6.6581594e-14 1.5368324e-56 7.9796902e-29)
(1.2943811e-13 -5.5052185e-42 0)
(1.1599553e-13 2.2112653e-41 0)
(-1.0478007e-13 -1.595938e-28 -7.9796902e-29)
(-1.0404701e-13 0 1.1079006e-41)
(-4.6255946e-14 0 -2.2146672e-41)
(-2.5187308e-14 1.595938e-28 -1.1090346e-41)
(-7.5933873e-14 -6.6474036e-41 1.1969535e-28)
(-7.2168245e-14 -7.9796902e-29 -3.9898451e-29)
(1.7176042e-14 0 -5.6699109e-45)
(2.155257e-14 7.9796902e-29 7.9796902e-29)
(3.2756643e-14 -3.2073177e-44 0)
(7.5111404e-14 7.9796902e-29 0)
(-5.5748492e-14 5.6699109e-45 0)
(-7.549227e-14 7.6884313e-55 0)
(-7.5027341e-14 5.5892233e-60 0)
(-5.7395109e-14 3.9898451e-29 0)
(-2.3854045e-14 0 0)
(-1.0459123e-13 3.9898451e-29 3.9898451e-29)
(-2.3532822e-14 0 0)
(1.6872434e-13 -1.595938e-28 -1.595938e-28)
(3.1262156e-13 5.539503e-42 0)
(1.1100846e-13 -3.9898451e-29 -3.9898451e-29)
(7.0412878e-14 -1.595938e-28 2.2135332e-41)
(2.709601e-14 1.1067666e-41 -3.9898451e-29)
(-6.7127497e-14 7.9796902e-29 0)
(1.08993e-13 4.4316024e-41 0)
(-7.0673428e-14 7.9796902e-29 3.9898451e-29)
(-2.947777e-13 7.9796902e-29 -5.539503e-42)
(-1.9574629e-13 -3.9898451e-29 -3.9898451e-29)
(-7.4062922e-14 7.9796902e-29 0)
(-6.3569842e-15 6.9089348e-76 0)
(-1.1952216e-13 0 0)
(-6.3773003e-14 0 3.9898451e-29)
(4.8334184e-16 0 -3.9898451e-29)
(-3.0160053e-14 3.9898451e-29 3.9898451e-29)
(-1.3663967e-15 -1.6601499e-41 0)
(-6.2940479e-14 -1.595938e-28 -7.9796902e-29)
(-3.3287826e-14 -1.5192908e-60 -1.5192908e-60)
(3.2139232e-15 1.1969535e-28 3.9898451e-29)
(-2.0279302e-14 -3.9898451e-29 -3.9898451e-29)
(-5.9807219e-14 3.9898451e-29 3.9898451e-29)
(-7.6992939e-15 -2.3939071e-28 -1.1969535e-28)
(1.2525263e-13 1.9949226e-28 -1.9949226e-28)
(1.1655825e-13 -3.9898451e-29 0)
(4.7798931e-14 -7.9796902e-29 3.9898451e-29)
(1.2726002e-13 3.9898451e-29 3.9898451e-29)
(7.6691757e-14 -1.1969535e-28 1.1969535e-28)
(-4.5131381e-14 -7.9796902e-29 7.9796902e-29)
(6.6201328e-15 -3.9898451e-29 0)
(-3.4848321e-14 -2.3052486e-56 3.9898451e-29)
(-1.2658385e-13 -3.9898451e-29 -3.9898451e-29)
(-1.2924272e-13 -2.1382118e-44 -2.1382118e-44)
(-6.915491e-14 -3.9898451e-29 3.9898451e-29)
(2.2904522e-14 3.9898451e-29 0)
(5.6160134e-14 1.1056326e-41 0)
(7.4652746e-14 1.1339822e-44 0)
(6.9115816e-14 3.9898451e-29 0)
(1.0581678e-13 7.9796902e-29 0)
(8.8870384e-14 -1.1969535e-28 0)
(-1.1597821e-14 -1.5525297e-54 0)
(-7.8718277e-14 -2.2135332e-41 0)
(-1.6854012e-13 -1.1969535e-28 -1.1969535e-28)
(-1.09364e-13 -7.9796902e-29 -1.8441989e-55)
(8.3273105e-15 -3.5908606e-28 -1.1969535e-28)
(-8.0440104e-14 -2.2135332e-41 0)
(2.3735019e-14 4.4270664e-41 0)
(1.6332371e-13 -2.2112653e-41 0)
(4.1292365e-14 -7.9796902e-29 -3.9898451e-29)
(-6.613122e-15 7.9796902e-29 -5.5338331e-42)
(1.2701711e-13 2.2135332e-41 -7.9796902e-29)
(2.749168e-13 1.595938e-28 7.9796902e-29)
(1.7167759e-13 0 1.1079006e-41)
(1.3525808e-13 0 -1.7009733e-44)
(9.1280855e-14 5.5733089e-42 -7.806889e-55)
(1.5968975e-13 5.5338331e-42 -3.9898451e-29)
(1.7268082e-13 -7.9796902e-29 -7.9796902e-29)
(1.1338956e-13 -3.9898451e-29 3.9898451e-29)
(2.5597905e-13 -1.1969535e-28 6.6508055e-41)
(1.7280402e-13 -4.7878141e-28 1.595938e-28)
(1.9849708e-13 3.9898451e-29 -3.9898451e-29)
(1.9861229e-13 -3.9898451e-29 0)
(2.0749236e-13 -1.1339822e-44 0)
(2.9568842e-13 -3.9898451e-29 -3.9898451e-29)
(1.7845154e-13 0 -5.539503e-42)
(1.5249839e-13 1.1073182e-41 5.5365909e-42)
(9.1858956e-14 -7.9796902e-29 3.9898451e-29)
(6.789592e-14 -4.8109765e-44 -4.8109765e-44)
(9.3201984e-14 7.9796902e-29 0)
(1.1574399e-13 1.1969535e-28 -1.1969535e-28)
(6.1057676e-14 -1.595938e-28 -7.9796902e-29)
(-3.243981e-14 -1.2829271e-43 6.4146353e-44)
(-5.7692288e-14 -2.1382118e-44 -2.967175e-57)
(-1.7280157e-16 7.9796902e-29 1.5368324e-56)
(-1.3349446e-13 0 -5.539503e-42)
(-4.0634972e-14 1.595938e-28 7.9796902e-29)
(-2.7053554e-14 0 0)
(-1.6361382e-13 6.4146353e-44 -4.9416553e-71)
(-1.14674e-13 -1.1969535e-28 1.6618509e-41)
(-1.3521387e-13 -1.9949226e-28 1.9949226e-28)
(5.609719e-15 1.7009733e-44 0)
(-1.3934432e-16 -1.1079006e-41 0)
(1.5092807e-14 -3.9898451e-29 -3.9898451e-29)
(9.9083027e-14 -3.9898451e-29 5.6699109e-45)
(9.6063464e-14 -1.1969535e-28 -4.9804497e-41)
(2.3280054e-14 7.9796902e-29 7.9796902e-29)
(1.7107909e-14 -1.7793934e-56 0)
(-3.6311245e-14 -1.7009733e-44 0)
(-2.9101671e-14 -2.2135332e-41 -1.595938e-28)
(-3.038981e-14 -1.595938e-28 4.4247985e-41)
(-1.2840964e-13 1.1969535e-28 1.1969535e-28)
(-9.2507136e-14 1.6618509e-41 0)
(-8.874656e-14 -5.539503e-42 0)
(2.0260256e-14 6.1465207e-54 0)
(2.4474269e-15 1.595938e-28 1.595938e-28)
(-2.0469894e-13 -1.595938e-28 -2.2679644e-44)
(-1.7693841e-13 1.1079006e-41 -7.9796902e-29)
(-1.9003168e-13 -1.1061996e-41 -3.9898451e-29)
(-1.9782295e-13 6.915929e-56 -4.644791e-45)
(-3.4547786e-13 -1.1155907e-41 -1.5508259e-54)
(-3.5440868e-13 -6.7470062e-45 -1.3494012e-44)
(-7.8649676e-14 -3.9898451e-29 -3.9898451e-29)
(-1.1019927e-13 7.9796902e-29 1.6618509e-41)
(-1.0419507e-13 -5.539503e-42 5.539503e-42)
(1.5839549e-13 0 0)
(-5.2263783e-15 4.2764235e-44 4.2764235e-44)
(5.578433e-15 3.1918761e-28 0)
(1.0611896e-13 3.1918761e-28 0)
(8.59861e-15 -2.3939071e-28 2.3939071e-28)
(1.1614229e-13 -7.9796902e-29 1.1079006e-41)
(2.5195329e-13 2.2146672e-41 2.2146672e-41)
(3.2940683e-13 -7.9796902e-29 -7.6841622e-57)
(1.5162616e-13 0 -1.1969535e-28)
(1.1035586e-13 0 2.3939071e-28)
(1.2183767e-13 1.595938e-28 1.595938e-28)
(9.5539891e-14 0 0)
(2.3591113e-13 3.9898451e-29 3.9898451e-29)
(2.0251185e-13 -7.9796902e-29 1.1079006e-41)
(1.3623586e-13 -7.6790055e-57 3.2073177e-44)
(3.5699018e-15 -3.1156557e-54 0)
(-7.0955255e-14 0 0)
(-6.8110259e-15 -1.9949226e-28 -1.9949226e-28)
(-3.1658219e-14 3.9898451e-29 1.1339822e-44)
(6.0741102e-14 -1.9949226e-28 1.9210405e-56)
(4.6270538e-14 5.5857831e-28 2.7928916e-28)
(-1.1576209e-13 0 9.289582e-45)
(-1.5657993e-13 3.9898451e-29 -5.5281631e-42)
(-6.3460283e-14 0 -1.6618509e-41)
(-1.443922e-13 0 1.1073336e-41)
(-2.1057426e-13 1.1131983e-41 1.1136627e-41)
(-5.9502073e-14 -1.1084676e-41 -3.9898451e-29)
(-1.23967e-13 0 0)
(-1.0117239e-13 0 -8.9106408e-57)
(-1.8802879e-14 0 7.425534e-57)
(-1.4471678e-13 0 0)
(-1.863531e-13 1.6624179e-41 3.9898451e-29)
(-8.2669422e-14 -1.107178e-41 3.0829649e-54)
(-8.1474472e-14 0 7.7306755e-55)
(-7.352473e-14 0 0)
(-6.4245761e-14 0 -3.9898451e-29)
(-9.6578516e-14 0 1.1969535e-28)
(-7.5493724e-14 0 1.5436237e-54)
(2.2667815e-14 0 -2.8349555e-44)
(8.3519184e-14 0 4.4316024e-41)
(1.7056611e-15 0 -3.3271037e-41)
(-2.1174594e-14 7.9796902e-29 3.9898451e-29)
(1.4244646e-13 6.6440016e-41 -1.1969535e-28)
(2.8048697e-13 7.9482203e-44 7.9482203e-44)
(3.1999857e-13 -7.9796902e-29 -7.9796902e-29)
(2.5853402e-13 1.1969535e-28 -1.1969535e-28)
(9.0053048e-14 -1.1969535e-28 0)
(1.198017e-14 -1.1090346e-41 -3.9898451e-29)
(-4.5277253e-14 -7.9796902e-29 -7.9796902e-29)
(9.2200153e-14 2.2158012e-41 0)
(8.8409614e-14 -1.1094304e-41 1.1094304e-41)
(3.3462151e-14 0 -5.539503e-42)
(1.968997e-13 0 -2.2679644e-44)
(2.8097515e-13 -1.595938e-28 -2.2135332e-41)
(1.87668e-13 -3.100777e-54 1.1131282e-41)
(-1.8457275e-14 -1.595938e-28 1.595938e-28)
(-4.0181418e-14 0 3.3202998e-41)
(-1.4453059e-14 0 -3.3237018e-41)
(1.8339669e-13 0 1.9949226e-28)
(1.9037847e-13 0 1.1969535e-28)
(1.4281934e-13 0 7.9796902e-29)
(8.0252483e-15 0 -1.1339822e-44)
(-1.171321e-13 0 3.3202998e-41)
(-1.4697316e-13 2.3939071e-28 1.1969535e-28)
(-1.4325542e-13 1.3285735e-40 1.595938e-28)
(-1.2094826e-13 4.7878141e-28 -3.3237018e-41)
(-9.2245922e-14 -3.9898451e-29 -3.9898451e-29)
(6.7188403e-14 1.7009733e-44 0)
(-3.4739659e-15 3.9898451e-29 0)
(4.2653426e-14 4.4247985e-41 0)
(8.5166636e-14 -1.1073182e-41 -5.5412357e-42)
(8.2459954e-14 -7.9796902e-29 -7.9796902e-29)
(1.8492608e-13 -7.6841622e-57 -9.621953e-44)
(1.109064e-13 1.1969535e-28 3.9898451e-29)
(-1.1472869e-13 0 0)
(-1.9140344e-13 7.9796902e-29 3.9898451e-29)
(-1.5170141e-13 0 1.1969535e-28)
(-1.2315155e-13 0 -3.9898451e-29)
(-1.471858e-13 0 0)
(-2.7003788e-14 8.8969672e-57 0)
(-8.2365871e-14 -1.1969535e-28 -3.9898451e-29)
(-1.9541753e-13 1.1969535e-28 -1.1969535e-28)
(-1.1712767e-13 2.2103599e-41 2.2103599e-41)
(-4.6464233e-14 3.9898451e-29 -1.1079006e-41)
(-1.8686721e-16 5.5319461e-42 -5.5365909e-42)
(2.0292545e-14 3.9898451e-29 0)
(-1.3134424e-13 1.1067666e-41 0)
(-5.841568e-14 -1.104251e-41 0)
(-8.1586731e-14 -1.1969535e-28 0)
(-2.0280644e-13 0 2.3939071e-28)
(-1.2573979e-13 -1.595938e-28 -4.4270664e-41)
(-1.3842306e-13 -7.9796902e-29 7.9796902e-29)
(-2.0284898e-13 -7.9796902e-29 -3.9898451e-29)
(-2.2502861e-13 -7.9796902e-29 1.1079006e-41)
(-2.0364763e-13 -7.9796902e-29 -1.1090346e-41)
(-1.2545242e-13 3.9898451e-29 1.1526243e-56)
(-8.9968962e-15 7.9796902e-29 -7.9796902e-29)
(-1.5752176e-13 7.9796902e-29 3.9898451e-29)
(-2.051423e-13 -7.9796902e-29 1.595938e-28)
(-9.3687768e-14 1.595938e-28 2.2158012e-41)
(-1.1549174e-13 0 -7.6673093e-55)
(-6.2943038e-14 -3.9898451e-29 3.9898451e-29)
(6.2810729e-14 1.595938e-28 0)
(2.8090847e-14 1.9949226e-28 -1.9949226e-28)
(-6.7713237e-14 -4.7878141e-28 -1.595938e-28)
(-1.8620896e-13 1.1339822e-44 -3.9898451e-29)
(-8.2678209e-14 -2.3939071e-28 -3.3202998e-41)
(-8.8095665e-15 1.1969535e-28 1.1969535e-28)
(-7.3971523e-14 5.539503e-42 0)
(-6.832093e-15 5.605382e-42 0)
(3.4166712e-15 -1.1339822e-44 -3.9898451e-29)
(1.8162497e-14 -7.9796902e-29 5.5338331e-42)
(-1.1927743e-13 1.595938e-28 1.595938e-28)
(-3.0895923e-14 0 0)
(4.1213618e-14 -2.2158012e-41 -7.9796902e-29)
(-9.4655813e-14 -2.2679644e-44 2.2679644e-44)
(-2.4457597e-14 -1.9949226e-28 -5.539503e-41)
(4.1616157e-15 1.595938e-28 -2.2135332e-41)
(-5.4764636e-15 6.1718671e-54 -2.2164943e-41)
(7.8691507e-14 5.5338331e-42 3.9898451e-29)
(-1.0485745e-15 -5.6699109e-45 5.6699109e-45)
(-6.6876604e-14 7.9796902e-29 2.2158012e-41)
(-1.9083684e-14 -1.1969535e-28 1.1969535e-28)
(-9.9138014e-14 1.1702127e-71 -7.9796902e-29)
(-1.4478701e-13 2.2158012e-41 -2.2158012e-41)
(-1.6609057e-13 5.6699109e-45 -5.6699109e-45)
(-8.1754761e-14 7.9796902e-29 5.539503e-42)
(6.8394977e-14 5.5338331e-42 3.9898451e-29)
(1.0135936e-13 -1.1969535e-28 -1.1969535e-28)
(1.1524751e-13 0 0)
(6.21326e-14 0 1.1076171e-40)
(1.3723032e-14 2.3939071e-28 3.3202998e-41)
(-4.7402481e-14 4.9804497e-41 4.9804497e-41)
(-1.1512939e-14 -3.9898451e-29 5.6699109e-45)
(-8.7619132e-14 -5.5551701e-42 -5.5551701e-42)
(-9.7527294e-14 5.539503e-42 3.9898451e-29)
(8.6109523e-15 -3.0736649e-56 -3.0736649e-56)
(-3.4588245e-15 -2.2158012e-41 -2.2158012e-41)
(2.4893217e-14 1.9949226e-28 5.539503e-41)
(6.9393667e-14 1.595938e-28 -2.2158012e-41)
(1.993481e-13 7.5116123e-55 1.083009e-41)
(9.0387913e-14 -1.1063892e-41 -1.1068537e-41)
(-8.96131e-14 0 -7.9796902e-29)
(-4.513971e-14 0 -2.2158012e-41)
(-1.105402e-13 1.1969535e-28 1.6618509e-41)
(-2.1915534e-13 3.9898451e-29 -7.9796902e-29)
(-9.4213437e-14 -3.3214338e-41 3.9898451e-29)
(-6.0270105e-15 -7.9796902e-29 7.9796902e-29)
(8.6369719e-14 7.9796902e-29 -7.6841622e-57)
(3.889529e-14 0 0)
(1.0153539e-14 -3.9898451e-29 3.8420811e-57)
(1.3581911e-13 -7.9796902e-29 7.9796902e-29)
(1.0723572e-13 1.1969535e-28 -1.1969535e-28)
(4.55346e-14 1.1969535e-28 -3.8420811e-57)
(-1.7283209e-13 0 -5.5338331e-42)
(-1.7396868e-13 1.1969535e-28 -1.7009733e-44)
(-1.4753467e-14 -7.9796902e-29 7.9796902e-29)
(3.2858917e-14 2.3939071e-28 -2.3939071e-28)
(1.0376443e-13 7.9796902e-29 -2.2158012e-41)
(2.168926e-14 -3.9898451e-29 3.9898451e-29)
(-8.4621478e-15 1.595938e-28 2.2135332e-41)
(-7.9604682e-14 3.3202998e-41 -3.3202998e-41)
(-9.4896375e-14 1.1969535e-28 1.1969535e-28)
(-1.5004142e-14 2.2158012e-41 -7.9796902e-29)
(4.1305114e-16 -1.8579164e-44 -6.1473297e-56)
(-3.4036007e-14 0 4.9872536e-41)
(-4.586848e-14 0 -2.2169352e-41)
(-1.212632e-13 0 -3.0709218e-54)
(-6.6757608e-15 3.9898451e-29 -1.1079006e-41)
(4.3117611e-14 0 0)
(-1.0011157e-13 0 0)
(1.8981737e-14 7.4302802e-58 -7.4302802e-58)
(1.5664243e-15 -1.4813086e-57 0)
(-7.1246442e-14 7.9796902e-29 0)
(8.4929841e-14 0 -2.2127784e-41)
(5.3178094e-14 0 2.2158012e-41)
(9.4024205e-15 -3.9898451e-29 3.9898451e-29)
(6.7544649e-14 -7.6673093e-55 0)
(-7.8223886e-14 -7.6673093e-55 0)
(-2.0064272e-13 -7.9796902e-29 -1.595938e-28)
(-2.0916602e-13 1.1969535e-28 -9.9643014e-41)
(-1.6412826e-13 -1.6601499e-41 7.9796902e-29)
(-1.6292522e-13 3.9898451e-29 3.9898451e-29)
(-2.3208594e-13 0 -5.6699109e-45)
(-2.2075649e-13 -5.6267642e-42 -7.8916674e-55)
(-1.7606518e-13 -1.1079006e-41 -7.9796902e-29)
(-3.9145571e-15 3.9898451e-29 0)
(5.8134487e-14 7.9796902e-29 0)
(9.4373447e-14 -7.9796902e-29 0)
(4.0333361e-14 0 0)
(-1.5836054e-13 -7.9796902e-29 -2.2135332e-41)
(-1.0340463e-13 0 1.1969535e-28)
(6.4685432e-14 -1.1087116e-41 0)
(1.6321667e-13 -1.1969535e-28 0)
(1.3977599e-13 1.595938e-28 1.595938e-28)
(6.4033446e-14 1.595938e-28 -2.2679644e-44)
(-1.0357797e-14 0 -1.595938e-28)
(9.656616e-14 7.9796902e-29 0)
(1.6955143e-13 -7.9796902e-29 0)
(1.9079065e-13 -3.9898451e-29 3.9898451e-29)
(2.8872365e-13 -7.9796902e-29 -2.2135332e-41)
(1.0719589e-14 -2.3939071e-28 -3.3254028e-41)
(-1.9937578e-15 2.2158012e-41 1.1079006e-41)
(1.0815218e-13 -1.1969535e-28 -3.9898451e-29)
(2.948801e-14 -3.8420811e-57 -3.9898451e-29)
(-1.9398003e-14 -7.9796902e-29 2.2146672e-41)
(-1.6147312e-13 -1.595938e-28 -2.2146672e-41)
(-7.1567827e-14 4.4270664e-41 2.2135332e-41)
(8.058081e-14 -2.2783594e-44 -1.1391797e-44)
(-3.2417321e-14 -3.9898451e-29 0)
(-2.4695315e-13 7.9796902e-29 0)
(-9.1033205e-14 1.1969535e-28 1.1969535e-28)
(1.0746919e-13 1.9949226e-28 9.6052027e-56)
(3.2824039e-14 -2.3939071e-28 -1.1969535e-28)
(3.2681988e-14 0 0)
(5.3324293e-14 0 0)
(9.4557201e-14 -1.595938e-28 -7.9796902e-29)
(2.8223414e-14 6.1473297e-56 1.2294659e-55)
(-4.4736201e-14 7.9796902e-29 3.9898451e-29)
(-4.6806163e-14 0 0)
(-2.9442676e-15 0 0)
(6.4982184e-14 3.1918761e-28 1.595938e-28)
(9.8799425e-14 -3.0736649e-56 -6.1473297e-56)
(1.2471122e-13 -2.3939071e-28 -1.1969535e-28)
(-8.8307009e-14 0 0)
(-1.7347037e-14 0 0)
(-1.1017699e-14 -3.1918761e-28 -1.595938e-28)
(-1.0144759e-13 -1.1969535e-28 1.7009733e-44)
(-1.5864107e-13 5.5857831e-28 2.7928916e-28)
(-4.8619869e-14 2.3939071e-28 -2.3939071e-28)
(6.6615969e-14 0 -3.3254028e-41)
(1.4377336e-13 3.1918761e-28 4.4338703e-41)
(1.6372075e-13 0 0)
(-8.1223961e-15 4.2764235e-44 2.1382118e-44)
(-1.0213768e-14 7.9796902e-29 0)
(-2.8331637e-14 0 0)
(1.0455121e-14 -1.0691059e-44 0)
(2.2387841e-14 1.4841891e-57 0)
(-1.2054352e-13 -1.7009733e-44 0)
(-1.573335e-13 -1.595938e-28 1.595938e-28)
(-2.4847717e-13 7.9796902e-29 -2.2146672e-41)
(-1.8256751e-13 3.9898451e-29 3.9898451e-29)
(-9.4336113e-14 1.595938e-28 0)
(-1.669963e-13 -1.595938e-28 0)
(-1.5444141e-13 2.215285e-41 0)
(-5.5787543e-14 -2.2158012e-41 0)
(1.545285e-13 3.2073177e-44 0)
(3.2617698e-13 3.9898451e-29 0)
(3.2933156e-13 3.3237018e-41 0)
(2.2139958e-13 -1.595938e-28 1.595938e-28)
(2.6466732e-13 -4.442102e-41 2.4682641e-53)
(3.1744739e-13 7.9796902e-29 7.9796902e-29)
(3.031365e-13 -7.9796902e-29 0)
(1.9688355e-13 7.9796902e-29 0)
(1.9309901e-13 3.9898451e-29 0)
(3.1149436e-13 -2.2158012e-41 0)
(2.4062388e-13 -3.9898451e-29 0)
(2.3394157e-13 2.1382118e-44 0)
(3.1875165e-13 1.1339822e-44 0)
(3.0291092e-13 1.1969535e-28 -1.1969535e-28)
(4.2016743e-13 1.1969535e-28 -3.3220008e-41)
(4.9120532e-13 -2.3939071e-28 -2.3939071e-28)
(2.8346941e-13 -1.1969535e-28 0)
(1.2580062e-13 3.9898451e-29 0)
(9.1659655e-14 -7.9796902e-29 -3.9898451e-29)
(1.3706409e-13 6.6508055e-41 3.3254028e-41)
(1.2441525e-13 2.3939071e-28 1.1969535e-28)
(7.6754662e-15 -3.9898451e-29 0)
(-8.4920847e-14 9.6725088e-76 0)
(-2.0586519e-13 -7.9796902e-29 0)
(-1.6651043e-13 -7.6856261e-57 9.289582e-45)
(-2.3252346e-13 -1.595938e-28 -4.4338703e-41)
(-1.1904537e-13 0 7.9796902e-29)
(-3.8614045e-14 -1.595938e-28 0)
(-9.5039843e-14 0 0)
(-6.2662187e-14 -3.9898451e-29 0)
(-1.0439099e-13 0 0)
(-1.3416321e-13 0 0)
(-1.1291323e-13 0 0)
(6.9277273e-15 3.9898451e-29 0)
(-3.77378e-14 -7.6841622e-57 7.9796902e-29)
(3.5643373e-14 -3.9898451e-29 -5.6699109e-45)
(-5.5164037e-16 0 3.9898451e-29)
(-3.0520694e-14 -7.9796902e-29 0)
(-2.8009226e-14 2.2158012e-41 0)
(-2.1214505e-13 -1.1969535e-28 0)
(-2.109181e-13 0 0)
(-1.9804226e-13 0 0)
(-1.1074412e-13 0 0)
(-1.4859339e-13 1.1969535e-28 0)
(-2.058241e-13 -1.1079006e-41 3.9898451e-29)
(-9.984977e-14 0 0)
(-1.5688867e-13 0 3.9898451e-29)
(-6.5643761e-14 3.9898451e-29 0)
(-9.2232453e-14 2.2146672e-41 0)
(2.1950036e-14 -7.9796902e-29 0)
(2.5756724e-14 0 -1.1969535e-28)