/*--------------------------------*- C++ -*----------------------------------*\
  =========                 |
  \\      /  F ield         | OpenFOAM: The Open Source CFD Toolbox
   \\    /   O peration     | Website:  https://openfoam.org
    \\  /    A nd           | Version:  7
     \\/     M anipulation  |
\*---------------------------------------------------------------------------*/
FoamFile
{
    version     2.0;
    format      ascii;
    class       volVectorField;
    location    "0.00168";
    object      U;
}
// * * * * * * * * * * * * * * * * * * * * * * * * * * * * * * * * * * * * * //

dimensions      [0 1 -1 0 0 0 0];

internalField   nonuniform List<vector> 
5000
(
(22.907393 -3.1698097e-17 0)
(22.917984 -4.0351917e-17 0)
(22.930567 0 0)
(22.946625 0 0)
(22.949659 1.5223975e-17 0)
(22.946808 -1.5167191e-32 1.3341202e-17)
(22.947635 -1.4002917e-17 2.9849013e-32)
(22.950796 0 -4.5359949e-17)
(22.955791 0 -1.5886067e-17)
(22.961824 1.5875277e-17 3.1750554e-17)
(22.968586 3.1225675e-17 3.1225675e-17)
(22.976159 -1.5014539e-17 -1.5014539e-17)
(22.981216 -1.2812352e-17 1.0924469e-31)
(22.98107 1.1268942e-17 9.9287604e-32)
(22.981882 0 -2.3187652e-17)
(22.984575 1.2347254e-17 2.4694508e-17)
(22.988772 2.2083804e-46 1.1041902e-46)
(22.993948 -1.275306e-17 1.1236377e-31)
(22.998355 0 1.2332087e-17)
(23.000193 -1.1700099e-17 -2.3400197e-17)
(23.002194 1.1198244e-17 -1.1198244e-17)
(23.004905 1.099281e-17 0)
(23.008204 -2.1969831e-17 0)
(23.011587 1.0781814e-17 1.0781814e-17)
(23.013938 1.043155e-17 -8.8944745e-32)
(23.016258 8.330868e-32 8.330868e-32)
(23.018705 -9.8520453e-18 9.8520453e-18)
(23.021226 -9.6418509e-18 -9.6418509e-18)
(23.023515 1.8790302e-17 -9.395151e-18)
(23.025682 -1.5848996e-31 9.1415898e-18)
(23.027796 1.5563893e-31 -1.5563893e-31)
(23.029835 -8.6727462e-18 7.3948281e-32)
(23.031786 -1.6894142e-17 8.4470711e-18)
(23.033654 1.6457488e-17 -8.2287439e-18)
(23.035444 -1.3900612e-31 -8.0177754e-18)
(23.037158 6.7956214e-31 0)
(23.038796 2.6409386e-31 0)
(23.040361 -1.4851357e-17 7.4256783e-18)
(23.041855 1.4483012e-17 7.2415059e-18)
(23.043278 1.4127418e-17 -7.063709e-18)
(23.044634 -1.3784289e-17 1.1557305e-31)
(23.045922 4.6266428e-31 6.7266744e-18)
(23.047146 1.3134325e-17 -6.5671624e-18)
(23.048305 -6.4134692e-18 1.0845765e-31)
(23.049403 -1.8796373e-17 6.2654576e-18)
(23.05044 6.1229922e-18 -6.1229922e-18)
(23.051417 5.9859402e-18 2.0585809e-31)
(23.052337 4.0098917e-31 -2.0049458e-31)
(23.0532 1.1455116e-17 1.9697226e-31)
(23.054007 0 -9.5598894e-32)
(23.054761 -5.4893136e-18 -5.4893136e-18)
(23.055462 -7.6418171e-34 0)
(23.056111 5.2702814e-18 0)
(23.056709 -1.0335408e-17 0)
(23.057258 1.7722742e-31 0)
(23.057759 9.9518956e-18 0)
(23.058212 -4.8865972e-18 0)
(23.05862 1.6580701e-31 0)
(23.058982 4.7205671e-18 0)
(23.0593 0 0)
(23.059575 -4.5709538e-18 0)
(23.059808 -1.5354884e-31 0)
(23.06 -1.2610862e-33 0)
(23.060152 -4.3755836e-18 4.3755836e-18)
(23.060264 4.3175508e-18 4.3175508e-18)
(23.060337 -1.4902689e-31 -4.262941e-18)
(23.06038 -4.2220445e-18 7.2598622e-32)
(23.060398 3.8807171e-18 6.4911397e-49)
(23.060395 3.710728e-18 -3.710728e-18)
(23.060379 -3.7145559e-18 0)
(23.06032 -3.6605204e-18 0)
(23.060202 3.7637388e-18 3.7637388e-18)
(23.060033 3.8388054e-18 3.8388054e-18)
(23.059832 -7.7122311e-18 0)
(23.059596 -3.839279e-18 -3.839279e-18)
(23.059328 3.8244929e-18 -1.3206883e-31)
(23.059027 0 3.804011e-18)
(23.058687 -3.7909306e-18 3.7909306e-18)
(23.058316 5.3901534e-34 -3.7929832e-18)
(23.057924 3.7894032e-18 -7.5788064e-18)
(23.05751 -3.7700955e-18 7.540191e-18)
(23.057061 1.0675379e-33 -2.1350758e-33)
(23.05658 -1.0687011e-33 -1.1280473e-17)
(23.056081 -3.7679411e-18 7.5358823e-18)
(23.055568 -3.7643045e-18 3.9157597e-31)
(23.055029 -1.3069014e-31 -7.507348e-18)
(23.054457 3.747593e-18 1.1242779e-17)
(23.053849 0 -3.7497014e-18)
(23.053208 3.7591553e-18 -3.7591553e-18)
(23.052542 3.9157655e-31 3.7746233e-18)
(23.051861 1.3251481e-31 -3.7906099e-18)
(23.051168 -3.7997703e-18 -3.7997703e-18)
(23.050455 -3.8037534e-18 -1.3243374e-31)
(23.049711 7.6257618e-18 7.6257618e-18)
(23.048942 2.6515283e-31 2.6515283e-31)
(23.048154 -3.8510011e-18 3.8510011e-18)
(23.047348 0 3.8644554e-18)
(23.046513 0 1.3607933e-31)
(23.045648 3.8981433e-18 -2.7144015e-31)
(23.044763 2.7242878e-31 -7.8567505e-18)
(23.043871 -7.9132554e-18 -3.9566277e-18)
(23.04297 3.9753639e-18 3.9753639e-18)
(23.042044 7.9811477e-18 -5.6709465e-34)
(23.041086 0 -4.0134469e-18)
(23.040103 -4.0463727e-18 0)
(23.039109 -4.0811158e-18 4.0811158e-18)
(23.038106 4.1089518e-18 1.4305971e-31)
(23.037085 4.1309329e-18 -4.1309329e-18)
(23.036035 0 4.1559666e-18)
(23.034957 0 4.1899e-18)
(23.033863 -4.2297797e-18 -8.4595595e-18)
(23.032764 -4.2679475e-18 -4.2679475e-18)
(23.031657 0 1.2899903e-17)
(23.030534 4.3281495e-18 4.3281495e-18)
(23.029385 -1.5234688e-31 -1.307373e-17)
(23.028209 -4.3925891e-18 4.3925891e-18)
(23.027011 4.4318463e-18 4.4318463e-18)
(23.025798 -1.271263e-33 2.542526e-33)
(23.024573 1.5775077e-31 4.5124892e-18)
(23.023336 -1.8541835e-48 -1.3649038e-17)
(23.022083 -9.1724199e-18 3.206559e-31)
(23.020811 1.9715598e-33 9.2490792e-18)
(23.019521 4.6651456e-18 -9.3302911e-18)
(23.018216 0 -4.7065109e-18)
(23.016897 4.7472747e-18 4.7472747e-18)
(23.015564 -4.7875617e-18 -4.7875617e-18)
(23.014214 -4.8282119e-18 4.8282119e-18)
(23.012848 9.7389879e-18 9.7389879e-18)
(23.011466 4.9109684e-18 -4.9109684e-18)
(23.010068 -9.9044359e-18 -1.7101186e-31)
(23.008652 -4.9933334e-18 -4.9933334e-18)
(23.007219 5.0348461e-18 -1.0069692e-17)
(23.005768 5.0774587e-18 5.0774587e-18)
(23.004302 5.1216487e-18 5.1216487e-18)
(23.002824 0 5.1669971e-18)
(23.001338 -5.2117612e-18 1.8145577e-31)
(22.999843 -5.2537817e-18 1.8217218e-31)
(22.998335 5.2926231e-18 -1.8427111e-31)
(22.996807 1.8483773e-31 -1.066131e-17)
(22.995256 -5.3712703e-18 -5.3712703e-18)
(22.993686 5.4158154e-18 5.4158154e-18)
(22.992105 5.4622936e-18 1.0924587e-17)
(22.990518 0 5.5069393e-18)
(22.988924 -5.5473514e-18 5.5473514e-18)
(22.987316 -5.5846058e-18 -3.8728666e-31)
(22.98569 5.6223492e-18 -1.1244698e-17)
(22.984044 -5.6635006e-18 1.6096637e-33)
(22.982386 3.2443076e-33 -1.6221538e-33)
(22.98072 5.7503983e-18 1.7879784e-47)
(22.979048 -5.7891653e-18 -5.7891653e-18)
(22.977362 5.8247943e-18 4.0394349e-31)
(22.975659 -4.0815431e-31 -8.1630861e-31)
(22.973939 -5.9016093e-18 -5.9016093e-18)
(22.97221 5.9427653e-18 5.9427653e-18)
(22.970474 -5.9807349e-18 -5.9807349e-18)
(22.968726 -6.014785e-18 -2.0855957e-31)
(22.96696 6.0487068e-18 6.0487068e-18)
(22.965178 0 -6.0861617e-18)
(22.963385 0 8.7060327e-34)
(22.961588 6.1650248e-18 6.1650248e-18)
(22.959787 6.1996869e-18 0)
(22.957975 -6.2320327e-18 -6.2320327e-18)
(22.956149 -6.2654034e-18 -4.3360891e-31)
(22.954312 6.3005476e-18 1.2601095e-17)
(22.952467 4.3933548e-31 -6.3351406e-18)
(22.950612 -6.3671057e-18 1.8096403e-33)
(22.948743 6.3973331e-18 6.3973331e-18)
(22.94686 6.4286155e-18 -6.4286155e-18)
(22.944963 0 6.4624008e-18)
(22.943058 -6.4971842e-18 -6.4971842e-18)
(22.941149 -6.5301128e-18 2.7208515e-30)
(22.939234 0 1.8197085e-30)
(22.937308 6.5883089e-18 -6.5883089e-18)
(22.935371 6.6175539e-18 1.3235108e-17)
(22.933422 0 0)
(22.931465 -6.6793656e-18 4.6320713e-31)
(22.929502 -1.395764e-30 1.395764e-30)
(22.92753 6.7369134e-18 -6.7369134e-18)
(22.92555 -6.7645843e-18 -6.7645843e-18)
(22.923559 -6.7926692e-18 -4.6816873e-31)
(22.921561 6.820845e-18 6.820845e-18)
(22.919555 4.7298394e-31 -6.8484127e-18)
(22.917541 -4.7287858e-31 -4.7287858e-31)
(22.915519 -2.9422707e-33 -2.9422707e-33)
(22.913489 -6.9275176e-18 -9.5984798e-31)
(22.91145 6.9532491e-18 1.3906498e-17)
(22.909404 9.6789215e-31 -6.9784175e-18)
(22.907349 -4.8166462e-31 -7.0029203e-18)
(22.905285 4.833116e-31 4.833116e-31)
(22.903211 -7.0505325e-18 -4.8594135e-31)
(22.901129 0 1.4707782e-30)
(22.899038 0 -4.9025506e-31)
(22.896941 7.1237219e-18 7.1237219e-18)
(22.894842 7.149288e-18 0)
(22.892742 0 0)
(22.890639 0 0)
(22.888525 -7.2097297e-18 0)
(22.886398 9.5066498e-49 7.2297461e-18)
(22.884263 7.2522157e-18 -1.5118929e-30)
(22.882123 0 -7.2752276e-18)
(22.879981 -7.2960073e-18 -7.2960073e-18)
(22.877835 7.3139937e-18 7.3139937e-18)
(22.875681 2.0316006e-30 7.3313428e-18)
(22.873519 -1.4699939e-17 -1.4699939e-17)
(22.871351 7.3694078e-18 -5.1001359e-31)
(22.869179 1.533861e-30 1.533861e-30)
(22.867002 1.0521974e-33 7.4041811e-18)
(22.864818 7.4192706e-18 7.4192706e-18)
(22.862625 -7.434561e-18 -7.434561e-18)
(22.860423 1.0588419e-33 0)
(22.858215 1.0336892e-30 -7.4681123e-18)
(22.856005 -5.1805868e-31 -5.1805868e-31)
(22.853795 7.5026009e-18 7.5026009e-18)
(22.851589 0 7.5171909e-18)
(22.84938 -7.528813e-18 -1.0485105e-30)
(22.847162 -5.2176835e-31 -7.5392574e-18)
(22.844934 -2.0957188e-30 1.5102212e-17)
(22.842699 -7.565629e-18 -7.565629e-18)
(22.840462 0 -7.5806129e-18)
(22.838228 7.5926805e-18 7.5926805e-18)
(22.83599 7.6020412e-18 -7.6020412e-18)
(22.833746 0 0)
(22.831496 0 0)
(22.829242 0 0)
(22.826988 -7.643371e-18 -7.643371e-18)
(22.824732 -5.2955911e-31 7.6518294e-18)
(22.822473 7.6594298e-18 1.531886e-17)
(22.820211 0 -7.6671063e-18)
(22.817945 0 5.3333572e-31)
(22.815678 -7.6822445e-18 -7.6822445e-18)
(22.813409 -7.688774e-18 -7.688774e-18)
(22.811138 7.6946186e-18 1.5389237e-17)
(22.808865 7.70012e-18 -2.1885057e-33)
(22.80659 0 2.1899537e-33)
(22.804314 -7.7097821e-18 -7.7097821e-18)
(22.802036 -7.7138759e-18 -7.7138759e-18)
(22.799757 7.7174014e-18 1.5434803e-17)
(22.797477 7.7204287e-18 -1.0971389e-33)
(22.795196 0 1.6089631e-30)
(22.792914 -7.7252656e-18 -7.7252656e-18)
(22.790632 2.1455449e-30 4.2910899e-30)
(22.788349 5.3591596e-31 1.0718319e-30)
(22.786067 -7.7282991e-18 -7.7282991e-18)
(22.783783 7.728291e-18 7.728291e-18)
(22.7815 7.7278439e-18 0)
(22.779217 0 7.726856e-18)
(22.776935 -7.725419e-18 -7.725419e-18)
(22.774652 1.0734113e-30 -7.7233748e-18)
(22.77237 -7.72102e-18 7.72102e-18)
(22.770089 -1.0704078e-30 0)
(22.767808 1.542747e-17 7.7137348e-18)
(22.765526 -7.7095633e-18 -7.7095633e-18)
(22.763244 1.0685547e-30 -7.7041854e-18)
(22.76096 2.6729305e-30 2.6729305e-30)
(22.75868 5.3250778e-31 1.5388872e-17)
(22.756402 7.6892512e-18 1.5378502e-17)
(22.754129 -7.6840334e-18 -2.30521e-17)
(22.751869 -7.6777035e-18 -1.5355407e-17)
(22.749609 0 0)
(22.747344 7.658213e-18 1.5316426e-17)
(22.745075 7.6499568e-18 7.6499568e-18)
(22.742806 0 -7.643061e-18)
(22.74055 -7.6352455e-18 -7.6352455e-18)
(22.738303 -7.6255947e-18 -7.6255947e-18)
(22.736054 1.5229716e-17 1.5229716e-17)
(22.733806 7.6040088e-18 1.5208018e-17)
(22.731559 -7.5927607e-18 -7.5927607e-18)
(22.729316 -7.5810581e-18 -1.5162116e-17)
(22.727075 -2.0994109e-30 -2.0994109e-30)
(22.724834 7.5554828e-18 1.5110966e-17)
(22.722596 -7.5431142e-18 -7.5431142e-18)
(22.720365 5.2223033e-31 1.0444607e-30)
(22.718139 7.5179353e-18 7.5179353e-18)
(22.715928 -7.5049456e-18 -1.5009891e-17)
(22.713724 5.2045681e-31 7.4895486e-18)
(22.711517 -5.2028393e-31 -1.0405679e-30)
(22.709306 2.1186955e-33 -7.4544971e-18)
(22.707091 5.1378949e-31 7.4392431e-18)
(22.704882 -7.4245596e-18 -7.4245596e-18)
(22.702683 0 1.4818685e-17)
(22.700496 0 -3.0848236e-30)
(22.69832 7.3765517e-18 -1.4753103e-17)
(22.696146 7.3577909e-18 1.4715582e-17)
(22.69397 0 5.0794666e-31)
(22.691802 0 -7.3226058e-18)
(22.689652 0 0)
(22.687504 0 0)
(22.685353 -7.2630778e-18 -7.2630778e-18)
(22.683203 -4.9923734e-31 7.2434442e-18)
(22.681061 1.4447437e-17 1.4447437e-17)
(22.678925 -3.0712236e-33 -7.2039384e-18)
(22.676804 -7.1833045e-18 2.0416179e-33)
(22.674685 -7.1613452e-18 -7.1613452e-18)
(22.672567 9.9113357e-31 -7.1386719e-18)
(22.670448 9.8607768e-31 7.1168255e-18)
(22.668336 1.0084949e-33 0)
(22.666256 7.076152e-18 7.076152e-18)
(22.664182 7.0516759e-18 7.0516759e-18)
(22.662103 7.0250745e-18 0)
(22.66002 -1.3999948e-17 -1.3999948e-17)
(22.657933 -2.0935764e-17 -6.9785881e-18)
(22.655878 6.9587037e-18 1.3917407e-17)
(22.653844 1.3869695e-17 -4.7993905e-31)
(22.651807 0 1.9632912e-33)
(22.649766 -6.881689e-18 -6.881689e-18)
(22.647727 -6.8570522e-18 -6.8570522e-18)
(22.645699 6.8315196e-18 6.8315196e-18)
(22.643676 -1.934301e-33 -6.8057164e-18)
(22.641652 2.8911828e-33 6.7816302e-18)
(22.639665 -1.9207887e-33 -3.8415775e-33)
(22.63769 -6.730553e-18 -1.3461106e-17)
(22.635711 -6.6997692e-18 6.6997692e-18)
(22.633725 6.6691757e-18 6.6691757e-18)
(22.631731 1.3288845e-17 6.6444226e-18)
(22.629772 -6.6231036e-18 9.1861083e-31)
(22.627841 -1.3785222e-48 -6.5957045e-18)
(22.625906 -6.5632223e-18 0)
(22.623961 -1.809552e-30 0)
(22.622004 1.3009423e-17 6.5047113e-18)
(22.620086 0 -9.0021685e-31)
(22.618202 0 1.7917457e-30)
(22.616313 -1.2843472e-17 8.9250672e-31)
(22.614413 3.546936e-30 -6.3867305e-18)
(22.612498 1.2721567e-17 6.3607836e-18)
(22.610623 0 -9.0094827e-34)
(22.608786 -6.3112843e-18 -6.3112843e-18)
(22.606944 -6.2758258e-18 0)
(22.60509 6.2393583e-18 0)
(22.60322 -8.8282009e-34 0)
(22.601386 8.5940512e-31 0)
(22.599583 -8.7530123e-34 0)
(22.597773 -6.1227501e-18 0)
(22.595951 6.0860774e-18 0)
(22.594114 6.0593391e-18 6.0593391e-18)
(22.592317 0 0)
(22.59057 -6.0106702e-18 -6.0106702e-18)
(22.588822 8.2977446e-31 0)
(22.587067 5.9442042e-18 5.9442042e-18)
(22.585311 -1.1835003e-17 1.6414906e-30)
(22.583611 1.633552e-30 -5.8888833e-18)
(22.58191 5.8493775e-18 0)
(22.580186 1.6117721e-30 0)
(22.578437 1.1531179e-17 5.7655896e-18)
(22.576661 -1.1486765e-17 7.9741151e-31)
(22.574955 -5.7294788e-18 -5.7294788e-18)
(22.57333 5.7013272e-18 0)
(22.571693 8.0381498e-34 0)
(22.570023 5.6111896e-18 5.6111896e-18)
(22.568324 0 5.5809257e-18)
(22.566613 0 -5.5614778e-18)
(22.564995 -5.5404479e-18 -5.5404479e-18)
(22.563393 7.6371372e-31 0)
(22.561776 1.0930972e-17 5.4654859e-18)
(22.560144 -7.7231744e-34 -7.7231744e-34)
(22.558511 -1.6232517e-17 -5.4108391e-18)
(22.556942 5.3831882e-18 5.3831882e-18)
(22.555373 5.3467915e-18 5.3467915e-18)
(22.553791 -1.0612233e-17 -5.3061167e-18)
(22.552193 5.2763426e-18 -5.2763426e-18)
(22.550601 -5.2538486e-18 0)
(22.549082 -1.0455067e-17 5.2275337e-18)
(22.547565 5.1907416e-18 5.1907416e-18)
(22.546031 5.1494222e-18 -5.1494222e-18)
(22.54448 5.1156174e-18 -5.1156174e-18)
(22.542917 -5.09173e-18 0)
(22.541421 -2.4914274e-48 5.0697361e-18)
(22.539948 5.0386001e-18 5.0386001e-18)
(22.538468 -5.0026832e-18 -5.0026832e-18)
(22.53698 4.9705446e-18 -4.9705446e-18)
(22.535489 -4.9430745e-18 0)
(22.534033 -1.3621861e-30 0)
(22.532587 -1.388613e-33 0)
(22.531146 -4.8548818e-18 0)
(22.529706 9.6494289e-18 0)
(22.528284 -4.7950937e-18 0)
(22.526864 -1.3235597e-30 0)
(22.525462 1.314672e-30 0)
(22.524095 4.711108e-18 4.711108e-18)
(22.522727 9.3537009e-18 2.5493606e-47)
(22.521348 -1.3918658e-17 -4.6395528e-18)
(22.519956 -1.2778187e-30 0)
(22.518554 2.5416701e-30 0)
(22.517172 -1.2637339e-30 0)
(22.515854 9.0724006e-18 4.5362003e-18)
(22.514539 -9.0072976e-18 6.2464682e-31)
(22.513212 1.2392314e-30 -4.4673749e-18)
(22.511871 8.871635e-18 4.4358175e-18)
(22.510521 0 -6.125207e-31)
(22.509206 0 6.2388686e-34)
(22.507921 -4.364386e-18 6.0595157e-31)
(22.506635 6.0126944e-31 -4.3350999e-18)
(22.505348 4.3069061e-18 4.3069061e-18)
(22.504064 4.2818518e-18 -4.2818518e-18)
(22.502814 -4.2566569e-18 2.3651877e-30)
(22.501572 -1.2684817e-17 4.2282723e-18)
(22.500326 4.1979311e-18 -4.1979311e-18)
(22.499075 4.1704027e-18 0)
(22.497826 1.1781812e-33 0)
(22.49659 4.121006e-18 4.121006e-18)
(22.495376 0 5.6880807e-31)
(22.494179 -8.1423247e-18 -4.0711624e-18)
(22.492982 -8.0862814e-18 4.0431407e-18)
(22.491781 4.0152475e-18 4.0152475e-18)
(22.490579 7.9774041e-18 0)
(22.489375 3.9650625e-18 -3.9650625e-18)
(22.488198 -7.8882812e-18 -3.9441406e-18)
(22.487055 -7.8424729e-18 3.9212364e-18)
(22.485912 7.7864501e-18 1.0805179e-30)
(22.484761 7.7282422e-18 -5.3532957e-48)
(22.483604 0 5.3290593e-31)
(22.482442 -7.6338318e-18 -3.8169159e-18)
(22.481316 3.7973526e-18 3.7973526e-18)
(22.480208 7.5468733e-18 1.915217e-47)
(22.479097 -3.7463308e-18 5.2014076e-31)
(22.477981 -3.719863e-18 3.719863e-18)
(22.476859 5.2549563e-34 0)
(22.475753 -5.1071933e-31 0)
(22.474677 -3.6570357e-18 -3.6570357e-18)
(22.473602 3.632161e-18 -5.1616112e-34)
(22.472522 3.606321e-18 1.5005679e-30)
(22.471439 -3.5840032e-18 -3.5840032e-18)
(22.470361 4.943632e-31 0)
(22.469314 5.0364894e-34 0)
(22.468275 4.8847484e-31 3.5218608e-18)
(22.467235 3.4987018e-18 -9.7002829e-31)
(22.466195 -3.4767791e-18 -3.4767791e-18)
(22.465168 1.4392149e-30 0)
(22.464145 4.7660982e-31 0)
(22.463121 9.4641917e-31 0)
(22.462098 3.388595e-18 3.388595e-18)
(22.461076 -3.3691274e-18 -4.7878181e-34)
(22.460084 4.6516953e-31 -3.3503987e-18)
(22.459105 9.2313928e-31 3.3295824e-18)
(22.458124 4.6990823e-34 -3.3066852e-18)
(22.457141 6.5704029e-18 9.1316877e-31)
(22.45616 3.2654594e-18 6.5309187e-18)
(22.455191 -3.245635e-18 -3.245635e-18)
(22.454228 -6.4516935e-18 -1.3436302e-30)
(22.453275 4.4509717e-31 -4.4509717e-31)
(22.452327 6.3702781e-18 4.4222486e-31)
(22.451379 3.164284e-18 3.164284e-18)
(22.450434 -6.2874885e-18 0)
(22.449488 -3.1251089e-18 0)
(22.448567 3.1077847e-18 -3.1077847e-18)
(22.44766 3.0879561e-18 -4.2873199e-31)
(22.44675 8.5074518e-31 8.5074518e-31)
(22.445835 -3.0436307e-18 -1.0343425e-48)
(22.444917 0 3.025105e-18)
(22.443999 0 -3.0086495e-18)
(22.443116 -2.9921093e-18 -2.9921093e-18)
(22.442243 0 0)
(22.441366 2.9504573e-18 2.9504573e-18)
(22.440485 -2.9294752e-18 4.0672849e-31)
(22.439599 -4.1381041e-34 -2.9119319e-18)
(22.438732 8.0378239e-31 0)
(22.437881 0 0)
(22.43703 2.8578466e-18 2.8578466e-18)
(22.436176 -2.8374264e-18 -8.0644508e-34)
(22.435319 -2.8197684e-18 -8.1600762e-49)
(22.434483 5.6075771e-18 2.8037886e-18)
(22.43366 2.7851887e-18 -2.7851887e-18)
(22.432834 -2.7645969e-18 3.8305102e-31)
(22.432005 0 -3.8103017e-31)
(22.431173 0 7.5688102e-31)
(22.430355 2.7118605e-18 2.7118605e-18)
(22.42956 -7.4881283e-31 -2.695295e-18)
(22.428769 -2.6768995e-18 7.4332172e-31)
(22.427978 0 -7.3832207e-31)
(22.427186 0 7.3307651e-31)
(22.426399 2.62035e-18 2.62035e-18)
(22.425613 -1.0843892e-30 -2.6025616e-18)
(22.424834 -2.5856908e-18 7.1799489e-31)
(22.424074 0 -3.5735056e-31)
(22.423316 0 0)
(22.422558 0 2.5303001e-18)
(22.421798 0 -2.512293e-18)
(22.421041 0 3.4652901e-31)
(22.420307 0 -3.5232291e-34)
(22.419577 0 3.4161504e-31)
(22.418845 0 -3.392162e-31)
(22.418111 -4.8451867e-18 -2.4225933e-18)
(22.417377 -1.3356033e-30 2.406163e-18)
(22.416664 2.3898466e-18 2.3898466e-18)
(22.415961 -2.3721286e-18 -2.3721286e-18)
(22.415257 2.3531428e-18 -2.3531428e-18)
(22.414551 -2.3350339e-18 0)
(22.413853 6.4434071e-31 2.3180699e-18)
(22.413166 2.3006586e-18 2.3006586e-18)
(22.412483 6.3388175e-31 0)
(22.4118 2.2652797e-18 -2.2652797e-18)
(22.41113 0 3.1210601e-31)
(22.410466 0 -3.1685378e-34)
(22.409801 -2.2109028e-18 -3.0664766e-31)
(22.409137 -6.0879391e-31 2.192429e-18)
(22.408472 2.1754836e-18 -2.1754836e-18)
(22.407827 0 -2.9954154e-31)
(22.407196 0 5.9483405e-31)
(22.406564 0 2.1225829e-18)
(22.405929 0 2.1029691e-18)
(22.405292 0 -4.1710604e-18)
(22.404661 0 2.9411208e-34)
(22.404052 0 -2.8476373e-31)
(22.403447 -4.0700415e-18 -2.0350208e-18)
(22.402842 1.6785264e-30 2.0163161e-18)
(22.402237 3.9969416e-18 -2.7746779e-31)
(22.40164 -1.981187e-18 -1.981187e-18)
(22.401052 -2.7903458e-34 0)
(22.400468 -1.9454568e-18 0)
(22.399883 1.0689916e-30 0)
(22.39931 3.8213722e-18 1.9106861e-18)
(22.398746 1.8931393e-18 1.8931393e-18)
(22.398185 8.9001569e-49 -1.8748226e-18)
(22.397624 -5.5701604e-18 -1.8567201e-18)
(22.397067 0 0)
(22.396523 3.6445249e-18 1.8222624e-18)
(22.395985 0 1.8042931e-18)
(22.395448 0 -1.7859265e-18)
(22.39491 -3.5361891e-18 -1.7680946e-18)
(22.394382 4.8567952e-31 0)
(22.393862 5.200235e-18 1.7334117e-18)
(22.393347 -1.7152981e-18 1.7152981e-18)
(22.392831 -1.6976473e-18 -1.6976473e-18)
(22.392325 1.6808335e-18 -4.6673403e-31)
(22.39183 -1.6635254e-18 1.6635254e-18)
(22.391337 1.6453267e-18 0)
(22.390845 4.5129726e-31 0)
(22.390352 -1.6094063e-18 0)
(22.389867 1.593167e-18 0)
(22.389402 0 -1.5768079e-18)
(22.388941 1.5587484e-18 4.3239038e-31)
(22.388479 -1.5398999e-18 1.5398999e-18)
(22.388016 -3.0440364e-18 -1.5220182e-18)
(22.387553 1.505246e-18 -2.0898843e-31)
(22.387105 1.4888733e-18 2.0692683e-31)
(22.386665 1.4719088e-18 -8.4294021e-49)
(22.386229 1.4540884e-18 -1.4540884e-18)
(22.385791 -2.8735142e-18 -1.4367571e-18)
(22.385363 -1.4202439e-18 2.8404878e-18)
(22.384943 1.4034318e-18 1.9485254e-31)
(22.384527 0 -1.922459e-31)
(22.384112 -1.3687807e-18 1.3687807e-18)
(22.383699 1.3522344e-18 0)
(22.383299 1.3360227e-18 -1.3360227e-18)
(22.382906 -3.9576926e-18 -1.3192309e-18)
(22.382514 -3.7001483e-34 1.301874e-18)
(22.382123 2.569447e-18 3.5637701e-31)
(22.381733 -1.2684192e-18 -1.2684192e-18)
(22.381355 -1.7392487e-31 0)
(22.380986 -1.2366251e-18 0)
(22.380621 3.4671494e-34 1.2198948e-18)
(22.380256 2.4063675e-18 -1.6687911e-31)
(22.379895 -1.1870796e-18 -1.1870796e-18)
(22.379542 0 0)
(22.379194 3.207833e-31 1.1552261e-18)
(22.37885 1.6185287e-34 -1.6185287e-34)
(22.378507 1.1230174e-18 3.1183958e-31)
(22.378171 -1.1076133e-18 1.5362369e-31)
(22.377843 3.0327453e-31 -1.0921724e-18)
(22.377519 1.4928602e-31 1.0763391e-18)
(22.377197 1.5070653e-34 -1.5070653e-34)
(22.376876 1.0452448e-18 2.9024369e-31)
(22.376565 -1.030388e-18 1.030388e-18)
(22.376261 -7.4141267e-49 -1.0152655e-18)
(22.375959 2.77617e-31 -2.77617e-31)
(22.375658 1.3990692e-34 -1.3990692e-34)
(22.37536 1.940025e-18 1.3467658e-31)
(22.375073 1.3257859e-31 9.5588003e-19)
(22.374793 -9.4126362e-19 -9.4126362e-19)
(22.374515 0 0)
(22.374236 0 5.0593018e-31)
(22.37396 8.9695072e-19 1.2440522e-31)
(22.373692 3.6748316e-31 3.6748316e-31)
(22.37343 -8.6941061e-19 1.2355068e-34)
(22.373173 8.5539838e-19 8.5539838e-19)
(22.372918 -1.168034e-31 -8.412803e-19)
(22.372667 -2.670603e-48 -2.670603e-48)
(22.372418 1.1296444e-31 1.1296444e-31)
(22.372173 -8.0036405e-19 -2.2224517e-31)
(22.371935 -7.8729799e-19 1.0930849e-31)
(22.371702 -1.0736484e-31 -1.5481822e-18)
(22.371472 7.6079695e-19 7.6079695e-19)
(22.371244 0 7.4770315e-19)
(22.371021 0 1.0202329e-31)
(22.370801 -7.2202208e-19 -1.0024558e-31)
(22.370585 7.0930884e-19 -1.4186177e-18)
(22.370371 -5.8012127e-31 6.9686591e-19)
(22.370161 -6.8476838e-19 6.8476838e-19)
(22.369958 6.7279744e-19 -5.7774662e-49)
(22.369759 0 0)
(22.369562 -6.4855317e-19 -5.8378843e-49)
(22.369367 -6.3656523e-19 6.3656523e-19)
(22.369176 6.2484049e-19 -6.2484049e-19)
(22.368988 6.1335364e-19 -5.4773384e-49)
(22.368803 0 8.3509574e-32)
(22.368623 -5.9099767e-19 8.398582e-35)
(22.368448 -5.7990491e-19 5.7990491e-19)
(22.368275 1.1376026e-18 -1.1376026e-18)
(22.368104 5.5781654e-19 -1.5489455e-31)
(22.367937 -5.470512e-19 5.470512e-19)
(22.367772 -5.3651888e-19 -7.4414064e-32)
(22.367611 -7.2976089e-32 7.2976089e-32)
(22.367454 -5.1584443e-19 -5.1584443e-19)
(22.367299 -1.4039401e-31 5.055962e-19)
(22.367147 9.91037e-19 1.9180725e-48)
(22.366998 0 2.0235794e-31)
(22.366852 0 -1.322269e-31)
(22.366709 0 1.2941185e-31)
(22.366569 -4.5679987e-19 1.2684423e-31)
(22.366432 -4.4751855e-19 -4.4324582e-49)
(22.366298 0 0)
(22.366166 4.2913194e-19 -4.2913194e-19)
(22.366037 5.8204246e-32 0)
(22.36591 -4.1128479e-19 0)
(22.365786 0 4.0273375e-19)
(22.365665 0 1.0947218e-31)
(22.365547 3.8572649e-19 -3.8572649e-19)
(22.365431 5.2332488e-32 0)
(22.365316 -5.1147682e-32 0)
(22.365204 3.6126897e-19 7.2253793e-19)
(22.365096 -3.5349923e-19 2.9427816e-31)
(22.36499 1.4383772e-31 -6.9137158e-19)
(22.364886 3.3790167e-19 3.3790167e-19)
(22.364784 0 -4.6938454e-35)
(22.364683 3.2295149e-19 4.4838601e-32)
(22.364585 4.3844591e-32 3.157921e-19)
(22.36449 -3.0870014e-19 0)
(22.364397 3.0164511e-19 0)
(22.364305 -2.9469478e-19 0)
(22.364216 -2.8791493e-19 2.8791493e-19)
(22.364128 2.8130257e-19 7.8032174e-32)
(22.364043 0 -2.7480682e-19)
(22.363959 -2.6839486e-19 0)
(22.363878 -2.6209255e-19 0)
(22.363798 2.5594493e-19 2.5594493e-19)
(22.36372 2.4992239e-19 -3.5516107e-35)
(22.363645 0 -2.439591e-19)
(22.36357 2.3806834e-19 0)
(22.363497 -2.3230777e-19 0)
(22.363426 -2.2671503e-19 2.2671503e-19)
(22.363356 2.2128935e-19 6.1384754e-32)
(22.363289 4.3190828e-19 5.9996856e-32)
(22.363224 -1.1698114e-31 -5.8490572e-32)
(22.363159 -6.1613388e-19 -2.0537796e-19)
(22.363096 -2.4360743e-49 2.0023979e-19)
(22.363034 1.9527183e-19 -5.4195353e-32)
(22.362974 3.8089788e-19 5.2856816e-32)
(22.362916 -1.0302363e-31 -5.1511817e-32)
(22.362859 -3.6197494e-19 -1.8098747e-19)
(22.362803 1.763634e-19 0)
(22.362748 -1.7190167e-19 0)
(22.362695 1.6757498e-19 1.6757498e-19)
(22.362644 1.6326755e-19 5.2057124e-48)
(22.362594 -3.1791964e-19 -1.5895982e-19)
(22.362545 0 0)
(22.362496 0 0)
(22.362449 2.9344129e-19 1.4672064e-19)
(22.362403 1.4574174e-48 2.9148348e-48)
(22.362359 -2.7832989e-19 -1.3916495e-19)
(22.362316 0 0)
(22.362274 0 0)
(22.362233 2.5634552e-19 1.2817276e-19)
(22.362193 1.3654919e-48 2.7309838e-48)
(22.362153 -2.4222042e-19 -1.2111021e-19)
(22.362115 0 0)
(22.362077 0 0)
(22.362041 2.2294113e-19 1.1147057e-19)
(22.362007 1.0837549e-19 -1.5401084e-35)
(22.361973 -2.1050284e-19 -1.0525142e-19)
(22.36194 -1.0214321e-19 1.0214321e-19)
(22.361908 0 -2.7536572e-32)
(22.361876 1.9241561e-19 2.6728665e-32)
(22.361844 -5.18924e-32 -2.59462e-32)
(22.361815 -1.8151023e-19 -9.0755113e-20)
(22.361786 8.806227e-20 0)
(22.361758 0 0)
(22.361731 -8.270374e-20 0)
(22.361704 8.0164471e-20 0)
(22.361678 -1.1044208e-35 0)
(22.361653 -7.5297896e-20 7.5297896e-20)
(22.361629 7.2899943e-20 -2.0232504e-32)
(22.361605 -7.0563449e-20 -7.0563449e-20)
(22.361582 -6.8288461e-20 0)
(22.36156 6.6043707e-20 0)
(22.361538 6.3837451e-20 0)
(22.361517 -1.7133848e-32 0)
(22.361496 -5.9633729e-20 0)
(22.361477 5.7588557e-20 0)
(22.361458 1.5429541e-32 0)
(22.361439 -5.3609027e-20 5.3609027e-20)
(22.361421 5.1722931e-20 -2.8710157e-32)
(22.361403 -4.9857468e-20 -4.9857468e-20)
(22.361386 -4.7996503e-20 0)
(22.36137 4.617474e-20 0)
(22.361353 4.4455696e-20 0)
(22.361338 -1.1900396e-32 0)
(22.361324 -4.1274321e-20 0)
(22.36131 3.9627141e-20 0)
(22.361297 -5.3949261e-36 0)
(22.361283 -3.6358975e-20 3.6358975e-20)
(22.361269 3.4843024e-20 -9.6702629e-33)
(22.361257 -3.3416314e-20 -3.3416314e-20)
(22.361244 -3.2066878e-20 0)
(22.361233 3.0745547e-20 0)
(22.361222 5.879119e-20 2.9395595e-20)
(22.361212 -1.5573711e-32 -7.7868556e-33)
(22.361201 -5.3385105e-20 -2.6692552e-20)
(22.361191 2.5419202e-20 0)
(22.361181 -3.4424238e-36 0)
(22.361171 -4.6208025e-20 0)
(22.361163 -6.2574723e-36 2.2016523e-20)
(22.361154 2.0915271e-20 5.8107267e-33)
(22.361146 0 -1.9806685e-20)
(22.361138 -1.8725329e-20 0)
(22.36113 0 0)
(22.361123 1.6748995e-20 0)
(22.361115 0 0)
(22.361109 0 0)
(22.361102 0 0)
(22.361096 1.3136458e-20 0)
(22.36109 3.7696207e-50 1.2312065e-20)
(22.361084 -1.1551916e-20 -1.641626e-36)
(22.361079 0 -1.0801025e-20)
(22.361074 -1.0019104e-20 0)
(22.361069 2.5658474e-33 0)
(22.361064 8.5114872e-21 0)
(22.361059 0 0)
(22.361054 0 0)
(22.36105 0 0)
(22.361046 6.0343096e-21 0)
(22.361042 -1.509329e-33 5.4354958e-21)
(22.361038 -4.8615531e-21 6.9086825e-37)
(22.361035 0 -4.3332027e-21)
(22.361031 -3.833191e-21 0)
(22.361028 -9.2420673e-34 0)
(22.361025 2.8241573e-21 0)
(22.361022 0 2.3387421e-21)
(22.361019 -1.9038717e-21 -1.057064e-33)
(22.361016 1.5170639e-21 -1.5170639e-21)
(22.361014 -6.3138652e-34 0)
(22.361012 -7.4047431e-22 7.4047431e-22)
(22.361009 3.4831908e-22 9.6770776e-35)
(22.361007 0 1.1432835e-23)
(22.361005 -3.2501543e-22 0)
(22.361003 -1.7030478e-34 0)
(22.361001 9.047365e-22 -9.047365e-22)
(22.360999 0 -1.2002896e-21)
(22.360997 1.4856769e-21 1.4856769e-21)
(22.360995 -1.7424739e-21 1.7424739e-21)
(22.360994 -1.0875404e-33 0)
(22.360992 2.1548194e-21 0)
(22.360991 -1.3067219e-33 0)
(22.360989 -3.6276345e-37 0)
(22.360988 7.5943834e-34 2.7335408e-21)
(22.360986 -4.0950303e-37 -4.0950303e-37)
(22.360985 -3.0072816e-21 -6.0145632e-21)
(22.360984 0 -3.1185778e-21)
(22.360983 3.2381196e-21 6.4762392e-21)
(22.360982 -9.3811362e-34 6.7602537e-21)
(22.36098 -9.7279636e-34 -3.5050926e-21)
(22.360979 -3.3474405e-52 -3.5588806e-21)
(22.360978 -9.9388751e-34 0)
(22.360978 0 0)
(22.360977 -7.2562309e-21 0)
(22.360976 -1.0402539e-33 0)
(22.360974 3.8496184e-21 -3.8496184e-21)
(22.360973 -3.8823083e-21 -1.0785915e-33)
(22.360972 1.0682484e-33 3.849017e-21)
(22.360971 3.8048602e-21 0)
(22.360971 3.7446353e-21 0)
(22.36097 1.0345187e-33 0)
(22.360969 -1.0523248e-33 0)
(22.360968 3.8470503e-21 0)
(22.360966 -3.8529642e-21 0)
(22.360965 -3.8095282e-21 0)
(22.360964 0 0)
(22.360964 -3.6904936e-21 0)
(22.360963 1.0154192e-33 0)
(22.360962 3.6699801e-21 0)
(22.360961 0 0)
(22.360959 0 0)
(22.360958 0 0)
(22.360958 -7.1202434e-21 -3.5601217e-21)
(22.360957 3.9168731e-33 1.9584365e-33)
(22.360955 7.0518163e-21 3.5259081e-21)
(22.360954 0 0)
(22.360953 0 0)
(22.360952 0 3.4723841e-21)
(22.360951 0 -9.6414254e-34)
(22.36095 0 4.9340358e-37)
(22.360949 0 -3.44071e-21)
(22.360948 0 -3.4000444e-21)
(22.360947 -6.6905099e-21 -1.8573461e-33)
(22.360946 1.8565594e-33 9.2827972e-34)
(22.360945 6.8436056e-21 3.4218028e-21)
(22.360944 3.5135288e-21 0)
(22.360943 -3.5554302e-21 0)
(22.360941 -3.5387821e-21 0)
(22.36094 9.736713e-34 0)
(22.36094 1.9214553e-33 0)
(22.360939 3.4556618e-21 -3.4556618e-21)
(22.360938 -3.5278096e-21 1.9587037e-33)
(22.360937 3.6418797e-21 3.6418797e-21)
(22.360936 3.7447661e-21 0)
(22.360935 -3.8014116e-21 0)
(22.360934 -3.8062429e-21 0)
(22.360933 2.1130512e-33 0)
(22.360933 3.7984745e-21 0)
(22.360932 3.8185481e-21 0)
(22.360931 -1.0856499e-33 0)
(22.36093 -4.0294723e-21 -4.0294723e-21)
(22.360929 -4.1131749e-21 2.2831246e-33)
(22.360928 4.1469083e-21 4.1469083e-21)
(22.360928 4.1655963e-21 0)
(22.360927 -4.1734649e-21 0)
(22.360927 4.1962784e-21 0)
(22.360926 0 0)
(22.360925 -4.3741889e-21 0)
(22.360924 -4.4360787e-21 0)
(22.360924 1.2391646e-33 0)
(22.360923 4.4984807e-21 -4.4984807e-21)
(22.360922 -4.5080685e-21 3.7541215e-33)
(22.360922 4.5367763e-21 4.5367763e-21)
(22.360921 4.5730748e-21 0)
(22.360921 -4.5326429e-21 0)
(22.36092 4.4954498e-21 0)
(22.36092 1.2639933e-33 0)
(22.360919 -4.6321477e-21 0)
(22.360918 -4.6842072e-21 0)
(22.360917 -6.6511932e-37 0)
(22.360917 9.1419744e-21 0)