-1.25 	300 	0.1183512306692515 	101277.4471741852
-1.247497497497497 	299.9555668380207 	0.119083404205067 	101275.3233017147
-1.244994994994995 	299.9574269077683 	0.1224761634736148 	101274.6953695095
-1.242492492492492 	299.9575766611737 	0.123394148461797 	101274.8408242697
-1.23998998998999 	299.9584004430924 	0.1200260319986814 	101275.8291456132
-1.237487487487487 	299.9601216827938 	0.1152599336317602 	101277.8631683145
-1.234984984984985 	299.9626096844348 	0.1080561243994534 	101280.8034997085
-1.232482482482482 	299.9657837516437 	0.09888456392395675 	101284.5546468766
-1.22997997997998 	299.9696201958122 	0.08784113039745942 	101289.0887049099
-1.227477477477477 	299.9739744504836 	0.07523616499353578 	101294.2350024386
-1.224974974974975 	299.9787427018821 	0.06142133990574357 	101299.870821832
-1.222472472472472 	299.9838788375294 	0.046558757998955 	101305.9417791957
-1.21996996996997 	299.9893204521553 	0.03082661134010712 	101312.3741337026
-1.217467467467467 	299.9949444723561 	0.01453949644223583 	101319.0223487785
-1.214964964964965 	300.000638888813 	0.008326737228114502 	101325.7541271274
-1.212462462462462 	300.0063624650363 	0.01848857585982043 	101332.5206803879
-1.20995995995996 	300.0120033993924 	0.0347195881977314 	101339.1898894789
-1.207457457457457 	300.0174056549688 	0.05033968627900819 	101345.5772378434
-1.204954954954955 	300.0225067107252 	0.06511075200409272 	101351.6086893588
-1.202452452452452 	300.0272315264027 	0.07877379067676477 	101357.1955134098
-1.19994994994995 	300.031443320927 	0.09091149146799452 	101362.1759635088
-1.197447447447447 	300.0350380592521 	0.1012953319003177 	101366.4268647803
-1.194944944944945 	300.0379734963856 	0.1098077315094416 	101369.8982395217
-1.192442442442442 	300.0402165958851 	0.1163037968009977 	101372.5509893658
-1.18993993993994 	300.0417403745505 	0.1207032623584164 	101374.3530323691
-1.187437437437437 	300.0425257490368 	0.1229206869089033 	101375.2819034524
-1.184934934934935 	300.0425258837039 	0.1228680666160631 	101375.2820602784
-1.182432432432432 	300.0416974926261 	0.1204721001452215 	101374.3024690572
-1.17992992992993 	300.040055279871 	0.1157363865732041 	101372.3605806204
-1.177427427427427 	300.0376607606996 	0.10883148938778 	101369.5289214638
-1.174924924924925 	300.0345838142916 	0.09994064549645706 	101365.8903556381
-1.172422422422422 	300.03088406803 	0.08924134077331923 	101361.5153799359
-1.16991991991992 	300.0266274941599 	0.07695258213386252 	101356.4821401962
-1.167417417417417 	300.0218911911116 	0.06326773740889516 	101350.8818807982
-1.164914914914915 	300.0167600592218 	0.04841674634587127 	101344.8149032496
-1.162412412412412 	300.0113221231656 	0.03267777606573319 	101338.3854979165
-1.15990990990991 	300.0056991486814 	0.016403728603896 	101331.7375791995
-1.157407407407407 	300.0000023982635 	0.008209823050229806 	101325.0027854066
-1.154904904904904 	299.9942950108264 	0.0165848375502614 	101318.2557655824
-1.152402402402403 	299.9886521135023 	0.03288711391434994 	101311.5851906661
-1.1498998998999 	299.9831764081507 	0.0486659070933043 	101305.1126025368
-1.147397397397397 	299.9779925438241 	0.06362053623632388 	101298.9852206333
-1.144894894894895 	299.9732321984418 	0.07738311134417861 	101293.3586992649
-1.142392392392392 	299.9689948140838 	0.08966063686064357 	101288.3504997954
-1.13988988988989 	299.9653486084637 	0.1002194924518782 	101284.0410662421
-1.137387387387387 	299.9623385913163 	0.1089204169691573 	101280.4836721495
-1.134884884884885 	299.9600038356571 	0.1156690094971222 	101277.7243420733
-1.132382382382382 	299.9583939516064 	0.1203111877221475 	101275.821689538
-1.12987987987988 	299.9575531691013 	0.1227465194348506 	101274.8280259904
-1.127377377377377 	299.9575035010776 	0.1228443536171103 	101274.7692647505
-1.124874874874875 	299.9582676602649 	0.1205823616195167 	101275.6722756521
-1.122372372372372 	299.9598344665671 	0.1160695905206141 	101277.5237980826
-1.11986986986987 	299.9621486053603 	0.109392256119867 	101280.2586303093
-1.117367367367367 	299.9651489735667 	0.1007387154280536 	101283.8045296288
-1.114864864864865 	299.9687772551077 	0.09025914332029114 	101288.0925757318
-1.112362362362362 	299.9729598869558 	0.07813083975235921 	101293.0360093492
-1.10985985985986 	299.9776393071442 	0.06461732977209711 	101298.5667601495
-1.107357357357357 	299.9827278897316 	0.04993024144258797 	101304.5814502829
-1.104854854854855 	299.9881072599011 	0.03437287286795819 	101310.9401298746
-1.102352352352353 	299.9936659042308 	0.01826015456532313 	101317.5109696428
-1.09984984984985 	299.9993128751835 	0.007869129493715049 	101324.1865932543
-1.097347347347347 	300.0049914996966 	0.01452523096007047 	101330.8999051832
-1.094844844844845 	300.0106340786184 	0.03077470498359881 	101337.5709910333
-1.092342342342342 	300.0161051747916 	0.04657330015748749 	101344.0396565109
-1.08983983983984 	300.0212775073395 	0.06155651577381129 	101350.155309851
-1.087337337337337 	300.0260495285362 	0.07536928063760906 	101355.7979317734
-1.084834834834835 	300.0303329536287 	0.0877181411703869 	101360.8629883927
-1.082332332332332 	300.0340586327964 	0.09848300878837551 	101365.2686993759
-1.07982982982983 	300.0371831217689 	0.1075238850706888 	101368.963641503
-1.077327327327327 	300.0396438361972 	0.1146552629069977 	101371.8736676762
-1.074824824824825 	300.0413841625718 	0.1196834896007232 	101373.9318325183
-1.072322322322323 	300.0423504229628 	0.1224151532312031 	101375.0746112965
-1.06981981981982 	300.0425030235515 	0.1228202890045131 	101375.2550765796
-1.067317317317317 	300.041843413701 	0.1209366674595076 	101374.4751131245
-1.064814814814815 	300.0404096554047 	0.1168007981006517 	101372.7796862997
-1.062312312312312 	300.0382323412408 	0.1105225875431425 	101370.2049036914
-1.05980980980981 	300.0353535382573 	0.1021860928560945 	101366.800638973
-1.057307307307307 	300.0318184559691 	0.09194902129120612 	101362.62034248
-1.054804804804805 	300.0276847713183 	0.08002412260516745 	101357.7324009396
-1.052302302302302 	300.023036862922 	0.06659861712074673 	101352.2365862685
-1.0497997997998 	300.0179766080226 	0.05195767893407179 	101346.253366
-1.047297297297297 	300.0125972375786 	0.03638790206631889 	101339.8931432621
-1.044794794794795 	300.0070069131596 	0.02020130926742595 	101333.2837488397
-1.042292292292292 	300.0013035028189 	0.007427354736054517 	101326.5410236607
-1.03978978978979 	299.9955669139038 	0.01287782001834587 	101319.7593832001
-1.037287287287287 	299.9898910940945 	0.02927212618369798 	101313.0498393629
-1.034784784784785 	299.9843904321139 	0.04513501789331861 	101306.547683658
-1.032282282282283 	299.9791821270256 	0.06019000803523767 	101300.3913414686
-1.02977977977978 	299.9743636155582 	0.07413176914510888 	101294.6960337656
-1.027277277277277 	299.9700056625896 	0.08674003961130491 	101289.5452550563
-1.024774774774775 	299.9661898091319 	0.09776870347909508 	101285.0353112508
-1.022272272272272 	299.9629943147795 	0.1070000702302297 	101281.2586825286
-1.01976976976977 	299.9604882771841 	0.1142423554390971 	101278.2969031918
-1.017267267267267 	299.9587319322274 	0.119300771832133 	101276.2211706561
-1.014764764764765 	299.9577603802605 	0.1221187623735008 	101275.0729284074
-1.012262262262262 	299.9575708650572 	0.1226366355054486 	101274.8489195237
-1.00975975975976 	299.9581686825488 	0.1208913398620415 	101275.5553647295
-1.007257257257257 	299.9595407528535 	0.1169408286127635 	101277.1767524989
-1.004754754754755 	299.9616613085884 	0.1107954436497466 	101279.6827864649
-1.002252252252252 	299.9644933967652 	0.1026109315909707 	101283.0297746925
-0.9997497497497498 	299.9679831753638 	0.09253968764475631 	101287.1541242883
-0.9972472472472473 	299.9720414641517 	0.08079296124607972 	101291.9505535136
-0.9947447447447449 	299.9766041196328 	0.06761609975487877 	101297.3432763105
-0.9922422422422421 	299.9815829353288 	0.05321667552630674 	101303.2281326104
-0.9897397397397399 	299.9868856383216 	0.03786969993244591 	101309.4961134235
-0.9872372372372376 	299.992409095449 	0.02189988489694965 	101316.0253276896
-0.9847347347347346 	299.9980419227237 	0.006631265472868871 	101322.6841265658
-0.9822322322322323 	300.0037065205003 	0.01077118857517502 	101329.380828109
-0.9797297297297296 	300.0093204350074 	0.02696889937349963 	101336.0179105058
-0.9772272272272275 	300.0147719821474 	0.04274275686897671 	101342.4633762025
-0.9747247247247248 	300.01996258937 	0.05775885711229139 	101348.6006184272
-0.9722222222222224 	300.0248049131023 	0.07176700389135743 	101354.3262573225
-0.9697197197197196 	300.029213199343 	0.08450555878709709 	101359.538941238
-0.9672172172172175 	300.033103117458 	0.09573023124738712 	101364.1388032332
-0.9647147147147147 	300.036396139664 	0.1052509194426366 	101368.032991213
-0.9622122122122124 	300.0390217717824 	0.1128339233384592 	101371.1380718572
-0.9597097097097099 	300.0409285014649 	0.1183304573946378 	101373.3929857753
-0.9572072072072073 	300.0420722560763 	0.1216092811186642 	101374.7456858247
-0.9547047047047047 	300.0424243585102 	0.1226028255919004 	101375.162096693
-0.9522022022022023 	300.041976995358 	0.1213188816267265 	101374.6330822427
-0.9496996996996998 	300.0407433168219 	0.1177587983747911 	101373.1742894546
-0.9471971971971973 	300.038753079574 	0.1120227796185582 	101370.8207432389
-0.9446946946946947 	300.0360515189518 	0.1042057692555235 	101367.6260572508
-0.9421921921921923 	300.0326821493721 	0.09445136337575566 	101363.6417117873
-0.93968968968969 	300.0287026670665 	0.08296026526628465 	101358.9360528518
-0.9371871871871872 	300.024186959677 	0.06989641962967105 	101353.5965188268
-0.9346846846846848 	300.019219101025 	0.05552795947686266 	101347.7225021458
-0.9321821821821823 	300.0138938051134 	0.04012584516765769 	101341.4261412406
-0.9296796796796799 	300.0083246370177 	0.02400703295560003 	101334.8417070946
-0.9271771771771771 	300.0026217547801 	0.007537081817798288 	101328.0995085769
-0.9246746746746748 	299.9968885974016 	0.01008656912900565 	101321.3218539337
-0.9221721721721724 	299.991210214062 	0.02545346122118362 	101314.609221087
-0.9196696696696698 	299.9856799551446 	0.04141850245203502 	101308.0719994002
-0.9171671671671672 	299.9804004394535 	0.05668894681735563 	101301.8314474446
-0.9146646646646649 	299.9754711242781 	0.07093749777169257 	101296.0050856326
-0.9121621621621623 	299.9709834805514 	0.08390843711868243 	101290.7009907254
-0.9096596596596597 	299.9670383329247 	0.09531245805502447 	101286.0382157774
-0.9071571571571573 	299.9637135871803 	0.1049247038402178 	101282.108781839
-0.9046546546546547 	299.961072548928 	0.1125597077013609 	101278.9874756778
-0.9021521521521524 	299.9591655530122 	0.1180591332368326 	101276.7336845757
-0.8996496496496498 	299.9580230166395 	0.1213581541213754 	101275.383352234
-0.8971471471471473 	299.9576540625411 	0.1223897227322451 	101274.9472982656
-0.894644644644645 	299.9580760309307 	0.1211661250416182 	101275.4459145022
-0.892142142142142 	299.9592745709078 	0.1177069655282509 	101276.8622505986
-0.8896396396396397 	299.9612253056736 	0.1120575977674065 	101279.1675674926
-0.8871371371371374 	299.9638922812252 	0.1043577609747758 	101282.3194041206
-0.8846346346346349 	299.9672219581739 	0.09474632995790359 	101286.2545276446
-0.8821321321321324 	299.9711418302603 	0.08340296454433023 	101290.8873039282
-0.8796296296296297 	299.9755965555927 	0.07053999258065483 	101296.1524299013
-0.8771271271271271 	299.9804887059004 	0.05638732042277547 	101301.9347984227
-0.8746246246246248 	299.9857191307408 	0.04124008689591249 	101308.11728133
-0.8721221221221224 	299.9911795617464 	0.02545221458285798 	101314.5719301289
-0.8696196196196196 	299.9967525486909 	0.009320964561185859 	101321.1599044112
-0.8671171171171175 	300.0023614534273 	0.009452423708873267 	101327.79069786
-0.8646146146146148 	300.0079442438629 	0.02301501199587472 	101334.3909200594
-0.8621121121121121 	300.0134112318295 	0.03883243631572896 	101340.8545633834
-0.8596096096096097 	300.0186645140742 	0.05400516665781493 	101347.065823616
-0.857107107107107 	300.0236001743468 	0.06826560559125194 	101352.901751497
-0.8546046046046049 	300.0281172316172 	0.08131645127262528 	101358.2430104223
-0.8521021021021022 	300.0321304636512 	0.09290663718270292 	101362.988659997
-0.8495995995995997 	300.0355653128552 	0.1028532131315947 	101367.0505368955
-0.8470970970970974 	300.0383553394813 	0.1109125521130995 	101370.3499908533
-0.8445945945945946 	300.0404429287922 	0.1169371435969461 	101372.818755166
-0.8420920920920922 	300.0417730036832 	0.1207631101837463 	101374.3918126984
-0.8395895895895897 	300.0423129226057 	0.1223139151795081 	101375.0303547877
-0.8370870870870872 	300.0420619277892 	0.1215959066404301 	101374.7335601618
-0.8345845845845846 	300.0410334704704 	0.1186103225913167 	101373.5174408755
-0.8320820820820823 	300.0392495860188 	0.1134539826813976 	101371.4079018604
-0.8295795795795798 	300.036739218632 	0.1061791485669465 	101368.4393268705
-0.8270770770770772 	300.0335340965291 	0.09690069215147495 	101364.6491795169
-0.8245745745745746 	300.0296868724232 	0.08579380220711551 	101360.0999002007
-0.8220720720720721 	300.0252746713398 	0.07303201792236587 	101354.8827098209
-0.8195695695695699 	300.0203857246236 	0.05891082728206763 	101349.1019184937
-0.817067067067067 	300.0151248128867 	0.04371004528043267 	101342.8816454096
-0.8145645645645651 	300.0096069158793 	0.02774767200516413 	101336.3577513141
-0.8120620620620621 	300.0039401358981 	0.01137475009418375 	101329.6581810437
-0.8095595595595597 	299.9982234347353 	0.009089416465636838 	101322.8999065488
-0.8070570570570572 	299.9925285067296 	0.02163859915683038 	101316.1676136183
-0.8045545545545546 	299.9869515379714 	0.03773385089801194 	101309.5751410072
-0.8020520520520523 	299.9816054128164 	0.05320907590869321 	101303.2557700754
-0.7995495495495494 	299.9765906973664 	0.06770962390718932 	101297.3284368652
-0.7970470470470474 	299.9720021180766 	0.08097504265242836 	101291.9049920782
-0.7945445445445446 	299.9679365208626 	0.0927092781538543 	101287.099786915
-0.7920420420420423 	299.9644737065341 	0.1026931627176743 	101283.0071886137
-0.7895395395395397 	299.9616847772713 	0.1107585713803972 	101279.7110653157
-0.7870370370370371 	299.9596251900527 	0.1167126054242951 	101277.2769654145
-0.7845345345345348 	299.9583228188491 	0.1204832807032909 	101275.7377210063
-0.7820320320320323 	299.957791164096 	0.1219908346373686 	101275.1093526073
-0.7795295295295296 	299.9580414670622 	0.1212644568929726 	101275.4051416669
-0.7770270270270272 	299.9590608188132 	0.1183400024290765 	101276.6096923664
-0.7745245245245247 	299.9608308089157 	0.1132198450803905 	101278.7014187967
-0.7720220220220222 	299.9633249044555 	0.1060166509355387 	101281.6489315482
-0.7695195195195199 	299.9664943658567 	0.09683235401966914 	101285.3946473078
-0.767017017017017 	299.9702800747892 	0.08586641350854628 	101289.868867112
-0.7645145145145147 	299.9746140948825 	0.07335887632319814 	101294.991253849
-0.7620120120120122 	299.9793977450236 	0.05953127497976878 	101300.6453511871
-0.7595095095095097 	299.9845316069921 	0.0446780545908876 	101306.7136372
-0.7570070070070072 	299.9899168772123 	0.02911416488032629 	101313.0793359228
-0.7545045045045048 	299.9954402369669 	0.01313879761721092 	101319.6086216857
-0.7520020020020022 	300.0010177431252 	0.007967445189154062 	101326.2021784429
-0.7494994994994997 	300.0065874931768 	0.01907592556389354 	101332.7869283748
-0.7469969969969972 	300.012067622089 	0.03493924952954981 	101339.2660407335
-0.7444944944944945 	300.0173616248887 	0.05024057380152602 	101345.5253358392
-0.7419919919919924 	300.0223661698168 	0.06471074861888812 	101351.4427057127
-0.7394894894894897 	300.0269796567209 	0.07804578784387942 	101356.8978793584
-0.7369869869869872 	300.0311176061451 	0.08998834433938761 	101361.7909795029
-0.7344844844844846 	300.0346954211804 	0.1003344396738374 	101366.0219041563
-0.7319819819819822 	300.0376431191431 	0.1088303693394431 	101369.5077395549
-0.7294794794794797 	300.0399002429293 	0.1153327388163703 	101372.177038003
-0.7269769769769773 	300.04141591708 	0.1196977958405146 	101373.9695264613
-0.7244744744744747 	300.0421575672733 	0.1218366990438557 	101374.846666535
-0.721971971971972 	300.0421204097412 	0.1217463532825375 	101374.8027724374
-0.7194694694694695 	300.0412997566947 	0.1193712969262753 	101373.8323368846
-0.7169669669669674 	300.0397100703544 	0.1147921673467845 	101371.9525028963
-0.7144644644644647 	300.0373742026171 	0.1080373645766101 	101369.1902407228
-0.711961961961962 	300.0343253887372 	0.09920030334394885 	101365.5849389405
-0.7094594594594597 	300.0306171091552 	0.0884936047738995 	101361.1999491132
-0.7069569569569573 	300.0263290983181 	0.07605585546608601 	101356.1295226205
-0.7044544544544545 	300.0215402570228 	0.06222060105628977 	101350.4670859259
-0.7019519519519523 	300.0163580246297 	0.04724737733061033 	101344.3397500011
-0.6994494494494495 	300.0108921459653 	0.03143123225552595 	101337.8773167591
-0.6969469469469471 	300.0052532412165 	0.01516037552635129 	101331.2106392008
-0.6944444444444446 	299.9995451568705 	0.007264253425828387 	101324.4624465442
-0.6919419419419421 	299.9938357299757 	0.01784640873179919 	101317.712971224
-0.6894394394394396 	299.9882210794744 	0.03403677950611563 	101311.075854083
-0.6869369369369374 	299.9828155947898 	0.04970561903842827 	101304.6862857802
-0.6844344344344344 	299.9777178708271 	0.06444678391184595 	101298.6607793849
-0.6819319319319321 	299.9730296563716 	0.07802458165472129 	101293.1195047742
-0.6794294294294296 	299.9688491255473 	0.09009251771194891 	101288.1784429093
-0.6769269269269272 	299.9652597546748 	0.1004356234838669 	101283.9362104339
-0.6744244244244245 	299.9623331788835 	0.1089107303534455 	101280.4774274831
-0.6719219219219222 	299.9601224040608 	0.1152915177038431 	101277.8646525493
-0.6694194194194195 	299.9586500059119 	0.1195401454248869 	101276.1244443822
-0.6669169169169172 	299.9579400414564 	0.1215471041277466 	101275.2853517599
-0.6644144144144146 	299.9580071543677 	0.1213348470592703 	101275.364624941
-0.661911911911912 	299.9588478347212 	0.1189394528880076 	101276.3580668279
-0.6594094094094097 	299.9604500037081 	0.1143068484954575 	101278.2514501677
-0.656906906906907 	299.9627899535763 	0.1075741837766807 	101281.0167643402
-0.6544044044044046 	299.9658140614883 	0.09879924214259564 	101284.590691324
-0.6519019019019021 	299.9694695115461 	0.08821021690444288 	101288.9108975481
-0.6493993993993996 	299.9736810389078 	0.07607411657567634 	101293.8885090631
-0.6468968968968971 	299.9783538020764 	0.06255075687416758 	101299.4114846539
-0.6443943943943946 	299.9833916072803 	0.04797566052214598 	101305.3661637852
-0.6418918918918921 	299.988700754308 	0.03261426478133435 	101311.6418348617
-0.6393893893893897 	299.9941651132611 	0.01679068841217878 	101318.1012716904
-0.6368868868868871 	299.9997008015958 	0.005667181007302 	101324.6453551195
-0.6343843843843846 	300.0052435207028 	0.01522083802867179 	101331.1980709043
-0.6318818818818821 	300.0107315044365 	0.03108361192478369 	101337.6863766116
-0.6293793793793795 	300.0160653272454 	0.04648743372457227 	101343.9926975321
-0.6268768768768773 	300.0211362574324 	0.06115666475874191 	101349.9884629737
-0.6243743743743745 	300.0258360267699 	0.07473482974062962 	101355.5457534172
-0.6218718718718721 	300.0300816971041 	0.08699673576056122 	101360.566269334
-0.6193693693693696 	300.0337808377253 	0.09770482938068596 	101364.9404553204
-0.6168668668668671 	300.0368724510781 	0.1066345354899138 	101368.5964134821
-0.6143643643643645 	300.039296326585 	0.1136452476862297 	101371.4628717353
-0.6118618618618621 	300.0410021555044 	0.118548787343 	101373.4802415996
-0.6093593593593596 	300.041948405932 	0.1212701779313891 	101374.5993594384
-0.6068568568568571 	300.042122842888 	0.1217556573680437 	101374.8056951685
-0.6043543543543546 	300.0415017982872 	0.1199480108881014 	101374.0712840863
-0.6018518518518521 	300.0401035458519 	0.1159254425817816 	101372.4178405358
-0.5993493493493496 	300.0379492564866 	0.1096820263552906 	101369.8703093594
-0.5968468468468471 	300.0350759846356 	0.1013564577282196 	101366.4725933729
-0.5943443443443446 	300.0315282154439 	0.09112532654133737 	101362.2773574709
-0.591841841841842 	300.0273805163754 	0.07910799155298208 	101357.3728050784
-0.5893393393393397 	300.0226992237945 	0.06562318435719119 	101351.8374951399
-0.5868368368368371 	300.0176014063129 	0.05088097839893328 	101345.8099031151
-0.5843343343343346 	300.0121915244821 	0.03521508884668348 	101339.4136235127
-0.5818318318318321 	300.0065846327655 	0.01901850975733485 	101332.7847126282
-0.5793293293293297 	300.0008857505421 	0.004564346404974863 	101326.0473122467
-0.5768268268268271 	299.9951644120119 	0.01401490206544817 	101319.283695223
-0.5743243243243245 	299.9895148684873 	0.03032595708445597 	101312.6052520011
-0.5718218218218221 	299.9840519569893 	0.04616624731596657 	101306.1477451524
-0.5693193193193196 	299.9788762303104 	0.0611059073970641 	101300.029979499
-0.5668168168168171 	299.9740950989419 	0.07493540040726593 	101294.3788131216
-0.5643143143143147 	299.9698036401804 	0.08729625819498502 	101289.3066177057
-0.5618118118118121 	299.9660868021201 	0.09801014565682181 	101284.9137060629
-0.5593093093093094 	299.9630153478099 	0.1069241759718019 	101281.28368464
-0.5568068068068072 	299.9606446135278 	0.1137721455428436 	101278.4818659916
-0.5543043043043046 	299.959004384044 	0.1185261245544999 	101276.5433036768
-0.551801801801802 	299.958128208942 	0.1210340564975313 	101275.5077610531
-0.5492992992992995 	299.9580255045564 	0.1213233914585686 	101275.3863624433
-0.5467967967967969 	299.9586941164213 	0.1194272683750477 	101276.1764652667
-0.5442942942942947 	299.9601230531855 	0.1152626752813381 	101277.8651251292
-0.5417917917917919 	299.9622953944186 	0.1089956736172289 	101280.4323363767
-0.5392892892892895 	299.9651639868333 	0.1006470173852145 	101283.8224532084
-0.536786786786787 	299.968682400069 	0.09045759972793177 	101287.9806804278
-0.5342842842842846 	299.9727675596092 	0.07869948287211476 	101292.8089047885
-0.531781781781782 	299.9773294472494 	0.06549838531017281 	101298.2007862553
-0.5292792792792794 	299.9822726358319 	0.05123286432771786 	101304.0435650965
-0.526776776776777 	299.9875063889801 	0.03610789643924684 	101310.2300433763
-0.5242742742742745 	299.9929143799311 	0.02044893898924362 	101316.6227910281
-0.521771771771772 	299.9984118744006 	0.004590961172989715 	101323.1216567014
-0.5192692692692695 	300.0039234937705 	0.01194815396006336 	101329.6375269513
-0.516766766766767 	300.0094114607043 	0.02727437209846259 	101336.1257398566
-0.5142642642642645 	300.0147707448011 	0.04275749204416309 	101342.4620782744
-0.511761761761762 	300.0198893850704 	0.05759384143333158 	101348.5142073791
-0.5092592592592596 	300.0246646873628 	0.07137320993910153 	101354.1606296194
-0.506756756756757 	300.0290161209942 	0.08393265685947421 	101359.3060694176
-0.5042542542542544 	300.0328470675709 	0.09498342416071763 	101363.8362381963
-0.5017517517517521 	300.0360980456219 	0.1043402185775712 	101367.6806513251
-0.4992492492492494 	300.0386949280211 	0.1118687775647776 	101370.7517030872
-0.496746746746747 	300.0405838484583 	0.1173201682947467 	101372.9855826715
-0.4942442442442445 	300.0417241777682 	0.1206333395654229 	101374.3342067651
-0.4917417417417421 	300.0420960970038 	0.1216914775455649 	101374.7741234628
-0.4892392392392395 	300.0416671041844 	0.1204558985406479 	101374.2667650284
-0.486736736736737 	300.0404583888725 	0.1169890260865779 	101372.8374932072
-0.4842342342342345 	300.0384835255659 	0.111249110691113 	101370.5021443525
-0.481731731731732 	300.0357816563792 	0.1034063423813436 	101367.3070942034
-0.4792292292292296 	300.0323961659931 	0.0936012243524447 	101363.3037553548
-0.4767267267267268 	300.0283898368014 	0.08197318708418813 	101358.566311271
-0.4742242242242246 	300.0238221368404 	0.0688378029086265 	101353.1652815331
-0.471721721721722 	300.0188147883751 	0.05435713976944229 	101347.244607708
-0.4692192192192195 	300.013462765577 	0.03888516368471234 	101340.9166625612
-0.4667167167167169 	300.0078848333466 	0.02279621536604401 	101334.3219432046
-0.4642142142142145 	300.0021935099708 	0.006305369023421283 	101327.5933846893
-0.461711711711712 	299.9964668464233 	0.01140429753311852 	101320.8234051059
-0.4592092092092094 	299.9907941387318 	0.02660457638882135 	101314.1175191664
-0.456706706706707 	299.9852901599399 	0.04259020687513942 	101307.6113908321
-0.4542042042042045 	299.9800542324965 	0.05772819267404014 	101301.4224226022
-0.451701701701702 	299.9751921756413 	0.07180782618914854 	101295.6755378112
-0.4491991991991995 	299.9707985873029 	0.0844583935143654 	101290.4825919912
-0.4466966966966969 	299.966956250105 	0.09553034472224974 	101285.9413330776
-0.4441941941941945 	299.9637370958664 	0.1048517777935899 	101282.136724444
-0.441691691691692 	299.961203442527 	0.1121504454213645 	101279.1423579151
-0.4391891891891895 	299.95939369589 	0.1173804409751656 	101277.003463181
-0.436686686686687 	299.9583495576115 	0.1203561312693163 	101275.7693892123
-0.4341841841841846 	299.9580859046762 	0.1211290292946319 	101275.4577974094
-0.431681681681682 	299.958594039619 	0.1197176498513873 	101276.0582591665
-0.4291791791791794 	299.9598595863794 	0.1160539934567173 	101277.5538170069
-0.426676676676677 	299.9618625766163 	0.1102937248170801 	101279.9208792111
-0.4241741741741744 	299.9645608296677 	0.1024412890427628 	101283.109680604
-0.421671671671672 	299.9679149700328 	0.09271907650476943 	101287.0737246491
-0.4191691691691694 	299.9718538161769 	0.08136065309546231 	101291.7289891622
-0.4166666666666669 	299.9762900980109 	0.06849971455084902 	101296.9723595058
-0.4141641641641645 	299.9811377072134 	0.05449725531610406 	101302.7021073302
-0.411661661661662 	299.9862993991833 	0.03957055340550276 	101308.8033601623
-0.4091591591591594 	299.9916606524673 	0.02406302339586069 	101315.1407785935
-0.406656656656657 	299.9971255800573 	0.008313081263319567 	101321.601082818
-0.4041541541541545 	300.0026130496194 	0.009469724778978283 	101328.0883284397
-0.401651651651652 	300.0080972657951 	0.02341960663134007 	101334.5720273493
-0.3991491491491494 	300.0134710600659 	0.03893667198335873 	101340.9254652406
-0.396646646646647 	300.0186256464264 	0.05390210715920705 	101347.0200113399
-0.3941441441441444 	300.023468139347 	0.06789679540409573 	101352.7458274273
-0.3916416416416419 	300.0279109102042 	0.08075944871215536 	101357.9992202215
-0.3891391391391395 	300.0318637940907 	0.09217512345924692 	101362.6735234179
-0.3866366366366368 	300.0352636482245 	0.1019619382789115 	101366.6939739047
-0.3841341341341344 	300.0380312590818 	0.1099875223839644 	101369.966884364
-0.381631631631632 	300.040111804725 	0.1159666462433269 	101372.4273742905
-0.3791291291291294 	300.0414605956809 	0.1198347452385676 	101374.0225265912
-0.3766266266266269 	300.042033430418 	0.121444362835258 	101374.7000479652
-0.3741241241241244 	300.0417990561189 	0.1207639690127288 	101374.4228386044
-0.371621621621622 	300.0407760824515 	0.1178623887575974 	101373.2132007529
-0.3691191191191194 	300.0389770074941 	0.1126628799332937 	101371.0857522251
-0.366616616616617 	300.036441697872 	0.105347977848914 	101368.08766188
-0.3641141141141143 	300.0332141495823 	0.09599836186997408 	101364.2710494921
-0.3616116116116119 	300.0293460903651 	0.08478511835752348 	101359.6970950126
-0.3591091091091095 	300.0249074333609 	0.07202064722240138 	101354.4485997089
-0.356606606606607 	300.020008179278 	0.05780110081089733 	101348.6556892349
-0.3541041041041044 	300.0147335534668 	0.04253345753198895 	101342.419200116
-0.3516016016016019 	300.0091997104598 	0.02653464442365598 	101335.8765166881
-0.3490990990990994 	300.0035216709759 	0.01008028385767795 	101329.1636072071
-0.346596596596597 	299.9977901879794 	0.00857037970330608 	101322.3878562248
-0.3440940940940944 	299.992093577318 	0.02286653390069496 	101315.6536316179
-0.3415915915915919 	299.9865395284278 	0.03894360519442008 	101309.0882665726
-0.3390890890890895 	299.9812346210471 	0.05425659307051649 	101302.8176824052
-0.3365865865865869 	299.9762884911818 	0.06857813547774425 	101296.9713798677
-0.3340840840840844 	299.9717995882332 	0.08151853536455925 	101291.6657482605
-0.3315815815815819 	299.9678412533877 	0.09296512849701295 	101286.9873346941
-0.3290790790790794 	299.9644874619161 	0.1027065667001658 	101283.0236052139
-0.3265765765765769 	299.9617968858748 	0.110475694641295 	101279.8437550801
-0.3240740740740744 	299.9598193319931 	0.1161993806652128 	101277.5065540341
-0.3215715715715718 	299.9586013018657 	0.1196484307326682 	101276.0669604365
-0.3190690690690695 	299.9581656950202 	0.1208925560344666 	101275.5521262612
-0.3165665665665668 	299.9585032053851 	0.1199285953081132 	101275.9509869741
-0.3140640640640644 	299.9596113490369 	0.1167073839067722 	101277.2605142065
-0.311561561561562 	299.9614589564998 	0.1114117378038392 	101279.4439273886
-0.3090590590590593 	299.964003742486 	0.1040139369115919 	101282.4513695677
-0.3065565565565568 	299.9672030145134 	0.09476721036760243 	101286.2323250096
-0.3040540540540545 	299.9709997075702 	0.08385013115722874 	101290.7195875943
-0.3015515515515518 	299.975307898845 	0.07136320431920462 	101295.8114967177
-0.2990490490490494 	299.9800555337131 	0.05767143062414017 	101301.4230183673
-0.2965465465465469 	299.9851312172594 	0.04294917027584661 	101307.4225751337
-0.2940440440440444 	299.990428774295 	0.02759423710516791 	101313.6845938781
-0.2915415415415418 	299.9958457369869 	0.01195360531566499 	101320.0881751082
-0.2890390390390395 	300.0012992516836 	0.006224735232898709 	101326.5351756212