/*--------------------------------*- C++ -*----------------------------------*\
  =========                 |
  \\      /  F ield         | OpenFOAM: The Open Source CFD Toolbox
   \\    /   O peration     | Website:  https://openfoam.org
    \\  /    A nd           | Version:  7
     \\/     M anipulation  |
\*---------------------------------------------------------------------------*/
FoamFile
{
    version     2.0;
    format      ascii;
    class       volScalarField;
    location    "0.0024";
    object      T;
}
// * * * * * * * * * * * * * * * * * * * * * * * * * * * * * * * * * * * * * //

dimensions      [0 0 0 1 0 0 0];

internalField   nonuniform List<scalar> 
5000
(
277.9364
277.93641
277.93635
277.93628
277.93623
277.93619
277.93616
277.93614
277.93613
277.93612
277.93611
277.93611
277.9361
277.9361
277.9361
277.9361
277.9361
277.9361
277.9361
277.9361
277.9361
277.9361
277.9361
277.9361
277.9361
277.9361
277.93611
277.93611
277.93611
277.93611
277.93611
277.93611
277.93611
277.93611
277.93611
277.93611
277.93611
277.93611
277.93611
277.93612
277.93612
277.93612
277.93612
277.93612
277.93612
277.93612
277.93612
277.93612
277.93612
277.93612
277.93612
277.93613
277.93613
277.93613
277.93613
277.93613
277.93613
277.93613
277.93613
277.93613
277.93613
277.93614
277.93614
277.93614
277.93614
277.93614
277.93614
277.93614
277.93614
277.93614
277.93614
277.93615
277.93615
277.93615
277.93615
277.93615
277.93615
277.93615
277.93615
277.93615
277.93616
277.93616
277.93616
277.93616
277.93616
277.93616
277.93616
277.93616
277.93616
277.93616
277.93617
277.93617
277.93617
277.93617
277.93617
277.93617
277.93617
277.93617
277.93617
277.93618
277.93618
277.93618
277.93618
277.93618
277.93618
277.93618
277.93618
277.93618
277.93619
277.93619
277.93619
277.93619
277.93619
277.93619
277.93619
277.93619
277.93619
277.9362
277.9362
277.9362
277.9362
277.9362
277.9362
277.9362
277.9362
277.9362
277.93621
277.93621
277.93621
277.93621
277.93621
277.93621
277.93621
277.93621
277.93621
277.93621
277.93622
277.93622
277.93622
277.93622
277.93622
277.93622
277.93622
277.93622
277.93622
277.93622
277.93622
277.93623
277.93623
277.93623
277.93623
277.93623
277.93623
277.93623
277.93623
277.93623
277.93623
277.93624
277.93624
277.93624
277.93624
277.93624
277.93624
277.93624
277.93624
277.93624
277.93624
277.93624
277.93625
277.93625
277.93625
277.93625
277.93625
277.93625
277.93625
277.93625
277.93625
277.93625
277.93625
277.93625
277.93625
277.93626
277.93626
277.93626
277.93626
277.93626
277.93626
277.93626
277.93626
277.93626
277.93626
277.93626
277.93626
277.93626
277.93626
277.93626
277.93627
277.93627
277.93627
277.93627
277.93627
277.93627
277.93627
277.93627
277.93627
277.93627
277.93627
277.93627
277.93627
277.93627
277.93627
277.93628
277.93628
277.93628
277.93628
277.93628
277.93628
277.93628
277.93628
277.93628
277.93628
277.93628
277.93628
277.93628
277.93628
277.93628
277.93628
277.93628
277.93628
277.93629
277.93629
277.93629
277.93629
277.93629
277.93629
277.93629
277.93629
277.93629
277.93629
277.93629
277.93629
277.93629
277.93629
277.93629
277.93629
277.93629
277.93629
277.93629
277.93629
277.9363
277.9363
277.9363
277.9363
277.9363
277.9363
277.9363
277.9363
277.9363
277.9363
277.9363
277.9363
277.9363
277.9363
277.9363
277.9363
277.9363
277.9363
277.9363
277.9363
277.9363
277.9363
277.93631
277.93631
277.93631
277.93631
277.93631
277.93631
277.93631
277.93631
277.93631
277.93631
277.93631
277.93631
277.93631
277.93631
277.93631
277.93631
277.93631
277.93631
277.93631
277.93631
277.93631
277.93631
277.93632
277.93632
277.93632
277.93632
277.93632
277.93632
277.93632
277.93632
277.93632
277.93632
277.93632
277.93632
277.93632
277.93632
277.93632
277.93632
277.93632
277.93632
277.93632
277.93632
277.93632
277.93632
277.93632
277.93633
277.93633
277.93633
277.93633
277.93633
277.93633
277.93633
277.93633
277.93633
277.93633
277.93633
277.93633
277.93633
277.93633
277.93633
277.93633
277.93633
277.93633
277.93633
277.93633
277.93633
277.93634
277.93634
277.93634
277.93634
277.93634
277.93634
277.93634
277.93634
277.93634
277.93634
277.93634
277.93634
277.93634
277.93634
277.93634
277.93634
277.93634
277.93634
277.93634
277.93634
277.93635
277.93635
277.93635
277.93635
277.93635
277.93635
277.93635
277.93635
277.93635
277.93635
277.93635
277.93635
277.93635
277.93635
277.93635
277.93635
277.93635
277.93635
277.93635
277.93635
277.93636
277.93636
277.93636
277.93636
277.93636
277.93636
277.93636
277.93636
277.93636
277.93636
277.93636
277.93636
277.93636
277.93636
277.93636
277.93636
277.93636
277.93636
277.93637
277.93637
277.93637
277.93637
277.93637
277.93637
277.93637
277.93637
277.93637
277.93637
277.93637
277.93637
277.93637
277.93637
277.93637
277.93637
277.93637
277.93637
277.93638
277.93638
277.93638
277.93638
277.93638
277.93638
277.93638
277.93638
277.93638
277.93638
277.93638
277.93638
277.93638
277.93638
277.93638
277.93638
277.93639
277.93639
277.93639
277.93639
277.93639
277.93639
277.93639
277.93639
277.93639
277.93639
277.93639
277.93639
277.93639
277.93639
277.93639
277.9364
277.9364
277.9364
277.9364
277.9364
277.9364
277.9364
277.9364
277.9364
277.9364
277.9364
277.9364
277.9364
277.9364
277.93641
277.93641
277.93641
277.93641
277.93641
277.93641
277.93641
277.93641
277.93641
277.93641
277.93641
277.93641
277.93641
277.93641
277.93642
277.93642
277.93642
277.93642
277.93642
277.93642
277.93642
277.93642
277.93642
277.93642
277.93642
277.93642
277.93642
277.93643
277.93643
277.93643
277.93643
277.93643
277.93643
277.93643
277.93643
277.93643
277.93643
277.93643
277.93643
277.93643
277.93644
277.93644
277.93644
277.93644
277.93644
277.93644
277.93644
277.93644
277.93644
277.93644
277.93644
277.93644
277.93645
277.93645
277.93645
277.93645
277.93645
277.93645
277.93645
277.93645
277.93645
277.93645
277.93645
277.93645
277.93645
277.93646
277.93646
277.93646
277.93646
277.93646
277.93646
277.93646
277.93646
277.93646
277.93646
277.93646
277.93647
277.93647
277.93647
277.93647
277.93647
277.93647
277.93647
277.93647
277.93647
277.93647
277.93648
277.93648
277.93648
277.93648
277.93648
277.93648
277.93648
277.93648
277.93648
277.93648
277.93648
277.93648
277.93649
277.93649
277.93649
277.93649
277.93649
277.93649
277.93649
277.93649
277.93649
277.93649
277.93649
277.9365
277.9365
277.9365
277.9365
277.9365
277.9365
277.9365
277.9365
277.9365
277.9365
277.93651
277.93651
277.93651
277.93651
277.93651
277.93651
277.93651
277.93651
277.93651
277.93651
277.93652
277.93652
277.93652
277.93652
277.93652
277.93652
277.93652
277.93652
277.93652
277.93652
277.93652
277.93653
277.93653
277.93653
277.93653
277.93653
277.93653
277.93653
277.93653
277.93653
277.93654
277.93654
277.93654
277.93654
277.93654
277.93654
277.93654
277.93654
277.93654
277.93655
277.93655
277.93655
277.93655
277.93655
277.93655
277.93655
277.93655
277.93655
277.93655
277.93655
277.93656
277.93656
277.93656
277.93656
277.93656
277.93656
277.93656
277.93656
277.93656
277.93657
277.93657
277.93657
277.93657
277.93657
277.93657
277.93657
277.93658
277.93658
277.93658
277.93658
277.93658
277.93658
277.93658
277.93658
277.93658
277.93659
277.93659
277.93659
277.93659
277.93659
277.93659
277.93659
277.93659
277.9366
277.9366
277.9366
277.9366
277.9366
277.9366
277.9366
277.9366
277.9366
277.93661
277.93661
277.93661
277.93661
277.93661
277.93661
277.93661
277.93662
277.93662
277.93662
277.93662
277.93662
277.93662
277.93662
277.93662
277.93663
277.93663
277.93663
277.93663
277.93663
277.93663
277.93664
277.93664
277.93664
277.93664
277.93664
277.93664
277.93664
277.93665
277.93665
277.93665
277.93665
277.93665
277.93665
277.93666
277.93666
277.93666
277.93666
277.93666
277.93666
277.93666
277.93667
277.93667
277.93667
277.93667
277.93667
277.93667
277.93668
277.93668
277.93668
277.93668
277.93668
277.93669
277.93669
277.93669
277.93669
277.93669
277.93669
277.93669
277.9367
277.9367
277.9367
277.9367
277.9367
277.9367
277.93671
277.93671
277.93671
277.93671
277.93672
277.93672
277.93672
277.93672
277.93673
277.93673
277.93673
277.93673
277.93673
277.93673
277.93674
277.93674
277.93674
277.93674
277.93674
277.93675
277.93675
277.93675
277.93675
277.93676
277.93676
277.93676
277.93676
277.93677
277.93677
277.93677
277.93677
277.93677
277.93678
277.93678
277.93678
277.93678
277.93679
277.93679
277.93679
277.93679
277.9368
277.9368
277.9368
277.9368
277.93681
277.93681
277.93681
277.93681
277.93682
277.93682
277.93682
277.93683
277.93683
277.93683
277.93683
277.93684
277.93684
277.93684
277.93684
277.93685
277.93685
277.93685
277.93686
277.93686
277.93686
277.93686
277.93687
277.93687
277.93687
277.93688
277.93688
277.93688
277.93688
277.93689
277.93689
277.93689
277.9369
277.9369
277.93691
277.93691
277.93691
277.93692
277.93692
277.93692
277.93693
277.93693
277.93693
277.93693
277.93694
277.93694
277.93694
277.93695
277.93695
277.93696
277.93696
277.93696
277.93697
277.93697
277.93698
277.93698
277.93698
277.93699
277.93699
277.937
277.937
277.937
277.93701
277.93701
277.93701
277.93702
277.93702
277.93703
277.93703
277.93703
277.93704
277.93704
277.93705
277.93705
277.93706
277.93706
277.93706
277.93707
277.93707
277.93708
277.93708
277.93708
277.93709
277.93709
277.9371
277.9371
277.93711
277.93711
277.93712
277.93712
277.93713
277.93713
277.93714
277.93714
277.93714
277.93715
277.93715
277.93716
277.93716
277.93717
277.93717
277.93718
277.93719
277.93719
277.9372
277.9372
277.93721
277.93721
277.93722
277.93722
277.93723
277.93723
277.93724
277.93724
277.93725
277.93725
277.93726
277.93726
277.93727
277.93727
277.93728
277.93728
277.93729
277.9373
277.9373
277.93731
277.93731
277.93732
277.93733
277.93733
277.93734
277.93734
277.93735
277.93736
277.93736
277.93737
277.93737
277.93738
277.93739
277.93739
277.9374
277.93741
277.93741
277.93742
277.93743
277.93743
277.93744
277.93745
277.93745
277.93746
277.93747
277.93747
277.93748
277.93749
277.9375
277.9375
277.93751
277.93752
277.93753
277.93753
277.93754
277.93755
277.93756
277.93756
277.93757
277.93758
277.93759
277.93759
277.9376
277.93761
277.93762
277.93762
277.93763
277.93764
277.93765
277.93765
277.93766
277.93767
277.93768
277.93769
277.9377
277.93771
277.93772
277.93773
277.93773
277.93774
277.93775
277.93776
277.93777
277.93778
277.93779
277.9378
277.93781
277.93782
277.93783
277.93784
277.93785
277.93786
277.93787
277.93788
277.93789
277.9379
277.93791
277.93792
277.93793
277.93794
277.93795
277.93797
277.93798
277.93799
277.938
277.93801
277.93803
277.93804
277.93805
277.93806
277.93808
277.93809
277.9381
277.93812
277.93813
277.93815
277.93816
277.93817
277.93819
277.9382
277.93822
277.93823
277.93825
277.93827
277.93828
277.9383
277.93832
277.93834
277.93835
277.93837
277.93839
277.93841
277.93843
277.93845
277.93847
277.93849
277.93851
277.93853
277.93855
277.93858
277.9386
277.93863
277.93865
277.93868
277.9387
277.93873
277.93875
277.93878
277.93881
277.93884
277.93887
277.9389
277.93893
277.93896
277.939
277.93903
277.93906
277.9391
277.93914
277.93918
277.93921
277.93925
277.9393
277.93934
277.93938
277.93943
277.93947
277.93952
277.93957
277.93962
277.93967
277.93973
277.93978
277.93984
277.9399
277.93996
277.94002
277.94008
277.94015
277.94022
277.94029
277.94036
277.94043
277.94051
277.94059
277.94067
277.94075
277.94084
277.94093
277.94102
277.94112
277.94121
277.94131
277.94142
277.94152
277.94163
277.94174
277.94186
277.94198
277.9421
277.94223
277.94236
277.9425
277.94264
277.94278
277.94293
277.94308
277.94324
277.9434
277.94357
277.94374
277.94392
277.9441
277.94428
277.94448
277.94467
277.94488
277.94509
277.9453
277.94553
277.94576
277.94599
277.94623
277.94648
277.94674
277.94701
277.94728
277.94756
277.94785
277.94814
277.94845
277.94876
277.94908
277.94941
277.94975
277.9501
277.95046
277.95083
277.95121
277.9516
277.952
277.95241
277.95283
277.95326
277.95371
277.95416
277.95463
277.95511
277.95561
277.95611
277.95663
277.95717
277.95771
277.95827
277.95885
277.95944
277.96005
277.96067
277.9613
277.96195
277.96262
277.96331
277.96401
277.96473
277.96547
277.96622
277.967
277.96779
277.9686
277.96943
277.97028
277.97116
277.97205
277.97296
277.97389
277.97485
277.97582
277.97682
277.97784
277.97889
277.97996
277.98105
277.98216
277.98331
277.98447
277.98567
277.98689
277.98813
277.9894
277.9907
277.99203
277.99339
277.99477
277.99618
277.99763
277.9991
278.0006
278.00213
278.0037
278.0053
278.00692
278.00859
278.01028
278.01201
278.01377
278.01557
278.0174
278.01927
278.02117
278.02311
278.02508
278.02709
278.02914
278.03123
278.03336
278.03553
278.03773
278.03998
278.04226
278.04459
278.04696
278.04937
278.05182
278.05432
278.05685
278.05944
278.06206
278.06473
278.06745
278.07021
278.07301
278.07587
278.07877
278.08171
278.08471
278.08775
278.09084
278.09398
278.09717
278.10041
278.1037
278.10704
278.11043
278.11387
278.11737
278.12091
278.12451
278.12816
278.13187
278.13563
278.13944
278.14331
278.14723
278.15121
278.15525
278.15933
278.16348
278.16768
278.17194
278.17626
278.18063
278.18507
278.18956
278.19411
278.19872
278.20338
278.20811
278.2129
278.21775
278.22265
278.22762
278.23265
278.23774
278.24289
278.24811
278.25338
278.25872
278.26412
278.26958
278.27511
278.2807
278.28635
278.29206
278.29784
278.30368
278.30959
278.31556
278.32159
278.32769
278.33385
278.34008
278.34637
278.35273
278.35915
278.36564
278.37219
278.37881
278.38549
278.39224
278.39905
278.40593
278.41288
278.41989
278.42697
278.43411
278.44132
278.44859
278.45593
278.46334
278.47081
278.47834
278.48595
278.49362
278.50135
278.50915
278.51702
278.52495
278.53295
278.54101
278.54914
278.55733
278.56559
278.57391
278.5823
278.59076
278.59928
278.60786
278.61651
278.62522
278.634
278.64285
278.65175
278.66072
278.66976
278.67886
278.68802
278.69725
278.70653
278.71589
278.7253
278.73478
278.74432
278.75392
278.76359
278.77332
278.7831
278.79295
278.80287
278.81284
278.82287
278.83297
278.84312
278.85333
278.86361
278.87394
278.88434
278.89479
278.9053
278.91587
278.9265
278.93719
278.94794
278.95874
278.9696
278.98052
278.9915
279.00253
279.01361
279.02476
279.03596
279.04721
279.05852
279.06988
279.0813
279.09277
279.1043
279.11588
279.12751
279.1392
279.15094
279.16273
279.17457
279.18647
279.19841
279.21041
279.22246
279.23455
279.2467
279.2589
279.27115
279.28344
279.29579
279.30818
279.32062
279.33311
279.34564
279.35822
279.37085
279.38353
279.39625
279.40902
279.42183
279.43468
279.44759
279.46053
279.47352
279.48655
279.49963
279.51275
279.52591
279.53911
279.55236
279.56564
279.57897
279.59234
279.60575
279.6192
279.63269
279.64621
279.65978
279.67338
279.68703
279.70071
279.71442
279.72818
279.74197
279.7558
279.76966
279.78356
279.7975
279.81147
279.82547
279.83951
279.85359
279.8677
279.88184
279.89601
279.91022
279.92446
279.93873
279.95303
279.96736
279.98172
279.99612
280.01054
280.025
280.03948
280.054
280.06854
280.08311
280.09771
280.11233
280.12699
280.14167
280.15638
280.17111
280.18587
280.20066
280.21547
280.23031
280.24517
280.26005
280.27496
280.2899
280.30486
280.31984
280.33484
280.34987
280.36491
280.37998
280.39507
280.41019
280.42532
280.44047
280.45565
280.47084
280.48605
280.50128
280.51654
280.53181
280.54709
280.5624
280.57772
280.59306
280.60842
280.6238
280.63919
280.6546
280.67002
280.68546
280.70091
280.71638
280.73186
280.74736
280.76287
280.7784
280.79393
280.80949
280.82505
280.84063
280.85621
280.87181
280.88743
280.90305
280.91868
280.93433
280.94998
280.96565
280.98132
280.99701
281.0127
281.0284
281.04411
281.05983
281.07556
281.09129
281.10703
281.12278
281.13854
281.1543
281.17007
281.18584
281.20162
281.21741
281.2332
281.249
281.2648
281.2806
281.29641
281.31222
281.32803
281.34385
281.35967
281.37549
281.39132
281.40715
281.42298
281.43881
281.45464
281.47047
281.4863
281.50214
281.51797
281.5338
281.54964
281.56547
281.5813
281.59713
281.61295
281.62878
281.6446
281.66042
281.67624
281.69206
281.70787
281.72368
281.73948
281.75528
281.77108
281.78687
281.80265
281.81843
281.83421
281.84998
281.86574
281.8815
281.89725
281.913
281.92873
281.94446
281.96019
281.9759
281.99161
282.0073
282.02299
282.03867
282.05434
282.07
282.08565
282.10129
282.11692
282.13254
282.14815
282.16375
282.17933
282.19491
282.21047
282.22602
282.24156
282.25708
282.27259
282.28809
282.30358
282.31905
282.3345
282.34995
282.36537
282.38079
282.39618
282.41156
282.42693
282.44228
282.45761
282.47293
282.48823
282.50351
282.51878
282.53403
282.54926
282.56447
282.57966
282.59483
282.60999
282.62513
282.64024
282.65534
282.67042
282.68547
282.70051
282.71552
282.73051
282.74549
282.76044
282.77536
282.79027
282.80515
282.82001
282.83485
282.84966
282.86445
282.87922
282.89396
282.90868
282.92337
282.93804
282.95268
282.96729
282.98189
282.99645
283.01099
283.0255
283.03999
283.05444
283.06887
283.08328
283.09765
283.112
283.12631
283.1406
283.15486
283.16909
283.18329
283.19746
283.2116
283.22571
283.23978
283.25383
283.26785
283.28183
283.29578
283.3097
283.32359
283.33745
283.35127
283.36506
283.37881
283.39254
283.40622
283.41988
283.43349
283.44708
283.46063
283.47414
283.48762
283.50106
283.51446
283.52783
283.54117
283.55446
283.56772
283.58094
283.59412
283.60727
283.62037
283.63344
283.64647
283.65946
283.67241
283.68532
283.69819
283.71102
283.72381
283.73656
283.74927
283.76194
283.77456
283.78715
283.79969
283.81219
283.82465
283.83706
283.84943
283.86176
283.87405
283.88629
283.89849
283.91064
283.92275
283.93482
283.94683
283.95881
283.97074
283.98262
283.99446
284.00625
284.018
284.02969
284.04135
284.05295
284.06451
284.07602
284.08748
284.0989
284.11026
284.12158
284.13285
284.14407
284.15524
284.16636
284.17744
284.18846
284.19943
284.21036
284.22123
284.23206
284.24283
284.25355
284.26422
284.27484
284.28541
284.29593
284.30639
284.31681
284.32717
284.33748
284.34774
284.35794
284.36809
284.37819
284.38824
284.39823
284.40817
284.41805
284.42789
284.43766
284.44739
284.45706
284.46668
284.47624
284.48574
284.4952
284.50459
284.51394
284.52323
284.53246
284.54164
284.55076
284.55983
284.56884
284.57779
284.58669
284.59554
284.60433
284.61306
284.62174
284.63036
284.63892
284.64743
284.65588
284.66428
284.67262
284.6809
284.68912
284.69729
284.70541
284.71346
284.72146
284.72941
284.73729
284.74512
284.7529
284.76061
284.76827
284.77588
284.78342
284.79091
284.79834
284.80572
284.81304
284.8203
284.8275
284.83465
284.84175
284.84878
284.85576
284.86268
284.86955
284.87636
284.88311
284.88981
284.89645
284.90303
284.90956
284.91604
284.92245
284.92881
284.93512
284.94137
284.94756
284.9537
284.95979
284.96581
284.97179
284.97771
284.98357
284.98938
284.99513
285.00083
285.00648
285.01207
285.01761
285.02309
285.02852
285.0339
285.03922
285.04449
285.04971
285.05488
285.05999
285.06505
285.07006
285.07501
285.07992
285.08477
285.08957
285.09432
285.09902
285.10367
285.10827
285.11282
285.11731
285.12176
285.12616
285.13051
285.13481
285.13906
285.14326
285.14742
285.15152
285.15558
285.15959
285.16356
285.16747
285.17134
285.17517
285.17894
285.18267
285.18636
285.19
285.19359
285.19715
285.20065
285.20411
285.20753
285.21091
285.21424
285.21753
285.22077
285.22397
285.22714
285.23025
285.23333
285.23637
285.23937
285.24232
285.24524
285.24811
285.25095
285.25375
285.2565
285.25922
285.26191
285.26455
285.26715
285.26972
285.27225
285.27475
285.27721
285.27963
285.28202
285.28437
285.28669
285.28897
285.29122
285.29343
285.29561
285.29776
285.29987
285.30196
285.30401
285.30602
285.30801
285.30997
285.31189
285.31378
285.31565
285.31748
285.31929
285.32106
285.32281
285.32452
285.32621
285.32787
285.32951
285.33111
285.33269
285.33424
285.33577
285.33727
285.33874
285.34019
285.34162
285.34302
285.34439
285.34574
285.34707
285.34838
285.34966
285.35091
285.35215
285.35336
285.35455
285.35572
285.35687
285.358
285.3591
285.36019
285.36125
285.3623
285.36332
285.36433
285.36532
285.36629
285.36724
285.36817
285.36908
285.36998
285.37086
285.37172
285.37257
285.37339
285.37421
285.375
285.37578
285.37655
285.3773
285.37803
285.37875
285.37945
285.38014
285.38082
285.38148
285.38213
285.38276
285.38339
285.38399
285.38459
285.38517
285.38574
285.3863
285.38685
285.38739
285.38791
285.38842
285.38892
285.38941
285.38989
285.39036
285.39082
285.39127
285.39171
285.39214
285.39256
285.39297
285.39337
285.39376
285.39415
285.39452
285.39489
285.39525
285.3956
285.39594
285.39627
285.3966
285.39692
285.39723
285.39753
285.39783
285.39812
285.3984
285.39868
285.39895
285.39921
285.39947
285.39972
285.39996
285.4002
285.40043
285.40066
285.40088
285.4011
285.40131
285.40151
285.40172
285.40191
285.4021
285.40229
285.40247
285.40265
285.40282
285.40299
285.40316
285.40332
285.40347
285.40363
285.40377
285.40392
285.40406
285.4042
285.40433
285.40446
285.40459
285.40471
285.40483
285.40495
285.40506
285.40517
285.40528
285.40539
285.40549
285.40559
285.40569
285.40578
285.40588
285.40597
285.40605
285.40614
285.40622
285.4063
285.40638
285.40646
285.40654
285.40661
285.40668
285.40675
285.40682
285.40688
285.40695
285.40701
285.40707
285.40713
285.40718
285.40724
285.40729
285.40735
285.4074
285.40745
285.40749
285.40754
285.40759
285.40763
285.40768
285.40772
285.40776
285.4078
285.40784
285.40788
285.40791
285.40795
285.40799
285.40802
285.40805
285.40809
285.40812
285.40815
285.40818
285.40821
285.40824
285.40826
285.40829
285.40832
285.40834
285.40837
285.40839
285.40842
285.40844
285.40846
285.40849
285.40851
285.40853
285.40855
285.40857
285.40859
285.40861
285.40863
285.40864
285.40866
285.40868
285.4087
285.40871
285.40873
285.40875
285.40876
285.40878
285.40879
285.40881
285.40882
285.40883
285.40885
285.40886
285.40888
285.40889
285.4089
285.40891
285.40893
285.40894
285.40895
285.40896
285.40897
285.40899
285.409
285.40901
285.40902
285.40903
285.40904
285.40905
285.40906
285.40907
285.40908
285.40909
285.4091
285.4091
285.40911
285.40912
285.40913
285.40914
285.40915
285.40916
285.40917
285.40918
285.40919
285.40919
285.4092
285.40921
285.40922
285.40923
285.40924
285.40924
285.40925
285.40926
285.40927
285.40928
285.40928
285.40929
285.4093
285.40931
285.40931
285.40932
285.40933
285.40934
285.40934
285.40935
285.40936
285.40936
285.40937
285.40938
285.40939
285.40939
285.4094
285.40941
285.40942
285.40942
285.40943
285.40943
285.40944
285.40945
285.40946
285.40946
285.40947
285.40948
285.40949
285.40949
285.4095
285.40951
285.40951
285.40952
285.40953
285.40953
285.40954
285.40955
285.40956
285.40956
285.40957
285.40958
285.40959
285.40959
285.4096
285.40961
285.40961
285.40962
285.40963
285.40964
285.40964
285.40965
285.40966
285.40966
285.40967
285.40968
285.40968
285.40969
285.4097
285.40971
285.40971
285.40972
285.40973
285.40973
285.40974
285.40975
285.40976
285.40976
285.40977
285.40978
285.40979
285.4098
285.4098
285.40981
285.40982
285.40983
285.40983
285.40984
285.40985
285.40986
285.40986
285.40987
285.40988
285.40989
285.40989
285.4099
285.40991
285.40992
285.40992
285.40993
285.40994
285.40995
285.40996
285.40996
285.40997
285.40998
285.40999
285.41
285.41
285.41001
285.41002
285.41003
285.41004
285.41005
285.41005
285.41006
285.41007
285.41008
285.41009
285.41009
285.4101
285.41011
285.41012
285.41013
285.41013
285.41014
285.41015
285.41016
285.41017
285.41018
285.41018
285.41019
285.4102
285.41021
285.41022
285.41023
285.41024
285.41025
285.41025
285.41026
285.41027
285.41028
285.41029
285.4103
285.41031
285.41032
285.41033
285.41034
285.41034
285.41035
285.41036
285.41037
285.41038
285.41039
285.4104
285.41041
285.41042
285.41042
285.41043
285.41044
285.41045
285.41046
285.41047
285.41048
285.41049
285.4105
285.41051
285.41052
285.41053
285.41054
285.41055
285.41056
285.41057
285.41058
285.41059
285.4106
285.41061
285.41062
285.41063
285.41064
285.41065
285.41066
285.41067
285.41068
285.41069
285.4107
285.41071
285.41072
285.41073
285.41074
285.41075
285.41076
285.41078
285.41079
285.4108
285.41081
285.41082
285.41083
285.41084
285.41085
285.41086
285.41087
285.41088
285.41089
285.4109
285.41091
285.41092
285.41094
285.41095
285.41096
285.41097
285.41098
285.41099
285.411
285.41102
285.41103
285.41104
285.41105
285.41106
285.41107
285.41108
285.4111
285.41111
285.41112
285.41113
285.41114
285.41116
285.41117
285.41118
285.41119
285.41121
285.41122
285.41123
285.41124
285.41125
285.41127
285.41128
285.41129
285.4113
285.41132
285.41133
285.41134
285.41135
285.41137
285.41138
285.41139
285.41141
285.41142
285.41143
285.41145
285.41146
285.41147
285.41149
285.4115
285.41151
285.41153
285.41154
285.41155
285.41157
285.41158
285.41159
285.41161
285.41162
285.41164
285.41165
285.41166
285.41168
285.41169
285.41171
285.41172
285.41174
285.41175
285.41176
285.41178
285.41179
285.41181
285.41182
285.41184
285.41185
285.41187
285.41188
285.4119
285.41192
285.41193
285.41195
285.41196
285.41198
285.412
285.41201
285.41203
285.41204
285.41206
285.41207
285.41209
285.41211
285.41212
285.41214
285.41215
285.41217
285.41219
285.4122
285.41222
285.41224
285.41225
285.41227
285.41229
285.41231
285.41232
285.41234
285.41236
285.41238
285.41239
285.41241
285.41243
285.41245
285.41246
285.41248
285.4125
285.41252
285.41253
285.41255
285.41257
285.41259
285.41261
285.41263
285.41265
285.41266
285.41268
285.4127
285.41272
285.41274
285.41276
285.41278
285.4128
285.41282
285.41284
285.41286
285.41288
285.4129
285.41292
285.41295
285.41297
285.41299
285.41301
285.41303
285.41305
285.41307
285.41309
285.41311
285.41314
285.41316
285.41318
285.4132
285.41322
285.41324
285.41327
285.41329
285.41331
285.41333
285.41336
285.41338
285.4134
285.41343
285.41345
285.41347
285.4135
285.41352
285.41354
285.41357
285.41359
285.41362
285.41364
285.41367
285.41369
285.41372
285.41374
285.41377
285.4138
285.41382
285.41385
285.41388
285.4139
285.41393
285.41396
285.41398
285.41401
285.41404
285.41406
285.41409
285.41412
285.41415
285.41417
285.4142
285.41423
285.41426
285.41429
285.41432
285.41435
285.41438
285.41441
285.41444
285.41447
285.4145
285.41454
285.41457
285.4146
285.41463
285.41466
285.41469
285.41473
285.41476
285.41479
285.41482
285.41485
285.41488
285.41491
285.41495
285.41498
285.41501
285.41505
285.41508
285.41512
285.41515
285.41519
285.41522
285.41526
285.4153
285.41533
285.41537
285.41541
285.41545
285.41549
285.41553
285.41557
285.41561
285.41565
285.41569
285.41573
285.41577
285.41582
285.41586
285.4159
285.41594
285.41599
285.41603
285.41607
285.41612
285.41616
285.41621
285.41625
285.4163
285.41634
285.41639
285.41643
285.41648
285.41653
285.41658
285.41663
285.41668
285.41673
285.41678
285.41683
285.41688
285.41693
285.41698
285.41704
285.41709
285.41714
285.4172
285.41725
285.41731
285.41736
285.41742
285.41748
285.41754
285.41759
285.41765
285.41772
285.41778
285.41784
285.4179
285.41797
285.41803
285.41809
285.41816
285.41823
285.41829
285.41836
285.41843
285.4185
285.41857
285.41864
285.41872
285.41879
285.41887
285.41894
285.41902
285.4191
285.41918
285.41926
285.41934
285.41942
285.41951
285.41959
285.41967
285.41976
285.41985
285.41994
285.42003
285.42012
285.42021
285.4203
285.4204
285.4205
285.4206
285.4207
285.4208
285.42091
285.42101
285.42112
285.42123
285.42133
285.42144
285.42155
285.42166
285.42177
285.42189
285.422
285.42211
285.42223
285.42235
285.42246
285.42258
285.42269
285.42281
285.42292
285.42304
285.42315
285.42326
285.42336
285.42347
285.42357
285.42366
285.42375
285.42383
285.42391
285.42398
285.42405
285.42411
285.42416
285.4242
285.42423
285.42426
285.42428
285.4243
285.4243
285.42431
285.42431
285.42431
285.4243
285.42429
285.42427
285.42425
285.42424
285.42423
285.42422
285.42422
285.42422
285.42422
285.42422
285.42424
285.42428
285.42436
285.42446
285.42459
285.42473
285.42489
285.42507
285.42526
285.42547
285.42569
285.42593
285.42617
285.42642
285.42668
285.42694
285.4272
285.42745
285.4277
285.42795
285.42818
285.4284
285.42861
285.4288
285.42896
285.4291
285.42922
285.4293
285.42936
285.42939
285.42943
285.42948
285.42958
285.4298
285.43031
285.43149
285.43437
285.44139
285.45865
285.50132
285.60569
285.85161
286.22558
286.69609
287.2609
287.91293
288.64132
289.43221
290.26967
291.13656
292.01555
292.88991
293.7443
294.5653
295.34185
296.06542
296.73004
297.33224
297.87079
298.3464
298.76136
299.11922
299.42435
299.68168
299.8964
300.07371
300.21864
300.33592
300.42988
300.50443
300.56299
300.60853
300.64359
300.67029
300.6904
300.70536
300.71635
300.72429
300.72993
300.73385
300.73649
300.73819
300.73922
300.73978
300.74002
300.74007
300.74004
300.73987
300.73945
300.73897
300.73851
300.73807
300.73764
300.73724
300.73685
300.73646
300.73609
300.73572
300.73534
300.73497
300.73459
300.7342
300.7338
300.73339
300.73296
300.73253
300.73208
300.73162
300.73115
300.73067
300.73018
300.7297
300.72921
300.72872
300.72823
300.72776
300.72729
300.72683
300.72638
300.72595
300.72553
300.72513
300.72474
300.72437
300.72401
300.72367
300.72335
300.72304
300.72275
300.72247
300.72221
300.72195
300.72171
300.72148
300.72126
300.72105
300.72085
300.72065
300.72046
300.72028
300.72011
300.71994
300.71978
300.71962
300.71946
300.71931
300.71917
300.71902
300.71888
300.71875
300.71861
300.71849
300.71836
300.71823
300.71811
300.71799
300.71787
300.71776
300.71764
300.71753
300.71742
300.71731
300.71721
300.7171
300.717
300.7169
300.7168
300.7167
300.7166
300.7165
300.71641
300.71632
300.71623
300.71614
300.71605
300.71596
300.71587
300.71579
300.7157
300.71562
300.71554
300.71546
300.71538
300.7153
300.71522
300.71515
300.71507
300.715
300.71492
300.71485
300.71478
300.71471
300.71464
300.71457
300.7145
300.71443
300.71437
300.7143
300.71424
300.71417
300.71411
300.71405
300.71398
300.71392
300.71386
300.7138
300.71374
300.71368
300.71363
300.71357
300.71351
300.71346
300.7134
300.71334
300.71329
300.71324
300.71318
300.71313
300.71308
300.71302
300.71297
300.71292
300.71287
300.71282
300.71277
300.71272
300.71267
300.71263
300.71258
300.71253
300.71249
300.71244
300.71239
300.71235
300.7123
300.71226
300.71222
300.71217
300.71213
300.71209
300.71204
300.712
300.71196
300.71192
300.71188
300.71184
300.7118
300.71176
300.71172