/*--------------------------------*- C++ -*----------------------------------*\
  =========                 |
  \\      /  F ield         | OpenFOAM: The Open Source CFD Toolbox
   \\    /   O peration     | Website:  https://openfoam.org
    \\  /    A nd           | Version:  7
     \\/     M anipulation  |
\*---------------------------------------------------------------------------*/
FoamFile
{
    version     2.0;
    format      ascii;
    class       volScalarField;
    location    "0.00259";
    object      p;
}
// * * * * * * * * * * * * * * * * * * * * * * * * * * * * * * * * * * * * * //

dimensions      [1 -1 -2 0 0 0 0];

internalField   nonuniform List<scalar> 
5000
(
109813.23
109813.23
109813.23
109813.23
109813.23
109813.23
109813.23
109813.23
109813.23
109813.23
109813.23
109813.23
109813.23
109813.23
109813.24
109813.24
109813.24
109813.24
109813.24
109813.24
109813.24
109813.24
109813.24
109813.24
109813.24
109813.24
109813.24
109813.24
109813.24
109813.24
109813.24
109813.24
109813.24
109813.24
109813.24
109813.24
109813.24
109813.24
109813.24
109813.24
109813.24
109813.24
109813.24
109813.24
109813.24
109813.24
109813.24
109813.24
109813.24
109813.24
109813.24
109813.24
109813.24
109813.24
109813.24
109813.24
109813.24
109813.24
109813.24
109813.24
109813.24
109813.24
109813.24
109813.25
109813.25
109813.25
109813.25
109813.25
109813.25
109813.25
109813.25
109813.25
109813.25
109813.25
109813.25
109813.25
109813.25
109813.25
109813.25
109813.25
109813.25
109813.25
109813.25
109813.25
109813.25
109813.25
109813.25
109813.25
109813.25
109813.25
109813.25
109813.25
109813.25
109813.25
109813.25
109813.25
109813.25
109813.25
109813.25
109813.25
109813.25
109813.25
109813.25
109813.25
109813.25
109813.25
109813.25
109813.25
109813.25
109813.25
109813.25
109813.25
109813.25
109813.25
109813.25
109813.26
109813.26
109813.26
109813.26
109813.26
109813.26
109813.26
109813.26
109813.26
109813.26
109813.26
109813.26
109813.26
109813.26
109813.26
109813.26
109813.26
109813.26
109813.26
109813.26
109813.26
109813.26
109813.26
109813.26
109813.26
109813.26
109813.26
109813.26
109813.26
109813.26
109813.26
109813.26
109813.26
109813.26
109813.26
109813.26
109813.26
109813.26
109813.26
109813.26
109813.26
109813.26
109813.26
109813.26
109813.26
109813.26
109813.26
109813.26
109813.26
109813.26
109813.26
109813.26
109813.26
109813.26
109813.27
109813.27
109813.27
109813.27
109813.27
109813.27
109813.27
109813.27
109813.27
109813.27
109813.27
109813.27
109813.27
109813.27
109813.27
109813.27
109813.27
109813.27
109813.27
109813.27
109813.27
109813.27
109813.27
109813.27
109813.27
109813.27
109813.27
109813.27
109813.27
109813.27
109813.27
109813.27
109813.27
109813.27
109813.27
109813.27
109813.27
109813.27
109813.27
109813.27
109813.27
109813.27
109813.27
109813.27
109813.27
109813.27
109813.27
109813.27
109813.27
109813.27
109813.27
109813.27
109813.27
109813.27
109813.27
109813.27
109813.27
109813.28
109813.28
109813.28
109813.28
109813.28
109813.28
109813.28
109813.28
109813.28
109813.28
109813.28
109813.28
109813.28
109813.28
109813.28
109813.28
109813.28
109813.28
109813.28
109813.28
109813.28
109813.28
109813.28
109813.28
109813.28
109813.28
109813.28
109813.28
109813.28
109813.28
109813.28
109813.28
109813.28
109813.28
109813.28
109813.28
109813.28
109813.28
109813.28
109813.28
109813.28
109813.28
109813.28
109813.28
109813.28
109813.28
109813.28
109813.28
109813.28
109813.28
109813.28
109813.28
109813.28
109813.28
109813.28
109813.28
109813.28
109813.28
109813.29
109813.29
109813.29
109813.29
109813.29
109813.29
109813.29
109813.29
109813.29
109813.29
109813.29
109813.29
109813.29
109813.29
109813.29
109813.29
109813.29
109813.29
109813.29
109813.29
109813.29
109813.29
109813.29
109813.29
109813.29
109813.29
109813.29
109813.29
109813.29
109813.29
109813.29
109813.29
109813.29
109813.29
109813.29
109813.29
109813.29
109813.29
109813.29
109813.29
109813.29
109813.29
109813.29
109813.29
109813.29
109813.29
109813.29
109813.29
109813.29
109813.29
109813.29
109813.29
109813.29
109813.29
109813.29
109813.29
109813.29
109813.29
109813.29
109813.29
109813.29
109813.29
109813.3
109813.3
109813.3
109813.3
109813.3
109813.3
109813.3
109813.3
109813.3
109813.3
109813.3
109813.3
109813.3
109813.3
109813.3
109813.3
109813.3
109813.3
109813.3
109813.3
109813.3
109813.3
109813.3
109813.3
109813.3
109813.3
109813.3
109813.3
109813.3
109813.3
109813.3
109813.3
109813.3
109813.3
109813.3
109813.3
109813.3
109813.3
109813.3
109813.3
109813.3
109813.3
109813.3
109813.3
109813.3
109813.3
109813.3
109813.3
109813.3
109813.3
109813.3
109813.3
109813.3
109813.3
109813.3
109813.3
109813.3
109813.3
109813.3
109813.3
109813.3
109813.3
109813.3
109813.3
109813.3
109813.3
109813.3
109813.31
109813.31
109813.31
109813.31
109813.31
109813.31
109813.31
109813.31
109813.31
109813.31
109813.31
109813.31
109813.31
109813.31
109813.31
109813.31
109813.31
109813.31
109813.31
109813.31
109813.31
109813.31
109813.31
109813.31
109813.31
109813.31
109813.31
109813.31
109813.31
109813.31
109813.31
109813.31
109813.31
109813.31
109813.31
109813.31
109813.31
109813.31
109813.31
109813.31
109813.31
109813.31
109813.31
109813.31
109813.31
109813.31
109813.31
109813.31
109813.31
109813.31
109813.31
109813.31
109813.31
109813.31
109813.31
109813.31
109813.31
109813.31
109813.31
109813.31
109813.31
109813.31
109813.31
109813.31
109813.31
109813.31
109813.31
109813.31
109813.31
109813.32
109813.32
109813.32
109813.32
109813.32
109813.32
109813.32
109813.32
109813.32
109813.32
109813.32
109813.32
109813.32
109813.32
109813.32
109813.32
109813.32
109813.32
109813.32
109813.32
109813.32
109813.32
109813.32
109813.32
109813.32
109813.32
109813.32
109813.32
109813.32
109813.32
109813.32
109813.32
109813.32
109813.32
109813.32
109813.32
109813.32
109813.32
109813.32
109813.32
109813.32
109813.32
109813.32
109813.32
109813.32
109813.32
109813.32
109813.32
109813.32
109813.32
109813.32
109813.32
109813.32
109813.32
109813.32
109813.32
109813.32
109813.32
109813.32
109813.32
109813.32
109813.32
109813.32
109813.32
109813.32
109813.32
109813.32
109813.32
109813.32
109813.32
109813.32
109813.32
109813.32
109813.32
109813.33
109813.33
109813.33
109813.33
109813.33
109813.33
109813.33
109813.33
109813.33
109813.33
109813.33
109813.33
109813.33
109813.33
109813.33
109813.33
109813.33
109813.33
109813.33
109813.33
109813.33
109813.33
109813.33
109813.33
109813.33
109813.33
109813.33
109813.33
109813.33
109813.33
109813.33
109813.33
109813.33
109813.33
109813.33
109813.33
109813.33
109813.33
109813.33
109813.33
109813.33
109813.33
109813.33
109813.33
109813.33
109813.33
109813.33
109813.33
109813.33
109813.33
109813.33
109813.33
109813.33
109813.33
109813.33
109813.33
109813.33
109813.33
109813.33
109813.33
109813.33
109813.33
109813.33
109813.33
109813.33
109813.33
109813.33
109813.33
109813.33
109813.33
109813.33
109813.33
109813.33
109813.33
109813.33
109813.33
109813.33
109813.33
109813.34
109813.34
109813.34
109813.34
109813.34
109813.34
109813.34
109813.34
109813.34
109813.34
109813.34
109813.34
109813.34
109813.34
109813.34
109813.34
109813.34
109813.34
109813.34
109813.34
109813.34
109813.34
109813.34
109813.34
109813.34
109813.34
109813.34
109813.34
109813.34
109813.34
109813.34
109813.34
109813.34
109813.34
109813.34
109813.34
109813.34
109813.34
109813.34
109813.34
109813.34
109813.34
109813.34
109813.34
109813.34
109813.34
109813.34
109813.34
109813.34
109813.34
109813.34
109813.34
109813.34
109813.34
109813.34
109813.34
109813.34
109813.34
109813.34
109813.34
109813.34
109813.34
109813.34
109813.34
109813.34
109813.34
109813.34
109813.34
109813.34
109813.34
109813.34
109813.34
109813.34
109813.34
109813.34
109813.34
109813.34
109813.34
109813.34
109813.34
109813.35
109813.35
109813.35
109813.35
109813.35
109813.35
109813.35
109813.35
109813.35
109813.35
109813.35
109813.35
109813.35
109813.35
109813.35
109813.35
109813.35
109813.35
109813.35
109813.35
109813.35
109813.35
109813.35
109813.35
109813.35
109813.35
109813.35
109813.35
109813.35
109813.35
109813.35
109813.35
109813.35
109813.35
109813.35
109813.35
109813.35
109813.35
109813.35
109813.35
109813.35
109813.35
109813.35
109813.35
109813.35
109813.35
109813.35
109813.35
109813.35
109813.35
109813.35
109813.35
109813.35
109813.35
109813.35
109813.35
109813.35
109813.35
109813.35
109813.35
109813.35
109813.35
109813.35
109813.35
109813.35
109813.35
109813.35
109813.35
109813.35
109813.35
109813.35
109813.35
109813.35
109813.35
109813.35
109813.35
109813.36
109813.36
109813.36
109813.36
109813.36
109813.36
109813.36
109813.36
109813.36
109813.36
109813.36
109813.36
109813.36
109813.36
109813.36
109813.36
109813.36
109813.36
109813.36
109813.36
109813.36
109813.36
109813.36
109813.36
109813.36
109813.36
109813.36
109813.36
109813.36
109813.36
109813.36
109813.36
109813.36
109813.36
109813.36
109813.36
109813.36
109813.36
109813.36
109813.36
109813.36
109813.36
109813.36
109813.36
109813.36
109813.36
109813.36
109813.36
109813.36
109813.36
109813.36
109813.36
109813.36
109813.36
109813.36
109813.36
109813.36
109813.36
109813.36
109813.36
109813.36
109813.36
109813.36
109813.36
109813.36
109813.36
109813.36
109813.36
109813.36
109813.36
109813.36
109813.36
109813.36
109813.36
109813.36
109813.36
109813.36
109813.36
109813.36
109813.36
109813.37
109813.37
109813.37
109813.37
109813.37
109813.37
109813.37
109813.37
109813.37
109813.37
109813.37
109813.37
109813.37
109813.37
109813.37
109813.37
109813.37
109813.37
109813.37
109813.37
109813.37
109813.37
109813.37
109813.37
109813.37
109813.37
109813.37
109813.37
109813.37
109813.37
109813.37
109813.37
109813.37
109813.37
109813.37
109813.37
109813.37
109813.37
109813.37
109813.37
109813.37
109813.37
109813.37
109813.37
109813.37
109813.37
109813.37
109813.37
109813.37
109813.37
109813.37
109813.37
109813.37
109813.37
109813.37
109813.37
109813.37
109813.37
109813.37
109813.37
109813.37
109813.37
109813.37
109813.37
109813.37
109813.37
109813.37
109813.37
109813.37
109813.37
109813.37
109813.37
109813.37
109813.37
109813.37
109813.37
109813.37
109813.37
109813.37
109813.37
109813.37
109813.37
109813.37
109813.37
109813.37
109813.37
109813.37
109813.37
109813.37
109813.37
109813.37
109813.37
109813.37
109813.38
109813.38
109813.38
109813.38
109813.38
109813.38
109813.38
109813.38
109813.38
109813.38
109813.38
109813.38
109813.38
109813.38
109813.38
109813.38
109813.38
109813.38
109813.38
109813.38
109813.38
109813.38
109813.38
109813.38
109813.38
109813.38
109813.38
109813.38
109813.38
109813.38
109813.38
109813.38
109813.38
109813.38
109813.38
109813.38
109813.38
109813.38
109813.38
109813.38
109813.38
109813.38
109813.38
109813.38
109813.38
109813.38
109813.38
109813.38
109813.38
109813.38
109813.38
109813.38
109813.38
109813.38
109813.38
109813.38
109813.38
109813.38
109813.38
109813.38
109813.38
109813.38
109813.38
109813.38
109813.38
109813.38
109813.38
109813.38
109813.38
109813.38
109813.38
109813.38
109813.38
109813.38
109813.38
109813.38
109813.38
109813.38
109813.38
109813.38
109813.38
109813.38
109813.38
109813.38
109813.38
109813.38
109813.38
109813.38
109813.38
109813.39
109813.39
109813.39
109813.39
109813.39
109813.39
109813.39
109813.39
109813.39
109813.39
109813.39
109813.39
109813.39
109813.39
109813.39
109813.39
109813.39
109813.39
109813.39
109813.39
109813.39
109813.39
109813.39
109813.39
109813.39
109813.39
109813.39
109813.39
109813.39
109813.39
109813.39
109813.39
109813.39
109813.39
109813.39
109813.39
109813.39
109813.39
109813.39
109813.39
109813.39
109813.39
109813.39
109813.39
109813.39
109813.39
109813.39
109813.39
109813.39
109813.39
109813.39
109813.39
109813.39
109813.39
109813.39
109813.39
109813.39
109813.39
109813.39
109813.39
109813.39
109813.39
109813.39
109813.39
109813.39
109813.39
109813.39
109813.39
109813.39
109813.39
109813.39
109813.39
109813.39
109813.39
109813.39
109813.39
109813.39
109813.39
109813.39
109813.39
109813.39
109813.39
109813.39
109813.39
109813.39
109813.39
109813.39
109813.39
109813.39
109813.39
109813.39
109813.39
109813.4
109813.4
109813.4
109813.4
109813.4
109813.4
109813.4
109813.4
109813.4
109813.4
109813.4
109813.4
109813.4
109813.4
109813.4
109813.4
109813.4
109813.4
109813.4
109813.4
109813.4
109813.4
109813.4
109813.4
109813.4
109813.4
109813.4
109813.4
109813.4
109813.4
109813.4
109813.4
109813.4
109813.4
109813.4
109813.4
109813.4
109813.4
109813.4
109813.4
109813.4
109813.4
109813.4
109813.4
109813.4
109813.4
109813.4
109813.4
109813.4
109813.4
109813.4
109813.4
109813.4
109813.4
109813.4
109813.4
109813.4
109813.4
109813.4
109813.4
109813.4
109813.4
109813.4
109813.4
109813.4
109813.4
109813.4
109813.4
109813.4
109813.4
109813.4
109813.4
109813.4
109813.4
109813.4
109813.4
109813.4
109813.4
109813.4
109813.4
109813.4
109813.4
109813.4
109813.4
109813.4
109813.4
109813.4
109813.4
109813.4
109813.4
109813.4
109813.4
109813.4
109813.4
109813.4
109813.4
109813.4
109813.4
109813.4
109813.4
109813.4
109813.4
109813.4
109813.4
109813.4
109813.4
109813.4
109813.4
109813.4
109813.4
109813.4
109813.4
109813.4
109813.4
109813.4
109813.4
109813.4
109813.4
109813.4
109813.4
109813.4
109813.4
109813.4
109813.4
109813.4
109813.4
109813.4
109813.4
109813.4
109813.4
109813.4
109813.4
109813.4
109813.4
109813.4
109813.4
109813.4
109813.4
109813.4
109813.4
109813.4
109813.4
109813.4
109813.4
109813.4
109813.4
109813.4
109813.4
109813.4
109813.4
109813.4
109813.4
109813.4
109813.4
109813.4
109813.4
109813.4
109813.4
109813.4
109813.4
109813.4
109813.4
109813.4
109813.4
109813.4
109813.4
109813.4
109813.4
109813.4
109813.4
109813.4
109813.4
109813.4
109813.4
109813.4
109813.4
109813.4
109813.4
109813.4
109813.4
109813.4
109813.4
109813.4
109813.4
109813.4
109813.4
109813.4
109813.4
109813.4
109813.4
109813.4
109813.4
109813.4
109813.4
109813.4
109813.4
109813.4
109813.4
109813.4
109813.4
109813.4
109813.4
109813.4
109813.4
109813.4
109813.4
109813.4
109813.4
109813.4
109813.4
109813.4
109813.4
109813.4
109813.4
109813.4
109813.4
109813.4
109813.4
109813.4
109813.4
109813.4
109813.4
109813.4
109813.4
109813.4
109813.4
109813.4
109813.4
109813.39
109813.39
109813.39
109813.39
109813.39
109813.39
109813.39
109813.39
109813.39
109813.39
109813.39
109813.39
109813.39
109813.39
109813.39
109813.39
109813.39
109813.39
109813.39
109813.39
109813.39
109813.39
109813.39
109813.39
109813.39
109813.39
109813.39
109813.39
109813.39
109813.39
109813.39
109813.39
109813.39
109813.39
109813.39
109813.39
109813.39
109813.39
109813.39
109813.39
109813.39
109813.39
109813.39
109813.39
109813.39
109813.39
109813.39
109813.39
109813.39
109813.39
109813.39
109813.38
109813.38
109813.38
109813.38
109813.38
109813.38
109813.38
109813.38
109813.38
109813.38
109813.38
109813.38
109813.38
109813.38
109813.38
109813.38
109813.38
109813.38
109813.38
109813.38
109813.38
109813.38
109813.38
109813.38
109813.37
109813.37
109813.37
109813.37
109813.37
109813.37
109813.37
109813.37
109813.37
109813.37
109813.37
109813.37
109813.37
109813.37
109813.37
109813.36
109813.36
109813.36
109813.36
109813.36
109813.36
109813.36
109813.36
109813.36
109813.36
109813.35
109813.35
109813.35
109813.35
109813.35
109813.35
109813.35
109813.35
109813.34
109813.34
109813.34
109813.34
109813.34
109813.34
109813.33
109813.33
109813.33
109813.33
109813.33
109813.32
109813.32
109813.32
109813.32
109813.32
109813.31
109813.31
109813.31
109813.31
109813.3
109813.3
109813.3
109813.29
109813.29
109813.29
109813.28
109813.28
109813.28
109813.27
109813.27
109813.27
109813.26
109813.26
109813.25
109813.25
109813.24
109813.24
109813.24
109813.23
109813.23
109813.22
109813.21
109813.21
109813.2
109813.2
109813.19
109813.18
109813.18
109813.17
109813.16
109813.16
109813.15
109813.14
109813.13
109813.13
109813.12
109813.11
109813.1
109813.09
109813.08
109813.07
109813.06
109813.05
109813.04
109813.03
109813.02
109813.01
109813
109812.99
109812.97
109812.96
109812.95
109812.93
109812.92
109812.91
109812.89
109812.88
109812.86
109812.84
109812.83
109812.81
109812.79
109812.78
109812.76
109812.74
109812.72
109812.7
109812.68
109812.66
109812.64
109812.62
109812.59
109812.57
109812.55
109812.52
109812.5
109812.47
109812.44
109812.42
109812.39
109812.36
109812.33
109812.3
109812.27
109812.24
109812.21
109812.17
109812.14
109812.11
109812.07
109812.03
109812
109811.96
109811.92
109811.88
109811.84
109811.79
109811.75
109811.71
109811.66
109811.61
109811.57
109811.52
109811.47
109811.42
109811.37
109811.31
109811.26
109811.2
109811.14
109811.09
109811.03
109810.97
109810.9
109810.84
109810.77
109810.71
109810.64
109810.57
109810.5
109810.43
109810.35
109810.28
109810.2
109810.12
109810.04
109809.96
109809.87
109809.79
109809.7
109809.61
109809.52
109809.43
109809.33
109809.23
109809.13
109809.03
109808.93
109808.83
109808.72
109808.61
109808.5
109808.39
109808.27
109808.15
109808.03
109807.91
109807.79
109807.66
109807.53
109807.4
109807.27
109807.13
109806.99
109806.85
109806.71
109806.56
109806.41
109806.26
109806.11
109805.95
109805.79
109805.63
109805.47
109805.3
109805.13
109804.96
109804.78
109804.6
109804.42
109804.23
109804.05
109803.85
109803.66
109803.46
109803.26
109803.06
109802.85
109802.64
109802.43
109802.21
109801.99
109801.77
109801.54
109801.31
109801.08
109800.84
109800.6
109800.36
109800.11
109799.86
109799.61
109799.35
109799.09
109798.82
109798.55
109798.28
109798.01
109797.73
109797.44
109797.15
109796.86
109796.57
109796.27
109795.96
109795.66
109795.34
109795.03
109794.71
109794.39
109794.06
109793.73
109793.39
109793.05
109792.71
109792.36
109792.01
109791.65
109791.29
109790.92
109790.55
109790.18
109789.8
109789.42
109789.03
109788.64
109788.24
109787.84
109787.44
109787.03
109786.62
109786.2
109785.78
109785.35
109784.92
109784.48
109784.04
109783.6
109783.15
109782.7
109782.24
109781.78
109781.31
109780.84
109780.36
109779.88
109779.39
109778.9
109778.41
109777.91
109777.4
109776.89
109776.38
109775.86
109775.34
109774.81
109774.28
109773.74
109773.2
109772.66
109772.11
109771.55
109770.99
109770.43
109769.86
109769.28
109768.71
109768.12
109767.54
109766.94
109766.35
109765.75
109765.14
109764.53
109763.92
109763.3
109762.67
109762.05
109761.41
109760.78
109760.14
109759.49
109758.84
109758.18
109757.53
109756.86
109756.19
109755.52
109754.85
109754.16
109753.48
109752.79
109752.1
109751.4
109750.7
109749.99
109749.28
109748.57
109747.85
109747.13
109746.4
109745.67
109744.93
109744.2
109743.45
109742.71
109741.96
109741.2
109740.45
109739.68
109738.92
109738.15
109737.38
109736.6
109735.82
109735.04
109734.25
109733.46
109732.67
109731.87
109731.07
109730.26
109729.46
109728.64
109727.83
109727.01
109726.19
109725.37
109724.54
109723.71
109722.88
109722.04
109721.21
109720.36
109719.52
109718.67
109717.82
109716.97
109716.11
109715.25
109714.39
109713.53
109712.66
109711.8
109710.93
109710.05
109709.18
109708.3
109707.42
109706.54
109705.65
109704.77
109703.88
109702.99
109702.09
109701.2
109700.3
109699.4
109698.5
109697.6
109696.7
109695.79
109694.89
109693.98
109693.07
109692.16
109691.25
109690.33
109689.42
109688.5
109687.58
109686.66
109685.74
109684.82
109683.9
109682.98
109682.05
109681.13
109680.2
109679.28
109678.35
109677.42
109676.5
109675.57
109674.64
109673.71
109672.78
109671.85
109670.92
109669.99
109669.05
109668.12
109667.19
109666.26
109665.33
109664.4
109663.46
109662.53
109661.6
109660.67
109659.74
109658.81
109657.88
109656.95
109656.02
109655.09
109654.16
109653.23
109652.31
109651.38
109650.45
109649.53
109648.6
109647.68
109646.76
109645.84
109644.92
109644
109643.08
109642.16
109641.24
109640.33
109639.41
109638.5
109637.59
109636.68
109635.77
109634.86
109633.96
109633.05
109632.15
109631.25
109630.35
109629.45
109628.56
109627.66
109626.77
109625.88
109624.99
109624.1
109623.22
109622.33
109621.45
109620.57
109619.7
109618.82
109617.95
109617.08
109616.21
109615.34
109614.48
109613.62
109612.76
109611.9
109611.04
109610.19
109609.34
109608.49
109607.65
109606.8
109605.96
109605.13
109604.29
109603.46
109602.63
109601.8
109600.98
109600.15
109599.33
109598.52
109597.7
109596.89
109596.08
109595.28
109594.47
109593.68
109592.88
109592.08
109591.29
109590.5
109589.72
109588.94
109588.16
109587.38
109586.61
109585.84
109585.07
109584.31
109583.54
109582.79
109582.03
109581.28
109580.53
109579.78
109579.04
109578.3
109577.57
109576.83
109576.1
109575.38
109574.65
109573.93
109573.21
109572.5
109571.79
109571.08
109570.38
109569.68
109568.98
109568.28
109567.59
109566.9
109566.22
109565.54
109564.86
109564.18
109563.51
109562.84
109562.18
109561.52
109560.86
109560.2
109559.55
109558.9
109558.26
109557.62
109556.98
109556.34
109555.71
109555.08
109554.45
109553.83
109553.21
109552.6
109551.98
109551.37
109550.77
109550.17
109549.57
109548.97
109548.38
109547.79
109547.2
109546.62
109546.04
109545.46
109544.89
109544.32
109543.75
109543.19
109542.63
109542.07
109541.51
109540.96
109540.42
109539.87
109539.33
109538.79
109538.26
109537.72
109537.2
109536.67
109536.15
109535.63
109535.11
109534.6
109534.09
109533.58
109533.08
109532.58
109532.08
109531.58
109531.09
109530.6
109530.12
109529.64
109529.16
109528.68
109528.21
109527.74
109527.27
109526.8
109526.34
109525.88
109525.43
109524.98
109524.53
109524.08
109523.64
109523.2
109522.76
109522.32
109521.89
109521.46
109521.03
109520.61
109520.19
109519.77
109519.36
109518.95
109518.54
109518.13
109517.73
109517.32
109516.93
109516.53
109516.14
109515.75
109515.36
109514.98
109514.59
109514.22
109513.84
109513.47
109513.09
109512.73
109512.36
109512
109511.64
109511.28
109510.93
109510.57
109510.22
109509.88
109509.53
109509.19
109508.85
109508.51
109508.18
109507.85
109507.52
109507.19
109506.87
109506.55
109506.23
109505.91
109505.6
109505.29
109504.98
109504.67
109504.37
109504.06
109503.76
109503.47
109503.17
109502.88
109502.59
109502.3
109502.02
109501.74
109501.46
109501.18
109500.9
109500.63
109500.36
109500.09
109499.83
109499.56
109499.3
109499.04
109498.79
109498.53
109498.28
109498.03
109497.78
109497.54
109497.29
109497.05
109496.81
109496.57
109496.34
109496.11
109495.88
109495.65
109495.42
109495.2
109494.98
109494.76
109494.54
109494.33
109494.11
109493.9
109493.69
109493.49
109493.28
109493.08
109492.88
109492.68
109492.48
109492.29
109492.09
109491.9
109491.71
109491.53
109491.34
109491.16
109490.98
109490.8
109490.62
109490.44
109490.27
109490.1
109489.93
109489.76
109489.59
109489.43
109489.27
109489.11
109488.95
109488.79
109488.64
109488.48
109488.33
109488.18
109488.03
109487.89
109487.74
109487.6
109487.46
109487.32
109487.18
109487.04
109486.91
109486.77
109486.64
109486.51
109486.38
109486.26
109486.13
109486.01
109485.88
109485.76
109485.64
109485.53
109485.41
109485.3
109485.18
109485.07
109484.96
109484.85
109484.75
109484.64
109484.53
109484.43
109484.33
109484.23
109484.13
109484.03
109483.94
109483.84
109483.75
109483.66
109483.56
109483.47
109483.39
109483.3
109483.21
109483.13
109483.04
109482.96
109482.88
109482.8
109482.72
109482.64
109482.57
109482.49
109482.42
109482.34
109482.27
109482.2
109482.13
109482.06
109482
109481.93
109481.86
109481.8
109481.73
109481.67
109481.61
109481.55
109481.49
109481.43
109481.37
109481.32
109481.26
109481.21
109481.15
109481.1
109481.05
109480.99
109480.94
109480.89
109480.85
109480.8
109480.75
109480.7
109480.66
109480.61
109480.57
109480.52
109480.48
109480.44
109480.4
109480.36
109480.32
109480.28
109480.24
109480.2
109480.17
109480.13
109480.1
109480.06
109480.03
109479.99
109479.96
109479.93
109479.9
109479.86
109479.83
109479.8
109479.77
109479.75
109479.72
109479.69
109479.66
109479.64
109479.61
109479.58
109479.56
109479.53
109479.51
109479.49
109479.46
109479.44
109479.42
109479.4
109479.37
109479.35
109479.33
109479.31
109479.29
109479.27
109479.25
109479.24
109479.22
109479.2
109479.18
109479.17
109479.15
109479.13
109479.12
109479.1
109479.09
109479.07
109479.06
109479.04
109479.03
109479.01
109479
109478.99
109478.98
109478.96
109478.95
109478.94
109478.93
109478.92
109478.91
109478.89
109478.88
109478.87
109478.86
109478.85
109478.84
109478.83
109478.83
109478.82
109478.81
109478.8
109478.79
109478.78
109478.78
109478.77
109478.76
109478.75
109478.75
109478.74
109478.73
109478.73
109478.72
109478.71
109478.71
109478.7
109478.69
109478.69
109478.68
109478.68
109478.67
109478.67
109478.66
109478.66
109478.65
109478.65
109478.64
109478.64
109478.64
109478.63
109478.63
109478.62
109478.62
109478.62
109478.61
109478.61
109478.61
109478.6
109478.6
109478.6
109478.59
109478.59
109478.59
109478.58
109478.58
109478.58
109478.58
109478.57
109478.57
109478.57
109478.57
109478.57
109478.56
109478.56
109478.56
109478.56
109478.56
109478.55
109478.55
109478.55
109478.55
109478.55
109478.55
109478.54
109478.54
109478.54
109478.54
109478.54
109478.54
109478.54
109478.53
109478.53
109478.53
109478.53
109478.53
109478.53
109478.53
109478.53
109478.53
109478.53
109478.52
109478.52
109478.52
109478.52
109478.52
109478.52
109478.52
109478.52
109478.52
109478.52
109478.52
109478.52
109478.52
109478.52
109478.51
109478.51
109478.51
109478.51
109478.51
109478.51
109478.51
109478.51
109478.51
109478.51
109478.51
109478.51
109478.51
109478.51
109478.51
109478.51
109478.51
109478.51
109478.51
109478.51
109478.51
109478.51
109478.51
109478.51
109478.51
109478.51
109478.51
109478.51
109478.51
109478.5
109478.5
109478.5
109478.5
109478.5
109478.5
109478.5
109478.5
109478.5
109478.5
109478.5
109478.5
109478.5
109478.5
109478.5
109478.5
109478.5
109478.5
109478.5
109478.5
109478.5
109478.5
109478.5
109478.5
109478.5
109478.5
109478.5
109478.5
109478.5
109478.5
109478.5
109478.5
109478.5
109478.5
109478.5
109478.5
109478.5
109478.5
109478.5
109478.5
109478.5
109478.5
109478.5
109478.5
109478.5
109478.5
109478.5
109478.5
109478.5
109478.5
109478.5
109478.5
109478.5
109478.5
109478.5
109478.5
109478.5
109478.5
109478.5
109478.5
109478.5
109478.5
109478.5
109478.5
109478.5
109478.5
109478.5
109478.5
109478.5
109478.5
109478.5
109478.5
109478.5
109478.5
109478.5
109478.5
109478.5
109478.5
109478.5
109478.5
109478.5
109478.5
109478.5
109478.5
109478.5
109478.5
109478.5
109478.5
109478.5
109478.5
109478.5
109478.5
109478.5
109478.5
109478.5
109478.5
109478.5
109478.5
109478.5
109478.5
109478.5
109478.5
109478.5
109478.5
109478.5
109478.5
109478.49
109478.49
109478.49
109478.49
109478.49
109478.49
109478.49
109478.49
109478.49
109478.49
109478.49
109478.49
109478.49
109478.49
109478.49
109478.49
109478.49
109478.49
109478.49
109478.49
109478.49
109478.49
109478.49
109478.49
109478.49
109478.49
109478.49
109478.49
109478.49
109478.49
109478.49
109478.49
109478.49
109478.49
109478.49
109478.49
109478.49
109478.49
109478.49
109478.49
109478.49
109478.49
109478.49
109478.49
109478.49
109478.49
109478.49
109478.49
109478.49
109478.49
109478.49
109478.49
109478.49
109478.49
109478.49
109478.49
109478.49
109478.49
109478.49
109478.49
109478.49
109478.49
109478.49
109478.49
109478.49
109478.49
109478.49
109478.49
109478.49
109478.49
109478.49
109478.49
109478.49
109478.49
109478.49
109478.49
109478.49
109478.49
109478.49
109478.49
109478.49
109478.49
109478.49
109478.49
109478.49
109478.49
109478.49
109478.49
109478.49
109478.49
109478.49
109478.49
109478.49
109478.49
109478.48
109478.48
109478.48
109478.48
109478.48
109478.48
109478.48
109478.48
109478.48
109478.48
109478.48
109478.48
109478.48
109478.48
109478.48
109478.47
109478.47
109478.47
109478.47
109478.47
109478.47
109478.47
109478.47
109478.47
109478.46
109478.46
109478.46
109478.46
109478.46
109478.46
109478.45
109478.45
109478.45
109478.45
109478.45
109478.44
109478.44
109478.44
109478.44
109478.43
109478.43
109478.43
109478.43
109478.42
109478.42
109478.42
109478.41
109478.41
109478.41
109478.4
109478.4
109478.39
109478.39
109478.38
109478.38
109478.37
109478.37
109478.36
109478.36
109478.35
109478.35
109478.34
109478.34
109478.33
109478.32
109478.32
109478.31
109478.3
109478.29
109478.28
109478.26
109478.25
109478.24
109478.23
109478.22
109478.21
109478.21
109478.23
109478.16
109478.18
109478.17
109478.15
109478.14
109478.13
109478.11
109478.09
109478.08
109478.06
109478.04
109478.02
109478
109477.99
109477.97
109477.95
109477.93
109477.9
109477.88
109477.86
109477.84
109477.81
109477.79
109477.76
109477.74
109477.71
109477.68
109477.65
109477.62
109477.59
109477.55
109477.52
109477.48
109477.45
109477.41
109477.37
109477.33
109477.29
109477.25
109477.2
109477.16
109477.11
109477.06
109477.01
109476.96
109476.91
109476.85
109476.8
109476.74
109476.68
109476.61
109476.55
109476.48
109476.42
109476.34
109476.27
109476.2
109476.12
109476.04
109475.96
109475.87
109475.79
109475.7
109475.61
109475.51
109475.41
109475.31
109475.21
109475.1
109474.99
109474.88
109474.76
109474.64
109474.52
109474.39
109474.26
109474.13
109473.99
109473.85
109473.7
109473.55
109473.4
109473.24
109473.08
109472.91
109472.74
109472.56
109472.38
109472.2
109472.01
109471.81
109471.61
109471.4
109471.19
109470.98
109470.75
109470.52
109470.29
109470.05
109469.8
109469.55
109469.29
109469.03
109468.75
109468.47
109468.19
109467.9
109467.6
109467.29
109466.97
109466.65
109466.32
109465.98
109465.64
109465.28
109464.92
109464.55
109464.17
109463.78
109463.39
109462.98
109462.56
109462.14
109461.71
109461.26
109460.81
109460.35
109459.87
109459.39
109458.89
109458.39
109457.87
109457.35
109456.81
109456.26
109455.7
109455.13
109454.55
109453.95
109453.34
109452.72
109452.09
109451.45
109450.79
109450.12
109449.44
109448.74
109448.03
109447.31
109446.58
109445.83
109445.06
109444.29
109443.49
109442.69
109441.87
109441.03
109440.18
109439.32
109438.44
109437.54
109436.63
109435.7
109434.76
109433.81
109432.83
109431.84
109430.84
109429.82
109428.78
109427.72
109426.65
109425.57
109424.46
109423.34
109422.2
109421.05
109419.87
109418.68
109417.48
109416.25
109415.01
109413.75
109412.48
109411.18
109409.87
109408.54
109407.19
109405.82
109404.44
109403.04
109401.62
109400.18
109398.73
109397.25
109395.76
109394.25
109392.72
109391.18
109389.61
109388.03
109386.43
109384.81
109383.18
109381.52
109379.85
109378.16