/*--------------------------------*- C++ -*----------------------------------*\
  =========                 |
  \\      /  F ield         | OpenFOAM: The Open Source CFD Toolbox
   \\    /   O peration     | Website:  https://openfoam.org
    \\  /    A nd           | Version:  7
     \\/     M anipulation  |
\*---------------------------------------------------------------------------*/
FoamFile
{
    version     2.0;
    format      ascii;
    class       volScalarField;
    location    "0.00185";
    object      Uy;
}
// * * * * * * * * * * * * * * * * * * * * * * * * * * * * * * * * * * * * * //

dimensions      [0 1 -1 0 0 0 0];

internalField   nonuniform List<scalar> 
5000
(
-3.4023039e-20
-4.5419925e-20
0
0
1.8057635e-20
-1.851545e-35
-1.7629997e-20
0
0
2.0034608e-20
3.9673735e-20
-1.9729679e-20
-1.9421143e-20
1.7105214e-20
0
1.6652224e-20
-8.3272147e-49
-1.9604318e-20
0
-1.8464281e-20
1.8839155e-20
1.8459757e-20
-3.4211819e-20
1.6179477e-20
1.6862205e-20
1.4812899e-34
-1.8319228e-20
-1.8156137e-20
3.5823087e-20
-3.0630677e-34
3.0312869e-34
-1.7237844e-20
-3.4765871e-20
3.4937816e-20
-3.0456683e-34
1.5234938e-33
6.0774249e-34
-3.4810318e-20
3.4756609e-20
3.5156252e-20
-3.519265e-20
1.1827325e-33
3.4099875e-20
-1.7329957e-20
-5.1974694e-20
1.6969801e-20
1.694157e-20
1.1832955e-33
3.4105292e-20
0
-1.6931133e-20
-2.5074292e-36
1.7527932e-20
-3.3641913e-20
5.8398378e-34
3.436434e-20
-1.7350072e-20
5.9075915e-34
1.6871166e-20
0
-1.6686648e-20
-5.6374395e-34
-4.6386219e-36
-1.6143114e-20
1.5578559e-20
-5.0117698e-34
-1.1915852e-20
1.0660884e-20
1.1388222e-20
-1.2260389e-20
-1.2564157e-20
1.2423898e-20
1.2172236e-20
-2.384096e-20
-1.1639862e-20
1.1441854e-20
0
-1.1276602e-20
1.5839316e-36
1.1032783e-20
-1.0907723e-20
3.0600335e-36
-3.0213095e-36
-1.0481605e-20
-1.0322617e-20
-3.5389557e-34
9.9941412e-21
0
9.5792474e-21
9.7275689e-34
3.2220975e-34
-9.0922765e-21
-8.980714e-21
1.7725388e-20
6.0636441e-34
-8.6574744e-21
0
0
8.1604051e-21
5.5259874e-34
-1.5282625e-20
7.6109346e-21
1.5402097e-20
0
-7.6936242e-21
-7.7024454e-21
7.6868645e-21
7.7026009e-21
0
0
-7.5101504e-21
-7.3521674e-21
0
7.2255336e-21
-2.4929807e-34
-6.9686738e-21
6.7474342e-21
-1.8577773e-36
2.2209881e-34
1.3038991e-50
-1.2227179e-20
2.4403825e-36
5.4700093e-21
0
5.2143356e-21
-5.0146668e-21
-4.4531838e-21
8.0627418e-21
4.104458e-21
-7.7714414e-21
-3.5623796e-21
3.4632053e-21
3.3751436e-21
2.966901e-21
0
-2.3136439e-21
-2.1941297e-21
2.2796942e-21
8.4038832e-35
-2.4667182e-21
2.3912055e-21
2.2293987e-21
0
-1.598377e-21
-1.1345794e-21
9.3538238e-22
-9.434558e-22
5.0597698e-37
7.3979108e-22
-4.67442e-22
1.2722255e-22
1.1851836e-35
2.9111809e-22
-1.2632494e-22
9.4842606e-23
4.2287639e-22
-9.1172591e-22
0
0
-1.100725e-21
-5.8022062e-22
7.4308429e-22
1.326597e-21
-1.8314308e-21
-1.5136198e-34
2.4004736e-21
-1.7917185e-21
-1.271178e-21
0
1.7097501e-21
1.9223777e-21
0
-7.9119647e-22
-8.5123359e-23
0
6.5123122e-22
1.872467e-34
-7.5882023e-22
-2.9275049e-22
-1.1389296e-21
9.9324238e-22
3.6876047e-35
-3.7949528e-35
-5.6733586e-37
-2.1396588e-21
2.1212063e-21
2.0599838e-34
-7.1105259e-35
9.6985592e-35
-2.6408874e-21
0
0
1.9482774e-21
1.12947e-21
0
0
-8.7251452e-21
-6.1800389e-50
8.2578234e-21
0
-7.6738745e-21
6.1766764e-21
1.2056939e-33
-5.912818e-21
3.2416525e-21
1.5350706e-33
1.4988595e-36
1.0246536e-20
-7.2955418e-21
7.1414488e-37
5.4577268e-34
-3.6009418e-34
1.1094284e-20
0
-1.4572566e-20
-7.597964e-34
-2.4030285e-33
-9.5606861e-21
0
1.619952e-20
1.6083279e-20
0
0
0
-2.0756525e-20
-1.8533102e-33
2.5748495e-20
0
0
-1.8945891e-20
-2.3284749e-20
3.2761176e-20
3.9316547e-20
0
-3.2195359e-20
-3.0315213e-20
3.020618e-20
3.6169555e-20
0
-5.544644e-20
1.5046391e-32
3.3078705e-33
-4.6075354e-20
4.9741245e-20
5.8901068e-20
0
-6.8080878e-20
8.6846589e-33
-5.924093e-20
-8.13426e-33
1.3416371e-19
-8.1057754e-20
1.2761618e-32
3.1947129e-32
5.8144199e-33
8.1222686e-20
-7.890739e-20
-8.1513899e-20
0
1.1813271e-19
1.2323181e-19
0
-1.2397996e-19
-1.2295153e-19
2.3560019e-19
1.1345067e-19
-1.1353387e-19
-1.26087e-19
-3.8539958e-32
1.5046315e-19
-1.4948055e-19
9.5174368e-33
1.3627772e-19
-1.3806899e-19
1.0746621e-32
-1.2132442e-32
5.4134341e-35
1.3142257e-32
-1.7717406e-19
0
0
1.8256272e-19
1.9249939e-19
0
0
0
0
-2.541169e-19
-1.7226859e-32
5.0714461e-19
-1.1118343e-34
-2.7496746e-19
-2.9386151e-19
4.3341812e-32
4.4858739e-32
4.6593151e-35
3.3296912e-19
3.4611097e-19
3.6444889e-19
-7.638928e-19
-1.1853637e-18
4.0228192e-19
8.2191695e-19
0
-4.4473103e-19
-4.6017546e-19
4.7257717e-19
-1.3788971e-34
2.1432011e-34
-1.4837818e-34
-5.3573151e-19
-5.4504988e-19
5.5826578e-19
1.1604851e-18
-6.0516922e-19
9.2438032e-49
-6.3005824e-19
-1.772173e-31
1.3137679e-18
0
0
-1.4621424e-18
4.140845e-31
1.5153238e-18
0
-7.9952565e-19
-8.2620063e-19
8.4922502e-19
-1.2327454e-34
1.225813e-31
-1.2821853e-34
-9.2737946e-19
9.5398415e-19
9.7662683e-19
0
-1.0177187e-18
1.4512983e-31
1.0747101e-18
-2.2015298e-18
3.1158767e-31
1.1442454e-18
3.2395409e-31
2.3798706e-18
-2.4258293e-18
-1.2370586e-18
1.2650395e-18
1.8436978e-34
1.3302578e-18
0
0
-1.4109671e-18
1.9875189e-31
2.9154184e-18
-2.1137441e-34
-4.5715177e-18
1.5620494e-18
1.594413e-18
-3.2369657e-18
1.6394251e-18
-1.6672469e-18
-3.4077405e-18
1.7437002e-18
1.7805348e-18
1.8108775e-18
-1.8376606e-18
2.9894036e-48
1.9029357e-18
-1.9403072e-18
1.9763046e-18
-2.0108057e-18
-5.6696299e-31
-5.9174818e-34
-2.1164794e-18
4.2968633e-18
-2.1813911e-18
-6.1627708e-31
6.2739512e-31
2.302677e-18
4.6746493e-18
-7.1042656e-18
-6.660999e-31
1.3532572e-30
-6.8698383e-31
5.0351701e-18
-5.1104154e-18
7.1986081e-31
5.2768727e-18
0
0
-2.7530295e-18
3.8643248e-31
2.8257595e-18
2.8733132e-18
-2.9220356e-18
-8.8942527e-18
3.0003686e-18
3.0332669e-18
8.7276919e-34
3.114856e-18
0
-6.4134045e-18
-6.4956845e-18
3.2877329e-18
6.6585216e-18
3.3723407e-18
-6.8294528e-18
-6.9111107e-18
6.993899e-18
7.0829398e-18
0
-7.2672873e-18
3.6737988e-18
7.4216655e-18
-3.7503384e-18
-3.7957645e-18
5.464298e-34
-5.4050754e-31
-3.9353148e-18
3.9733578e-18
4.0125139e-18
-4.0567859e-18
5.6936749e-31
5.9010751e-34
5.8187752e-31
4.2347439e-18
-4.2756572e-18
1.7996482e-30
6.0636661e-31
1.2242729e-30
4.4509087e-18
-4.4902221e-18
6.294204e-31
1.2700175e-30
6.5771408e-34
9.3446509e-18
4.712727e-18
-4.7520681e-18
-9.5850113e-18
6.7118854e-31
9.7537105e-18
4.9203003e-18
-9.9286327e-18
-5.0074336e-18
5.0481768e-18
5.0871992e-18
1.4229455e-30
-5.1691681e-18
0
0
-5.291526e-18
0
5.3688986e-18
-5.4115412e-18
-7.7514553e-34
1.5248858e-30
0
5.5634389e-18
-5.6005531e-18
-5.6421157e-18
1.1369615e-17
5.7237948e-18
-5.7578049e-18
0
0
5.8658049e-18
-1.6404389e-30
-5.9402441e-18
0
0
6.0449552e-18
-2.5334165e-30
-6.1119578e-18
0
0
0
0
0
0
0
0
-1.2802901e-17
-3.5717529e-30
6.4654561e-18
-6.493263e-18
6.5202157e-18
-6.5490316e-18
1.8290831e-30
6.611133e-18
1.8433019e-30
6.6622588e-18
0
0
-6.7448339e-18
-1.8802915e-30
6.7945514e-18
0
0
0
0
0
0
0
-1.396256e-17
5.8294639e-30
1.4052434e-17
-7.0506253e-18
-1.0049052e-33
-7.088036e-18
3.9394532e-30
1.4246875e-17
7.1456736e-18
-9.486859e-49
-2.1553485e-17
0
1.4429832e-17
0
0
-1.4530643e-17
2.0194434e-30
2.1885877e-17
-7.3101647e-18
-7.3235219e-18
7.3362968e-18
-7.3505289e-18
7.3648602e-18
2.0461822e-30
-7.3862009e-18
7.3968775e-18
0
7.4203668e-18
-7.4297503e-18
-1.4878005e-17
7.4491782e-18
7.4576512e-18
7.4634004e-18
7.4691995e-18
-1.4953128e-17
-7.4856126e-18
7.4942383e-18
0
-7.501778e-18
7.5053808e-18
7.5113119e-18
-2.2552181e-17
-2.1375125e-33
1.5044485e-17
-7.5242416e-18
-1.0451067e-30
-7.529721e-18
2.1401755e-33
1.5060112e-17
-7.5310903e-18
0
2.0911923e-30
1.0698274e-33
7.5256945e-18
-7.5244964e-18
2.0891041e-30
1.0431081e-30
1.0681709e-33
7.5122626e-18
-7.5084107e-18
-2.252579e-49
2.0823129e-30
1.0647954e-33
1.4973459e-17
1.0375579e-30
-7.4740006e-18
0
0
7.450183e-18
3.0964876e-30
-7.4327167e-18
7.4225231e-18
-1.0291208e-30
-1.9025366e-48
1.0263587e-30
-7.38136e-18
-7.3692258e-18
-1.0203689e-30
7.3445698e-18
0
0
-7.3058205e-18
7.291622e-18
-6.0579318e-30
-7.2622965e-18
7.2474442e-18
0
-7.2166036e-18
-7.2004082e-18
7.1838585e-18
7.1669842e-18
0
-7.131993e-18
-7.1140844e-18
1.4192144e-17
7.0777682e-18
-7.058931e-18
-7.0395775e-18
-9.7364283e-31
-6.9999509e-18
-1.9381572e-30
1.3918939e-17
0
0
0
-6.8747227e-18
-6.8528045e-18
0
6.8083217e-18
9.4018464e-31
-6.7625465e-18
0
0
6.6920743e-18
9.2485001e-31
-9.2054939e-31
6.619506e-18
-6.5948592e-18
2.733695e-30
6.5447227e-18
0
6.4940159e-18
8.9806328e-31
-6.4423117e-18
6.4160705e-18
-6.3897748e-18
-6.3634416e-18
6.3369193e-18
0
-6.283001e-18
-6.2558e-18
6.2285692e-18
6.2012433e-18
0
6.1459875e-18
-6.1181018e-18
-6.0901298e-18
6.0620841e-18
1.2067833e-17
-3.3352798e-30
-1.7931663e-17
-1.3731525e-48
5.9202146e-18
1.1783062e-17
-3.2525909e-30
-1.1667709e-17
5.8049796e-18
-5.776103e-18
5.7471516e-18
5.7180755e-18
-1.1377807e-17
0
0
1.1202558e-17
1.1299853e-47
-1.1085366e-17
0
0
1.0909747e-17
1.1315463e-47
-1.0792366e-17
0
0
1.0616136e-17
5.2788382e-18
-1.0499309e-17
-5.2205003e-18
0
1.0324206e-17
-2.8506007e-30
-1.0207466e-17
5.0746871e-18
0
-5.016933e-18
4.9881255e-18
-7.0476076e-34
-4.9305174e-18
4.9017917e-18
-4.8731927e-18
-4.8447315e-18
4.8163627e-18
4.7880287e-18
-1.3216795e-30
-4.7315001e-18
4.703423e-18
1.2982848e-30
-4.6475972e-18
4.6197985e-18
-4.5921081e-18
-4.5645379e-18
4.5370623e-18
4.5096891e-18
-1.2446866e-30
-4.4553344e-18
4.4283271e-18
-6.2548053e-34
-4.3746532e-18
4.3480009e-18
-4.3214424e-18
-4.2949624e-18
4.2686057e-18
8.4849002e-18
-2.3428754e-30
-8.381335e-18
4.1648743e-18
-5.8820749e-34
-8.2270787e-18
-1.1619099e-33
4.0628581e-18
0
-4.0128381e-18
0
3.9632008e-18
0
0
0
3.8655195e-18
1.1555969e-48
-3.8175347e-18
0
-3.7699647e-18
1.0402982e-30
3.7229696e-18
0
0
0
3.6304587e-18
-1.0017797e-30
-3.5850509e-18
0
-3.5400993e-18
-9.7630863e-31
3.4955158e-18
0
-3.451478e-18
3.4296472e-18
-1.8935843e-30
-3.3862638e-18
3.3647436e-18
0
3.3220776e-18
9.1658981e-31
-3.2797676e-18
0
-3.2378747e-18
3.2171088e-18
1.7751702e-30
-3.175818e-18
1.751872e-30
4.4549074e-34
-8.6529209e-31
4.3973226e-34
3.0741949e-18
0
-3.0341067e-18
8.3655368e-31
8.3105378e-31
-9.4926873e-49
8.2053235e-31
0
5.8316066e-18
8.0426132e-31
-2.8769798e-18
2.8576431e-18
-7.8774751e-31
-2.819101e-18
-2.7999647e-18
-7.7220856e-31
7.6693671e-31
-2.742973e-18
2.7240182e-18
2.7050986e-18
0
2.6674881e-18
-7.3552181e-31
-2.6301676e-18
0
0
0
5.1116473e-18
-2.8183043e-30
-5.0379271e-18
0
0
0
0
0
0
0
4.7455319e-18
-1.3083385e-30
-4.6730493e-18
-2.3184422e-18
2.3003794e-18
2.2823293e-18
-6.2907355e-31
-1.2462457e-30
-2.2284191e-18
2.2105354e-18
-2.1926497e-18
-2.1747544e-18
2.1568569e-18
2.1389803e-18
-1.1774039e-30
-2.1034025e-18
-2.0856867e-18
5.7364795e-31
2.0502601e-18
2.0325479e-18
-2.0148482e-18
-1.9971794e-18
1.9795642e-18
-1.9619995e-18
0
1.9269281e-18
1.9094005e-18
-5.2480082e-31
-1.8743997e-18
1.8569675e-18
-1.8395845e-18
-1.8222314e-18
1.8048943e-18
-1.7875739e-18
-4.9157119e-31
1.7530216e-18
1.7358073e-18
2.4423144e-34
-3.4029516e-18
-9.3519347e-31
1.6673181e-18
1.6503067e-18
0
-1.6163644e-18
0
0
0
-1.5489924e-18
-1.532295e-18
1.5156273e-18
1.498987e-18
0
-1.4658682e-18
4.0268039e-31
1.4330294e-18
0
0
-1.3841383e-18
7.5932549e-31
1.3518753e-18
0
0
-1.3039687e-18
7.1500013e-31
1.2723414e-18
0
-1.2410593e-18
3.4030227e-31
-3.3583112e-31
3.3172589e-31
1.1793267e-18
0
1.1489854e-18
-6.2925117e-31
-1.1189198e-18
0
-1.0892047e-18
1.0745105e-18
1.0599074e-18
-2.0907643e-18
-2.8656181e-31
2.0331342e-18
-2.783234e-31
-9.8818189e-19
0
0
-9.4635443e-19
2.5882662e-31
9.1891293e-19
0
-8.9194767e-19
8.7863882e-19
8.654302e-19
-8.5232103e-19
0
8.2639355e-19
-8.1358204e-19
-4.4455798e-31
4.3758952e-31
-7.7591031e-19
6.3588487e-31
-7.5137647e-19
7.3926563e-19
-2.01844e-31
3.9729719e-31
1.4072503e-18
-1.9195284e-31
-6.8046132e-19
0
0
0
1.2711748e-18
6.2464203e-19
-1.2276453e-18
-6.0314159e-19
0
0
-5.7184812e-19
-4.89684e-49
5.5152336e-19
0
1.0634579e-18
5.2202866e-19
-1.0248859e-18
-5.0295856e-19
0
9.6864966e-19
1.3506268e-34
-1.3986808e-18
1.2687168e-31
8.9722888e-19
-4.3996055e-19
-2.4523211e-34
4.2300069e-19
-1.1521753e-31
-2.255545e-31
-3.9850802e-19
0
-3.8273185e-19
2.0821728e-31
7.3485569e-19
-3.5994876e-19
5.8701262e-31
3.4530273e-19
-6.7630062e-19
4.7054717e-35
3.2420145e-19
0
0
0
2.9753553e-19
-2.911485e-19
-5.6974501e-19
2.7869273e-19
7.5695533e-32
7.3954408e-32
2.6071298e-19
0
-2.4926088e-19
3.4628576e-35
4.7635268e-19
-2.3276872e-19
-1.2619509e-31
2.2226324e-19
2.1715956e-19
-1.1787271e-31
-4.1437861e-19
0
-1.9756804e-19
-1.9290559e-19
0
1.8383919e-19
1.7940891e-19
-1.750559e-19
0
1.66628e-19
0
0
-1.5460686e-19
1.2551763e-31
1.4692059e-19
0
0
-1.3601948e-19
-1.3253594e-19
1.2910379e-19
1.2572227e-19
-1.2240881e-19
-1.1917704e-19
2.3204865e-19
1.129451e-19
-3.0541156e-32
-1.0696328e-19
5.7719263e-32
5.6127037e-32
-9.8368417e-20
9.5641984e-20
-9.2982695e-20
9.0385502e-20
7.4896954e-35
-8.5333842e-20
1.6573687e-19
8.0457075e-20
7.810767e-20
-1.5163702e-19
-1.4717128e-19
7.1403504e-20
-6.9264255e-20
6.7166028e-20
-3.6161728e-32
-1.2622529e-19
6.1162375e-20
-1.644637e-32
1.5945406e-32
5.5571245e-20
0
0
-5.0373156e-20
-4.8722162e-20
0
4.5523107e-20
4.3986686e-20
0
4.1050088e-20
-1.1006044e-32
-3.8245343e-20
3.6885059e-20
-9.8651889e-33
-3.4284043e-20
0
-3.1837176e-20
-1.7020203e-32
2.9500875e-20
-2.8380546e-20
7.5683512e-33
2.6249837e-20
2.5227333e-20
6.7231319e-33
-2.3245707e-20
0
2.138621e-20
-2.0505673e-20
5.5845467e-36
-1.0446956e-32
-1.7996139e-20
1.7208712e-20
0
3.1440954e-20
-3.3329577e-32
-1.4318098e-20
-7.5748594e-33
-2.6000778e-20
2.4749777e-20
2.3540711e-20
-2.237343e-20
-2.1246702e-20
-1.0081218e-20
0
9.0466931e-21
1.7105375e-20
-1.1479409e-36
7.6264775e-21
-7.2004993e-21
-6.7892276e-21
6.3807793e-21
-1.19572e-20
1.1184558e-20
8.7052416e-33
-9.7724646e-21
9.1402841e-21
-2.3669842e-33
3.9564119e-21
-3.6511288e-21
-3.3580867e-21
3.0822048e-21
7.836876e-34
5.1742891e-21
-4.7238351e-21
-4.2778559e-21
3.8326202e-21
4.7189813e-34
1.4955318e-21
-7.2440231e-34
-1.1280597e-21
-2.6710334e-34
-3.1238019e-50
-6.3977793e-22
-9.7045485e-22
3.3967703e-22
5.5812121e-50
7.9151829e-23
-7.1564279e-35
1.6450903e-22
-5.6551044e-22
2.1816107e-34
9.8675416e-22
-4.3503079e-51
-6.7743465e-22
0
0
-9.4575733e-22
1.0228792e-21
2.1786921e-21
0
0
0
-1.34881e-21
-1.4128447e-21
0
1.5160845e-21
-1.5634942e-21
-2.6849829e-33
3.3204063e-21
0
0
0
-1.8161502e-21
-1.8508705e-21
1.888453e-21
-1.9246726e-21
-1.0835676e-33
3.9452436e-21
0
0
-4.0827796e-21
5.9017751e-37
2.0996253e-21
-2.1137967e-21
2.125871e-21
-2.1371961e-21
1.1949168e-33
4.3390795e-21
0
0
-2.1785557e-21
-2.1788043e-21
0
0
2.2113138e-21
2.2021695e-21
0
-2.167918e-21
-2.1739818e-21
2.1869634e-21
-2.1884422e-21
-2.1774518e-21
2.1629449e-21
2.1463198e-21
-1.1823564e-33
-2.110532e-21
2.0799978e-21
5.6798681e-34
-2.0294513e-21
0
-2.0122957e-21
1.0999879e-33
1.9408895e-21
-1.8909323e-21
1.0256323e-33
1.8304493e-21
0
-1.8029782e-21
4.8976677e-34
2.4413578e-37
-1.6660044e-21
1.6171972e-21
1.5844229e-21
0
-3.0591589e-21
1.6478995e-33
1.4309281e-21
1.9514572e-37
2.6447201e-21
-2.5732476e-21
-2.5160294e-21
2.440884e-21
1.1695584e-21
0
-2.1109079e-21
1.6749685e-33
1.9328583e-21
0
-1.7753482e-21
-4.6511964e-34
7.8361514e-22
2.029541e-34
1.366648e-21
-1.2815564e-21
-1.4978738e-33
1.1134339e-21
-1.020168e-21
2.5526936e-34
8.212032e-22
3.6659029e-22
-6.5747577e-22
-2.9363162e-22
5.1257029e-22
-4.2707106e-22
-4.1588064e-34
2.4524001e-22
-1.7423719e-22
1.5868745e-35
-2.6853591e-23
-9.2750941e-36
-1.4415075e-22
4.6594271e-35
2.2081325e-22
-1.3154052e-22
-3.0899658e-22
1.8723751e-22
-1.2801017e-34
2.6993306e-22
3.2268723e-34
-2.9531749e-22
5.9838628e-22
-2.5937632e-34
3.6902074e-34
-1.9837108e-34
-3.8231982e-22
0
-4.2443643e-22
-4.400455e-22
0
0
0
0
0
4.5878829e-22
4.7192379e-22
0
-4.8611512e-22
4.7753269e-22
7.7401594e-34
-9.0877667e-22
0
0
0
4.469314e-22
4.3279803e-22
-4.1366082e-22
-3.9576345e-22
7.6470663e-22
6.2388493e-34
-7.3542696e-22
0
6.5900287e-22
5.0259544e-34
-2.7575939e-22
2.5441947e-22
-2.3810013e-22
2.2275047e-22
1.1182961e-34
-3.4379531e-22
0
0
7.2908402e-23
4.6116918e-23
0
-6.2025051e-24
-1.1484178e-38
-7.9550526e-23
1.1963892e-22
4.7165886e-22
0
4.4465916e-22
5.1578698e-22
0
-1.0260206e-21
-7.7070171e-22
8.5242633e-22
-4.651303e-22
-5.0491814e-22
1.6410877e-21
5.9025453e-22
8.9930349e-38
6.7501595e-22
-7.1879143e-22
-7.6445784e-22
-8.1093061e-22
2.1260153e-51
-8.985588e-22
-9.3870913e-22
9.8078739e-22
0
2.1441511e-21
2.2345603e-21
0
-1.2001717e-21
-2.482616e-21
-7.1229955e-34
-1.325637e-21
-2.7322513e-21
2.8100645e-21
2.8869025e-21
1.4818396e-21
1.5185118e-21
0
-1.5842213e-21
-4.8449074e-21
1.64384e-21
-1.9564437e-49
-5.1477199e-21
3.5076633e-21
1.7816312e-21
1.8045086e-21
3.6556103e-21
-3.7043718e-21
-1.8738712e-21
1.8960865e-21
1.9177342e-21
1.9247119e-21
-5.7788969e-21
-1.9442803e-21
5.9289795e-21
2.0032594e-21
-2.0121404e-21
-4.0247535e-21
1.9772292e-21
-1.9524394e-21
3.3062354e-33
-3.3832937e-33
-6.1709488e-21
2.0580055e-21
2.0498795e-21
4.038385e-21
1.9752228e-21
-3.9305727e-21
-5.6539437e-37
-2.0164375e-21
2.0264188e-21
6.0586158e-21
-6.0179577e-21
-1.9754405e-21
5.806343e-21
0
-5.7623884e-21
-1.9258877e-21
5.7653237e-21
-1.9067434e-21
-3.7519953e-21
-1.0208882e-33
2.0136122e-33
1.8069369e-21
0
3.5682748e-21
3.5144557e-21
-1.7198956e-21
-1.6837333e-21
-3.3302583e-21
1.6550175e-21
1.6425105e-21
-3.2399412e-21
0
3.1194688e-21
3.063563e-21
-1.5077831e-21
-2.9637721e-21
8.0623703e-34
1.4250417e-21
-2.806416e-21
1.3831273e-21
-4.5276897e-33
-2.6624911e-21
1.3002464e-21
0
2.5066481e-21
0
-2.6869599e-33
-1.182713e-21
-2.3073268e-21
3.3861908e-21
-3.1609889e-37
-2.1969876e-21
0
2.1234512e-21
1.0384199e-21
-2.0340491e-21
1.1063289e-33
9.7696407e-22
-1.9214314e-21
9.4786723e-22
-1.5581631e-33
-1.8455843e-21
9.0697247e-22
-8.900067e-22
1.7520956e-21
2.5995513e-21
0
-2.5478e-21
-1.6733175e-21
2.469769e-21
1.6291927e-21
-8.1210811e-22
-1.6261132e-21
8.1039166e-22
7.9977677e-22
-1.5765657e-21
7.8147335e-22
1.5623434e-21
-7.8792122e-22
1.1294968e-37
-1.5903339e-21
-1.5765252e-21
2.3461148e-21
-7.809196e-22
-1.3088332e-33
2.3908182e-21
0
-2.440671e-21
-1.6241534e-21
8.1093237e-22
8.1401711e-22
8.2202805e-22
0
8.4976389e-22
-4.7658905e-34
-1.7215086e-21
4.7897686e-34
8.6925193e-22
0
8.9665913e-22
-1.8254253e-21
-2.7673695e-21
1.8523729e-21
2.7907584e-21
9.381922e-22
-9.5125835e-22
-1.9401353e-21
9.8646731e-22
-9.9552274e-22
-9.9953617e-22
2.0077665e-21
-2.0238936e-21
-1.0254374e-21
3.1330704e-21
2.1198859e-21
-1.0679194e-21
-3.215134e-21
2.3880995e-33
-2.4033447e-33
-1.0942503e-21
-1.2332761e-33
-1.1242092e-21
1.1300748e-21
1.1330109e-21
1.1361993e-21
-1.1415654e-21
-1.1511197e-21
3.4843032e-21
-1.1685879e-21
-2.3432652e-21
3.5169349e-21
3.3366263e-37
-1.1792168e-21
2.3764561e-21
1.1947906e-21
0
-1.1904616e-21
-1.18734e-21
-2.3721955e-21
1.1910652e-21
-3.9858253e-33
-3.5922793e-21
1.19438e-21
1.1894052e-21
1.1855112e-21
-1.1861722e-21
-1.1866611e-21
3.5428101e-21
-1.1723276e-21
-2.3249002e-21
-1.9230902e-33
-1.1545205e-21
2.3134096e-21
3.4618052e-21
6.3468057e-34
-6.2791042e-34
-1.5907896e-37
-1.1106247e-21
-2.2164424e-21
-1.1068677e-21
3.3023992e-21
-1.2096233e-33
-2.1553106e-21
0
0
1.0478152e-21
-5.7877863e-34
5.7447081e-34
1.0239542e-21
-2.0215303e-21
-9.9662947e-22
-1.0923338e-33
9.7590285e-22
2.9119659e-21
9.6416807e-22
0
0
0
-2.7437442e-21
-1.81575e-21
2.7019033e-21
-9.8667786e-34
-1.7474335e-21
0
0
1.6988396e-21
-1.873024e-33
-9.2104167e-34
1.6278089e-21
-8.0028523e-22
-1.5828127e-21
-1.5788612e-21
7.8666715e-22
2.3335881e-21
7.6332537e-22
0
0
0
-2.2013803e-21
-1.4590063e-21
2.1523174e-21
-1.5607577e-33
-6.904072e-22
9.7148614e-38
-6.8326115e-22
1.3686277e-21
-7.5460683e-34
-6.6673786e-22
1.3053512e-21
0
-3.5415354e-34
-1.2777985e-21
-1.2783029e-21
1.899409e-21
1.2413131e-21
-6.0811369e-22
-3.3320273e-34
5.9850901e-22
-1.8020718e-21
-1.1999515e-21
5.9236393e-22
5.7955678e-22
-5.6766102e-22
-5.6142994e-22
5.6116751e-22
5.639981e-22
-3.1243524e-34
3.078802e-34
5.4259754e-22
0
5.2685693e-22
-1.0549052e-21
-1.5903073e-21
1.0548442e-21
1.0339397e-21
5.0354071e-22
-5.4734801e-34
-9.799878e-22
4.9312837e-22
-4.9726488e-22
-4.9541832e-22
9.7013433e-22
-9.4101045e-22
-4.589084e-22
4.5470893e-22
9.1374545e-22
4.6087842e-22
-9.2196294e-22
2.5207178e-34
-4.4292499e-22
-4.3281969e-22
1.2827222e-21
-4.2697523e-22
-4.2888977e-22
1.2859622e-21
-6.0206669e-38
-1.2453682e-21
-4.0767195e-22
1.2141416e-21
-4.0578918e-22
2.1936552e-51
-6.7813609e-34
-8.0209719e-22
7.8579016e-22
7.754599e-22
-3.8854868e-22
4.3724366e-34
7.9913586e-22
-3.9938261e-22
-1.173482e-21
-3.8170103e-22
3.7823661e-22
0
3.9403339e-22
8.0881346e-22
-5.8219262e-38
-1.2224285e-21
-4.0115752e-22
7.95975e-22
-5.6927894e-38
-8.1721168e-22
8.4031716e-22
-7.1803399e-34
-8.7813821e-22
1.3318414e-21
8.9612857e-22
0
0
-4.6934219e-22
-1.4360367e-21
-4.8892838e-22
1.5010626e-21
-5.6957197e-34
-1.0520397e-21
1.0745707e-21
1.0925558e-21
-5.5615849e-22
-1.1378881e-21
5.849289e-22
6.0407169e-22
-1.8655097e-21
-6.3485919e-22
-1.0732536e-33
3.6358581e-34
6.7129257e-22
-6.9279063e-22
1.4369126e-21
2.224259e-21
0
-2.3018951e-21
-1.559111e-21
2.3866434e-21
-2.3210994e-37
-8.4455554e-22
1.7442403e-21
-8.927652e-22
-9.0724442e-22
-1.0237277e-33
9.3916281e-22
1.9174431e-21
-9.8355588e-22
-2.0175203e-21
-2.0588491e-21
1.1612046e-33
1.0612762e-21
-1.0768823e-21
2.1909693e-21
3.3679656e-21
0
-3.4847581e-21
-2.3486754e-21
3.5441889e-21
-1.3209669e-33
-1.2106073e-21
1.2429376e-21
1.2673223e-21
-7.0953199e-34
-2.5743214e-21
7.1314677e-34
2.5654629e-21
-1.4433991e-33
-1.4785785e-33
-2.7124452e-21
-4.1025002e-21
2.7450545e-21
-1.5192343e-33
-4.5184072e-33
1.3589066e-21
1.3819964e-21
2.8054432e-21
-4.2386203e-21
-1.4150136e-21
2.8081602e-21
-2.7686626e-21
-7.8316195e-37
4.1832654e-21
1.4076364e-21
-1.4095443e-21
-4.213274e-21
4.5723973e-33
2.6773555e-21
1.3358191e-21
-2.7045033e-21
-4.0976855e-21
4.0962221e-21
1.3494228e-21
1.4743271e-33
1.2893119e-21
-2.5092532e-21
6.9474921e-34
-1.2560823e-21
1.2544481e-21
-4.1444113e-33
-3.6752477e-21
3.6025505e-21
3.5269135e-21
0
0
0
-1.0662913e-21
-3.1535558e-21
-1.0327957e-21
-1.1155163e-33
-9.7145221e-22
2.8071374e-21
9.0222389e-22
-8.7645638e-22
-8.5319743e-22
-8.2627458e-22
1.5870158e-21
-7.578982e-22
7.2478138e-22
-2.3141348e-33
-1.3295453e-21
1.8896889e-21
1.183012e-21
0
-1.0502559e-21
-5.5214336e-34
4.6657624e-22
-1.2920613e-21
-3.9195194e-22
3.5443493e-22
0
0
2.674546e-22
4.6988518e-22
-4.3626516e-34
-3.1622721e-22
-1.2592851e-22
1.0018748e-22
-7.6604068e-23
5.0504153e-23
1.7545947e-49
2.4077642e-35
-1.3993105e-22
0
0
2.3728872e-22
2.9140992e-22
1.7646416e-22
-2.2548878e-34
-6.6144811e-22
2.576618e-34
4.889833e-22
0
-5.6934751e-22
-3.1289046e-22
6.7795571e-22
-3.5427358e-22
-3.5925922e-22
1.0859556e-21
-3.6785664e-22
1.2569151e-33
7.7789149e-22
-1.200983e-21
-8.1851085e-22
0
0
0
1.2695369e-21
8.320097e-22
-1.2310848e-21
-8.1551153e-22
0
8.2954988e-22
-4.6010869e-34
-4.0282002e-22
7.6837739e-22
-3.6643938e-22
3.5349157e-22
3.4555302e-22
-1.0253994e-21
6.752624e-22
6.4914189e-22
-3.0138484e-22
2.7492194e-22
-5.0197307e-22
-6.9402649e-22
0
6.1199992e-22
3.8005482e-22
-1.6814805e-22
-1.3898358e-22
1.1973097e-34
-7.8751137e-23
1.7730656e-34
3.1538226e-23
7.0077397e-36
4.1963704e-51
3.2685964e-23
0
9.689694e-23
-2.5933607e-22
-4.8130729e-22
5.6520614e-22
6.3802711e-22
0
-5.1571976e-22
-5.7318597e-22
6.3868819e-22
-3.5415257e-22
-3.8790491e-22
1.2519206e-21
-8.8241617e-22
-9.2482242e-22
4.8572788e-22
1.024855e-21
5.4137981e-22
-1.7170188e-21
-6.0267819e-22
-1.0488849e-33
1.3068633e-21
3.8310509e-37
-2.0814953e-21
1.4302215e-21
2.2114255e-21
7.6077548e-22
-2.3625113e-21
-1.6242896e-21
2.4916969e-21
-1.8764927e-33
-1.719377e-21
-8.7311358e-22
4.9291197e-34
1.8211118e-21
-1.0351981e-33
9.4484157e-22
9.5279057e-22
-2.8696856e-21
-9.6032312e-22
-1.0832979e-33
1.9913387e-21
-3.3645475e-33
-3.0426192e-21
2.0140248e-21
-1.1004573e-33
-1.0999787e-33
-2.2508203e-33
-1.0394119e-21
3.1583132e-21
-1.0471743e-21
-1.7246577e-33
-3.3314677e-33
-2.9379414e-21
1.0014691e-21
2.0532011e-21
-1.1554332e-33
1.040166e-21
1.0271904e-21
-2.0143132e-21
-1.9498553e-21
1.064175e-33
2.9132429e-21
-1.0933425e-33
-9.8887672e-22
1.9605558e-21
-9.6266149e-22
-9.3681197e-22
5.0365098e-34
-4.967064e-34
8.995194e-22
-1.8101264e-21
8.9999822e-22
-2.9446573e-33
-2.874624e-33
2.5090023e-21
-1.6248073e-21
2.2793049e-37
1.600117e-21
-7.9717904e-22
-2.3597696e-21
-7.6697374e-22
2.2352352e-21
-8.0233686e-34
-7.034758e-22
1.3836948e-21
-1.3679416e-21
-3.3643109e-33
6.5777146e-22
-6.3842196e-22
6.1770813e-22
-1.1988638e-21
5.859438e-22
1.7284565e-21
0
0
-1.0633839e-21
-1.4541648e-37
9.8933478e-22
-4.8261485e-22
-1.424502e-21
-4.6701018e-22
1.3653125e-21
1.2443405e-37
4.6614699e-34
8.1066659e-22
-1.1859746e-21
-1.9440613e-33
3.8236487e-22
-3.7195487e-22
-3.5775543e-22
3.8189436e-34
3.3403177e-22
-6.5644731e-22
6.4752574e-22
-1.0543776e-33
-6.096372e-22
8.7906381e-22
5.7283491e-22
-2.8531538e-22
-8.5969266e-22
-2.8446719e-22
2.7490892e-22
0
-2.4675677e-22
2.4480167e-22
7.54829e-22
1.4451155e-34
-5.2975201e-22
2.6200052e-22
2.5161732e-22
-4.793362e-22
2.3335277e-22
-2.3498857e-22
-4.8478235e-22
7.5334309e-22
-8.5816549e-34
5.7917923e-34
5.2130979e-22
-5.1731953e-22
-2.5622219e-22
-2.5533109e-22
-2.8656567e-34
2.6448465e-22
-5.4771927e-22
5.6663436e-22
8.7084882e-22
0
-2.9113046e-22
1.6145069e-34
8.3894306e-38
-9.1275309e-22
-3.1635168e-22
9.8409e-22
-3.3566175e-22
-2.2656119e-51
1.0139939e-21
-3.4088417e-22
-1.0457652e-21
-3.5995542e-22
7.4508875e-22
-3.8304724e-22
3.8925286e-22
-1.3059276e-33
-7.9168819e-22
1.2076711e-21
4.5734104e-34
-1.876467e-33
8.6426309e-22
-8.779517e-22
-4.9319657e-34
4.5033111e-22
-9.1659021e-22
-4.676175e-22
0
0
9.7066916e-22
-1.0858917e-33
-2.816976e-37
-5.6051736e-34
-5.1614889e-22
-5.2482936e-22
5.2848129e-22
5.2932962e-22
-1.0627406e-21
1.0736933e-21
-6.0570846e-34
-1.1122471e-21
1.1281424e-21
1.8876955e-33
-6.2865648e-34
5.6684539e-22
-1.139673e-21
5.75045e-22
-1.2928997e-33
-1.177928e-21
0
1.1840003e-21
5.9170496e-22
-1.1852303e-21
-5.9479904e-22
5.9863147e-22
-1.0049669e-33
-6.0526309e-22
0
0
1.1928363e-21
1.192518e-21
0
-1.2097214e-21
-6.0711042e-22
6.0341604e-22
-5.960986e-22
5.8957012e-22
0
-1.1741984e-21
0
0
5.9284818e-22
-6.5045654e-34
-5.7847367e-22
0
5.6984214e-22
3.1591274e-34
-5.6937157e-22
0
1.1255824e-21
1.114029e-21
-5.5207615e-22
-6.0851917e-34
5.4577033e-22
-1.0866314e-21
-1.0781081e-21
1.065308e-21
1.495347e-37
1.1568467e-33
1.4715407e-37
-1.0332786e-21
5.1401105e-22
-5.642714e-34
5.0126426e-22
-4.9470945e-22
-1.4724072e-21
1.4706271e-21
4.9113138e-22
-4.887301e-22
-5.3316951e-34
-4.7087102e-22
9.2835872e-22
9.2318257e-22
-9.2697848e-22
-1.5538423e-33
-4.6649668e-22
-4.6111389e-22
9.0872507e-22
-4.4984959e-22
4.9718304e-34
-2.4892013e-34
4.4837695e-22
8.9225724e-22
-8.860733e-22
-8.8196446e-22
0
4.4312806e-22
4.9275796e-34
-8.8234468e-22
-4.8502595e-34
1.3005715e-21
8.6767212e-22
0
-8.8898688e-22
-9.9279438e-34
-4.4400499e-22
-4.3944146e-22
1.3114661e-21
-2.4363922e-34
-8.9099733e-22
4.5350649e-22
9.1508711e-22
-4.5517532e-22
-9.0262552e-22
-4.4976403e-22
0
9.1829157e-22
-4.679802e-22
-1.4186845e-21
4.7185002e-22
4.6884653e-22
9.3431115e-22
4.6915511e-22
-9.5150623e-22
-4.8473064e-22
-4.9028207e-22
5.4432888e-34
4.8783087e-22
4.8576891e-22
9.7371256e-22
4.9238275e-22
0
0
0
-1.0050125e-21
-9.9767791e-22
9.9594242e-22
5.5687517e-34
5.6507579e-34
-5.7031938e-34
-1.1398331e-33
1.0180533e-21
0
-1.0029021e-21
-5.0347523e-22
5.0926156e-22
-5.1197949e-22
-5.0807519e-22
0
0
9.6875456e-22
-1.6167024e-33
-1.0904388e-33
9.9156348e-22
-9.8674617e-22
-9.6346696e-22
0
9.12063e-22
-4.9825122e-34
-8.9605421e-22
8.9888669e-22
4.9849869e-34
-8.8863351e-22
0
8.4507509e-22
4.0954518e-22
-7.9422072e-22
3.8555871e-22
8.3688552e-34
-7.4435063e-22
7.3688834e-22
7.2174801e-22
0
0
0
-5.8604629e-22
-5.7234068e-22
5.6477662e-22
0
-5.2646811e-22
0
-2.2109115e-22
4.0330778e-22
1.8787245e-22
-1.7850589e-22
3.3978047e-22
1.5885688e-22
-2.8868731e-22
-1.2617579e-22
-1.1752942e-34
8.6103812e-23
-1.5289933e-34
3.1209534e-38
8.6246326e-23
0
-1.681909e-23
9.7560896e-25
2.048112e-23
0
0
0
8.1043029e-23
-1.8782088e-22
-1.0964274e-22
1.283895e-22
1.4804852e-22
-1.6418984e-22
-1.7555682e-22
3.7016423e-22
0
-4.1943042e-22
-4.5260081e-22
0
0
5.3393065e-22
3.0529889e-34
2.8431837e-22
2.9645671e-22
-3.1055443e-22
3.228844e-22
-3.3096707e-22
-6.724952e-22
-3.4214399e-22
0
7.2213789e-22
4.1310568e-34
-3.7850793e-22
3.795711e-22
3.7954148e-22
7.6336991e-22
-7.748479e-22
-3.9639129e-22
1.1503047e-37
-4.066614e-22
8.0434075e-22
-3.964904e-22
3.9326012e-22
-1.9139391e-51
-3.9640309e-22
7.9933548e-22
-7.9861665e-22
-7.8817467e-22
0
3.7994993e-22
7.4970527e-22
-2.0564441e-34
-3.6436055e-22
-3.5578877e-22
6.9270525e-22
6.7481149e-22
-3.300018e-22
-6.4749086e-22
-6.3076892e-22
3.028205e-22
5.7532702e-22
-2.729053e-22
2.5996668e-22
-4.1548921e-34
-2.4043004e-22
4.5778105e-22
-4.2614718e-22
-2.1612414e-34
9.7995076e-34
-3.2000368e-22
2.9118566e-22
5.8895596e-34
-1.1898538e-22
2.0568633e-22
-8.4475625e-23
1.8533676e-38
-2.0381364e-34
-2.6809752e-23
1.6444852e-23
2.0777518e-35
-1.4131796e-35
4.0634619e-23
-1.6285892e-38
-1.5408015e-22
1.9773527e-22
6.8796226e-38
-6.2796328e-34
3.1610918e-22
-3.4312574e-22
-4.1319601e-34
4.0825197e-22
-2.2494076e-22
-2.4702219e-22
-2.6744393e-22
2.8358254e-22
-3.2888003e-34
-6.1961454e-22
0
0
7.2998097e-22
1.0889909e-37
-7.9353321e-22
4.0789019e-22
-4.6592225e-34
4.3392872e-22
9.9982214e-34
-9.3465536e-22
0
-4.8915145e-22
9.9303694e-22
5.0492314e-22
-1.1465076e-33
5.3326815e-22
-1.1012339e-21
5.6051099e-22
-6.2237735e-34
-1.1200166e-21
0
0
5.8167532e-22
-3.3289754e-34
6.1249905e-22
-6.1528571e-22
-1.8323662e-21
1.8215987e-21
6.0407341e-22
-1.2069107e-21
6.099612e-22
1.0314696e-33
6.2704445e-22
-3.5890647e-37
-2.0995624e-33
6.2399595e-22
-1.2339767e-21
-6.0969155e-22
0
-6.0326167e-22
6.0689695e-22
6.1076473e-22
6.0859654e-22
-1.3298243e-33
6.5171634e-34
-6.3813099e-34
-1.1310233e-21
5.6252828e-22
9.377469e-34
-1.1248713e-21
7.8970983e-38
5.4230841e-22
1.0558769e-21
1.0289783e-21
-1.0080916e-21
-5.5449279e-34
-4.9630481e-22
-4.897075e-22
9.546117e-22
-9.223905e-22
-4.449937e-22
1.2954665e-21
8.4685543e-22