/*--------------------------------*- C++ -*----------------------------------*\
  =========                 |
  \\      /  F ield         | OpenFOAM: The Open Source CFD Toolbox
   \\    /   O peration     | Website:  https://openfoam.org
    \\  /    A nd           | Version:  7
     \\/     M anipulation  |
\*---------------------------------------------------------------------------*/
FoamFile
{
    version     2.0;
    format      ascii;
    class       volScalarField;
    location    "0.00042";
    object      p;
}
// * * * * * * * * * * * * * * * * * * * * * * * * * * * * * * * * * * * * * //

dimensions      [1 -1 -2 0 0 0 0];

internalField   nonuniform List<scalar> 
5000
(
120000
120000
120000
120000
120000
120000
120000
120000
120000
120000
120000
120000
120000
120000
120000
120000
120000
120000
120000
120000
120000
120000
120000
120000
120000
120000
120000
120000
120000
120000
120000
120000
120000
120000
120000
120000
120000
120000
120000
120000
120000
120000
120000
120000
120000
120000
120000
120000
120000
120000
120000
120000
120000
120000
120000
120000
120000
120000
120000
120000
120000
120000
120000
120000
120000
120000
120000
120000
120000
120000
120000
120000
120000
120000
120000
120000
120000
120000
120000
120000
120000
120000
120000
120000
120000
120000
120000
120000
120000
120000
120000
120000
120000
120000
120000
120000
120000
120000
120000
120000
120000
120000
120000
120000
120000
120000
120000
120000
120000
120000
120000
120000
120000
120000
120000
120000
120000
120000
120000
120000
120000
120000
120000
120000
120000
120000
120000
120000
120000
120000
120000
120000
120000
120000
120000
120000
120000
120000
120000
120000
120000
120000
120000
120000
120000
120000
120000
120000
120000
120000
120000
120000
120000
120000
120000
120000
120000
120000
120000
120000
120000
120000
120000
120000
120000
120000
120000
120000
120000
120000
120000
120000
120000
120000
120000
120000
120000
120000
120000
120000
120000
120000
120000
120000
120000
120000
120000
120000
120000
120000
120000
120000
120000
120000
120000
120000
120000
120000
120000
120000
120000
120000
120000
120000
120000
120000
120000
120000
120000
120000
120000
120000
120000
120000
120000
120000
120000
120000
120000
120000
120000
120000
120000
120000
120000
120000
120000
120000
120000
120000
120000
120000
120000
120000
120000
120000
120000
120000
120000
120000
120000
120000
120000
120000
120000
120000
120000
120000
120000
120000
120000
120000
120000
120000
120000
120000
120000
120000
120000
120000
120000
120000
120000
120000
120000
120000
120000
120000
120000
120000
120000
120000
120000
120000
120000
120000
120000
120000
120000
120000
120000
120000
120000
120000
120000
120000
120000
120000
120000
120000
120000
120000
120000
120000
120000
120000
120000
120000
120000
120000
120000
120000
120000
120000
120000
120000
120000
120000
120000
120000
120000
120000
120000
120000
120000
120000
120000
120000
120000
120000
120000
120000
120000
120000
120000
120000
120000
120000
120000
120000
120000
120000
120000
120000
120000
120000
120000
120000
120000
120000
120000
120000
120000
120000
120000
120000
120000
120000
120000
120000
120000
120000
120000
120000
120000
120000
120000
120000
120000
120000
120000
120000
120000
120000
120000
120000
120000
120000
120000
120000
120000
120000
120000
120000
120000
120000
120000
120000
120000
120000
120000
120000
120000
120000
120000
120000
120000
120000
120000
120000
120000
120000
120000
120000
120000
120000
120000
120000
120000
120000
120000
120000
120000
120000
120000
120000
120000
120000
120000
120000
120000
120000
120000
120000
120000
120000
120000
120000
120000
120000
120000
120000
120000
120000
120000
120000
120000
120000
120000
120000
120000
120000
120000
120000
120000
120000
120000
120000
120000
120000
120000
120000
120000
120000
120000
120000
120000
120000
120000
120000
120000
120000
120000
120000
120000
120000
120000
120000
120000
120000
120000
120000
120000
120000
120000
120000
120000
120000
120000
120000
120000
120000
120000
120000
120000
120000
120000
120000
120000
120000
120000
120000
120000
120000
120000
120000
120000
120000
120000
120000
120000
120000
120000
120000
120000
120000
120000
120000
120000
120000
120000
120000
120000
120000
120000
120000
120000
120000
120000
120000
120000
120000
120000
120000
120000
120000
120000
120000
120000
120000
120000
120000
120000
120000
120000
120000
120000
120000
120000
120000
120000
120000
120000
120000
120000
120000
120000
120000
120000
120000
120000
120000
120000
120000
120000
120000
120000
120000
120000
120000
120000
120000
120000
120000
120000
120000
120000
120000
120000
120000
120000
120000
120000
120000
120000
120000
120000
120000
120000
120000
120000
120000
120000
120000
120000
120000
120000
120000
120000
120000
120000
120000
120000
120000
120000
120000
120000
120000
120000
120000
120000
120000
120000
120000
120000
120000
120000
120000
120000
120000
120000
120000
120000
120000
120000
120000
120000
120000
120000
120000
120000
120000
120000
120000
120000
120000
120000
120000
120000
120000
120000
120000
120000
120000
120000
120000
120000
120000
120000
120000
120000
120000
120000
120000
120000
120000
120000
120000
120000
120000
120000
120000
120000
120000
120000
120000
120000
120000
120000
120000
120000
120000
120000
120000
120000
120000
120000
120000
120000
120000
120000
120000
120000
120000
120000
120000
120000
120000
120000
120000
120000
120000
120000
120000
120000
120000
120000
120000
120000
120000
120000
120000
120000
120000
120000
120000
120000
120000
120000
120000
120000
120000
120000
120000
120000
120000
120000
120000
120000
120000
120000
120000
120000
120000
120000
120000
120000
120000
120000
120000
120000
120000
120000
120000
120000
120000
120000
120000
120000
120000
120000
120000
120000
120000
120000
120000
120000
120000
120000
120000
120000
120000
120000
120000
120000
120000
120000
120000
120000
120000
120000
120000
120000
120000
120000
120000
120000
120000
120000
120000
120000
120000
120000
120000
120000
120000
120000
120000
120000
120000
120000
120000
120000
120000
120000
120000
120000
120000
120000
120000
120000
120000
120000
120000
120000
120000
120000
120000
120000
120000
120000
120000
120000
120000
120000
120000
120000
120000
120000
120000
120000
120000
120000
120000
120000
120000
120000
120000
120000
120000
120000
120000
120000
120000
120000
120000
120000
120000
120000
120000
120000
120000
120000
120000
120000
120000
120000
120000
120000
120000
120000
120000
120000
120000
120000
120000
120000
120000
120000
120000
120000
120000
120000
120000
120000
120000
120000
120000
120000
120000
120000
120000
120000
120000
120000
120000
120000
120000
120000
120000
120000
120000
120000
120000
120000
120000
120000
120000
120000
120000
120000
120000
120000
120000
120000
120000
120000
120000
120000
120000
120000
120000
120000
120000
120000
120000
120000
120000
120000
120000
120000
120000
120000
120000
120000
120000
120000
120000
120000
120000
120000
120000
120000
120000
120000
120000
120000
120000
120000
120000
120000
120000
120000
120000
120000
120000
120000
120000
120000
120000
120000
120000
120000
120000
120000
120000
120000
120000
120000
120000
120000
120000
120000
120000
120000
120000
120000
120000
120000
120000
120000
120000
120000
120000
120000
120000
120000
120000
120000
120000
120000
120000
120000
120000
120000
120000
120000
120000
120000
120000
120000
120000
120000
120000
120000
120000
120000
120000
120000
120000
120000
120000
120000
120000
120000
120000
120000
120000
120000
120000
120000
120000
120000
120000
120000
120000
120000
120000
120000
120000
120000
120000
120000
120000
120000
120000
120000
120000
120000
120000
120000
120000
120000
120000
120000
120000
120000
120000
120000
120000
120000
120000
120000
120000
120000
120000
120000
120000
120000
120000
120000
120000
120000
120000
120000
120000
120000
120000
120000
120000
120000
120000
120000
120000
120000
120000
120000
120000
120000
120000
120000
120000
120000
120000
120000
120000
120000
120000
120000
120000
120000
120000
120000
120000
120000
120000
120000
120000
120000
120000
120000
120000
120000
120000
120000
120000
120000
120000
120000
120000
120000
120000
120000
120000
120000
120000
120000
120000
120000
120000
120000
120000
120000
120000
120000
120000
120000
120000
120000
120000
120000
120000
120000
120000
120000
120000
120000
120000
120000
120000
120000
120000
120000
120000
120000
120000
120000
120000
120000
120000
120000
120000
120000
120000
120000
120000
120000
120000
120000
120000
120000
120000
120000
120000
120000
120000
120000
120000
120000
120000
120000
120000
120000
120000
120000
120000
120000
120000
120000
120000
120000
120000
120000
120000
120000
120000
120000
120000
120000
120000
120000
120000
120000
120000
120000
120000
120000
120000
120000
120000
120000
120000
120000
120000
120000
120000
120000
120000
120000
120000
120000
120000
120000
120000
120000
120000
120000
120000
120000
120000
120000
120000
120000
120000
120000
120000
120000
120000
120000
120000
120000
120000
120000
120000
120000
120000
120000
120000
120000
120000
120000
120000
120000
120000
120000
120000
120000
120000
120000
120000
120000
120000
120000
120000
120000
120000
120000
120000
120000
120000
120000
120000
120000
120000
120000
120000
120000
120000
120000
120000
120000
120000
120000
120000
120000
120000
120000
120000
120000
120000
120000
120000
120000
120000
120000
120000
120000
120000
120000
120000
120000
120000
120000
120000
120000
120000
120000
120000
120000
120000
120000
120000
120000
120000
120000
120000
120000
120000
120000
120000
120000
120000
120000
120000
120000
120000
120000
120000
120000
120000
120000
120000
120000
120000
120000
120000
120000
120000
120000
120000
120000
120000
120000
120000
120000
120000
120000
120000
120000
120000
120000
120000
120000
120000
120000
120000
120000
120000
120000
120000
120000
120000
120000
120000
120000
120000
120000
120000
120000
120000
120000
120000
120000
120000
120000
120000
120000
120000
120000
120000
120000
120000
120000
120000
120000
120000
120000
120000
120000
120000
120000
120000
120000
120000
120000
120000
120000
120000
120000
120000
120000
120000
120000
120000
120000
120000
120000
120000
120000
120000
120000
120000
120000
120000
120000
120000
120000
120000
120000
120000
120000
120000
120000
120000
120000
120000
120000
120000
120000
120000
120000
120000
120000
120000
120000
120000
120000
120000
120000
120000
120000
120000
120000
120000
120000
120000
120000
120000
120000
120000
120000
120000
120000
120000
120000
120000
120000
120000
120000
120000
120000
120000
120000
120000
120000
120000
120000
120000
120000
120000
120000
120000
120000
120000
120000
120000
120000
120000
120000
120000
120000
120000
120000
120000
120000
120000
120000
120000
120000
120000
120000
120000
120000
120000
120000
120000
120000
120000
120000
120000
120000
120000
120000
120000
120000
120000
120000
120000
120000
120000
120000
120000
120000
120000
120000
120000
120000
120000
120000
120000
120000
120000
120000
120000
120000
120000
120000
120000
120000
120000
120000
120000
120000
120000
120000
120000
120000
120000
120000
120000
120000
120000
120000
120000
120000
120000
120000
120000
120000
120000
120000
120000
120000
120000
120000
120000
120000
120000
120000
120000
120000
120000
120000
120000
120000
120000
120000
120000
120000
120000
120000
120000
120000
120000
120000
120000
120000
120000
120000
120000
120000
120000
120000
120000
120000
120000
120000
120000
120000
120000
120000
120000
120000
120000
120000
120000
120000
120000
120000
120000
120000
120000
120000
120000
120000
120000
120000
120000
120000
120000
120000
120000
120000
120000
120000
120000
120000
120000
120000
120000
120000
119999.99
119999.99
119999.99
119999.99
119999.99
119999.99
119999.99
119999.99
119999.99
119999.99
119999.99
119999.98
119999.98
119999.98
119999.98
119999.98
119999.97
119999.97
119999.97
119999.97
119999.96
119999.96
119999.95
119999.95
119999.94
119999.94
119999.93
119999.93
119999.92
119999.91
119999.9
119999.89
119999.89
119999.87
119999.86
119999.85
119999.84
119999.82
119999.8
119999.79
119999.77
119999.74
119999.72
119999.7
119999.67
119999.64
119999.61
119999.57
119999.53
119999.49
119999.45
119999.4
119999.35
119999.29
119999.23
119999.16
119999.09
119999.01
119998.93
119998.84
119998.74
119998.64
119998.53
119998.4
119998.27
119998.13
119997.98
119997.82
119997.64
119997.45
119997.25
119997.03
119996.79
119996.54
119996.27
119995.98
119995.67
119995.34
119994.99
119994.6
119994.2
119993.76
119993.29
119992.8
119992.26
119991.7
119991.09
119990.44
119989.75
119989.02
119988.23
119987.4
119986.51
119985.57
119984.56
119983.49
119982.36
119981.15
119979.87
119978.51
119977.07
119975.54
119973.92
119972.2
119970.39
119968.46
119966.43
119964.28
119962
119959.6
119957.06
119954.39
119951.56
119948.58
119945.44
119942.13
119938.65
119934.98
119931.12
119927.06
119922.8
119918.32
119913.61
119908.67
119903.48
119898.05
119892.35
119886.38
119880.13
119873.58
119866.73
119859.57
119852.08
119844.26
119836.09
119827.57
119818.67
119809.39
119799.72
119789.64
119779.14
119768.21
119756.85
119745.02
119732.73
119719.96
119706.7
119692.93
119678.64
119663.83
119648.47
119632.55
119616.06
119599
119581.34
119563.07
119544.18
119524.67
119504.51
119483.69
119462.21
119440.05
119417.21
119393.66
119369.4
119344.41
119318.7
119292.24
119265.03
119237.06
119208.32
119178.79
119148.48
119117.38
119085.46
119052.74
119019.2
118984.84
118949.64
118913.61
118876.74
118839.03
118800.46
118761.04
118720.77
118679.63
118637.64
118594.78
118551.06
118506.48
118461.03
118414.72
118367.54
118319.51
118270.62
118220.87
118170.26
118118.81
118066.52
118013.38
117959.41
117904.61
117848.99
117792.56
117735.32
117677.27
117618.44
117558.82
117498.43
117437.28
117375.38
117312.74
117249.36
117185.27
117120.47
117054.98
116988.81
116921.97
116854.49
116786.36
116717.62
116648.26
116578.32
116507.8
116436.72
116365.1
116292.95
116220.3
116147.16
116073.55
115999.49
115924.99
115850.08
115774.77
115699.09
115623.06
115546.69
115470
115393.02
115315.77
115238.27
115160.54
115082.6
115004.48
114926.19
114847.75
114769.2
114690.56
114611.83
114533.06
114454.26
114375.45
114296.66
114217.92
114139.24
114060.64
113982.16
113903.82
113825.63
113747.63
113669.84
113592.27
113514.96
113437.93
113361.2
113284.8
113208.74
113133.06
113057.78
112982.91
112908.49
112834.53
112761.06
112688.1
112615.67
112543.8
112472.51
112401.81
112331.74
112262.31
112193.54
112125.46
112058.08
111991.42
111925.5
111860.35
111795.98
111732.4
111669.64
111607.71
111546.63
111486.41
111427.07
111368.63
111311.09
111254.48
111198.8
111144.06
111090.28
111037.47
110985.63
110934.78
110884.92
110836.07
110788.21
110741.38
110695.55
110650.75
110606.97
110564.22
110522.49
110481.79
110442.11
110403.46
110365.83
110329.21
110293.61
110259.02
110225.43
110192.83
110161.22
110130.59
110100.92
110072.22
110044.46
110017.63
109991.73
109966.74
109942.64
109919.42
109897.07
109875.57
109854.9
109835.05
109816
109797.73
109780.22
109763.46
109747.43
109732.1
109717.46
109703.49
109690.18
109677.49
109665.41
109653.93
109643.02
109632.66
109622.83
109613.52
109604.7
109596.36
109588.48
109581.03
109574.01
109567.39
109561.16
109555.29
109549.78
109544.6
109539.75
109535.2
109530.93
109526.95
109523.22
109519.74
109516.49
109513.47
109510.65
109508.03
109505.6
109503.34
109501.24
109499.3
109497.51
109495.85
109494.31
109492.9
109491.59
109490.39
109489.28
109488.27
109487.33
109486.48
109485.7
109484.98
109484.32
109483.73
109483.18
109482.68
109482.23
109481.82
109481.44
109481.1
109480.79
109480.52
109480.26
109480.04
109479.83
109479.65
109479.48
109479.33
109479.19
109479.07
109478.97
109478.87
109478.78
109478.71
109478.64
109478.58
109478.52
109478.47
109478.43
109478.39
109478.36
109478.33
109478.31
109478.29
109478.27
109478.25
109478.24
109478.23
109478.22
109478.2
109478.2
109478.19
109478.17
109478.16
109478.15
109478.13
109478.11
109478.1
109478.08
109478.07
109478.05
109478.03
109478.02
109478
109477.99
109477.97
109477.95
109477.93
109477.92
109477.9
109477.88
109477.87
109477.86
109477.85
109477.83
109477.82
109477.81
109477.8
109477.79
109477.77
109477.76
109477.75
109477.74
109477.73
109477.72
109477.71
109477.7
109477.69
109477.67
109477.66
109477.65
109477.64
109477.62
109477.61
109477.61
109477.59
109477.57
109477.56
109477.56
109477.55
109477.54
109477.53
109477.52
109477.52
109477.51
109477.5
109477.49
109477.49
109477.48
109477.47
109477.46
109477.45
109477.44
109477.43
109477.43
109477.41
109477.4
109477.39
109477.37
109477.36
109477.35
109477.34
109477.33
109477.32
109477.31
109477.31
109477.31
109477.3
109477.3
109477.29
109477.29
109477.29
109477.28
109477.28
109477.27
109477.27
109477.26
109477.25
109477.25
109477.24
109477.23
109477.23
109477.22
109477.22
109477.21
109477.2
109477.2
109477.2
109477.19
109477.19
109477.18
109477.18
109477.17
109477.17
109477.16
109477.16
109477.16
109477.15
109477.15
109477.15
109477.15
109477.15
109477.15
109477.14
109477.14
109477.14
109477.14
109477.13
109477.13
109477.12
109477.12
109477.11
109477.11
109477.1
109477.1
109477.09
109477.09
109477.08
109477.08
109477.08
109477.08
109477.07
109477.07
109477.07
109477.07
109477.07
109477.07
109477.07
109477.07
109477.07
109477.08
109477.08
109477.08
109477.08
109477.08
109477.08
109477.08
109477.08
109477.08
109477.08
109477.08
109477.08
109477.08
109477.08
109477.08
109477.08
109477.08
109477.08
109477.08
109477.08
109477.08
109477.08
109477.08
109477.08
109477.08
109477.08
109477.08
109477.08
109477.08
109477.08
109477.08
109477.08
109477.07
109477.07
109477.07
109477.07
109477.07
109477.07
109477.07
109477.07
109477.07
109477.07
109477.07
109477.07
109477.07
109477.08
109477.08
109477.08
109477.08
109477.08
109477.08
109477.08
109477.08
109477.09
109477.09
109477.09
109477.09
109477.09
109477.1
109477.1
109477.1
109477.11
109477.11
109477.11
109477.11
109477.12
109477.12
109477.12
109477.13
109477.13
109477.13
109477.13
109477.14
109477.14
109477.14
109477.14
109477.15
109477.15
109477.15
109477.15
109477.15
109477.16
109477.16
109477.16
109477.16
109477.16
109477.16
109477.16
109477.16
109477.17
109477.17
109477.17
109477.17
109477.17
109477.17
109477.17
109477.17
109477.18
109477.18
109477.18
109477.18
109477.18
109477.18
109477.18
109477.19
109477.19
109477.19
109477.19
109477.19
109477.19
109477.2
109477.2
109477.2
109477.2
109477.2
109477.2
109477.21
109477.21
109477.21
109477.21
109477.21
109477.21
109477.22
109477.22
109477.22
109477.22
109477.22
109477.22
109477.22
109477.23
109477.23
109477.23
109477.23
109477.23
109477.23
109477.23
109477.24
109477.24
109477.24
109477.24
109477.24
109477.24
109477.24
109477.24
109477.25
109477.25
109477.25
109477.25
109477.25
109477.25
109477.25
109477.25
109477.25
109477.26
109477.26
109477.26
109477.26
109477.26
109477.26
109477.26
109477.26
109477.27
109477.27
109477.27
109477.27
109477.27
109477.27
109477.27
109477.27
109477.28
109477.28
109477.28
109477.28
109477.28
109477.28
109477.28
109477.28
109477.28
109477.29
109477.29
109477.29
109477.29
109477.29
109477.29
109477.29
109477.29
109477.29
109477.29
109477.3
109477.3
109477.3
109477.3
109477.3
109477.3
109477.3
109477.3
109477.3
109477.31
109477.31
109477.31
109477.31
109477.31
109477.31
109477.31
109477.31
109477.31
109477.32
109477.32
109477.32
109477.32
109477.32
109477.32
109477.32
109477.32
109477.33
109477.33
109477.33
109477.33
109477.33
109477.33
109477.33
109477.33
109477.34
109477.34
109477.34
109477.34
109477.34
109477.34
109477.34
109477.34
109477.34
109477.34
109477.35
109477.35
109477.35
109477.35
109477.35
109477.35
109477.35
109477.35
109477.35
109477.35
109477.35
109477.35
109477.35
109477.36
109477.36
109477.36
109477.36
109477.36
109477.36
109477.36
109477.36
109477.36
109477.36
109477.36
109477.36
109477.36
109477.36
109477.36
109477.36
109477.36
109477.36
109477.36
109477.37
109477.37
109477.37
109477.37
109477.37
109477.37
109477.37
109477.37
109477.37
109477.37
109477.37
109477.37
109477.37
109477.37
109477.37
109477.37
109477.38
109477.38
109477.38
109477.38
109477.38
109477.38
109477.38
109477.38
109477.38
109477.38
109477.38
109477.38
109477.38
109477.38
109477.38
109477.38
109477.38
109477.38
109477.38
109477.38
109477.38
109477.38
109477.38
109477.38
109477.39
109477.39
109477.39
109477.39
109477.39
109477.39
109477.39
109477.39
109477.39
109477.39
109477.39
109477.39
109477.39
109477.39
109477.39
109477.39
109477.39
109477.39
109477.39
109477.39
109477.39
109477.39
109477.39
109477.39
109477.39
109477.39
109477.39
109477.39
109477.39
109477.4
109477.4
109477.4
109477.4
109477.4
109477.4
109477.4
109477.4
109477.4
109477.4
109477.4
109477.4
109477.4
109477.4
109477.4
109477.4
109477.4
109477.4
109477.4
109477.4
109477.4
109477.4
109477.4
109477.4
109477.4
109477.4
109477.4
109477.4
109477.4
109477.4
109477.4
109477.4
109477.4
109477.4
109477.4
109477.4
109477.4
109477.4
109477.4
109477.4
109477.4
109477.4
109477.4
109477.4
109477.4
109477.4
109477.4
109477.4
109477.4
109477.4
109477.4
109477.4
109477.4
109477.4
109477.4
109477.4
109477.4
109477.41
109477.41
109477.41
109477.41
109477.41
109477.41
109477.41
109477.41
109477.41
109477.41
109477.4
109477.4
109477.39
109477.39
109477.39
109477.39
109477.39
109477.4
109477.42
109477.44
109477.46
109477.48
109477.49
109477.49
109477.48
109477.46
109477.43
109477.44
109477.23
109477.38
109477.45
109477.41
109477.39
109477.38
109477.38
109477.39
109477.39
109477.4
109477.41
109477.42
109477.43
109477.43
109477.43
109477.43
109477.43
109477.43
109477.43
109477.43
109477.43
109477.43
109477.43
109477.43
109477.43
109477.43
109477.43
109477.43
109477.43
109477.43
109477.43
109477.43
109477.43
109477.43
109477.43
109477.43
109477.43
109477.43
109477.43
109477.43
109477.43
109477.43
109477.43
109477.43
109477.43
109477.43
109477.43
109477.43
109477.43
109477.43
109477.43
109477.43
109477.43
109477.43
109477.43
109477.43
109477.43
109477.43
109477.43
109477.43
109477.43
109477.43
109477.43
109477.43
109477.43
109477.43
109477.43
109477.43
109477.43
109477.43
109477.43
109477.43
109477.43
109477.43
109477.43
109477.43
109477.43
109477.43
109477.43
109477.43
109477.43
109477.43
109477.43
109477.43
109477.43
109477.42
109477.42
109477.42
109477.42
109477.42
109477.42
109477.42
109477.42
109477.42
109477.42
109477.42
109477.42
109477.42
109477.42
109477.42
109477.42
109477.41
109477.41
109477.41
109477.41
109477.41
109477.41
109477.41
109477.41
109477.41
109477.41
109477.41
109477.41
109477.41
109477.41
109477.41
109477.4
109477.4
109477.4
109477.4
109477.4
109477.4
109477.4
109477.4
109477.4
109477.4
109477.4
109477.4
109477.4
109477.4
109477.4
109477.4
109477.4
109477.4
109477.4
109477.4
109477.4
109477.4
109477.4
109477.4
109477.4
109477.4
109477.4
109477.4
109477.4
109477.4
109477.4
109477.4
109477.4
109477.4
109477.4
109477.4
109477.4
109477.4
109477.4
109477.4
109477.4
109477.4
109477.4
109477.4
109477.4
109477.4
109477.4
109477.4
109477.4
109477.4
109477.4
109477.4
109477.4
109477.4
109477.4
109477.4
109477.4
109477.4
109477.4
109477.4
109477.4
109477.4
109477.4
109477.4
109477.4
109477.4
109477.4
109477.4
109477.4
109477.39
109477.39
109477.39
109477.39
109477.39
109477.39
109477.39
109477.39
109477.39
109477.39
109477.39
109477.39
109477.39
109477.39
109477.39
109477.39
109477.39
109477.39
109477.38
109477.38
109477.38
109477.38
109477.38
109477.38
109477.38
109477.38
109477.38
109477.38
109477.38
109477.38
109477.38
109477.38
109477.38
109477.37
109477.37
109477.37
109477.37
109477.37
109477.37
109477.37
109477.37
109477.37
109477.37
109477.37
109477.37
109477.37
109477.36
109477.36
109477.36
109477.36
109477.36
109477.36
109477.36
109477.36
109477.36
109477.36
109477.36
109477.35
109477.35
109477.35
109477.35
109477.35
109477.35
109477.35
109477.35
109477.35
109477.34
109477.34
109477.34
109477.34
109477.34
109477.34
109477.34
109477.34
109477.34
109477.33
109477.33
109477.33
109477.33
109477.33
109477.33
109477.33
109477.33
109477.32
109477.32
109477.32
109477.32
109477.32
109477.32
109477.32
109477.31
109477.31
109477.31
109477.31
109477.31
109477.31
109477.31
109477.31
109477.31
109477.3
109477.3
109477.3
109477.3
109477.3
109477.3
109477.3
109477.3
109477.29
109477.29
109477.29
109477.29
109477.29
109477.29
109477.29
109477.29
109477.29
109477.28
109477.28
109477.28
109477.28
109477.28
109477.28
109477.28
109477.28
109477.28
109477.27
109477.27
109477.27
109477.27
109477.27
109477.27
109477.27
109477.27
109477.26
109477.26
109477.26
109477.26
109477.26
109477.26
109477.26
109477.26
109477.25
109477.25
109477.25
109477.25
109477.25
109477.25
109477.25
109477.24
109477.24
109477.24
109477.24
109477.24
109477.24
109477.24
109477.23
109477.23
109477.23
109477.23
109477.23
109477.23
109477.22
109477.22
109477.22
109477.22
109477.22
109477.22
109477.22
109477.21
109477.21
109477.21
109477.21
109477.21
109477.21
109477.21
109477.2
109477.2
109477.2
109477.2
109477.2
109477.2
109477.2
109477.2
109477.19
109477.19
109477.19
109477.19
109477.19
109477.19
109477.19
109477.19
109477.19
109477.18
109477.18
109477.18
109477.18
109477.18
109477.18
109477.18
109477.18
109477.18
109477.18
109477.18
109477.18
109477.17
109477.17
109477.17
109477.17
109477.17
109477.17
109477.17
109477.17
109477.17
109477.17
109477.17
109477.17
109477.17
109477.17
109477.17
109477.17
109477.17
109477.17
109477.17
109477.16
109477.16
109477.16
109477.16
109477.16
109477.16
109477.16
109477.16
109477.16
109477.15
109477.15
109477.15
109477.15
109477.15
109477.15
109477.15
109477.14
109477.14
109477.14
109477.14
109477.14
109477.14
109477.14
109477.13
109477.13
109477.13
109477.13
109477.13
109477.12
109477.12
109477.12
109477.12
109477.11
109477.11
109477.11
109477.11
109477.1
109477.1
109477.1
109477.09
109477.09
109477.09
109477.08
109477.08
109477.08
109477.07
109477.07
109477.07
109477.06
109477.06
109477.06
109477.05
109477.05
109477.04
109477.04
109477.04
109477.03
109477.03
109477.03
109477.02
109477.02
109477.02
109477.01
109477.01
109477.01
109477
109477
109477
109476.99
109476.99
109476.99
109476.98
109476.98
109476.98
109476.97
109476.97
109476.97
109476.96
109476.96
109476.96
109476.96
109476.95
109476.95
109476.95
109476.95
109476.94
109476.94
109476.94
109476.94
109476.94
109476.94
109476.93
109476.93
109476.93
109476.93
109476.93
109476.93
109476.93
109476.93
109476.93
109476.93
109476.93
109476.93
109476.93
109476.94
109476.94
109476.94
109476.94
109476.95
109476.95
109476.95
109476.96
109476.96
109476.97
109476.97
109476.98
109476.98
109476.99
109476.99
109477
109477.01
109477.02
109477.03
109477.04
109477.06
109477.07
109477.08
109477.09
109477.1
109477.12
109477.13
109477.14
109477.15
109477.17
109477.19
109477.2
109477.22
109477.24
109477.25
109477.27
109477.29
109477.31
109477.33
109477.35
109477.37
109477.38
109477.39
109477.41
109477.43
109477.44
109477.44
109477.44
109477.45
109477.45
109477.45
109477.45
109477.44
109477.43
109477.41
109477.39
109477.35
109477.31
109477.27
109477.22
109477.17
109477.1
109477.04
109476.96
109476.88
109476.78
109476.68
109476.57
109476.44
109476.3
109476.15
109475.98
109475.79
109475.59
109475.36
109475.12
109474.85
109474.55
109474.22
109473.86
109473.47
109473.04
109472.57
109472.06
109471.5
109470.89
109470.23
109469.5
109468.71
109467.85
109466.92
109465.9
109464.8
109463.61
109462.31
109460.91
109459.39
109457.75
109455.97
109454.05
109451.98
109449.74
109447.33
109444.73
109441.93
109438.91
109435.67
109432.19
109428.45
109424.44
109420.13
109415.52
109410.57
109405.28
109399.62
109393.57
109387.1
109380.2
109372.83
109364.97
109356.6
109347.69
109338.2
109328.11
109317.38
109305.99
109293.89
109281.06
109267.46
109253.05
109237.79
109221.65
109204.58
109186.54
109167.49
109147.39
109126.19
109103.85
109080.32
109055.55
109029.5
109002.12
108973.36
108943.17
108911.5
108878.31
108843.54
108807.15
108769.08
108729.29
108687.74
108644.36
108599.12
108551.98
108502.88
108451.79
108398.67
108343.48
108286.18
108226.74
108165.14
108101.33
108035.31
107967.04
107896.52
107823.73
107748.66
107671.31
107591.69
107509.79
107425.63
107339.23
107250.61
107159.8
107066.83
106971.76
106874.61
106775.45
106674.34
106571.34
106466.52
106359.97
106251.76
106142
106030.76
105918.16
105804.3
105689.29
105573.25
105456.29
105338.55
105220.14
105101.2
104981.86
104862.25
104742.5
104622.76
104503.15
104383.82
104264.89
104146.5
104028.78
103911.86
103795.86
103680.9
103567.11
103454.58
103343.44
103233.79
103125.72
103019.32
102914.68
102811.88
102710.99
102612.08
102515.21
102420.43
102327.79
102237.33
102149.09
102063.09
101979.36
101897.91
101818.76
101741.9
101667.33
101595.06
101525.07
101457.35
101391.87
101328.62
101267.57
101208.68
101151.93
101097.27
101044.68
100994.11
100945.51
100898.84
100854.07
100811.13
100769.98
100730.58
100692.87
100656.8
100622.33
100589.4
100557.96
100527.96
100499.36
100472.1
100446.14
100421.42
100397.91
100375.54
100354.29
100334.1
100314.94
100296.75
100279.5
100263.14
100247.65
100232.97
100219.08
100205.93
100193.5
100181.75
100170.64
100160.16
100150.26
100140.91
100132.1
100123.8
100115.97
100108.59
100101.65
100095.12
100088.97
100083.19
100077.75
100072.65
100067.85
100063.35
100059.13
100055.16
100051.45
100047.96
100044.7
100041.64
100038.78
100036.11
100033.6
100031.26
100029.07
100027.02
100025.11
100023.33
100021.66
100020.11
100018.66
100017.31
100016.05
100014.88
100013.79
100012.78
100011.83
100010.95
100010.13
100009.37
100008.67
100008.01
100007.4
100006.84
100006.32
100005.83
100005.38
100004.96
100004.58
100004.22
100003.89
100003.58
100003.3
100003.04
100002.79
100002.57
100002.36
100002.17
100002
100001.83
100001.68
100001.55
100001.42
100001.3
100001.19
100001.09
100001
100000.92
100000.84
100000.77
100000.71
100000.65
100000.59
100000.54
100000.49
100000.45
100000.41
100000.38
100000.34
100000.31
100000.29
100000.26
100000.24
100000.22
100000.2
100000.18
100000.16
100000.15
100000.14
100000.12
100000.11
100000.1
100000.09
100000.08
100000.08
100000.07
100000.06
100000.06
100000.05
100000.05
100000.04
100000.04
100000.03
100000.03