/*--------------------------------*- C++ -*----------------------------------*\
  =========                 |
  \\      /  F ield         | OpenFOAM: The Open Source CFD Toolbox
   \\    /   O peration     | Website:  https://openfoam.org
    \\  /    A nd           | Version:  7
     \\/     M anipulation  |
\*---------------------------------------------------------------------------*/
FoamFile
{
    version     2.0;
    format      ascii;
    class       surfaceScalarField;
    location    "0.00042";
    object      phi;
}
// * * * * * * * * * * * * * * * * * * * * * * * * * * * * * * * * * * * * * //

dimensions      [1 0 -1 0 0 0 0];

internalField   nonuniform List<scalar> 
4999
(
-1.4210855e-14
-1.4210855e-14
-7.1054274e-15
7.1054274e-15
7.1054274e-15
1.4210855e-14
7.1054274e-15
7.1054274e-15
1.4210855e-14
2.1316282e-14
1.4210855e-14
2.1316282e-14
1.4210855e-14
1.4210855e-14
2.8421709e-14
2.8421709e-14
2.8421709e-14
2.1316282e-14
2.8421709e-14
2.1316282e-14
2.1316282e-14
2.8421709e-14
2.1316282e-14
1.4210855e-14
7.1054274e-15
7.1054274e-15
1.4210855e-14
1.4210855e-14
3.5527137e-14
2.8421709e-14
1.4210855e-14
7.1054274e-15
1.4210855e-14
1.4210855e-14
1.4210855e-14
8.6937301e-56
-1.4210855e-14
-7.1054274e-15
-7.1054274e-15
-3.9443045e-30
7.1054274e-15
7.1054274e-15
1.4210855e-14
2.1316282e-14
1.4210855e-14
-3.9443045e-30
-1.4210855e-14
-7.1054274e-15
-2.8421709e-14
-3.5527137e-14
-3.5527137e-14
-4.2632564e-14
-4.2632564e-14
-4.2632564e-14
-2.8421709e-14
-2.8421709e-14
-2.8421709e-14
-2.8421709e-14
-3.5527137e-14
-3.5527137e-14
-2.1316282e-14
-3.5527137e-14
-2.8421709e-14
-2.8421709e-14
-3.5527137e-14
-3.5527137e-14
-4.2632564e-14
-2.8421709e-14
-2.8421709e-14
-3.5527137e-14
-2.1316282e-14
-2.8421709e-14
-1.4210855e-14
-1.4210855e-14
-1.4210855e-14
-2.8421709e-14
-7.1054274e-15
-1.4210855e-14
-2.1316282e-14
-2.1316282e-14
-1.4210855e-14
-1.4210855e-14
-1.4210855e-14
-7.1054274e-15
-7.1054274e-15
1.774937e-30
-2.0707599e-30
4.7331654e-30
9.4663309e-30
7.1054274e-15
1.0009275e-43
-7.1054274e-15
-1.4210855e-14
-1.4210855e-14
-1.4210855e-14
-1.4210855e-14
-7.1054274e-15
-1.4210855e-14
7.8886091e-30
7.8886091e-30
-2.1316282e-14
-1.4210855e-14
-1.4210855e-14
-2.8421709e-14
-2.8421709e-14
-2.1316282e-14
-2.8421709e-14
-2.1316282e-14
-2.8421709e-14
-2.8421709e-14
-2.8421709e-14
-3.5527137e-14
-4.2632564e-14
-4.2632564e-14
-4.2632564e-14
-4.9737992e-14
-4.9737992e-14
-3.5527137e-14
-3.5527137e-14
-4.2632564e-14
-5.6843419e-14
-2.8421709e-14
-3.5527137e-14
-2.8421709e-14
-2.8421709e-14
-3.5527137e-14
-3.5527137e-14
-2.8421709e-14
-3.5527137e-14
-3.5527137e-14
-4.9737992e-14
-4.2632564e-14
-3.5527137e-14
-4.2632564e-14
-4.2632564e-14
-3.5527137e-14
-3.5527137e-14
-4.2632564e-14
-3.5527137e-14
-3.5527137e-14
-4.2632564e-14
-4.2632564e-14
-4.2632564e-14
-4.2632564e-14
-2.8421709e-14
-3.5527137e-14
-5.6843419e-14
-3.5527137e-14
-2.8421709e-14
-4.2632564e-14
-4.2632564e-14
-4.2632564e-14
-5.6843419e-14
-4.2632564e-14
-4.9737992e-14
-4.9737992e-14
-5.6843419e-14
-5.6843419e-14
-4.9737992e-14
-6.3948846e-14
-7.1054274e-14
-6.3948846e-14
-7.1054274e-14
-6.3948846e-14
-5.6843419e-14
-6.3948846e-14
-7.1054274e-14
-5.6843419e-14
-6.3948846e-14
-6.3948846e-14
-5.6843419e-14
-5.6843419e-14
-4.9737992e-14
-3.5527137e-14
-2.1316282e-14
-1.4210855e-14
-2.1316282e-14
-1.4210855e-14
-3.5527137e-14
-1.4210855e-14
-1.4210855e-14
-7.1054274e-15
-7.1054274e-15
-7.1054274e-15
1.201113e-42
1.601484e-42
1.4210855e-14
7.1054274e-15
7.1054274e-15
-1.5777218e-30
-1.5777218e-30
1.7502851e-30
-7.1054274e-15
7.1054274e-15
7.1054274e-15
7.1054274e-15
1.4210855e-14
1.4210855e-14
7.1054274e-15
2.1316282e-14
2.1316282e-14
7.1054274e-15
-5.5220263e-30
1.4210855e-14
2.8421709e-14
2.8421709e-14
3.5527137e-14
2.8421709e-14
2.8421709e-14
3.5527137e-14
4.2632564e-14
2.8421709e-14
3.5527137e-14
4.2632564e-14
2.8421709e-14
3.5527137e-14
3.5527137e-14
2.1316282e-14
2.8421709e-14
2.1316282e-14
2.8421709e-14
4.2632564e-14
4.2632564e-14
4.9737992e-14
4.9737992e-14
4.9737992e-14
4.2632564e-14
4.2632564e-14
2.8421709e-14
3.5527137e-14
2.8421709e-14
1.4210855e-14
7.1054274e-15
2.1316282e-14
1.4210855e-14
2.8421709e-14
7.1054274e-15
-7.1054274e-15
-7.0997481e-30
7.1054274e-15
1.4210855e-14
1.4210855e-14
1.4210855e-14
1.4210855e-14
0
-1.4210855e-14
-7.1054274e-15
-1.4210855e-14
-7.1054274e-15
-2.1316282e-14
-1.4210855e-14
-2.1316282e-14
-2.1316282e-14
-3.5527137e-14
-2.8421709e-14
-3.5527137e-14
-2.1316282e-14
-2.1316282e-14
-1.4210855e-14
-7.1054274e-15
-1.4210855e-14
-1.4210855e-14
-7.1054274e-15
6.3108872e-30
6.8063068e-42
7.1054274e-15
2.8421709e-14
1.4210855e-14
1.4210855e-14
7.1054274e-15
7.1054274e-15
1.4210855e-14
1.4210855e-14
2.1316282e-14
1.4210855e-14
7.1054274e-15
7.1054274e-15
7.1054274e-15
1.4210855e-14
-1.1832914e-30
7.1054274e-15
7.1054274e-15
-1.4210855e-14
6.7053177e-30
3.9443045e-30
-2.1316282e-14
-7.1054274e-15
-1.4210855e-14
-2.1316282e-14
-3.5527137e-14
-1.4210855e-14
-7.1054274e-15
-1.4210855e-14
-7.1054274e-15
-2.8421709e-14
-1.4210855e-14
-1.4210855e-14
-7.1054274e-15
1.5777218e-30
-7.1054274e-15
7.1054274e-15
7.1054274e-15
1.4210855e-14
2.1316282e-14
1.4210855e-14
2.8421709e-14
2.8421709e-14
2.1316282e-14
2.1316282e-14
1.4210855e-14
1.4210855e-14
2.1316282e-14
2.8421709e-14
2.1316282e-14
7.1054274e-15
2.1316282e-14
1.4210855e-14
1.4210855e-14
1.4210855e-14
2.8421709e-14
4.2632564e-14
4.2632564e-14
3.5527137e-14
2.8421709e-14
4.2632564e-14
3.5527137e-14
2.1316282e-14
2.8421709e-14
4.2632564e-14
4.9737992e-14
4.9737992e-14
5.6843419e-14
4.2632564e-14
5.6843419e-14
4.9737992e-14
3.5527137e-14
1.4210855e-14
2.1316282e-14
1.4210855e-14
2.1316282e-14
2.1316282e-14
2.1316282e-14
3.5527137e-14
2.8421709e-14
2.8421709e-14
4.2632564e-14
4.2632564e-14
2.8421709e-14
1.4210855e-14
3.5527137e-14
3.5527137e-14
2.1316282e-14
2.1316282e-14
2.1316282e-14
2.1316282e-14
2.1316282e-14
1.4210855e-14
2.1316282e-14
1.4210855e-14
2.1316282e-14
1.4210855e-14
5.3101608e-30
7.1054274e-15
7.1054274e-15
6.3108872e-30
-2.7610132e-30
1.4210855e-14
-3.0027824e-43
7.1054274e-15
1.4210855e-14
2.8421709e-14
7.1054274e-15
2.1316282e-14
4.2632564e-14
4.9737992e-14
4.9737992e-14
4.9737992e-14
4.9737992e-14
4.2632564e-14
4.2632564e-14
2.8421709e-14
2.8421709e-14
2.8421709e-14
3.5527137e-14
1.4210855e-14
2.8421709e-14
1.4210855e-14
7.1054274e-15
1.4210855e-14
-7.8886091e-31
1.4210855e-14
7.1054274e-15
-1.3012057e-42
7.1054274e-15
-2.2088105e-29
1.4210855e-14
2.7610132e-30
-1.0009275e-43
-2.1316282e-14
-2.1316282e-14
-4.2632564e-14
-4.9737992e-14
-3.5527137e-14
-4.2632564e-14
-4.2632564e-14
-4.2632564e-14
-4.2632564e-14
-4.9737992e-14
-3.5527137e-14
-3.5527137e-14
-2.8421709e-14
-3.5527137e-14
-4.2632564e-14
-4.2632564e-14
-4.9737992e-14
-3.5527137e-14
-3.5527137e-14
-3.5527137e-14
-3.5527137e-14
-4.2632564e-14
-4.9737992e-14
-6.3948846e-14
-5.6843419e-14
-3.5527137e-14
-2.8421709e-14
-7.1054274e-15
-1.4210855e-14
-2.1316282e-14
-2.8421709e-14
-4.2632564e-14
-4.9737992e-14
-4.2632564e-14
-3.5527137e-14
-3.5527137e-14
-2.1316282e-14
-2.8421709e-14
-3.5527137e-14
-2.8421709e-14
-3.5527137e-14
-4.9737992e-14
-3.5527137e-14
-3.5527137e-14
-4.2632564e-14
-2.1316282e-14
-2.8421709e-14
-7.1054274e-15
-7.1054274e-15
-7.1054274e-15
4.7331654e-30
-7.1054274e-15
7.1054274e-15
1.4210855e-14
2.1316282e-14
2.8421709e-14
3.5527137e-14
4.9737992e-14
4.2632564e-14
4.9737992e-14
4.9737992e-14
4.2632564e-14
4.9737992e-14
4.9737992e-14
4.9737992e-14
4.9737992e-14
6.3948846e-14
5.6843419e-14
5.6843419e-14
6.3948846e-14
5.6843419e-14
4.9737992e-14
4.9737992e-14
4.9737992e-14
4.9737992e-14
3.5527137e-14
4.2632564e-14
5.6843419e-14
5.6843419e-14
6.3948846e-14
5.6843419e-14
4.2632564e-14
3.5527137e-14
4.2632564e-14
3.5527137e-14
4.2632564e-14
4.2632564e-14
3.5527137e-14
3.5527137e-14
3.5527137e-14
3.5527137e-14
2.1316282e-14
1.4210855e-14
1.4210855e-14
2.8421709e-14
2.1316282e-14
2.8421709e-14
2.1316282e-14
2.1316282e-14
2.1316282e-14
1.4210855e-14
2.8421709e-14
2.1316282e-14
2.1316282e-14
2.8421709e-14
2.1316282e-14
1.4210855e-14
7.1054274e-15
2.1316282e-14
1.4210855e-14
2.1316282e-14
2.1316282e-14
1.4210855e-14
1.4210855e-14
1.4210855e-14
7.1054274e-15
1.4210855e-14
7.1054274e-15
1.4210855e-14
1.4210855e-14
-1.8932662e-29
-1.4210855e-14
-3.5527137e-14
-2.8421709e-14
-2.8421709e-14
-3.5527137e-14
-2.1316282e-14
-2.8421709e-14
-2.8421709e-14
-2.1316282e-14
-2.1316282e-14
-7.1054274e-15
-2.1316282e-14
-1.4210855e-14
-7.1054274e-15
-1.4210855e-14
3.5016409e-30
0
-7.1054274e-15
-6.3108872e-30
-7.1054274e-15
-2.1316282e-14
-1.4210855e-14
-7.1054274e-15
-1.4210855e-14
-2.8421709e-14
-7.1054274e-15
-7.1054274e-15
-1.4210855e-14
-2.8421709e-14
-7.1054274e-15
3.3030607e-42
7.1054274e-15
-4.7331654e-30
1.8463853e-30
3.9443045e-30
-7.8886091e-30
-7.1054274e-15
7.1054274e-15
7.1054274e-15
1.4210855e-14
2.1316282e-14
7.1054274e-15
2.1316282e-14
1.4210855e-14
7.1054274e-15
1.5777218e-30
1.4210855e-14
1.4210855e-14
7.1054274e-15
7.1054274e-15
7.1054274e-15
7.1054274e-15
1.0255192e-29
9.4663309e-30
-1.2621774e-29
-7.1054274e-15
-2.5014388e-55
-1.4210855e-14
2.2088105e-29
-7.1054274e-15
-1.601484e-42
-7.1054274e-15
1.2621774e-29
1.2621774e-29
3.1554436e-30
1.4210855e-14
1.4210855e-14
2.1316282e-14
2.1316282e-14
2.1316282e-14
1.4210855e-14
2.1316282e-14
1.4210855e-14
-7.1054274e-15
7.1054274e-15
6.0055648e-43
-7.1054274e-15
7.1054274e-15
1.4210855e-14
1.5777218e-30
1.4210855e-14
-7.1054274e-15
-2.1316282e-14
-1.4210855e-14
-2.1316282e-14
-1.4210855e-14
-2.1316282e-14
-1.4210855e-14
-6.3108872e-30
-4.7331654e-30
-3.1554436e-30
-1.2621774e-29
7.1054274e-15
1.4210855e-14
1.4210855e-14
1.4210855e-14
2.8421709e-14
1.4210855e-14
7.1054274e-15
7.1054274e-15
1.4210855e-14
-1.5777218e-30
4.6159632e-31
1.0649622e-29
-2.1316282e-14
-2.1316282e-14
-2.8421709e-14
-2.8421709e-14
-2.1316282e-14
-2.8421709e-14
-2.1316282e-14
-2.8421709e-14
-2.1316282e-14
-4.2632564e-14
-2.1316282e-14
-1.4210855e-14
-2.8421709e-14
-2.8421709e-14
-2.8421709e-14
-2.8421709e-14
-1.4210855e-14
-3.5527137e-14
-2.8421709e-14
-2.1316282e-14
-2.8421709e-14
-2.8421709e-14
-1.4210855e-14
-2.8421709e-14
-2.8421709e-14
-2.8421709e-14
-2.8421709e-14
-2.8421709e-14
-2.1316282e-14
2.7610132e-30
0
2.7610132e-30
-1.0582456e-29
-1.4210855e-14
-7.1054274e-15
-1.4210855e-14
-7.1054274e-15
-1.4210855e-14
-2.1316282e-14
-2.1316282e-14
-2.1316282e-14
-1.4210855e-14
-1.4210855e-14
-2.1316282e-14
-1.4210855e-14
-1.4210855e-14
0
-2.1316282e-14
-2.8421709e-14
-3.5527137e-14
-2.8421709e-14
-3.5527137e-14
-3.5527137e-14
-2.8421709e-14
-4.2632564e-14
-4.9737992e-14
-3.5527137e-14
-3.5527137e-14
-2.1316282e-14
-3.5527137e-14
-2.8421709e-14
-2.1316282e-14
-1.4210855e-14
-1.4210855e-14
-2.1316282e-14
-2.1316282e-14
-2.1316282e-14
-2.8421709e-14
-2.1316282e-14
-2.8421709e-14
-2.8421709e-14
-4.2632564e-14
-2.8421709e-14
-3.5527137e-14
-2.8421709e-14
-4.2632564e-14
-4.2632564e-14
-6.3948846e-14
-4.9737992e-14
-5.6843419e-14
-3.5527137e-14
-3.5527137e-14
-3.5527137e-14
-4.2632564e-14
-4.2632564e-14
-2.8421709e-14
-2.1316282e-14
-3.5527137e-14
-4.9737992e-14
-4.2632564e-14
-3.5527137e-14
-2.8421709e-14
-2.8421709e-14
-4.2632564e-14
-4.2632564e-14
-4.9737992e-14
-4.9737992e-14
-4.2632564e-14
-4.9737992e-14
-4.9737992e-14
-4.9737992e-14
-4.2632564e-14
-4.2632564e-14
-4.2632564e-14
-4.2632564e-14
-2.8421709e-14
-3.5527137e-14
-2.8421709e-14
-1.4210855e-14
-1.4210855e-14
-2.1316282e-14
-2.8421709e-14
-3.5527137e-14
-2.8421709e-14
-3.5527137e-14
-2.8421709e-14
-2.1316282e-14
-1.4210855e-14
-2.1316282e-14
-1.4210855e-14
1.3410635e-29
-1.4210855e-14
-1.4210855e-14
-7.1054274e-15
-2.8421709e-14
-2.8421709e-14
-2.1316282e-14
-2.1316282e-14
-2.8421709e-14
-4.2632564e-14
-4.9737992e-14
-4.9737992e-14
-3.5527137e-14
-4.2632564e-14
-2.8421709e-14
-2.8421709e-14
-2.1316282e-14
-7.1054274e-15
-1.4210855e-14
-7.1054274e-15
-2.8421709e-14
-1.4210855e-14
-2.1316282e-14
-3.5527137e-14
-3.5527137e-14
-3.5527137e-14
-1.4210855e-14
-2.8421709e-14
-3.5527137e-14
-2.1316282e-14
-2.8421709e-14
-1.4210855e-14
-2.1316282e-14
-7.1054274e-15
-6.3108872e-30
-7.6199456e-30
-1.4210855e-14
-7.1054274e-15
-1.4210855e-14
7.1054274e-15
-7.1054274e-15
-7.1054274e-15
7.1054274e-15
7.1054274e-15
-7.1054274e-15
7.1054274e-15
4.0407709e-30
7.1054274e-15
7.1054274e-15
7.1054274e-15
7.1054274e-15
3.5527137e-14
2.1316282e-14
2.8421709e-14
2.1316282e-14
1.4210855e-14
2.1316282e-14
2.1316282e-14
3.5527137e-14
2.1316282e-14
2.8421709e-14
1.4210855e-14
7.1054274e-15
1.4210855e-14
1.4210855e-14
2.8421709e-14
1.4210855e-14
2.1316282e-14
2.1316282e-14
2.8421709e-14
1.4210855e-14
2.1316282e-14
7.1054274e-15
1.4210855e-14
1.4210855e-14
1.4210855e-14
1.4210855e-14
1.4210855e-14
2.1316282e-14
2.1316282e-14
2.1316282e-14
2.1316282e-14
2.1316282e-14
7.1054274e-15
1.4210855e-14
2.1316282e-14
2.8421709e-14
1.4210855e-14
2.8421709e-14
3.5527137e-14
4.2632564e-14
2.8421709e-14
4.2632564e-14
2.8421709e-14
1.4210855e-14
7.1054274e-15
-4.7331654e-30
-1.5777218e-30
1.4210855e-14
2.1316282e-14
3.5527137e-14
2.8421709e-14
3.5527137e-14
4.2632564e-14
2.8421709e-14
2.8421709e-14
1.4210855e-14
7.1054274e-15
7.1054274e-15
7.8886091e-30
-1.0009275e-43
7.1054274e-15
1.5777218e-30
-7.1054274e-15
3.1554436e-30
1.4210855e-14
-4.4248335e-30
7.1054274e-15
1.4210855e-14
1.4210855e-14
7.1054274e-15
1.4210855e-14
-5.1275959e-30
-7.1054274e-15
-7.1054274e-15
-1.4210855e-14
-1.4210855e-14
2.9187853e-29
-2.1316282e-14
-1.4210855e-14
-7.1054274e-15
0
3.9443045e-31
-7.1054274e-15
-7.1054274e-15
-1.4210855e-14
-2.1316282e-14
-1.4210855e-14
7.1054274e-15
1.4210855e-14
-1.7706546e-30
-7.1054274e-15
-7.1054274e-15
7.1054274e-15
-3.1554436e-30
-3.1554436e-30
-1.4210855e-14
-2.8421709e-14
-2.8421709e-14
-3.5527137e-14
-2.8421709e-14
-2.8421709e-14
-2.1316282e-14
-4.2632564e-14
-4.9737992e-14
-4.2632564e-14
-3.5527137e-14
-3.5527137e-14
-2.8421709e-14
-3.5527137e-14
-3.5527137e-14
-4.2632564e-14
-4.2632564e-14
-4.9737992e-14
-4.9737992e-14
-6.3948846e-14
-6.3948846e-14
-5.6843419e-14
-4.9737992e-14
-6.3948846e-14
-4.9737992e-14
-5.6843419e-14
-4.9737992e-14
-5.6843419e-14
-4.2632564e-14
-4.2632564e-14
-4.9737992e-14
-3.5527137e-14
-2.1316282e-14
-3.5527137e-14
-2.8421709e-14
-2.1316282e-14
-1.4210855e-14
-2.1316282e-14
-1.4210855e-14
-1.4210855e-14
-2.8421709e-14
-3.5527137e-14
-2.1316282e-14
-1.4210855e-14
-1.4210855e-14
-2.1316282e-14
-1.4210855e-14
-2.1316282e-14
-2.1316282e-14
-2.8421709e-14
-2.1316282e-14
-2.8421709e-14
-2.8421709e-14
-3.5527137e-14
-3.5527137e-14
-4.2632564e-14
-3.5527137e-14
-2.1316282e-14
-1.4210855e-14
7.1054274e-15
-7.1054274e-15
-7.1054274e-15
7.1054274e-15
-3.9443045e-31
0
6.3108872e-30
-7.1054274e-15
-7.1054274e-15
-1.4210855e-14
-7.1054274e-15
-1.9721523e-31
1.4210855e-14
-7.1054274e-15
-7.1054274e-15
-1.4210855e-14
-1.4210855e-14
-7.1054274e-15
-7.1054274e-15
-7.1054274e-15
1.3276304e-29
-1.4210855e-14
-7.1054274e-15
-7.1054274e-15
-7.1054274e-15
7.1054274e-15
1.4210855e-14
7.1054274e-15
1.4210855e-14
1.4210855e-14
7.1054274e-15
7.1054274e-15
7.1054274e-15
7.1054274e-15
-7.1054274e-15
-1.4210855e-14
-2.1316282e-14
-2.8421709e-14
2.7713811e-30
-1.4210855e-14
-7.1054274e-15
-7.1054274e-15
-2.8421709e-14
-2.1316282e-14
-2.1316282e-14
-1.4210855e-14
-1.4210855e-14
-3.5527137e-14
-2.1316282e-14
-2.1316282e-14
-2.1316282e-14
-1.4210855e-14
-2.1316282e-14
-2.8421709e-14
-1.4210855e-14
-1.4210855e-14
-2.1316282e-14
-4.2632564e-14
-2.8421709e-14
-2.8421709e-14
-3.5527137e-14
-4.2632564e-14
-3.5527137e-14
-4.9737992e-14
-4.2632564e-14
-2.8421709e-14
-2.1316282e-14
-1.4210855e-14
-7.1054274e-15
-7.1054274e-15
-2.8421709e-14
-4.2632564e-14
-4.9737992e-14
-5.6843419e-14
-2.8421709e-14
-1.4210855e-14
-2.1316282e-14
5.06043e-30
-1.4210855e-14
-1.4210855e-14
-2.1316282e-14
-7.1054274e-15
-7.1054274e-15
3.0027824e-43
-5.5387618e-56
7.1054274e-15
-7.1054274e-15
-7.1054274e-15
2.7610132e-30
1.4210855e-14
1.4210855e-14
2.1316282e-14
2.1316282e-14
7.1054274e-15
2.1316282e-14
2.1316282e-14
2.8421709e-14
2.1316282e-14
2.8421709e-14
2.8421709e-14
3.5527137e-14
4.2632564e-14
5.6843419e-14
3.5527137e-14
3.5527137e-14
4.9737992e-14
4.9737992e-14
2.8421709e-14
2.1316282e-14
1.4210855e-14
3.5527137e-14
2.8421709e-14
3.5527137e-14
2.1316282e-14
2.1316282e-14
2.8421709e-14
2.8421709e-14
2.8421709e-14
2.8421709e-14
1.4210855e-14
2.1316282e-14
1.5777218e-30
8.6585373e-30
1.6008016e-29
-1.4210855e-14
-2.8421709e-14
-2.1316282e-14
-1.4210855e-14
-2.1316282e-14
-2.1316282e-14
7.1054274e-15
1.4210855e-14
0
7.1054274e-15
1.4210855e-14
7.1054274e-15
2.8421709e-14
1.4210855e-14
2.8421709e-14
2.1316282e-14
1.4210855e-14
-9.170508e-30
1.4210855e-14
2.1316282e-14
2.8421709e-14
3.5527137e-14
3.5527137e-14
3.5527137e-14
3.5527137e-14
4.2632564e-14
3.5527137e-14
2.1316282e-14
2.8421709e-14
7.1054274e-15
1.4210855e-14
2.8421709e-14
2.8421709e-14
1.4210855e-14
1.4210855e-14
7.1054274e-15
-7.1054274e-15
-1.5777218e-30
-7.6578109e-30
1.4210855e-14
7.1054274e-15
1.4210855e-14
-2.3665827e-30
-5.3876946e-30
-1.4210855e-14
-1.4210855e-14
-2.1316282e-14
-2.1316282e-14
-2.1316282e-14
-2.1316282e-14
-1.4210855e-14
-2.1316282e-14
-1.4210855e-14
-1.4210855e-14
-1.4210855e-14
-2.1316282e-14
-3.5527137e-14
-4.2632564e-14
-2.8421709e-14
-3.5527137e-14
-2.1316282e-14
-2.8421709e-14
-2.8421709e-14
-2.1316282e-14
-2.8421709e-14
-4.2632564e-14
-2.8421709e-14
-4.2632564e-14
-4.2632564e-14
-4.2632564e-14
-4.2632564e-14
-2.1316282e-14
-2.8421709e-14
-3.5527137e-14
-3.5527137e-14
-4.9737992e-14
-7.1054274e-14
-5.6843419e-14
-5.6843419e-14
-4.9737992e-14
-3.5527137e-14
-4.2632564e-14
-4.2632564e-14
-5.6843419e-14
-7.8159701e-14
-7.1054274e-14
-7.1054274e-14
-6.3948846e-14
-5.6843419e-14
-6.3948846e-14
-6.3948846e-14
-6.3948846e-14
-7.1054274e-14
-7.8159701e-14
-7.8159701e-14
-8.5265128e-14
-7.8159701e-14
-7.8159701e-14
-8.5265128e-14
-8.5265128e-14
-7.8159701e-14
-5.6843419e-14
-6.3948846e-14
-6.3948846e-14
-7.8159701e-14
-7.8159701e-14
-7.1054274e-14
-7.8159701e-14
-7.8159701e-14
-7.8159701e-14
-8.5265128e-14
-8.5265128e-14
-8.5265128e-14
-9.9475983e-14
-8.5265128e-14
-9.9475983e-14
-1.0658141e-13
-1.0658141e-13
-9.9475983e-14
-1.2079227e-13
-1.2789769e-13
-1.2079227e-13
-9.9475983e-14
-9.2370556e-14
-9.9475983e-14
-8.5265128e-14
-9.2370556e-14
-9.2370556e-14
-9.9475983e-14
-9.9475983e-14
-9.9475983e-14
-9.9475983e-14
-9.2370556e-14
-7.8159701e-14
-7.8159701e-14
-8.5265128e-14
-9.2370556e-14
-9.2370556e-14
-9.2370556e-14
-9.2370556e-14
-9.2370556e-14
-7.8159701e-14
-8.5265128e-14
-7.8159701e-14
-7.8159701e-14
-7.8159701e-14
-7.1054274e-14
-7.1054274e-14
-6.3948846e-14
-5.6843419e-14
-5.6843419e-14
-4.2632564e-14
-4.2632564e-14
-4.9737992e-14
-2.8421709e-14
-2.1316282e-14
-2.8421709e-14
-4.2632564e-14
-2.1316282e-14
-2.1316282e-14
-3.5527137e-14
-3.5527137e-14
-1.4210855e-14
-1.4210855e-14
-2.1316282e-14
-7.1054274e-15
4.4266366e-31
1.9721523e-31
7.1054274e-15
2.1316282e-14
1.4210855e-14
7.1054274e-15
2.1316282e-14
2.1316282e-14
2.1316282e-14
2.1316282e-14
7.1054274e-15
2.1316282e-14
1.4210855e-14
2.3476501e-30
-1.4210855e-14
-1.4210855e-14
-1.4210855e-14
-7.1054274e-15
8.0779357e-31
-7.8886091e-31
-7.1054274e-15
-1.4210855e-14
-2.1316282e-14
-2.1316282e-14
-2.8421709e-14
-2.1316282e-14
-1.4210855e-14
-2.1316282e-14
-1.4210855e-14
-1.4210855e-14
-7.1054274e-15
-7.1054274e-15
-3.4619724e-31
1.4210855e-14
7.0997481e-30
-7.1054274e-15
-7.1054274e-15
-1.9721523e-31
7.1054274e-15
0
-1.4210855e-14
-1.4210855e-14
-4.7331654e-30
-7.1054274e-15
7.1054274e-15
-1.4210855e-14
-1.4210855e-14
-2.1316282e-14
-7.1054274e-15
7.1054274e-15
8.0858243e-30
-1.4210855e-14
-1.4210855e-14
-1.4210855e-14
-2.1316282e-14
-1.4210855e-14
-2.1316282e-14
-2.8421709e-14
-2.8421709e-14
-2.8421709e-14
-2.8421709e-14
-4.2632564e-14
-3.5527137e-14
-3.5527137e-14
-2.1316282e-14
-2.8421709e-14
-4.2632564e-14
-4.2632564e-14
-4.9737992e-14
-2.8421709e-14
-2.8421709e-14
-2.8421709e-14
-2.8421709e-14
-2.8421709e-14
-2.8421709e-14
-2.1316282e-14
-2.8421709e-14
-1.4210855e-14
-7.1054274e-15
-2.1316282e-14
-1.0009275e-42
-7.1054274e-15
-7.1054274e-15
-7.1054274e-15
-7.1054274e-15
2.1316282e-14
2.1316282e-14
2.8421709e-14
2.1316282e-14
2.8421709e-14
2.1316282e-14
2.1316282e-14
2.1316282e-14
2.8421709e-14
2.8421709e-14
1.4210855e-14
1.4210855e-14
2.1316282e-14
7.1054274e-15
-6.0800891e-30
7.1054274e-15
2.8421709e-14
4.9737992e-14
2.8421709e-14
3.5527137e-14
2.8421709e-14
2.1316282e-14
2.8421709e-14
2.8421709e-14
2.8421709e-14
2.1316282e-14
7.1054274e-15
1.4210855e-14
2.8421709e-14
2.8421709e-14
2.1316282e-14
2.8421709e-14
3.5527137e-14
2.1316282e-14
2.1316282e-14
2.1316282e-14
-8.0779357e-31
-1.4210855e-14
-2.8421709e-14
-2.8421709e-14
-3.5527137e-14
-3.5527137e-14
-2.8421709e-14
-3.5527137e-14
-3.5527137e-14
-1.4210855e-14
7.1054274e-15
7.1054274e-15
2.1316282e-14
2.1316282e-14
2.8421709e-14
7.1054274e-15
7.1054274e-15
2.1316282e-14
2.1316282e-14
2.8421709e-14
3.5527137e-14
3.5527137e-14
2.8421709e-14
3.5527137e-14
3.5527137e-14
2.8421709e-14
2.8421709e-14
2.8421709e-14
3.5527137e-14
2.1316282e-14
3.5527137e-14
2.1316282e-14
2.8421709e-14
2.1316282e-14
2.1316282e-14
2.8421709e-14
3.5527137e-14
2.8421709e-14
7.1054274e-15
7.1054274e-15
-7.1054274e-15
-3.9443045e-31
2.1316282e-14
2.1316282e-14
2.1316282e-14
2.1316282e-14
3.5527137e-14
2.8421709e-14
2.1316282e-14
2.8421709e-14
7.1054274e-15
1.4210855e-14
3.5527137e-14
3.5527137e-14
3.5527137e-14
3.5527137e-14
5.6843419e-14
4.9737992e-14
4.9737992e-14
4.9737992e-14
4.9737992e-14
6.3948846e-14
7.1054274e-14
5.6843419e-14
7.1054274e-14
7.1054274e-14
7.8159701e-14
7.1054274e-14
7.8159701e-14
9.9475983e-14
1.1368684e-13
1.2079227e-13
1.2789769e-13
1.3500312e-13
1.563194e-13
1.7763568e-13
2.0605739e-13
2.2026825e-13
2.344791e-13
2.7000624e-13
3.0553338e-13
3.5527137e-13
3.9790393e-13
4.6185278e-13
5.3290705e-13
6.0396133e-13
6.750156e-13
7.7449158e-13
8.7396756e-13
9.9475983e-13
1.1439738e-12
1.2931878e-12
1.4779289e-12
1.6910917e-12
1.91136e-12
2.1813662e-12
2.4868996e-12
2.8350655e-12
3.2329694e-12
3.6877168e-12
4.206413e-12
4.8032689e-12
5.4996008e-12
6.2669869e-12
7.1267436e-12
8.1286089e-12
9.2654773e-12
1.055156e-11
1.2036594e-11
1.3699264e-11
1.5589308e-11
1.7735147e-11
2.0150992e-11
2.2900792e-11
2.6041391e-11
2.9594105e-11
3.3629988e-11
3.8191672e-11
4.3364423e-11
4.9233506e-11
5.5869975e-11
6.3380412e-11
7.1885609e-11
8.1520568e-11
9.2427399e-11
1.0476242e-10
1.1870327e-10
1.3446311e-10
1.5226931e-10
1.7238477e-10
1.9511504e-10
2.2077273e-10
2.4971314e-10
2.8236258e-10
3.1920422e-10
3.6075676e-10
4.0758863e-10
4.6036774e-10
5.1981175e-10
5.867804e-10
6.6216899e-10
7.4705042e-10
8.4256158e-10
9.4998853e-10
1.0708021e-09
1.2066081e-09
1.3592469e-09
1.5307293e-09
1.7233361e-09
1.9395969e-09
2.1823254e-09
2.4547049e-09
2.760224e-09
3.1028549e-09
3.4869458e-09
3.9173926e-09
4.3996309e-09
4.9397215e-09
5.5444431e-09
6.2212848e-09
6.9786168e-09
7.8257543e-09
8.7730001e-09
9.8318864e-09
1.1015153e-08
1.2337011e-08
1.3813249e-08
1.5461303e-08
1.73006e-08
1.935264e-08
2.1641355e-08
2.4193142e-08
2.7037345e-08
3.0206422e-08
3.3736342e-08
3.7666865e-08
4.2042032e-08
4.6910543e-08
5.2326236e-08
5.8348583e-08
6.5043331e-08
7.2483097e-08
8.0748002e-08
8.9926495e-08
1.0011615e-07
1.114246e-07
1.2397041e-07
1.3788426e-07
1.5331016e-07
1.7040658e-07
1.8934801e-07
2.1032643e-07
2.3355297e-07
2.5925971e-07
2.8770177e-07
3.1915939e-07
3.539403e-07
3.9238231e-07
4.3485613e-07
4.8176832e-07
5.3356465e-07
5.9073373e-07
6.5381082e-07
7.2338212e-07
8.0008936e-07
8.8463474e-07
9.7778635e-07
1.080384e-06
1.1933456e-06
1.3176739e-06
1.454464e-06
1.6049114e-06
1.7703205e-06
1.9521141e-06
2.1518435e-06
2.3711993e-06
2.6120231e-06
2.8763205e-06
3.1662743e-06
3.4842597e-06
3.8328595e-06
4.2148819e-06
4.6333782e-06
5.0916625e-06
5.5933333e-06
6.1422956e-06
6.7427859e-06
7.3993974e-06
8.1171089e-06
8.9013139e-06
9.7578535e-06
1.069305e-05
1.1713744e-05
1.2827333e-05
1.4041815e-05
1.536583e-05
1.6808711e-05
1.8380533e-05
2.0092167e-05
2.1955339e-05
2.398269e-05
2.6187842e-05
2.8585468e-05
3.1191363e-05
3.4022524e-05
3.7097236e-05
4.0435154e-05
4.40574e-05
4.798666e-05
5.2247291e-05
5.6865428e-05
6.1869102e-05
6.7288363e-05
7.3155411e-05
7.9504732e-05
8.6373239e-05
9.3800432e-05
0.00010182855
0.00011050274
0.00011987124
0.00012998555
0.00014090065
0.00015267517
0.00016537164
0.00017905669
0.00019380128
0.00020968095
0.00022677608
0.00024517216
0.00026496004
0.00028623624
0.00030910323
0.00033366976
0.00036005117
0.00038836972
0.00041875495
0.00045134401
0.00048628206
0.00052372264
0.00056382804
0.00060676974
0.00065272881
0.00070189633
0.00075447383
0.00081067375
0.00087071991
0.00093484793
0.0010033058
0.0010763542
0.0011542673
0.0012373329
0.0013258532
0.0014201451
0.0015205412
0.0016273896
0.001741055
0.0018619192
0.0019903811
0.0021268581
0.0022717857
0.0024256189
0.002588832
0.0027619197
0.0029453971
0.0031398006
0.0033456884
0.0035636405
0.0037942597
0.0040381718
0.0042960262
0.0045684958
0.0048562783
0.0051600955
0.0054806945
0.0058188475
0.0061753524
0.0065510325
0.0069467375
0.0073633427
0.0078017501
0.0082628878
0.0087477101
0.0092571978
0.0097923578
0.010354223
0.010943853
0.011562331
0.012210768
0.0128903
0.013602085
0.014347307
0.015127174
0.015942917
0.016795787
0.017687059
0.018618029
0.01959001
0.020604338
0.021662363
0.022765455
0.023914998
0.025112391
0.026359045
0.027656386
0.029005847
0.030408872
0.031866913
0.033381426
0.034953873
0.036585718
0.038278426
0.040033461
0.041852285
0.043736354
0.045687119
0.047706023
0.049794497
0.051953962
0.054185822
0.056491469
0.058872272
0.061329583
0.063864731
0.06647902
0.06917373
0.071950109
0.07480938
0.077752728
0.08078131
0.083896242
0.087098606
0.090389442
0.09376975
0.097240487
0.10080256
0.10445685
0.10820415
0.11204526
0.11598087
0.12001166
0.12413823
0.12836116
0.13268093
0.137098
0.14161275
0.14622551
0.15093656
0.15574609
0.16065427
0.16566117
0.17076682
0.17597119
0.18127417
0.1866756
0.19217526
0.19777285
0.20346803
0.20926038
0.21514942
0.2211346
0.22721533
0.23339093
0.23966068
0.24602379
0.2524794
0.2590266
0.26566442
0.27239184
0.27920776
0.28611103
0.29310044
0.30017475
0.30733264
0.31457273
0.3218936
0.32929378
0.33677174
0.34432591
0.35195466
0.35965631
0.36742914
0.3752714
0.38318126
0.39115687
0.39919633
0.40729771
0.41545902
0.42367825
0.43195333
0.44028218
0.44866267
0.45709263
0.46556987
0.47409215
0.48265722
0.49126279
0.49990654
0.50858613
0.51729917
0.52604329
0.53481604
0.54361499
0.55243768
0.56128161
0.57014428
0.57902317
0.58791573
0.59681941
0.60573163
0.61464981
0.62357135
0.63249363
0.64141404
0.65032996
0.65923873
0.66813771
0.67702424
0.68589566
0.69474933
0.70358257
0.71239274
0.72117719
0.72993325
0.73865829
0.74734966
0.75600472
0.76462086
0.77319546
0.78172592
0.79020964
0.79864407
0.80702664
0.81535482
0.8236261
0.83183798
0.83998801
0.84807375
0.85609278
0.86404273
0.87192125
0.87972605
0.88745485
0.89510542
0.90267558
0.91016318
0.91756613
0.92488238
0.93210995
0.9392469
0.94629134
0.95324146
0.96009549
0.96685175
0.9735086
0.98006448
0.98651791
0.99286748
0.99911184
1.0052497
1.01128
1.0172015
1.0230133
1.0287145
1.0343041
1.0397815
1.0451459
1.0503969
1.055534
1.0605568
1.0654651
1.0702586
1.0749372
1.0795011
1.0839502
1.088285
1.0925055
1.0966123
1.100606
1.1044869
1.108256
1.111914
1.1154617
1.1189002
1.1222305
1.1254539
1.1285714
1.1315845
1.1344945
1.137303
1.1400115
1.1426215
1.1451349
1.1475532
1.1498784
1.1521123
1.1542568
1.1563139
1.1582855
1.1601737
1.1619806
1.1637081
1.1653586
1.166934
1.1684366
1.1698685
1.1712319
1.1725289
1.1737617
1.1749325
1.1760434
1.1770966
1.1780941
1.1790381
1.1799306
1.1807738
1.1815695
1.1823198
1.1830267
1.1836919
1.1843175
1.1849052
1.1854567
1.1859739
1.1864584
1.1869119
1.1873359
1.1877319
1.1881015
1.1884461
1.188767
1.1890657
1.1893433
1.1896011
1.1898403
1.190062
1.1902672
1.1904571
1.1906325
1.1907945
1.1909438
1.1910814
1.191208
1.1913244
1.1914314
1.1915295
1.1916193
1.1917017
1.1917769
1.1918457
1.1919085
1.1919657
1.1920178
1.1920652
1.1921082
1.1921473
1.1921828
1.1922149
1.1922439
1.1922701
1.1922938
1.1923152
1.1923344
1.1923517
1.1923672
1.1923812
1.1923936
1.1924048
1.1924148
1.1924237
1.1924316
1.1924387
1.192445
1.1924505
1.1924554
1.1924597
1.1924635
1.1924668
1.1924696
1.1924721
1.1924742
1.1924759
1.1924773
1.1924784
1.1924793
1.1924802
1.1924811
1.192482
1.1924829
1.192484
1.1924851
1.192486
1.1924872
1.1924888
1.1924903
1.1924916
1.1924929
1.1924945
1.1924961
1.1924975
1.1924988
1.1925003
1.192502
1.1925036
1.192505
1.1925064
1.1925079
1.1925095
1.1925108
1.192512
1.1925132
1.1925144
1.1925156
1.1925166
1.1925176
1.1925186
1.1925196
1.1925206
1.1925214
1.1925223
1.1925232
1.192524
1.1925247
1.1925256
1.1925264
1.1925271
1.1925278
1.1925287
1.1925295
1.1925301
1.1925304
1.1925308
1.1925316
1.1925328
1.1925342
1.1925354
1.1925364
1.1925376
1.1925387
1.1925397
1.1925406
1.1925415
1.1925423
1.192543
1.1925437
1.1925444
1.192545
1.1925455
1.192546
1.1925465
1.1925469
1.1925472
1.1925472
1.1925473
1.1925476
1.192548
1.1925481
1.1925482
1.1925486
1.1925495
1.1925506
1.1925517
1.1925525
1.1925534
1.1925543
1.1925553
1.1925562
1.1925571
1.1925579
1.1925586
1.1925592
1.1925597
1.1925602
1.1925607
1.1925611
1.1925614
1.1925618
1.1925622
1.1925626
1.1925631
1.1925634
1.1925638
1.1925641
1.1925644
1.1925647
1.1925649
1.1925652
1.1925655
1.1925657
1.1925659
1.192566
1.1925662
1.1925664
1.1925666
1.1925668
1.192567
1.1925671
1.1925672
1.1925673
1.1925673
1.1925674
1.1925675
1.1925675
1.1925675
1.1925675
1.1925674
1.1925673
1.1925673
1.1925672
1.192567
1.1925666
1.1925663
1.1925661
1.1925658
1.1925656
1.1925654
1.1925652
1.1925651
1.1925652
1.1925653
1.1925653
1.1925654
1.1925655
1.1925658
1.192566
1.1925662
1.1925664
1.1925665
1.1925666
1.1925667
1.1925667
1.1925668
1.1925668
1.1925668
1.1925668
1.1925667
1.1925667
1.1925666
1.1925665
1.1925664
1.1925663
1.1925662
1.1925661
1.1925659
1.1925657
1.1925656
1.1925654
1.1925653
1.1925651
1.1925648
1.1925645
1.1925642
1.192564
1.1925637
1.1925634
1.1925631
1.1925627
1.1925623
1.1925619
1.1925615
1.1925611
1.1925607
1.1925603
1.1925599
1.1925595
1.192559
1.1925586
1.1925581
1.1925577
1.1925572
1.1925567
1.1925563
1.1925559
1.1925555
1.1925551
1.1925547
1.1925544