-1.25 	300 	0.1203485074287229 	101374.1143625364
-1.247497497497497 	300.0376746329437 	0.1203779141674234 	101374.2416355556
-1.244994994994995 	300.0415781240521 	0.1208256123567351 	101374.3544780613
-1.242492492492492 	300.0418295927587 	0.1212442509896712 	101374.4588283672
-1.23998998998999 	300.0419106195609 	0.1213770188141069 	101374.5541183503
-1.237487487487487 	300.0419825638435 	0.1216106713729607 	101374.6402207635
-1.234984984984985 	300.0420476634316 	0.121803812481581 	101374.7172256138
-1.232482482482482 	300.0421051159598 	0.1219690638736278 	101374.7851764782
-1.22997997997998 	300.042154911743 	0.1221152843927398 	101374.8440715087
-1.227477477477477 	300.042197004531 	0.1222377378904351 	101374.8938565078
-1.224974974974975 	300.0422313146545 	0.1223346659703807 	101374.9344417892
-1.222472472472472 	300.0422577893375 	0.1224097127259313 	101374.9657532813
-1.21996996996997 	300.0422763904021 	0.1224645868387717 	101374.9877524306
-1.217467467467467 	300.0422871263289 	0.1224987310313523 	101375.0004607264
-1.214964964964965 	300.0422900572361 	0.1225066912987831 	101375.0039367623
-1.212462462462462 	300.0422852470678 	0.1224906277633243 	101374.9982508177
-1.20995995995996 	300.0422727330848 	0.1224535085179047 	101374.9834558791
-1.207457457457457 	300.0422525284671 	0.1223961561324509 	101374.9595683288
-1.204954954954955 	300.0422246112232 	0.1223180450001564 	101374.926557991
-1.202452452452452 	300.0421889283577 	0.1222137502707955 	101374.8843641633
-1.19994994994995 	300.0421454423782 	0.122085345940923 	101374.8329448991
-1.197447447447447 	300.0420941273238 	0.1219356831656539 	101374.7722689629
-1.194944944944945 	300.0420350055591 	0.1217659232692758 	101374.7023605415
-1.192442442442442 	300.0419681227041 	0.1215745500767898 	101374.6232695879
-1.18993993993994 	300.0418935343799 	0.1213571510872407 	101374.5350642612
-1.187437437437437 	300.0418112783062 	0.1211172669043786 	101374.4377922248
-1.184934934934935 	300.0417213674638 	0.1208564588454815 	101374.331466696
-1.182432432432432 	300.0416238129112 	0.120574312206516 	101374.2161013439
-1.17992992992993 	300.0415186053343 	0.1202706515990936 	101374.0916879046
-1.177427427427427 	300.0414057660831 	0.1199433979954866 	101373.958252623
-1.174924924924925 	300.0412853035012 	0.1195937151942052 	101373.8158004453
-1.172422422422422 	300.0411572228094 	0.1192223164380697 	101373.6643351223
-1.16991991991992 	300.0410215456621 	0.1188295705172015 	101373.5038863091
-1.167417417417417 	300.0408782819757 	0.1184151604029154 	101373.3344701701
-1.164914914914915 	300.0407274929965 	0.1179781669343735 	101373.1561597767
-1.162412412412412 	300.0405692253973 	0.1175193799838207 	101372.9690054856
-1.15990990990991 	300.0404035194747 	0.1170390463080728 	101372.7730492797
-1.157407407407407 	300.0402304220532 	0.1165376676280475 	101372.5683459142
-1.154904904904904 	300.0400499220731 	0.1160149086924927 	101372.3548867431
-1.152402402402403 	300.0398620349476 	0.1154705670789147 	101372.1326959991
-1.1498998998999 	300.0396667770706 	0.1149050413206602 	101371.901795393
-1.147397397397397 	300.0394641618925 	0.1143181707072312 	101371.6621987975
-1.144894894894895 	300.0392542781075 	0.1137105912887908 	101371.4140060027
-1.142392392392392 	300.0390371877212 	0.1130817890024759 	101371.1572850973
-1.13988988988989 	300.0388129401705 	0.1124323662289953 	101370.8920939254
-1.137387387387387 	300.0385816111574 	0.1117625489544262 	101370.6185235685
-1.134884884884885 	300.0383432040708 	0.1110720957270463 	101370.3365813212
-1.132382382382382 	300.0380977439959 	0.110361271123534 	101370.0462993001
-1.12987987987988 	300.0378452946093 	0.1096286683460926 	101369.747753362
-1.127377377377377 	300.0375858308126 	0.1088768352845452 	101369.4409158829
-1.124874874874875 	300.037319369433 	0.1081057945906521 	101369.12580655
-1.122372372372372 	300.0370460113261 	0.107313400722333 	101368.8025443833
-1.11986986986987 	300.036765805455 	0.1065017310400824 	101368.4711870792
-1.117367367367367 	300.0364788506928 	0.1056701726377725 	101368.1318498233
-1.114864864864865 	300.0361852765311 	0.1048210559970551 	101367.7846869386
-1.112362362362362 	300.0358850466027 	0.1039527913265706 	101367.4296545199
-1.10985985985986 	300.0355781603026 	0.1030618811937419 	101367.0667520064
-1.107357357357357 	300.035264770658 	0.1021531028130724 	101366.6961604735
-1.104854854854855 	300.0349448683768 	0.101226067580492 	101366.317867402
-1.102352352352353 	300.0346184039648 	0.1002820018230058 	101365.9318159703
-1.09984984984985 	300.0342855806542 	0.09931989200039325 	101365.5382457577
-1.097347347347347 	300.033946498343 	0.09833609387927339 	101365.1372748126
-1.094844844844845 	300.0336010956559 	0.0973346806860414 	101364.7288314135
-1.092342342342342 	300.0332495774147 	0.09631604974630222 	101364.3131569182
-1.08983983983984 	300.0328920970429 	0.09528104529681805 	101363.8904336039
-1.087337337337337 	300.0325284230774 	0.09422891635992904 	101363.4603878328
-1.084834834834835 	300.0321586027701 	0.09315687557690261 	101363.0230753841
-1.082332332332332 	300.0317830510029 	0.09206796334996012 	101362.578986197
-1.07982982982983 	300.0314016877118 	0.09096290379391668 	101362.1280254944
-1.077327327327327 	300.0310142420178 	0.0898412915375728 	101361.6698743429
-1.074824824824825 	300.0306211145402 	0.08870490844736025 	101361.2050065664
-1.072322322322323 	300.0302226480525 	0.08755140556798623 	101360.7338268044
-1.06981981981982 	300.0298184626598 	0.08637892753135797 	101360.2558851604
-1.067317317317317 	300.0294085349081 	0.08519054168227559 	101359.7711548548
-1.064814814814815 	300.0289935422874 	0.08398819011650201 	101359.2804377287
-1.062312312312312 	300.0285735395842 	0.08277238832120928 	101358.7837980466
-1.05980980980981 	300.0281478646023 	0.08153980099869093 	101358.2804524943
-1.057307307307307 	300.0277166095746 	0.08028905351173733 	101357.7705102073
-1.054804804804805 	300.0272806112597 	0.07902509291749821 	101357.2549610686
-1.052302302302302 	300.026839901942 	0.07774876358135059 	101356.7338430409
-1.0497997997998 	300.0263937647436 	0.07645784836872177 	101356.2063086605
-1.047297297297297 	300.025942325121 	0.07515153952046263 	101355.6725067007
-1.044794794794795 	300.0254865682221 	0.07383085402677776 	101355.1336012992
-1.042292292292292 	300.0250267379787 	0.07249769312440887 	101354.5898814027
-1.03978978978979 	300.0245620887903 	0.07115140706142661 	101354.0404657338
-1.037287287287287 	300.0240923065438 	0.06979064029877494 	101353.4849823528
-1.034784784784785 	300.0236180248709 	0.06841677474280826 	101352.9241808949
-1.032282282282283 	300.0231398112035 	0.06703104744605735 	101352.358732435
-1.02977977977978 	300.0226575173411 	0.06563353840144583 	101351.7884622322
-1.027277277277277 	300.0221708081812 	0.06422430079045091 	101351.2129734133
-1.024774774774775 	300.021679729523 	0.06280251993589243 	101350.6323189706
-1.022272272272272 	300.0211845340677 	0.06136908442079776 	101350.0467995977
-1.01976976976977 	300.0206854881268 	0.0599238747764247 	101349.4567313156
-1.017267267267267 	300.0201829827978 	0.05846755041462847 	101348.8625753416
-1.014764764764765 	300.0196773566805 	0.05700216501132514 	101348.2647295497
-1.012262262262262 	300.0191682723437 	0.05552592476840571 	101347.6627954639
-1.00975975975976 	300.0186547868521 	0.05403892911749419 	101347.0556629797
-1.007257257257257 	300.0181365298753 	0.05253885763211152 	101346.4428936062
-1.004754754754755 	300.0176146588981 	0.05102743539918431 	101345.8258527032
-1.002252252252252 	300.0170910702558 	0.0495115141322556 	101345.2067800749
-0.9997497497497498 	300.0165663867281 	0.04799031194680005 	101344.5864140247
-0.9972472472472473 	300.0160389989927 	0.0464630584736246 	101343.9628583694
-0.9947447447447449 	300.0155065655625 	0.04492151797720587 	101343.3333429281
-0.9922422422422421 	300.0149684807275 	0.04336126542520385 	101342.6971448765
-0.9897397397397399 	300.0144268026896 	0.04179227567024214 	101342.0566943279
-0.9872372372372376 	300.0138845758624 	0.04022139217315793 	101341.4155956091
-0.9847347347347346 	300.0133431919523 	0.03865415224847813 	101340.7755051204
-0.9822322322322323 	300.0128012377665 	0.03708449226460101 	101340.1347526398
-0.9797297297297296 	300.0122557437108 	0.03550178814115874 	101339.4898167502
-0.9772272272272275 	300.0117045562965 	0.0339047311218125 	101338.8381394756
-0.9747247247247248 	300.0111479614325 	0.03229319338703152 	101338.1800592935
-0.9722222222222224 	300.0105883982205 	0.03067370557900955 	101337.5184748677
-0.9697197197197196 	300.010028769014 	0.02905350215016018 	101336.8568310846
-0.9672172172172175 	300.009470648581 	0.02743580864573839 	101336.1969905619
-0.9647147147147147 	300.008913658529 	0.02582121585425015 	101335.5384915377
-0.9622122122122124 	300.008356042865 	0.02420495532842208 	101334.8792405517
-0.9597097097097099 	300.007795821198 	0.022581973194441 	101334.2168906254
-0.9572072072072073 	300.0072317781984 	0.02094862159259697 	101333.5500150083
-0.9547047047047047 	300.0066638966152 	0.01930375604798239 	101332.8786121709
-0.9522022022022023 	300.0060931203499 	0.0176502449001299 	101332.2038125365
-0.9496996996996998 	300.0055207959924 	0.01599233462696334 	101331.527206615
-0.9471971971971973 	300.0049480801661 	0.01433363814235669 	101330.8501467232
-0.9446946946946947 	300.0043756359307 	0.01267646125670967 	101330.1733976846
-0.9421921921921923 	300.0038036250515 	0.01101977737273002 	101329.4971389308
-0.93968968968969 	300.0032318859991 	0.009362269365287347 	101328.8211839471
-0.9371871871871872 	300.0026601049897 	0.007704976690656004 	101328.1451779108
-0.9346846846846848 	300.0020880075398 	0.00604755623501257 	101327.4688128455
-0.9321821821821823 	300.0015154389568 	0.004390414012186178 	101326.7919160549
-0.9296796796796799 	300.0009423890403 	0.002731383111551382 	101326.1144765479
-0.9271771771771771 	300.000368935799 	0.001068643064907012 	101325.4365787112
-0.9246746746746748 	299.999795186132 	0.0009288119974628596 	101324.7583360651
-0.9221721721721724 	299.9992212735463 	0.002256846546636357 	101324.0798924803
-0.9196696696696698 	299.998647339069 	0.003918446076393561 	101323.401403731
-0.9171671671671672 	299.9980735191383 	0.005579899500200873 	101322.7230282995
-0.9146646646646649 	299.9974999527311 	0.007242561632362352 	101322.0449347966
-0.9121621621621623 	299.9969267901013 	0.008903922266091432 	101321.3673084017
-0.9096596596596597 	299.9963541877563 	0.01056274591530122 	101320.6903416277
-0.9071571571571573 	299.9957822816079 	0.01221958413544152 	101320.0142012184
-0.9046546546546547 	299.9952111709471 	0.01387359652584232 	101319.3390082422
-0.9021521521521524 	299.9946409331744 	0.01552585749646144 	101318.6648567385
-0.8996496496496498 	299.9940716495745 	0.01717600738309756 	101317.9918444834
-0.8971471471471473 	299.9935034182684 	0.01882232653753275 	101317.3200871372
-0.894644644644645 	299.9929363427183 	0.02046552854260513 	101316.6497069285
-0.892142142142142 	299.992370519208 	0.02210303524206383 	101315.9808180552
-0.8896396396396397 	299.9918060546509 	0.02373731748583145 	101315.3135428112
-0.8871371371371374 	299.9912430809583 	0.02536914963840835 	101314.6480364892
-0.8846346346346349 	299.9906817501655 	0.02699522939823345 	101313.9844766069
-0.8821321321321324 	299.9901221960134 	0.0286171587561286 	101313.3230205262
-0.8796296296296297 	299.9895645067127 	0.03023132826642569 	101312.6637751257
-0.8771271271271271 	299.9890087432069 	0.03184066246217102 	101312.0068126657
-0.8746246246246248 	299.9884549754443 	0.03344686358941022 	101311.352214397
-0.8721221221221224 	299.9879032978023 	0.03504550939559545 	101310.7000896625
-0.8696196196196196 	299.9873538133031 	0.03663794782040934 	101310.0505574061
-0.8671171171171175 	299.9868066187162 	0.03822168884769676 	101309.4037328041
-0.8646146146146148 	299.9862618206615 	0.03979896240933521 	101308.7597436779
-0.8621121121121121 	299.985719552084 	0.04137125683093692 	101308.1187493128
-0.8596096096096097 	299.985179957971 	0.0429348401083665 	101307.4809214916
-0.857107107107107 	299.9846431514225 	0.04449040011103458 	101306.8463941781
-0.8546046046046049 	299.9841091944218 	0.04603703119623358 	101306.2152390458
-0.8521021021021022 	299.9835781294562 	0.04757527175673457 	101305.5875032586
-0.8495995995995997 	299.9830500303098 	0.04910546306892854 	101304.96327306
-0.8470970970970974 	299.982525020723 	0.05062620004821436 	101304.3426941965
-0.8445945945945946 	299.9820032397272 	0.05213764178716536 	101303.7259329192
-0.8420920920920922 	299.9814847997726 	0.05363904470768883 	101303.113125251
-0.8395895895895897 	299.9809697838386 	0.0551306731549859 	101302.5043705167
-0.8370870870870872 	299.9804582799991 	0.05661263415825642 	101301.8997724696
-0.8345845845845846 	299.9799504043592 	0.05808424157285412 	101301.2994673048
-0.8320820820820823 	299.9794462755048 	0.05954522935071158 	101300.7035940176
-0.8295795795795798 	299.9789459703528 	0.06099485556377921 	101300.1122414117
-0.8270770770770772 	299.9784495201183 	0.06243303555513958 	101299.5254446988
-0.8245745745745746 	299.9779569624293 	0.06385986098442209 	101298.9432484132
-0.8220720720720721 	299.9774683933633 	0.06527519386904239 	101298.3657670271
-0.8195695695695699 	299.976983955712 	0.0666784118123262 	101297.7931712288
-0.817067067067067 	299.9765037854237 	0.06806888748615145 	101297.2256222953
-0.8145645645645651 	299.9760279883095 	0.0694462316927843 	101296.6632455051
-0.8120620620620621 	299.9755566648546 	0.07081109670718171 	101296.106160114
-0.8095595595595597 	299.9750899188666 	0.07216415117768024 	101295.5544894706
-0.8070570570570572 	299.9746278213931 	0.07350395521760579 	101295.0083173465
-0.8045545545545546 	299.9741703920712 	0.07482979826017021 	101294.4676659756
-0.8020520520520523 	299.973717649889 	0.07614025258519211 	101293.9325565936
-0.7995495495495494 	299.973269673867 	0.07743706000830387 	101293.4030812696
-0.7970470470470474 	299.9728265922265 	0.07872202553675874 	101292.8793898007
-0.7945445445445446 	299.9723885274106 	0.07999163544342669 	101292.3616281528
-0.7920420420420423 	299.9719555868393 	0.08124523613888028 	101291.8499249465
-0.7895395395395397 	299.971527880629 	0.08248295913288105 	101291.3444103997
-0.7870370370370371 	299.9711055010955 	0.08370547856852473 	101290.8451935502
-0.7845345345345348 	299.970688489004 	0.08491483138919627 	101290.3523226764
-0.7820320320320323 	299.9702768549278 	0.08610894045854882 	101289.8658100089
-0.7795295295295296 	299.9698706351277 	0.08728625242378368 	101289.3856981467
-0.7770270270270272 	299.969469907186 	0.08844752367190217 	101288.912078751
-0.7745245245245247 	299.9690747690988 	0.08959043783783452 	101288.4450671928
-0.7720220220220222 	299.9686853372028 	0.09071774496172473 	101287.9848010895
-0.7695195195195199 	299.9683017436638 	0.09182997419881429 	101287.5314373084
-0.767017017017017 	299.9679240926976 	0.09292377172009328 	101287.0850983504
-0.7645145145145147 	299.9675524335645 	0.09400074924386215 	101286.6458422393
-0.7620120120120122 	299.9671867881417 	0.09505819566812333 	101286.2136952829
-0.7595095095095097 	299.966827168593 	0.09609981614052446 	101285.788671046
-0.7570070070070072 	299.9664735867239 	0.0971258843950277 	101285.370784553
-0.7545045045045048 	299.9661260984267 	0.09813286569565677 	101284.9601008253
-0.7520020020020022 	299.9657848055766 	0.09912283024193197 	101284.5567401675
-0.7494994994994997 	299.9654498268823 	0.1000917692398989 	101284.1608425618
-0.7469969969969972 	299.9651212877496 	0.101042608003367 	101283.7725563922
-0.7444944944944945 	299.9647992935055 	0.1019766193825057 	101283.392007701
-0.7419919919919924 	299.9644838962944 	0.1028904561883946 	101283.019256789
-0.7394894894894897 	299.9641751045046 	0.1037854371040413 	101282.6543132283
-0.7369869869869872 	299.9638729047815 	0.1046606095194048 	101282.2971606003
-0.7344844844844846 	299.9635772834731 	0.1055170855907478 	101281.9477828611
-0.7319819819819822 	299.9632882756006 	0.1063550292063231 	101281.6062225467
-0.7294794794794797 	299.9630059658302 	0.1071730086219859 	101281.272579648
-0.7269769769769773 	299.9627304490525 	0.1079712380318171 	101280.9469658579
-0.7244744744744747 	299.9624618317145 	0.1087488579655878 	101280.6295069072
-0.721971971971972 	299.9622002184275 	0.109506452625257 	101280.3203256112
-0.7194694694694695 	299.9619456741414 	0.1102440626498578 	101280.0194986707
-0.7169669669669674 	299.9616982249936 	0.1109611508030721 	101279.7270572244
-0.7144644644644647 	299.9614578717274 	0.1116577969521015 	101279.4430024271
-0.711961961961962 	299.9612246121401 	0.1123334142472315 	101279.1673329937
-0.7094594594594597 	299.9609984611674 	0.1129884287530487 	101278.9000664915
-0.7069569569569573 	299.9607794443242 	0.1136229178285184 	101278.6412313224
-0.7044544544544545 	299.9605676104457 	0.1142367512780009 	101278.3908834014
-0.7019519519519523 	299.9603630343886 	0.114829632103358 	101278.1491116972
-0.6994494494494495 	299.9601657837492 	0.11540092982947 	101277.9159978257
-0.6969469469469471 	299.9599759082781 	0.115950743554188 	101277.6916018395
-0.6944444444444446 	299.9597934482433 	0.1164791442055429 	101277.4759721014
-0.6919419419419421 	299.9596184390902 	0.1169864266972165 	101277.2691481669
-0.6894394394394396 	299.9594509011266 	0.1174720886649651 	101277.0711531916
-0.6869369369369374 	299.9592908430769 	0.1179357323292887 	101276.881996961
-0.6844344344344344 	299.9591382810461 	0.1183771911263243 	101276.7016978845
-0.6819319319319321 	299.9589932341215 	0.1187969888415319 	101276.5302794279
-0.6794294294294296 	299.9588557208189 	0.1191960231976769 	101276.3677651086
-0.6769269269269272 	299.9587257748029 	0.1195729057195651 	101276.2141961569
-0.6744244244244245 	299.9586034612942 	0.1199271887261341 	101276.0696498571
-0.6719219219219222 	299.958488849349 	0.1202577921467821 	101275.9342067751
-0.6694194194194195 	299.9583819475332 	0.120566537686119 	101275.8078726661
-0.6669169169169172 	299.958282706348 	0.1208557719608623 	101275.6905889718
-0.6644144144144146 	299.9581911016042 	0.1211221815775555 	101275.5823296192
-0.661911911911912 	299.9581071810103 	0.1213651668224036 	101275.483149749
-0.6594094094094097 	299.9580310019036 	0.1215854006340015 	101275.393119256
-0.656906906906907 	299.9579625707516 	0.1217820999728439 	101275.3122480924
-0.6544044044044046 	299.957901874365 	0.1219582716018004 	101275.2405187933
-0.6519019019019021 	299.9578489371809 	0.1221129913334948 	101275.1779612852
-0.6493993993993996 	299.9578038254791 	0.1222437189464973 	101275.124653198
-0.6468968968968971 	299.9577665649282 	0.1223521479936732 	101275.0806216788
-0.6443943943943946 	299.9577371072514 	0.1224354766997101 	101275.0458101961
-0.6418918918918921 	299.9577153932762 	0.1224980697238969 	101275.0201479301
-0.6393893893893897 	299.9577014188391 	0.1225406245945969 	101275.003629223
-0.6368868868868871 	299.9576952186067 	0.122558594633121 	101274.9962969165
-0.6343843843843846 	299.957696823568 	0.1225543248817599 	101274.9981879151
-0.6318818818818821 	299.9577062330575 	0.1225250520425203 	101275.0093012543
-0.6293793793793795 	299.9577234440312 	0.1224747390052036 	101275.0296350604
-0.6268768768768773 	299.9577484696022 	0.122403335070844 	101275.0592088988
-0.6243743743743745 	299.9577812698644 	0.1223081142854744 	101275.0980387825
-0.6218718718718721 	299.9578219350767 	0.1221915438792473 	101275.1460998165
-0.6193693693693696 	299.9578704069456 	0.1220509811801075 	101275.2033352498
-0.6168668668668671 	299.957926559339 	0.1218882621082069 	101275.2696833608
-0.6143643643643645 	299.9579903913576 	0.1217036834883062 	101275.3451223869
-0.6118618618618621 	299.958061940528 	0.121496106924944 	101275.4296802853
-0.6093593593593596 	299.9581412374534 	0.1212663852938827 	101275.5233922066
-0.6068568568568571 	299.9582282713091 	0.1210138395204018 	101275.62624526
-0.6043543543543546 	299.9583230094592 	0.1207394349964424 	101275.7382002346
-0.6018518518518521 	299.9584254357765 	0.1204430986448902 	101275.8592394064
-0.5993493493493496 	299.9585355638703 	0.1201243313664196 	101275.9893813392
-0.5968468468468471 	299.9586533664768 	0.1197835030051377 	101276.1285962119
-0.5943443443443446 	299.9587787388011 	0.1194201494270511 	101276.2767593761
-0.591841841841842 	299.9589115864991 	0.1190349955346551 	101276.4337589411
-0.5893393393393397 	299.9590519310312 	0.1186280026688468 	101276.5996207144
-0.5868368368368371 	299.9591998515593 	0.1181990436525938 	101276.7744367885
-0.5843343343343346 	299.9593553751741 	0.1177482347065745 	101276.9582385111
-0.5818318318318321 	299.9595184338127 	0.1172754145241867 	101277.1509441513
-0.5793293293293297 	299.959688907666 	0.1167813757616242 	101277.35241132
-0.5768268268268271 	299.9598667672924 	0.1162662113444778 	101277.5626059662
-0.5743243243243245 	299.9600520912664 	0.1157300275964617 	101277.7816213934
-0.5718218218218221 	299.960244879741 	0.1151723652258017 	101278.0094577274
-0.5693193193193196 	299.9604449774492 	0.114592879140001 	101278.2459316858
-0.5668168168168171 	299.9606521970005 	0.1139923015718709 	101278.4908225967
-0.5643143143143147 	299.9608664474078 	0.113370901257883 	101278.7440233046
-0.5618118118118121 	299.9610878541026 	0.1127291141429281 	101279.0056814554
-0.5593093093093094 	299.9613166470007 	0.1120660982036047 	101279.276071344
-0.5568068068068072 	299.961552816951 	0.1113815869719669 	101279.5551807913
-0.5543043043043046 	299.9617960671953 	0.1106763525893934 	101279.8426581472
-0.551801801801802 	299.9620460959106 	0.10995169920401 	101280.1381473168
-0.5492992992992995 	299.962302851709 	0.1092089846816604 	101280.4415868415
-0.5467967967967969 	299.9625665862409 	0.1084459354664691 	101280.7532751343
-0.5442942942942947 	299.9628375261134 	0.1076613080920505 	101281.0734796084
-0.5417917917917919 	299.9631155164286 	0.1068545601117897 	101281.4020171648
-0.5392892892892895 	299.9634001235827 	0.1060282168921624 	101281.7383752467
-0.536786786786787 	299.9636910478609 	0.1051863880978153 	101282.0821991937
-0.5342842842842846 	299.9639884282464 	0.1043257040074116 	101282.4336552873
-0.531781781781782 	299.9642927149063 	0.103443982123426 	101282.7932740402
-0.5292792792792794 	299.96460413502 	0.1025422311885632 	101283.1613241315
-0.526776776776777 	299.9649223374354 	0.1016185102387212 	101283.5373908419
-0.5242742742742745 	299.9652466301541 	0.1006794324116495 	101283.9206551517
-0.521771771771772 	299.9655765709568 	0.09972607492870231 	101284.3105969479
-0.5192692692692695 	299.9659123472659 	0.09875298322340854 	101284.7074369197
-0.516766766766767 	299.966254616554 	0.09776114710247792 	101285.1119514787
-0.5142642642642645 	299.9666038941421 	0.09674638428304762 	101285.524750815
-0.511761761761762 	299.9669600379932 	0.09571419283138384 	101285.9456650381
-0.5092592592592596 	299.9673222584011 	0.09466704592286257 	101286.3737628759
-0.506756756756757 	299.9676897538634 	0.09360261997289326 	101286.808096006
-0.5042542542542544 	299.9680622933085 	0.09252384734417687 	101287.2483913184
-0.5017517517517521 	299.9684404081529 	0.09142752978617882 	101287.6952784733
-0.4992492492492494 	299.9688248840883 	0.09031373075540303 	101288.149685128
-0.496746746746747 	299.969216060202 	0.08918124896721415 	101288.6120131519
-0.4942442442442445 	299.9696134339233 	0.08803024041481547 	101289.0816670147
-0.4917417417417421 	299.9700160180997 	0.08686440615118125 	101289.5574793069
-0.4892392392392395 	299.9704230377287 	0.08568446979129099 	101290.0385353401
-0.486736736736737 	299.9708345635037 	0.08449174766635535 	101290.5249190694
-0.4842342342342345 	299.9712514281285 	0.08328399565126168 	101291.0176163374
-0.481731731731732 	299.9716745504807 	0.08205823957107099 	101291.5177113157
-0.4792292292292296 	299.972104154985 	0.08081425299770312 	101292.0254689515
-0.4767267267267268 	299.9725395590611 	0.07955311906080725 	101292.5400824863
-0.4742242242242246 	299.9729795879517 	0.0782787597921033 	101293.0601626862
-0.471721721721722 	299.9734232741834 	0.07699351752988146 	101293.584568884
-0.4692192192192195 	299.9738704450183 	0.0756977023317263 	101294.1130958779
-0.4667167167167169 	299.9743217979421 	0.07438965696267483 	101294.6465680055
-0.4642142142142145 	299.974778465368 	0.0730660199016884 	101295.1863231259
-0.461711711711712 	299.9752412352594 	0.07172540635977956 	101295.7332931881
-0.4592092092092094 	299.9757100060211 	0.07036780414882392 	101296.2873592551
-0.456706706706707 	299.9761838216231 	0.06899578774704639 	101296.8473903053
-0.4542042042042045 	299.9766613817851 	0.06761276346611216 	101297.41184892
-0.451701701701702 	299.9771417274069 	0.06622096062132465 	101297.9795999617
-0.4491991991991995 	299.9776247397206 	0.06482133662723119 	101298.5505045592
-0.4466966966966969 	299.9781111052864 	0.06341186899705363 	101299.1253768155
-0.4441941941941945 	299.9786018332684 	0.06199012004115497 	101299.7054097419
-0.441691691691692 	299.9790977174192 	0.06055356684022699 	101300.2915411356
-0.4391891891891895 	299.9795989756405 	0.05910131827800262 	101300.8840256059
-0.436686686686687 	299.9801051146423 	0.05763521459488159 	101301.4822787239
-0.4341841841841846 	299.9806151244654 	0.05615788141218378 	101302.085108571
-0.431681681681682 	299.9811278537126 	0.05467323275624106 	101302.691156176
-0.4291791791791794 	299.9816425013653 	0.05318262451410307 	101303.2994769397
-0.426676676676677 	299.9821590213265 	0.05168577468420875 	101303.9100142351
-0.4241741741741744 	299.9826780196121 	0.05018132757161978 	101304.5234818142
-0.421671671671672 	299.9832003029414 	0.04866720238854623 	101305.1408326257
-0.4191691691691694 	299.9837265612933 	0.04714329460740536 	101305.7628838424
-0.4166666666666669 	299.9842571253918 	0.0456071115152397 	101306.3900304658
-0.4141641641641645 	299.98479183437 	0.04405821281726717 	101307.0220831237
-0.411661661661662 	299.9853301774933 	0.04249796367149844 	101307.6584346255
-0.4091591591591594 	299.9858713908966 	0.04092837924971985 	101308.2981794291
-0.406656656656657 	299.9864146076741 	0.03935633725602655 	101308.9402897864
-0.4041541541541545 	299.9869591789858 	0.03778078858879547 	101309.5840019095
-0.401651651651652 	299.9875048759458 	0.03619940057545337 	101310.2290501011
-0.3991491491491494 	299.9880518487702 	0.03461432023149744 	101310.875614175
-0.396646646646647 	299.9886006336561 	0.03302179725475986 	101311.5243285075
-0.3941441441441444 	299.9891515953091 	0.03142605220370197 	101312.1756164162
-0.3916416416416419 	299.989704847848 	0.02982563208333731 	101312.8296112547
-0.3891391391391395 	299.9902606791626 	0.02821518136616396 	101313.4866514635
-0.3866366366366368 	299.990819318454 	0.02659754141156118 	101314.147013405
-0.3841341341341344 	299.9913802686976 	0.02497106373106406 	101314.810116246
-0.381631631631632 	299.991943392393 	0.02333993994990608 	101315.4757979673
-0.3791291291291294 	299.9925081802514 	0.02170437573981574 	101316.143453242
-0.3766266266266269 	299.9930742573605 	0.0200642255254969 	101316.8126314212
-0.3741241241241244 	299.9936413335341 	0.01842226395826732 	101317.4829853107
-0.371621621621622 	299.9942092241794 	0.01677697032427366 	101318.1542992938
-0.3691191191191194 	299.9947775142493 	0.01513077356400259 	101318.8260883133
-0.366616616616617 	299.9953463843943 	0.01348347374931718 	101319.4985742114
-0.3641141141141143 	299.9959155148624 	0.01183475725021161 	101320.1713806877
-0.3616116116116119 	299.9964850859654 	0.010184889754187 	101320.8447158293
-0.3591091091091095 	299.9970552473092 	0.008532552416805365 	101321.5187486219
-0.356606606606607 	299.9976259640864 	0.006879025319308918 	101322.1934304684
-0.3541041041041044 	299.9981970710584 	0.00522424724448816 	101322.8685670626
-0.3516016016016019 	299.9987687345046 	0.0035679790970807 	101323.5443616514
-0.3490990990990994 	299.9993409246163 	0.00191049277836095 	101324.220789145
-0.346596596596597 	299.9999135289236 	0.0002515919393255685 	101324.8977223138
-0.3440940940940944 	300.0004862867859 	0.001413225635785464 	101325.5748500031
-0.3415915915915919 	300.001058969131 	0.003065679856956029 	101326.2518935737
-0.3390890890890895 	300.0016314263173 	0.004723551801494467 	101326.9286650094
-0.3365865865865869 	300.0022035418952 	0.006380637305291751 	101327.605021703
-0.3340840840840844 	300.0027752212191 	0.00803715892947429 	101328.2808553496
-0.3315815815815819 	300.0033463826534 	0.00969226142163465 	101328.9560776354
-0.3290790790790794 	300.0039169393748 	0.01134581950331835 	101329.6305978459
-0.3265765765765769 	300.0044867940163 	0.01299707422076362 	101330.3043062413
-0.3240740740740744 	300.0050558510603 	0.01464569717001767 	101330.9770880793
-0.3215715715715718 	300.0056240216505 	0.01629172690684189 	101331.6488297362
-0.3190690690690695 	300.0061911962222 	0.0179343688267179 	101332.3193894225
-0.3165665665665668 	300.0067572366629 	0.01957370294877401 	101332.9885953354
-0.3140640640640644 	300.0073220042549 	0.02120892424313029 	101333.6562826502
-0.311561561561562 	300.0078853782842 	0.02284029748459603 	101334.3223175165
-0.3090590590590593 	300.0084472665148 	0.02446827924234812 	101334.9866017914
-0.3065565565565568 	300.0090075924886 	0.02609217407985196 	101335.6490557705
-0.3040540540540545 	300.009566275226 	0.02771184165089531 	101336.3095886835
-0.3015515515515518 	300.0101232340306 	0.02932543539285135 	101336.9681004085
-0.2990490490490494 	300.0106783845716 	0.03093314953988488 	101337.6244832562
-0.2965465465465469 	300.0112316128992 	0.03253554952312663 	101338.2785898651
-0.2940440440440444 	300.0117827666533 	0.03413216157552717 	101338.9302312977
-0.2915415415415418 	300.0123316936086 	0.03572317550995847 	101339.5792247635
-0.2890390390390395 	300.012878281029 	0.03730563041953578 	101340.2254386984