/*--------------------------------*- C++ -*----------------------------------*\
  =========                 |
  \\      /  F ield         | OpenFOAM: The Open Source CFD Toolbox
   \\    /   O peration     | Website:  https://openfoam.org
    \\  /    A nd           | Version:  7
     \\/     M anipulation  |
\*---------------------------------------------------------------------------*/
FoamFile
{
    version     2.0;
    format      ascii;
    class       volScalarField;
    location    "0.00028";
    object      p;
}
// * * * * * * * * * * * * * * * * * * * * * * * * * * * * * * * * * * * * * //

dimensions      [1 -1 -2 0 0 0 0];

internalField   nonuniform List<scalar> 
5000
(
114269.26
114281.33
114293.53
114305.76
114318.01
114330.27
114342.54
114354.8
114367.06
114379.32
114391.58
114403.84
114416.1
114428.36
114440.61
114452.86
114465.12
114477.36
114489.61
114501.86
114514.1
114526.35
114538.59
114550.83
114563.07
114575.3
114587.54
114599.77
114612
114624.23
114636.46
114648.69
114660.91
114673.14
114685.36
114697.58
114709.8
114722.02
114734.23
114746.45
114758.66
114770.87
114783.08
114795.29
114807.49
114819.7
114831.9
114844.1
114856.3
114868.5
114880.7
114892.89
114905.08
114917.28
114929.47
114941.65
114953.84
114966.03
114978.21
114990.39
115002.57
115014.75
115026.93
115039.1
115051.28
115063.45
115075.62
115087.79
115099.96
115112.12
115124.29
115136.45
115148.61
115160.77
115172.93
115185.09
115197.24
115209.4
115221.55
115233.7
115245.85
115257.99
115270.14
115282.28
115294.42
115306.57
115318.7
115330.84
115342.98
115355.11
115367.25
115379.38
115391.51
115403.63
115415.76
115427.89
115440.01
115452.13
115464.25
115476.37
115488.49
115500.6
115512.72
115524.83
115536.94
115549.05
115561.16
115573.26
115585.37
115597.47
115609.57
115621.67
115633.77
115645.87
115657.96
115670.05
115682.15
115694.24
115706.33
115718.41
115730.5
115742.58
115754.67
115766.75
115778.83
115790.9
115802.98
115815.06
115827.13
115839.2
115851.27
115863.34
115875.41
115887.47
115899.54
115911.6
115923.66
115935.72
115947.78
115959.83
115971.89
115983.94
115995.99
116008.04
116020.09
116032.14
116044.18
116056.23
116068.27
116080.31
116092.35
116104.39
116116.42
116128.46
116140.49
116152.52
116164.55
116176.58
116188.61
116200.63
116212.66
116224.68
116236.7
116248.72
116260.73
116272.75
116284.77
116296.78
116308.79
116320.8
116332.81
116344.81
116356.82
116368.82
116380.83
116392.83
116404.82
116416.82
116428.82
116440.81
116452.81
116464.8
116476.79
116488.78
116500.76
116512.75
116524.73
116536.71
116548.69
116560.67
116572.65
116584.63
116596.6
116608.57
116620.54
116632.51
116644.48
116656.45
116668.42
116680.38
116692.34
116704.3
116716.26
116728.22
116740.17
116752.13
116764.08
116776.03
116787.98
116799.93
116811.88
116823.82
116835.77
116847.71
116859.65
116871.59
116883.53
116895.46
116907.4
116919.33
116931.26
116943.19
116955.12
116967.05
116978.97
116990.9
117002.82
117014.74
117026.66
117038.58
117050.49
117062.41
117074.32
117086.23
117098.14
117110.05
117121.96
117133.86
117145.77
117157.67
117169.57
117181.47
117193.36
117205.26
117217.16
117229.05
117240.94
117252.83
117264.72
117276.6
117288.49
117300.37
117312.26
117324.14
117336.02
117347.89
117359.77
117371.64
117383.52
117395.39
117407.26
117419.13
117430.99
117442.86
117454.72
117466.58
117478.44
117490.3
117502.16
117514.02
117525.87
117537.72
117549.57
117561.42
117573.27
117585.12
117596.96
117608.81
117620.65
117632.49
117644.33
117656.16
117668
117679.83
117691.67
117703.5
117715.33
117727.15
117738.98
117750.8
117762.63
117774.45
117786.27
117798.09
117809.9
117821.72
117833.53
117845.34
117857.16
117868.96
117880.77
117892.58
117904.38
117916.18
117927.99
117939.78
117951.58
117963.38
117975.17
117986.97
117998.76
118010.55
118022.34
118034.12
118045.91
118057.69
118069.48
118081.26
118093.04
118104.81
118116.59
118128.36
118140.14
118151.91
118163.68
118175.45
118187.21
118198.98
118210.74
118222.5
118234.26
118246.02
118257.78
118269.54
118281.29
118293.04
118304.79
118316.54
118328.29
118340.04
118351.78
118363.53
118375.27
118387.01
118398.75
118410.49
118422.22
118433.96
118445.69
118457.42
118469.15
118480.88
118492.61
118504.34
118516.06
118527.79
118539.51
118551.23
118562.95
118574.67
118586.39
118598.1
118609.82
118621.53
118633.24
118644.95
118656.66
118668.37
118680.08
118691.79
118703.49
118715.19
118726.9
118738.6
118750.3
118762
118773.7
118785.39
118797.09
118808.78
118820.47
118832.16
118843.85
118855.54
118867.23
118878.91
118890.59
118902.27
118913.95
118925.62
118937.3
118948.97
118960.63
118972.3
118983.95
118995.61
119007.26
119018.91
119030.55
119042.19
119053.82
119065.44
119077.06
119088.67
119100.27
119111.86
119123.44
119135.02
119146.58
119158.13
119169.67
119181.19
119192.7
119204.19
119215.67
119227.13
119238.57
119249.98
119261.38
119272.75
119284.1
119295.42
119306.72
119317.98
119329.21
119340.41
119351.58
119362.7
119373.79
119384.84
119395.84
119406.8
119417.71
119428.57
119439.38
119450.13
119460.83
119471.47
119482.05
119492.56
119503.01
119513.38
119523.69
119533.92
119544.07
119554.14
119564.14
119574.04
119583.86
119593.59
119603.22
119612.76
119622.2
119631.54
119640.78
119649.91
119658.94
119667.85
119676.65
119685.34
119693.91
119702.36
119710.7
119718.9
119726.99
119734.94
119742.77
119750.47
119758.04
119765.48
119772.78
119779.95
119786.99
119793.89
119800.65
119807.27
119813.75
119820.1
119826.31
119832.37
119838.3
119844.09
119849.75
119855.26
119860.64
119865.88
119870.98
119875.94
119880.78
119885.47
119890.04
119894.48
119898.78
119902.96
119907.01
119910.93
119914.73
119918.41
119921.97
119925.41
119928.73
119931.94
119935.04
119938.03
119940.91
119943.68
119946.36
119948.93
119951.4
119953.78
119956.06
119958.25
119960.36
119962.37
119964.31
119966.16
119967.93
119969.62
119971.24
119972.79
119974.27
119975.68
119977.02
119978.31
119979.53
119980.69
119981.8
119982.85
119983.85
119984.8
119985.7
119986.55
119987.36
119988.13
119988.86
119989.55
119990.2
119990.81
119991.39
119991.94
119992.46
119992.95
119993.41
119993.84
119994.25
119994.63
119994.99
119995.33
119995.65
119995.95
119996.23
119996.49
119996.74
119996.97
119997.18
119997.38
119997.57
119997.75
119997.91
119998.07
119998.21
119998.34
119998.47
119998.58
119998.69
119998.79
119998.88
119998.97
119999.05
119999.12
119999.19
119999.26
119999.32
119999.37
119999.42
119999.47
119999.51
119999.55
119999.59
119999.62
119999.65
119999.68
119999.71
119999.73
119999.76
119999.78
119999.8
119999.81
119999.83
119999.85
119999.86
119999.87
119999.88
119999.89
119999.9
119999.91
119999.92
119999.93
119999.93
119999.94
119999.95
119999.95
119999.96
119999.96
119999.96
119999.97
119999.97
119999.97
119999.98
119999.98
119999.98
119999.98
119999.98
119999.99
119999.99
119999.99
119999.99
119999.99
119999.99
119999.99
119999.99
119999.99
119999.99
119999.99
120000
120000
120000
120000
120000
120000
120000
120000
120000
120000
120000
120000
120000
120000
120000
120000
120000
120000
120000
120000
120000
120000
120000
120000
120000
120000
120000
120000
120000
120000
120000
120000
120000
120000
120000
120000
120000
120000
120000
120000
120000
120000
120000
120000
120000
120000
120000
120000
120000
120000
120000
120000
120000
120000
120000
120000
120000
120000
120000
120000
120000
120000
120000
120000
120000
120000
120000
120000
120000
120000
120000
120000
120000
120000
120000
120000
120000
120000
120000
120000
120000
120000
120000
120000
120000
120000
120000
120000
120000
120000
120000
120000
120000
120000
120000
120000
120000
120000
120000
120000
120000
120000
120000
120000
120000
120000
120000
120000
120000
120000
120000
120000
120000
120000
120000
120000
120000
120000
120000
120000
120000
120000
120000
120000
120000
120000
120000
120000
120000
120000
120000
120000
120000
120000
120000
120000
120000
120000
120000
120000
120000
120000
120000
120000
120000
120000
120000
120000
120000
120000
120000
120000
120000
120000
120000
120000
120000
120000
120000
120000
120000
120000
120000
120000
120000
120000
120000
120000
120000
120000
120000
120000
120000
120000
120000
120000
120000
120000
120000
120000
120000
120000
120000
120000
120000
120000
120000
120000
120000
120000
120000
120000
120000
120000
120000
120000
120000
120000
120000
120000
120000
120000
120000
120000
120000
120000
120000
120000
120000
120000
120000
120000
120000
120000
120000
120000
120000
120000
120000
120000
120000
120000
120000
120000
120000
120000
120000
120000
120000
120000
120000
120000
120000
120000
120000
120000
120000
120000
120000
120000
120000
120000
120000
120000
120000
120000
120000
120000
120000
120000
120000
120000
120000
120000
120000
120000
120000
120000
120000
120000
120000
120000
120000
120000
120000
120000
120000
120000
120000
120000
120000
120000
120000
120000
120000
120000
120000
120000
120000
120000
120000
120000
120000
120000
120000
120000
120000
120000
120000
120000
120000
120000
120000
120000
120000
120000
120000
120000
120000
120000
120000
120000
120000
120000
120000
120000
120000
120000
120000
120000
120000
120000
120000
120000
120000
120000
120000
120000
120000
120000
120000
120000
120000
120000
120000
120000
120000
120000
120000
120000
120000
120000
120000
120000
120000
120000
120000
120000
120000
120000
120000
120000
120000
120000
120000
120000
120000
120000
120000
120000
120000
120000
120000
120000
120000
120000
120000
120000
120000
120000
120000
120000
120000
120000
120000
120000
120000
120000
120000
120000
120000
120000
120000
120000
120000
120000
120000
120000
120000
120000
120000
120000
120000
120000
120000
120000
120000
120000
120000
120000
120000
120000
120000
120000
120000
120000
120000
120000
120000
120000
120000
120000
120000
120000
120000
120000
120000
120000
120000
120000
120000
120000
120000
120000
120000
120000
120000
120000
120000
120000
120000
120000
120000
120000
120000
120000
120000
120000
120000
120000
120000
120000
120000
120000
120000
120000
120000
120000
120000
120000
120000
120000
120000
120000
120000
120000
120000
120000
120000
120000
120000
120000
120000
120000
120000
120000
120000
120000
120000
120000
120000
120000
120000
120000
120000
120000
120000
120000
120000
120000
120000
120000
120000
120000
120000
120000
120000
120000
120000
120000
120000
120000
120000
120000
120000
120000
120000
120000
120000
120000
120000
120000
120000
120000
120000
120000
120000
120000
120000
120000
120000
120000
120000
120000
120000
120000
120000
120000
120000
120000
120000
120000
120000
120000
120000
120000
120000
120000
120000
120000
120000
120000
120000
120000
120000
120000
120000
120000
120000
120000
120000
120000
120000
120000
120000
120000
120000
120000
120000
120000
120000
120000
120000
120000
120000
120000
120000
120000
120000
120000
120000
120000
120000
120000
120000
120000
120000
120000
120000
120000
120000
120000
120000
120000
120000
120000
120000
120000
120000
120000
120000
120000
120000
120000
120000
120000
120000
120000
120000
120000
120000
120000
120000
120000
120000
120000
120000
120000
120000
120000
120000
120000
120000
120000
120000
120000
120000
120000
120000
120000
120000
120000
120000
120000
120000
120000
120000
120000
120000
120000
120000
120000
120000
120000
120000
120000
120000
120000
120000
120000
120000
120000
120000
120000
120000
120000
120000
120000
120000
120000
120000
120000
120000
120000
120000
120000
120000
120000
120000
120000
120000
120000
120000
120000
120000
120000
120000
120000
120000
120000
120000
120000
120000
120000
120000
120000
120000
120000
120000
120000
120000
120000
120000
120000
120000
120000
120000
120000
120000
120000
120000
120000
120000
120000
120000
120000
120000
120000
120000
120000
120000
120000
120000
120000
120000
120000
120000
120000
120000
120000
120000
120000
120000
120000
120000
120000
120000
120000
120000
120000
120000
120000
120000
120000
120000
120000
120000
120000
120000
120000
120000
120000
120000
120000
120000
120000
120000
120000
120000
120000
120000
120000
120000
120000
120000
120000
120000
120000
120000
120000
120000
120000
120000
120000
120000
120000
120000
120000
120000
120000
120000
120000
120000
120000
120000
120000
120000
120000
120000
120000
120000
120000
120000
120000
120000
120000
120000
120000
120000
120000
120000
120000
120000
120000
120000
120000
120000
120000
120000
120000
120000
120000
120000
120000
120000
120000
120000
120000
120000
120000
120000
120000
120000
120000
120000
120000
120000
120000
120000
120000
120000
120000
120000
120000
120000
120000
120000
120000
120000
120000
120000
120000
120000
120000
120000
120000
120000
120000
120000
120000
120000
120000
120000
120000
120000
120000
120000
120000
120000
120000
120000
120000
120000
120000
120000
120000
120000
120000
120000
120000
120000
120000
120000
120000
120000
120000
120000
120000
120000
120000
120000
120000
120000
120000
120000
120000
120000
120000
120000
120000
120000
120000
120000
120000
120000
120000
120000
120000
120000
120000
120000
120000
120000
120000
120000
120000
120000
120000
120000
120000
120000
120000
120000
120000
120000
120000
120000
120000
120000
120000
120000
120000
120000
120000
120000
120000
120000
120000
120000
120000
120000
120000
120000
120000
120000
120000
120000
120000
120000
120000
120000
120000
120000
120000
120000
120000
120000
120000
120000
120000
120000
120000
120000
120000
120000
120000
120000
120000
120000
120000
120000
120000
120000
120000
120000
120000
120000
120000
120000
120000
120000
120000
120000
120000
120000
120000
120000
120000
120000
120000
120000
120000
120000
120000
120000
120000
120000
120000
120000
120000
120000
120000
120000
120000
120000
120000
120000
120000
120000
120000
120000
120000
120000
120000
120000
120000
120000
120000
120000
120000
120000
120000
120000
120000
120000
120000
120000
120000
120000
120000
120000
120000
120000
120000
120000
120000
120000
120000
120000
120000
120000
120000
120000
120000
120000
120000
120000
120000
120000
120000
120000
120000
120000
120000
120000
120000
120000
120000
120000
120000
120000
120000
120000
120000
120000
120000
120000
120000
120000
120000
120000
120000
120000
120000
120000
120000
120000
120000
120000
120000
120000
120000
120000
120000
120000
120000
120000
120000
120000
120000
120000
120000
120000
120000
120000
120000
120000
120000
120000
120000
120000
120000
120000
120000
120000
120000
120000
120000
120000
120000
120000
120000
120000
120000
120000
120000
120000
120000
120000
120000
120000
120000
120000
120000
120000
120000
120000
120000
120000
120000
120000
120000
120000
120000
120000
120000
120000
120000
120000
120000
120000
120000
120000
120000
120000
120000
120000
120000
120000
120000
120000
120000
120000
120000
120000
120000
120000
120000
120000
120000
120000
120000
120000
120000
120000
120000
120000
120000
120000
120000
120000
120000
120000
120000
120000
120000
120000
120000
120000
120000
120000
120000
120000
120000
120000
120000
120000
120000
120000
120000
120000
120000
120000
120000
120000
120000
120000
120000
120000
120000
120000
120000
120000
120000
120000
120000
120000
120000
120000
120000
120000
120000
120000
120000
120000
120000
120000
120000
120000
120000
120000
120000
120000
120000
120000
120000
120000
120000
120000
120000
120000
120000
120000
120000
120000
120000
120000
120000
120000
120000
120000
120000
120000
120000
120000
120000
120000
120000
120000
120000
120000
120000
120000
120000
120000
120000
120000
120000
120000
120000
120000
120000
120000
120000
120000
119999.99
119999.99
119999.99
119999.99
119999.99
119999.99
119999.99
119999.99
119999.99
119999.98
119999.98
119999.98
119999.98
119999.97
119999.97
119999.97
119999.96
119999.96
119999.95
119999.95
119999.94
119999.94
119999.93
119999.92
119999.91
119999.9
119999.89
119999.88
119999.86
119999.85
119999.83
119999.81
119999.79
119999.77
119999.74
119999.72
119999.69
119999.65
119999.61
119999.57
119999.53
119999.48
119999.42
119999.36
119999.29
119999.22
119999.14
119999.05
119998.95
119998.84
119998.72
119998.59
119998.45
119998.3
119998.13
119997.95
119997.74
119997.52
119997.28
119997.02
119996.74
119996.43
119996.09
119995.72
119995.32
119994.88
119994.41
119993.9
119993.34
119992.74
119992.09
119991.38
119990.62
119989.79
119988.9
119987.93
119986.89
119985.77
119984.55
119983.25
119981.84
119980.33
119978.7
119976.95
119975.07
119973.06
119970.9
119968.58
119966.09
119963.43
119960.59
119957.55
119954.29
119950.82
119947.11
119943.16
119938.95
119934.46
119929.68
119924.6
119919.2
119913.46
119907.37
119900.91
119894.05
119886.79
119879.1
119870.97
119862.36
119853.27
119843.67
119833.54
119822.85
119811.59
119799.73
119787.24
119774.11
119760.31
119745.81
119730.59
119714.63
119697.89
119680.36
119662
119642.8
119622.72
119601.75
119579.84
119556.99
119533.16
119508.33
119482.46
119455.55
119427.56
119398.47
119368.25
119336.89
119304.35
119270.63
119235.68
119199.51
119162.08
119123.37
119083.38
119042.07
118999.44
118955.47
118910.15
118863.46
118815.38
118765.92
118715.06
118662.79
118609.1
118553.99
118497.46
118439.5
118380.11
118319.29
118257.04
118193.37
118128.28
118061.77
117993.85
117924.53
117853.82
117781.73
117708.28
117633.48
117557.35
117479.9
117401.15
117321.13
117239.85
117157.35
117073.63
116988.74
116902.69
116815.52
116727.26
116637.94
116547.59
116456.25
116363.95
116270.72
116176.62
116081.66
115985.91
115889.39
115792.14
115694.22
115595.66
115496.52
115396.82
115296.64
115196
115094.96
114993.57
114891.87
114789.93
114687.78
114585.48
114483.09
114380.65
114278.21
114175.84
114073.59
113971.5
113869.63
113768.05
113666.79
113565.92
113465.49
113365.55
113266.16
113167.38
113069.25
112971.82
112875.16
112779.31
112684.32
112590.25
112497.15
112405.06
112314.03
112224.12
112135.36
112047.8
111961.48
111876.46
111792.76
111710.43
111629.5
111550.02
111472.01
111395.52
111320.56
111247.17
111175.37
111105.19
111036.66
110969.78
110904.58
110841.07
110779.26
110719.18
110660.81
110604.17
110549.26
110496.08
110444.63
110394.9
110346.88
110300.57
110255.95
110213.01
110171.72
110132.07
110094.04
110057.6
110022.73
109989.39
109957.57
109927.22
109898.32
109870.82
109844.7
109819.92
109796.43
109774.2
109753.19
109733.36
109714.67
109697.07
109680.53
109664.99
109650.43
109636.8
109624.05
109612.15
109601.06
109590.73
109581.14
109572.23
109563.97
109556.33
109549.27
109542.75
109536.75
109531.23
109526.15
109521.5
109517.24
109513.35
109509.8
109506.56
109503.61
109500.93
109498.5
109496.3
109494.31
109492.52
109490.9
109489.45
109488.14
109486.96
109485.91
109484.98
109484.14
109483.39
109482.73
109482.14
109481.62
109481.15
109480.75
109480.39
109480.07
109479.79
109479.54
109479.33
109479.14
109478.98
109478.84
109478.71
109478.6
109478.51
109478.43
109478.35
109478.29
109478.24
109478.19
109478.15
109478.11
109478.08
109478.05
109478.02
109478
109477.98
109477.96
109477.94
109477.92
109477.9
109477.88
109477.86
109477.85
109477.83
109477.82
109477.8
109477.78
109477.77
109477.76
109477.75
109477.73
109477.72
109477.7
109477.67
109477.65
109477.64
109477.63
109477.62
109477.6
109477.57
109477.55
109477.53
109477.51
109477.49
109477.48
109477.46
109477.44
109477.43
109477.42
109477.41
109477.39
109477.37
109477.34
109477.33
109477.32
109477.3
109477.28
109477.27
109477.26
109477.26
109477.24
109477.23
109477.22
109477.21
109477.2
109477.18
109477.17
109477.16
109477.15
109477.14
109477.12
109477.11
109477.1
109477.1
109477.09
109477.08
109477.07
109477.06
109477.05
109477.05
109477.04
109477.03
109477.01
109477
109476.98
109476.97
109476.95
109476.93
109476.92
109476.9
109476.89
109476.88
109476.87
109476.87
109476.87
109476.86
109476.86
109476.86
109476.86
109476.86
109476.86
109476.86
109476.85
109476.85
109476.84
109476.83
109476.82
109476.81
109476.8
109476.79
109476.78
109476.78
109476.77
109476.76
109476.76
109476.76
109476.75
109476.75
109476.75
109476.75
109476.75
109476.75
109476.75
109476.75
109476.75
109476.74
109476.74
109476.74
109476.74
109476.73
109476.73
109476.72
109476.72
109476.72
109476.71
109476.71
109476.7
109476.7
109476.7
109476.69
109476.69
109476.69
109476.69
109476.68
109476.68
109476.68
109476.68
109476.67
109476.67
109476.67
109476.67
109476.67
109476.67
109476.67
109476.67
109476.68
109476.68
109476.68
109476.68
109476.68
109476.68
109476.69
109476.69
109476.69
109476.69
109476.69
109476.69
109476.69
109476.69
109476.69
109476.69
109476.7
109476.7
109476.7
109476.7
109476.7
109476.7
109476.71
109476.71
109476.71
109476.71
109476.72
109476.72
109476.72
109476.73
109476.73
109476.73
109476.74
109476.74
109476.74
109476.75
109476.75
109476.75
109476.75
109476.76
109476.76
109476.76
109476.76
109476.77
109476.77
109476.77
109476.77
109476.78
109476.78
109476.78
109476.78
109476.78
109476.79
109476.79
109476.79
109476.79
109476.79
109476.79
109476.8
109476.8
109476.8
109476.8
109476.8
109476.8
109476.81
109476.81
109476.81
109476.81
109476.81
109476.81
109476.81
109476.81
109476.81
109476.81
109476.81
109476.81
109476.81
109476.81
109476.81
109476.81
109476.81
109476.81
109476.81
109476.81
109476.81
109476.82
109476.82
109476.82
109476.82
109476.82
109476.82
109476.82
109476.82
109476.82
109476.82
109476.82
109476.82
109476.82
109476.83
109476.83
109476.83
109476.83
109476.83
109476.83
109476.83
109476.84
109476.84
109476.84
109476.84
109476.84
109476.84
109476.85
109476.85
109476.85
109476.85
109476.85
109476.85
109476.86
109476.86
109476.86
109476.86
109476.86
109476.87
109476.87
109476.87
109476.87
109476.87
109476.88
109476.88
109476.88
109476.88
109476.89
109476.89
109476.89
109476.89
109476.89
109476.9
109476.9
109476.9
109476.9
109476.9
109476.91
109476.91
109476.91
109476.91
109476.91
109476.91
109476.91
109476.91
109476.92
109476.92
109476.92
109476.92
109476.92
109476.92
109476.92
109476.92
109476.92
109476.92
109476.93
109476.93
109476.93
109476.93
109476.93
109476.93
109476.93
109476.93
109476.93
109476.93
109476.93
109476.94
109476.94
109476.94
109476.94
109476.94
109476.94
109476.94
109476.94
109476.94
109476.94
109476.94
109476.94
109476.95
109476.95
109476.95
109476.95
109476.95
109476.95
109476.95
109476.95
109476.95
109476.94
109476.94
109476.94
109476.93
109476.93
109476.94
109476.94
109476.95
109476.96
109476.98
109477
109477.01
109477.02
109477.02
109477.01
109476.99
109476.96
109476.91
109476.86
109476.82
109476.84
109476.81
109477.02
109477.13
109477.08
109477.02
109477
109476.98
109476.96
109476.95
109476.95
109476.95
109476.95
109476.96
109476.96
109476.97
109476.97
109476.98
109476.98
109476.98
109476.98
109476.98
109476.98
109476.98
109476.98
109476.98
109476.97
109476.97
109476.97
109476.97
109476.97
109476.97
109476.97
109476.97
109476.97
109476.97
109476.96
109476.96
109476.96
109476.96
109476.96
109476.96
109476.96
109476.96
109476.96
109476.96
109476.96
109476.95
109476.95
109476.95
109476.95
109476.95
109476.95
109476.95
109476.95
109476.95
109476.95
109476.95
109476.95
109476.95
109476.95
109476.94
109476.94
109476.94
109476.94
109476.94
109476.94
109476.94
109476.94
109476.94
109476.94
109476.94
109476.94
109476.94
109476.94
109476.93
109476.93
109476.93
109476.93
109476.93
109476.93
109476.93
109476.93
109476.93
109476.93
109476.92
109476.92
109476.92
109476.92
109476.92
109476.92
109476.92
109476.92
109476.92
109476.91
109476.91
109476.91
109476.91
109476.91
109476.91
109476.91
109476.91
109476.91
109476.9
109476.9
109476.9
109476.9
109476.9
109476.9
109476.9
109476.9
109476.9
109476.9
109476.9
109476.9
109476.9
109476.9
109476.89
109476.89
109476.89
109476.89
109476.89
109476.89
109476.89
109476.89
109476.89
109476.89
109476.89
109476.89
109476.89
109476.89
109476.89
109476.89
109476.89
109476.89
109476.89
109476.89
109476.89
109476.89
109476.89
109476.89
109476.89
109476.89
109476.89
109476.89
109476.89
109476.89
109476.89
109476.89
109476.89
109476.89
109476.89
109476.89
109476.89
109476.88
109476.88
109476.88
109476.88
109476.88
109476.88
109476.88
109476.88
109476.88
109476.88
109476.88
109476.88
109476.88
109476.88
109476.88
109476.88
109476.88
109476.88
109476.88
109476.88
109476.88
109476.88
109476.88
109476.88
109476.88
109476.88
109476.88
109476.88
109476.88
109476.88
109476.88
109476.88
109476.88
109476.88
109476.88
109476.88
109476.88
109476.87
109476.87
109476.87
109476.87
109476.87
109476.87
109476.87
109476.86
109476.86
109476.86
109476.86
109476.86
109476.85
109476.85
109476.85
109476.85
109476.85
109476.84
109476.84
109476.84
109476.84
109476.83
109476.83
109476.83
109476.82
109476.82
109476.82
109476.82
109476.81
109476.81
109476.81
109476.8
109476.8
109476.8
109476.79
109476.79
109476.78
109476.78
109476.78
109476.77
109476.77
109476.76
109476.76
109476.75
109476.75
109476.74
109476.74
109476.73
109476.73
109476.72
109476.72
109476.72
109476.71
109476.71
109476.7
109476.7
109476.69
109476.69
109476.68
109476.68
109476.68
109476.67
109476.67
109476.66
109476.66
109476.65
109476.65
109476.65
109476.64
109476.64
109476.63
109476.63
109476.62
109476.62
109476.62
109476.61
109476.61
109476.6
109476.6
109476.6
109476.59
109476.59
109476.58
109476.58
109476.58
109476.57
109476.57
109476.57
109476.56
109476.56
109476.56
109476.55
109476.55
109476.55
109476.54
109476.54
109476.54
109476.53
109476.53
109476.53
109476.52
109476.52
109476.52
109476.51
109476.51
109476.51
109476.5
109476.5
109476.5
109476.49
109476.49
109476.49
109476.49
109476.49
109476.49
109476.48
109476.48
109476.48
109476.48
109476.48
109476.48
109476.48
109476.49
109476.49
109476.49
109476.49
109476.5
109476.5
109476.51
109476.51
109476.52
109476.53
109476.53
109476.54
109476.55
109476.56
109476.57
109476.58
109476.6
109476.61
109476.63
109476.64
109476.66
109476.67
109476.69
109476.7
109476.72
109476.73
109476.75
109476.78
109476.8
109476.81
109476.82
109476.84
109476.85
109476.87
109476.89
109476.89
109476.9
109476.91
109476.92
109476.92
109476.92
109476.9
109476.89
109476.87
109476.84
109476.8
109476.76
109476.7
109476.64
109476.57
109476.48
109476.39
109476.28
109476.15
109476.01
109475.85
109475.67
109475.47
109475.24
109474.99
109474.7
109474.37
109474.01
109473.6
109473.14
109472.62
109472.05
109471.41
109470.69
109469.9
109469.01
109468.03
109466.94
109465.72
109464.38
109462.9
109461.26
109459.45
109457.45
109455.25
109452.83
109450.17
109447.25
109444.05
109440.54
109436.71
109432.51
109427.93
109422.94
109417.5
109411.57
109405.14
109398.14
109390.56
109382.34
109373.44
109363.82
109353.42
109342.2
109330.11
109317.09
109303.08
109288.02
109271.86
109254.53
109235.96
109216.09
109194.85
109172.17
109147.97
109122.19
109094.74
109065.54
109034.53
109001.62
108966.73
108929.79
108890.71
108849.41
108805.82
108759.86
108711.46
108660.53
108607.01
108550.83
108491.93
108430.23
108365.68
108298.24
108227.84
108154.45
108078.04
107998.56
107916
107830.35
107741.6
107649.75
107554.82
107456.82
107355.79
107251.77
107144.81
107034.97
106922.34
106806.99
106689.02
106568.54
106445.67
106320.54
106193.28
106064.04
105932.99
105800.29
105666.11
105530.64
105394.07
105256.59
105118.4
104979.7
104840.71
104701.62
104562.65
104423.99
104285.87
104148.48
104012.02
103876.69
103742.67
103610.15
103479.3
103350.29
103223.27
103098.39
102975.79
102855.59
102737.92
102622.87
102510.54
102401.02
102294.36
102190.64
102089.9
101992.18
101897.51
101805.9
101717.36
101631.89
101549.48
101470.1
101393.75
101320.37
101249.93
101182.39
101117.69
101055.77
100996.59
100940.06
100886.13
100834.72
100785.77
100739.19
100694.91
100652.86
100612.96
100575.13
100539.29
100505.36
100473.28
100442.96
100414.32
100387.31
100361.84
100337.84
100315.25
100293.99
100274.01
100255.24
100237.62
100221.09
100205.59
100191.07
100177.48
100164.76
100152.87
100141.76
100131.39
100121.7
100112.67
100104.26
100096.42
100089.12
100082.33
100076.02
100070.15
100064.71
100059.65
100054.96
100050.61
100046.59
100042.86
100039.4
100036.21
100033.26
100030.54
100028.02
100025.7
100023.55
100021.58
100019.76
100018.09
100016.55
100015.13
100013.82
100012.63
100011.53
100010.52
100009.59
100008.75
100007.97
100007.26
100006.61
100006.01
100005.46
100004.97
100004.51
100004.1
100003.72
100003.37
100003.06
100002.77
100002.51
100002.27
100002.06
100001.86
100001.68
100001.52
100001.37
100001.24
100001.12
100001.01
100000.91
100000.82
100000.74
100000.66
100000.6
100000.54
100000.48
100000.43
100000.39
100000.35
100000.31
100000.28
100000.25
100000.23
100000.2
100000.18
100000.16
100000.15
100000.13
100000.12
100000.1
100000.09
100000.08
100000.07
100000.07
100000.06
100000.05
100000.05
100000.04
100000.04
100000.03
100000.03
100000.03
100000.02
100000.02
100000.02
100000.02
100000.01
100000.01
100000.01
100000.01
100000.01
100000.01
100000.01
100000.01
100000.01
100000
100000
100000
100000
100000
100000
100000
100000
100000
100000
100000
100000
100000
100000
100000
100000
100000
100000
100000
100000
100000
100000
100000
100000
100000
100000
100000
100000
100000
100000
100000
100000
100000
100000
100000
100000
100000
100000
100000
100000
100000
100000
100000
100000
100000
100000
100000
100000
100000
100000
100000
100000
100000
100000
100000
100000
100000
100000
100000
100000
100000
100000
100000
100000
100000
100000
100000
100000
100000
100000
100000
100000
100000
100000
100000
100000
100000
100000
100000
100000
100000
100000
100000
100000
100000
100000
100000
100000
100000
100000
100000
100000
100000
100000
100000
100000
100000
100000
100000
100000
100000
100000
100000
100000
100000
100000
100000
100000
100000
100000
100000
100000
100000
100000
100000
100000
100000
100000
100000
100000
100000
100000
100000
100000
100000
100000
100000
100000
100000
100000
100000
100000
100000
100000
100000
100000
100000
100000
100000
100000
100000
100000
100000
100000
100000
100000
100000
100000
100000
100000
100000
100000
100000
100000
100000
100000
100000
100000
100000
100000
100000
100000
100000
100000
100000
100000
100000
100000
100000
100000
100000
100000
100000
100000
100000
100000
100000
100000
100000
100000
100000
100000
100000
100000
100000
100000
100000
100000
100000
100000
100000
100000
100000
100000
100000
100000
100000
100000
100000
100000
100000
100000
100000
100000
100000
100000
100000
100000
100000
100000
100000
100000
100000