/*--------------------------------*- C++ -*----------------------------------*\
| =========                 |                                                 |
| \\      /  F ield         | OpenFOAM: The Open Source CFD Toolbox           |
|  \\    /   O peration     | Version:  4.x                                   |
|   \\  /    A nd           | Web:      www.OpenFOAM.org                      |
|    \\/     M anipulation  |                                                 |
\*---------------------------------------------------------------------------*/
FoamFile
{
    version     2.0;
    format      ascii;
    class       volScalarField;
    location    "0.0001";
    object      alphat;
}
// * * * * * * * * * * * * * * * * * * * * * * * * * * * * * * * * * * * * * //

dimensions      [1 -1 -1 0 0 0 0];

internalField   nonuniform List<scalar> 
23120
(
0.361052
0.360254
0.36031
0.360798
0.360724
0.360478
0.360655
0.360128
0.360238
0.360701
0.360815
0.360851
0.360831
0.360624
0.360315
0.360723
0.36083
0.360856
0.360858
0.360833
0.360732
0.360739
0.360717
0.360688
0.36039
0.360189
0.360084
0.360052
0.360071
0.360121
0.36016
0.360156
0.360815
0.360149
0.36006
0.360082
0.360052
0.360012
0.360038
0.359996
0.360015
0.360051
0.360074
0.360085
0.360081
0.360043
0.360028
0.360063
0.36008
0.360087
0.360088
0.360083
0.360067
0.360065
0.360063
0.360058
0.360035
0.36001
0.359995
0.35999
0.359994
0.360003
0.360011
0.360011
0.360769
0.360123
0.360002
0.359985
0.359977
0.359973
0.359975
0.359972
0.359974
0.359977
0.35998
0.359982
0.359981
0.359977
0.359976
0.359979
0.359981
0.359982
0.359982
0.359982
0.35998
0.35998
0.359979
0.359979
0.359977
0.359974
0.359973
0.359972
0.359973
0.359974
0.359975
0.359975
0.360764
0.360118
0.359994
0.359974
0.35997
0.359969
0.35997
0.359969
0.359969
0.35997
0.35997
0.35997
0.35997
0.35997
0.35997
0.35997
0.35997
0.35997
0.35997
0.35997
0.35997
0.35997
0.35997
0.35997
0.35997
0.35997
0.359969
0.359969
0.359969
0.35997
0.35997
0.35997
0.360763
0.360118
0.359993
0.359973
0.35997
0.359969
0.359969
0.359969
0.359969
0.359969
0.359969
0.359969
0.359969
0.359969
0.359969
0.359969
0.359969
0.359969
0.359969
0.359969
0.359969
0.359969
0.359969
0.359969
0.359969
0.359969
0.359969
0.359969
0.359969
0.359969
0.359969
0.359969
0.360763
0.360118
0.359993
0.359973
0.35997
0.359969
0.359969
0.359969
0.359969
0.359969
0.359969
0.359969
0.359969
0.359969
0.359969
0.359969
0.359969
0.359969
0.359969
0.359969
0.359969
0.359969
0.359969
0.359969
0.359969
0.359969
0.359969
0.359969
0.359969
0.359969
0.359969
0.359969
0.360763
0.360118
0.359993
0.359973
0.35997
0.359969
0.359969
0.359969
0.359969
0.359969
0.359969
0.359969
0.359969
0.359969
0.359969
0.359969
0.359969
0.359969
0.359969
0.359969
0.359969
0.359969
0.359969
0.359969
0.359969
0.359969
0.359969
0.359969
0.359969
0.359969
0.359969
0.359969
0.360763
0.360118
0.359993
0.359973
0.35997
0.359969
0.359969
0.359969
0.359969
0.359969
0.359969
0.359969
0.359969
0.359969
0.359969
0.359969
0.359969
0.359969
0.359969
0.359969
0.359969
0.359969
0.359969
0.359969
0.359969
0.359969
0.359969
0.359969
0.359969
0.359969
0.359969
0.359969
0.360761
0.360117
0.359993
0.359973
0.35997
0.359969
0.359969
0.359969
0.359969
0.359969
0.359969
0.359969
0.359969
0.359969
0.359969
0.359969
0.359969
0.359969
0.359969
0.359969
0.359969
0.359969
0.359969
0.359969
0.359969
0.359969
0.359969
0.359969
0.359969
0.359969
0.359969
0.359969
0.360757
0.360116
0.359993
0.359972
0.359969
0.359969
0.359969
0.359969
0.359969
0.359969
0.359969
0.359969
0.359969
0.359969
0.359969
0.359969
0.359969
0.359969
0.359969
0.359969
0.359969
0.359969
0.359969
0.359969
0.359969
0.359969
0.359969
0.359969
0.359969
0.359969
0.359969
0.359969
0.360752
0.360114
0.359992
0.359972
0.359969
0.359969
0.359969
0.359969
0.359969
0.359969
0.359969
0.359969
0.359969
0.359969
0.359969
0.359969
0.359969
0.359969
0.359969
0.359969
0.359969
0.359969
0.359969
0.359969
0.359969
0.359969
0.359969
0.359969
0.359969
0.359969
0.359969
0.359969
0.360749
0.360113
0.359992
0.359972
0.359969
0.359969
0.359969
0.359969
0.359969
0.359969
0.359969
0.359969
0.359969
0.359969
0.359969
0.359969
0.359969
0.359969
0.359969
0.359969
0.359969
0.359969
0.359969
0.359969
0.359969
0.359969
0.359969
0.359969
0.359969
0.359969
0.359969
0.359969
0.360745
0.360111
0.359992
0.359972
0.359969
0.359969
0.359969
0.359969
0.359969
0.359969
0.359969
0.359969
0.359969
0.359969
0.359969
0.359969
0.359969
0.359969
0.359969
0.359969
0.359969
0.359969
0.359969
0.359969
0.359969
0.359969
0.359969
0.359969
0.359969
0.359969
0.359969
0.359969
0.360742
0.36011
0.359991
0.359972
0.359969
0.359969
0.359969
0.359969
0.359969
0.359969
0.359969
0.359969
0.359969
0.359969
0.359969
0.359969
0.359969
0.359969
0.359969
0.359969
0.359969
0.359969
0.359969
0.359969
0.359969
0.359969
0.359969
0.359969
0.359969
0.359969
0.359969
0.359969
0.360738
0.360109
0.359991
0.359972
0.359969
0.359969
0.359969
0.359969
0.359969
0.359969
0.359969
0.359969
0.359969
0.359969
0.359969
0.359969
0.359969
0.359969
0.359969
0.359969
0.359969
0.359969
0.359969
0.359969
0.359969
0.359969
0.359969
0.359969
0.359969
0.359969
0.359969
0.359969
0.360735
0.360108
0.359991
0.359972
0.359969
0.359969
0.359969
0.359969
0.359969
0.359969
0.359969
0.359969
0.359969
0.359969
0.359969
0.359969
0.359969
0.359969
0.359969
0.359969
0.359969
0.359969
0.359969
0.359969
0.359969
0.359969
0.359969
0.359969
0.359969
0.359969
0.359969
0.359969
0.360733
0.360107
0.35999
0.359972
0.359969
0.359969
0.359969
0.359969
0.359969
0.359969
0.359969
0.359969
0.359969
0.359969
0.359969
0.359969
0.359969
0.359969
0.359969
0.359969
0.359969
0.359969
0.359969
0.359969
0.359969
0.359969
0.359969
0.359969
0.359969
0.359969
0.359969
0.359969
0.36073
0.360106
0.35999
0.359972
0.359969
0.359969
0.359969
0.359969
0.359969
0.359969
0.359969
0.359969
0.359969
0.359969
0.359969
0.359969
0.359969
0.359969
0.359969
0.359969
0.359969
0.359969
0.359969
0.359969
0.359969
0.359969
0.359969
0.359969
0.359969
0.359969
0.359969
0.359969
0.360727
0.360105
0.35999
0.359972
0.359969
0.359969
0.359969
0.359969
0.359969
0.359969
0.359969
0.359969
0.359969
0.359969
0.359969
0.359969
0.359969
0.359969
0.359969
0.359969
0.359969
0.359969
0.359969
0.359969
0.359969
0.359969
0.359969
0.359969
0.359969
0.359969
0.359969
0.359969
0.360725
0.360104
0.35999
0.359972
0.359969
0.359969
0.359969
0.359969
0.359969
0.359969
0.359969
0.359969
0.359969
0.359969
0.359969
0.359969
0.359969
0.359969
0.359969
0.359969
0.359969
0.359969
0.359969
0.359969
0.359969
0.359969
0.359969
0.359969
0.359969
0.359969
0.359969
0.359969
0.360723
0.360103
0.35999
0.359972
0.359969
0.359969
0.359969
0.359969
0.359969
0.359969
0.359969
0.359969
0.359969
0.359969
0.359969
0.359969
0.359969
0.359969
0.359969
0.359969
0.359969
0.359969
0.359969
0.359969
0.359969
0.359969
0.359969
0.359969
0.359969
0.359969
0.359969
0.359969
0.36072
0.360102
0.359989
0.359972
0.359969
0.359969
0.359969
0.359969
0.359969
0.359969
0.359969
0.359969
0.359969
0.359969
0.359969
0.359969
0.359969
0.359969
0.359969
0.359969
0.359969
0.359969
0.359969
0.359969
0.359969
0.359969
0.359969
0.359969
0.359969
0.359969
0.359969
0.359969
0.360718
0.360102
0.359989
0.359972
0.359969
0.359969
0.359969
0.359969
0.359969
0.359969
0.359969
0.359969
0.359969
0.359969
0.359969
0.359969
0.359969
0.359969
0.359969
0.359969
0.359969
0.359969
0.359969
0.359969
0.359969
0.359969
0.359969
0.359969
0.359969
0.359969
0.359969
0.359969
0.360717
0.360101
0.359989
0.359972
0.359969
0.359969
0.359969
0.359969
0.359969
0.359969
0.359969
0.359969
0.359969
0.359969
0.359969
0.359969
0.359969
0.359969
0.359969
0.359969
0.359969
0.359969
0.359969
0.359969
0.359969
0.359969
0.359969
0.359969
0.359969
0.359969
0.35997
0.35997
0.360715
0.3601
0.359989
0.359972
0.359969
0.359969
0.359969
0.359969
0.359969
0.359969
0.359969
0.359969
0.359969
0.359969
0.359969
0.359969
0.359969
0.359969
0.359969
0.359969
0.359969
0.359969
0.359969
0.359969
0.359969
0.359969
0.359969
0.359969
0.35997
0.35997
0.359972
0.359974
0.360713
0.3601
0.359989
0.359972
0.359969
0.359969
0.359969
0.359969
0.359969
0.359969
0.359969
0.359969
0.359969
0.359969
0.359969
0.359969
0.359969
0.359969
0.359969
0.359969
0.359969
0.359969
0.359969
0.359969
0.359969
0.359969
0.359969
0.35997
0.359972
0.359974
0.35998
0.35999
0.360711
0.360099
0.359989
0.359972
0.359969
0.359969
0.359969
0.359969
0.359969
0.359969
0.359969
0.359969
0.359969
0.359969
0.359969
0.359969
0.359969
0.359969
0.359969
0.359969
0.359969
0.359969
0.359969
0.359969
0.359969
0.35997
0.359971
0.359973
0.359978
0.359989
0.360009
0.360044
0.36071
0.360099
0.359989
0.359972
0.359969
0.359969
0.359969
0.359969
0.359969
0.359969
0.359969
0.359969
0.359969
0.359969
0.359969
0.359969
0.359969
0.359969
0.359969
0.359969
0.359969
0.359969
0.359969
0.359969
0.35997
0.359971
0.359975
0.359983
0.36
0.360034
0.360098
0.360206
0.360709
0.360098
0.359988
0.359972
0.359969
0.359969
0.359969
0.359969
0.359969
0.359969
0.359969
0.359969
0.359969
0.359969
0.359969
0.359969
0.359969
0.359969
0.359969
0.359969
0.359969
0.359969
0.359969
0.35997
0.359971
0.359976
0.359986
0.36001
0.360062
0.360164
0.360349
0.360657
0.360707
0.360098
0.359988
0.359972
0.359969
0.359969
0.359969
0.359969
0.359969
0.359969
0.359969
0.359969
0.359969
0.359969
0.359969
0.359969
0.359969
0.359969
0.359969
0.359969
0.359969
0.359969
0.35997
0.359971
0.359975
0.359987
0.360016
0.360083
0.360225
0.360503
0.361004
0.361814
0.360706
0.360097
0.359988
0.359972
0.359969
0.359969
0.359969
0.359969
0.359969
0.359969
0.359969
0.359969
0.359969
0.359969
0.359969
0.359969
0.359969
0.359969
0.359969
0.359969
0.359969
0.359969
0.359971
0.359974
0.359985
0.360015
0.360088
0.360256
0.360614
0.361318
0.362575
0.36449
0.360705
0.360097
0.359988
0.359972
0.359969
0.359969
0.359969
0.359969
0.359969
0.359969
0.359969
0.359969
0.359969
0.359969
0.359969
0.359969
0.359969
0.359969
0.359969
0.359969
0.359969
0.35997
0.359973
0.359981
0.360006
0.360073
0.36024
0.360626
0.361466
0.363095
0.36577
0.369195
0.360703
0.360096
0.359988
0.359972
0.359969
0.359969
0.359969
0.359969
0.359969
0.359969
0.359969
0.359969
0.359969
0.359969
0.359969
0.359969
0.359969
0.359969
0.359969
0.359969
0.35997
0.359971
0.359977
0.359994
0.360045
0.360184
0.360531
0.361352
0.363124
0.366225
0.37024
0.374196
0.360702
0.360096
0.359988
0.359972
0.359969
0.359969
0.359969
0.359969
0.359969
0.359969
0.359969
0.359969
0.359969
0.359969
0.359969
0.359969
0.359969
0.359969
0.359969
0.359969
0.35997
0.359973
0.359983
0.360016
0.360112
0.360371
0.361032
0.362609
0.365727
0.369942
0.373763
0.376239
0.360701
0.360096
0.359988
0.359972
0.359969
0.359969
0.359969
0.359969
0.359969
0.359969
0.359969
0.359969
0.359969
0.359969
0.359969
0.359969
0.359969
0.359969
0.359969
0.359969
0.359971
0.359976
0.359993
0.360048
0.360211
0.360655
0.3618
0.364423
0.368608
0.3723
0.373464
0.370941
0.3607
0.360095
0.359988
0.359972
0.359969
0.359969
0.359969
0.359969
0.359969
0.359969
0.359969
0.359969
0.359969
0.359969
0.359969
0.359969
0.359969
0.359969
0.359969
0.35997
0.359972
0.359979
0.360006
0.360092
0.360344
0.361037
0.362812
0.366435
0.37044
0.371207
0.365687
0.352103
0.360699
0.360095
0.359988
0.359972
0.359969
0.359969
0.359969
0.359969
0.359969
0.359969
0.359969
0.359969
0.359969
0.359969
0.359969
0.359969
0.359969
0.359969
0.359969
0.35997
0.359973
0.359984
0.360022
0.360144
0.360501
0.361486
0.363924
0.367991
0.370057
0.364668
0.34658
0.31377
0.360699
0.360095
0.359988
0.359972
0.359969
0.359969
0.359969
0.359969
0.359969
0.359969
0.359969
0.359969
0.359969
0.359969
0.359969
0.359969
0.359969
0.359969
0.359969
0.35997
0.359974
0.359988
0.360039
0.360198
0.360665
0.361944
0.364915
0.368585
0.366904
0.351649
0.314594
0.254509
0.360698
0.360094
0.359988
0.359971
0.359969
0.359969
0.359969
0.359969
0.359969
0.359969
0.359969
0.359969
0.359969
0.359969
0.359969
0.359969
0.359969
0.359969
0.359969
0.35997
0.359975
0.359993
0.360054
0.360249
0.360816
0.36235
0.36563
0.368216
0.361554
0.333652
0.273102
0.181919
0.360697
0.360094
0.359987
0.359971
0.359969
0.359969
0.359969
0.359969
0.359969
0.359969
0.359969
0.359969
0.359969
0.359969
0.359969
0.359969
0.359969
0.359969
0.359969
0.359971
0.359976
0.359997
0.360067
0.360289
0.360933
0.362638
0.366023
0.367519
0.356367
0.316353
0.231176
0.108754
0.359969
0.359969
0.359969
0.359969
0.359969
0.359969
0.359969
0.359969
0.359969
0.359969
0.359969
0.359969
0.359969
0.359969
0.359969
0.359969
0.359969
0.359969
0.359969
0.359969
0.359969
0.359969
0.359969
0.359969
0.359969
0.359969
0.359969
0.359969
0.359969
0.359969
0.359969
0.359969
0.359969
0.359969
0.359969
0.359969
0.359969
0.359969
0.359969
0.359969
0.359969
0.359969
0.359969
0.359969
0.359969
0.359969
0.359969
0.359969
0.359969
0.359969
0.359969
0.359969
0.359969
0.359969
0.359969
0.359969
0.359969
0.359969
0.359969
0.359969
0.359969
0.359969
0.359969
0.359969
0.359969
0.359969
0.359969
0.359969
0.359969
0.359969
0.359969
0.359969
0.359969
0.359969
0.359969
0.359969
0.359969
0.359969
0.359969
0.359969
0.359969
0.359969
0.359969
0.359969
0.359969
0.359969
0.359969
0.359969
0.359969
0.359969
0.359969
0.359969
0.359969
0.359969
0.359969
0.359969
0.359969
0.359969
0.359969
0.359969
0.359969
0.359969
0.359969
0.359969
0.359969
0.359969
0.359969
0.359969
0.359969
0.359969
0.359969
0.359969
0.359969
0.359969
0.359969
0.359969
0.359969
0.359969
0.359969
0.359969
0.359969
0.359969
0.359969
0.359969
0.359969
0.359969
0.359969
0.359969
0.359969
0.359969
0.359969
0.359969
0.359969
0.359969
0.359969
0.359969
0.359969
0.359969
0.359969
0.359969
0.359969
0.359969
0.359969
0.359969
0.359969
0.359969
0.359969
0.359969
0.359969
0.359969
0.359969
0.359969
0.359969
0.359969
0.359969
0.359969
0.359969
0.359969
0.359969
0.359969
0.359969
0.359969
0.359969
0.359969
0.359969
0.359969
0.359969
0.359969
0.359969
0.359969
0.359969
0.359969
0.359969
0.359969
0.359969
0.359969
0.359969
0.359969
0.359969
0.359969
0.359969
0.359969
0.359969
0.359969
0.359969
0.359969
0.359969
0.359969
0.359969
0.359969
0.359969
0.359969
0.359969
0.359969
0.359969
0.359969
0.359969
0.359969
0.359969
0.359969
0.359969
0.359969
0.359969
0.359969
0.359969
0.359969
0.359969
0.359969
0.359969
0.359969
0.359969
0.359969
0.359969
0.359969
0.359969
0.359969
0.359969
0.359969
0.359969
0.359969
0.359969
0.359969
0.359969
0.359969
0.359969
0.359969
0.359969
0.359969
0.359969
0.359969
0.359969
0.359969
0.359969
0.359969
0.359969
0.359969
0.359969
0.359969
0.359969
0.359969
0.359969
0.359969
0.359969
0.359969
0.359969
0.359969
0.359969
0.359969
0.359969
0.359969
0.359969
0.359969
0.359969
0.359969
0.359969
0.359969
0.359969
0.359969
0.359969
0.359969
0.359969
0.359969
0.359969
0.359969
0.359969
0.359969
0.359969
0.359969
0.359969
0.359969
0.359969
0.359969
0.359969
0.359969
0.359969
0.359969
0.359969
0.359969
0.359969
0.359969
0.359969
0.359969
0.359969
0.359969
0.359969
0.359969
0.359969
0.359969
0.359969
0.359969
0.359969
0.359969
0.359969
0.359969
0.359969
0.359969
0.359969
0.359969
0.359969
0.359969
0.359969
0.359969
0.359969
0.359969
0.359969
0.359969
0.359969
0.359969
0.359969
0.359969
0.359969
0.359969
0.359969
0.359969
0.359969
0.359969
0.359969
0.359969
0.359969
0.359969
0.359969
0.359969
0.359969
0.359969
0.359969
0.359969
0.359969
0.359969
0.359969
0.359969
0.359969
0.359969
0.359969
0.359969
0.359969
0.359969
0.359969
0.359969
0.359969
0.359969
0.359969
0.359969
0.359969
0.359969
0.359969
0.359969
0.359969
0.359969
0.359969
0.359969
0.359969
0.359969
0.359969
0.359969
0.359969
0.359969
0.359969
0.359969
0.359969
0.359969
0.359969
0.359969
0.359969
0.359969
0.359969
0.359969
0.359969
0.359969
0.359969
0.359969
0.359969
0.359969
0.359969
0.359969
0.359969
0.359969
0.359969
0.359969
0.359969
0.359969
0.359969
0.359969
0.359969
0.359969
0.359969
0.359969
0.359969
0.359969
0.359969
0.359969
0.359969
0.359969
0.359969
0.359969
0.359969
0.359969
0.359969
0.359969
0.359969
0.359969
0.359969
0.359969
0.359969
0.359969
0.359969
0.359969
0.359969
0.359969
0.359969
0.359969
0.359969
0.359969
0.359969
0.359969
0.359969
0.359969
0.359969
0.359969
0.359969
0.359969
0.359969
0.359969
0.359969
0.359969
0.359969
0.359969
0.359969
0.359969
0.359969
0.359969
0.359969
0.359969
0.359969
0.359969
0.359969
0.359969
0.359969
0.359969
0.359969
0.359969
0.359969
0.359969
0.359969
0.359969
0.359969
0.359969
0.359969
0.359969
0.359969
0.359969
0.35997
0.35997
0.35997
0.35997
0.35997
0.35997
0.35997
0.35997
0.35997
0.35997
0.35997
0.35997
0.35997
0.35997
0.35997
0.35997
0.35997
0.35997
0.35997
0.35997
0.35997
0.35997
0.35997
0.35997
0.35997
0.35997
0.35997
0.35997
0.359969
0.359969
0.359971
0.359971
0.359971
0.359972
0.359972
0.359972
0.359972
0.359972
0.359972
0.359973
0.359973
0.359973
0.359973
0.359973
0.359973
0.359973
0.359973
0.359973
0.359973
0.359973
0.359973
0.359973
0.359972
0.359972
0.359972
0.359972
0.359972
0.359972
0.359971
0.359971
0.359971
0.359971
0.359977
0.359978
0.359979
0.359979
0.35998
0.359981
0.359981
0.359982
0.359983
0.359983
0.359984
0.359984
0.359984
0.359984
0.359985
0.359985
0.359984
0.359984
0.359984
0.359984
0.359983
0.359983
0.359982
0.359982
0.359981
0.35998
0.359979
0.359979
0.359978
0.359977
0.359976
0.359976
0.36
0.360003
0.360005
0.360008
0.36001
0.360013
0.360015
0.360017
0.360019
0.360021
0.360022
0.360023
0.360024
0.360025
0.360025
0.360025
0.360025
0.360024
0.360023
0.360021
0.36002
0.360018
0.360016
0.360013
0.360011
0.360008
0.360006
0.360003
0.36
0.359997
0.359995
0.359992
0.360075
0.360084
0.360092
0.3601
0.360108
0.360116
0.360123
0.36013
0.360136
0.360141
0.360145
0.360149
0.360151
0.360152
0.360153
0.360152
0.36015
0.360147
0.360144
0.360139
0.360133
0.360127
0.360119
0.360112
0.360103
0.360095
0.360086
0.360077
0.360068
0.360059
0.36005
0.360042
0.3603
0.360326
0.360349
0.360373
0.360396
0.360419
0.36044
0.360459
0.360475
0.36049
0.360501
0.36051
0.360516
0.360519
0.360519
0.360516
0.360509
0.360499
0.360486
0.360471
0.360453
0.360432
0.36041
0.360386
0.360361
0.360335
0.360308
0.360282
0.360255
0.360229
0.360203
0.360179
0.360916
0.360986
0.361047
0.361112
0.361176
0.361237
0.361293
0.361343
0.361388
0.361425
0.361455
0.361477
0.361491
0.361496
0.361491
0.361477
0.361455
0.361423
0.361384
0.361337
0.361283
0.361224
0.361159
0.361091
0.361019
0.360946
0.360872
0.360798
0.360725
0.360653
0.360583
0.360517
0.362478
0.362656
0.36281
0.362974
0.363137
0.363289
0.363429
0.363553
0.363661
0.363751
0.36382
0.363869
0.363896
0.363899
0.363878
0.363833
0.363766
0.363676
0.363565
0.363435
0.363288
0.363127
0.362953
0.36277
0.36258
0.362387
0.362193
0.362001
0.361813
0.36163
0.361451
0.361285
0.365926
0.366306
0.366632
0.366974
0.367308
0.367616
0.367892
0.368134
0.368339
0.368506
0.368631
0.368712
0.368749
0.368738
0.368679
0.368573
0.36842
0.368221
0.367978
0.367694
0.367372
0.367017
0.366633
0.366226
0.365802
0.365368
0.364929
0.364492
0.364063
0.363645
0.363238
0.362856
0.371282
0.37181
0.372254
0.372727
0.373182
0.373591
0.373948
0.37425
0.374497
0.374688
0.37482
0.374893
0.374902
0.374844
0.374722
0.374535
0.374285
0.373973
0.373599
0.373168
0.372682
0.372147
0.371567
0.370948
0.370296
0.369618
0.368921
0.368214
0.367505
0.366801
0.366101
0.365426
0.376144
0.376537
0.376857
0.377258
0.37766
0.378012
0.378299
0.378521
0.378677
0.378762
0.378775
0.378712
0.378566
0.378338
0.378031
0.377646
0.377187
0.376658
0.376066
0.37542
0.374729
0.374004
0.373256
0.372495
0.371731
0.370974
0.370231
0.369508
0.36881
0.368138
0.367478
0.366824
0.376886
0.376792
0.376651
0.376668
0.376731
0.376765
0.376747
0.376667
0.376518
0.376292
0.375979
0.37557
0.375056
0.374437
0.373712
0.372884
0.37196
0.37095
0.369868
0.368733
0.367565
0.36639
0.365234
0.364126
0.363095
0.362172
0.361384
0.360755
0.360311
0.360064
0.359993
0.360039
0.367961
0.366777
0.365625
0.364729
0.363966
0.363248
0.362535
0.361807
0.361048
0.360233
0.35934
0.358352
0.357256
0.356039
0.354695
0.353222
0.351625
0.349914
0.348105
0.346221
0.344292
0.342353
0.340443
0.338611
0.336911
0.335404
0.33416
0.333257
0.332784
0.332825
0.333422
0.334513
0.341627
0.338364
0.335373
0.33282
0.330583
0.328556
0.32669
0.324938
0.323265
0.321628
0.32
0.318347
0.316644
0.314865
0.312993
0.311012
0.308912
0.306693
0.304361
0.301929
0.299419
0.296859
0.294283
0.291731
0.289257
0.286927
0.284835
0.28311
0.28193
0.281532
0.282165
0.283956
0.290491
0.283953
0.278243
0.273341
0.269077
0.265322
0.261985
0.258991
0.256276
0.253782
0.251466
0.249286
0.247209
0.245205
0.243245
0.241299
0.23934
0.237342
0.235282
0.233146
0.230927
0.228624
0.226237
0.223771
0.221238
0.218655
0.216066
0.213556
0.211305
0.20965
0.209117
0.210304
0.210925
0.201304
0.193439
0.186888
0.181344
0.176607
0.172536
0.169019
0.165961
0.163275
0.160883
0.158727
0.156764
0.15497
0.153327
0.151826
0.150457
0.149208
0.148066
0.147014
0.146028
0.14508
0.144131
0.143136
0.142038
0.140772
0.139267
0.137474
0.135374
0.13314
0.131269
0.130734
0.105201
0.0985221
0.0931152
0.0885964
0.0847414
0.0814026
0.0785148
0.0760315
0.073903
0.0720777
0.0704899
0.0690887
0.067831
0.0666907
0.0656564
0.0647259
0.0639041
0.063197
0.0626122
0.0621621
0.0618639
0.0617358
0.061792
0.0620284
0.0624098
0.0628638
0.0632917
0.0635103
0.0634756
0.0627935
0.062034
0.0612076
0.0157799
0.0149874
0.014351
0.0138624
0.0134817
0.0131822
0.0129342
0.0127378
0.0125834
0.0124562
0.0123473
0.0122474
0.012156
0.0120652
0.0119773
0.011885
0.0117924
0.0116988
0.0116031
0.0115072
0.011407
0.0113071
0.0111962
0.0111097
0.0109905
0.0109021
0.0108068
0.0107315
0.0105712
0.0105598
0.010246
0.010379
0.360131
0.360106
0.360079
0.360053
0.360032
0.360014
0.360001
0.359992
0.359988
0.359986
0.359988
0.359991
0.359995
0.359998
0.36
0.36
0.36
0.360001
0.360007
0.360026
0.360083
0.360235
0.360341
0.360424
0.360492
0.360552
0.360605
0.360653
0.360695
0.360732
0.360762
0.360786
0.360006
0.360001
0.359996
0.35999
0.359985
0.359981
0.359978
0.359975
0.359974
0.359973
0.359973
0.359974
0.359974
0.359975
0.359976
0.359976
0.359976
0.359977
0.359977
0.359979
0.359982
0.359988
0.359995
0.360002
0.36001
0.360018
0.360026
0.360035
0.360043
0.360051
0.360058
0.360064
0.359974
0.359974
0.359973
0.359972
0.359972
0.359971
0.35997
0.35997
0.35997
0.35997
0.35997
0.35997
0.35997
0.35997
0.35997
0.35997
0.35997
0.35997
0.35997
0.35997
0.359971
0.359971
0.359971
0.359972
0.359972
0.359973
0.359974
0.359975
0.359975
0.359976
0.359977
0.359978
0.35997
0.35997
0.359969
0.359969
0.359969
0.359969
0.359969
0.359969
0.359969
0.359969
0.359969
0.359969
0.359969
0.359969
0.359969
0.359969
0.359969
0.359969
0.359969
0.359969
0.359969
0.359969
0.359969
0.359969
0.359969
0.359969
0.359969
0.359969
0.35997
0.35997
0.35997
0.35997
0.359969
0.359969
0.359969
0.359969
0.359969
0.359969
0.359969
0.359969
0.359969
0.359969
0.359969
0.359969
0.359969
0.359969
0.359969
0.359969
0.359969
0.359969
0.359969
0.359969
0.359969
0.359969
0.359969
0.359969
0.359969
0.359969
0.359969
0.359969
0.359969
0.359969
0.359969
0.359969
0.359969
0.359969
0.359969
0.359969
0.359969
0.359969
0.359969
0.359969
0.359969
0.359969
0.359969
0.359969
0.359969
0.359969
0.359969
0.359969
0.359969
0.359969
0.359969
0.359969
0.359969
0.359969
0.359969
0.359969
0.359969
0.359969
0.359969
0.359969
0.359969
0.359969
0.359969
0.359969
0.359969
0.359969
0.359969
0.359969
0.359969
0.359969
0.359969
0.359969
0.359969
0.359969
0.359969
0.359969
0.359969
0.359969
0.359969
0.359969
0.359969
0.359969
0.359969
0.359969
0.359969
0.359969
0.359969
0.359969
0.359969
0.359969
0.359969
0.359969
0.359969
0.359969
0.359969
0.359969
0.359969
0.359969
0.359969
0.359969
0.359969
0.359969
0.359969
0.359969
0.359969
0.359969
0.359969
0.359969
0.359969
0.359969
0.359969
0.359969
0.359969
0.359969
0.359969
0.359969
0.359969
0.359969
0.359969
0.359969
0.359969
0.359969
0.359969
0.359969
0.359969
0.359969
0.359969
0.359969
0.360801
0.36081
0.360818
0.360824
0.360828
0.36083
0.360829
0.360826
0.360819
0.360809
0.360794
0.360774
0.360749
0.360718
0.360683
0.360642
0.360594
0.36054
0.360479
0.360418
0.360372
0.360346
0.360346
0.360373
0.360429
0.360509
0.360592
0.360667
0.360727
0.360771
0.360802
0.360819
0.360823
0.360803
0.360727
0.360654
0.360567
0.360551
0.360529
0.360455
0.360502
0.360564
0.36061
0.360645
0.360676
0.360702
0.360714
0.360687
0.360566
0.360514
0.360533
0.360652
0.360752
0.360809
0.360836
0.360848
0.360853
0.360856
0.360856
0.36085
0.360821
0.360696
0.360597
0.360527
0.36051
0.360608
0.360727
0.360794
0.360822
0.360831
0.360832
0.360833
0.360834
0.360836
0.360839
0.360843
0.360847
0.360851
0.360855
0.360858
0.360858
0.360854
0.360841
0.360814
0.360786
0.360736
0.360673
0.360537
0.360362
0.360403
0.36052
0.360643
0.36074
0.3608
0.360832
0.360842
0.360838
0.36082
0.360777
0.360683
0.360509
0.360331
0.360103
0.360067
0.360115
0.360375
0.360521
0.360669
0.360766
0.36081
0.360818
0.360813
0.360807
0.360799
0.360787
0.360593
0.360464
0.360292
0.360423
0.360443
0.360305
0.360114
0.360113
0.360087
0.360043
0.360033
0.360096
0.360186
0.360386
0.36042
0.360387
0.360301
0.360182
0.360081
0.36002
0.359994
0.359986
0.359983
0.359981
0.359979
0.359976
0.359974
0.359971
0.359965
0.359955
0.359956
0.360016
0.36086
0.362363
0.363011
0.360068
0.360071
0.360073
0.360075
0.360076
0.360077
0.360077
0.360077
0.360075
0.360073
0.36007
0.360065
0.36006
0.360054
0.360047
0.36004
0.360032
0.360025
0.360017
0.360011
0.360007
0.360005
0.360006
0.36001
0.360018
0.360028
0.360039
0.36005
0.36006
0.360068
0.360074
0.360078
0.36008
0.36008
0.360076
0.36007
0.360062
0.360054
0.360046
0.36004
0.360037
0.360038
0.36004
0.360043
0.360048
0.360053
0.360058
0.36006
0.36006
0.360061
0.360064
0.36007
0.360077
0.360081
0.360084
0.360085
0.360086
0.360086
0.360087
0.360087
0.360085
0.360082
0.360076
0.360071
0.360069
0.360071
0.360076
0.360079
0.36008
0.360079
0.360078
0.360078
0.360078
0.360079
0.36008
0.360081
0.360082
0.360084
0.360085
0.360087
0.360087
0.360086
0.360084
0.360079
0.360072
0.360062
0.36005
0.360032
0.360014
0.360011
0.360022
0.36004
0.360058
0.360071
0.360079
0.360082
0.36008
0.360076
0.360067
0.36005
0.360026
0.360006
0.359993
0.359992
0.36
0.360016
0.360032
0.360051
0.360066
0.360073
0.360074
0.360072
0.36007
0.360069
0.36007
0.360063
0.36005
0.360025
0.360012
0.360005
0.359997
0.35999
0.359996
0.359994
0.359986
0.359983
0.359992
0.360006
0.360034
0.360049
0.36005
0.360039
0.360018
0.359996
0.359983
0.359976
0.359974
0.359974
0.359973
0.359972
0.359971
0.35997
0.359968
0.359963
0.359955
0.359963
0.36005
0.360878
0.362296
0.362654
0.359979
0.359979
0.359979
0.35998
0.35998
0.35998
0.35998
0.35998
0.35998
0.35998
0.359979
0.359979
0.359978
0.359977
0.359977
0.359976
0.359975
0.359974
0.359974
0.359973
0.359973
0.359973
0.359973
0.359973
0.359974
0.359975
0.359976
0.359977
0.359978
0.359979
0.35998
0.359981
0.359981
0.359981
0.359981
0.359981
0.35998
0.359979
0.359978
0.359977
0.359977
0.359977
0.359976
0.359977
0.359977
0.359978
0.359978
0.359979
0.359979
0.35998
0.35998
0.359981
0.359981
0.359981
0.359982
0.359982
0.359982
0.359982
0.359982
0.359982
0.359982
0.359982
0.359982
0.359981
0.359981
0.359981
0.359981
0.359981
0.359981
0.359981
0.35998
0.35998
0.35998
0.35998
0.35998
0.359981
0.359981
0.359981
0.359981
0.359982
0.359982
0.359982
0.359981
0.359981
0.35998
0.359979
0.359977
0.359975
0.359974
0.359973
0.359974
0.359976
0.359978
0.359979
0.359981
0.359981
0.359981
0.35998
0.359979
0.359977
0.359975
0.359973
0.359972
0.359973
0.359973
0.359975
0.359976
0.359978
0.359979
0.35998
0.35998
0.359979
0.359979
0.359979
0.359979
0.359979
0.359978
0.359976
0.359973
0.359972
0.359971
0.359971
0.359972
0.359972
0.359971
0.359971
0.359972
0.359973
0.359976
0.359978
0.359979
0.359978
0.359976
0.359973
0.359971
0.35997
0.35997
0.35997
0.35997
0.35997
0.359969
0.359969
0.359967
0.359962
0.359956
0.359967
0.360061
0.360888
0.362285
0.362611
0.35997
0.35997
0.35997
0.35997
0.35997
0.35997
0.35997
0.35997
0.35997
0.35997
0.35997
0.35997
0.35997
0.35997
0.35997
0.35997
0.35997
0.35997
0.359969
0.359969
0.359969
0.359969
0.359969
0.359969
0.35997
0.35997
0.35997
0.35997
0.35997
0.35997
0.35997
0.35997
0.35997
0.35997
0.35997
0.35997
0.35997
0.35997
0.35997
0.35997
0.35997
0.35997
0.35997
0.35997
0.35997
0.35997
0.35997
0.35997
0.35997
0.35997
0.35997
0.35997
0.35997
0.35997
0.35997
0.35997
0.35997
0.35997
0.35997
0.35997
0.35997
0.35997
0.35997
0.35997
0.35997
0.35997
0.35997
0.35997
0.35997
0.35997
0.35997
0.35997
0.35997
0.35997
0.35997
0.35997
0.35997
0.35997
0.35997
0.35997
0.35997
0.35997
0.35997
0.35997
0.35997
0.35997
0.35997
0.35997
0.359969
0.359969
0.359969
0.35997
0.35997
0.35997
0.35997
0.35997
0.35997
0.35997
0.35997
0.35997
0.35997
0.359969
0.359969
0.359969
0.35997
0.35997
0.35997
0.35997
0.35997
0.35997
0.35997
0.35997
0.35997
0.35997
0.35997
0.35997
0.35997
0.35997
0.359969
0.359969
0.359969
0.359969
0.359969
0.359969
0.359969
0.359969
0.359969
0.359969
0.35997
0.35997
0.35997
0.35997
0.35997
0.359969
0.359969
0.359969
0.359969
0.359969
0.359969
0.359969
0.359969
0.359968
0.359967
0.359962
0.359957
0.35997
0.360069
0.360897
0.362289
0.36261
0.359969
0.359969
0.359969
0.359969
0.359969
0.359969
0.359969
0.359969
0.359969
0.359969
0.359969
0.359969
0.359969
0.359969
0.359969
0.359969
0.359969
0.359969
0.359969
0.359969
0.359969
0.359969
0.359969
0.359969
0.359969
0.359969
0.359969
0.359969
0.359969
0.359969
0.359969
0.359969
0.359969
0.359969
0.359969
0.359969
0.359969
0.359969
0.359969
0.359969
0.359969
0.359969
0.359969
0.359969
0.359969
0.359969
0.359969
0.359969
0.359969
0.359969
0.359969
0.359969
0.359969
0.359969
0.359969
0.359969
0.359969
0.359969
0.359969
0.359969
0.359969
0.359969
0.359969
0.359969
0.359969
0.359969
0.359969
0.359969
0.359969
0.359969
0.359969
0.359969
0.359969
0.359969
0.359969
0.359969
0.359969
0.359969
0.359969
0.359969
0.359969
0.359969
0.359969
0.359969
0.359969
0.359969
0.359969
0.359969
0.359969
0.359969
0.359969
0.359969
0.359969
0.359969
0.359969
0.359969
0.359969
0.359969
0.359969
0.359969
0.359969
0.359969
0.359969
0.359969
0.359969
0.359969
0.359969
0.359969
0.359969
0.359969
0.359969
0.359969
0.359969
0.359969