/*--------------------------------*- C++ -*----------------------------------*\
  =========                 |
  \\      /  F ield         | OpenFOAM: The Open Source CFD Toolbox
   \\    /   O peration     | Website:  https://openfoam.org
    \\  /    A nd           | Version:  7
     \\/     M anipulation  |
\*---------------------------------------------------------------------------*/
FoamFile
{
    version     2.0;
    format      ascii;
    class       volVectorField;
    location    "0.00299";
    object      U;
}
// * * * * * * * * * * * * * * * * * * * * * * * * * * * * * * * * * * * * * //

dimensions      [0 1 -1 0 0 0 0];

internalField   nonuniform List<vector> 
5000
(
(-89.653016 1.7336951e-17 0)
(-89.578199 1.662891e-17 0)
(-89.535907 0 0)
(-89.491487 0 0)
(-89.44772 -8.8295016e-18 0)
(-89.403956 1.0025001e-32 -8.8180844e-18)
(-89.360205 8.8093363e-18 -1.877823e-32)
(-89.316457 0 2.6405296e-17)
(-89.272699 0 8.7958643e-18)
(-89.228931 -8.7910791e-18 -1.7582158e-17)
(-89.185144 -1.7573629e-17 -1.7573629e-17)
(-89.141342 8.7828357e-18 8.7828357e-18)
(-89.09752 8.7789966e-18 -7.4854227e-32)
(-89.053684 -8.7749981e-18 -7.7314139e-32)
(-89.009829 0 1.7542015e-17)
(-88.96596 -8.7667599e-18 -1.753352e-17)
(-88.922078 -3.2603324e-48 -1.6301662e-48)
(-88.878182 8.7579027e-18 -7.7163515e-32)
(-88.834278 0 -8.7533915e-18)
(-88.790357 8.7486459e-18 1.7497292e-17)
(-88.746434 -8.7438601e-18 8.7438601e-18)
(-88.702495 -8.7389259e-18 0)
(-88.658557 1.7467942e-17 0)
(-88.614605 -8.7288859e-18 -8.7288859e-18)
(-88.570653 -8.723824e-18 7.4383797e-32)
(-88.526691 -7.186183e-32 -7.186183e-32)
(-88.482729 8.7135529e-18 -8.7135529e-18)
(-88.438758 8.708374e-18 8.708374e-18)
(-88.394788 -1.74065e-17 8.7032499e-18)
(-88.350811 1.5080083e-31 -8.698086e-18)
(-88.306835 -1.5194773e-31 1.5194773e-31)
(-88.262853 8.6878669e-18 -7.4077208e-32)
(-88.218871 1.7365631e-17 -8.6828155e-18)
(-88.174885 -1.7355537e-17 8.6777687e-18)
(-88.1309 1.5036224e-31 8.6727886e-18)
(-88.086911 -7.538453e-31 0)
(-88.042922 -3.0038319e-31 0)
(-87.99893 1.7316205e-17 -8.6581026e-18)
(-87.954938 -1.7306645e-17 -8.6533224e-18)
(-87.910944 -1.7297212e-17 8.6486061e-18)
(-87.866951 1.7287888e-17 -1.4494864e-31)
(-87.822955 -5.9421988e-31 -8.6393608e-18)
(-87.778959 -1.7269653e-17 8.6348266e-18)
(-87.734961 8.6303903e-18 -1.4594782e-31)
(-87.690963 2.5877955e-17 -8.6259849e-18)
(-87.646964 -8.6216949e-18 8.6216949e-18)
(-87.602965 -8.6174242e-18 -2.9635553e-31)
(-87.558963 -5.8997784e-31 2.9498892e-31)
(-87.514962 -1.7218289e-17 -2.9607079e-31)
(-87.470959 0 1.4674413e-31)
(-87.426957 8.601174e-18 8.601174e-18)
(-87.382952 1.2217533e-33 0)
(-87.338947 -8.5935244e-18 0)
(-87.294941 1.7179691e-17 0)
(-87.250934 -3.0015814e-31 0)
(-87.206926 -1.7165017e-17 0)
(-87.162918 8.5789392e-18 0)
(-87.118908 -2.961337e-31 0)
(-87.074898 -8.5721192e-18 0)
(-87.030886 0 0)
(-86.986874 8.5655928e-18 0)
(-86.94286 2.9203241e-31 0)
(-86.898846 2.4327134e-33 0)
(-86.85483 8.5563818e-18 -8.5563818e-18)
(-86.810813 -8.5533985e-18 -8.5533985e-18)
(-86.766794 2.989172e-31 8.5505806e-18)
(-86.722775 8.5477461e-18 -1.4697964e-31)
(-86.678754 -8.5450764e-18 -1.1977681e-49)
(-86.634732 -8.5423887e-18 8.5423887e-18)
(-86.590708 8.5398619e-18 0)
(-86.546683 8.5373173e-18 0)
(-86.502656 -8.5349368e-18 -8.5349368e-18)
(-86.458628 -8.5325347e-18 -8.5325347e-18)
(-86.414598 1.706058e-17 0)
(-86.370567 8.5280312e-18 8.5280312e-18)
(-86.326533 -8.5259369e-18 2.9442087e-31)
(-86.282499 0 -8.5238162e-18)
(-86.238461 8.5218546e-18 -8.5218546e-18)
(-86.194423 -1.2107481e-33 8.5198822e-18)
(-86.150381 -8.5180648e-18 1.703613e-17)
(-86.106339 8.5162247e-18 -1.7032449e-17)
(-86.062293 -2.419985e-33 4.8399701e-33)
(-86.018247 2.4195043e-33 2.5538622e-17)
(-85.974196 8.5113013e-18 -1.7022603e-17)
(-85.930146 8.5097454e-18 -8.8521313e-31)
(-85.886091 2.9623215e-31 1.7016722e-17)
(-85.842034 -8.5069181e-18 -2.5520754e-17)
(-85.797976 0 8.5056447e-18)
(-85.753913 -8.5043425e-18 8.5043425e-18)
(-85.70985 -8.8211345e-31 -8.5031802e-18)
(-85.665782 -2.9721872e-31 8.5019952e-18)
(-85.621714 8.5009555e-18 8.5009555e-18)
(-85.57764 8.4998856e-18 2.9593707e-31)
(-85.533567 -1.6997928e-17 -1.6997928e-17)
(-85.489487 -5.8812066e-31 -5.8812066e-31)
(-85.445408 8.4972044e-18 -8.4972044e-18)
(-85.401323 0 -8.496365e-18)
(-85.357238 0 -2.9820494e-31)
(-85.313147 -8.4949415e-18 5.9152986e-31)
(-85.269056 -5.890748e-31 1.6988711e-17)
(-85.224959 1.6987464e-17 8.4937321e-18)
(-85.180862 -8.4932503e-18 -8.4932503e-18)
(-85.136758 -1.6985461e-17 1.2068896e-33)
(-85.092654 0 8.4923514e-18)
(-85.048544 8.4919334e-18 0)
(-85.004433 8.4916549e-18 -8.4916549e-18)
(-84.960316 -8.491336e-18 -2.956394e-31)
(-84.916198 -8.4911543e-18 8.4911543e-18)
(-84.872074 0 -8.4909294e-18)
(-84.827949 0 -8.4908383e-18)
(-84.783817 8.4907005e-18 1.6981401e-17)
(-84.739685 8.4906927e-18 8.4906927e-18)
(-84.695545 0 -2.5471902e-17)
(-84.651405 -8.4907013e-18 -8.4907013e-18)
(-84.607258 2.9682434e-31 2.5472141e-17)
(-84.56311 8.4908481e-18 -8.4908481e-18)
(-84.518955 -8.490923e-18 -8.490923e-18)
(-84.4748 2.41332e-33 -4.8266401e-33)
(-84.430636 -2.9684281e-31 -8.4912422e-18)
(-84.386473 1.8897649e-50 2.5474441e-17)
(-84.342301 1.6983294e-17 -5.9371392e-31)
(-84.29813 -3.6203219e-33 -1.6983834e-17)
(-84.25395 -8.4921077e-18 1.6984215e-17)
(-84.20977 0 8.4923945e-18)
(-84.165583 -8.4925953e-18 -8.4925953e-18)
(-84.121395 8.4928857e-18 8.4928857e-18)
(-84.077199 8.4930848e-18 -8.4930848e-18)
(-84.033003 -1.6986739e-17 -1.6986739e-17)
(-83.988799 -8.4935605e-18 8.4935605e-18)
(-83.944596 1.6987671e-17 2.9331233e-31)
(-83.900384 8.494015e-18 8.494015e-18)
(-83.856172 -8.4942766e-18 1.6988553e-17)
(-83.811952 -8.4944412e-18 -8.4944412e-18)
(-83.767733 -8.4946878e-18 -8.4946878e-18)
(-83.723505 0 -8.4948369e-18)
(-83.679278 8.4950663e-18 -2.9576927e-31)
(-83.635043 8.4951938e-18 -2.9456648e-31)
(-83.590807 -8.4953965e-18 2.9578077e-31)
(-83.546564 -2.9457695e-31 1.6990992e-17)
(-83.502321 8.49567e-18 8.49567e-18)
(-83.458071 -8.4957373e-18 -8.4957373e-18)
(-83.41382 -8.4958741e-18 -1.6991748e-17)
(-83.369562 0 -8.4958992e-18)
(-83.325304 8.4959879e-18 -8.4959879e-18)
(-83.281038 8.4959583e-18 5.8918596e-31)
(-83.236773 -8.4959882e-18 1.6991976e-17)
(-83.1925 8.4958968e-18 -2.4146791e-33)
(-83.148227 -4.8293376e-33 2.4146688e-33)
(-83.103948 -8.4956997e-18 -1.4913687e-49)
(-83.059668 8.4955919e-18 8.4955919e-18)
(-83.015383 -8.4953566e-18 -5.8914424e-31)
(-82.971096 5.915459e-31 1.1830918e-30)
(-82.926804 8.4948581e-18 8.4948581e-18)
(-82.882511 -8.4945922e-18 -8.4945922e-18)
(-82.838212 8.4941942e-18 8.4941942e-18)
(-82.793913 8.4938413e-18 2.9451958e-31)
(-82.749608 -8.4933522e-18 -8.4933522e-18)
(-82.705303 0 8.4929044e-18)
(-82.660993 0 -1.2068308e-33)
(-82.616681 -8.4917667e-18 -8.4917667e-18)
(-82.572366 -8.4910741e-18 0)
(-82.528049 8.4904156e-18 8.4904156e-18)
(-82.483728 8.4896123e-18 5.8753943e-31)
(-82.439406 -8.4888409e-18 -1.6977682e-17)
(-82.395081 -5.8862867e-31 8.4879223e-18)
(-82.350754 8.4870336e-18 -2.41216e-33)
(-82.306424 -8.4859951e-18 -8.4859951e-18)
(-82.262093 -8.4849844e-18 8.4849844e-18)
(-82.217758 0 -8.4838215e-18)
(-82.173423 8.4826837e-18 8.4826837e-18)
(-82.129085 8.4813914e-18 -3.5338757e-30)
(-82.084746 0 -2.3523509e-30)
(-82.040404 -8.4786958e-18 8.4786958e-18)
(-81.996062 -8.4772906e-18 -1.6954581e-17)
(-81.951717 0 0)
(-81.907372 8.4741842e-18 -5.8767595e-31)
(-81.863025 1.7626738e-30 -1.7626738e-30)
(-81.818677 -8.4708003e-18 8.4708003e-18)
(-81.774328 8.46896e-18 8.46896e-18)
(-81.729978 8.4671396e-18 5.8357766e-31)
(-81.685627 -8.4651619e-18 -8.4651619e-18)
(-81.641275 -5.8450913e-31 8.4632044e-18)
(-81.596923 5.8195833e-31 5.8195833e-31)
(-81.55257 3.6062873e-33 3.6062873e-33)
(-81.508216 8.4567486e-18 1.1717318e-30)
(-81.463862 -8.4545238e-18 -1.6909048e-17)
(-81.419507 -1.1722952e-30 8.4521453e-18)
(-81.375153 5.8118091e-31 8.4497874e-18)
(-81.330798 -5.8100762e-31 -5.8100762e-31)
(-81.286443 8.4447563e-18 5.8203495e-31)
(-81.242088 0 -1.7551491e-30)
(-81.197734 0 5.8286677e-31)
(-81.153379 -8.4366131e-18 -8.4366131e-18)
(-81.109025 -8.433823e-18 0)
(-81.064671 0 0)
(-81.020318 0 0)
(-80.975966 8.4248807e-18 0)
(-80.931614 1.4157872e-49 -8.4218287e-18)
(-80.887263 -8.4186253e-18 1.7550581e-30)
(-80.842913 0 8.4154464e-18)
(-80.798564 8.4121173e-18 8.4121173e-18)
(-80.754216 -8.4088136e-18 -8.4088136e-18)
(-80.709869 -2.3292236e-30 -8.405361e-18)
(-80.665523 1.680387e-17 1.680387e-17)
(-80.621179 -8.3983613e-18 5.8122424e-31)
(-80.576836 -1.7429365e-30 -1.7429365e-30)
(-80.532494 -1.1924505e-33 -8.3911242e-18)
(-80.488154 -8.3874625e-18 -8.3874625e-18)
(-80.443816 8.3836577e-18 8.3836577e-18)
(-80.399479 -1.1908532e-33 0)
(-80.355144 -1.1593493e-30 8.3759708e-18)
(-80.310811 5.7940614e-31 5.7940614e-31)
(-80.26648 -8.3680725e-18 -8.3680725e-18)
(-80.222151 0 -8.36409e-18)
(-80.177824 8.3599711e-18 1.1642629e-30)
(-80.133499 5.7828492e-31 8.3558899e-18)
(-80.089177 2.317907e-30 -1.6703349e-17)
(-80.044856 8.3474988e-18 8.3474988e-18)
(-80.000538 0 8.343191e-18)
(-79.956223 -8.3389244e-18 -8.3389244e-18)
(-79.911909 -8.3345279e-18 8.3345279e-18)
(-79.867599 0 0)
(-79.82329 0 0)
(-79.778985 0 0)
(-79.734682 8.3166948e-18 8.3166948e-18)
(-79.690382 5.7525991e-31 -8.3121802e-18)
(-79.646085 -8.307543e-18 -1.6615086e-17)
(-79.60179 0 8.3029552e-18)
(-79.557499 0 -5.7665417e-31)
(-79.51321 8.2935911e-18 8.2935911e-18)
(-79.468924 8.2888173e-18 8.2888173e-18)
(-79.424642 -8.2840968e-18 -1.6568194e-17)
(-79.380362 -8.2792607e-18 2.3531074e-33)
(-79.336085 0 -2.3517484e-33)
(-79.291812 8.2695832e-18 8.2695832e-18)
(-79.247542 8.2647428e-18 8.2647428e-18)
(-79.203275 -8.2597898e-18 -1.651958e-17)
(-79.159011 -8.2548939e-18 1.173091e-33)
(-79.11475 0 -1.7187085e-30)
(-79.070493 8.244941e-18 8.244941e-18)
(-79.026239 -2.2880523e-30 -4.5761047e-30)
(-78.981988 -5.7108122e-31 -1.1421624e-30)
(-78.937741 8.2297893e-18 8.2297893e-18)
(-78.893498 -8.2247491e-18 -8.2247491e-18)
(-78.849257 -8.2196039e-18 0)
(-78.805021 0 -8.2145219e-18)
(-78.760787 8.2093375e-18 8.2093375e-18)
(-78.716558 -1.1402399e-30 8.2042179e-18)
(-78.672332 8.1989972e-18 -8.1989972e-18)
(-78.628109 1.136469e-30 0)
(-78.58389 -1.6377173e-17 -8.1885867e-18)
(-78.539675 8.1833982e-18 8.1833982e-18)
(-78.495464 -1.1342873e-30 8.1781123e-18)
(-78.451256 -2.8373939e-30 -2.8373939e-30)
(-78.407052 -5.6525297e-31 -1.6335171e-17)
(-78.362851 -8.1623468e-18 -1.6324694e-17)
(-78.318654 8.1570151e-18 2.4471045e-17)
(-78.274461 8.1517546e-18 1.6303509e-17)
(-78.230272 0 0)
(-78.186086 -8.1411157e-18 -1.6282231e-17)
(-78.141904 -8.1357376e-18 -8.1357376e-18)
(-78.097726 0 8.1304304e-18)
(-78.053551 8.125032e-18 8.125032e-18)
(-78.009381 8.1197071e-18 8.1197071e-18)
(-77.965214 -1.6228587e-17 -1.6228587e-17)
(-77.921051 -8.1089548e-18 -1.621791e-17)
(-77.876891 8.1035282e-18 8.1035282e-18)
(-77.832736 8.098176e-18 1.6196352e-17)
(-77.788584 2.2448916e-30 2.2448916e-30)
(-77.744436 -8.0873694e-18 -1.6174739e-17)
(-77.700292 8.0819154e-18 8.0819154e-18)
(-77.656152 -5.6009943e-31 -1.1201989e-30)
(-77.612015 -8.0710692e-18 -8.0710692e-18)
(-77.567883 8.0656775e-18 1.6131355e-17)
(-77.523754 -5.6011199e-31 -8.0601999e-18)
(-77.479629 5.6088121e-31 1.1217624e-30)
(-77.435508 -2.2877513e-33 8.0493092e-18)
(-77.391391 -5.5554974e-31 -8.0438967e-18)
(-77.347277 8.0384002e-18 8.0384002e-18)
(-77.303168 0 -1.6065961e-17)
(-77.259062 0 3.3493103e-30)
(-77.214961 -8.0220544e-18 1.6044109e-17)
(-77.170863 -8.0165501e-18 -1.60331e-17)
(-77.126769 0 -5.544248e-31)
(-77.082679 0 8.0056196e-18)
(-77.038593 0 0)
(-76.99451 0 0)
(-76.950432 7.9892571e-18 7.9892571e-18)
(-76.906357 5.5026094e-31 -7.9837467e-18)
(-76.862286 -1.5956625e-17 -1.5956625e-17)
(-76.818219 3.3990078e-33 7.972797e-18)
(-76.774156 7.9673578e-18 -2.2644593e-33)
(-76.730097 7.9618385e-18 7.9618385e-18)
(-76.686042 -1.1046665e-30 7.9563965e-18)
(-76.64199 -1.1016403e-30 -7.9508761e-18)
(-76.597943 -1.1291141e-33 0)
(-76.553899 -7.939915e-18 -7.939915e-18)
(-76.509859 -7.934475e-18 -7.934475e-18)
(-76.465823 -7.9289585e-18 0)
(-76.421791 1.5847042e-17 1.5847042e-17)
(-76.377763 2.3754023e-17 7.9180076e-18)
(-76.333738 -7.9125727e-18 -1.5825145e-17)
(-76.289717 -1.5814123e-17 5.4722291e-31)
(-76.2457 0 -2.2457777e-33)
(-76.201687 7.8961174e-18 7.8961174e-18)
(-76.157678 7.8906837e-18 7.8906837e-18)
(-76.113673 -7.8851727e-18 -7.8851727e-18)
(-76.069671 2.2395562e-33 7.879738e-18)
(-76.025673 -3.3569846e-33 -7.8742263e-18)
(-75.981679 2.236445e-33 4.47289e-33)
(-75.937689 7.8632805e-18 1.5726561e-17)
(-75.893703 7.8578472e-18 -7.8578472e-18)
(-75.84972 -7.8523392e-18 -7.8523392e-18)
(-75.805741 -1.5693819e-17 -7.8469094e-18)
(-75.761767 7.8414058e-18 -1.0875869e-30)
(-75.717795 2.5583858e-49 7.8359805e-18)
(-75.673828 7.8304816e-18 0)
(-75.629865 2.1684156e-30 0)
(-75.585905 -1.5639132e-17 -7.8195662e-18)
(-75.541949 0 1.0849169e-30)
(-75.497997 0 -2.1671995e-30)
(-75.454048 1.560649e-17 -1.0845119e-30)
(-75.410103 -4.3305645e-30 7.7977582e-18)
(-75.366162 -1.5584695e-17 -7.7923477e-18)
(-75.322225 0 1.1065799e-33)
(-75.278291 7.7814552e-18 7.7814552e-18)
(-75.234362 7.7759729e-18 0)
(-75.190436 -7.7705657e-18 0)
(-75.146513 1.1034848e-33 0)
(-75.102595 -1.0773539e-30 0)
(-75.05868 1.1019374e-33 0)
(-75.014769 7.7487872e-18 0)
(-74.970862 -7.7433057e-18 0)
(-74.926958 -7.7378989e-18 -7.7378989e-18)
(-74.883058 0 0)
(-74.839163 7.7270156e-18 7.7270156e-18)
(-74.79527 -1.0720591e-30 0)
(-74.751382 -7.7161419e-18 -7.7161419e-18)
(-74.707497 1.5421346e-17 -2.138909e-30)
(-74.663617 -2.1374134e-30 7.7052814e-18)
(-74.619739 -7.6998199e-18 0)
(-74.575866 -2.1365915e-30 0)
(-74.531996 -1.537796e-17 -7.68898e-18)
(-74.48813 1.5367201e-17 -1.0667915e-30)
(-74.444268 7.678151e-18 7.678151e-18)
(-74.400409 -7.6727762e-18 0)
(-74.356554 -1.0895932e-33 0)
(-74.312703 -7.6619593e-18 -7.6619593e-18)
(-74.268856 0 -7.6565172e-18)
(-74.225012 0 7.6511492e-18)
(-74.181171 7.6457106e-18 7.6457106e-18)
(-74.137335 -1.0597003e-30 0)
(-74.093502 -1.5269823e-17 -7.6349113e-18)
(-74.049673 1.0842244e-33 1.0842244e-33)
(-74.005847 2.2872361e-17 7.6241205e-18)
(-73.962025 -7.6187644e-18 -7.6187644e-18)
(-73.918207 -7.613339e-18 -7.613339e-18)
(-73.874392 1.5215975e-17 7.6079876e-18)
(-73.830581 -7.6025672e-18 7.6025672e-18)
(-73.786774 7.5972204e-18 0)
(-73.74297 1.518361e-17 -7.5918048e-18)
(-73.69917 -7.5864626e-18 -7.5864626e-18)
(-73.655373 -7.5810515e-18 7.5810515e-18)
(-73.61158 -7.5757133e-18 7.5757133e-18)
(-73.567791 7.5703061e-18 0)
(-73.524005 5.0417171e-49 -7.5649712e-18)
(-73.480223 -7.5595671e-18 -7.5595671e-18)
(-73.436444 7.5542349e-18 7.5542349e-18)
(-73.39267 -7.5488336e-18 7.5488336e-18)
(-73.348898 7.5435041e-18 0)
(-73.305131 2.0888971e-30 0)
(-73.261366 2.1409449e-33 0)
(-73.217606 7.5273864e-18 0)
(-73.173849 -1.5044131e-17 0)
(-73.130096 7.5166772e-18 0)
(-73.086346 2.0857557e-30 0)
(-73.0426 -2.0821278e-30 0)
(-72.998857 -7.5006693e-18 -7.5006693e-18)
(-72.955118 -1.4990584e-17 -3.8162191e-48)
(-72.911382 2.2469957e-17 7.4899857e-18)
(-72.86765 2.0762004e-30 0)
(-72.823922 -4.1494579e-30 0)
(-72.780197 2.0711143e-30 0)
(-72.736476 -1.4937261e-17 -7.4686303e-18)
(-72.692758 1.4926517e-17 -1.0351386e-30)
(-72.649044 -2.0688063e-30 7.4579559e-18)
(-72.605334 -1.4905173e-17 -7.4525864e-18)
(-72.561627 0 1.0339818e-30)
(-72.517923 0 -1.0575609e-33)
(-72.474223 7.4366302e-18 -1.0325021e-30)
(-72.430527 -1.0307023e-30 7.4312729e-18)
(-72.386834 -7.4259874e-18 -7.4259874e-18)
(-72.343145 -7.4206372e-18 7.4206372e-18)
(-72.299459 7.4153578e-18 -4.1203022e-30)
(-72.255776 2.2230037e-17 -7.4100125e-18)
(-72.212098 -7.4047361e-18 7.4047361e-18)
(-72.168422 -7.3993925e-18 0)
(-72.124751 -2.1015344e-33 0)
(-72.081083 -7.3887735e-18 -7.3887735e-18)
(-72.037418 0 -1.0251252e-30)
(-71.993757 1.4756315e-17 7.3781574e-18)
(-71.950099 1.4745773e-17 -7.3728863e-18)
(-71.906445 -7.3675517e-18 -7.3675517e-18)
(-71.862794 -1.4724577e-17 0)
(-71.819147 -7.3569639e-18 7.3569639e-18)
(-71.775503 1.4703421e-17 7.3517106e-18)
(-71.731862 1.4692788e-17 -7.3463939e-18)
(-71.688226 -1.4682293e-17 -2.0374471e-30)
(-71.644592 -1.4671667e-17 9.450732e-49)
(-71.600962 0 -1.0177787e-30)
(-71.557336 1.4650536e-17 7.325268e-18)
(-71.513713 -7.3200166e-18 -7.3200166e-18)
(-71.470093 -1.4629384e-17 -3.7943336e-48)
(-71.426477 7.3094297e-18 -1.0148416e-30)
(-71.382865 7.3041132e-18 -7.3041132e-18)
(-71.339255 -1.0372317e-33 0)
(-71.29565 1.0126365e-30 0)
(-71.252047 7.2882967e-18 7.2882967e-18)
(-71.208449 -7.2830235e-18 1.0349799e-33)
(-71.164853 -7.2778212e-18 -3.0282565e-30)
(-71.121261 7.2725005e-18 7.2725005e-18)
(-71.077673 -1.0079534e-30 0)
(-71.034088 -1.0319975e-33 0)
(-70.990507 -1.0065093e-30 -7.2568438e-18)
(-70.946929 -7.2514159e-18 2.0104824e-30)
(-70.903354 7.2461891e-18 7.2461891e-18)
(-70.859783 -3.0160421e-30 0)
(-70.816215 -1.0046168e-30 0)
(-70.77265 -2.0066908e-30 0)
(-70.729089 -7.2250964e-18 -7.2250964e-18)
(-70.685532 7.2200003e-18 1.0260238e-33)
(-70.641977 -1.0017114e-30 7.2148588e-18)
(-70.598426 -1.9988626e-30 -7.2095053e-18)
(-70.554879 -1.023785e-33 7.2042464e-18)
(-70.511335 -1.4397972e-17 -2.0010612e-30)
(-70.467794 -7.1938075e-18 -1.4387615e-17)
(-70.424257 7.1885632e-18 7.1885632e-18)
(-70.380723 1.4366706e-17 2.9920113e-30)
(-70.337192 -9.966076e-31 9.966076e-31)
(-70.293665 -1.4345778e-17 -9.9588428e-31)
(-70.250141 -7.1676568e-18 -7.1676568e-18)
(-70.206621 1.4324905e-17 0)
(-70.163103 7.1572289e-18 0)
(-70.11959 -7.1520207e-18 7.1520207e-18)
(-70.076079 -7.146804e-18 9.9226262e-31)
(-70.032572 -1.9820643e-30 -1.9820643e-30)
(-69.989068 7.1363867e-18 2.3963741e-49)
(-69.945567 0 -7.1311798e-18)
(-69.90207 0 7.1259751e-18)
(-69.858576 7.1207694e-18 7.1207694e-18)
(-69.815086 0 0)
(-69.771599 -7.1103665e-18 -7.1103665e-18)
(-69.728115 7.1051714e-18 -9.8648236e-31)
(-69.684634 1.0089668e-33 7.0999724e-18)
(-69.641157 -1.9690716e-30 0)
(-69.597683 0 0)
(-69.554213 -7.0844024e-18 -7.0844024e-18)
(-69.510745 7.0792122e-18 2.0120331e-33)
(-69.467281 7.0740313e-18 2.3918261e-49)
(-69.423821 -1.413769e-17 -7.0688451e-18)
(-69.380364 -7.063668e-18 7.063668e-18)
(-69.33691 7.0584853e-18 -9.7799432e-31)
(-69.293459 0 9.7928217e-31)
(-69.250012 0 -1.9561246e-30)
(-69.206568 -7.042963e-18 -7.042963e-18)
(-69.163127 1.9552537e-30 7.0377877e-18)
(-69.119689 7.0326224e-18 -1.9528193e-30)
(-69.076255 0 1.9523821e-30)
(-69.032825 0 -1.9509484e-30)
(-68.989397 -7.0171252e-18 -7.0171252e-18)
(-68.945973 2.9216234e-30 7.0119703e-18)
(-68.902552 7.0068105e-18 -1.9456518e-30)
(-68.859134 0 9.7410104e-31)
(-68.81572 0 0)
(-68.772309 0 -6.9913657e-18)
(-68.728901 0 6.9862192e-18)
(-68.685497 0 -9.6925375e-31)
(-68.642096 0 9.9134086e-34)
(-68.598698 0 -9.6782732e-31)
(-68.555303 0 9.681041e-31)
(-68.511912 1.3921082e-17 6.9605412e-18)
(-68.468523 3.8607804e-30 -6.9554088e-18)
(-68.425138 -6.9502806e-18 -6.9502806e-18)
(-68.381757 6.9451519e-18 6.9451519e-18)
(-68.338378 -6.9400269e-18 6.9400269e-18)
(-68.295003 6.9349031e-18 0)
(-68.251632 -1.9262323e-30 -6.9297825e-18)
(-68.208263 -6.9246648e-18 -6.9246648e-18)
(-68.164898 -1.9214213e-30 0)
(-68.121536 -6.914439e-18 6.914439e-18)
(-68.078177 0 -9.5929176e-31)
(-68.034822 0 9.811495e-34)
(-67.991469 6.8991227e-18 9.5689413e-31)
(-67.94812 1.9143334e-30 -6.8940243e-18)
(-67.904775 -6.8889263e-18 6.8889263e-18)
(-67.861432 0 9.547735e-31)
(-67.818093 0 -1.9100893e-30)
(-67.774757 0 -6.8736525e-18)
(-67.731424 0 -6.8685648e-18)
(-67.688095 0 1.3726965e-17)
(-67.644768 0 -9.746373e-34)
(-67.601445 0 9.5054189e-31)
(-67.558125 1.3696494e-17 6.848247e-18)
(-67.514809 -5.6967515e-30 -6.843176e-18)
(-67.471496 -1.367621e-17 9.4940282e-31)
(-67.428186 6.8330393e-18 6.8330393e-18)
(-67.384879 9.7031341e-34 0)
(-67.341575 6.8229136e-18 0)
(-67.298275 -3.7805513e-30 0)
(-67.254978 -1.36256e-17 -6.8127998e-18)
(-67.211684 -6.8077464e-18 -6.8077464e-18)
(-67.168393 -2.3301528e-49 6.8026996e-18)
(-67.125106 2.0392961e-17 6.7976537e-18)
(-67.081821 0 0)
(-67.03854 -1.3575154e-17 -6.7875768e-18)
(-66.995263 0 -6.7825456e-18)
(-66.951988 0 6.7775149e-18)
(-66.908717 1.3544981e-17 6.7724903e-18)
(-66.865448 -1.8772671e-30 0)
(-66.822183 -2.0287338e-17 -6.7624461e-18)
(-66.778922 6.757426e-18 -6.757426e-18)
(-66.735663 6.7524109e-18 6.7524109e-18)
(-66.692408 -6.7473949e-18 1.8736173e-30)
(-66.649155 6.7423838e-18 -6.7423838e-18)
(-66.605906 -6.7373719e-18 0)
(-66.562661 -1.8675303e-30 0)
(-66.519418 6.7273566e-18 0)
(-66.476179 -6.7223525e-18 0)
(-66.432943 0 6.7173463e-18)
(-66.38971 -6.7123432e-18 -1.8619764e-30)
(-66.34648 6.7073367e-18 -6.7073367e-18)
(-66.303254 1.3404664e-17 6.7023321e-18)
(-66.260031 -6.6973231e-18 9.2985668e-31)
(-66.216811 -6.6923152e-18 -9.3011242e-31)
(-66.173594 -6.6873026e-18 2.3112817e-49)
(-66.130381 -6.6822908e-18 6.6822908e-18)
(-66.087171 1.3354548e-17 6.6772742e-18)
(-66.043965 6.6722585e-18 -1.3344517e-17)
(-66.000761 -6.6672378e-18 -9.2567963e-31)
(-65.957561 0 9.2403589e-31)
(-65.914365 6.6571925e-18 -6.6571925e-18)
(-65.871171 -6.6521679e-18 0)
(-65.827981 -6.6471382e-18 6.6471382e-18)
(-65.784794 1.9926328e-17 6.6421094e-18)
(-65.741611 1.8863706e-33 -6.6370766e-18)
(-65.698431 -1.3264093e-17 -1.8397024e-30)
(-65.655254 6.6270144e-18 6.6270144e-18)
(-65.612081 9.1939716e-31 0)
(-65.568911 6.6169639e-18 0)
(-65.525744 -1.8792292e-33 -6.6119501e-18)
(-65.482581 -1.3213888e-17 9.1636951e-31)
(-65.439421 6.6019541e-18 6.6019541e-18)
(-65.396265 0 0)
(-65.353111 -1.8304748e-30 -6.5920274e-18)
(-65.309961 -9.36083e-34 9.36083e-34)
(-65.266815 -6.5822021e-18 -1.8277465e-30)
(-65.223671 6.5773368e-18 -9.1226308e-31)
(-65.180531 -1.825056e-30 6.5725127e-18)
(-65.137393 -9.1093043e-31 -6.5677285e-18)
(-65.094259 -9.3265751e-34 9.3265751e-34)
(-65.051128 -6.5583065e-18 -1.8211112e-30)
(-65.008 6.5536754e-18 -6.5536754e-18)
(-64.964874 2.0924587e-49 6.5490976e-18)
(-64.921751 -1.8172998e-30 1.8172998e-30)
(-64.878631 -9.2940695e-34 9.2940695e-34)
(-64.835514 -1.3071444e-17 -9.0741998e-31)
(-64.792399 -9.0588912e-31 -6.5313812e-18)
(-64.749286 6.5271021e-18 6.5271021e-18)
(-64.706176 0 0)
(-64.663068 0 -3.6193071e-30)
(-64.619962 -6.5145972e-18 -9.0356123e-31)
(-64.576858 -2.7089934e-30 -2.7089934e-30)
(-64.533756 6.5065166e-18 -9.2463162e-34)
(-64.490657 -6.5025432e-18 -6.5025432e-18)
(-64.447559 9.0226659e-31 6.4986046e-18)
(-64.404464 7.1308767e-49 7.1308767e-49)
(-64.36137 -9.0118605e-31 -9.0118605e-31)
(-64.318278 6.4869666e-18 1.8013015e-30)
(-64.275188 6.4831234e-18 -9.0011719e-31)
(-64.232099 8.9866449e-31 1.2958584e-17)
(-64.189013 -6.4754612e-18 -6.4754612e-18)
(-64.145928 0 -6.4716306e-18)
(-64.102845 0 -8.9798817e-31)
(-64.059764 6.4639374e-18 8.974534e-31)
(-64.016685 -6.4600649e-18 1.292013e-17)
(-63.973608 5.3745825e-30 -6.4561731e-18)
(-63.930533 6.4522521e-18 -6.4522521e-18)
(-63.88746 -6.4483044e-18 1.8196436e-49)
(-63.844388 0 0)
(-63.801319 6.4403055e-18 1.8537023e-49)
(-63.758252 6.4362499e-18 -6.4362499e-18)
(-63.715187 -6.432159e-18 6.432159e-18)
(-63.672125 -6.4280262e-18 1.9035654e-49)
(-63.629065 0 -8.9097576e-31)
(-63.586007 6.4196463e-18 -9.1228661e-34)
(-63.542952 6.4154003e-18 -6.4154003e-18)
(-63.499899 -1.2822229e-17 1.2822229e-17)
(-63.456848 -6.4067954e-18 1.7790396e-30)
(-63.413801 6.4024393e-18 -6.4024393e-18)
(-63.370756 6.3980535e-18 8.8739685e-31)
(-63.327714 8.8678385e-31 -8.8678385e-31)
(-63.284674 6.3891881e-18 6.3891881e-18)
(-63.241638 1.7729076e-30 -6.3847125e-18)
(-63.198604 -1.2760431e-17 -8.3390831e-49)
(-63.155573 0 -2.6565104e-30)
(-63.112546 0 1.7700476e-30)
(-63.069521 0 -1.7669709e-30)
(-63.026499 6.3620171e-18 -1.7666056e-30)
(-62.98348 6.3574259e-18 2.1198392e-49)
(-62.940464 0 0)
(-62.897452 -6.3482115e-18 6.3482115e-18)
(-62.854442 -8.7894158e-31 0)
(-62.811436 6.3389597e-18 0)
(-62.768433 0 -6.3343245e-18)
(-62.725432 0 -1.7576262e-30)
(-62.682436 -6.3250345e-18 6.3250345e-18)
(-62.639442 -8.7662396e-31 0)
(-62.596451 8.7508122e-31 0)
(-62.553464 -6.3110731e-18 -1.2622146e-17)
(-62.51048 6.3064186e-18 -5.2499161e-30)
(-62.467499 -2.6221239e-30 1.2603522e-17)
(-62.424521 -6.2971068e-18 -6.2971068e-18)
(-62.381546 0 8.9421107e-34)
(-62.338575 -6.2877987e-18 -8.729983e-31)
(-62.295607 -8.7235228e-31 -6.2831458e-18)
(-62.252642 6.2784964e-18 0)
(-62.20968 -6.2738467e-18 0)
(-62.166721 6.2692001e-18 0)
(-62.123766 6.2645537e-18 -6.2645537e-18)
(-62.080814 -6.2599099e-18 -1.7364732e-30)
(-62.037865 0 6.2552666e-18)
(-61.994919 6.2506258e-18 0)
(-61.951977 6.2459859e-18 0)
(-61.909038 -6.2413487e-18 -6.2413487e-18)
(-61.866102 -6.2367133e-18 8.8629026e-34)
(-61.823169 0 6.2320809e-18)
(-61.78024 -6.2274511e-18 0)
(-61.737313 6.2228248e-18 0)
(-61.69439 6.2182017e-18 -6.2182017e-18)
(-61.65147 -6.2135822e-18 -1.7236221e-30)
(-61.608554 -1.2417932e-17 -1.7249886e-30)
(-61.56564 3.4456506e-30 1.7228253e-30)
(-61.52273 1.8599227e-17 6.1997422e-18)
(-61.479823 2.1333644e-49 -6.1951341e-18)
(-61.436919 -6.1905278e-18 1.7181067e-30)
(-61.394018 -1.2371846e-17 -1.7168287e-30)
(-61.351121 3.4293454e-30 1.7146727e-30)
(-61.308226 1.2353436e-17 6.1767179e-18)
(-61.265335 -6.1721171e-18 0)
(-61.222447 6.1675174e-18 0)
(-61.179562 -6.162919e-18 -6.162919e-18)
(-61.136681 -6.158322e-18 -5.3227729e-48)
(-61.093803 1.2307453e-17 6.1537267e-18)
(-61.050928 0 0)
(-61.008056 0 0)
(-60.965187 -1.2279904e-17 -6.139952e-18)
(-60.922322 -1.6999348e-48 -3.3998696e-48)
(-60.879459 1.226156e-17 6.1307799e-18)
(-60.836601 0 0)
(-60.793745 0 0)
(-60.750892 -1.2234078e-17 -6.117039e-18)
(-60.708043 -1.6959975e-48 -3.3919949e-48)
(-60.665196 1.221578e-17 6.1078898e-18)
(-60.622353 0 0)
(-60.579513 0 0)
(-60.536677 -1.2188361e-17 -6.0941804e-18)
(-60.493843 -6.0896137e-18 8.6538616e-34)
(-60.451013 1.2170096e-17 6.0850482e-18)
(-60.408185 6.0804835e-18 -6.0804835e-18)
(-60.365361 0 1.6880254e-30)
(-60.32254 -1.2142712e-17 -1.6867576e-30)
(-60.279722 3.3692555e-30 1.6846277e-30)
(-60.236908 1.2124461e-17 6.0622304e-18)
(-60.194096 -6.0576678e-18 0)
(-60.151288 0 0)
(-60.108483 6.0485427e-18 0)
(-60.065681 -6.04398e-18 0)
(-60.022882 8.5825278e-34 0)
(-59.980086 6.0348536e-18 -6.0348536e-18)
(-59.937294 -6.0302896e-18 1.6736345e-30)
(-59.894504 6.0257252e-18 6.0257252e-18)
(-59.851718 6.0211604e-18 0)
(-59.808935 -6.0165953e-18 0)
(-59.766155 -6.0120303e-18 0)
(-59.723378 1.6681536e-30 0)
(-59.680605 6.0029006e-18 0)
(-59.637835 -5.9983365e-18 0)
(-59.595067 -1.6643516e-30 0)
(-59.552303 5.9892116e-18 -5.9892116e-18)
(-59.509542 -5.9846522e-18 3.3219367e-30)
(-59.466785 5.9800957e-18 5.9800957e-18)
(-59.42403 5.9755429e-18 0)
(-59.381279 -5.9709942e-18 0)
(-59.33853 -5.9664507e-18 0)
(-59.295785 1.6555046e-30 0)
(-59.253043 5.9573828e-18 0)
(-59.210304 -5.9528611e-18 0)
(-59.167568 8.4531134e-34 0)
(-59.124835 5.9438499e-18 -5.9438499e-18)
(-59.082105 -5.9393629e-18 1.6483989e-30)
(-59.039379 5.9348901e-18 5.9348901e-18)
(-58.996655 5.9304329e-18 0)
(-58.953934 -5.9259932e-18 0)
(-58.911216 -1.1843146e-17 -5.9215731e-18)
(-58.868501 3.2878452e-30 1.6439226e-30)
(-58.825789 1.1825601e-17 5.9128005e-18)
(-58.78308 -5.9084511e-18 0)
(-58.740373 8.3902699e-34 0)
(-58.697669 1.1799661e-17 0)
(-58.654968 1.6756192e-33 -5.895561e-18)
(-58.61227 -5.89132e-18 -1.6367395e-30)
(-58.569574 0 5.8871094e-18)
(-58.526881 5.8829305e-18 0)
(-58.484191 0 0)
(-58.441503 -5.8746708e-18 0)
(-58.398817 0 0)
(-58.356133 0 0)
(-58.313452 0 0)
(-58.270774 -5.8585253e-18 0)
(-58.228097 -1.8247959e-49 -5.8545638e-18)
(-58.185423 5.8506318e-18 8.3142478e-34)
(-58.142751 0 5.8467276e-18)
(-58.100081 5.8428485e-18 0)
(-58.057413 -1.6213714e-30 0)
(-58.014747 -5.8351497e-18 0)
(-57.972083 0 0)
(-57.929421 0 0)
(-57.886761 0 0)
(-57.844103 -5.8199255e-18 0)
(-57.801447 1.6150288e-30 -5.8161488e-18)
(-57.758793 5.8123777e-18 -8.2598855e-34)
(-57.716141 0 5.8086067e-18)
(-57.67349 5.8048305e-18 0)
(-57.630842 1.6100106e-30 0)
(-57.588195 -5.7972512e-18 0)
(-57.545551 0 -5.7934476e-18)
(-57.502908 5.7896356e-18 3.2145104e-30)
(-57.460267 -5.7858137e-18 5.7858137e-18)
(-57.417629 3.2127238e-30 0)
(-57.374992 5.7781228e-18 -5.7781228e-18)
(-57.332357 -5.7742426e-18 -1.6042128e-30)
(-57.289724 0 5.7703344e-18)
(-57.247093 -5.7663987e-18 0)
(-57.204465 -1.6001147e-30 0)
(-57.161839 5.7584597e-18 -5.7584597e-18)
(-57.119214 0 -5.7544623e-18)
(-57.076592 5.7504451e-18 5.7504451e-18)
(-57.033972 -5.7464028e-18 5.7464028e-18)
(-56.991354 -3.1890611e-30 0)
(-56.948739 5.7382208e-18 0)
(-56.906126 -3.183664e-30 0)
(-56.863515 -8.1426878e-34 0)
(-56.820907 1.5907309e-30 5.7257152e-18)
(-56.778301 -8.1307529e-34 -8.1307529e-34)
(-56.735698 -5.7172891e-18 -1.1434578e-17)
(-56.693097 0 -5.713053e-18)
(-56.650498 5.7087936e-18 1.1417587e-17)
(-56.607902 -1.5832169e-30 1.140901e-17)
(-56.565309 -1.5820182e-30 -5.7001861e-18)
(-56.522718 2.0256198e-49 -5.6958413e-18)
(-56.48013 -1.5804107e-30 0)
(-56.437545 0 0)
(-56.394962 -1.1365482e-17 0)
(-56.352382 -1.5767703e-30 0)
(-56.309805 5.6739908e-18 -5.6739908e-18)
(-56.267229 -5.6695961e-18 -1.5751397e-30)
(-56.224657 1.5723024e-30 5.6651791e-18)
(-56.182087 5.6607388e-18 0)
(-56.13952 5.6562802e-18 0)
(-56.096956 1.5693959e-30 0)
(-56.054395 -1.5681554e-30 0)
(-56.011837 5.6428846e-18 0)
(-55.969281 -5.638431e-18 0)
(-55.926728 -5.6339794e-18 0)
(-55.884177 0 0)
(-55.841629 -5.6250494e-18 0)
(-55.799084 1.5607176e-30 0)
(-55.756541 5.6160545e-18 0)
(-55.714002 0 0)
(-55.671465 0 0)
(-55.628931 0 0)
(-55.5864 -1.119604e-17 -5.5980198e-18)
(-55.543872 6.2128525e-30 3.1064263e-30)
(-55.501346 1.1178112e-17 5.5890559e-18)
(-55.458823 0 0)
(-55.416302 0 0)
(-55.373784 0 5.5755948e-18)
(-55.331269 0 -1.5469771e-30)
(-55.288756 0 7.9105295e-34)
(-55.246247 0 -5.5619938e-18)
(-55.20374 0 -5.557451e-18)
(-55.161237 -1.1105855e-17 -3.0830857e-30)
(-55.118736 3.0829558e-30 1.5414779e-30)
(-55.076238 1.1087934e-17 5.5439672e-18)
(-55.033741 5.539517e-18 0)
(-54.991247 -5.5350597e-18 0)
(-54.948756 -5.5305725e-18 0)
(-54.906267 1.5352571e-30 0)
(-54.863781 3.0632661e-30 0)
(-54.821298 5.5168766e-18 -5.5168766e-18)
(-54.778818 -5.512291e-18 3.0605237e-30)