/*--------------------------------*- C++ -*----------------------------------*\
  =========                 |
  \\      /  F ield         | OpenFOAM: The Open Source CFD Toolbox
   \\    /   O peration     | Website:  https://openfoam.org
    \\  /    A nd           | Version:  7
     \\/     M anipulation  |
\*---------------------------------------------------------------------------*/
FoamFile
{
    version     2.0;
    format      ascii;
    class       volScalarField;
    location    "0.00243";
    object      p;
}
// * * * * * * * * * * * * * * * * * * * * * * * * * * * * * * * * * * * * * //

dimensions      [1 -1 -2 0 0 0 0];

internalField   nonuniform List<scalar> 
5000
(
109813.18
109813.18
109813.18
109813.18
109813.18
109813.18
109813.18
109813.18
109813.18
109813.18
109813.18
109813.18
109813.18
109813.18
109813.18
109813.18
109813.18
109813.18
109813.19
109813.19
109813.19
109813.19
109813.19
109813.19
109813.19
109813.19
109813.19
109813.19
109813.19
109813.19
109813.19
109813.19
109813.19
109813.19
109813.19
109813.19
109813.19
109813.19
109813.19
109813.19
109813.19
109813.19
109813.19
109813.19
109813.19
109813.19
109813.19
109813.19
109813.19
109813.19
109813.19
109813.19
109813.19
109813.19
109813.19
109813.19
109813.19
109813.19
109813.19
109813.19
109813.2
109813.2
109813.2
109813.2
109813.2
109813.2
109813.2
109813.2
109813.2
109813.2
109813.2
109813.2
109813.2
109813.2
109813.2
109813.2
109813.2
109813.2
109813.2
109813.2
109813.2
109813.2
109813.2
109813.2
109813.2
109813.2
109813.2
109813.2
109813.2
109813.2
109813.2
109813.2
109813.2
109813.2
109813.2
109813.2
109813.2
109813.2
109813.2
109813.2
109813.2
109813.2
109813.2
109813.2
109813.21
109813.21
109813.21
109813.21
109813.21
109813.21
109813.21
109813.21
109813.21
109813.21
109813.21
109813.21
109813.21
109813.21
109813.21
109813.21
109813.21
109813.21
109813.21
109813.21
109813.21
109813.21
109813.21
109813.21
109813.21
109813.21
109813.21
109813.21
109813.21
109813.21
109813.21
109813.21
109813.21
109813.21
109813.21
109813.21
109813.21
109813.21
109813.21
109813.21
109813.21
109813.21
109813.21
109813.21
109813.22
109813.22
109813.22
109813.22
109813.22
109813.22
109813.22
109813.22
109813.22
109813.22
109813.22
109813.22
109813.22
109813.22
109813.22
109813.22
109813.22
109813.22
109813.22
109813.22
109813.22
109813.22
109813.22
109813.22
109813.22
109813.22
109813.22
109813.22
109813.22
109813.22
109813.22
109813.22
109813.22
109813.22
109813.22
109813.22
109813.22
109813.22
109813.22
109813.22
109813.22
109813.22
109813.22
109813.22
109813.23
109813.23
109813.23
109813.23
109813.23
109813.23
109813.23
109813.23
109813.23
109813.23
109813.23
109813.23
109813.23
109813.23
109813.23
109813.23
109813.23
109813.23
109813.23
109813.23
109813.23
109813.23
109813.23
109813.23
109813.23
109813.23
109813.23
109813.23
109813.23
109813.23
109813.23
109813.23
109813.23
109813.23
109813.23
109813.23
109813.23
109813.23
109813.23
109813.23
109813.23
109813.23
109813.23
109813.23
109813.24
109813.24
109813.24
109813.24
109813.24
109813.24
109813.24
109813.24
109813.24
109813.24
109813.24
109813.24
109813.24
109813.24
109813.24
109813.24
109813.24
109813.24
109813.24
109813.24
109813.24
109813.24
109813.24
109813.24
109813.24
109813.24
109813.24
109813.24
109813.24
109813.24
109813.24
109813.24
109813.24
109813.24
109813.24
109813.24
109813.24
109813.24
109813.24
109813.24
109813.24
109813.24
109813.24
109813.24
109813.24
109813.24
109813.25
109813.25
109813.25
109813.25
109813.25
109813.25
109813.25
109813.25
109813.25
109813.25
109813.25
109813.25
109813.25
109813.25
109813.25
109813.25
109813.25
109813.25
109813.25
109813.25
109813.25
109813.25
109813.25
109813.25
109813.25
109813.25
109813.25
109813.25
109813.25
109813.25
109813.25
109813.25
109813.25
109813.25
109813.25
109813.25
109813.25
109813.25
109813.25
109813.25
109813.25
109813.25
109813.25
109813.25
109813.25
109813.25
109813.25
109813.25
109813.26
109813.26
109813.26
109813.26
109813.26
109813.26
109813.26
109813.26
109813.26
109813.26
109813.26
109813.26
109813.26
109813.26
109813.26
109813.26
109813.26
109813.26
109813.26
109813.26
109813.26
109813.26
109813.26
109813.26
109813.26
109813.26
109813.26
109813.26
109813.26
109813.26
109813.26
109813.26
109813.26
109813.26
109813.26
109813.26
109813.26
109813.26
109813.26
109813.26
109813.26
109813.26
109813.26
109813.26
109813.26
109813.26
109813.26
109813.26
109813.26
109813.26
109813.26
109813.27
109813.27
109813.27
109813.27
109813.27
109813.27
109813.27
109813.27
109813.27
109813.27
109813.27
109813.27
109813.27
109813.27
109813.27
109813.27
109813.27
109813.27
109813.27
109813.27
109813.27
109813.27
109813.27
109813.27
109813.27
109813.27
109813.27
109813.27
109813.27
109813.27
109813.27
109813.27
109813.27
109813.27
109813.27
109813.27
109813.27
109813.27
109813.27
109813.27
109813.27
109813.27
109813.27
109813.27
109813.27
109813.27
109813.27
109813.27
109813.27
109813.27
109813.27
109813.27
109813.28
109813.28
109813.28
109813.28
109813.28
109813.28
109813.28
109813.28
109813.28
109813.28
109813.28
109813.28
109813.28
109813.28
109813.28
109813.28
109813.28
109813.28
109813.28
109813.28
109813.28
109813.28
109813.28
109813.28
109813.28
109813.28
109813.28
109813.28
109813.28
109813.28
109813.28
109813.28
109813.28
109813.28
109813.28
109813.28
109813.28
109813.28
109813.28
109813.28
109813.28
109813.28
109813.28
109813.28
109813.28
109813.28
109813.28
109813.28
109813.28
109813.28
109813.28
109813.28
109813.28
109813.28
109813.29
109813.29
109813.29
109813.29
109813.29
109813.29
109813.29
109813.29
109813.29
109813.29
109813.29
109813.29
109813.29
109813.29
109813.29
109813.29
109813.29
109813.29
109813.29
109813.29
109813.29
109813.29
109813.29
109813.29
109813.29
109813.29
109813.29
109813.29
109813.29
109813.29
109813.29
109813.29
109813.29
109813.29
109813.29
109813.29
109813.29
109813.29
109813.29
109813.29
109813.29
109813.29
109813.29
109813.29
109813.29
109813.29
109813.29
109813.29
109813.29
109813.29
109813.29
109813.29
109813.29
109813.29
109813.29
109813.3
109813.3
109813.3
109813.3
109813.3
109813.3
109813.3
109813.3
109813.3
109813.3
109813.3
109813.3
109813.3
109813.3
109813.3
109813.3
109813.3
109813.3
109813.3
109813.3
109813.3
109813.3
109813.3
109813.3
109813.3
109813.3
109813.3
109813.3
109813.3
109813.3
109813.3
109813.3
109813.3
109813.3
109813.3
109813.3
109813.3
109813.3
109813.3
109813.3
109813.3
109813.3
109813.3
109813.3
109813.3
109813.3
109813.3
109813.3
109813.3
109813.3
109813.3
109813.3
109813.3
109813.3
109813.3
109813.3
109813.3
109813.3
109813.3
109813.3
109813.31
109813.31
109813.31
109813.31
109813.31
109813.31
109813.31
109813.31
109813.31
109813.31
109813.31
109813.31
109813.31
109813.31
109813.31
109813.31
109813.31
109813.31
109813.31
109813.31
109813.31
109813.31
109813.31
109813.31
109813.31
109813.31
109813.31
109813.31
109813.31
109813.31
109813.31
109813.31
109813.31
109813.31
109813.31
109813.31
109813.31
109813.31
109813.31
109813.31
109813.31
109813.31
109813.31
109813.31
109813.31
109813.31
109813.31
109813.31
109813.31
109813.31
109813.31
109813.31
109813.31
109813.31
109813.31
109813.31
109813.31
109813.31
109813.31
109813.31
109813.31
109813.31
109813.31
109813.31
109813.31
109813.32
109813.32
109813.32
109813.32
109813.32
109813.32
109813.32
109813.32
109813.32
109813.32
109813.32
109813.32
109813.32
109813.32
109813.32
109813.32
109813.32
109813.32
109813.32
109813.32
109813.32
109813.32
109813.32
109813.32
109813.32
109813.32
109813.32
109813.32
109813.32
109813.32
109813.32
109813.32
109813.32
109813.32
109813.32
109813.32
109813.32
109813.32
109813.32
109813.32
109813.32
109813.32
109813.32
109813.32
109813.32
109813.32
109813.32
109813.32
109813.32
109813.32
109813.32
109813.32
109813.32
109813.32
109813.32
109813.32
109813.32
109813.32
109813.32
109813.32
109813.32
109813.32
109813.32
109813.32
109813.32
109813.33
109813.33
109813.33
109813.33
109813.33
109813.33
109813.33
109813.33
109813.33
109813.33
109813.33
109813.33
109813.33
109813.33
109813.33
109813.33
109813.33
109813.33
109813.33
109813.33
109813.33
109813.33
109813.33
109813.33
109813.33
109813.33
109813.33
109813.33
109813.33
109813.33
109813.33
109813.33
109813.33
109813.33
109813.33
109813.33
109813.33
109813.33
109813.33
109813.33
109813.33
109813.33
109813.33
109813.33
109813.33
109813.33
109813.33
109813.33
109813.33
109813.33
109813.33
109813.33
109813.33
109813.33
109813.33
109813.33
109813.33
109813.33
109813.33
109813.33
109813.33
109813.33
109813.33
109813.33
109813.33
109813.34
109813.34
109813.34
109813.34
109813.34
109813.34
109813.34
109813.34
109813.34
109813.34
109813.34
109813.34
109813.34
109813.34
109813.34
109813.34
109813.34
109813.34
109813.34
109813.34
109813.34
109813.34
109813.34
109813.34
109813.34
109813.34
109813.34
109813.34
109813.34
109813.34
109813.34
109813.34
109813.34
109813.34
109813.34
109813.34
109813.34
109813.34
109813.34
109813.34
109813.34
109813.34
109813.34
109813.34
109813.34
109813.34
109813.34
109813.34
109813.34
109813.34
109813.34
109813.34
109813.34
109813.34
109813.34
109813.34
109813.34
109813.34
109813.34
109813.34
109813.34
109813.34
109813.34
109813.34
109813.34
109813.34
109813.34
109813.34
109813.34
109813.34
109813.34
109813.34
109813.34
109813.34
109813.34
109813.35
109813.35
109813.35
109813.35
109813.35
109813.35
109813.35
109813.35
109813.35
109813.35
109813.35
109813.35
109813.35
109813.35
109813.35
109813.35
109813.35
109813.35
109813.35
109813.35
109813.35
109813.35
109813.35
109813.35
109813.35
109813.35
109813.35
109813.35
109813.35
109813.35
109813.35
109813.35
109813.35
109813.35
109813.35
109813.35
109813.35
109813.35
109813.35
109813.35
109813.35
109813.35
109813.35
109813.35
109813.35
109813.35
109813.35
109813.35
109813.35
109813.35
109813.35
109813.35
109813.35
109813.35
109813.35
109813.35
109813.35
109813.35
109813.35
109813.35
109813.35
109813.35
109813.35
109813.35
109813.35
109813.35
109813.35
109813.35
109813.35
109813.35
109813.35
109813.35
109813.35
109813.35
109813.35
109813.35
109813.35
109813.35
109813.35
109813.35
109813.35
109813.35
109813.35
109813.35
109813.35
109813.35
109813.35
109813.35
109813.35
109813.35
109813.35
109813.35
109813.35
109813.35
109813.35
109813.35
109813.35
109813.35
109813.35
109813.35
109813.35
109813.35
109813.35
109813.35
109813.35
109813.35
109813.35
109813.35
109813.35
109813.35
109813.35
109813.35
109813.35
109813.35
109813.35
109813.35
109813.35
109813.35
109813.35
109813.35
109813.35
109813.35
109813.35
109813.35
109813.35
109813.35
109813.35
109813.35
109813.35
109813.35
109813.35
109813.35
109813.35
109813.35
109813.35
109813.35
109813.35
109813.35
109813.35
109813.35
109813.35
109813.35
109813.35
109813.35
109813.35
109813.35
109813.35
109813.35
109813.35
109813.35
109813.35
109813.35
109813.35
109813.35
109813.35
109813.35
109813.35
109813.35
109813.35
109813.35
109813.35
109813.35
109813.35
109813.35
109813.35
109813.35
109813.35
109813.35
109813.35
109813.35
109813.35
109813.35
109813.35
109813.35
109813.35
109813.35
109813.35
109813.35
109813.35
109813.35
109813.35
109813.35
109813.35
109813.35
109813.35
109813.35
109813.35
109813.35
109813.35
109813.35
109813.35
109813.35
109813.35
109813.35
109813.35
109813.35
109813.35
109813.35
109813.35
109813.35
109813.35
109813.35
109813.35
109813.35
109813.35
109813.35
109813.35
109813.35
109813.35
109813.35
109813.35
109813.35
109813.35
109813.35
109813.35
109813.35
109813.35
109813.35
109813.35
109813.35
109813.35
109813.35
109813.35
109813.35
109813.35
109813.35
109813.35
109813.35
109813.35
109813.35
109813.35
109813.35
109813.35
109813.35
109813.35
109813.35
109813.35
109813.35
109813.35
109813.35
109813.35
109813.35
109813.35
109813.35
109813.35
109813.35
109813.35
109813.35
109813.35
109813.35
109813.35
109813.35
109813.35
109813.35
109813.35
109813.35
109813.35
109813.35
109813.35
109813.34
109813.34
109813.34
109813.34
109813.34
109813.34
109813.34
109813.34
109813.34
109813.34
109813.34
109813.34
109813.34
109813.34
109813.34
109813.34
109813.34
109813.34
109813.34
109813.34
109813.34
109813.34
109813.34
109813.34
109813.34
109813.34
109813.34
109813.34
109813.34
109813.34
109813.34
109813.34
109813.34
109813.33
109813.33
109813.33
109813.33
109813.33
109813.33
109813.33
109813.33
109813.33
109813.33
109813.33
109813.33
109813.33
109813.33
109813.33
109813.33
109813.33
109813.32
109813.32
109813.32
109813.32
109813.32
109813.32
109813.32
109813.32
109813.32
109813.32
109813.32
109813.31
109813.31
109813.31
109813.31
109813.31
109813.31
109813.31
109813.31
109813.3
109813.3
109813.3
109813.3
109813.3
109813.3
109813.3
109813.29
109813.29
109813.29
109813.29
109813.29
109813.28
109813.28
109813.28
109813.28
109813.28
109813.27
109813.27
109813.27
109813.27
109813.26
109813.26
109813.26
109813.25
109813.25
109813.25
109813.24
109813.24
109813.24
109813.23
109813.23
109813.23
109813.22
109813.22
109813.21
109813.21
109813.2
109813.2
109813.2
109813.19
109813.18
109813.18
109813.17
109813.17
109813.16
109813.16
109813.15
109813.14
109813.14
109813.13
109813.12
109813.12
109813.11
109813.1
109813.09
109813.08
109813.08
109813.07
109813.06
109813.05
109813.04
109813.03
109813.02
109813.01
109813
109812.99
109812.97
109812.96
109812.95
109812.94
109812.92
109812.91
109812.9
109812.88
109812.87
109812.85
109812.84
109812.82
109812.8
109812.79
109812.77
109812.75
109812.73
109812.71
109812.7
109812.68
109812.65
109812.63
109812.61
109812.59
109812.57
109812.54
109812.52
109812.49
109812.47
109812.44
109812.41
109812.39
109812.36
109812.33
109812.3
109812.27
109812.24
109812.2
109812.17
109812.14
109812.1
109812.06
109812.03
109811.99
109811.95
109811.91
109811.87
109811.83
109811.78
109811.74
109811.69
109811.65
109811.6
109811.55
109811.5
109811.45
109811.4
109811.34
109811.29
109811.23
109811.18
109811.12
109811.06
109810.99
109810.93
109810.87
109810.8
109810.73
109810.66
109810.59
109810.52
109810.45
109810.37
109810.29
109810.21
109810.13
109810.05
109809.97
109809.88
109809.79
109809.7
109809.61
109809.52
109809.42
109809.32
109809.22
109809.12
109809.02
109808.91
109808.8
109808.69
109808.58
109808.46
109808.35
109808.23
109808.1
109807.98
109807.85
109807.72
109807.59
109807.46
109807.32
109807.18
109807.04
109806.89
109806.75
109806.6
109806.44
109806.29
109806.13
109805.97
109805.81
109805.64
109805.47
109805.29
109805.12
109804.94
109804.76
109804.57
109804.38
109804.19
109804
109803.8
109803.6
109803.39
109803.19
109802.97
109802.76
109802.54
109802.32
109802.09
109801.87
109801.63
109801.4
109801.16
109800.92
109800.67
109800.42
109800.16
109799.91
109799.64
109799.38
109799.11
109798.84
109798.56
109798.28
109797.99
109797.7
109797.41
109797.11
109796.81
109796.5
109796.19
109795.88
109795.56
109795.24
109794.91
109794.58
109794.25
109793.91
109793.56
109793.22
109792.86
109792.51
109792.14
109791.78
109791.41
109791.03
109790.65
109790.27
109789.88
109789.49
109789.09
109788.69
109788.28
109787.87
109787.46
109787.04
109786.61
109786.18
109785.75
109785.31
109784.86
109784.41
109783.96
109783.5
109783.04
109782.57
109782.1
109781.62
109781.14
109780.65
109780.16
109779.66
109779.16
109778.66
109778.14
109777.63
109777.11
109776.58
109776.05
109775.52
109774.98
109774.43
109773.88
109773.33
109772.77
109772.2
109771.63
109771.06
109770.48
109769.9
109769.31
109768.72
109768.12
109767.52
109766.91
109766.3
109765.68
109765.06
109764.43
109763.8
109763.16
109762.52
109761.88
109761.23
109760.57
109759.92
109759.25
109758.58
109757.91
109757.23
109756.55
109755.87
109755.18
109754.48
109753.78
109753.08
109752.37
109751.66
109750.94
109750.22
109749.49
109748.76
109748.03
109747.29
109746.55
109745.8
109745.05
109744.29
109743.53
109742.77
109742
109741.23
109740.46
109739.68
109738.9
109738.11
109737.32
109736.53
109735.73
109734.93
109734.12
109733.31
109732.5
109731.69
109730.87
109730.04
109729.22
109728.39
109727.56
109726.72
109725.88
109725.04
109724.19
109723.34
109722.49
109721.64
109720.78
109719.92
109719.05
109718.19
109717.32
109716.45
109715.57
109714.69
109713.81
109712.93
109712.05
109711.16
109710.27
109709.38
109708.48
109707.58
109706.68
109705.78
109704.88
109703.97
109703.07
109702.16
109701.24
109700.33
109699.41
109698.5
109697.58
109696.66
109695.73
109694.81
109693.88
109692.96
109692.03
109691.1
109690.17
109689.24
109688.3
109687.37
109686.43
109685.49
109684.56
109683.62
109682.68
109681.74
109680.79
109679.85
109678.91
109677.96
109677.02
109676.07
109675.13
109674.18
109673.24
109672.29
109671.34
109670.39
109669.45
109668.5
109667.55
109666.6
109665.66
109664.71
109663.76
109662.81
109661.87
109660.92
109659.97
109659.02
109658.08
109657.13
109656.19
109655.24
109654.3
109653.36
109652.41
109651.47
109650.53
109649.59
109648.65
109647.71
109646.77
109645.84
109644.9
109643.97
109643.03
109642.1
109641.17
109640.24
109639.31
109638.39
109637.46
109636.54
109635.61
109634.69
109633.77
109632.86
109631.94
109631.03
109630.11
109629.2
109628.29
109627.39
109626.48
109625.58
109624.68
109623.78
109622.88
109621.98
109621.09
109620.2
109619.31
109618.42
109617.54
109616.66
109615.78
109614.9
109614.02
109613.15
109612.28
109611.41
109610.55
109609.68
109608.82
109607.97
109607.11
109606.26
109605.41
109604.56
109603.72
109602.87
109602.03
109601.2
109600.37
109599.53
109598.71
109597.88
109597.06
109596.24
109595.42
109594.61
109593.8
109592.99
109592.19
109591.39
109590.59
109589.8
109589
109588.22
109587.43
109586.65
109585.87
109585.09
109584.32
109583.55
109582.78
109582.02
109581.26
109580.5
109579.75
109579
109578.25
109577.51
109576.76
109576.03
109575.29
109574.56
109573.84
109573.11
109572.39
109571.67
109570.96
109570.25
109569.54
109568.84
109568.14
109567.44
109566.75
109566.06
109565.37
109564.68
109564
109563.33
109562.65
109561.98
109561.32
109560.65
109559.99
109559.34
109558.68
109558.03
109557.39
109556.75
109556.11
109555.47
109554.84
109554.21
109553.58
109552.96
109552.34
109551.72
109551.11
109550.5
109549.89
109549.29
109548.69
109548.1
109547.5
109546.92
109546.33
109545.75
109545.17
109544.59
109544.02
109543.45
109542.88
109542.32
109541.76
109541.2
109540.65
109540.1
109539.55
109539.01
109538.47
109537.93
109537.4
109536.87
109536.34
109535.82
109535.3
109534.78
109534.26
109533.75
109533.24
109532.74
109532.24
109531.74
109531.24
109530.75
109530.26
109529.77
109529.29
109528.81
109528.33
109527.85
109527.38
109526.91
109526.45
109525.99
109525.53
109525.07
109524.62
109524.17
109523.72
109523.27
109522.83
109522.39
109521.96
109521.52
109521.09
109520.66
109520.24
109519.82
109519.4
109518.98
109518.57
109518.16
109517.75
109517.35
109516.95
109516.55
109516.15
109515.76
109515.37
109514.98
109514.59
109514.21
109513.83
109513.45
109513.08
109512.71
109512.34
109511.97
109511.61
109511.25
109510.89
109510.53
109510.18
109509.83
109509.48
109509.13
109508.79
109508.45
109508.11
109507.78
109507.45
109507.12
109506.79
109506.46
109506.14
109505.82
109505.5
109505.19
109504.88
109504.57
109504.26
109503.95
109503.65
109503.35
109503.05
109502.76
109502.47
109502.18
109501.89
109501.6
109501.32
109501.04
109500.76
109500.48
109500.21
109499.94
109499.67
109499.4
109499.14
109498.88
109498.62
109498.36
109498.11
109497.85
109497.6
109497.35
109497.11
109496.86
109496.62
109496.38
109496.15
109495.91
109495.68
109495.45
109495.22
109494.99
109494.77
109494.55
109494.33
109494.11
109493.9
109493.68
109493.47
109493.26
109493.05
109492.85
109492.65
109492.45
109492.25
109492.05
109491.86
109491.66
109491.47
109491.28
109491.1
109490.91
109490.73
109490.55
109490.37
109490.19
109490.02
109489.85
109489.67
109489.51
109489.34
109489.17
109489.01
109488.85
109488.69
109488.53
109488.37
109488.22
109488.07
109487.92
109487.77
109487.62
109487.47
109487.33
109487.19
109487.05
109486.91
109486.77
109486.64
109486.5
109486.37
109486.24
109486.11
109485.99
109485.86
109485.74
109485.61
109485.49
109485.37
109485.26
109485.14
109485.03
109484.91
109484.8
109484.69
109484.58
109484.48
109484.37
109484.27
109484.17
109484.06
109483.96
109483.87
109483.77
109483.67
109483.58
109483.49
109483.39
109483.3
109483.22
109483.13
109483.04
109482.96
109482.87
109482.79
109482.71
109482.63
109482.55
109482.47
109482.4
109482.32
109482.25
109482.17
109482.1
109482.03
109481.96
109481.89
109481.82
109481.76
109481.69
109481.63
109481.57
109481.5
109481.44
109481.38
109481.32
109481.26
109481.21
109481.15
109481.1
109481.04
109480.99
109480.94
109480.88
109480.83
109480.78
109480.73
109480.69
109480.64
109480.59
109480.55
109480.5
109480.46
109480.41
109480.37
109480.33
109480.29
109480.25
109480.21
109480.17
109480.13
109480.1
109480.06
109480.02
109479.99
109479.95
109479.92
109479.89
109479.85
109479.82
109479.79
109479.76
109479.73
109479.7
109479.67
109479.64
109479.61
109479.59
109479.56
109479.53
109479.51
109479.48
109479.46
109479.44
109479.41
109479.39
109479.37
109479.34
109479.32
109479.3
109479.28
109479.26
109479.24
109479.22
109479.2
109479.18
109479.17
109479.15
109479.13
109479.11
109479.1
109479.08
109479.06
109479.05
109479.03
109479.02
109479
109478.99
109478.98
109478.96
109478.95
109478.94
109478.92
109478.91
109478.9
109478.89
109478.88
109478.87
109478.85
109478.84
109478.83
109478.82
109478.81
109478.8
109478.79
109478.79
109478.78
109478.77
109478.76
109478.75
109478.74
109478.73
109478.73
109478.72
109478.71
109478.71
109478.7
109478.69
109478.69
109478.68
109478.67
109478.67
109478.66
109478.66
109478.65
109478.64
109478.64
109478.63
109478.63
109478.62
109478.62
109478.61
109478.61
109478.61
109478.6
109478.6
109478.59
109478.59
109478.59
109478.58
109478.58
109478.58
109478.57
109478.57
109478.57
109478.56
109478.56
109478.56
109478.55
109478.55
109478.55
109478.55
109478.54
109478.54
109478.54
109478.54
109478.54
109478.53
109478.53
109478.53
109478.53
109478.53
109478.52
109478.52
109478.52
109478.52
109478.52
109478.52
109478.51
109478.51
109478.51
109478.51
109478.51
109478.51
109478.51
109478.51
109478.51
109478.5
109478.5
109478.5
109478.5
109478.5
109478.5
109478.5
109478.5
109478.5
109478.5
109478.5
109478.49
109478.49
109478.49
109478.49
109478.49
109478.49
109478.49
109478.49
109478.49
109478.49
109478.49
109478.49
109478.49
109478.49
109478.49
109478.49
109478.49
109478.49
109478.49
109478.49
109478.49
109478.49
109478.49
109478.48
109478.48
109478.48
109478.48
109478.48
109478.48
109478.48
109478.48
109478.48
109478.48
109478.48
109478.48
109478.48
109478.48
109478.48
109478.48
109478.48
109478.48
109478.48
109478.48
109478.48
109478.48
109478.48
109478.48
109478.48
109478.48
109478.48
109478.48
109478.48
109478.48
109478.48
109478.48
109478.48
109478.48
109478.48
109478.48
109478.48
109478.48
109478.48
109478.48
109478.48
109478.48
109478.48
109478.48
109478.48
109478.48
109478.48
109478.48
109478.48
109478.48
109478.48
109478.48
109478.48
109478.48
109478.48
109478.48
109478.48
109478.48
109478.48
109478.48
109478.48
109478.48
109478.48
109478.48
109478.48
109478.48
109478.48
109478.48
109478.48
109478.48
109478.48
109478.48
109478.48
109478.48
109478.48
109478.48
109478.48
109478.48
109478.48
109478.48
109478.48
109478.48
109478.48
109478.48
109478.48
109478.48
109478.48
109478.48
109478.48
109478.48
109478.48
109478.48
109478.48
109478.48
109478.48
109478.48
109478.48
109478.48
109478.47
109478.47
109478.47
109478.47
109478.47
109478.47
109478.47
109478.47
109478.47
109478.47
109478.47
109478.47
109478.47
109478.47
109478.47
109478.47
109478.47
109478.47
109478.47
109478.47
109478.47
109478.47
109478.47
109478.47
109478.47
109478.47
109478.47
109478.47
109478.47
109478.47
109478.47
109478.47
109478.47
109478.47
109478.47
109478.47
109478.47
109478.47
109478.47
109478.47
109478.47
109478.47
109478.47
109478.47
109478.47
109478.47
109478.47
109478.47
109478.47
109478.47
109478.47
109478.47
109478.47
109478.47
109478.47
109478.47
109478.47
109478.47
109478.47
109478.47
109478.47
109478.47
109478.47
109478.47
109478.47
109478.47
109478.47
109478.47
109478.47
109478.47
109478.47
109478.47
109478.47
109478.47
109478.47
109478.47
109478.47
109478.47
109478.47
109478.47
109478.47
109478.47
109478.47
109478.47
109478.47
109478.47
109478.47
109478.47
109478.47
109478.47
109478.47
109478.47
109478.47
109478.47
109478.47
109478.47
109478.47
109478.47
109478.47
109478.47
109478.47
109478.47
109478.47
109478.47
109478.47
109478.47
109478.47
109478.47
109478.47
109478.47
109478.47
109478.47
109478.47
109478.47
109478.47
109478.47
109478.47
109478.47
109478.47
109478.47
109478.47
109478.47
109478.47
109478.47
109478.47
109478.47
109478.47
109478.47
109478.47
109478.47
109478.47
109478.47
109478.47
109478.47
109478.47
109478.47
109478.47
109478.47
109478.48
109478.48
109478.48
109478.48
109478.48
109478.48
109478.48
109478.48
109478.48
109478.48
109478.48
109478.48
109478.48
109478.48
109478.48
109478.48
109478.48
109478.48
109478.48
109478.48
109478.48
109478.48
109478.48
109478.48
109478.48
109478.48
109478.48
109478.48
109478.48
109478.48
109478.48
109478.48
109478.48
109478.48
109478.48
109478.48
109478.48
109478.48
109478.48
109478.48
109478.48
109478.48
109478.48
109478.48
109478.48
109478.48
109478.48
109478.48
109478.48
109478.48
109478.48
109478.48
109478.48
109478.48
109478.48
109478.48
109478.48
109478.48
109478.48
109478.48
109478.48
109478.48
109478.48
109478.48
109478.48
109478.48
109478.48
109478.48
109478.48
109478.48
109478.48
109478.48
109478.48
109478.48
109478.48
109478.48
109478.48
109478.48
109478.48
109478.48
109478.48
109478.48
109478.48
109478.48
109478.48
109478.48
109478.48
109478.48
109478.48
109478.48
109478.48
109478.48
109478.48
109478.48
109478.48
109478.48
109478.48
109478.48
109478.48
109478.48
109478.48
109478.48
109478.48
109478.48
109478.48
109478.48
109478.48
109478.48
109478.48
109478.48
109478.48
109478.48
109478.48
109478.48
109478.48
109478.48
109478.48
109478.48
109478.48
109478.48
109478.48
109478.48
109478.48
109478.48
109478.48
109478.48
109478.48
109478.48
109478.48
109478.48
109478.48
109478.48
109478.48
109478.48
109478.48
109478.48
109478.48
109478.48
109478.48
109478.48
109478.48
109478.48
109478.48
109478.48
109478.48
109478.48
109478.48
109478.48
109478.48
109478.48
109478.48
109478.48
109478.48
109478.48
109478.48
109478.48
109478.48
109478.48
109478.48
109478.48
109478.48
109478.48
109478.48
109478.48
109478.48
109478.48
109478.48
109478.48
109478.48
109478.48
109478.48
109478.48
109478.48
109478.48
109478.48
109478.48
109478.48
109478.48
109478.48
109478.48
109478.48
109478.48
109478.48
109478.48
109478.48
109478.48
109478.48
109478.48
109478.48
109478.48
109478.48
109478.48
109478.48
109478.48
109478.48
109478.48
109478.48
109478.48
109478.48
109478.48
109478.48
109478.48
109478.48
109478.48
109478.48
109478.48
109478.48
109478.48
109478.48
109478.48
109478.48
109478.48
109478.48
109478.48
109478.48
109478.48
109478.48
109478.48
109478.48
109478.48
109478.48
109478.48
109478.48
109478.48
109478.48
109478.48
109478.48
109478.48
109478.48
109478.48
109478.48
109478.48
109478.48
109478.48
109478.48
109478.48
109478.48
109478.48
109478.48
109478.48
109478.48
109478.48
109478.48
109478.48
109478.48
109478.48
109478.48
109478.48
109478.48
109478.48
109478.48
109478.48
109478.48
109478.48
109478.48
109478.48
109478.48
109478.48
109478.48
109478.48
109478.48
109478.48
109478.48
109478.48
109478.48
109478.48
109478.48
109478.48
109478.48
109478.48
109478.48
109478.48
109478.48
109478.48
109478.48
109478.48
109478.48
109478.48
109478.48
109478.48
109478.48
109478.48
109478.48
109478.48
109478.48
109478.48
109478.48
109478.48
109478.48
109478.48
109478.48
109478.48
109478.48
109478.48
109478.48
109478.48
109478.48
109478.48
109478.48
109478.48
109478.48
109478.48
109478.48
109478.48
109478.48
109478.48
109478.48
109478.48
109478.48
109478.48
109478.48
109478.48
109478.48
109478.48
109478.48
109478.48
109478.48
109478.48
109478.48
109478.48
109478.48
109478.48
109478.48
109478.48
109478.48
109478.48
109478.48
109478.48
109478.48
109478.48
109478.48
109478.49
109478.49
109478.49
109478.49
109478.49
109478.49
109478.48
109478.48
109478.48
109478.46
109478.48
109478.49
109478.48
109478.48
109478.48
109478.48
109478.48
109478.48
109478.48
109478.48
109478.48
109478.48
109478.48
109478.48
109478.48
109478.48
109478.48
109478.48
109478.48
109478.48
109478.48
109478.48
109478.48
109478.48
109478.48
109478.48
109478.48
109478.48
109478.48
109478.48
109478.48
109478.48
109478.48
109478.48
109478.48
109478.48
109478.48
109478.48
109478.48
109478.48
109478.48
109478.48
109478.48
109478.48
109478.48
109478.48
109478.48
109478.48
109478.48
109478.48
109478.48
109478.48
109478.48
109478.48
109478.48
109478.48
109478.48
109478.48
109478.48
109478.48
109478.48
109478.48
109478.48
109478.48
109478.48
109478.48
109478.48
109478.48
109478.48
109478.48
109478.48
109478.48
109478.48
109478.48
109478.48
109478.48
109478.48
109478.48
109478.48
109478.48
109478.48
109478.48
109478.48
109478.48
109478.48
109478.48
109478.48
109478.48
109478.48
109478.48
109478.48
109478.48
109478.48
109478.48
109478.48
109478.48
109478.48
109478.48
109478.48
109478.48
109478.48
109478.48
109478.48
109478.48
109478.48
109478.48
109478.48
109478.48
109478.48
109478.48
109478.48
109478.48
109478.48
109478.48
109478.48
109478.48
109478.48
109478.48
109478.48
109478.48
109478.48
109478.48
109478.48
109478.48
109478.48
109478.48
109478.48
109478.48
109478.48
109478.48
109478.48
109478.48
109478.48
109478.48
109478.48
109478.48
109478.48
109478.48
109478.48
109478.48
109478.48
109478.48
109478.48
109478.48
109478.48
109478.48
109478.48
109478.48
109478.48
109478.48
109478.48
109478.48
109478.48
109478.48
109478.48
109478.48
109478.48
109478.48
109478.48
109478.48
109478.48
109478.48
109478.48
109478.48
109478.48
109478.48
109478.48
109478.48
109478.48
109478.48
109478.48
109478.48
109478.48
109478.48
109478.48
109478.48
109478.48
109478.48
109478.48
109478.48
109478.48
109478.47
109478.47
109478.47
109478.47
109478.47
109478.47
109478.47
109478.47
109478.47
109478.47
109478.47