/*--------------------------------*- C++ -*----------------------------------*\
  =========                 |
  \\      /  F ield         | OpenFOAM: The Open Source CFD Toolbox
   \\    /   O peration     | Website:  https://openfoam.org
    \\  /    A nd           | Version:  7
     \\/     M anipulation  |
\*---------------------------------------------------------------------------*/
FoamFile
{
    version     2.0;
    format      ascii;
    class       volScalarField;
    location    "0.00106";
    object      rho;
}
// * * * * * * * * * * * * * * * * * * * * * * * * * * * * * * * * * * * * * //

dimensions      [1 -3 0 0 0 0 0];

internalField   nonuniform List<scalar> 
5000
(
1.4235637
1.4235637
1.4235637
1.4235637
1.4235637
1.4235637
1.4235637
1.4235637
1.4235637
1.4235637
1.4235637
1.4235637
1.4235637
1.4235637
1.4235637
1.4235637
1.4235637
1.4235637
1.4235637
1.4235637
1.4235637
1.4235637
1.4235637
1.4235637
1.4235637
1.4235637
1.4235637
1.4235637
1.4235637
1.4235637
1.4235637
1.4235637
1.4235637
1.4235637
1.4235637
1.4235637
1.4235637
1.4235637
1.4235637
1.4235637
1.4235637
1.4235637
1.4235637
1.4235637
1.4235637
1.4235637
1.4235637
1.4235637
1.4235637
1.4235637
1.4235637
1.4235637
1.4235637
1.4235637
1.4235637
1.4235637
1.4235637
1.4235637
1.4235637
1.4235637
1.4235637
1.4235637
1.4235637
1.4235637
1.4235637
1.4235637
1.4235637
1.4235637
1.4235637
1.4235637
1.4235637
1.4235637
1.4235637
1.4235637
1.4235637
1.4235637
1.4235637
1.4235637
1.4235637
1.4235637
1.4235637
1.4235637
1.4235637
1.4235637
1.4235637
1.4235637
1.4235637
1.4235637
1.4235637
1.4235637
1.4235637
1.4235637
1.4235637
1.4235637
1.4235637
1.4235637
1.4235637
1.4235637
1.4235637
1.4235637
1.4235637
1.4235637
1.4235637
1.4235637
1.4235637
1.4235637
1.4235637
1.4235637
1.4235637
1.4235637
1.4235637
1.4235637
1.4235637
1.4235637
1.4235637
1.4235637
1.4235637
1.4235637
1.4235637
1.4235637
1.4235637
1.4235637
1.4235637
1.4235637
1.4235637
1.4235637
1.4235637
1.4235637
1.4235637
1.4235637
1.4235637
1.4235637
1.4235637
1.4235637
1.4235637
1.4235637
1.4235637
1.4235637
1.4235637
1.4235637
1.4235637
1.4235637
1.4235637
1.4235637
1.4235637
1.4235637
1.4235637
1.4235637
1.4235637
1.4235637
1.4235637
1.4235637
1.4235637
1.4235637
1.4235637
1.4235637
1.4235637
1.4235637
1.4235637
1.4235637
1.4235637
1.4235637
1.4235637
1.4235637
1.4235637
1.4235637
1.4235637
1.4235637
1.4235637
1.4235637
1.4235637
1.4235637
1.4235637
1.4235637
1.4235637
1.4235637
1.4235637
1.4235637
1.4235637
1.4235637
1.4235637
1.4235637
1.4235637
1.4235637
1.4235637
1.4235637
1.4235637
1.4235637
1.4235637
1.4235637
1.4235637
1.4235637
1.4235637
1.4235637
1.4235637
1.4235637
1.4235637
1.4235637
1.4235637
1.4235637
1.4235637
1.4235637
1.4235637
1.4235637
1.4235637
1.4235637
1.4235637
1.4235637
1.4235637
1.4235637
1.4235637
1.4235637
1.4235637
1.4235637
1.4235637
1.4235637
1.4235637
1.4235637
1.4235637
1.4235637
1.4235637
1.4235637
1.4235637
1.4235637
1.4235637
1.4235637
1.4235637
1.4235637
1.4235637
1.4235637
1.4235637
1.4235637
1.4235637
1.4235637
1.4235637
1.4235637
1.4235637
1.4235637
1.4235637
1.4235637
1.4235637
1.4235637
1.4235637
1.4235637
1.4235637
1.4235637
1.4235637
1.4235637
1.4235637
1.4235637
1.4235637
1.4235637
1.4235637
1.4235637
1.4235637
1.4235637
1.4235637
1.4235637
1.4235637
1.4235637
1.4235637
1.4235637
1.4235637
1.4235637
1.4235637
1.4235637
1.4235637
1.4235637
1.4235637
1.4235637
1.4235637
1.4235637
1.4235637
1.4235637
1.4235637
1.4235637
1.4235637
1.4235637
1.4235637
1.4235637
1.4235637
1.4235637
1.4235637
1.4235637
1.4235637
1.4235637
1.4235637
1.4235637
1.4235637
1.4235637
1.4235637
1.4235637
1.4235637
1.4235637
1.4235637
1.4235637
1.4235637
1.4235637
1.4235637
1.4235637
1.4235637
1.4235637
1.4235637
1.4235637
1.4235637
1.4235637
1.4235637
1.4235637
1.4235637
1.4235637
1.4235637
1.4235637
1.4235637
1.4235637
1.4235637
1.4235637
1.4235637
1.4235637
1.4235637
1.4235637
1.4235637
1.4235637
1.4235637
1.4235637
1.4235637
1.4235637
1.4235637
1.4235636
1.4235636
1.4235636
1.4235636
1.4235636
1.4235636
1.4235636
1.4235636
1.4235636
1.4235636
1.4235636
1.4235636
1.4235636
1.4235636
1.4235636
1.4235636
1.4235636
1.4235636
1.4235636
1.4235636
1.4235636
1.4235636
1.4235636
1.4235636
1.4235636
1.4235636
1.4235636
1.4235636
1.4235636
1.4235636
1.4235636
1.4235635
1.4235635
1.4235635
1.4235635
1.4235635
1.4235635
1.4235635
1.4235635
1.4235635
1.4235635
1.4235634
1.4235634
1.4235634
1.4235634
1.4235634
1.4235634
1.4235633
1.4235633
1.4235633
1.4235633
1.4235633
1.4235632
1.4235632
1.4235632
1.4235631
1.4235631
1.4235631
1.423563
1.423563
1.423563
1.4235629
1.4235629
1.4235628
1.4235628
1.4235627
1.4235627
1.4235626
1.4235625
1.4235625
1.4235624
1.4235623
1.4235622
1.4235621
1.4235621
1.423562
1.4235619
1.4235617
1.4235616
1.4235615
1.4235614
1.4235613
1.4235611
1.423561
1.4235608
1.4235607
1.4235605
1.4235603
1.4235601
1.4235599
1.4235597
1.4235595
1.4235592
1.423559
1.4235587
1.4235584
1.4235582
1.4235578
1.4235575
1.4235572
1.4235568
1.4235565
1.4235561
1.4235556
1.4235552
1.4235548
1.4235543
1.4235538
1.4235532
1.4235527
1.4235521
1.4235515
1.4235509
1.4235502
1.4235495
1.4235487
1.423548
1.4235471
1.4235463
1.4235454
1.4235445
1.4235435
1.4235425
1.4235414
1.4235403
1.4235391
1.4235378
1.4235366
1.4235352
1.4235338
1.4235323
1.4235308
1.4235292
1.4235275
1.4235257
1.4235239
1.4235219
1.4235199
1.4235178
1.4235156
1.4235134
1.423511
1.4235085
1.4235059
1.4235032
1.4235004
1.4234974
1.4234943
1.4234911
1.4234878
1.4234843
1.4234807
1.423477
1.4234731
1.423469
1.4234647
1.4234603
1.4234557
1.4234509
1.423446
1.4234408
1.4234354
1.4234299
1.4234241
1.423418
1.4234118
1.4234053
1.4233985
1.4233915
1.4233843
1.4233767
1.4233689
1.4233608
1.4233524
1.4233436
1.4233346
1.4233252
1.4233155
1.4233055
1.423295
1.4232842
1.4232731
1.4232615
1.4232495
1.4232371
1.4232243
1.4232111
1.4231974
1.4231832
1.4231685
1.4231534
1.4231378
1.4231216
1.4231049
1.4230877
1.4230699
1.4230515
1.4230326
1.423013
1.4229928
1.422972
1.4229505
1.4229284
1.4229056
1.4228821
1.4228579
1.4228329
1.4228072
1.4227807
1.4227535
1.4227254
1.4226966
1.4226669
1.4226363
1.4226049
1.4225726
1.4225393
1.4225052
1.4224701
1.422434
1.4223969
1.4223589
1.4223198
1.4222797
1.4222385
1.4221962
1.4221528
1.4221083
1.4220627
1.4220159
1.4219679
1.4219187
1.4218683
1.4218166
1.4217637
1.4217094
1.4216539
1.4215971
1.4215389
1.4214793
1.4214183
1.421356
1.4212922
1.4212269
1.4211602
1.421092
1.4210223
1.4209511
1.4208783
1.4208039
1.4207279
1.4206504
1.4205712
1.4204903
1.4204078
1.4203236
1.4202377
1.4201501
1.4200607
1.4199696
1.4198767
1.419782
1.4196854
1.4195871
1.4194869
1.4193848
1.4192809
1.419175
1.4190673
1.4189576
1.418846
1.4187324
1.4186168
1.4184993
1.4183798
1.4182582
1.4181346
1.418009
1.4178813
1.4177516
1.4176198
1.4174859
1.4173499
1.4172117
1.4170715
1.4169292
1.4167847
1.416638
1.4164892
1.4163383
1.4161851
1.4160298
1.4158723
1.4157127
1.4155508
1.4153867
1.4152204
1.415052
1.4148813
1.4147083
1.4145332
1.4143558
1.4141762
1.4139944
1.4138104
1.4136241
1.4134356
1.4132449
1.4130519
1.4128567
1.4126593
1.4124597
1.4122578
1.4120537
1.4118474
1.4116389
1.4114282
1.4112153
1.4110002
1.4107828
1.4105633
1.4103417
1.4101178
1.4098918
1.4096636
1.4094333
1.4092008
1.4089662
1.4087294
1.4084906
1.4082496
1.4080065
1.4077614
1.4075141
1.4072648
1.4070135
1.4067601
1.4065047
1.4062472
1.4059878
1.4057264
1.405463
1.4051976
1.4049303
1.404661
1.4043898
1.4041167
1.4038418
1.4035649
1.4032862
1.4030057
1.4027233
1.4024391
1.4021531
1.4018654
1.4015759
1.4012846
1.4009917
1.400697
1.4004007
1.4001026
1.399803
1.3995017
1.3991988
1.3988943
1.3985882
1.3982806
1.3979714
1.3976608
1.3973486
1.397035
1.3967199
1.3964034
1.3960855
1.3957662
1.3954456
1.3951236
1.3948002
1.3944756
1.3941497
1.3938226
1.3934942
1.3931646
1.3928338
1.3925018
1.3921688
1.3918345
1.3914992
1.3911628
1.3908254
1.3904869
1.3901474
1.389807
1.3894656
1.3891232
1.3887799
1.3884358
1.3880908
1.3877449
1.3873983
1.3870508
1.3867026
1.3863536
1.3860039
1.3856536
1.3853025
1.3849508
1.3845985
1.3842456
1.3838921
1.3835381
1.3831836
1.3828285
1.382473
1.3821171
1.3817607
1.381404
1.3810468
1.3806894
1.3803316
1.3799735
1.3796152
1.3792566
1.3788978
1.3785388
1.3781797
1.3778204
1.377461
1.3771015
1.376742
1.3763824
1.3760228
1.3756633
1.3753038
1.3749443
1.374585
1.3742258
1.3738668
1.3735079
1.3731492
1.3727908
1.3724326
1.3720747
1.3717172
1.37136
1.3710031
1.3706466
1.3702906
1.369935
1.3695799
1.3692253
1.3688712
1.3685177
1.3681648
1.3678125
1.3674608
1.3671098
1.3667595
1.3664099
1.3660611
1.3657131
1.3653658
1.3650194
1.3646739
1.3643292
1.3639855
1.3636427
1.3633008
1.36296
1.3626202
1.3622815
1.3619438
1.3616073
1.3612719
1.3609376
1.3606046
1.3602728
1.3599422
1.3596129
1.3592849
1.3589582
1.3586329
1.358309
1.3579865
1.3576654
1.3573458
1.3570277
1.3567111
1.3563961
1.3560826
1.3557708
1.3554605
1.3551519
1.354845
1.3545398
1.3542364
1.3539347
1.3536347
1.3533366
1.3530403
1.3527459
1.3524533
1.3521627
1.351874
1.3515872
1.3513024
1.3510197
1.3507389
1.3504602
1.3501836
1.349909
1.3496366
1.3493663
1.3490981
1.3488322
1.3485684
1.3483069
1.3480476
1.3477905
1.3475357
1.3472833
1.3470331
1.3467853
1.3465398
1.3462967
1.3460559
1.3458176
1.3455816
1.3453481
1.345117
1.3448884
1.3446623
1.3444386
1.3442174
1.3439987
1.3437826
1.3435689
1.3433578
1.3431492
1.3429432
1.3427397
1.3425388
1.3423405
1.3421447
1.3419515
1.3417609
1.3415728
1.3413874
1.3412046
1.3410243
1.3408466
1.3406716
1.3404991
1.3403292
1.3401619
1.3399971
1.339835
1.3396754
1.3395184
1.3393639
1.339212
1.3390627
1.3389159
1.3387716
1.3386298
1.3384905
1.3383538
1.3382195
1.3380877
1.3379583
1.3378314
1.3377069
1.3375849
1.3374652
1.3373479
1.3372329
1.3371203
1.3370101
1.3369021
1.3367964
1.336693
1.3365918
1.3364929
1.3363961
1.3363015
1.3362091
1.3361188
1.3360305
1.3359444
1.3358603
1.3357783
1.3356982
1.3356202
1.335544
1.3354698
1.3353975
1.335327
1.3352584
1.3351916
1.3351266
1.3350633
1.3350018
1.3349419
1.3348837
1.3348272
1.3347723
1.3347189
1.3346671
1.3346168
1.334568
1.3345206
1.3344747
1.3344302
1.3343871
1.3343453
1.3343048
1.3342656
1.3342277
1.3341909
1.3341554
1.3341211
1.3340879
1.3340558
1.3340248
1.3339949
1.333966
1.3339381
1.3339113
1.3338853
1.3338603
1.3338362
1.333813
1.3337906
1.3337691
1.3337483
1.3337284
1.3337092
1.3336907
1.333673
1.333656
1.3336396
1.3336239
1.3336088
1.3335943
1.3335804
1.3335671
1.3335544
1.3335421
1.3335304
1.3335192
1.3335085
1.3334982
1.3334883
1.3334789
1.33347
1.3334614
1.3334532
1.3334453
1.3334379
1.3334307
1.3334239
1.3334174
1.3334113
1.3334054
1.3333998
1.3333944
1.3333893
1.3333845
1.3333799
1.3333755
1.3333714
1.3333674
1.3333637
1.3333601
1.3333567
1.3333535
1.3333505
1.3333476
1.3333449
1.3333423
1.3333398
1.3333375
1.3333353
1.3333332
1.3333313
1.3333294
1.3333277
1.333326
1.3333244
1.333323
1.3333216
1.3333203
1.333319
1.3333179
1.3333168
1.3333157
1.3333148
1.3333139
1.333313
1.3333122
1.3333114
1.3333107
1.33331
1.3333094
1.3333088
1.3333083
1.3333078
1.3333073
1.3333068
1.3333064
1.333306
1.3333056
1.3333053
1.3333049
1.3333046
1.3333043
1.3333041
1.3333038
1.3333036
1.3333034
1.3333032
1.333303
1.3333028
1.3333027
1.3333025
1.3333024
1.3333022
1.3333021
1.333302
1.333302
1.3333019
1.3333018
1.3333018
1.3333017
1.3333017
1.3333016
1.3333016
1.3333015
1.3333014
1.3333014
1.3333014
1.3333013
1.3333012
1.3333011
1.333301
1.3333009
1.3333008
1.3333007
1.3333006
1.3333005
1.3333005
1.3333004
1.3333003
1.3333002
1.3333001
1.3333
1.3332999
1.3332998
1.3332997
1.3332996
1.3332995
1.3332994
1.3332993
1.3332992
1.3332991
1.333299
1.3332989
1.3332988
1.3332987
1.3332987
1.3332986
1.3332985
1.3332984
1.3332984
1.3332983
1.3332983
1.3332982
1.3332982
1.3332981
1.3332981
1.3332981
1.333298
1.333298
1.333298
1.3332979
1.3332979
1.3332978
1.3332978
1.3332977
1.3332976
1.3332976
1.3332975
1.3332975
1.3332974
1.3332973
1.3332972
1.3332972
1.3332971
1.333297
1.333297
1.3332969
1.3332968
1.3332967
1.3332967
1.3332966
1.3332966
1.3332965
1.3332964
1.3332964
1.3332963
1.3332962
1.3332962
1.3332961
1.3332961
1.333296
1.333296
1.3332959
1.3332959
1.3332958
1.3332958
1.3332958
1.3332957
1.3332957
1.3332956
1.3332956
1.3332955
1.3332955
1.3332954
1.3332954
1.3332953
1.3332953
1.3332952
1.3332952
1.3332952
1.3332951
1.3332951
1.3332951
1.333295
1.333295
1.333295
1.3332949
1.3332949
1.3332948
1.3332948
1.3332947
1.3332947
1.3332947
1.3332946
1.3332946
1.3332946
1.3332945
1.3332944
1.3332944
1.3332944
1.3332943
1.3332943
1.3332942
1.3332942
1.3332942
1.3332941
1.3332941
1.3332941
1.333294
1.333294
1.333294
1.3332939
1.3332939
1.3332938
1.3332938
1.3332937
1.3332936
1.3332936
1.3332935
1.3332935
1.3332935
1.3332934
1.3332934
1.3332933
1.3332933
1.3332933
1.3332933
1.3332933
1.3332932
1.3332932
1.3332932
1.3332931
1.3332931
1.3332931
1.3332931
1.333293
1.333293
1.333293
1.3332929
1.3332929
1.3332928
1.3332928
1.3332928
1.3332927
1.3332927
1.3332927
1.3332927
1.3332926
1.3332926
1.3332926
1.3332925
1.3332925
1.3332925
1.3332925
1.3332924
1.3332924
1.3332924
1.3332924
1.3332924
1.3332924
1.3332923
1.3332923
1.3332923
1.3332923
1.3332922
1.3332922
1.3332922
1.3332922
1.3332922
1.3332921
1.3332921
1.3332921
1.3332921
1.333292
1.333292
1.333292
1.333292
1.333292
1.333292
1.333292
1.3332919
1.3332919
1.3332919
1.3332919
1.3332919
1.3332919
1.3332919
1.3332918
1.3332918
1.3332918
1.3332918
1.3332917
1.3332917
1.3332917
1.3332917
1.3332917
1.3332917
1.3332917
1.3332916
1.3332916
1.3332916
1.3332916
1.3332916
1.3332916
1.3332916
1.3332916
1.3332915
1.3332915
1.3332915
1.3332915
1.3332915
1.3332915
1.3332915
1.3332915
1.3332915
1.3332915
1.3332915
1.3332915
1.3332914
1.3332914
1.3332914
1.3332914
1.3332914
1.3332914
1.3332914
1.3332913
1.3332913
1.3332913
1.3332913
1.3332913
1.3332913
1.3332913
1.3332913
1.3332913
1.3332913
1.3332913
1.3332912
1.3332912
1.3332912
1.3332912
1.3332912
1.3332912
1.3332913
1.3332913
1.3332913
1.3332913
1.3332913
1.3332913
1.3332913
1.3332913
1.3332913
1.3332913
1.3332913
1.3332913
1.3332913
1.3332913
1.3332913
1.3332913
1.3332913
1.3332913
1.3332913
1.3332913
1.3332913
1.3332913
1.3332913
1.3332913
1.3332913
1.3332913
1.3332913
1.3332913
1.3332913
1.3332913
1.3332913
1.3332913
1.3332913
1.3332913
1.3332913
1.3332913
1.3332913
1.3332913
1.3332913
1.3332913
1.3332913
1.3332913
1.3332913
1.3332913
1.3332913
1.3332913
1.3332913
1.3332913
1.3332913
1.3332913
1.3332913
1.3332913
1.3332913
1.3332913
1.3332913
1.3332913
1.3332913
1.3332913
1.3332913
1.3332913
1.3332913
1.3332913
1.3332913
1.3332913
1.3332913
1.3332913
1.3332913
1.3332913
1.3332912
1.3332912
1.3332913
1.3332913
1.3332913
1.3332913
1.3332913
1.3332913
1.3332913
1.3332913
1.3332913
1.3332913
1.3332913
1.3332913
1.3332913
1.3332913
1.3332913
1.3332912
1.3332912
1.3332912
1.3332912
1.3332912
1.3332912
1.3332912
1.3332912
1.3332912
1.3332912
1.3332912
1.3332912
1.3332912
1.3332912
1.3332912
1.3332912
1.3332912
1.3332912
1.3332912
1.3332912
1.3332912
1.3332912
1.3332912
1.3332912
1.3332912
1.3332912
1.3332912
1.3332912
1.3332912
1.3332912
1.3332912
1.3332911
1.3332911
1.3332911
1.3332911
1.3332911
1.3332911
1.3332911
1.3332911
1.3332911
1.3332911
1.3332911
1.3332911
1.3332911
1.3332911
1.3332911
1.3332911
1.3332911
1.3332911
1.3332911
1.3332911
1.3332911
1.3332911
1.3332911
1.3332911
1.3332911
1.3332911
1.3332911
1.3332911
1.3332911
1.3332911
1.3332911
1.3332911
1.3332911
1.3332911
1.3332911
1.3332911
1.3332911
1.3332911
1.3332911
1.3332911
1.3332911
1.3332911
1.333291
1.333291
1.333291
1.333291
1.333291
1.333291
1.333291
1.333291
1.333291
1.333291
1.333291
1.333291
1.333291
1.333291
1.333291
1.333291
1.333291
1.333291
1.333291
1.333291
1.333291
1.333291
1.333291
1.3332909
1.3332909
1.3332909
1.3332909
1.3332909
1.3332909
1.3332909
1.3332909
1.3332909
1.3332909
1.3332909
1.3332909
1.3332909
1.3332909
1.3332909
1.3332909
1.3332909
1.3332909
1.3332909
1.3332909
1.3332909
1.3332909
1.3332909
1.3332909
1.3332909
1.3332909
1.3332908
1.3332908
1.3332908
1.3332908
1.3332908
1.3332908
1.3332908
1.3332908
1.3332908
1.3332908
1.3332908
1.3332908
1.3332908
1.3332908
1.3332908
1.3332907
1.3332907
1.3332907
1.3332907
1.3332907
1.3332907
1.3332907
1.3332907
1.3332907
1.3332907
1.3332907
1.3332906
1.3332906
1.3332906
1.3332906
1.3332906
1.3332906
1.3332906
1.3332906
1.3332906
1.3332905
1.3332905
1.3332905
1.3332905
1.3332905
1.3332905
1.3332905
1.3332905
1.3332905
1.3332905
1.3332905
1.3332904
1.3332904
1.3332904
1.3332904
1.3332904
1.3332904
1.3332904
1.3332904
1.3332904
1.3332903
1.3332903
1.3332903
1.3332903
1.3332903
1.3332903
1.3332903
1.3332903
1.3332903
1.3332903
1.3332903
1.3332903
1.3332903
1.3332903
1.3332903
1.3332903
1.3332903
1.3332903
1.3332903
1.3332903
1.3332903
1.3332903
1.3332902
1.3332902
1.3332902
1.3332902
1.3332902
1.3332902
1.3332902
1.3332902
1.3332902
1.3332902
1.3332902
1.3332902
1.3332902
1.3332902
1.3332902
1.3332902
1.3332902
1.3332901
1.3332901
1.3332901
1.3332901
1.3332901
1.3332901
1.3332901
1.3332901
1.3332901
1.3332901
1.3332901
1.33329
1.33329
1.33329
1.33329
1.33329
1.33329
1.33329
1.33329
1.33329
1.33329
1.3332899
1.3332899
1.3332899
1.3332899
1.3332899
1.3332899
1.3332899
1.3332899
1.3332899
1.3332899
1.3332899
1.3332898
1.3332898
1.3332898
1.3332898
1.3332898
1.3332898
1.3332898
1.3332898
1.3332898
1.3332898
1.3332898
1.3332898
1.3332898
1.3332897
1.3332897
1.3332897
1.3332897
1.3332897
1.3332897
1.3332897
1.3332897
1.3332896
1.3332896
1.3332896
1.3332896
1.3332896
1.3332896
1.3332896
1.3332896
1.3332896
1.3332895
1.3332895
1.3332895
1.3332895
1.3332895
1.3332895
1.3332895
1.3332895
1.3332895
1.3332895
1.3332894
1.3332894
1.3332894
1.3332894
1.3332894
1.3332894
1.3332894
1.3332894
1.3332894
1.3332893
1.3332893
1.3332893
1.3332893
1.3332893
1.3332893
1.3332893
1.3332893
1.3332893
1.3332892
1.3332892
1.3332892
1.3332892
1.3332892
1.3332892
1.3332892
1.3332892
1.3332891
1.3332891
1.3332891
1.3332891
1.3332891
1.3332891
1.3332891
1.3332891
1.333289
1.333289
1.333289
1.333289
1.333289
1.333289
1.333289
1.333289
1.333289
1.3332889
1.3332889
1.3332889
1.3332889
1.3332889
1.3332889
1.3332889
1.3332889
1.3332888
1.3332888
1.3332888
1.3332888
1.3332888
1.3332888
1.3332888
1.3332888
1.3332887
1.3332887
1.3332887
1.3332887
1.3332887
1.3332887
1.3332887
1.3332887
1.3332886
1.3332886
1.3332886
1.3332886
1.3332886
1.3332886
1.3332886
1.3332885
1.3332885
1.3332885
1.3332885
1.3332885
1.3332885
1.3332884
1.3332884
1.3332884
1.3332884
1.3332884
1.3332884
1.3332884
1.3332884
1.3332883
1.3332883
1.3332883
1.3332883
1.3332883
1.3332883
1.3332883
1.3332882
1.3332882
1.3332882
1.3332882
1.3332882
1.3332882
1.3332882
1.3332881
1.3332881
1.3332881
1.3332881
1.3332881
1.3332881
1.3332881
1.333288
1.333288
1.333288
1.333288
1.333288
1.333288
1.3332879
1.3332879
1.3332879
1.3332879
1.3332879
1.3332879
1.3332879
1.3332878
1.3332878
1.3332878
1.3332878
1.3332878
1.3332878
1.3332877
1.3332877
1.3332877
1.3332877
1.3332877
1.3332877
1.3332876
1.3332876
1.3332876
1.3332876
1.3332876
1.3332875
1.3332875
1.3332875
1.3332875
1.3332875
1.3332874
1.3332874
1.3332874
1.3332874
1.3332874
1.3332874
1.3332874
1.3332873
1.3332873
1.3332873
1.3332873
1.3332873
1.3332873
1.3332872
1.3332872
1.3332872
1.3332872
1.3332872
1.3332872
1.3332871
1.3332871
1.3332871
1.3332871
1.3332871
1.3332871
1.3332871
1.333287
1.333287
1.333287
1.333287
1.3332869
1.3332869
1.3332869
1.3332869
1.3332869
1.3332869
1.3332869
1.3332868
1.3332868
1.3332868
1.3332868
1.3332868
1.3332868
1.3332868
1.3332867
1.3332867
1.3332867
1.3332867
1.3332867
1.3332866
1.3332866
1.3332866
1.3332866
1.3332866
1.3332866
1.3332865
1.3332865
1.3332865
1.3332865
1.3332865
1.3332865
1.3332864
1.3332864
1.3332864
1.3332864
1.3332863
1.3332863
1.3332863
1.3332863
1.3332863
1.3332863
1.3332862
1.3332862
1.3332862
1.3332862
1.3332862
1.3332861
1.3332861
1.3332861
1.3332861
1.3332861
1.333286
1.333286
1.333286
1.333286
1.3332859
1.3332859
1.3332859
1.3332859
1.3332858
1.3332858
1.3332858
1.3332858
1.3332858
1.3332857
1.3332857
1.3332857
1.3332857
1.3332856
1.3332856
1.3332856
1.3332856
1.3332855
1.3332855
1.3332855
1.3332855
1.3332854
1.3332854
1.3332854
1.3332854
1.3332854
1.3332853
1.3332853
1.3332853
1.3332853
1.3332852
1.3332852
1.3332852
1.3332851
1.3332851
1.3332851
1.3332851
1.3332851
1.333285
1.333285
1.333285
1.333285
1.3332849
1.3332849
1.3332849
1.3332849
1.3332848
1.3332848
1.3332848
1.3332847
1.3332847
1.3332847
1.3332847
1.3332847
1.3332846
1.3332846
1.3332846
1.3332846
1.3332845
1.3332845
1.3332845
1.3332845
1.3332844
1.3332844
1.3332844
1.3332844
1.3332844
1.3332843
1.3332843
1.3332843
1.3332843
1.3332842
1.3332842
1.3332842
1.3332841
1.3332841
1.3332841
1.3332841
1.333284
1.333284
1.333284
1.333284
1.3332839
1.3332839
1.3332839
1.3332839
1.3332838
1.3332838
1.3332838
1.3332838
1.3332837
1.3332837
1.3332837
1.3332837
1.3332836
1.3332836
1.3332836
1.3332835
1.3332835
1.3332835
1.3332835
1.3332834
1.3332834
1.3332834
1.3332834
1.3332833
1.3332833
1.3332833
1.3332832
1.3332832
1.3332832
1.3332832
1.3332831
1.3332831
1.3332831
1.333283
1.333283
1.333283
1.333283
1.3332829
1.3332829
1.3332829
1.3332828
1.3332828
1.3332828
1.3332827
1.3332827
1.3332827
1.3332826
1.3332826
1.3332826
1.3332825
1.3332825
1.3332825
1.3332825
1.3332824
1.3332824
1.3332824
1.3332823
1.3332823
1.3332823
1.3332822
1.3332822
1.3332822
1.3332822
1.3332821
1.3332821
1.3332821
1.333282
1.333282
1.333282
1.3332819
1.3332819
1.3332818
1.3332818
1.3332818
1.3332817
1.3332817
1.3332817
1.3332816
1.3332816
1.3332816
1.3332815
1.3332815
1.3332815
1.3332814
1.3332814
1.3332814
1.3332813
1.3332813
1.3332813
1.3332812
1.3332812
1.3332812
1.3332811
1.3332811
1.333281
1.333281
1.333281
1.3332809
1.3332809
1.3332809
1.3332808
1.3332808
1.3332808
1.3332807
1.3332807
1.3332806
1.3332806
1.3332806
1.3332805
1.3332805
1.3332805
1.3332804
1.3332804
1.3332804
1.3332803
1.3332803
1.3332802
1.3332802
1.3332802
1.3332801
1.3332801
1.33328
1.33328
1.33328
1.3332799
1.3332799
1.3332798
1.3332798
1.3332798
1.3332797
1.3332797
1.3332796
1.3332796
1.3332796
1.3332795
1.3332795
1.3332794
1.3332794
1.3332793
1.3332793
1.3332793
1.3332792
1.3332792
1.3332791
1.3332791
1.3332791
1.333279
1.333279
1.333279
1.3332789
1.3332789
1.3332788
1.3332788
1.3332787
1.3332787
1.3332786
1.3332786
1.3332785
1.3332785
1.3332785
1.3332784
1.3332784
1.3332783
1.3332783
1.3332782
1.3332782
1.3332782
1.3332781
1.3332781
1.333278
1.333278
1.3332779
1.3332779
1.3332778
1.3332778
1.3332777
1.3332777
1.3332777
1.3332776
1.3332776
1.3332775
1.3332775
1.3332774
1.3332774
1.3332773
1.3332773
1.3332772
1.3332772
1.3332771
1.3332771
1.333277
1.333277
1.3332769
1.3332769
1.3332769
1.3332768
1.3332768
1.3332767
1.3332767
1.3332766
1.3332766
1.3332765
1.3332764
1.3332764
1.3332763
1.3332763
1.3332762
1.3332762
1.3332761
1.3332761
1.333276
1.333276
1.3332759
1.3332759
1.3332758
1.3332758
1.3332757
1.3332757
1.3332756
1.3332755
1.3332755
1.3332754
1.3332754
1.3332753
1.3332753
1.3332752
1.3332752
1.3332751
1.3332751
1.333275
1.3332749
1.3332749
1.3332748
1.3332748
1.3332747
1.3332746
1.3332746
1.3332745
1.3332745
1.3332744
1.3332743
1.3332743
1.3332742
1.3332741
1.3332741
1.333274
1.333274
1.3332739
1.3332738
1.3332738
1.3332737
1.3332736
1.3332736
1.3332735
1.3332735
1.3332734
1.3332733
1.3332733
1.3332732
1.3332731
1.3332731
1.333273
1.3332729
1.3332728
1.3332728
1.3332727
1.3332726
1.3332726
1.3332725
1.3332724
1.3332724
1.3332723
1.3332722
1.3332721
1.3332721
1.333272
1.3332719
1.3332718
1.3332717
1.3332717
1.3332716
1.3332715
1.3332715
1.3332714
1.3332713
1.3332712
1.3332712
1.3332711
1.333271
1.3332709
1.3332709
1.3332708
1.3332707
1.3332706
1.3332705
1.3332705
1.3332704
1.3332703
1.3332702
1.3332701
1.33327
1.3332699
1.3332699
1.3332698
1.3332697
1.3332696
1.3332695
1.3332695
1.3332694
1.3332693
1.3332692
1.3332691
1.333269
1.333269
1.3332689
1.3332688
1.3332687
1.3332686
1.3332685
1.3332684
1.3332683
1.3332682
1.3332681
1.333268
1.333268
1.3332679
1.3332678
1.3332677
1.3332676
1.3332675
1.3332674
1.3332673
1.3332672
1.3332671
1.333267
1.3332669
1.3332668
1.3332667
1.3332666
1.3332665
1.3332664
1.3332663
1.3332662
1.3332661
1.333266
1.3332659
1.3332658
1.3332657
1.3332656
1.3332655
1.3332654
1.3332652
1.3332651
1.333265
1.3332649
1.3332648
1.3332647
1.3332646
1.3332644
1.3332643
1.3332642
1.3332641
1.333264
1.3332639
1.3332638
1.3332637
1.3332636
1.3332634
1.3332633
1.3332632
1.333263
1.3332629
1.3332628
1.3332626
1.3332625
1.3332624
1.3332623
1.3332621
1.333262
1.3332619
1.3332618
1.3332617
1.3332615
1.3332614
1.3332613
1.3332611
1.333261
1.3332608
1.3332607
1.3332606
1.3332604
1.3332603
1.3332601
1.33326
1.3332598
1.3332596
1.3332595
1.3332593
1.3332592
1.333259
1.3332589
1.3332588
1.3332586
1.3332585
1.3332583
1.3332582
1.3332581
1.3332579
1.3332577
1.3332576
1.3332574
1.3332573
1.3332571
1.3332569
1.3332568
1.3332566
1.3332564
1.3332562
1.3332561
1.3332559
1.3332557
1.3332555
1.3332553
1.3332551
1.3332549
1.3332548
1.3332546
1.3332544
1.3332542
1.333254
1.3332538
1.3332536
1.3332534
1.3332532
1.333253
1.3332528
1.3332525
1.3332523
1.3332521
1.3332519
1.3332517
1.3332515
1.3332513
1.3332511
1.3332509
1.3332506
1.3332504
1.3332502
1.33325
1.3332497
1.3332495
1.3332492
1.333249
1.3332487
1.3332485
1.3332483
1.333248
1.3332478
1.3332475
1.3332473
1.333247
1.3332467
1.3332465
1.3332462
1.3332459
1.3332457
1.3332454
1.3332451
1.3332448
1.3332445
1.3332442
1.3332439
1.3332436
1.3332433
1.333243
1.3332427
1.3332424
1.333242
1.3332417
1.3332414
1.3332411
1.3332407
1.3332404
1.33324
1.3332397
1.3332393
1.333239
1.3332386
1.3332382
1.3332378
1.3332375
1.3332371
1.3332367
1.3332363
1.3332359
1.3332355
1.333235
1.3332346
1.3332342
1.3332338
1.3332334
1.333233
1.3332325
1.3332321
1.3332316
1.3332311
1.3332306
1.3332301
1.3332296
1.3332291
1.3332286
1.333228
1.3332275
1.333227
1.3332265
1.333226
1.3332254
1.3332249
1.3332244
1.3332239
1.3332233
1.3332228
1.3332222
1.3332217
1.3332211
1.3332206
1.33322
1.3332194
1.3332189
1.3332184
1.3332179
1.3332174
1.333217
1.3332166
1.3332162
1.3332158
1.3332155
1.3332151
1.3332149
1.3332146
1.3332144
1.3332143
1.3332142
1.3332141
1.333214
1.333214
1.333214
1.3332141
1.3332141
1.3332143
1.3332145
1.3332147
1.3332149
1.3332151
1.3332152
1.3332153
1.3332154
1.3332155
1.3332155
1.3332155
1.3332155
1.3332154
1.3332152
1.3332147
1.333214
1.3332132
1.3332123
1.3332113
1.3332102
1.3332091
1.3332079
1.3332068
1.3332055
1.3332043
1.333203
1.3332017
1.3332003
1.3331989
1.3331975
1.3331962
1.3331949
1.3331938
1.3331928
1.3331919
1.3331911
1.3331905
1.3331899
1.3331894
1.333189
1.3331887
1.3331885
1.3331883
1.3331882
1.333188
1.3331877
1.3331873
1.3331863
1.3331839
1.3331783
1.3331642
1.3331285
1.3330382
1.3328097
1.3322317
1.3307815
1.3275377
1.3231789
1.3181205
1.3125927
1.306845
1.3011153
1.295609
1.2904872
1.2858613
1.2817943
1.2783066
1.2753844
1.2729889
1.2710655
1.2695512
1.2683815
1.2674943
1.2668333
1.2663494
1.2660013
1.2657554
1.2655849
1.2654692
1.2653924
1.2653431
1.2653126
1.2652949
1.2652857
1.2652819
1.2652811
1.2652815
1.2652838
1.265289
1.2652941
1.2652987
1.2653029
1.2653065
1.2653098
1.2653127
1.2653154
1.2653178
1.26532
1.2653221
1.265324
1.2653258
1.2653276
1.2653293
1.2653309
1.2653324
1.2653338
1.2653352
1.2653366
1.265338
1.2653393
1.2653407
1.2653421
1.2653436
1.2653451
1.2653468
1.2653485
1.2653504
1.2653523
1.2653543
1.2653564
1.2653586
1.2653608
1.265363
1.2653652
1.2653674
1.2653696
1.2653718
1.2653739
1.2653759
1.2653778
1.2653797
1.2653815
1.2653832
1.2653848
1.2653863
1.2653877
1.2653891
1.2653903
1.2653915
1.2653927
1.2653938
1.2653948
1.2653958
1.2653967
1.2653976
1.2653984
1.2653992
1.2654
1.2654008
1.2654015
1.2654022
1.2654029
1.2654036
1.2654042
1.2654049
1.2654055
1.2654061
1.2654067
1.2654072
1.2654078
1.2654084
1.2654089
1.2654095
1.26541
1.2654105
1.265411
1.2654115
1.2654119
1.2654124
1.2654129
1.2654133
1.2654138
1.2654142
1.2654147
1.2654151
1.2654156
1.265416
1.2654164
1.2654168
1.2654172
1.2654176
1.265418
1.2654184
1.2654188
1.2654191
1.2654195
1.2654198
1.2654202
1.2654206
1.2654209
1.2654213
1.2654216
1.2654219
1.2654223
1.2654226
1.2654229
1.2654232
1.2654235
1.2654238
1.2654241
1.2654244
1.2654247
1.265425
1.2654253
1.2654256
1.2654259
1.2654262
1.2654265
1.2654267
1.265427
1.2654273
1.2654275
1.2654278
1.265428
1.2654283
1.2654285
1.2654288
1.265429
1.2654293
1.2654295
1.2654298
1.26543
1.2654302
1.2654305
1.2654307
1.2654309
1.2654312
1.2654314
1.2654316
1.2654318
1.265432
1.2654323
1.2654325
1.2654327
1.2654329
1.2654331
1.2654333
1.2654335
1.2654337
1.2654339
1.2654341
1.2654343
1.2654345
1.2654347
1.2654349
1.265435
1.2654352
1.2654354
1.2654356
1.2654358
1.2654359
1.2654361
1.2654363
1.2654365
1.2654366
1.2654368
1.265437
1.2654371
1.2654373
1.2654375
1.2654376
1.2654378
1.265438
1.2654381
1.2654383
1.2654385
1.2654386
1.2654388
1.2654389
1.2654391
1.2654392
1.2654394
1.2654395
1.2654397
1.2654398
1.2654399
1.2654401
1.2654402
1.2654404
1.2654405
1.2654407
1.2654408
1.265441
1.2654411
1.2654412
1.2654414
1.2654415
1.2654416
1.2654417
1.2654419
1.265442
1.2654421
1.2654423
1.2654424
1.2654425
1.2654426
1.2654428
1.2654429
1.265443
1.2654431
1.2654433
1.2654434
1.2654435
1.2654436
1.2654437
1.2654439
1.265444
1.2654441
1.2654442
1.2654443
1.2654445
1.2654446
1.2654447
1.2654448
1.2654449
1.265445
1.2654451
1.2654452
1.2654453
1.2654454
1.2654455
1.2654456
1.2654457
1.2654458
1.265446
1.2654461
1.2654462
1.2654463
1.2654464
1.2654465
1.2654466
1.2654467
1.2654468
1.2654469
1.265447
1.2654471
1.2654472
1.2654472
1.2654473
1.2654474
1.2654475
1.2654476
1.2654477
1.2654478
1.2654479
1.265448
1.2654481
1.2654482
1.2654483
1.2654484
1.2654485
1.2654485
1.2654486
1.2654487
1.2654488
1.2654489
1.265449
1.265449
1.2654491
1.2654492
1.2654493
1.2654494
1.2654495
1.2654496
1.2654496
1.2654497
1.2654498
1.2654499
1.26545
1.2654501
1.2654501
1.2654502
1.2654503
1.2654504
1.2654505
1.2654505
1.2654506
1.2654507
1.2654508
1.2654508
1.2654509
1.265451
1.265451
1.2654511
1.2654512
1.2654513
1.2654513
1.2654514
1.2654515
1.2654516
1.2654516
1.2654517
1.2654518
1.2654519
1.2654519
1.265452
1.2654521
1.2654521
1.2654522
1.2654523
1.2654523
1.2654524
1.2654525