/*--------------------------------*- C++ -*----------------------------------*\
  =========                 |
  \\      /  F ield         | OpenFOAM: The Open Source CFD Toolbox
   \\    /   O peration     | Website:  https://openfoam.org
    \\  /    A nd           | Version:  7
     \\/     M anipulation  |
\*---------------------------------------------------------------------------*/
FoamFile
{
    version     2.0;
    format      ascii;
    class       volScalarField;
    location    "0.0008";
    object      T;
}
// * * * * * * * * * * * * * * * * * * * * * * * * * * * * * * * * * * * * * //

dimensions      [0 0 0 1 0 0 0];

internalField   nonuniform List<scalar> 
5000
(
293
293
293
293
293
293
293
293
293
293
293
293
293
293
293
293
293
293
293
293
293
293
293
293
293
293
293
293
293
293
293
293
293
293
293
293
293
293
293
293
293
293
293
293
293
293
293
293
293
293
293
293
293
293
293
293
293
293
293
293
293
293
293
293
293
293
293
293
293
293
293
293
293
293
293
293
293
293
293
293
293
293
293
293
293
293
293
293
293
293
293
293
293
293
293
293
293
293
293
293
293
293
293
293
293
293
293
293
293
293
293
293
293
293
293
293
293
293
293
293
293
293
293
293
293
293
293
293
293
293
293
293
293
293
293
293
293
293
293
293
293
293
293
293
293
293
293
293
293
293
293
293
293
293
293
293
293
293
293
293
293
293
293
293
293
293
293
293
293
293
293
293
293
293
293
293
293
293
293
293
293
293
293
293
293
293
293
293
293
293
293
293
293
293
293
293
293
293
293
293
293
293
293
293
293
293
293
293
293
293
293
293
293
293
293
293
293
293
293
293
293
293
293
293
293
293
293
293
293
293
293
293
293
293
293
293
293
293
293
293
293
293
293
293
293
293
293
293
293
293
293
293
293
293
293
293
293
293
293
293
293
293
293
293
293
293
293
293
293
293
293
293
293
293
293
293
293
293
293
293
293
293
293
293
293
293
293
293
293
293
293
293
293
293
293
293
293
293
293
293
293
293
293
293
293
293
293
293
293
293
293
293
293
293
293
293
293
293
293
293
293
293
293
293
293
293
293
293
293
293
293
293
293
293
293
293
293
293
293
293
293
293
293
293
293
293
293
293
293
293
293
293
293
293
293
293
293
293
293
293
293
293
293
293
293
293
293
293
293
293
293
293
293
293
293
293
293
293
293
293
293
293
293
293
293
293
293
293
293
293
293
293
293
293
293
293
293
293
293
293
293
293
293
293
293
293
293
293
293
293
293
293
293
293
293
293
293
293
293
293
293
293
293
293
293
293
293
293
293
293
293
293
293
293
293
293
293
293
293
293
293
293
293
293
293
293
293
293
293
293
293
293
293
293
293
293
293
293
293
293
293
293
293
293
293
293
293
293
293
293
293
293
293
293
293
293
293
293
293
293
293
293
293
293
293
293
293
293
293
293
293
293
293
293
293
293
293
293
293
293
293
293
293
293
293
293
293
293
293
293
293
293
293
293
293
293
293
293
293
293
293
293
293
293
293
293
293
293
293
293
293
293
293
293
293
293
293
293
293
293
293
293
293
293
293
293
293
293
293
293
293
293
293
293
293
293
293
293
293
293
293
293
293
293
293
293
293
293
293
293
293
293
293
293
293
293
293
293
293
293
293
293
293
293
293
293
293
293
293
293
293
293
293
293
293
293
293
293
293
293
293
293
293
293
293
293
293
293
293
293
293
293
293
293
293
293
293
293
293
293
293
293
293
293
293
293
293
293
293
293
293
293
293
293
293
293
293
293
293
293
293
293
293
293
293
293
293
293
293
293
293
293
293
293
293
293
293
293
293
293
293
293
293
293
293
293
293
293
293
293
293
293
293
293
293
293
293
293
293
293
293
293
293
293
293
293
293
293
293
293
293
293
293
293
293
293
293
293
293
293
293
293
293
293
293
293
293
293
293
293
293
293
293
293
293
293
293
293
293
293
293
293
293
293
293
293
293
293
293
293
293
293
293
293
293
293
293
293
293
293
293
293
293
293
293
293
293
293
293
293
293
293
293
293
293
293
293
293
293
293
293
293
293
293
293
293
293
293
293
293
293
293
293
293
293
293
293
293
293
293
293
293
293
293
293
293
293
293
293
293
293
293
293
293
293
293
293
293
293
293
293
293
293
293
293
293
293
293
293
293
293
293
293
293
293
293
293
293
293
293
293
293
293
293
293
293
293
293
293
293
293
293
293
293
293
293
293
292.99999
292.99999
292.99999
292.99999
292.99999
292.99999
292.99999
292.99999
292.99999
292.99999
292.99999
292.99999
292.99999
292.99999
292.99998
292.99998
292.99998
292.99998
292.99998
292.99998
292.99998
292.99998
292.99997
292.99997
292.99997
292.99997
292.99996
292.99996
292.99996
292.99996
292.99995
292.99995
292.99995
292.99994
292.99994
292.99993
292.99993
292.99992
292.99992
292.99991
292.99991
292.9999
292.99989
292.99989
292.99988
292.99987
292.99986
292.99985
292.99984
292.99983
292.99982
292.99981
292.9998
292.99978
292.99977
292.99975
292.99974
292.99972
292.9997
292.99968
292.99966
292.99964
292.99961
292.99959
292.99956
292.99954
292.99951
292.99948
292.99944
292.99941
292.99937
292.99933
292.99929
292.99925
292.9992
292.99915
292.9991
292.99904
292.99898
292.99892
292.99886
292.99879
292.99872
292.99864
292.99856
292.99847
292.99838
292.99829
292.99819
292.99808
292.99797
292.99786
292.99773
292.9976
292.99747
292.99732
292.99717
292.99701
292.99685
292.99667
292.99649
292.99629
292.99609
292.99587
292.99565
292.99541
292.99516
292.9949
292.99463
292.99434
292.99404
292.99372
292.99339
292.99304
292.99268
292.9923
292.9919
292.99149
292.99105
292.99059
292.99011
292.98961
292.98909
292.98855
292.98797
292.98738
292.98675
292.9861
292.98542
292.98472
292.98398
292.9832
292.9824
292.98156
292.98069
292.97977
292.97883
292.97784
292.97681
292.97573
292.97462
292.97346
292.97225
292.97099
292.96969
292.96833
292.96692
292.96545
292.96393
292.96235
292.96071
292.95901
292.95724
292.95541
292.9535
292.95153
292.94949
292.94737
292.94518
292.94291
292.94056
292.93813
292.93561
292.933
292.93031
292.92752
292.92464
292.92166
292.91858
292.9154
292.91212
292.90873
292.90523
292.90162
292.89789
292.89405
292.89009
292.88601
292.8818
292.87746
292.87299
292.86839
292.86366
292.85878
292.85376
292.8486
292.84329
292.83783
292.83222
292.82645
292.82052
292.81444
292.80818
292.80176
292.79517
292.78841
292.78147
292.77436
292.76706
292.75958
292.75191
292.74405
292.736
292.72775
292.71931
292.71067
292.70182
292.69277
292.6835
292.67403
292.66435
292.65445
292.64433
292.63399
292.62343
292.61264
292.60162
292.59038
292.5789
292.56719
292.55524
292.54305
292.53063
292.51796
292.50505
292.49189
292.47848
292.46483
292.45092
292.43676
292.42235
292.40768
292.39275
292.37757
292.36212
292.34642
292.33045
292.31422
292.29773
292.28097
292.26395
292.24666
292.2291
292.21128
292.19319
292.17483
292.1562
292.1373
292.11813
292.09869
292.07899
292.05901
292.03876
292.01825
291.99746
291.9764
291.95508
291.93349
291.91163
291.8895
291.8671
291.84444
291.82152
291.79833
291.77487
291.75116
291.72718
291.70294
291.67844
291.65369
291.62868
291.60341
291.57789
291.55212
291.52609
291.49982
291.4733
291.44654
291.41953
291.39228
291.36479
291.33706
291.3091
291.2809
291.25247
291.22381
291.19493
291.16582
291.13648
291.10693
291.07716
291.04718
291.01698
290.98657
290.95596
290.92514
290.89412
290.8629
290.83148
290.79988
290.76808
290.73609
290.70392
290.67157
290.63904
290.60633
290.57346
290.54041
290.5072
290.47383
290.44029
290.40661
290.37277
290.33878
290.30464
290.27036
290.23595
290.20139
290.16671
290.1319
290.09696
290.0619
290.02673
289.99144
289.95604
289.92054
289.88493
289.84922
289.81342
289.77753
289.74155
289.70548
289.66934
289.63312
289.59683
289.56047
289.52405
289.48756
289.45102
289.41443
289.37779
289.3411
289.30438
289.26762
289.23082
289.194
289.15716
289.1203
289.08342
289.04653
289.00963
288.97273
288.93583
288.89894
288.86206
288.82519
288.78834
288.75151
288.71471
288.67794
288.64121
288.60452
288.56787
288.53127
288.49473
288.45824
288.42181
288.38545
288.34917
288.31295
288.27682
288.24077
288.20481
288.16894
288.13317
288.0975
288.06194
288.02648
287.99115
287.95593
287.92083
287.88587
287.85104
287.81634
287.78179
287.74738
287.71312
287.67902
287.64507
287.61129
287.57768
287.54424
287.51098
287.47789
287.44499
287.41229
287.37977
287.34745
287.31533
287.28342
287.25172
287.22024
287.18897
287.15792
287.1271
287.09651
287.06615
287.03603
287.00615
286.97652
286.94713
286.918
286.88912
286.8605
286.83214
286.80405
286.77623
286.74868
286.72141
286.69441
286.66769
286.64126
286.61512
286.58926
286.5637
286.53843
286.51346
286.48879
286.46442
286.44036
286.4166
286.39315
286.37
286.34717
286.32465
286.30245
286.28056
286.25899
286.23773
286.21679
286.19618
286.17588
286.15591
286.13625
286.11692
286.09791
286.07923
286.06086
286.04282
286.02509
286.00769
285.99061
285.97385
285.95741
285.94129
285.92548
285.90999
285.89481
285.87995
285.86539
285.85115
285.83721
285.82358
285.81025
285.79723
285.7845
285.77207
285.75993
285.74808
285.73652
285.72525
285.71425
285.70354
285.6931
285.68294
285.67304
285.66341
285.65404
285.64494
285.63608
285.62748
285.61912
285.61101
285.60313
285.59549
285.58808
285.5809
285.57394
285.56721
285.56068
285.55437
285.54826
285.54235
285.53664
285.53113
285.5258
285.52066
285.5157
285.51091
285.5063
285.50185
285.49757
285.49344
285.48947
285.48566
285.48199
285.47846
285.47507
285.47181
285.46869
285.46569
285.46282
285.46006
285.45742
285.45489
285.45247
285.45016
285.44794
285.44582
285.4438
285.44187
285.44003
285.43827
285.43659
285.43499
285.43346
285.43201
285.43063
285.42932
285.42807
285.42688
285.42575
285.42468
285.42366
285.4227
285.42178
285.42091
285.42009
285.41932
285.41858
285.41788
285.41723
285.4166
285.41602
285.41546
285.41494
285.41445
285.41398
285.41354
285.41313
285.41274
285.41238
285.41204
285.41171
285.41141
285.41113
285.41086
285.41061
285.41038
285.41016
285.40996
285.40976
285.40958
285.40942
285.40926
285.40912
285.40898
285.40885
285.40874
285.40863
285.40852
285.40843
285.40834
285.40826
285.40819
285.40811
285.40805
285.40799
285.40793
285.40788
285.40784
285.40779
285.40775
285.40771
285.40768
285.40765
285.40762
285.40759
285.40757
285.40755
285.40753
285.40751
285.40749
285.40748
285.40747
285.40745
285.40744
285.40744
285.40743
285.40742
285.40742
285.40741
285.40741
285.40741
285.4074
285.4074
285.4074
285.4074
285.4074
285.40739
285.40739
285.40738
285.40738
285.40737
285.40736
285.40736
285.40736
285.40735
285.40734
285.40734
285.40733
285.40732
285.40731
285.40731
285.4073
285.4073
285.40729
285.40728
285.40727
285.40727
285.40726
285.40726
285.40725
285.40725
285.40724
285.40723
285.40723
285.40723
285.40722
285.40721
285.40721
285.4072
285.4072
285.4072
285.40719
285.40719
285.40719
285.40719
285.40719
285.40719
285.40719
285.40718
285.40718
285.40718
285.40718
285.40718
285.40718
285.40717
285.40717
285.40717
285.40717
285.40716
285.40716
285.40716
285.40716
285.40715
285.40715
285.40715
285.40714
285.40714
285.40714
285.40714
285.40713
285.40713
285.40713
285.40712
285.40712
285.40712
285.40712
285.40712
285.40712
285.40712
285.40712
285.40712
285.40712
285.40711
285.40711
285.40712
285.40711
285.40711
285.4071
285.4071
285.4071
285.40709
285.40709
285.4071
285.40709
285.40709
285.40708
285.40708
285.40708
285.40708
285.40708
285.40707
285.40707
285.40707
285.40707
285.40707
285.40707
285.40707
285.40707
285.40707
285.40708
285.40708
285.40708
285.40708
285.40708
285.40708
285.40708
285.40708
285.40708
285.40708
285.40708
285.40708
285.40707
285.40707
285.40706
285.40706
285.40705
285.40705
285.40705
285.40706
285.40706
285.40706
285.40706
285.40705
285.40706
285.40706
285.40706
285.40706
285.40706
285.40706
285.40706
285.40707
285.40707
285.40707
285.40707
285.40707
285.40707
285.40707
285.40707
285.40707
285.40707
285.40708
285.40708
285.40707
285.40707
285.40707
285.40707
285.40708
285.40708
285.40708
285.40709
285.40709
285.40709
285.40709
285.40709
285.4071
285.4071
285.4071
285.4071
285.4071
285.4071
285.4071
285.4071
285.40711
285.40711
285.40711
285.40711
285.40711
285.40711
285.40712
285.40712
285.40712
285.40712
285.40712
285.40712
285.40712
285.40712
285.40712
285.40713
285.40713
285.40713
285.40714
285.40714
285.40714
285.40715
285.40715
285.40715
285.40715
285.40716
285.40716
285.40716
285.40716
285.40717
285.40718
285.40718
285.40719
285.40719
285.40719
285.40719
285.4072
285.4072
285.40721
285.40721
285.40721
285.40722
285.40722
285.40722
285.40722
285.40722
285.40723
285.40723
285.40724
285.40724
285.40724
285.40725
285.40725
285.40725
285.40725
285.40726
285.40726
285.40727
285.40727
285.40727
285.40728
285.40728
285.40728
285.40729
285.40729
285.40729
285.4073
285.4073
285.40731
285.40731
285.40731
285.40732
285.40732
285.40732
285.40733
285.40733
285.40734
285.40734
285.40734
285.40735
285.40735
285.40736
285.40736
285.40736
285.40737
285.40737
285.40738
285.40738
285.40739
285.40739
285.4074
285.4074
285.40741
285.40741
285.40742
285.40742
285.40742
285.40743
285.40743
285.40744
285.40744
285.40745
285.40745
285.40746
285.40746
285.40746
285.40747
285.40747
285.40748
285.40749
285.40749
285.40749
285.4075
285.4075
285.40751
285.40751
285.40752
285.40753
285.40753
285.40753
285.40754
285.40754
285.40754
285.40754
285.40755
285.40756
285.40756
285.40757
285.40757
285.40757
285.40758
285.40759
285.40759
285.4076
285.40761
285.40761
285.40761
285.40761
285.40762
285.40762
285.40763
285.40763
285.40764
285.40764
285.40765
285.40765
285.40766
285.40766
285.40767
285.40767
285.40768
285.40768
285.40769
285.40769
285.40769
285.4077
285.4077
285.40771
285.40772
285.40772
285.40773
285.40773
285.40773
285.40774
285.40774
285.40775
285.40775
285.40776
285.40777
285.40777
285.40777
285.40778
285.40778
285.40779
285.40779
285.4078
285.4078
285.4078
285.40781
285.40781
285.40782
285.40782
285.40783
285.40783
285.40784
285.40784
285.40785
285.40785
285.40785
285.40786
285.40786
285.40787
285.40788
285.40788
285.40789
285.40789
285.40789
285.4079
285.4079
285.40791
285.40791
285.40792
285.40792
285.40792
285.40793
285.40793
285.40793
285.40794
285.40794
285.40795
285.40795
285.40796
285.40796
285.40797
285.40797
285.40798
285.40798
285.40799
285.40799
285.408
285.408
285.408
285.408
285.40801
285.40802
285.40802
285.40803
285.40803
285.40804
285.40805
285.40805
285.40806
285.40807
285.40807
285.40808
285.40808
285.40808
285.40808
285.40809
285.40809
285.4081
285.40811
285.40811
285.40812
285.40812
285.40812
285.40813
285.40813
285.40814
285.40815
285.40815
285.40816
285.40816
285.40817
285.40817
285.40818
285.40818
285.40819
285.40819
285.4082
285.4082
285.40821
285.40822
285.40823
285.40823
285.40823
285.40824
285.40824
285.40825
285.40825
285.40826
285.40826
285.40827
285.40827
285.40828
285.40828
285.40829
285.40829
285.4083
285.40831
285.40831
285.40832
285.40832
285.40833
285.40833
285.40834
285.40834
285.40835
285.40836
285.40836
285.40837
285.40837
285.40837
285.40838
285.40838
285.40839
285.4084
285.4084
285.40841
285.40842
285.40842
285.40843
285.40844
285.40844
285.40845
285.40845
285.40846
285.40847
285.40847
285.40847
285.40848
285.40848
285.40849
285.4085
285.4085
285.40851
285.40852
285.40852
285.40853
285.40854
285.40854
285.40855
285.40855
285.40856
285.40856
285.40857
285.40858
285.40858
285.40859
285.4086
285.4086
285.40861
285.40862
285.40862
285.40863
285.40864
285.40865
285.40865
285.40865
285.40866
285.40866
285.40867
285.40867
285.40868
285.40869
285.40869
285.4087
285.40871
285.40871
285.40872
285.40872
285.40873
285.40873
285.40874
285.40875
285.40875
285.40876
285.40877
285.40878
285.40879
285.40879
285.4088
285.4088
285.40881
285.40881
285.40882
285.40883
285.40883
285.40884
285.40885
285.40885
285.40886
285.40886
285.40887
285.40888
285.40888
285.40889
285.4089
285.4089
285.40891
285.40892
285.40893
285.40893
285.40894
285.40895
285.40895
285.40896
285.40897
285.40897
285.40898
285.40898
285.40899
285.409
285.40901
285.40901
285.40902
285.40903
285.40904
285.40904
285.40905
285.40905
285.40906
285.40907
285.40908
285.40908
285.40909
285.4091
285.40911
285.40912
285.40912
285.40913
285.40914
285.40915
285.40915
285.40916
285.40917
285.40918
285.40918
285.40919
285.4092
285.4092
285.40921
285.40922
285.40923
285.40923
285.40924
285.40925
285.40925
285.40926
285.40927
285.40928
285.40928
285.40929
285.4093
285.40931
285.40932
285.40932
285.40933
285.40934
285.40935
285.40936
285.40937
285.40938
285.40939
285.40939
285.4094
285.40941
285.40941
285.40942
285.40943
285.40943
285.40944
285.40945
285.40946
285.40947
285.40948
285.40949
285.40949
285.4095
285.40951
285.40952
285.40953
285.40954
285.40955
285.40955
285.40956
285.40957
285.40958
285.40959
285.4096
285.4096
285.40961
285.40962
285.40963
285.40964
285.40965
285.40966
285.40966
285.40967
285.40968
285.40968
285.40969
285.4097
285.40971
285.40972
285.40973
285.40974
285.40975
285.40975
285.40976
285.40977
285.40978
285.40979
285.4098
285.40981
285.40982
285.40983
285.40984
285.40985
285.40986
285.40986
285.40987
285.40988
285.40989
285.4099
285.40991
285.40992
285.40993
285.40994
285.40995
285.40996
285.40996
285.40997
285.40998
285.40999
285.41
285.41001
285.41002
285.41003
285.41004
285.41005
285.41006
285.41007
285.41008
285.41009
285.4101
285.41011
285.41012
285.41013
285.41014
285.41015
285.41016
285.41017
285.41018
285.41019
285.4102
285.41021
285.41022
285.41023
285.41024
285.41026
285.41027
285.41028
285.41029
285.4103
285.41031
285.41032
285.41033
285.41034
285.41035
285.41036
285.41038
285.41039
285.4104
285.41041
285.41042
285.41043
285.41044
285.41045
285.41046
285.41047
285.41048
285.41049
285.4105
285.41051
285.41053
285.41054
285.41055
285.41057
285.41058
285.41059
285.4106
285.41061
285.41062
285.41064
285.41065
285.41066
285.41067
285.41068
285.41069
285.4107
285.41072
285.41073
285.41074
285.41076
285.41077
285.41078
285.4108
285.41081
285.41082
285.41083
285.41084
285.41085
285.41087
285.41088
285.41089
285.41091
285.41092
285.41093
285.41095
285.41096
285.41097
285.41099
285.411
285.41101
285.41103
285.41104
285.41105
285.41107
285.41108
285.4111
285.41111
285.41112
285.41114
285.41115
285.41116
285.41118
285.41119
285.41121
285.41122
285.41123
285.41125
285.41126
285.41127
285.41129
285.4113
285.41132
285.41133
285.41135
285.41137
285.41138
285.4114
285.41141
285.41142
285.41144
285.41145
285.41147
285.41149
285.4115
285.41152
285.41154
285.41155
285.41157
285.41159
285.41161
285.41162
285.41164
285.41165
285.41167
285.41168
285.4117
285.41171
285.41173
285.41174
285.41176
285.41177
285.41179
285.41181
285.41183
285.41184
285.41186
285.41188
285.4119
285.41192
285.41194
285.41196
285.41198
285.41199
285.41201
285.41203
285.41204
285.41206
285.41208
285.41209
285.41211
285.41213
285.41215
285.41217
285.41219
285.41221
285.41222
285.41224
285.41226
285.41228
285.4123
285.41232
285.41234
285.41236
285.41239
285.41241
285.41242
285.41244
285.41246
285.41248
285.4125
285.41252
285.41254
285.41257
285.41259
285.41261
285.41263
285.41266
285.41268
285.4127
285.41272
285.41274
285.41276
285.41278
285.41281
285.41282
285.41285
285.41287
285.41289
285.41291
285.41294
285.41296
285.41298
285.413
285.41303
285.41305
285.41308
285.41311
285.41313
285.41316
285.41318
285.4132
285.41323
285.41325
285.41327
285.4133
285.41332
285.41335
285.41337
285.4134
285.41343
285.41345
285.41348
285.41351
285.41355
285.41357
285.41361
285.41363
285.41366
285.41368
285.41371
285.41373
285.41376
285.41378
285.41381
285.41383
285.41387
285.4139
285.41393
285.41396
285.414
285.41402
285.41405
285.41408
285.41411
285.41415
285.41418
285.41421
285.41425
285.41429
285.41432
285.41435
285.41438
285.41441
285.41444
285.41447
285.4145
285.41453
285.41456
285.41459
285.41462
285.41466
285.41469
285.41473
285.41477
285.41481
285.41484
285.41488
285.41491
285.41495
285.41499
285.41503
285.41507
285.41511
285.41515
285.4152
285.41524
285.41528
285.41532
285.41536
285.4154
285.41544
285.41548
285.41553
285.41557
285.41562
285.41566
285.41571
285.41575
285.4158
285.41584
285.41588
285.41593
285.41597
285.41602
285.41606
285.41611
285.41616
285.41621
285.41626
285.41631
285.41636
285.41641
285.41646
285.41652
285.41657
285.41662
285.41668
285.41673
285.41679
285.41684
285.41689
285.41695
285.417
285.41706
285.41711
285.41717
285.41723
285.41729
285.41736
285.41742
285.41748
285.41755
285.41761
285.41768
285.41774
285.41781
285.41788
285.41795
285.41802
285.41808
285.41815
285.41822
285.41829
285.41836
285.41844
285.41852
285.41859
285.41868
285.41876
285.41884
285.41892
285.419
285.41908
285.41916
285.41925
285.41934
285.41943
285.41952
285.41961
285.4197
285.41979
285.41988
285.41997
285.42006
285.42015
285.42025
285.42036
285.42046
285.42057
285.42068
285.4208
285.42091
285.42102
285.42114
285.42125
285.42136
285.42147
285.42158
285.4217
285.42181
285.42192
285.42204
285.42215
285.42227
285.42238
285.4225
285.42262
285.42274
285.42287
285.42298
285.4231
285.42321
285.42331
285.42341
285.4235
285.42358
285.42366
285.42373
285.4238
285.42386
285.42391
285.42396
285.42399
285.42402
285.42403
285.42404
285.42404
285.42404
285.42404
285.42402
285.42398
285.42394
285.42389
285.42384
285.42379
285.42375
285.42372
285.4237
285.42369
285.42368
285.42368
285.42368
285.42369
285.42372
285.42381
285.42396
285.42413
285.42433
285.42456
285.4248
285.42506
285.42532
285.42559
285.42585
285.42612
285.42639
285.42666
285.42695
285.42725
285.42754
285.42784
285.42813
285.4284
285.42865
285.42885
285.42902
285.42915
285.42925
285.42934
285.42942
285.42949
285.42955
285.4296
285.42963
285.42966
285.42968
285.42973
285.42982
285.43006
285.43062
285.43203
285.43564
285.44486
285.4685
285.52905
285.6841
286.07754
286.97037
288.16581
289.52475
290.97188
292.43116
293.83565
295.1331
296.28831
297.2829
298.11311
298.78645
299.31804
299.72719
300.03458
300.26024
300.42225
300.53604
300.61425
300.66681
300.70131
300.72334
300.73695
300.74498
300.74937
300.75147
300.75218
300.75222
300.75192
300.75076
300.74909
300.74756
300.74617
300.74493
300.74383
300.74287
300.74202
300.74129
300.74064
300.74006
300.73953
300.73904
300.73858
300.73814
300.73772
300.73731
300.73692
300.73654
300.73618
300.73584
300.73551
300.73519
300.73487
300.73456
300.73425
300.73393
300.73359
300.73323
300.73285
300.73244
300.73201
300.73154
300.73106
300.73055
300.73003
300.7295
300.72896
300.72843
300.72789
300.72736
300.72684
300.72634
300.72585
300.72537
300.72492
300.7245
300.72409
300.72371
300.72336
300.72302
300.72271
300.72241
300.72213
300.72186
300.72161
300.72137
300.72114
300.72092
300.72071
300.72051
300.72033
300.72014
300.71996
300.71979
300.71962
300.71946
300.7193
300.71915
300.719
300.71886
300.71871
300.71858
300.71844
300.71831
300.71817
300.71804
300.71791
300.71779
300.71767
300.71755
300.71743
300.71732
300.71721
300.71711
300.717
300.71689
300.71678
300.71668
300.71657
300.71647
300.71637
300.71627
300.71617
300.71607
300.71598
300.71588
300.71579
300.71571
300.71562
300.71553
300.71545
300.71537
300.71528
300.7152
300.71511
300.71503
300.71495
300.71487
300.71479
300.71472
300.71464
300.71457
300.7145
300.71443
300.71436
300.71429
300.71422
300.71415
300.71407
300.71401
300.71394
300.71388
300.71381
300.71375
300.71368
300.71362
300.71356
300.7135
300.71344
300.71338
300.71332
300.71326
300.71321
300.71315
300.71309
300.71304
300.71298
300.71292
300.71287
300.71281
300.71276
300.71271
300.71266
300.71261
300.71255
300.7125
300.71245
300.7124
300.71236
300.71231
300.71226
300.71221
300.71217
300.71212
300.71207
300.71202
300.71198
300.71193
300.71189
300.71184
300.7118
300.71175
300.71171
300.71167
300.71163
300.71158
300.71154
300.7115
300.71146
300.71142
300.71138
300.71134
300.7113
300.71126
300.71122
300.71118
300.71114
300.7111
300.71106
300.71103
300.71099
300.71095
300.71091
300.71088
300.71084
300.71081
300.71077
300.71074
300.7107
300.71067
300.71064
300.7106
300.71057
300.71053
300.7105
300.71046
300.71043
300.71039
300.71036
300.71033
300.7103
300.71027
300.71024
300.71021
300.71018
300.71015
300.71012
300.71008
300.71005
300.71002
300.70999
300.70996
300.70994
300.70991
300.70988
300.70985
300.70982
300.70979
300.70976
300.70973
300.7097
300.70967
300.70964
300.70961
300.70959
300.70956
300.70953
300.70951
300.70948
300.70946
300.70943
300.70941
300.70938
300.70936
300.70934
300.70931
300.70929
300.70926
300.70923
300.7092
300.70918
300.70915
300.70913
300.70911
300.70908
300.70906
300.70904
300.70901
300.70899
300.70896
300.70894
300.70892
300.7089
300.70888
300.70885
300.70883
300.70881
300.70879
300.70877
300.70874
300.70872
300.7087
300.70867
300.70865
300.70863
300.70861
300.70859
300.70857
300.70855
300.70853
300.70851
300.70849
300.70847
300.70845
300.70843
300.70841
300.70839
300.70837
300.70835
300.70833
300.70831
300.70829
300.70827
300.70825
300.70823
300.70821
300.70819
300.70817
300.70815
300.70813
300.70811
300.70809
300.70808
300.70806
300.70804
300.70803
300.70801
300.70799
300.70798
300.70796
300.70794
300.70792
300.7079
300.70788
300.70787
300.70785
300.70783
300.70781
300.7078
300.70778
300.70776
300.70775
300.70773
300.70772
300.7077
300.70768
300.70767
300.70765
300.70763
300.70761
300.7076
300.70758
300.70756
300.70755
300.70753
300.70751
300.7075
300.70748
300.70747
300.70745
300.70744
300.70742
300.70741
300.70739
300.70738
300.70736
300.70735
300.70733
300.70732
300.7073
300.70728
300.70726
300.70725
300.70724
300.70722
300.70721
300.7072
300.70719
300.70718
300.70716
300.70715
300.70713
300.70712
300.7071
300.70709
300.70707
300.70706
300.70704
300.70703
300.70701
300.707
300.70698
300.70697
300.70696
300.70695
300.70694
300.70693
300.70691
300.7069
300.70689
300.70688
300.70686
300.70685
300.70684
300.70682
300.70681
300.70679
300.70678
300.70676
300.70675
300.70674
300.70673
300.70672
300.70671
300.7067
300.70669
300.70667
300.70666
300.70665
300.70663
300.70662
300.70661
300.7066
300.70659
300.70658
300.70656
300.70655
300.70654
300.70653
300.70652
300.7065
300.70649
300.70648
300.70647
300.70645
300.70644
300.70643
300.70642
300.70641
300.7064
300.70639
300.70638
300.70637
300.70636
300.70635
300.70634
300.70632
300.70631
300.7063
300.70629
300.70628
300.70627
300.70626
300.70625
300.70624
300.70622
300.70621
300.7062
300.70619
300.70618
300.70617
300.70616
300.70615
300.70614
300.70614
300.70612
300.70611
300.7061
300.70609
300.70608
300.70607
300.70606
300.70605
300.70604
300.70603
300.70602
300.70601
300.706
300.70599
300.70598
300.70597
300.70596
300.70595
300.70594
300.70594
300.70593
300.70592
300.70591
300.7059
300.70589
300.70588
300.70587
300.70586
300.70585
300.70584
300.70583
300.70582
300.70581
300.7058
300.70579
300.70578
300.70577
300.70576
300.70575
300.70574
300.70574
300.70573
300.70572
300.70571
300.70571
300.7057
300.70569
300.70568
300.70567
300.70566
300.70565
300.70565
300.70564
300.70563
300.70562
300.70561
300.7056
300.70559
300.70558
300.70557
300.70556
300.70555
300.70555
300.70554
300.70553
300.70552
300.70551
300.70551
300.7055
300.70549
300.70548
300.70547
300.70546
300.70545
300.70544
300.70543
300.70542
300.70542
300.70541
300.70541
300.7054
300.70539
300.70538
300.70537
300.70536
300.70535
300.70534
300.70534
300.70533
300.70532
300.70531
300.70531
300.7053
300.7053
300.70529
300.70528
300.70527
300.70526
300.70526
300.70525
300.70524
300.70523
300.70522
300.70521
300.70521
300.7052
300.70519
300.70519
300.70518
300.70517
300.70517
300.70516
300.70515
300.70514
300.70513
300.70513
300.70512
300.70511
300.7051
300.70509
300.70509
300.70508
300.70507
300.70507
300.70506
300.70505
300.70505
300.70504
300.70503
300.70502
300.70502
300.70501
300.705
300.70499
300.70499
300.70498
300.70497
300.70497
300.70496
300.70496
300.70495
300.70494
300.70493
300.70492
300.70491
300.70491
300.7049
300.70489
300.70489
300.70488
300.70488
300.70488
300.70487
300.70486
300.70486
300.70485
300.70484
300.70483
300.70483
300.70482
300.70481
300.7048
300.7048
300.70479
300.70478
300.70478
300.70477
300.70477
300.70476
300.70476
300.70475
300.70474
300.70473
300.70473
300.70472
300.70471
300.70471
300.7047
300.70469
300.70469
300.70468
300.70468
300.70467
300.70467
300.70466
300.70465
300.70465
300.70464
300.70464
300.70463
300.70462
300.70461
300.70461
300.7046
300.7046
300.70459
300.70458
300.70458
300.70457
300.70457
300.70456
300.70456
300.70455
300.70454
300.70454
300.70453
300.70452
300.70452
300.70452
300.70451
300.7045
300.7045
300.70449
300.70448
300.70447
300.70447
300.70446
300.70446
300.70445
300.70445
300.70444
300.70444
300.70443
300.70443
300.70442
300.70441
300.70441
300.7044
300.7044
300.70439
300.70439
300.70438
300.70438
300.70437
300.70436
300.70436
300.70435
300.70434
300.70434
300.70433
300.70433
300.70432
300.70432
300.70431
300.70431
300.7043
300.7043
300.70429
300.70429
300.70428
300.70428
300.70427
300.70426
300.70426
300.70425
300.70424
300.70424
300.70423
300.70423
300.70423
300.70422
300.70421
300.70421
300.7042
300.7042
300.7042
300.70419
300.70418
300.70418
300.70417
300.70417
300.70416
300.70416
300.70415
300.70414
300.70414
300.70413
300.70413
300.70412
300.70412
300.70411
300.70411
300.7041
300.7041
300.70409
300.70409
300.70408
300.70407
300.70407
300.70406
300.70406
300.70405
300.70405
300.70405
300.70404
300.70404
300.70403
300.70402
300.70402
300.70401
300.70401
300.704
300.704
300.70399
300.70399
300.70398
300.70398
300.70397
300.70397
300.70396
300.70396
300.70395
300.70395
300.70394
300.70394
300.70393
300.70393
300.70392
300.70392
300.70391
300.70391
300.7039
300.7039
300.70389
300.70389
300.70388
300.70388
300.70387
300.70387
300.70387
300.70386
300.70386
300.70385
300.70385
300.70384
300.70383
300.70383
300.70382
300.70381
300.70381
300.70381
300.7038
300.7038
300.7038
300.7038
300.7038
300.70379
300.70378
300.70377
300.70377
300.70376
300.70376
300.70375
300.70375
300.70374
300.70374
300.70374
300.70373
300.70373
300.70372
300.70372
300.70372
300.70371
300.70371
300.70371
300.7037
300.70369
300.70369
300.70368
300.70368
300.70367
300.70367
300.70367
300.70366
300.70366
300.70365
300.70365
300.70364
300.70364
300.70363
300.70362
300.70362
300.70361
300.70361
300.7036
300.7036
300.7036
300.7036
300.7036
300.70359
300.70359
300.70359
300.70358
300.70357
300.70356
300.70356
300.70355
300.70355
300.70354
300.70354
300.70354
300.70354
300.70354
300.70353
300.70353
300.70352
300.70351
300.70351
300.7035
300.7035
300.7035
300.70349
300.70349