/*--------------------------------*- C++ -*----------------------------------*\
  =========                 |
  \\      /  F ield         | OpenFOAM: The Open Source CFD Toolbox
   \\    /   O peration     | Website:  https://openfoam.org
    \\  /    A nd           | Version:  7
     \\/     M anipulation  |
\*---------------------------------------------------------------------------*/
FoamFile
{
    version     2.0;
    format      ascii;
    class       volScalarField;
    location    "0.0008";
    object      Uy;
}
// * * * * * * * * * * * * * * * * * * * * * * * * * * * * * * * * * * * * * //

dimensions      [0 1 -1 0 0 0 0];

internalField   nonuniform List<scalar> 
5000
(
6.7552933e-29
1.013294e-28
0
0
3.546529e-28
-3.4559457e-43
-4.559823e-28
0
0
2.026588e-28
-1.013294e-28
2.1382118e-44
5.06647e-29
-2.026588e-28
0
-5.06647e-29
3.1224532e-55
-1.013294e-28
0
-1.519941e-28
2.026588e-28
5.06647e-29
-1.013294e-28
3.039882e-28
3.039882e-28
1.2527803e-42
1.013294e-28
2.026588e-28
-3.039882e-28
3.5135448e-42
-1.7711722e-42
-1.013294e-28
3.039882e-28
-4.053176e-28
3.5135448e-42
-4.4063308e-41
-1.2297407e-41
8.106352e-28
-8.106352e-28
4.053176e-28
-5.06647e-28
1.7423726e-41
7.093058e-28
-2.533235e-28
-4.559823e-28
2.026588e-28
4.053176e-28
2.0822073e-41
3.039882e-28
0
-5.06647e-29
-3.5999434e-44
3.546529e-28
-1.013294e-28
3.118019e-56
-5.06647e-28
4.559823e-28
-3.499145e-42
1.013294e-28
0
1.519941e-28
-1.0367837e-41
-1.4399774e-43
-3.546529e-28
-1.519941e-28
1.0627033e-41
2.533235e-28
-2.026588e-28
-2.026588e-28
3.546529e-28
5.573117e-28
-1.013294e-28
5.06647e-28
-1.3172822e-27
-4.559823e-28
1.013294e-28
0
3.546529e-28
-2.8799547e-44
-1.013294e-28
2.026588e-28
-7.1998869e-44
4.3199321e-44
1.013294e-28
1.013294e-28
3.5279446e-42
-3.546529e-28
0
-5.573117e-28
-2.6279587e-41
-1.7711722e-42
1.519941e-28
3.039882e-28
-1.3652713e-41
2.1038069e-41
-1.519941e-28
0
0
3.546529e-28
1.0540634e-41
4.053176e-28
-3.0139213e-42
2.026588e-28
0
-3.546529e-28
-3.546529e-28
4.559823e-28
6.586411e-28
0
0
-4.053176e-28
-3.039882e-28
0
-1.519941e-28
1.4169377e-41
4.559823e-28
-1.013294e-28
-8.6398642e-44
8.8558609e-42
2.9272999e-56
4.053176e-28
-1.7279728e-43
-4.053176e-28
0
-5.6183321e-43
-5.06647e-29
2.1938775e-42
-7.093058e-28
-2.533235e-28
-2.026588e-28
-3.039882e-28
2.026588e-28
1.519941e-28
4.559823e-28
0
-4.559823e-28
-7.599705e-28
8.612999e-28
2.4594814e-41
-2.533235e-28
-1.519941e-28
-2.533235e-28
0
3.039882e-28
2.026588e-28
-1.013294e-28
-5.06647e-29
-5.7599095e-44
-4.559823e-28
2.026588e-28
1.013294e-28
-2.8223557e-41
-2.533235e-28
5.06647e-29
-2.026588e-28
-1.013294e-28
-5.06647e-29
0
0
-2.026588e-28
-1.013294e-28
-1.013294e-28
2.026588e-28
-5.06647e-28
-2.1081269e-41
2.533235e-28
-2.533235e-28
-1.519941e-28
0
-6.079764e-28
-3.546529e-28
0
-6.5729386e-42
-2.533235e-28
0
-3.039882e-28
-9.4865709e-41
5.06647e-28
-3.039882e-28
5.06647e-29
-2.026588e-28
-2.4494015e-41
1.7423726e-41
1.079983e-43
4.053176e-28
-3.039882e-28
-7.0270896e-42
-1.3938981e-41
2.4393217e-41
5.06647e-29
0
0
-1.519941e-28
-1.013294e-28
0
0
-9.2106103e-42
-4.8788331e-57
-1.013294e-28
0
-1.519941e-28
4.559823e-28
1.2635801e-40
-9.119646e-28
4.053176e-28
6.0774309e-54
2.633157e-55
4.053176e-28
-5.06647e-28
4.3199321e-44
4.9088829e-41
-4.2076139e-41
3.039882e-28
0
-2.1707797e-41
-3.5063449e-42
2.8122758e-41
-1.013294e-28
0
-4.053176e-28
-3.039882e-28
0
0
0
4.559823e-28
1.7531725e-41
-1.013294e-28
0
0
1.013294e-28
1.519941e-28
-3.039882e-28
-2.026588e-28
0
-5.06647e-29
5.06647e-29
-5.06647e-29
3.039882e-28
0
-1.519941e-28
-4.2205737e-41
-3.871097e-55
-5.06647e-29
-7.6975624e-43
2.026588e-28
0
1.013294e-28
-7.7456383e-41
4.053176e-28
2.1081269e-41
-3.039882e-28
5.06647e-29
1.4054179e-41
8.7946618e-41
1.7531725e-41
1.519941e-28
-3.039882e-28
-1.519941e-28
0
-2.533235e-28
5.06647e-29
0
-3.039882e-28
-4.559823e-28
7.093058e-28
3.039882e-28
-1.519941e-28
-5.06647e-29
-2.8108358e-41
2.8865859e-43
2.533235e-28
-1.7567724e-41
-1.013294e-28
1.519941e-28
7.0414894e-42
-1.4111778e-41
1.4399774e-44
6.99829e-42
5.06647e-29
0
0
-8.9804894e-43
1.519941e-28
0
0
0
0
-3.039882e-28
-3.4919451e-42
-5.06647e-28
2.1599661e-44
-3.546529e-28
-3.546529e-28
7.0342895e-42
4.2119338e-41
7.9198756e-44
4.559823e-28
3.039882e-28
5.06647e-29
2.026588e-28
2.104459e-41
7.2967628e-42
-4.053176e-28
0
5.06647e-29
-5.06647e-29
1.013294e-28
-4.3199321e-44
1.079983e-43
4.6837863e-55
3.546529e-28
3.039882e-28
-4.559823e-28
-1.3172822e-27
3.039882e-28
1.4636499e-56
-2.026588e-28
4.2119338e-41
-7.093058e-28
0
0
-6.4146353e-43
2.8137158e-41
1.013294e-28
0
5.06647e-29
3.039882e-28
-3.039882e-28
2.1599661e-44
1.4068579e-41
-1.4399774e-44
2.533235e-28
-3.546529e-28
-3.039882e-28
0
3.546529e-28
-1.4068579e-41
3.039882e-28
-6.079764e-28
5.6216717e-41
1.519941e-28
-2.8137158e-41
-5.06647e-28
9.119646e-28
1.519941e-28
-1.519941e-28
-4.3199321e-44
1.013294e-28
0
0
-3.546529e-28
1.4054179e-41
1.013294e-28
-2.8799547e-44
6.079764e-28
-1.519941e-28
5.06647e-29
6.079764e-28
-1.519941e-28
-1.013294e-28
-4.053176e-28
3.039882e-28
1.519941e-28
5.06647e-29
-3.546529e-28
-3.9030665e-56
2.026588e-28
-2.026588e-28
1.013294e-28
5.06647e-29
4.2119338e-41
8.6398642e-44
2.026588e-28
-2.026588e-28
-5.06647e-29
-1.4068579e-41
-2.0836733e-54
5.06647e-29
-1.013294e-28
4.559823e-28
4.2162538e-41
5.6216717e-41
1.4039779e-41
-1.013294e-28
-6.079764e-28
9.8379254e-41
1.013294e-27
0
0
-6.586411e-28
5.6216717e-41
-1.8078942e-42
-2.026588e-28
2.026588e-28
1.519941e-28
1.519941e-28
5.5593506e-43
-1.4399774e-44
1.013294e-28
0
9.119646e-28
4.053176e-28
3.039882e-28
7.093058e-28
4.053176e-28
-9.119646e-28
-6.079764e-28
4.053176e-28
1.9913649e-59
0
1.013294e-28
-1.519941e-28
-6.079764e-28
2.533235e-28
-2.533235e-28
5.0399208e-44
-4.2205737e-41
-1.013294e-28
-2.533235e-28
-3.546529e-28
1.519941e-28
-7.0270896e-42
-4.3199321e-44
-2.8108358e-41
-5.06647e-29
2.3889097e-43
-4.2205737e-41
-2.8137158e-41
4.2184137e-41
3.039882e-28
1.3050318e-43
-3.5171447e-41
-5.6187917e-41
-5.0399208e-44
-1.4186116e-27
-4.559823e-28
1.519941e-28
8.3744807e-41
1.4068579e-41
-3.8487812e-43
-2.533235e-28
6.079764e-28
-1.013294e-28
1.013294e-28
1.519941e-28
4.2184137e-41
5.8981473e-45
0
0
-5.06647e-29
0
-7.7789657e-42
-5.06647e-29
-1.4399774e-44
2.8122758e-41
0
2.026588e-28
-8.1141524e-43
1.519941e-28
2.026588e-28
5.06647e-28
-4.053176e-28
0
0
-3.039882e-28
2.8151558e-41
1.3110784e-41
0
0
-5.06647e-28
2.3221075e-40
5.573117e-28
0
0
0
0
0
0
0
0
7.093058e-28
7.6021977e-54
2.026588e-28
-2.533235e-28
3.039882e-28
-3.039882e-28
8.4497872e-41
4.053176e-28
4.2205737e-41
-1.013294e-28
0
0
-2.026588e-28
1.4068579e-41
-2.026588e-28
0
0
0
0
0
0
0
1.013294e-28
-8.4353875e-41
-4.053176e-28
4.053176e-28
6.4798982e-44
5.573117e-28
-1.6856375e-40
-1.4061183e-41
-3.039882e-28
-1.9515332e-56
2.0121295e-42
0
-8.106352e-28
0
0
-7.093058e-28
1.4054179e-40
6.079764e-28
-1.013294e-28
-3.039882e-28
5.06647e-28
-3.039882e-28
-5.06647e-29
-2.8108358e-41
-3.039882e-28
3.039882e-28
0
-2.026588e-28
5.06647e-29
1.013294e-28
5.06647e-29
3.039882e-28
4.053176e-28
1.519941e-28
3.039882e-28
3.546529e-28
-7.093058e-28
0
3.039882e-28
-1.519941e-28
1.81748e-43
1.519941e-28
-1.4399774e-44
6.079764e-28
-4.559823e-28
-7.0342895e-41
-3.546529e-28
2.8799547e-44
-2.026588e-28
4.559823e-28
0
-1.8289153e-40
-4.3199321e-44
-1.013294e-28
4.559823e-28
-2.8137158e-41
4.9189627e-41
8.6398642e-44
5.573117e-28
-3.039882e-28
4.6812848e-71
5.6274316e-41
7.1998869e-45
4.053176e-28
7.0270896e-41
-3.039882e-28
0
0
-5.06647e-29
-1.2648761e-40
4.559823e-28
-1.519941e-28
1.4068579e-41
1.9515332e-56
-7.0342895e-42
1.013294e-28
5.06647e-29
-2.8108358e-41
-1.013294e-28
0
0
1.013294e-28
-5.06647e-29
-4.2176937e-41
-1.013294e-28
-5.06647e-29
0
-4.559823e-28
-2.026588e-28
3.546529e-28
4.559823e-28
0
-2.026588e-28
-2.026588e-28
1.013294e-28
-2.026588e-28
-1.013294e-28
-1.013294e-28
2.8108358e-41
1.013294e-28
-1.8761079e-54
1.1649641e-43
0
0
0
-3.546529e-28
-3.039882e-28
0
2.533235e-28
-1.4039779e-41
1.013294e-28
0
0
7.599705e-28
6.3243806e-41
1.4039779e-41
-1.4049387e-41
-1.519941e-28
-8.8998878e-54
-1.519941e-28
0
-1.519941e-28
-4.9240026e-41
3.039882e-28
-3.039882e-28
2.026588e-28
5.6266115e-41
5.06647e-29
0
-1.013294e-28
2.026588e-28
-5.573117e-28
-4.559823e-28
0
-2.533235e-28
2.533235e-28
1.519941e-28
-1.4092151e-41
2.026588e-28
8.0690566e-54
1.519941e-28
-4.8788331e-57
-1.519941e-28
-1.013294e-28
-5.6216717e-41
-5.06647e-28
5.573117e-28
-6.079764e-28
6.079764e-28
5.06647e-28
-4.053176e-28
0
0
1.013294e-27
1.5612266e-55
-6.079764e-28
0
0
5.06647e-28
-1.9515332e-55
-1.2159528e-27
0
0
1.8239292e-27
8.612999e-28
-1.4186116e-27
-8.612999e-28
0
2.8372232e-27
-7.8784042e-40
-3.6478584e-27
2.0772527e-27
0
-2.1279174e-27
2.2799115e-27
-3.5279446e-43
-3.039882e-27
3.546529e-27
-3.8505172e-27
-4.2051701e-27
4.559823e-27
5.1677994e-27
-1.603818e-39
-6.4344169e-27
7.4983756e-27
2.3213155e-39
-9.0183166e-27
9.6769577e-27
-1.0588922e-26
-1.185554e-26
1.2970163e-26
1.4540769e-26
-4.5582196e-39
-1.8441951e-26
2.0620533e-26
-3.1679502e-42
-2.4572379e-26
2.7510932e-26
-3.0094832e-26
-3.298272e-26
3.6123931e-26
8.0354214e-26
-2.4829674e-38
-9.7985529e-26
5.4160564e-26
-8.4382674e-42
-1.3041094e-25
-2.0462078e-41
7.9796902e-26
0
-9.7428218e-26
0
1.1830207e-25
0
0
0
1.7383058e-25
-8.684323e-55
-2.102585e-25
0
-2.5464078e-25
7.771483e-38
3.074334e-25
0
0
0
4.489399e-25
-1.3691541e-37
-5.418083e-25
0
-6.533213e-25
-1.9909507e-37
7.872281e-25
0
-9.4818986e-25
1.040045e-24
-6.3383232e-37
-1.2508608e-24
1.3712401e-24
0
1.6468054e-24
5.0115092e-37
-1.9777472e-24
0
-2.3727799e-24
2.5981365e-24
1.5795638e-36
-3.1134978e-24
1.8917678e-36
5.2977488e-40
-1.1329876e-36
6.3380604e-40
4.8770347e-24
0
-5.8281631e-24
1.7677825e-36
1.9315554e-36
3.2336906e-53
2.3059526e-36
0
1.9802197e-23
3.0012359e-36
-1.1796262e-23
1.2872076e-23
-3.8975893e-36
-1.531832e-23
-1.6705367e-23
-5.0578792e-36
5.5137997e-36
-2.1642034e-23
2.3583455e-23
2.5694197e-23
0
3.0480846e-23
-9.2160447e-36
-3.6131581e-23
0
0
0
1.0129849e-22
-6.1183743e-35
-1.1979425e-22
0
0
0
0
0
0
0
2.324385e-22
-7.0092058e-35
-2.7378474e-22
-1.4852524e-22
1.6111405e-22
1.7473454e-22
-5.2638458e-35
-1.1395592e-34
-2.22633e-22
2.4125947e-22
-2.6139216e-22
-2.8314712e-22
3.0665007e-22
3.3203679e-22
-1.9952315e-34
-3.8905149e-22
-4.2100288e-22
1.2634985e-34
4.9269207e-22
5.3282814e-22
-5.7611616e-22
-6.2279289e-22
6.7311317e-22
-7.2734993e-22
0
8.4876074e-22
9.1658304e-22
-2.7451663e-34
-1.0682567e-21
1.1529024e-21
-1.2439971e-21
-1.3420107e-21
1.447445e-21
-1.5608378e-21
-4.6726986e-34
1.8138332e-21
1.9547034e-21
2.9929112e-37
-4.5373809e-21
-1.3565921e-33
2.6309027e-21
2.8322556e-21
0
-3.2802962e-21
0
0
0
-4.3890626e-21
-4.7179795e-21
5.0704665e-21
5.4481276e-21
0
-6.2859048e-21
1.8752352e-33
7.2463069e-21
0
0
-8.9544923e-21
5.3314813e-33
1.0300451e-20
0
0
-1.2687478e-20
7.5459253e-33
1.4562989e-20
0
-1.6701208e-20
4.9647718e-33
-5.3111523e-33
5.6862751e-33
2.1908102e-20
0
2.5058908e-20
-1.486753e-32
-2.8637649e-20
0
-3.2698614e-20
3.4928608e-20
3.7302418e-20
-7.9657435e-20
-1.1818115e-32
9.0751824e-20
-1.3444342e-32
-5.1649638e-20
0
0
-6.2618378e-20
1.8522843e-32
7.1116598e-20
0
-8.0695445e-20
8.5929251e-20
9.1481825e-20
-9.7371141e-20
0
1.1023652e-19
-1.1725328e-19
-6.9211458e-32
7.3583335e-32
-1.4090593e-19
1.2469526e-31
-1.5908727e-19
1.6898147e-19
-4.9804125e-32
1.0580872e-31
4.0446446e-19
-5.9532454e-32
-2.276967e-19
0
0
0
5.7569323e-19
3.0504198e-19
-6.4637823e-19
-3.4233581e-19
0
0
-4.0628288e-19
1.1693382e-48
4.5488566e-19
0
1.0176447e-18
5.3795268e-19
-1.1372319e-18
-6.0088445e-19
0
1.3410807e-18
2.0125044e-34
-2.2426728e-18
2.1887634e-31
1.665248e-18
-8.7840513e-19
-5.266434e-34
9.769527e-19
-2.8613628e-31
-6.0223164e-31
-1.143816e-18
0
-1.2690708e-18
7.4191846e-31
2.8133494e-18
-1.4804338e-18
2.5934505e-30
1.6385576e-18
-3.4464245e-18
2.5747178e-34
1.9044673e-18
0
0
0
2.3193227e-18
-2.4349504e-18
-5.1114202e-18
2.681794e-18
7.8122512e-31
8.1852046e-31
3.0939944e-18
0
-3.3991836e-18
5.0612717e-34
7.4614904e-18
-3.9069955e-18
-2.2694011e-30
4.2816434e-18
4.4805414e-18
-2.6045821e-30
-9.805555e-18
0
-5.3593887e-18
-5.6012761e-18
0
6.1136443e-18
6.3847129e-18
-6.6661052e-18
0
7.2610932e-18
0
0
-8.2388338e-18
7.1523609e-30
8.9513033e-18
0
0
-1.0117707e-17
-1.0533945e-17
1.0964486e-17
1.1409689e-17
-1.1869912e-17
-1.2345518e-17
2.5673741e-17
1.3344336e-17
-3.8529169e-30
-1.440908e-17
8.3036232e-30
8.6229677e-30
-1.6136286e-17
1.6748198e-17
-1.7378817e-17
1.8028516e-17
1.5942586e-32
-1.9386625e-17
4.0191543e-17
2.0825465e-17
2.1576067e-17
-4.4695871e-17
-4.6282851e-17
2.3956888e-17
-2.4794668e-17
2.5655108e-17
-1.4738451e-29
-5.4890607e-17
2.8375712e-17
-8.140213e-30
8.4204392e-30
3.1311957e-17
0
0
-3.4471971e-17
-3.557634e-17
0
3.7863172e-17
3.9046112e-17
0
4.1492152e-17
-1.1872396e-29
-4.4046406e-17
4.5364567e-17
-1.2957244e-29
-4.8083741e-17
0
-5.0914267e-17
-2.9077639e-29
5.3856995e-17
-5.5370632e-17
1.5779212e-29
5.8482703e-17
6.0081189e-17
1.7126309e-29
-6.3363061e-17
0
6.6757931e-17
-6.8497597e-17
1.9970601e-32
-4.0019782e-29
-7.38844e-17
7.5735518e-17
0
1.5904017e-16
-1.8085075e-28
-8.3413123e-17
-4.7403358e-29
-1.7482564e-16
1.7890402e-16
1.8303411e-16
-1.8721527e-16
-1.9144684e-16
-9.7864075e-17
0
1.022185e-16
2.0886298e-16
-1.5158404e-32
1.0892695e-16
-1.1120855e-16
-1.135121e-16
1.1583713e-16
-2.3636628e-16
2.4109925e-16
2.047515e-28
-2.5068379e-16
2.5553317e-16
-7.2276202e-29
1.3267025e-16
-1.3514804e-16
-1.3764235e-16
1.4015255e-16
3.9578294e-29
2.9043622e-16
-2.9554437e-16
-3.0067918e-16
3.058393e-16
4.3160404e-29
1.5811505e-16
-8.9262495e-29
-1.6335289e-16
-4.6067418e-29
5.0501665e-46
-1.7127699e-16
-3.4786692e-16
1.7659629e-16
-1.1459348e-45
1.819381e-16
3.0753204e-28
-1.8729658e-16
3.7996048e-16
-1.0694419e-28
-3.9070544e-16
1.278205e-46
2.0072717e-16
0
0
2.0877969e-16
-2.114585e-16
-4.2826681e-16
0
0
0
2.2477966e-16
2.2742432e-16
0
-2.326884e-16
2.3530644e-16
3.9624906e-28
-4.8102221e-16
0
0
0
2.5077596e-16
2.5330825e-16
-2.5582568e-16
2.5832762e-16
1.4484542e-28
-5.2656518e-16
0
0
5.411673e-16
-7.7585566e-32
-2.7535658e-16
2.77713e-16
-2.8004865e-16
2.8236299e-16
-1.5808632e-28
-5.7385116e-16
0
0
2.9359652e-16
2.9577204e-16
0
0
-3.0214745e-16
-3.0422065e-16
0
3.0828647e-16
3.1027821e-16
-3.1224194e-16
3.1417725e-16
3.1608372e-16
-3.1796096e-16
-3.1980859e-16
1.786184e-28
3.2341345e-16
-3.2516995e-16
-9.0725877e-29
3.2858928e-16
0
3.318814e-16
-1.8515353e-28
-3.3504363e-16
3.3657523e-16
-1.8770447e-28
-3.3953783e-16
0
3.4236429e-16
-9.5445797e-29
-4.9034878e-32
3.4634364e-16
-3.4759955e-16
-3.4881975e-16
0
7.0230389e-16
-3.9126619e-28
-3.5333819e-16
-5.0359855e-32
-7.1075308e-16
7.126793e-16
7.1453017e-16
-7.1630523e-16
-3.5900202e-16
0
7.2117116e-16
-6.0157633e-28
-7.2402815e-16
0
7.2657171e-16
2.0207474e-28
-3.6439935e-16
-1.0132443e-28
-7.3070604e-16
7.3153893e-16
9.1452131e-28
-7.3296132e-16
7.3355013e-16
-2.0367652e-28
-7.3448129e-16
-3.6741149e-16
7.3508164e-16
3.6762848e-16
-7.3534869e-16
7.3535596e-16
9.1824828e-28
-7.351063e-16
7.348524e-16
-1.0197985e-28
3.6704423e-16
-4.0698305e-28
-1.0994724e-15
2.0324079e-28
7.3152991e-16
-3.6533709e-16
-7.297316e-16
3.6435098e-16
-2.019842e-28
3.6319041e-16
4.0268556e-28
-3.6185472e-16
7.2224204e-16
-3.0007811e-28
3.9917473e-28
-1.989793e-28
-3.5774591e-16
0
-3.557936e-16
-3.5475118e-16
0
0
0
0
0
3.4756924e-16
3.4621797e-16
0
-3.4338374e-16
3.4190095e-16
5.6699463e-28
-6.7760912e-16
0
0
0
3.3209251e-16
3.3030731e-16
-3.2847964e-16
-3.2660973e-16
6.4939566e-16
5.3771787e-28
-6.414983e-16
0
6.332719e-16
5.2392374e-28
-3.123609e-16
3.1016361e-16
-3.07927e-16
3.0565151e-16
1.6837541e-28
-6.0197139e-16
0
0
2.937073e-16
2.9120872e-16
0
2.8610642e-16
8.0576665e-32
2.8086811e-16
-2.7819963e-16
-8.2649759e-16
0
-5.4001096e-16
-5.3442748e-16
0
7.8463373e-16
5.173377e-16
-5.1153375e-16
2.5283956e-16
2.4988785e-16
-7.4073811e-16
-2.4391511e-16
-3.423339e-32
-2.3785663e-16
2.3479784e-16
2.3172078e-16
2.2862655e-16
1.5230111e-46
2.2239108e-16
2.1925215e-16
-2.1610065e-16
0
-4.1952952e-16
-4.1316564e-16
0
2.0019715e-16
3.9399191e-16
1.0754113e-28
1.9058327e-16
3.7474875e-16
-3.6833104e-16
-3.6191604e-16
-1.777532e-16
-1.7455238e-16
0
1.6816805e-16
4.9496157e-16
-1.6181563e-16
-1.652468e-44
4.6651707e-16
-3.0473984e-16
-1.4924867e-16
-1.4614325e-16
-2.861098e-16
2.7996978e-16
1.3693446e-16
-1.3390483e-16
-1.3089721e-16
-1.2791277e-16
3.7485802e-16
1.2201806e-16
-3.5733009e-16
-1.1622967e-16
1.1337804e-16
2.211123e-16
-1.07765e-16
1.0500554e-16
-1.7028829e-28
1.6586066e-28
2.9077922e-16
-9.4302616e-17
-9.1714782e-17
-1.7832727e-16
-8.6649875e-17
1.6834832e-16
2.3231082e-32
7.9339279e-17
-7.6981213e-17
-2.2399019e-16
2.1715881e-16
7.0150233e-17
-2.0386693e-16
0
1.9107601e-16
6.1623447e-17
-1.7879198e-16
5.7613774e-17
1.1134577e-16
2.9849056e-29
-5.7630917e-29
-5.010655e-17
0
-9.3217733e-17
-8.9847327e-17
4.3280646e-17
4.1679599e-17
8.0240517e-17
-3.8602337e-17
-3.7125506e-17
7.1378814e-17
0
-6.587565e-17
-6.3242952e-17
3.0344129e-17
5.821058e-17
-1.548908e-29
-2.6741009e-17
5.1228912e-17
-2.4524181e-17
7.8164409e-29
4.4900065e-17
-2.1464898e-17
0
-3.9190493e-17
0
3.9649187e-29
1.7032178e-17
3.2478851e-17
-4.6428911e-17
4.1899575e-33
2.8072195e-17
0
-2.5411647e-17
-1.2080116e-17
2.2959475e-17
-1.2106617e-29
-1.0352119e-17
1.9646914e-17
-9.3172929e-18
1.4706329e-29
1.6739354e-17
-7.9268569e-18
7.5037944e-18
-1.4199666e-17
-2.0142935e-17
0
1.7988119e-17
1.1324071e-17
-1.6031919e-17
-1.00825e-17
4.7532907e-18
8.9590352e-18
-4.2193758e-18
-3.9723204e-18
7.4756393e-18
-3.5153619e-18
-6.6088747e-18
3.1045631e-18
-4.1428342e-34
5.4721401e-18
5.1330912e-18
-7.2187524e-18
2.2547751e-18
3.5170719e-30
-5.9299674e-18
0
5.1873373e-18
3.2318122e-18
-1.5092831e-18
-1.4089281e-18
-1.3145226e-18
0
-1.1423717e-18
5.9063546e-31
1.9811508e-18
-5.1145443e-31
-8.5705062e-19
0
-7.398976e-19
1.373812e-18
1.9120836e-18
-1.1821434e-18
-1.6435262e-18
-5.0749964e-19
4.6987064e-19
8.6957007e-19
-4.0208678e-19
3.7161863e-19
3.4323824e-19
-6.3359e-19
5.8430675e-19
2.6917876e-19
-7.4320136e-19
-4.5538661e-19
2.0892491e-19
5.7393181e-19
-3.8793936e-31
3.5312793e-31
1.4416173e-19
1.4427371e-31
1.1633905e-19
-1.0320799e-19
-9.0503898e-20
-7.8189368e-20
6.63186e-20
5.5150228e-20
-1.3513338e-19
3.6260494e-20
6.9542696e-20
-1.2565784e-19
-1.1955427e-35
3.9338002e-20
-1.1109485e-19
-7.5127739e-20
0
5.8172202e-20
7.2643794e-20
1.8022444e-19
-8.2868081e-20
2.3440581e-31
2.3731984e-19
-9.3890142e-20
-9.2537726e-20
-8.0506797e-20
7.9386637e-20
9.0805645e-20
-2.9614395e-19
9.3098584e-20
1.6701575e-19
1.3931146e-31
8.9378089e-20
-1.8107892e-19
-2.5496686e-19
-4.5246064e-32
4.6301566e-32
1.1955565e-35
8.0683898e-20
1.5585872e-19
7.9963098e-20
-2.4551045e-19
8.7336634e-32
1.4686589e-19
0
0
-7.234703e-20
3.60582e-32
-3.2179239e-32
-5.3702951e-20
9.9135447e-20
4.3805046e-20
4.0464432e-32
-3.2526228e-20
-1.0274305e-19
-3.3759154e-20
0
0
0
1.1070619e-19
6.0989726e-20
-1.1904689e-19
6.165971e-32
1.003895e-19
0
0
-1.2191073e-19
1.3944477e-31
6.2528146e-32
-1.1332012e-19
6.3226836e-20
1.31144e-19
1.1677888e-19
-4.9709867e-20
-1.5010641e-19
-5.2511127e-20
0
0
0
1.1880879e-19
7.8094339e-20
-1.0235212e-19
7.2267981e-32
3.425074e-20
-4.8542147e-36
3.5751328e-20
-8.252531e-20
4.7687531e-32
3.7563959e-20
-6.9919023e-20
0
2.3287231e-32
7.9408113e-20
7.8530758e-20
-1.3116116e-19
-9.1259031e-20
4.299436e-20
2.4720246e-32
-4.9866921e-20
1.4805749e-19
9.6439744e-20
-5.0398104e-20
-5.4762604e-20
6.0914459e-20
6.3060508e-20
-5.3081004e-20
-3.6427183e-20
1.7635407e-32
-2.038847e-32
-4.0467969e-20
0
-2.3268945e-20
3.8418577e-20
6.0132726e-20
-4.0440391e-20
-3.8395203e-20
-1.8555658e-20
2.1272822e-32
4.1085125e-20
-2.1745252e-20
2.3362136e-20
2.5817316e-20
-5.6568827e-20
6.0888616e-20
3.2222819e-20
-3.3274253e-20
-6.7647977e-20
-3.446444e-20
7.432266e-20
-2.284704e-32
4.8118217e-20
5.221672e-20
-1.6410594e-19
5.3584068e-20
4.780331e-20
-1.3263029e-19
5.9546208e-36
1.1971025e-19
3.1876363e-20
-7.0422912e-20
1.9355327e-20
1.5210776e-47
2.391299e-32
2.5041865e-20
-2.3500648e-20
-2.2033605e-20
1.0640497e-20
-1.1947618e-32
-2.2324363e-20
1.196098e-20
3.8627378e-20
1.3581545e-20
-1.482304e-20
0
-1.8925561e-20
-3.9273032e-20
2.8169071e-36
6.0157187e-20
1.9511221e-20
-4.0093918e-20
3.2856143e-36
5.2265315e-20
-4.8635434e-20
3.2988657e-32
3.5861194e-20
-5.7387695e-20
-3.8608259e-20
0
0
6.5548636e-21
1.7854475e-20
6.1148356e-21
-1.9401424e-20
7.3859706e-33
1.3833771e-20
-1.6102015e-20
-1.8576197e-20
9.5770596e-21
2.2320814e-20
-1.5239712e-20
-1.8116256e-20
5.0730524e-20
1.2975345e-20
2.016879e-32
-9.0428601e-33
-1.9414554e-20
1.874755e-20
-3.6685864e-20
-5.8214782e-20
0
5.5125102e-20
3.1963981e-20
-4.466585e-20
3.8539575e-36
1.0669165e-20
-1.5087859e-20
5.8941253e-21
4.3436717e-21
5.9409651e-34
3.5033662e-21
1.1603629e-20
-7.1085219e-21
-1.5464827e-20
-1.6169774e-20
9.8839313e-33
9.7649862e-21
-9.72057e-21
1.8281308e-20
2.5836135e-20
0
-2.217843e-20
-1.3796202e-20
1.5816517e-20
-3.5835801e-33
-1.5156845e-21
8.8803562e-22
1.1458422e-21
-7.2692586e-35
2.6938698e-21
-6.7568291e-34
-1.3270739e-21
1.4129477e-33
1.845491e-33
3.1972496e-21
8.6039094e-21
-8.5160802e-21
4.0929459e-33
6.688369e-33
-8.2124942e-22
-8.822216e-23
1.1035275e-21
-7.2525663e-22
-3.2156617e-22
3.4139279e-21
-4.4213754e-21
-1.1291149e-36
9.0963446e-21
4.524048e-21
-4.1534227e-21
-9.8180834e-21
1.3689403e-32
1.1074459e-20
5.1042218e-21
-8.1499254e-21
-1.408736e-20
1.8675944e-20
7.0530304e-21
7.1141895e-33
5.6494678e-21
-8.4929035e-21
1.8336103e-33
-3.9095341e-21
5.0427959e-21
-1.8819741e-32
-1.6594142e-20
1.5634994e-20
1.5035113e-20
0
0
0
-5.4420325e-21
-1.69895e-20
-6.0054721e-21
-7.5172651e-33
-7.2029791e-21
2.0640865e-20
7.3019216e-21
-8.587749e-21
-9.6349782e-21
-1.0097224e-20
2.0396924e-20
-1.0228778e-20
1.0795367e-20
-3.9656979e-32
-2.5421715e-20
3.9650146e-20
2.7179877e-20
0
-2.7722931e-20
-1.5229523e-32
1.3529612e-20
-3.7273271e-20
-1.1685051e-20
1.2365888e-20
0
0
1.1563542e-20
2.1399602e-20
-2.4892753e-32
-2.3712962e-20
-1.1781227e-20
1.0829208e-20
-1.0345422e-20
1.0541543e-20
2.0895806e-48
-1.7382215e-32
2.7640264e-20
0
0
-2.0324125e-20
-2.0759275e-20
-1.0245437e-20
1.1003934e-32
2.8970919e-20
-1.0179804e-32
-1.8159946e-20
0
2.0298539e-20
1.0400764e-20
-2.0668931e-20
9.714951e-21
9.5654993e-21
-3.0388204e-20
1.0709664e-20
-3.621514e-32
-2.1224887e-20
3.1702779e-20
2.1122839e-20
0
0
0
-3.1595876e-20
-2.1139012e-20
3.1199793e-20
1.9420661e-20
0
-2.0238604e-20
1.1595692e-32
1.0316138e-20
-1.8616924e-20
9.1049341e-21
-9.8608471e-21
-1.0239225e-20
3.0980031e-20
-2.0205017e-20
-1.8279642e-20
8.9505944e-21
-9.6509032e-21
2.0250483e-20
3.021063e-20
0
-2.6482831e-20
-1.8859423e-20
9.8471115e-21
9.7725193e-21
-9.4074944e-33
7.5656199e-21
-2.6263918e-32
-8.4501437e-21
-4.919587e-33
-6.8211205e-50
8.6294344e-21
0
7.6264834e-21
-1.4578405e-20
-2.1558399e-20
2.1238863e-20
2.0633386e-20
0
-1.2181876e-20
-1.1025429e-20
1.0232872e-20
-5.0062978e-21
-4.9610457e-21
1.4183844e-20
-8.3337961e-21
-7.0592594e-21
3.3059739e-21
6.7990043e-21
3.4468502e-21
-9.9874198e-21
-3.0911844e-21
-4.6523981e-33
4.9846542e-21
1.3052899e-36
-6.9807754e-21
4.9913792e-21
7.7534492e-21
2.494193e-21
-7.0086211e-21
-4.6140208e-21
7.4518678e-21
-6.0311012e-33
-5.6360255e-21
-2.7549992e-21
1.5120229e-33
5.8223529e-21
-3.5582665e-33
3.4204227e-21
3.4732792e-21
-1.0504588e-20
-3.6664539e-21
-4.3219395e-33
8.1228604e-21
-1.366311e-32
-1.2340981e-20
8.5307975e-21
-5.0127132e-33
-5.2194357e-33
-1.0387024e-32
-4.5734214e-21
1.3848228e-20
-4.8349614e-21
-8.5180062e-33
-1.7468482e-32
-1.5544297e-20
5.0469641e-21
9.8570272e-21
-5.5424334e-33
5.2407578e-21
5.4572656e-21
-1.1080435e-20
-1.0936077e-20
5.9306439e-33
1.596206e-20
-6.0671545e-33
-5.664686e-21
1.1533308e-20
-5.7107302e-21
-5.5589056e-21
3.079493e-33
-3.1885576e-33
5.9641709e-21
-1.2154043e-20
6.075795e-21
-2.0080335e-32
-2.0020212e-32
1.796448e-20
-1.1949457e-20
1.716171e-36
1.2230442e-20
-6.1429739e-21
-1.8266792e-20
-5.9524299e-21
1.7683385e-20
-6.5911974e-33
-5.9760414e-21
1.1838293e-20
-1.1537137e-20
-2.8384561e-32
5.6335636e-21
-5.5439377e-21
5.3687011e-21
-1.0209243e-20
5.0076661e-21
1.5295444e-20
0
0
-9.564578e-21
-1.2711399e-36
8.5550002e-21
-4.2844649e-21
-1.3193825e-20
-4.445907e-21
1.3137155e-20
1.1911111e-36
4.4393421e-33
7.7698899e-21
-1.1738184e-20
-2.0272435e-32
4.1542015e-21
-4.1436133e-21
-4.0891898e-21
4.5254207e-33
4.1066967e-21
-8.3089321e-21
8.4726979e-21
-1.4605321e-32
-9.1480174e-21
1.4185315e-20
9.5369621e-21
-4.7668694e-21
-1.4491925e-20
-5.0306991e-21
5.3252347e-21
0
-5.6334296e-21
5.6257209e-21
1.7016974e-20
3.2653406e-33
-1.2380696e-20
6.4276243e-21
6.5317801e-21
-1.3088334e-20
6.5546077e-21
-6.6708698e-21
-1.37443e-20
2.0989401e-20
-2.3407964e-32
1.5315474e-32
1.3741142e-20
-1.4104128e-20
-7.2215802e-21
-7.2140536e-21
-7.708358e-33
6.7204194e-21
-1.3581831e-20
1.3988453e-20
2.1277775e-20
0
-6.6604431e-21
3.4873803e-33
1.7520487e-36
-1.9031281e-20
-6.3889864e-21
1.8874207e-20
-6.1050338e-21
-7.3742226e-49
1.6877165e-20
-5.5515925e-21
-1.6582922e-20
-5.3848115e-21
1.0257454e-20
-4.9157974e-21
4.8219667e-21
-1.5856114e-32
-9.2852174e-21
1.3337023e-20
4.6630637e-33
-1.8129673e-32
8.2189907e-21
-8.190081e-21
-4.409172e-33
3.7839135e-21
-7.2009069e-21
-3.5537025e-21
0
0
7.1985594e-21
-7.7267515e-33
-1.9195161e-36
-3.7558403e-33
-3.4820679e-21
-3.5618086e-21
3.5495455e-21
3.5042134e-21
-6.9882993e-21
7.0894151e-21
-4.0233528e-33
-7.3336336e-21
7.3430413e-21
1.2244117e-32
-4.149645e-33
3.8405327e-21
-7.8534836e-21
3.9702887e-21
-8.8717201e-33
-8.09956e-21
0
8.3111899e-21
4.1543422e-21
-8.330719e-21
-4.2138007e-21
4.314973e-21
-7.2820595e-33
-4.3682216e-21
0
0
8.9361568e-21
8.8581469e-21
0
-8.2941456e-21
-4.1512991e-21
4.3643452e-21
-4.536544e-21
4.620441e-21
0
-9.0861934e-21
0
0
4.1860872e-21
-4.7715339e-33
-4.4727058e-21
0
4.5651407e-21
2.4941439e-33
-4.406349e-21
0
8.8166454e-21
9.0313042e-21
-4.5973904e-21
-5.1171645e-33
4.5849002e-21
-9.1661938e-21
-9.2599698e-21
9.4055565e-21
1.3440407e-36
1.0484382e-32
1.33611e-36
-9.4564794e-21
4.8352079e-21
-5.4908985e-33
4.9849994e-21
-4.9789153e-21
-1.4942466e-20
1.5064913e-20
5.0963484e-21
-5.1460725e-21
-5.7299155e-33
-5.1268328e-21
1.0261355e-20
1.0469923e-20
-1.0691039e-20
-1.7781716e-32
-5.2605978e-21
-5.1569462e-21
1.0302002e-20
-5.2944772e-21
6.0080896e-33
-2.9970006e-33
5.3087861e-21
1.039685e-20
-1.0305641e-20
-1.0447571e-20
0
5.2538138e-21
5.7060957e-33
-1.0059784e-20
-5.5404031e-33
1.5032015e-20
1.0023004e-20
0
-9.4969025e-21
-1.0222835e-32
-4.5791084e-21
-4.64012e-21
1.3857929e-20
-2.4865941e-33
-8.5943918e-21
4.0561827e-21
7.9246424e-21
-4.0479499e-21
-8.2250178e-21
-4.0688645e-21
0
7.4335803e-21
-3.532754e-21
-1.0284923e-20
3.4229873e-21
3.431577e-21
6.7623354e-21
3.2677203e-21
-6.2582521e-21
-2.9954568e-21
-2.9070096e-21
3.1849317e-33
2.8229931e-21
2.733347e-21
5.2335793e-21
2.505536e-21
0
0
0
-4.5714714e-21
-4.3203555e-21
4.1154867e-21
2.2322707e-33
2.2244121e-33
-2.2051541e-33
-4.3020296e-33
3.7279092e-21
0
-3.4259313e-21
-1.6532313e-21
1.6207336e-21
-1.6189021e-21
-1.6291005e-21
0
0
2.9495363e-21
-4.7999716e-33
-3.2195396e-33
2.9480235e-21
-2.9417485e-21
-2.8606412e-21
0
2.8123994e-21
-1.6087949e-33
-2.9611855e-21
2.9385944e-21
1.5951966e-33
-2.8528161e-21
0
3.0250809e-21
1.5498667e-21
-3.1137229e-21
1.5625255e-21
3.5502499e-33
-3.311375e-21
3.3968374e-21
3.3860715e-21
0
0
0
-3.7366547e-21
-3.8542261e-21
3.8604975e-21
0
-3.8884597e-21
0
-2.0599946e-21
4.2113541e-21
2.1311241e-21
-2.1578236e-21
4.4072392e-21
2.2414273e-21
-4.4862477e-21
-2.1990919e-21
-2.3812106e-33
2.1777073e-21
-5.0966026e-33
1.3737427e-36
4.9547058e-21
0
-2.34476e-21
-4.4927789e-21
-2.2233359e-21
0
0
0
-2.5203503e-21
4.9942751e-21
2.4329109e-21
-2.3704269e-21
-2.3336883e-21
2.3195344e-21
2.3207348e-21
-4.6535622e-21
0
4.7077817e-21
4.7290633e-21
0
0
-4.3742734e-21
-2.3791749e-33
-2.15436e-21
-2.2027341e-21
2.2166083e-21
-2.1751165e-21
2.1013423e-21
4.0674051e-21
2.0144016e-21
0
-4.1321729e-21
-2.2796751e-33
1.9933928e-21
-1.9257515e-21
-1.8940351e-21
-3.8064822e-21
3.8494112e-21
1.9159766e-21
-5.2867266e-37
1.796517e-21
-3.5613931e-21
1.8123795e-21
-1.8448133e-21
-1.4811663e-49
1.7736129e-21
-3.4197089e-21
3.4082769e-21
3.5037723e-21
0
-1.8197401e-21
-3.5051784e-21
9.2896943e-34
1.6399236e-21
1.6722067e-21
-3.4991144e-21
-3.6197744e-21
1.8127837e-21
3.5067001e-21
3.3808426e-21
-1.6650941e-21
-3.3899896e-21
1.7677458e-21
-1.83531e-21
3.0862871e-33
1.8129188e-21
-3.5214719e-21
3.4733176e-21
1.9613736e-33
-1.0222751e-32
3.8125575e-21
-3.8531906e-21
-8.4302826e-33
1.8665509e-21
-3.7380099e-21
1.9134479e-21
-5.6420443e-37
9.010554e-33
2.0164078e-21
-3.9774889e-21
4.4016632e-33
-1.1188942e-33
2.0888797e-21
-6.0795135e-37
-4.2832386e-21
4.23424e-21
1.1903928e-36
-9.3963269e-33
4.369651e-21
-4.4977719e-21
-5.0434655e-33
4.4947722e-21
-2.2111383e-21
-2.211881e-21
-2.2638814e-21
2.3437405e-21
-2.6440712e-33
-4.7179982e-21
0
0
4.5679205e-21
6.7005843e-37
-4.8581814e-21
2.4465103e-21
-2.6529029e-33
2.3155233e-21
5.0430008e-33
-4.5975591e-21
0
-2.4508932e-21
4.8970761e-21
2.362153e-21
-5.0279028e-33
2.1860348e-21
-4.376597e-21
2.2715017e-21
-2.5943959e-33
-4.6953259e-21
0
0
2.063211e-21
-1.1141641e-33
2.0361596e-21
-2.0985527e-21
-6.3959656e-21
6.3415942e-21
2.0391595e-21
-3.8751367e-21
1.8471416e-21
2.9994418e-33
1.8077821e-21
-1.0418164e-36
-6.132158e-33
1.8103693e-21
-3.4760293e-21
-1.6502033e-21
0
-1.5430297e-21
1.5499261e-21
1.5660188e-21
1.5526323e-21
-3.3339578e-33
1.5910749e-33
-1.5291648e-33
-2.7156565e-21
1.365669e-21
2.2722124e-33
-2.6628883e-21
1.8070437e-37
1.2196601e-21
2.4209275e-21
2.4682057e-21
-2.5142267e-21
-1.383389e-33
-1.1897149e-21
-1.1329746e-21
2.2251379e-21
-2.2636186e-21
-1.1708423e-21
3.5630721e-21
2.3341767e-21
-1.1248833e-21
-2.1911922e-21
-1.1032664e-21
1.1369427e-21
2.3323397e-21
-2.3323972e-21
-3.4072679e-21
1.107928e-21
1.112585e-21
2.2892597e-21
1.1790135e-21
-2.3685587e-21
-1.1505485e-21
-1.1150425e-21
2.2277368e-21
1.1458909e-21
-2.3784847e-21
2.4120064e-21
7.0378643e-50
3.2560865e-37
2.2522826e-21
-2.2639897e-21
-3.8395224e-33
-1.2919374e-33
-3.839812e-33
2.0459162e-50
-3.3631574e-21