/*--------------------------------*- C++ -*----------------------------------*\
| =========                 |                                                 |
| \\      /  F ield         | OpenFOAM: The Open Source CFD Toolbox           |
|  \\    /   O peration     | Version:  4.x                                   |
|   \\  /    A nd           | Web:      www.OpenFOAM.org                      |
|    \\/     M anipulation  |                                                 |
\*---------------------------------------------------------------------------*/
FoamFile
{
    version     2.0;
    format      ascii;
    class       volScalarField;
    location    "0.19";
    object      rho;
}
// * * * * * * * * * * * * * * * * * * * * * * * * * * * * * * * * * * * * * //

dimensions      [1 -3 0 0 0 0 0];

internalField   nonuniform List<scalar> 
25344
(
1.158634341
1.158634349
1.158634333
1.158634321
1.158634307
1.158634295
1.158634348
1.158634342
1.158634325
1.158634306
1.158634289
1.158634273
1.158634338
1.158634335
1.158634323
1.158634307
1.158634288
1.158634274
1.158634332
1.158634332
1.158634321
1.158634306
1.158634285
1.15863427
1.15863433
1.158634328
1.158634321
1.158634308
1.158634285
1.158634273
1.158634322
1.158634319
1.158634323
1.158634308
1.158634282
1.158634274
1.158634323
1.158634297
1.158634234
1.158634154
1.15863405
1.15863396
1.158634305
1.158634262
1.15863417
1.158634055
1.158633885
1.158633751
1.158634288
1.158634244
1.158634152
1.158634022
1.15863381
1.158633683
1.158634281
1.158634245
1.158634161
1.15863401
1.158633788
1.158633681
1.158634257
1.158634203
1.158634101
1.158633954
1.158633774
1.158633722
1.158634201
1.158634117
1.158634023
1.158633898
1.158633751
1.15863374
1.158634175
1.158634037
1.158633834
1.158633556
1.158633289
1.158633106
1.158634092
1.158633893
1.158633556
1.158633078
1.158632502
1.158632145
1.158634048
1.158633852
1.158633429
1.158632906
1.158632257
1.158631915
1.158634009
1.158633824
1.158633416
1.158632832
1.158632249
1.158632019
1.158633903
1.158633595
1.158633162
1.158632641
1.158632234
1.158632165
1.158633721
1.158633232
1.158632812
1.158632411
1.158632148
1.158632216
1.158634
1.158633705
1.158633392
1.158633048
1.158632795
1.158632672
1.158633784
1.158633226
1.15863267
1.158631965
1.158631346
1.158631047
1.158633686
1.158633097
1.158632418
1.158631709
1.158631096
1.158630787
1.158633589
1.158632921
1.158632293
1.158631597
1.158631152
1.158630953
1.158633461
1.158632581
1.15863197
1.158631391
1.158631136
1.158631048
1.158633286
1.158632166
1.158631532
1.158631096
1.158631037
1.158631168
1.158633866
1.1586334
1.158633049
1.158632777
1.158632688
1.158632687
1.158633469
1.158632566
1.158631917
1.158631304
1.158630986
1.158630892
1.158633326
1.158632328
1.158631622
1.158631056
1.15863073
1.158630572
1.158633247
1.158632162
1.15863154
1.158630973
1.158630752
1.158630611
1.158633204
1.158631947
1.158631294
1.15863078
1.158630678
1.158630586
1.158633114
1.15863168
1.158630959
1.158630555
1.158630635
1.158630794
1.158633733
1.15863307
1.158632762
1.158632651
1.158632737
1.1586329
1.158633142
1.158631874
1.158631259
1.158630932
1.15863098
1.158631155
1.158632987
1.158631624
1.158630954
1.158630624
1.158630631
1.1586307
1.158632994
1.158631596
1.158630929
1.158630479
1.158630484
1.158630534
1.15863303
1.15863155
1.158630805
1.158630312
1.158630344
1.158630443
1.158633045
1.158631514
1.15863075
1.158630337
1.158630471
1.158630729
1.158633614
1.158632856
1.158632606
1.15863261
1.158632819
1.158633055
1.158632895
1.158631343
1.158630805
1.158630736
1.158631077
1.158631532
1.158632734
1.158631062
1.158630394
1.158630236
1.158630518
1.158630902
1.158632746
1.158631042
1.158630328
1.158629978
1.15863017
1.158630473
1.158632807
1.158631133
1.158630369
1.158629932
1.158630093
1.158630352
1.15863299
1.158631469
1.158630724
1.158630291
1.158630419
1.158630713
1.158633593
1.158632812
1.158632573
1.158632633
1.158632868
1.158633107
1.158632817
1.158631098
1.158630634
1.158630731
1.158631195
1.158631657
1.158632563
1.158630625
1.15863001
1.158630032
1.158630453
1.158630936
1.158632504
1.158630545
1.158629896
1.158629688
1.158629924
1.158630301
1.158632629
1.158630816
1.158630127
1.158629769
1.158629878
1.158630057
1.15863299
1.158631513
1.158630817
1.158630368
1.158630384
1.158630556
1.158633641
1.158632816
1.158632606
1.158632712
1.158632907
1.158633021
1.158632788
1.158631025
1.158630608
1.158630801
1.158631301
1.158631697
1.158632472
1.158630397
1.158629857
1.158630009
1.158630479
1.158630964
1.158632411
1.158630312
1.158629728
1.158629636
1.158629831
1.158630044
1.158632597
1.158630716
1.158630094
1.158629784
1.158629707
1.158629528
1.158633044
1.15863165
1.158631067
1.158630605
1.158630306
1.158629988
1.158633637
1.15863283
1.158632632
1.158632708
1.158632888
1.158633068
1.158632795
1.158631044
1.15863061
1.158630813
1.158631339
1.158631819
1.158632494
1.158630387
1.158629843
1.158630029
1.158630561
1.158631078
1.158632457
1.158630317
1.158629734
1.158629679
1.158629852
1.158629947
1.158632669
1.158630769
1.158630157
1.158629882
1.158629674
1.15862916
1.15863317
1.158631839
1.158631264
1.158630777
1.158630255
1.158629458
1.158633653
1.15863295
1.158632674
1.158632658
1.158632874
1.158633171
1.158632947
1.158631231
1.158630665
1.158630754
1.158631299
1.158631899
1.158632684
1.158630582
1.15862993
1.158630058
1.1586306
1.158631175
1.15863267
1.158630547
1.158629883
1.158629833
1.158629988
1.158630053
1.158632889
1.15863104
1.158630379
1.158630106
1.158629803
1.158629218
1.15863336
1.158632129
1.158631516
1.158630981
1.15863034
1.158629429
1.15863379
1.158633134
1.158632716
1.158632605
1.15863283
1.158633211
1.158633202
1.158631585
1.1586308
1.158630708
1.158631232
1.158631984
1.158632981
1.158631084
1.158630231
1.158630189
1.158630684
1.158631381
1.158633042
1.158631191
1.15863038
1.158630246
1.158630426
1.158630604
1.158633257
1.158631702
1.158630948
1.158630624
1.158630398
1.158630012
1.158633563
1.158632497
1.15863185
1.158631353
1.158630822
1.158630004
1.158633836
1.158633111
1.158632682
1.158632534
1.158632695
1.158633119
1.158633237
1.158631744
1.158630932
1.158630674
1.158631074
1.158631916
1.15863317
1.158631568
1.158630618
1.158630304
1.158630665
1.158631459
1.158633318
1.158631811
1.158630867
1.158630487
1.158630649
1.158631121
1.15863344
1.158632127
1.158631289
1.158630891
1.158630866
1.158630984
1.15863355
1.158632533
1.158631887
1.158631507
1.158631335
1.158631016
1.158633753
1.158633016
1.158632649
1.158632474
1.158632547
1.158632934
1.158633187
1.158631811
1.158630971
1.158630548
1.158630749
1.158631609
1.158633233
1.158631758
1.158630699
1.158630201
1.158630394
1.158631204
1.158633354
1.15863194
1.158630902
1.158630398
1.158630487
1.158631013
1.158633372
1.15863208
1.158631209
1.158630797
1.158630812
1.158631041
1.158633329
1.158632212
1.158631605
1.158631389
1.158631372
1.158631231
1.158634319
1.158634313
1.158634319
1.158634299
1.158634277
1.158634272
1.158634306
1.158634307
1.158634306
1.158634291
1.158634274
1.158634275
1.158634305
1.158634306
1.158634304
1.158634297
1.158634283
1.15863429
1.158634313
1.158634305
1.158634314
1.158634314
1.158634302
1.158634307
1.158634312
1.158634304
1.158634328
1.158634323
1.158634308
1.158634319
1.158634307
1.158634312
1.158634338
1.158634323
1.158634322
1.158634331
1.158634308
1.158634317
1.158634336
1.158634348
1.158634348
1.158634347
1.158634308
1.158634308
1.158634317
1.158634324
1.158634326
1.158634338
1.158634306
1.1586343
1.158634306
1.158634308
1.15863431
1.15863433
1.158634302
1.158634296
1.158634299
1.158634299
1.158634302
1.158634322
1.158634302
1.158634294
1.158634295
1.158634293
1.158634293
1.158634307
1.158634304
1.158634292
1.158634292
1.158634288
1.158634285
1.158634294
1.158634134
1.158634004
1.158633933
1.158633845
1.158633747
1.158633783
1.158634074
1.158633943
1.158633904
1.15863388
1.158633843
1.158633932
1.158634055
1.158633955
1.158633976
1.158634027
1.158634056
1.158634208
1.158634083
1.158634022
1.158634096
1.158634193
1.158634289
1.158634494
1.158634123
1.158634115
1.158634215
1.158634355
1.158634512
1.158634664
1.158634175
1.158634193
1.158634298
1.158634483
1.158634602
1.158634669
1.15863419
1.158634184
1.158634255
1.158634363
1.158634433
1.158634498
1.158634137
1.158634071
1.158634099
1.158634177
1.158634232
1.158634325
1.158634055
1.158633915
1.158633919
1.158634006
1.158634102
1.158634256
1.158633975
1.158633791
1.158633801
1.158633904
1.158634014
1.158634194
1.158633944
1.158633764
1.158633775
1.158633853
1.158633942
1.158634117
1.158633976
1.158633806
1.158633797
1.158633837
1.158633908
1.158634063
1.158633524
1.158632858
1.158632538
1.158632292
1.158632228
1.158632489
1.158633412
1.158632733
1.158632539
1.158632526
1.158632698
1.158633155
1.158633416
1.158632838
1.158632834
1.158633083
1.158633468
1.158633982
1.158633543
1.158633122
1.158633289
1.158633725
1.158634197
1.158634622
1.15863373
1.158633513
1.158633778
1.158634279
1.158634692
1.15863496
1.158633899
1.158633802
1.158634065
1.158634472
1.158634736
1.158634845
1.158633892
1.158633693
1.158633843
1.158634157
1.158634331
1.15863446
1.158633683
1.158633214
1.158633217
1.15863346
1.158633758
1.158634127
1.158633417
1.15863266
1.158632583
1.158632873
1.158633343
1.158633937
1.158633227
1.158632317
1.158632241
1.158632555
1.158633057
1.158633725
1.15863319
1.158632286
1.158632194
1.158632431
1.158632844
1.158633488
1.15863324
1.15863238
1.158632259
1.158632424
1.158632757
1.158633287
1.158633119
1.158631856
1.158631335
1.158631089
1.158631288
1.15863172
1.158633071
1.15863185
1.158631497
1.158631558
1.158632074
1.158632691
1.158633156
1.158632101
1.158632001
1.1586324
1.158633138
1.158633741
1.158633369
1.158632585
1.158632732
1.15863335
1.158634068
1.158634534
1.15863364
1.158633197
1.158633479
1.158634124
1.158634647
1.158634892
1.158633858
1.158633588
1.158633824
1.158634306
1.158634635
1.158634713
1.158633825
1.158633363
1.158633395
1.158633654
1.158633995
1.158634161
1.158633542
1.158632671
1.158632494
1.158632693
1.158633181
1.158633593
1.158633233
1.158631983
1.158631708
1.158631969
1.15863261
1.158633249
1.158633039
1.158631598
1.158631314
1.158631585
1.158632214
1.158632991
1.158632992
1.158631541
1.158631253
1.158631448
1.158631951
1.158632735
1.158632992
1.15863159
1.15863133
1.158631475
1.158631841
1.158632467
1.158633052
1.158631578
1.15863096
1.158630718
1.158631037
1.158631478
1.158633099
1.158631721
1.158631288
1.158631336
1.158631911
1.158632434
1.158633251
1.158632072
1.158631901
1.15863224
1.158632935
1.158633358
1.158633484
1.158632609
1.15863269
1.15863316
1.158633784
1.158634108
1.158633745
1.158633239
1.158633432
1.158633822
1.15863429
1.158634425
1.158633943
1.15863362
1.158633732
1.158633924
1.158634205
1.158634168
1.158633903
1.158633386
1.158633279
1.158633304
1.15863354
1.158633496
1.158633649
1.158632719
1.15863241
1.158632421
1.158632748
1.158632853
1.158633403
1.158632083
1.158631673
1.158631773
1.158632178
1.158632519
1.158633245
1.158631707
1.158631297
1.15863143
1.158631831
1.158632377
1.158633155
1.158631596
1.158631225
1.158631307
1.158631618
1.158632242
1.158633095
1.158631603
1.158631297
1.158631324
1.158631466
1.158631959
1.158633148
1.15863166
1.158631006
1.158630721
1.158631025
1.158631434
1.158633368
1.158632001
1.158631487
1.158631422
1.158631901
1.15863229
1.158633606
1.158632481
1.158632161
1.158632293
1.158632746
1.158633034
1.158633774
1.158632984
1.158632879
1.158633045
1.158633385
1.158633652
1.158633897
1.158633457
1.158633458
1.158633528
1.158633808
1.158633979
1.158633997
1.158633715
1.158633687
1.158633637
1.158633813
1.158633748
1.158633947
1.158633499
1.158633286
1.15863314
1.158633249
1.15863306
1.15863377
1.158633008
1.158632584
1.158632393
1.158632505
1.158632396
1.158633625
1.158632587
1.158632051
1.158631876
1.158632011
1.158632123
1.15863352
1.158632307
1.158631798
1.158631633
1.158631763
1.158632081
1.158633426
1.158632154
1.158631736
1.158631536
1.158631583
1.158631981
1.158633376
1.158632131
1.158631784
1.158631505
1.15863135
1.158631634
1.158633339
1.158632052
1.158631358
1.158630932
1.158631114
1.158631424
1.158633724
1.158632746
1.158632138
1.158631795
1.158631985
1.15863221
1.158633954
1.158633242
1.158632802
1.15863256
1.158632702
1.158632875
1.158633977
1.158633446
1.158633218
1.158633081
1.158633201
1.158633465
1.158633931
1.15863358
1.15863351
1.15863344
1.158633638
1.15863386
1.158633932
1.158633677
1.158633626
1.158633526
1.158633691
1.158633633
1.158633859
1.158633456
1.158633255
1.158633053
1.158633113
1.158632872
1.158633704
1.158633046
1.15863265
1.158632351
1.158632357
1.158632187
1.1586336
1.158632773
1.158632286
1.158631932
1.158631921
1.158631971
1.158633551
1.158632651
1.158632203
1.158631816
1.158631748
1.158631967
1.158633521
1.158632606
1.15863221
1.158631747
1.158631569
1.158631835
1.15863352
1.158632631
1.158632217
1.15863163
1.158631248
1.158631378
1.158633519
1.158632544
1.158631936
1.158631378
1.15863121
1.158631326
1.158634006
1.15863347
1.158632932
1.158632336
1.158632035
1.158632053
1.158634203
1.158633869
1.158633465
1.158632951
1.15863267
1.15863273
1.158634102
1.158633781
1.15863356
1.158633225
1.158633146
1.158633384
1.158633936
1.158633639
1.158633565
1.158633459
1.158633615
1.158633837
1.158633823
1.158633511
1.15863348
1.158633447
1.158633631
1.158633567
1.158633653
1.158633193
1.158633038
1.158632866
1.158632925
1.158632659
1.158633462
1.158632816
1.158632448
1.158632128
1.158632087
1.158631898
1.158633405
1.158632644
1.158632166
1.158631772
1.158631718
1.158631741
1.158633467
1.158632652
1.158632185
1.158631731
1.158631635
1.158631783
1.158633526
1.158632704
1.158632237
1.158631679
1.158631441
1.158631619
1.158633543
1.158632719
1.158632198
1.158631493
1.158630998
1.158631108
1.15863369
1.158632967
1.158632445
1.158631752
1.158631186
1.158630923
1.158634215
1.158634006
1.15863351
1.158632655
1.158631959
1.158631681
1.158634388
1.158634343
1.158633933
1.158633146
1.158632536
1.158632402
1.158634245
1.158634109
1.158633853
1.158633365
1.158633055
1.158633202
1.158634014
1.158633744
1.158633628
1.158633525
1.158633578
1.15863375
1.158633828
1.158633364
1.158633235
1.158633284
1.158633479
1.158633398
1.158633508
1.158632659
1.158632386
1.158632328
1.158632423
1.158632138
1.158633182
1.158632067
1.158631591
1.158631333
1.15863135
1.158631168
1.158633122
1.158632001
1.158631412
1.158631022
1.158631035
1.158631057
1.158633297
1.158632319
1.158631695
1.158631176
1.158631098
1.158631207
1.158633453
1.158632536
1.158631876
1.158631205
1.158630932
1.158631082
1.158633444
1.158632493
1.158631744
1.15863092
1.158630441
1.15863064
1.158633818
1.15863323
1.158632698
1.15863188
1.158631024
1.158630339
1.15863431
1.15863425
1.158633715
1.158632673
1.158631618
1.15863099
1.15863449
1.158634593
1.158634099
1.158633124
1.158632129
1.158631654
1.158634413
1.158634414
1.158634045
1.158633381
1.158632785
1.158632651
1.158634222
1.158634005
1.158633776
1.158633558
1.158633399
1.158633377
1.15863394
1.158633371
1.158633145
1.158633121
1.158633134
1.158632983
1.158633468
1.15863232
1.158631881
1.158631846
1.158631911
1.158631701
1.158632993
1.158631411
1.158630784
1.158630662
1.158630788
1.158630694
1.15863288
1.158631287
1.158630572
1.158630366
1.158630496
1.158630541
1.158633075
1.158631724
1.158630996
1.158630647
1.158630626
1.1586307
1.158633249
1.158632031
1.15863126
1.158630733
1.158630504
1.158630609
1.158633161
1.158631844
1.158631037
1.158630398
1.158630042
1.158630221
1.158633898
1.158633364
1.158632793
1.158631913
1.158630968
1.158630124
1.158634311
1.158634273
1.158633697
1.158632532
1.158631235
1.158630383
1.158634489
1.158634623
1.158634071
1.158632929
1.15863159
1.158630778
1.158634474
1.158634559
1.158634106
1.158633302
1.158632292
1.158631734
1.15863437
1.1586343
1.158633977
1.158633572
1.158633045
1.158632728
1.158634088
1.158633563
1.15863323
1.158633124
1.158632929
1.158632683
1.158633523
1.158632338
1.158631859
1.15863182
1.158631855
1.158631682
1.158632996
1.158631325
1.1586307
1.158630657
1.158630818
1.158630759
1.158632855
1.158631154
1.158630472
1.158630379
1.158630537
1.158630575
1.158633013
1.158631529
1.158630876
1.158630645
1.158630631
1.15863067
1.158633112
1.158631707
1.158631068
1.158630685
1.158630472
1.158630534
1.158632965
1.158631424
1.158630766
1.158630299
1.158630013
1.15863018
1.158633891
1.158633357
1.158632781
1.158631979
1.15863112
1.158630306
1.158634187
1.158634102
1.158633506
1.158632369
1.158631153
1.15863025
1.158634346
1.158634443
1.158633849
1.158632661
1.158631301
1.158630351
1.158634394
1.158634492
1.158634026
1.158633131
1.15863195
1.158631153
1.158634373
1.158634399
1.158634088
1.158633587
1.158632836
1.1586323
1.158634187
1.158633877
1.158633544
1.158633316
1.158632966
1.158632625
1.158633702
1.15863264
1.158632203
1.158632184
1.158632173
1.15863202
1.158633219
1.158631649
1.158631141
1.158631232
1.158631418
1.158631359
1.158633063
1.158631442
1.158630898
1.15863097
1.158631106
1.158631053
1.158633134
1.158631671
1.158631133
1.158631029
1.158630973
1.158630936
1.158633126
1.158631701
1.158631145
1.158630846
1.158630663
1.158630747
1.158632963
1.158631404
1.158630838
1.15863049
1.158630322
1.158630551
1.158633695
1.158633086
1.158632569
1.158631968
1.158631442
1.158630862
1.158633797
1.158633467
1.158632954
1.158632155
1.15863122
1.158630422
1.158633899
1.158633725
1.158633213
1.15863237
1.158631264
1.15863036
1.158634041
1.158633994
1.158633625
1.158632893
1.158631826
1.158630973
1.158634189
1.158634221
1.158634022
1.158633566
1.158632759
1.158632101
1.158634186
1.15863405
1.158633905
1.158633662
1.158633141
1.1586326
1.158633959
1.158633347
1.15863315
1.158633098
1.158632865
1.15863238
1.158633701
1.158632683
1.158632458
1.15863252
1.15863238
1.158631919
1.158633523
1.158632359
1.158632055
1.158632047
1.15863186
1.158631516
1.158633385
1.158632144
1.158631779
1.158631642
1.158631477
1.158631439
1.158633166
1.158631818
1.158631449
1.158631308
1.158631292
1.158631525
1.158633045
1.15863165
1.158631347
1.158631321
1.158631481
1.15863187
1.158633303
1.158632351
1.158631976
1.158631815
1.158631644
1.158631511
1.158633366
1.158632592
1.158632312
1.158632028
1.15863154
1.15863122
1.158633518
1.158632931
1.15863269
1.158632299
1.158631501
1.158630835
1.158633735
1.158633356
1.1586332
1.158632801
1.158631907
1.158631014
1.158633971
1.158633849
1.158633798
1.15863349
1.158632703
1.158631719
1.158634136
1.158634104
1.158634063
1.158633814
1.158633165
1.1586323
1.158634162
1.158634
1.158633948
1.158633754
1.158633177
1.158632342
1.158634054
1.158633669
1.158633552
1.158633358
1.158632758
1.158631988
1.158633812
1.158633123
1.158632888
1.158632632
1.158632039
1.158631485
1.158633449
1.158632433
1.15863218
1.158631983
1.15863166
1.158631512
1.158633156
1.158632026
1.158631877
1.158631835
1.158631847
1.158632059
1.158633194
1.158632313
1.158632402
1.158632579
1.158632711
1.158632831
1.158634303
1.158634293
1.158634293
1.158634289
1.158634286
1.158634295
1.158634303
1.1586343
1.158634302
1.158634299
1.158634296
1.158634302
1.158634312
1.158634311
1.158634313
1.158634305
1.1586343
1.158634303
1.15863432
1.158634319
1.158634312
1.158634301
1.1586343
1.158634308
1.158634324
1.158634318
1.158634307
1.158634297
1.158634304
1.158634315
1.158634332
1.158634319
1.158634313
1.158634314
1.158634323
1.158634326
1.158633996
1.158633831
1.158633815
1.158633855
1.158633929
1.158634036
1.158634006
1.158633877
1.158633893
1.158633947
1.158633993
1.158634011
1.158634064
1.158633995
1.158634038
1.158634064
1.158634042
1.158633995
1.158634149
1.1586341
1.158634126
1.15863411
1.15863404
1.15863396
1.158634217
1.158634156
1.158634147
1.1586341
1.158634009
1.158633914
1.158634278
1.15863422
1.158634188
1.158634151
1.158634097
1.158634044
1.158633252
1.158632422
1.158632343
1.158632535
1.158632797
1.158633091
1.158633302
1.158632586
1.158632606
1.158632808
1.158632912
1.158632888
1.158633481
1.158632959
1.158633035
1.158633103
1.158632958
1.158632717
1.158633704
1.158633307
1.158633341
1.158633231
1.158632867
1.158632548
1.158633901
1.158633527
1.158633433
1.158633185
1.158632769
1.158632485
1.158634135
1.15863387
1.158633714
1.158633535
1.158633347
1.158633268
1.158632977
1.158631656
1.158631494
1.158631649
1.158631827
1.158632098
1.158633053
1.158631896
1.158631781
1.158631853
1.158631766
1.158631674
1.158633247
1.15863225
1.158632065
1.158631901
1.158631536
1.158631292
1.158633442
1.158632528
1.158632236
1.158631855
1.158631331
1.158631099
1.15863361
1.158632758
1.158632345
1.158631875
1.158631408
1.158631296
1.158633988
1.158633523
1.158633218
1.158632942
1.158632756
1.158632768
1.158633092
1.158631692
1.158631464
1.158631408
1.158631275
1.158631422
1.158633197
1.158631926
1.158631663
1.158631411
1.158631009
1.158630882
1.158633337
1.15863217
1.158631745
1.158631283
1.158630747
1.158630549
1.158633444
1.158632313
1.158631735
1.158631135
1.158630555
1.158630413
1.15863356
1.158632487
1.158631821
1.158631217
1.15863076
1.158630741
1.15863397
1.158633453
1.158633062
1.158632713
1.158632494
1.158632496
1.158633414
1.158632243
1.158631869
1.158631427
1.158630948
1.158630915
1.158633488
1.158632365
1.158631857
1.158631257
1.158630582
1.158630357
1.158633536
1.15863242
1.158631792
1.158631099
1.158630419
1.158630164
1.158633591
1.158632478
1.158631725
1.158630966
1.158630303
1.158630123
1.158633694
1.158632625
1.158631813
1.158631094
1.158630562
1.158630488
1.158634049
1.158633566
1.158633096
1.158632675
1.158632402
1.158632371
1.158633552
1.158632667
1.158632138
1.15863139
1.158630695
1.158630542
1.15863356
1.158632601
1.158631928
1.158631092
1.158630288
1.15863001
1.158633567
1.158632565
1.158631808
1.158630975
1.158630224
1.158629926
1.158633651
1.158632654
1.158631777
1.158630919
1.158630221
1.158630034
1.158633789
1.158632848
1.158631931
1.15863111
1.158630541
1.158630466
1.158634081
1.158633623
1.158633122
1.158632679
1.158632409
1.158632384
1.158633523
1.158632649
1.158632004
1.158631097
1.158630305
1.158630283
1.158633447
1.158632455
1.158631685
1.158630681
1.15862987
1.158629789
1.158633408
1.158632372
1.158631568
1.158630642
1.158629878
1.158629765
1.158633511
1.158632504
1.15863162
1.158630734
1.158630065
1.158630026
1.158633691
1.158632764
1.158631855
1.158631027
1.158630495
1.158630523
1.158634024
1.158633541
1.158633052
1.15863263
1.158632401
1.158632427
1.158633284
1.158632169
1.158631286
1.158630323
1.158629745
1.15862994
1.158633033
1.158631661
1.158630742
1.158629812
1.15862932
1.158629533
1.158632921
1.158631486
1.158630634
1.158629832
1.158629396
1.158629595
1.158633091
1.158631785
1.158630924
1.158630157
1.158629738
1.158629964
1.158633441
1.15863235
1.15863148
1.158630726
1.158630349
1.15863053
1.158633957
1.158633418
1.158632941
1.158632546
1.15863237
1.158632447
1.158632875
1.158631265
1.158630425
1.158629743
1.158629412
1.158629691
1.158632611
1.158630724
1.158629888
1.158629288
1.158629078
1.158629428
1.158632597
1.158630735
1.158629961
1.158629433
1.158629244
1.158629563
1.158632924
1.158631355
1.15863054
1.158629917
1.158629644
1.158629936
1.158633414
1.158632234
1.158631376
1.158630658
1.158630333
1.158630551
1.158633985
1.158633457
1.158632979
1.158632584
1.158632426
1.158632533
1.158632732
1.158630922
1.158630209
1.158629702
1.158629471
1.158629766
1.158632581
1.158630577
1.158629836
1.158629369
1.158629252
1.158629606
1.15863268
1.158630793
1.158630079
1.158629639
1.158629486
1.158629753
1.158633115
1.15863159
1.158630802
1.15863019
1.158629865
1.158630047
1.15863366
1.158632591
1.15863175
1.15863099
1.158630569
1.158630682
1.158634128
1.158633726
1.158633261
1.158632831
1.158632618
1.15863265
1.158632842
1.158631093
1.158630515
1.15863019
1.15863013
1.158630468
1.158632878
1.158631069
1.158630518
1.158630275
1.158630281
1.158630565
1.158633203
1.158631706
1.158631175
1.158630806
1.158630547
1.158630536
1.158633721
1.158632718
1.158632033
1.158631289
1.15863068
1.158630467
1.158634125
1.158633564
1.158632808
1.158631859
1.15863113
1.158630901
1.158634287
1.158634076
1.15863365
1.158633158
1.158632824
1.158632719
1.158633187
1.158631911
1.158631749
1.158631808
1.158631939
1.15863218
1.1586335
1.15863253
1.158632397
1.158632305
1.158632149
1.158632023
1.158633892
1.158633339
1.158633034
1.158632521
1.158631876
1.158631359
1.158634255
1.158634004
1.158633451
1.158632517
1.158631537
1.158630862
1.158634444
1.158634353
1.15863369
1.158632631
1.15863165
1.158631074
1.158634389
1.158634322
1.158633954
1.158633463
1.158633045
1.158632792
1.158633618
1.158633235
1.158633461
1.158633518
1.158633337
1.158633061
1.158634085
1.158634059
1.158634134
1.158633853
1.158633234
1.158632565
1.158634402
1.158634574
1.158634344
1.158633596
1.158632549
1.158631618
1.158634588
1.158634831
1.158634348
1.158633253
1.15863203
1.158631064
1.158634639
1.158634831
1.158634259
1.158633184
1.158632095
1.158631312
1.158634465
1.158634509
1.158634226
1.158633768
1.158633313
1.158632945
1.158634289
1.158634286
1.158634289
1.158634251
1.158634282
1.158634302
1.1586343
1.158634312
1.158634321
1.158634328
1.15863433
1.158634326
1.158634269
1.158634277
1.158634264
1.158634236
1.158634278
1.158634304
1.158634299
1.158634302
1.158634316
1.158634319
1.158634327
1.158634339
1.158634275
1.158634284
1.158634279
1.158634253
1.158634255
1.158634292
1.158634294
1.158634296
1.158634299
1.158634318
1.158634334
1.158634348
1.158634275
1.158634288
1.158634281
1.158634243
1.158634253
1.158634282
1.158634291
1.15863429
1.158634301
1.158634328
1.158634336
1.158634339
1.158634283
1.158634298
1.158634287
1.158634234
1.15863425
1.158634264
1.158634285
1.158634295
1.158634315
1.158634327
1.158634331
1.158634332
1.158634288
1.158634303
1.158634295
1.15863424
1.158634248
1.158634277
1.158634291
1.158634311
1.158634313
1.158634327
1.158634329
1.158634336
1.158633925
1.158633926
1.158633865
1.158633764
1.158634121
1.158634077
1.158633991
1.158633995
1.158634069
1.158634193
1.158634315
1.158634435
1.158633726
1.158633788
1.158633749
1.158633583
1.158633978
1.158633959
1.158633808
1.158633793
1.158633949
1.158634178
1.158634415
1.158634639
1.158633691
1.158633786
1.158633821
1.158633717
1.158633956
1.158633921
1.158633841
1.158633845
1.158633974
1.158634247
1.158634576
1.158634737
1.158633717
1.158633836
1.158633895
1.158633798
1.158633998
1.158633947
1.158633914
1.158633947
1.15863412
1.158634434
1.158634698
1.158634793
1.158633813
1.15863396
1.158634015
1.158633927
1.158634126
1.158634006
1.158633982
1.158634073
1.158634303
1.158634608
1.158634818
1.158634907
1.15863388
1.158634054
1.158634136
1.158634081
1.158634248
1.158634144
1.158634108
1.15863424
1.158634498
1.158634774
1.158634979
1.158635061
1.158633059
1.158633142
1.158633187
1.158632948
1.158633395
1.158633214
1.158633006
1.158633044
1.158633376
1.158633833
1.158634224
1.158634456
1.15863208
1.158632306
1.158632502
1.158632164
1.158632817
1.158632441
1.158632061
1.158632168
1.158632833
1.158633711
1.158634387
1.158634806
1.158631916
1.158632191
1.158632383
1.158632054
1.158632841
1.158632433
1.158632126
1.158632271
1.158632939
1.158633922
1.158634662
1.158634958
1.158632069
1.158632374
1.15863252
1.158632276
1.158633252
1.158632709
1.158632464
1.158632684
1.158633455
1.158634398
1.158635002
1.158635139
1.158632333
1.158632747
1.158632968
1.158632901
1.158633806
1.158633172
1.158632917
1.158633267
1.158634139
1.158635021
1.158635524
1.158635548
1.158632558
1.158633107
1.158633473
1.158633552
1.158634115
1.158633673
1.158633463
1.158633924
1.158634762
1.15863565
1.158636086
1.158636027
1.15863264
1.158632695
1.158632691
1.158632444
1.158632464
1.15863227
1.158632185
1.158632399
1.158632936
1.158633575
1.158634085
1.15863437
1.158630963
1.158631187
1.158631384
1.158630888
1.158630911
1.158630401
1.158630232
1.15863075
1.158631913
1.158633211
1.15863422
1.158634693
1.15863072
1.158630967
1.158631104
1.158630613
1.158631164
1.158630396
1.158630206
1.158630802
1.158632082
1.158633537
1.158634537
1.158634825
1.158630892
1.158631189
1.158631469
1.158631079
1.15863216
1.158631121
1.158630825
1.158631475
1.158632859
1.158634221
1.158634928
1.158635015
1.158631082
1.158631545
1.15863211
1.158631987
1.158633018
1.158631992
1.158631685
1.158632468
1.158633879
1.158635046
1.158635606
1.158635513
1.158631443
1.15863206
1.158632737
1.158632904
1.158633492
1.158632698
1.158632547
1.158633443
1.158634745
1.158635889
1.158636345
1.158636102
1.15863266
1.158632592
1.158632352
1.158632191
1.158632057
1.158631904
1.158631943
1.1586322
1.15863275
1.158633381
1.158633851
1.158634069
1.158630813
1.158630822
1.158630618
1.158630212
1.158629842
1.158629373
1.158629404
1.15863013
1.158631445
1.158632788
1.158633771
1.158634144
1.158630473
1.158630566
1.158630515
1.158629986
1.158630011
1.15862925
1.158629248
1.158630133
1.158631616
1.158633076
1.158633999
1.158634123
1.158630483
1.158630746
1.158631111
1.158630402
1.15863089
1.158629991
1.158629905
1.158630853
1.158632354
1.158633697
1.158634372
1.158634262
1.158630544
1.158630988
1.158631674
1.158631173
1.158631592
1.158630843
1.158630868
1.158631915
1.158633407
1.158634714
1.158635228
1.158634867
1.158630993
1.158631526
1.158632306
1.158632283
1.158632298
1.158631686
1.158631832
1.158632924
1.158634433
1.15863566
1.158636069
1.158635584
1.158632916
1.158632719
1.15863239
1.158632445
1.1586322
1.158631987
1.158631955
1.158632113
1.158632567
1.158633121
1.158633523
1.158633679
1.158631151
1.158630957
1.158630585
1.158630308
1.15862983
1.158629276
1.158629222
1.158629831
1.158630999
1.158632204
1.158633035
1.158633265
1.158630647
1.158630656
1.158630552
1.158629993
1.158629737
1.158628986
1.158628928
1.158629718
1.158631031
1.158632309
1.158633062
1.158633096
1.158630477
1.158630713
1.158630999
1.158630178
1.158630103
1.158629434
1.158629481
1.158630362
1.158631615
1.158632805
1.158633445
1.158633286
1.158630472
1.15863075
1.1586311
1.158630539
1.158630531
1.158630149
1.158630401
1.158631339
1.158632645
1.158633918
1.158634456
1.158634001
1.158630936
1.158631276
1.158631731
1.158631535
1.158631441
1.158631128
1.15863143
1.158632397
1.158633795
1.158635048
1.158635467
1.158634876
1.158633176
1.158633166
1.158632913