/*--------------------------------*- C++ -*----------------------------------*\
  =========                 |
  \\      /  F ield         | OpenFOAM: The Open Source CFD Toolbox
   \\    /   O peration     | Website:  https://openfoam.org
    \\  /    A nd           | Version:  7
     \\/     M anipulation  |
\*---------------------------------------------------------------------------*/
FoamFile
{
    version     2.0;
    format      ascii;
    class       volScalarField;
    location    "0.00225";
    object      Uz;
}
// * * * * * * * * * * * * * * * * * * * * * * * * * * * * * * * * * * * * * //

dimensions      [0 1 -1 0 0 0 0];

internalField   nonuniform List<scalar> 
5000
(
0
0
0
0
0
-2.6500719e-21
-5.1192741e-36
7.1097886e-21
2.5907061e-21
-5.4298333e-21
-5.5129453e-21
2.7648862e-21
-2.3531872e-35
-2.4152129e-35
5.4348816e-21
-5.390971e-21
3.7343064e-51
-2.3559081e-35
-2.691801e-21
5.427742e-21
2.7226624e-21
0
0
-2.6753255e-21
2.2689607e-35
-2.1886321e-35
-2.6645098e-21
2.6785115e-21
2.6880997e-21
-2.6903798e-21
4.6927715e-35
-2.279058e-35
-2.6592566e-21
2.6487196e-21
2.639519e-21
0
0
-2.6408875e-21
-2.6465488e-21
2.6461355e-21
-4.4252876e-35
-2.6325179e-21
2.6312178e-21
-4.4502588e-35
-2.6288528e-21
2.620872e-21
-8.9774673e-35
8.9111028e-35
-8.9399359e-35
4.4435576e-35
2.6122046e-21
0
0
0
0
0
0
0
0
0
0
0
0
-2.1584894e-21
-2.587197e-21
2.6093761e-21
-4.1760703e-35
3.0023075e-51
2.541061e-21
0
0
-2.5757037e-21
-2.5725093e-21
0
2.5234239e-21
8.7534731e-35
-2.5534562e-21
-2.5551831e-21
2.5306975e-21
4.9734752e-21
-4.9066345e-21
1.4001643e-36
7.5332866e-21
-5.0890629e-21
-2.6487279e-34
5.0488897e-21
-7.4775016e-21
2.4671314e-21
2.4706548e-21
-2.5061118e-21
2.5290128e-21
2.526379e-21
8.7273655e-35
-4.9416362e-21
-1.6933801e-34
-2.4612436e-21
-2.5042929e-21
-8.8689337e-35
1.7520548e-34
4.9693448e-21
2.4320814e-21
-2.4009104e-21
3.4487571e-37
2.4818536e-21
0
-2.5327e-21
-8.7389525e-35
2.4842448e-21
-2.4589142e-21
-2.442971e-21
4.9128345e-21
2.4899414e-21
-7.5237106e-21
-2.4938626e-21
7.4129314e-21
-2.438834e-21
-2.4241095e-21
-1.3946672e-36
-2.4975938e-21
7.54948e-21
-1.742846e-34
-4.9183143e-21
4.8444656e-21
2.4064458e-21
-2.4385343e-21
2.4847839e-21
-2.5046329e-21
-4.9819836e-21
2.4682541e-21
8.4339686e-35
2.4258198e-21
4.8729602e-21
-2.4665233e-21
-2.4829666e-21
-2.4777407e-21
-8.5768965e-35
-8.4630513e-35
8.4493922e-35
4.8768544e-21
2.4561913e-21
-2.464323e-21
-4.912296e-21
-2.4324562e-21
-2.4153289e-21
1.6794474e-34
4.8831173e-21
-6.972179e-37
6.9393153e-37
3.9771168e-51
2.3912723e-21
-1.657621e-34
3.3685121e-34
2.4364979e-21
-2.4299812e-21
2.4121545e-21
8.2683331e-35
-2.3677803e-21
2.3792214e-21
-3.4120894e-37
-2.4123473e-21
0
2.3831393e-21
1.6373471e-34
-4.7236375e-21
2.3727638e-21
-6.7742783e-37
-2.3791494e-21
2.3632371e-21
-2.3499978e-21
2.3473951e-21
-9.8110917e-34
-6.5321099e-34
2.3455295e-21
-4.6606217e-21
0
-1.6121256e-34
-4.8453606e-34
2.3193452e-21
2.2925348e-21
1.5649204e-34
-2.2728461e-21
2.2959806e-21
1.5900113e-34
9.7981783e-37
3.14784e-34
-4.4885417e-21
2.2334347e-21
2.2576827e-21
-1.565486e-34
1.5651065e-34
-4.6862938e-34
1.5379565e-34
-2.2111113e-21
0
0
0
0
-2.2056762e-21
4.5624357e-34
2.1978009e-21
2.2142166e-21
-2.2207668e-21
-2.21179e-21
4.3762252e-21
1.5029903e-34
-4.5214485e-34
-2.1926849e-21
-2.2003449e-21
2.1940433e-21
0
2.162919e-21
1.4992463e-34
-2.1800007e-21
-2.1802884e-21
3.0192808e-34
2.1532339e-21
-4.2939229e-21
2.1553042e-21
2.1656775e-21
-2.1612175e-21
2.1452776e-21
0
0
0
2.1466261e-21
-2.1457489e-21
-4.2779619e-21
2.1292287e-21
-1.4754152e-34
2.1184532e-21
2.1022697e-21
-4.178051e-21
5.9556222e-37
-5.9885691e-37
2.1110225e-21
2.0989579e-21
-4.1404831e-21
2.9118959e-37
-4.2812231e-34
2.0796665e-21
-1.164057e-33
-2.8934838e-34
2.0634742e-21
-2.0409701e-21
0
-2.0503398e-21
2.0684239e-21
2.0613534e-21
-2.0386639e-21
0
-2.0072973e-21
2.0292049e-21
2.0433041e-21
-7.0501051e-34
-4.0158745e-21
-3.9450498e-21
5.8675564e-21
3.9629636e-21
0
-4.0330984e-21
-1.9963492e-21
1.9611235e-21
1.9318823e-21
1.9331019e-21
-3.933798e-21
-3.9694422e-21
1.9755437e-21
3.9099749e-21
5.3264284e-34
-3.8035051e-21
1.9210025e-21
-2.7032175e-34
-1.9600591e-21
3.887259e-21
-1.914347e-21
2.6287769e-34
1.8834477e-21
-1.9102368e-21
1.9325905e-21
-3.8554175e-21
7.9685157e-34
3.7800212e-21
-3.7593848e-21
-1.3059603e-34
1.9001386e-21
0
0
1.8615965e-21
-1.8653127e-21
-3.748078e-21
1.8753041e-21
-5.3011683e-37
1.8340775e-21
1.817059e-21
-1.8367295e-21
0
-1.8630635e-21
-1.8393094e-21
0
3.5015121e-21
1.77587e-21
-3.657885e-21
1.295998e-34
-5.3315452e-37
1.8313912e-21
1.7816845e-21
-1.7127144e-21
1.6942873e-21
-1.7558651e-21
1.0294012e-36
3.690042e-21
-1.8498437e-21
-1.8240636e-21
-1.7895043e-21
-2.4227196e-34
1.7189551e-21
0
0
-1.8140528e-21
2.5277914e-34
-4.9891686e-34
-2.4619259e-34
1.7402652e-21
-1.7273545e-21
2.494913e-37
1.7862074e-21
0
0
0
0
0
0
0
-1.7799668e-21
0
1.74112e-21
0
-1.7422808e-21
-4.8919903e-34
1.7724852e-21
0
0
-1.7522718e-21
-2.4420009e-34
1.7666852e-21
0
0
-1.7545353e-21
-1.7566268e-21
1.7529704e-21
1.7302784e-21
0
-1.7226599e-21
2.4799166e-37
1.7599021e-21
-1.7527237e-21
-1.720959e-21
1.698118e-21
1.7100095e-21
0
-1.7697282e-21
-1.7508796e-21
1.7111659e-21
1.664014e-21
0
-1.716598e-21
-1.7694683e-21
1.7853288e-21
1.7592795e-21
0
0
0
0
0
0
0
0
-1.7212572e-21
1.4812539e-50
1.6672509e-21
0
0
0
-1.7493018e-21
-2.3729458e-34
1.6704447e-21
-1.6726655e-21
2.3939646e-34
-2.5022446e-37
-2.4535717e-34
1.7425811e-21
-1.6832602e-21
1.6452176e-21
-9.3074943e-34
-1.7359943e-21
1.7799972e-21
0
0
-1.7384194e-21
-2.3627218e-34
1.6855932e-21
-1.71857e-21
-1.7551274e-21
0
1.772684e-21
1.7557215e-21
-1.7420094e-21
-4.8528877e-34
-3.002024e-52
-2.4556216e-34
1.7659439e-21
-1.7354991e-21
1.9409923e-50
-2.4247777e-34
-1.771117e-21
0
0
1.7192197e-21
2.4112488e-37
-7.2159143e-34
1.7823381e-21
0
0
-1.7412262e-21
4.7015348e-34
1.7047277e-21
0
0
0
-1.7934837e-21
2.4604781e-37
1.6634607e-21
-1.6764843e-21
1.7599414e-21
-5.0409196e-34
-3.6719619e-21
1.8393109e-21
7.6116456e-34
2.5056503e-34
-2.4668467e-34
-1.7411168e-21
0
0
1.8204606e-21
2.5450986e-34
-5.039577e-34
4.1016256e-52
-1.7331117e-21
1.7471375e-21
1.8020822e-21
0
-1.8302126e-21
-2.5208579e-34
1.7783596e-21
0
0
-1.820727e-21
5.1991694e-37
9.7717638e-52
-1.7870111e-21
1.7696107e-21
-2.494877e-34
2.5325959e-34
-5.0606607e-34
-1.8078132e-21
1.7488682e-21
-4.7989387e-34
4.945897e-34
-5.0825919e-34
-1.8461182e-21
1.824458e-21
-4.9344633e-34
2.4099672e-34
0
-1.7954868e-21
1.8253249e-21
-2.5340459e-34
2.5707514e-37
-2.4459138e-34
2.4140144e-34
1.7682422e-21
-1.8016978e-21
-1.8158845e-21
1.8036513e-21
1.7504096e-21
0
-1.747809e-21
-1.7943235e-21
0
1.7967506e-21
-2.4075555e-34
2.3892298e-37
2.3543849e-34
-1.7621846e-21
1.8108687e-21
2.5209648e-34
-4.9180291e-34
-1.6788313e-21
-1.6100287e-21
3.2898258e-21
-2.4563411e-37
2.4694575e-34
1.8050048e-21
-1.7932432e-21
2.4260437e-34
1.6872346e-21
0
0
0
-1.7514463e-21
-1.7657103e-21
1.7390288e-21
1.7036747e-21
0
-1.6387365e-21
-1.6811703e-21
1.7096656e-21
1.7105705e-21
0
-1.6353533e-21
-1.6091605e-21
1.6417018e-21
4.6515937e-34
-1.6854189e-21
0
0
0
0
1.6527352e-21
-4.5863948e-34
-1.6340485e-21
1.5955162e-21
2.1964153e-34
-2.23645e-34
1.3292932e-51
1.6146669e-21
1.5524167e-21
-3.0207147e-21
-2.1251216e-34
2.2008422e-34
-1.6065988e-21
0
1.5424017e-21
1.4744801e-21
-1.459495e-21
-4.2109366e-34
1.5575193e-21
0
0
-1.4727322e-21
1.9952564e-34
1.4611466e-21
0
-1.522954e-21
2.1331592e-37
-4.0186236e-34
-1.9574614e-34
1.4265066e-21
-1.4748671e-21
2.122081e-37
-4.0569962e-34
-1.4123395e-21
1.3442257e-21
3.7217402e-34
2.0038434e-37
-2.0212683e-34
-1.4584821e-21
1.4126875e-21
0
-7.1854599e-34
-1.8145637e-34
-5.698659e-34
-1.9953897e-37
-1.3997169e-21
1.3496236e-21
4.5884747e-51
-1.6974065e-34
3.5035997e-34
-1.8362168e-34
2.6896383e-21
-1.3274813e-21
-1.2720785e-21
-1.6347718e-34
1.5992389e-34
2.427854e-21
-1.2782548e-21
-1.320447e-21
4.4044068e-51
0
-8.3954531e-52
-1.011754e-21
1.1216788e-21
3.0754884e-52
-1.6756713e-34
-1.7149891e-37
-1.197622e-21
2.3817546e-21
3.3128037e-34
-1.1818002e-21
1.5954645e-34
-1.5381606e-34
1.0580687e-21
-1.0466924e-21
5.029764e-51
-4.6795608e-34
3.1458061e-34
-3.0388009e-34
-2.8990101e-34
-9.4030829e-52
0
1.0540413e-21
0
0
-9.9490364e-22
-2.5378124e-34
9.0126586e-22
0
0
-2.0334401e-21
-8.2921283e-34
1.9020731e-21
-9.0888163e-22
1.259356e-37
-1.238001e-34
-9.1294105e-22
0
0
0
-8.866466e-22
-2.434687e-34
8.734565e-22
0
0
-8.540806e-22
1.1858789e-37
8.1584729e-22
0
0
-7.9565796e-22
-2.2027056e-34
-2.1913865e-34
2.167996e-34
7.7215525e-22
-7.6424358e-22
2.1010037e-34
-2.0797154e-34
2.0546222e-34
7.316249e-22
0
0
-7.092252e-22
-1.1014293e-50
6.9118075e-22
0
0
-6.6319833e-22
-2.2345818e-51
6.5610384e-22
0
0
-6.3103691e-22
-1.3730442e-51
6.2249626e-22
0
0
-5.9260672e-22
8.1127364e-38
5.5697361e-22
-5.5678912e-22
1.5725795e-34
-1.5944508e-34
1.5963518e-34
5.6514551e-22
0
0
0
0
0
-5.1958278e-22
1.449606e-34
5.190717e-22
0
0
0
0
0
0
0
-4.7083107e-22
2.5893452e-34
4.5452786e-22
0
0
0
0
0
0
0
-3.9874661e-22
1.0499432e-34
3.6726831e-22
0
0
-3.7428623e-22
1.0293225e-34
3.6361087e-22
0
0
0
-3.4187897e-22
-9.3102608e-35
3.2539411e-22
0
0
0
0
0
0
0
-2.7264367e-22
3.635172e-38
2.4600599e-22
0
0
0
0
0
0
0
-1.9774971e-22
-2.7769162e-38
1.9612396e-22
0
0
0
-1.4844873e-22
7.1740333e-35
1.2270241e-22
0
-1.276918e-22
-3.4364308e-35
1.1517419e-22
0
0
-7.9782468e-23
-6.8254264e-23
5.8031182e-23
4.855024e-23
0
0
0
0
7.4785396e-24
5.7388376e-40
3.6368142e-23
3.3399121e-23
-9.2000636e-23
-1.1059255e-22
6.3782919e-23
7.3602346e-23
0
0
0
0
1.3496922e-22
4.0827874e-35
-1.5987736e-22
0
0
0
0
0
0
0
0
0
0
0
0
0
0
3.6649294e-22
-2.1262069e-34
-4.0216799e-22
0
0
-4.6124746e-22
1.312567e-34
-6.8646341e-38
4.9559344e-22
5.1197368e-22
2.9547206e-34
-1.5461848e-34
-5.827039e-22
0
0
0
0
0
6.8657481e-22
-3.9600075e-34
-7.3659567e-22
0
0
0
0
0
0
0
9.0450201e-22
-5.0947955e-34
-9.367885e-22
0
0
0
0
0
0
0
1.1491572e-21
-9.8195217e-34
-1.2160982e-21
0
0
0
0
0
0
0
0
1.5518678e-21
-2.2780427e-37
-1.6455878e-21
0
0
0
0
1.8711931e-21
-1.934982e-21
-1.9920039e-21
4.0793294e-21
5.7884337e-34
-2.1369079e-21
0
0
0
0
2.512759e-21
-7.156997e-34
-5.2902895e-21
2.7203036e-21
2.8073635e-21
-2.9046607e-21
0
0
0
3.3139443e-21
9.4658542e-34
-3.5162468e-21
-3.6302097e-21
3.7560299e-21
3.8916853e-21
-4.0319514e-21
0
0
4.4481714e-21
4.5969783e-21
-4.7582015e-21
-4.9293933e-21
-5.1048878e-21
-2.9329754e-33
5.4608155e-21
0
0
0
6.2980156e-21
6.525394e-21
-6.7539173e-21
-6.9890599e-21
-7.237077e-21
-2.0814561e-33
7.7740802e-21
0
0
0
8.9696106e-21
-2.5815993e-33
-9.6429454e-21
0
0
0
0
0
0
0
1.2806799e-20
-3.6855819e-33
-2.756082e-20
-3.9707374e-33
1.4822061e-20
0
0
1.6410983e-20
-2.4160108e-36
4.896992e-33
-5.0792109e-33
-1.8978543e-20
-1.9655029e-20
5.6461858e-33
2.1030181e-20
0
0
2.3352701e-20
-2.0149657e-32
-6.9548398e-33
3.6858397e-36
-2.6833236e-20
2.7757133e-20
2.8717264e-20
-5.943665e-20
1.7065133e-32
3.1835918e-20
-3.2941528e-20
0
3.5232605e-20
1.0120144e-32
-3.7663512e-20
0
4.028053e-20
-4.1654243e-20
4.7818165e-32
4.4503537e-20
-4.5984044e-20
0
4.9108111e-20
0
-5.245815e-20
0
5.5963914e-20
-5.7782668e-20
3.3103297e-32
6.1629816e-20
-6.3662793e-20
0
6.7882738e-20
1.9454136e-32
-7.2297195e-20
0
7.7012476e-20
-7.9489522e-20
2.3314971e-35
8.4635199e-20
-8.7303579e-20
0
9.2878974e-20
9.5796214e-20
-9.879751e-20
-1.0188114e-19
1.0504911e-19
-1.08305e-19
-1.1165059e-19
1.1508573e-19
0
0
0
0
0
0
1.4191483e-19
-2.0728063e-49
-3.0104969e-19
1.5501078e-19
1.5961804e-19
-1.6434152e-19
0
0
1.7923024e-19
1.8445586e-19
-1.8981464e-19
-1.953029e-19
0
2.0668324e-19
5.9063131e-32
-2.1865409e-19
0
0
2.3769216e-19
2.4433959e-19
-2.5115936e-19
-2.581522e-19
0
2.7260692e-19
-7.7766158e-32
-2.8767326e-19
2.9548026e-19
1.6854542e-31
4.4293519e-35
3.2005664e-19
-3.2857989e-19
-3.3726448e-19
0
0
3.6453649e-19
-1.0381702e-31
-3.83782e-19
0
4.0373402e-19
4.1399078e-19
-4.2446878e-19
-4.3518444e-19
0
0
0
0
0
0
5.1626788e-19
-1.467491e-31
-5.4147522e-19
0
0
0
0
0
0
6.3700613e-19
-7.0893402e-49
-6.6648586e-19
-6.8159462e-19
-1.9333205e-31
7.1256293e-19
0
0
0
0
7.943956e-19
2.2523596e-31
-8.2896346e-19
8.4662979e-19
8.6455029e-19
-8.827334e-19
5.0022757e-31
7.660639e-31
7.8161292e-31
-2.6619746e-31
5.429585e-31
-2.7682994e-31
-1.0175049e-18
0
1.0584403e-18
-8.9864463e-31
1.5638095e-34
1.1218319e-18
-1.143509e-18
-1.165464e-18
1.1876889e-18
-3.3586988e-31
1.0262014e-30
6.9732484e-31
7.0971568e-31
-3.6139802e-31
7.3640306e-31
1.3507792e-18
-1.3751489e-18
-1.3997866e-18
1.4246994e-18
-4.0219288e-31
1.6378564e-30
4.1660117e-31
-4.240257e-31
-4.3086648e-31
-4.3843852e-31
1.6064989e-18
0
-1.6608233e-18
4.685888e-31
-5.3717441e-48
-1.7442115e-18
0
1.8010167e-18
-1.8298138e-18
-1.8588804e-18
1.8882018e-18
0
0
0
0
2.038222e-18
-5.7421382e-31
1.1659186e-30
-2.131122e-18
-2.1625227e-18
2.1941327e-18
0
0
0
0
2.3555016e-18
3.3941187e-34
-2.4214906e-18
0
0
0
0
0
0
0
2.6931339e-18
2.7279031e-18
-2.7628382e-18
-2.7979263e-18
0
0
0
0
0
0
3.0477282e-18
3.0839506e-18
-3.1202958e-18
-3.156768e-18
0
0
0
0
0
0
3.4150621e-18
3.4523241e-18
-3.4896548e-18
-3.5270514e-18
0
0
0
0
0
0
3.7904447e-18
-2.1255035e-30
-3.8660491e-18
0
0
0
0
0
0
4.1309623e-18
-1.1575818e-30
-4.2065316e-18
0
0
0
0
4.3949241e-18
6.2988598e-34
-4.4698685e-18
4.5072486e-18
-1.79069e-48
-4.5818069e-18
4.6189641e-18
-2.5857729e-30
-4.6929937e-18
4.7298517e-18
2.6464993e-30
2.6668332e-30
-2.801517e-47
2.7066187e-30
1.3626814e-30
-4.9485612e-18
4.9845645e-18
5.0204022e-18
-1.0112153e-17
2.8247785e-30
1.0253973e-17
0
-5.197296e-18
1.452871e-30
1.4632484e-30
4.4132074e-30
4.442513e-30
2.9790861e-30
-4.4991728e-30
3.017401e-30
-1.5199425e-30
-5.5041922e-18
0
5.5700469e-18
7.9618453e-34
4.6910118e-30
4.7185871e-30
-8.0989093e-34
-3.1809954e-30
1.6000239e-30
5.7932314e-18
0
-5.8547267e-18
3.2666685e-30
8.4059453e-34
-5.9449417e-18
0
6.0036458e-18
-6.0325774e-18
-6.0612269e-18
6.0895841e-18
0
0
6.1727941e-18
-6.8837116e-30
3.4545188e-30
-3.4718785e-30
1.7445427e-30
-6.3051925e-18
-6.3307016e-18
6.3558758e-18
0
0
0
0
6.4767033e-18
1.8048639e-30
7.2410086e-30
-6.5449504e-18
-6.5670354e-18
6.5887738e-18
0
0
0
0
6.6917524e-18
6.7112397e-18
-6.73036e-18
-6.7491058e-18
0
0
0
0
0
0
6.8695031e-18
6.8851517e-18
-6.9004239e-18
-6.9153038e-18
0
0
0
0
0
0
7.008169e-18
-5.8458137e-30
-1.4062179e-17
7.0419252e-18
2.1157076e-17
7.0624011e-18
0
-1.4162613e-17
7.8731476e-30
2.3639382e-29
7.106538e-18
1.4228247e-17
-1.4242631e-17
7.1281165e-18
7.1345156e-18
-7.1404961e-18
7.1460534e-18
-1.0162462e-33
-7.1559356e-18
-7.1602757e-18
7.1642242e-18
7.1677744e-18
-7.1709118e-18
7.1736335e-18
1.0197626e-33
-7.1778463e-18
0
0
0
-1.436308e-17
7.1814302e-18
1.4361783e-17
-7.1799495e-18
7.1786134e-18
7.1768866e-18
-1.434954e-17
-1.0575208e-48
7.1693704e-18
-7.1660906e-18
-1.4324854e-17
-7.1583812e-18
2.1461861e-17
-7.1491457e-18
-2.8176828e-47
2.14152e-17
-1.4264937e-17
-7.1261672e-18
-7.1194962e-18
-1.4224913e-17
1.4210104e-17
7.0972867e-18
7.0891647e-18
-7.0806878e-18
-7.0718569e-18
2.1188018e-17
-7.0531377e-18
-7.043255e-18
7.0330279e-18
7.0224596e-18
9.9640171e-34
-2.1000943e-17
6.9887445e-18
-1.1616058e-29
1.1599665e-29
2.0856223e-17
-6.939203e-18
-6.926014e-18
-1.3825026e-17
6.8987029e-18
1.3769171e-17
-1.3740327e-17
6.8554425e-18
-6.8404269e-18
-6.8251198e-18
2.0428568e-17
-6.7936354e-18
-6.7774599e-18
1.3522007e-17
6.7442762e-18
-6.7272845e-18
-2.0130087e-17
6.6925089e-18
2.6698893e-17
-3.6949598e-30
-1.3276736e-17
-6.6198161e-18
0
-1.3163999e-17
-1.4569404e-29
1.9629714e-17
-6.523507e-18
1.443985e-29
-6.4833636e-18
-6.4629661e-18
1.2884719e-17
0
0
0
6.3578874e-18
-3.5180132e-30
-1.2628941e-17
6.2924874e-18
1.2540653e-17
-1.8743969e-17
2.0733681e-29
1.2405591e-17
-6.1799468e-18
0
0
0
-1.2174047e-17
6.0634258e-18
1.2079373e-17
-1.8047431e-17
1.7029732e-33
1.1935346e-17
0
0
5.8945625e-18
-3.259111e-30
-1.1690525e-17
5.8204568e-18
1.1591105e-17
-1.7311662e-17
9.5658765e-30
1.1440581e-17
-5.695033e-18
5.6696959e-18
-1.1288562e-17
-5.6187928e-18
1.8626442e-29
5.5676211e-18
1.1083895e-17
-1.6548657e-17
3.1209515e-33
5.4645999e-18
-3.0189001e-30
5.4127881e-18
5.3868246e-18
-2.9756668e-30
-1.6004398e-17
1.5088353e-33
1.5847976e-17
-1.0513104e-17
-6.0455159e-47
1.040857e-17
-5.1781317e-18
5.1519699e-18
-1.0251604e-17
-5.0996291e-18
1.1266054e-29
5.0472829e-18
1.0042235e-17
4.9949622e-18
4.9688188e-18
-1.4828062e-17
0
4.8904662e-18
2.7001046e-30
-2.685644e-30
2.6705158e-30
-4.7863203e-18
5.2847164e-30
-4.7344161e-18
1.5681493e-29
1.4047949e-17
-9.313661e-18
-1.3893168e-17
-4.6053252e-18
1.3738908e-17
9.1079792e-18
-1.3585177e-17
4.502849e-18
1.3432087e-17
0
0
-4.4012397e-18
-4.3759754e-18
0
4.3256326e-18
4.3005604e-18
-8.551111e-18
9.4376593e-30
1.2677219e-17
-4.6636684e-30
-4.1761859e-18
-4.151517e-18
-4.1269231e-18
4.1024038e-18
4.0779565e-18
-4.053579e-18
-1.2087819e-17
4.0050434e-18
1.5923571e-17
-3.9568226e-18
-7.8656638e-18
-3.9089175e-18
0
3.8613134e-18
0
3.814028e-18
-3.79051e-18
8.3640496e-30
-3.7437175e-18
1.2390756e-29
1.1091714e-17
-3.6741191e-18
-3.6510837e-18
3.6281318e-18
3.6052617e-18
-3.5824709e-18
-1.0679278e-17
3.5371286e-18
1.4058322e-17
-5.8161618e-30
-3.4697341e-18
-6.8948629e-18
-3.4252062e-18
6.8061183e-18
1.8767076e-30
4.7734359e-34
-3.3371034e-18
7.3609285e-30
3.2935333e-18
-9.8155905e-18
3.6082947e-30
6.4575139e-18
0
0
3.1646783e-18
-1.7448637e-30
-6.2446665e-18
3.1012749e-18
6.1605873e-18
3.0593874e-18
-3.372391e-30
-9.0533588e-18
-2.9970913e-18
2.9764689e-18
-5.9118412e-18
1.6686078e-33
9.709245e-30
2.8947034e-18
5.7488627e-18
-8.5626812e-18
3.1470785e-30
5.6280546e-18
0
0
-5.5084741e-18
6.0712748e-30
3.0129526e-30
7.6597108e-34
8.0262381e-18
5.3117395e-18
-4.3909403e-30
-7.8509163e-18
-2.5976139e-18
2.5783161e-18
-5.1181596e-18
-2.8189593e-30
8.3946734e-30
2.50174e-18
4.9654909e-18
-7.391427e-18
2.4449314e-18
2.4261138e-18
-2.4073559e-18
2.3886553e-18
-4.7400207e-18
2.6104348e-30
2.3328888e-18
3.2889821e-34
4.5920033e-18
-4.5552897e-18
3.7616774e-30
4.4821856e-18
-2.2228984e-18
0
2.186683e-18
1.2034646e-30
-6.4520924e-18
2.1327843e-18
4.2298489e-18
2.0971201e-18
2.0793741e-18
-2.0616876e-18
-2.0440583e-18
-2.0264823e-18
2.008959e-18
-1.1054283e-30
1.0954827e-30
-1.9567256e-18
2.1536169e-30
-1.9221978e-18
6.3445737e-30
5.6636687e-18
-3.7416378e-18
-6.5420075e-48
1.8368579e-18
2.0201846e-30
-1.0011359e-30
-5.3590967e-18
1.7696479e-18
5.258967e-18
0
0
-1.7033917e-18
-1.6869837e-18
-3.3412688e-18
1.654345e-18
3.2762358e-18
-3.2439133e-18
1.6058635e-18
4.7695098e-18
-1.5738726e-18
-1.5579706e-18
-1.542132e-18
-1.5263597e-18
3.0213158e-18
1.4950287e-18
-1.4794697e-18
-4.3919313e-18
1.4485502e-18
7.9702105e-47
2.3607254e-30
2.8053711e-18
-2.7750937e-18
-2.7449666e-18
1.3574912e-18
2.6851395e-18
-2.6554403e-18
-1.3129448e-18
3.8947402e-18
3.8508862e-18
-1.2690902e-18
-2.5092565e-18
-1.2402422e-18
6.8048583e-31
2.4234039e-18
1.1975528e-18
-1.1834875e-18
-2.3390107e-18
1.6422121e-34
2.2835661e-18
-2.2560865e-18
1.8560251e-30
2.2016357e-18
-1.0873372e-18
-2.1478857e-18
-2.1212648e-18
0
1.0342625e-18
3.0636213e-18
1.0082438e-18
-9.9537478e-19
0
0
0
0
9.3235877e-19
-5.1068349e-31
-2.7233602e-18
8.956451e-19
2.6507896e-18
8.7163932e-19
-1.4319637e-30
-1.6960014e-18
-8.3632115e-19
8.2473687e-19
-1.6264985e-18
-8.0185819e-19
2.6331595e-30
7.7936312e-19
1.5365185e-18
-2.2717539e-18
2.1212242e-34
7.3552371e-19
-1.0300093e-34
7.1418357e-19
7.0366158e-19
-7.6959937e-31
-2.0487331e-18
1.9118722e-34
1.9876352e-18
1.3050126e-18
-3.5649096e-31
-1.2654588e-18
-6.2299151e-19
6.1335066e-19
-1.2076105e-18
-5.943545e-19
1.9481483e-30
5.7574332e-19
1.1331779e-18
-1.6726042e-18
6.091602e-31
5.3971517e-19
5.3094718e-19
5.2227389e-19
2.8499543e-31
-2.8036463e-31
-9.9368757e-19
-2.7111941e-31
9.6074707e-19
-9.445569e-19
2.3195138e-30
1.3691163e-18
-8.9712846e-19
4.8953788e-31
8.6646541e-19
-4.2570492e-19
-4.1826748e-19
-8.2184371e-19
4.0367104e-19
1.1895458e-18
0
0
0
-1.1063835e-18
-1.0862531e-18
1.0663991e-18
1.0468218e-18
-6.8500849e-19
9.5540822e-35
-3.2988887e-19
1.0782736e-30
9.5282484e-19
-9.3479406e-19
1.5273212e-30
5.9967918e-19
1.631983e-31
-1.6013224e-31
-5.656395e-19
2.7730683e-19
-2.7187736e-19
8.8782245e-31
7.8379899e-19
-7.6823894e-19
-2.5096859e-19
5.4604301e-31
-4.8194149e-19
4.721791e-19
2.3128842e-19
2.2656424e-19
6.6574255e-19
-2.412753e-31
-2.1282499e-19
-6.2515105e-19
1.3589282e-30
5.9916612e-19
0
-1.9135261e-19
-3.7454243e-19
1.8325596e-19
-1.7930533e-19
5.8422693e-31
3.4319991e-19
-5.0354142e-19
3.6443891e-31
1.7831287e-31
1.74271e-31
1.7038959e-31
-1.5004769e-19
4.40014e-19
4.3005984e-19
-1.4009451e-19
-2.7379197e-19
0
1.3067609e-19
-1.4167649e-31
2.7683232e-31
-1.3517945e-31
-1.189051e-19
1.1609774e-19
1.1334386e-19
-3.3192626e-19
-1.3652153e-47
1.7553065e-31
-1.0284227e-19
1.1133946e-31
-1.9578806e-19
1.9098441e-19
1.8627219e-19
9.0825908e-20
-9.8305827e-32
-8.634731e-20
0
0
0
-1.5584577e-19
7.5919555e-20
1.479203e-19
-2.1613302e-19
7.0170622e-20
2.0501056e-19
-1.9962002e-19
2.1574331e-31
1.2611001e-19
-1.8410883e-19
-1.1944466e-19
0
1.1306814e-19
1.8312574e-31
5.3480346e-20
1.0401347e-19
-5.0568438e-20
0
-9.5583888e-20
-1.3200797e-35
-5.0097583e-32
4.3837601e-20
1.2774456e-19
-1.2407497e-19
6.6920543e-32
1.1701111e-19
-1.1360007e-19
1.836379e-31
7.1326364e-20
-3.459944e-20
3.3562837e-20
-6.5104842e-20
-3.1572344e-20
1.3596353e-31
2.9683317e-20
5.7542479e-20
2.7880771e-20
2.7009952e-20
-5.2321641e-20
-2.5335359e-20
0
2.3754754e-20
-1.2768812e-32
-1.4085771e-49
-2.1534649e-20
5.9192774e-36
-2.0138293e-20
-1.5167263e-48
5.6475525e-20
-5.4597033e-20
-5.2771101e-20
3.3989138e-20
3.2820848e-20
0
-3.0578686e-20
1.4756154e-20
4.2722285e-20
-4.1226858e-20
2.2081037e-32
2.5566522e-20
-1.231826e-20
0
1.1428e-20
1.1005532e-20
-1.0598188e-20
1.6993813e-32
-1.964831e-20
-5.3729698e-36
2.7264022e-20
0
-2.5168622e-20
-1.6116643e-20
2.3218859e-20
1.486635e-20
-2.1414083e-20
-6.8511347e-21
2.6279569e-20
6.2951362e-21
-1.2058318e-20
-1.1546764e-20
6.1370501e-33
5.2933447e-21
5.0683381e-21
4.8501878e-21
-4.6362773e-21
4.914895e-33
-8.4502102e-21
1.3425764e-32
1.1537423e-20
0
0
-6.6747099e-21
7.0567878e-33
3.0223378e-21
-8.6172632e-21
2.7290864e-21
4.3168168e-33
8.2048874e-33
7.0200198e-21
-2.2196597e-21
1.1666384e-33
-2.2085067e-33
-1.8819099e-21
1.7809094e-21
-2.39634e-37
8.8539895e-34
-1.6705844e-33
-1.4170583e-21
0
1.2545553e-21
-2.3658992e-21
-1.1177361e-21
2.1084647e-21
0
-9.2473406e-22
8.6363705e-22
1.6161045e-21
-2.2767134e-21
2.3862205e-33
2.2520851e-33
-6.3366734e-22
1.7665071e-21
-7.7535305e-38
-5.0776402e-22
-4.7559234e-22
4.4890893e-22
4.2638607e-22
-4.0358214e-22
0
3.5038822e-22
-6.5064457e-22
5.0797073e-34
2.8944554e-22
6.1805692e-34
5.9910986e-34
7.3951219e-38
4.9537328e-22
-7.0245599e-22
-6.6762991e-22
0
4.2241446e-22
6.3341947e-22
3.0209857e-38
-2.1224243e-22
-2.093255e-22
2.0578304e-22
2.0405273e-22
-2.0554777e-22
0
-4.3596366e-22
-4.5081273e-22
6.9103032e-22
2.3294098e-22
-2.3582046e-22
6.8582619e-38
2.4987119e-22
5.2229336e-22
2.7340556e-22
-4.7175278e-34
-1.1592494e-21
9.8394645e-34
9.0834338e-22
-3.1287093e-22
-3.2591941e-22
-3.4072337e-22
3.5382587e-22
3.6286887e-22
3.6939681e-22
1.0711932e-37
-3.8714728e-22
4.0029754e-22
-1.2458001e-21
-8.5922315e-22
1.3210438e-21
-4.4771462e-22
-9.1013451e-22
9.2859576e-22
-4.7607632e-22
4.8899919e-22
1.0000471e-21
-1.5245684e-21
5.1534793e-22
-1.7439975e-33
-1.6028732e-21
1.0933604e-21
5.5665001e-22
5.6152103e-22
1.1269685e-21
-5.6698846e-22
2.6950034e-77
-1.1675327e-21
-5.9609162e-22
6.7333075e-34
6.0966755e-22
1.2138715e-21
-1.2101528e-21
6.0681632e-22
1.8365355e-21
-1.8582045e-21
-6.2637386e-22
-1.8876555e-50
-6.3214387e-22
1.8859919e-21
6.2463297e-22
-6.2215826e-22
-1.2429811e-21
6.2193643e-22
-6.2265333e-22
2.0756076e-33
1.2452448e-21
-1.8551742e-21
-6.7832261e-34
2.6767515e-33
-1.3238618e-33
1.1835328e-21
-1.1770451e-21
5.8576018e-22
2.325676e-21
-5.7276739e-22
-1.1215695e-21
0
-1.078815e-21
1.1800872e-33
2.9831615e-37
5.7542824e-34
5.093636e-22
4.964169e-22
-4.8155037e-22
-4.6758411e-22
9.1057988e-22
-8.8848049e-22
4.8132301e-34
8.4355482e-22
-8.1553383e-22
-1.3069976e-33
4.1887517e-34
3.6294016e-22
6.986621e-22
-3.3553033e-22
3.2015143e-22
-1.6833567e-34
-2.8631223e-22
-5.4021132e-22
2.5514508e-22
4.8201317e-22
-2.2553871e-22
2.0755703e-22
-3.1358873e-34
1.6964252e-22
3.3869086e-34
-2.7481666e-22
-2.4692342e-22
-2.3962826e-34
2.9824687e-34
-2.3181948e-34
5.0100252e-23
3.2213715e-23
1.651181e-23
-2.1633151e-24
0
0
-5.0100265e-23
3.8322751e-35
1.2307732e-38
1.1302983e-34
1.1549083e-22
0
-1.4671596e-22
-3.2921509e-22
1.8292659e-22
4.0041219e-22
4.2963886e-22
4.5358188e-22
-7.1629174e-22
-8.409896e-34
8.0409733e-22
-5.6999219e-22
-6.044629e-22
0
-3.2866128e-22
6.7634326e-22
3.4865493e-22
-7.203306e-22
-3.7280403e-22
4.3024641e-34
1.2064118e-21
-4.1369429e-22
-1.2670889e-21
1.2924848e-21
4.3975581e-22
-1.3473216e-21
5.1056081e-34
4.7147046e-22
9.6200741e-22
5.4141251e-34
-9.8812408e-22
1.0005042e-21
-5.06551e-22
-1.5442606e-21
0
5.3034286e-22
1.0710987e-21
-2.9966398e-34
5.4306194e-22
1.094974e-21
-1.1087031e-21
-1.1207613e-21
0
-5.636511e-22
-6.2484638e-34
-6.2404166e-34
-6.2859651e-34
1.7223018e-21
1.1586406e-21
0
-1.1574797e-21
-1.2774681e-33
-5.7189375e-22
-1.7172125e-21
5.7717559e-22
-3.2257574e-34
8.2749731e-38
5.8102036e-22
1.1563727e-21
-5.7519313e-22
-1.1476815e-21
5.7396454e-22
0
1.1414721e-21
-5.6633364e-22
-1.6872148e-21
5.6139825e-22
5.6046814e-22
1.1162046e-21
-5.5433309e-22
-1.6439492e-21
5.4184288e-22
-5.9861838e-34
-1.0799644e-21
5.3922201e-22
5.3473416e-22
1.0576302e-21
1.5643551e-21
-1.03022e-21
-1.0263867e-21
1.0278723e-21
5.6883632e-34
-1.0137516e-21
9.9985626e-22
5.4665134e-34
-9.7252267e-22
0
9.6928898e-22
9.6552011e-22
0
-1.4100925e-21
-4.6279087e-22
-1.2992383e-37
-4.5521374e-22
-4.5543984e-22
-5.0317835e-34
8.9545361e-22
8.8150522e-22
-1.4438752e-33
-8.5642717e-22
8.5271211e-22
1.4209658e-33
-8.503309e-22
0
0
0
0
8.0255266e-22
4.4603316e-34
-7.9995854e-22
-3.9483402e-22
7.7650233e-22
-1.2715945e-33
-7.5580014e-22
7.5586052e-22
4.2194995e-34
-3.8003032e-22
7.5080454e-22
-1.2229001e-33
-7.1860756e-22
7.0872915e-22
7.0761194e-22
-7.1413198e-22
-7.2018586e-22
0
0
0
0
-3.3641877e-22
3.3508939e-22
3.3672085e-22
-3.7610526e-34
6.8935521e-78
-3.3728994e-22
-6.6407818e-22
-3.2595945e-22
6.4210655e-22
9.5415147e-22
-3.1756708e-22
-6.3872335e-22
9.6398548e-22
6.4160945e-22
-9.4910631e-22
-6.1951242e-22
-3.0422569e-22
-3.3425788e-34
6.0175202e-22
0
-3.0507002e-22
3.043953e-22
-6.6586003e-34
-8.3469025e-38
-9.6169169e-34
-2.8581258e-22
-2.8488682e-22
8.1210474e-38
5.7313351e-22
5.7140001e-22
-9.3974309e-34
-5.5419267e-22
0
0
0
-2.6693092e-22
-2.6684303e-22
2.6547264e-22
2.6171756e-22
-2.5648502e-22
5.0369645e-22
7.455713e-22
0
-4.9250204e-22
-2.7276243e-34
-2.4325039e-22
-7.1446908e-22
2.326499e-22
-3.8028236e-34
4.5124608e-22
-1.4944976e-33
-4.4706582e-22
-1.2281029e-34
-3.0798209e-38
2.114604e-22
-2.0699521e-22
4.0767442e-22
2.0177613e-22
-3.9957191e-22
3.9340611e-22
5.4628042e-38
-2.0825248e-34
-1.8386885e-22
-5.4382271e-22
3.5859766e-22
4.7095791e-52
1.7056149e-22
-2.7420523e-34
-3.2014061e-22
1.5754781e-22
3.1351932e-22
-1.7313943e-34
-4.5866661e-22
4.16637e-38
1.3911155e-22
-1.3320634e-22
2.604501e-22
1.2943721e-22
-2.5796611e-22
2.5411746e-22
1.3649003e-34
-6.5189197e-34
2.4936575e-34
-2.1718878e-22
2.1193092e-22
-1.0356593e-22
-2.0099024e-22
9.6608173e-23
-9.2774898e-23
1.7960963e-22
-1.4577655e-34
-2.5529069e-22
0
0
2.1701254e-22
6.9767676e-23
-1.3766616e-22
1.3658144e-22
3.7870473e-38
-2.7827019e-34
-6.3010706e-35
-1.0303302e-22
9.8049402e-23
9.8139056e-23
-4.993678e-23
-1.4941766e-22
-4.7660303e-23
4.3276954e-23
0
0
-3.2259609e-23
1.7969531e-35
9.9480035e-23
9.4917644e-39
-6.4952721e-23
-3.0079174e-23
2.9312615e-35
6.8517793e-23
4.6494161e-35
-4.2264835e-23
0
-2.3718663e-23
4.7092691e-23
2.1325045e-23
-3.9265239e-35
-1.5099001e-23
-3.0580105e-23
1.7578963e-23
0
0
0
0
-1.531231e-23
8.6632713e-36
5.3841897e-23
-2.0668538e-23
-6.6243363e-23
6.470825e-23
2.0320598e-23
-4.1093084e-23
-2.3014876e-23
-4.4146568e-35
8.7853028e-23
-1.676728e-38
-9.0248632e-35
-2.5437906e-23
-5.5161448e-23
-3.3136518e-23
-4.3816979e-35
4.4074265e-23
4.5130068e-23
4.2307685e-23
3.8901507e-23
-8.7453553e-35
-8.9580318e-23
0
0
-6.3951196e-23
-1.0906009e-34
-9.2107652e-39
9.0670261e-39
6.4807108e-23
1.3781987e-22
1.5067626e-22
-1.6472797e-22
-9.8205811e-35
-9.2928451e-23
-2.8677212e-22
0
0
9.9804118e-23
1.0550836e-22
0
-1.2078965e-22
7.0581492e-35
1.3102353e-22
-1.3239229e-22
2.6722321e-22
-4.5673056e-34
-4.3057011e-22
1.5176525e-22
1.601212e-22
3.3354171e-22
-1.7036563e-22
-5.1514065e-22
1.7406427e-22
-9.9480074e-35
3.7391984e-22
1.9645928e-22
-4.1111714e-22
4.2397438e-22
-5.6509437e-52
-4.2926134e-22
0
0
4.6166606e-22
-2.6759979e-34
-8.3597698e-34
-7.8666193e-51
-7.8863738e-22
-2.9457203e-34
2.6771685e-22
5.4364313e-22
5.5500733e-22
-5.6832911e-22
-6.4716471e-34
-2.9876245e-22
-1.0183118e-33
3.1217031e-22
-6.3618226e-22
0
-3.2674964e-22
3.6517852e-34
3.3177271e-22
6.7139607e-22
3.7846923e-34
-6.9651111e-22
0
0
-3.6706893e-22
2.0448751e-34
1.1086399e-21
4.1290592e-34
-7.505494e-22
0
3.8457558e-22
-3.8994536e-22
-3.946267e-22
-3.9767223e-22
-3.9888558e-22
7.9756348e-22
1.1963378e-21
-3.9916051e-22
-8.0045807e-22
1.2100609e-21
-1.0491888e-51
-8.2395051e-22
0
0
0
0
8.0890278e-22
8.116674e-22
-4.087252e-22
-1.2317715e-21
-4.5453555e-34
4.055734e-22
-8.0406734e-22
-7.9767963e-22
3.9578777e-22
1.5746367e-21
7.8530494e-22
-1.1762424e-21
-7.7951008e-22
1.1547111e-21
8.4224871e-34
-7.4769408e-22
0
0
0
7.1780209e-22
3.9270456e-34
-7.7017518e-34
3.3924271e-22
-9.9623952e-22
3.2640155e-22
3.2244445e-22
-9.5308524e-22
-6.2163827e-22
3.0240296e-22
5.8666781e-22
5.704774e-22
-9.2969344e-34
3.0447206e-34
-7.611053e-38
-5.1758454e-22
0
-2.3864985e-22
-2.3018441e-22
2.2381915e-22
2.1798485e-22
-2.1002353e-22
-1.988384e-22
3.7389289e-22
1.7645589e-22
-1.6846554e-22
1.6269324e-22
-1.5672918e-22
-2.9646175e-22
0
0
3.3236047e-22
1.0177558e-22
-1.9076349e-22
-8.9470922e-23
-8.2236522e-23
1.4593824e-22
-6.8827257e-35
-1.0151539e-22
0
3.1533401e-23
6.8465689e-23
3.0537428e-35
-2.5876352e-35
-6.810791e-24
3.1013762e-23
1.7034155e-23
6.9633662e-39
-3.3865578e-23