/*--------------------------------*- C++ -*----------------------------------*\
  =========                 |
  \\      /  F ield         | OpenFOAM: The Open Source CFD Toolbox
   \\    /   O peration     | Website:  https://openfoam.org
    \\  /    A nd           | Version:  7
     \\/     M anipulation  |
\*---------------------------------------------------------------------------*/
FoamFile
{
    version     2.0;
    format      ascii;
    class       volVectorField;
    location    "0.00167";
    object      U;
}
// * * * * * * * * * * * * * * * * * * * * * * * * * * * * * * * * * * * * * //

dimensions      [0 1 -1 0 0 0 0];

internalField   nonuniform List<vector> 
5000
(
(-46.13771 4.7424106e-17 0)
(-46.091743 4.8666066e-17 0)
(-46.068981 0 0)
(-46.041909 0 0)
(-46.015748 -2.5421244e-17 0)
(-45.988827 2.8932997e-32 -2.5449734e-17)
(-45.962014 2.5465906e-17 -5.4283844e-32)
(-45.935025 0 7.6410486e-17)
(-45.908064 0 2.5470695e-17)
(-45.881087 -2.5468791e-17 -5.0937581e-17)
(-45.854113 -5.0932231e-17 -5.0932231e-17)
(-45.827139 2.5463991e-17 2.5463991e-17)
(-45.800159 2.5461809e-17 -2.1710044e-31)
(-45.773174 -2.5460429e-17 -2.2432496e-31)
(-45.746172 0 5.0917528e-17)
(-45.719168 -2.5457447e-17 -5.0914893e-17)
(-45.692143 2.7413321e-49 1.370666e-49)
(-45.665119 2.5453777e-17 -2.2426635e-31)
(-45.638082 0 -2.5451506e-17)
(-45.611045 2.5449308e-17 5.0898616e-17)
(-45.584003 -2.544694e-17 2.544694e-17)
(-45.556959 -2.5444561e-17 0)
(-45.529914 5.0884248e-17 0)
(-45.502869 -2.5439303e-17 -2.5439303e-17)
(-45.475825 -2.5436114e-17 2.1688136e-31)
(-45.448784 -2.0961981e-31 -2.0961981e-31)
(-45.421747 2.5427698e-17 -2.5427698e-17)
(-45.394716 2.5422368e-17 2.5422368e-17)
(-45.367692 -5.0832612e-17 2.5416306e-17)
(-45.340675 4.4052866e-31 -2.5409384e-17)
(-45.313665 -4.4400465e-31 4.4400465e-31)
(-45.286664 2.5393156e-17 -2.1651507e-31)
(-45.259673 5.0768206e-17 -2.5384103e-17)
(-45.232691 -5.0749661e-17 2.537483e-17)
(-45.20572 4.3977499e-31 2.5365913e-17)
(-45.178759 -2.2053899e-30 0)
(-45.151807 -8.7905046e-31 0)
(-45.124862 5.0694169e-17 -2.5347085e-17)
(-45.097921 -5.0689813e-17 -2.5344906e-17)
(-45.070982 -5.0689533e-17 2.5344766e-17)
(-45.044044 5.0693044e-17 -4.2503098e-31)
(-45.017103 -1.7435768e-30 -2.5349857e-17)
(-44.99016 -5.0708628e-17 2.5354314e-17)
(-44.963213 2.5359265e-17 -4.2884843e-31)
(-44.936261 7.6092586e-17 -2.5364195e-17)
(-44.909305 -2.5368566e-17 2.5368566e-17)
(-44.882344 -2.5372049e-17 -8.7255156e-31)
(-44.855381 -1.7380493e-30 8.6902467e-31)
(-44.828416 -5.0750675e-17 -8.7266467e-31)
(-44.801451 0 4.3272195e-31)
(-44.774488 2.5373909e-17 2.5373909e-17)
(-44.747528 3.6055732e-33 0)
(-44.72057 -2.5369429e-17 0)
(-44.693616 5.0732708e-17 0)
(-44.666666 -8.8665361e-31 0)
(-44.63972 -5.071818e-17 0)
(-44.612779 2.535511e-17 0)
(-44.585843 -8.7542931e-31 0)
(-44.558912 -2.5346753e-17 0)
(-44.531987 0 0)
(-44.505067 2.5338008e-17 0)
(-44.478152 8.6402537e-31 0)
(-44.451243 7.1989137e-33 0)
(-44.424339 2.5324275e-17 -2.5324275e-17)
(-44.39744 -2.5319586e-17 -2.5319586e-17)
(-44.370548 8.84973e-31 2.5314812e-17)
(-44.343661 2.5309989e-17 -4.3520865e-31)
(-44.316779 -2.5305062e-17 -1.3715115e-49)
(-44.289904 -2.5300074e-17 2.5300074e-17)
(-44.263035 2.5294976e-17 0)
(-44.236171 2.5289823e-17 0)
(-44.209314 -2.5284571e-17 -2.5284571e-17)
(-44.182463 -2.5279269e-17 -2.5279269e-17)
(-44.155619 5.0547739e-17 0)
(-44.128781 2.5268397e-17 2.5268397e-17)
(-44.101949 -2.5262823e-17 8.7238532e-31)
(-44.075124 0 -2.5257163e-17)
(-44.048306 2.5251415e-17 -2.5251415e-17)
(-44.021495 -3.5876126e-33 2.5245579e-17)
(-43.99469 -2.5239653e-17 5.0479306e-17)
(-43.967892 2.5233612e-17 -5.0467224e-17)
(-43.941101 -7.1700735e-33 1.4340147e-32)
(-43.914317 7.1682838e-33 7.5663469e-17)
(-43.88754 2.5214738e-17 -5.0429477e-17)
(-43.860771 2.520819e-17 -2.6222431e-30)
(-43.83401 8.7743154e-31 5.0403066e-17)
(-43.807256 -2.5194744e-17 -7.5584233e-17)
(-43.78051 0 2.5187828e-17)
(-43.753772 -2.5180748e-17 2.5180748e-17)
(-43.727042 -2.6114802e-30 -2.5173505e-17)
(-43.70032 -8.7977312e-31 2.5166069e-17)
(-43.673607 2.5158457e-17 2.5158457e-17)
(-43.646903 2.5150658e-17 8.7566025e-31)
(-43.620208 -5.0285398e-17 -5.0285398e-17)
(-43.593522 -1.7394848e-30 -1.7394848e-30)
(-43.566846 2.5126298e-17 -2.5126298e-17)
(-43.540179 0 -2.5117859e-17)
(-43.513521 0 -8.8135547e-31)
(-43.486873 -2.5100477e-17 1.7478262e-30)
(-43.460235 -1.7400703e-30 5.0183016e-17)
(-43.433606 5.0164667e-17 2.5082333e-17)
(-43.406988 -2.5072977e-17 -2.5072977e-17)
(-43.380381 -5.0126866e-17 3.5617281e-33)
(-43.353784 0 2.5053735e-17)
(-43.327199 2.5043872e-17 0)
(-43.300625 2.5033862e-17 -2.5033862e-17)
(-43.274063 -2.5023679e-17 -8.7123928e-31)
(-43.247512 -2.5013337e-17 2.5013337e-17)
(-43.220973 0 -2.500282e-17)
(-43.194447 0 -2.4992152e-17)
(-43.167932 2.4981323e-17 4.9962645e-17)
(-43.14143 2.4970347e-17 2.4970347e-17)
(-43.11494 0 -7.4877579e-17)
(-43.088462 -2.4947856e-17 -2.4947856e-17)
(-43.061996 8.7174059e-31 7.4808891e-17)
(-43.035544 2.4924517e-17 -2.4924517e-17)
(-43.009104 -2.4912495e-17 -2.4912495e-17)
(-42.982677 7.077077e-33 -1.4154154e-32)
(-42.956264 -8.7004423e-31 -2.4887772e-17)
(-42.929865 -5.1912446e-49 7.4625236e-17)
(-42.903481 4.9724301e-17 -1.7382971e-30)
(-42.87711 -1.0593767e-32 -4.9698007e-17)
(-42.850755 -2.4835621e-17 4.9671242e-17)
(-42.824414 0 2.4822026e-17)
(-42.798088 -2.4808208e-17 -2.4808208e-17)
(-42.771778 2.4794192e-17 2.4794192e-17)
(-42.745483 2.4779957e-17 -2.4779957e-17)
(-42.719203 -4.9531034e-17 -4.9531034e-17)
(-42.692939 -2.4750849e-17 2.4750849e-17)
(-42.666692 4.9471942e-17 8.5419187e-31)
(-42.640461 2.4720874e-17 2.4720874e-17)
(-42.614247 -2.470559e-17 4.941118e-17)
(-42.58805 -2.4690116e-17 -2.4690116e-17)
(-42.56187 -2.4674484e-17 -2.4674484e-17)
(-42.535707 0 -2.4658681e-17)
(-42.509562 2.464273e-17 -8.5797594e-31)
(-42.483435 2.4626612e-17 -8.5391511e-31)
(-42.457325 -2.4610342e-17 8.5684829e-31)
(-42.431232 -8.5278078e-31 4.9187797e-17)
(-42.405158 2.4577296e-17 2.4577296e-17)
(-42.379102 -2.4560517e-17 -2.4560517e-17)
(-42.353065 -2.4543583e-17 -4.9087166e-17)
(-42.327046 0 -2.4526484e-17)
(-42.301046 2.4509246e-17 -2.4509246e-17)
(-42.275064 2.449186e-17 1.6984853e-30)
(-42.249102 -2.4474345e-17 4.894869e-17)
(-42.22316 2.4456682e-17 -6.9510072e-33)
(-42.197236 -1.3891898e-32 6.9459489e-33)
(-42.171332 -2.442093e-17 6.9627216e-48)
(-42.145447 2.4402833e-17 2.4402833e-17)
(-42.119581 -2.4384575e-17 -1.6910452e-30)
(-42.093736 1.6966948e-30 3.3933896e-30)
(-42.067911 2.4347639e-17 2.4347639e-17)
(-42.042106 -2.432898e-17 -2.432898e-17)
(-42.016321 2.4310196e-17 2.4310196e-17)
(-41.990557 2.4291312e-17 8.4228876e-31)
(-41.964814 -2.4272312e-17 -2.4272312e-17)
(-41.939091 0 2.4253208e-17)
(-41.913389 0 -3.443856e-33)
(-41.887708 -2.4214652e-17 -2.4214652e-17)
(-41.862048 -2.419521e-17 0)
(-41.836409 2.4175687e-17 2.4175687e-17)
(-41.810792 2.4156082e-17 1.6717666e-30)
(-41.785196 -2.4136422e-17 -4.8272845e-17)
(-41.759622 -1.6724678e-30 2.4116692e-17)
(-41.734069 2.4096898e-17 -6.8487504e-33)
(-41.708537 -2.4077007e-17 -2.4077007e-17)
(-41.683026 -2.4057016e-17 2.4057016e-17)
(-41.657537 0 -2.4036897e-17)
(-41.63207 2.4016665e-17 2.4016665e-17)
(-41.606625 2.399631e-17 -9.9983567e-30)
(-41.581203 0 -6.6508041e-30)
(-41.555803 -2.3955293e-17 2.3955293e-17)
(-41.530425 -2.393463e-17 -4.7869261e-17)
(-41.50507 0 0)
(-41.479737 2.3892919e-17 -1.6569493e-30)
(-41.454427 4.9664621e-30 -4.9664621e-30)
(-41.429139 -2.3850594e-17 2.3850594e-17)
(-41.403874 2.3829157e-17 2.3829157e-17)
(-41.378632 2.3807536e-17 1.6408783e-30)
(-41.353413 -2.3785716e-17 -2.3785716e-17)
(-41.328219 -1.6412363e-30 2.3763731e-17)
(-41.303048 1.6329593e-30 1.6329593e-30)
(-41.277903 1.0112161e-32 1.0112161e-32)
(-41.252781 2.3696976e-17 3.2833542e-30)
(-41.227684 -2.3674545e-17 -4.7349091e-17)
(-41.202612 -3.280491e-30 2.3652052e-17)
(-41.177564 1.6252523e-30 2.3629537e-17)
(-41.152539 -1.6237022e-30 -1.6237022e-30)
(-41.127539 2.358447e-17 1.625504e-30)
(-41.102563 0 -4.8986374e-30)
(-41.07761 0 1.6257422e-30)
(-41.052682 -2.3516872e-17 -2.3516872e-17)
(-41.027779 -2.3494433e-17 0)
(-41.0029 0 0)
(-40.978045 0 0)
(-40.953215 2.3427961e-17 0)
(-40.928408 9.6094337e-49 -2.3406166e-17)
(-40.903625 -2.3384543e-17 4.8750514e-30)
(-40.878865 0 2.3363115e-17)
(-40.854127 2.3341872e-17 2.3341872e-17)
(-40.829412 -2.3320826e-17 -2.3320826e-17)
(-40.804719 -6.4566854e-30 -2.3299941e-17)
(-40.780049 4.6558429e-17 4.6558429e-17)
(-40.755401 -2.3258628e-17 1.6096567e-30)
(-40.730775 -4.8247336e-30 -4.8247336e-30)
(-40.706172 -3.29948e-33 -2.3218026e-17)
(-40.681591 -2.3198085e-17 -2.3198085e-17)
(-40.657032 2.317838e-17 2.317838e-17)
(-40.632494 -3.2910764e-33 0)
(-40.607976 -3.2028316e-30 2.3139552e-17)
(-40.583479 1.6000871e-30 1.6000871e-30)
(-40.559002 -2.310128e-17 -2.310128e-17)
(-40.534546 0 -2.3082379e-17)
(-40.51011 2.3063657e-17 3.211992e-30)
(-40.485695 1.5948814e-30 2.3045134e-17)
(-40.4613 6.3908037e-30 -4.6053541e-17)
(-40.436924 2.3008564e-17 2.3008564e-17)
(-40.412569 0 2.2990492e-17)
(-40.388233 -2.2972592e-17 -2.2972592e-17)
(-40.363916 -2.2954873e-17 2.2954873e-17)
(-40.339619 0 0)
(-40.31534 0 0)
(-40.291079 0 0)
(-40.266836 2.2885741e-17 2.2885741e-17)
(-40.242612 1.5826754e-30 -2.2868763e-17)
(-40.218406 -2.2851905e-17 -4.570381e-17)
(-40.194219 0 2.2835224e-17)
(-40.17005 0 -1.5856976e-30)
(-40.145899 2.2802412e-17 2.2802412e-17)
(-40.121766 2.278625e-17 2.278625e-17)
(-40.097651 -2.2770239e-17 -4.5540479e-17)
(-40.073552 -2.2754371e-17 6.4671813e-33)
(-40.049471 0 -6.4627266e-33)
(-40.025407 2.2723223e-17 2.2723223e-17)
(-40.001359 2.2707955e-17 2.2707955e-17)
(-39.977327 -2.2692826e-17 -4.5385653e-17)
(-39.953311 -2.2677803e-17 3.2227097e-33)
(-39.929311 0 -4.7213776e-30)
(-39.905327 2.2648033e-17 2.2648033e-17)
(-39.88136 -6.2848438e-30 -1.2569688e-29)
(-39.85741 -1.5686054e-30 -3.1372107e-30)
(-39.833475 2.2604861e-17 2.2604861e-17)
(-39.809555 -2.2590902e-17 -2.2590902e-17)
(-39.78565 -2.2577051e-17 0)
(-39.761759 0 -2.2563304e-17)
(-39.737883 2.2549679e-17 2.2549679e-17)
(-39.714023 -3.1321379e-30 2.2536259e-17)
(-39.690177 2.2523071e-17 -2.2523071e-17)
(-39.666346 3.122107e-30 0)
(-39.642528 -4.4994649e-17 -2.2497325e-17)
(-39.618724 2.2484641e-17 2.2484641e-17)
(-39.594932 -3.116826e-30 2.2472042e-17)
(-39.571155 -7.7973178e-30 -7.7973178e-30)
(-39.547392 -1.5535078e-30 -4.4894617e-17)
(-39.523643 -2.2435287e-17 -4.4870574e-17)
(-39.499907 2.2423496e-17 6.7270488e-17)
(-39.476183 2.2411878e-17 4.4823756e-17)
(-39.452471 0 0)
(-39.428772 -2.2388955e-17 -4.477791e-17)
(-39.405085 -2.2377677e-17 -2.2377677e-17)
(-39.381411 0 2.2366606e-17)
(-39.357749 2.2355785e-17 2.2355785e-17)
(-39.3341 2.2345198e-17 2.2345198e-17)
(-39.310461 -4.4669561e-17 -4.4669561e-17)
(-39.286832 -2.2324472e-17 -4.4648943e-17)
(-39.263215 2.2314257e-17 2.2314257e-17)
(-39.239609 2.2304183e-17 4.4608366e-17)
(-39.216014 6.1843513e-30 6.1843513e-30)
(-39.19243 -2.228469e-17 -4.456938e-17)
(-39.168857 2.2275286e-17 2.2275286e-17)
(-39.145294 -1.5441274e-30 -3.0882549e-30)
(-39.12174 -2.2256927e-17 -2.2256927e-17)
(-39.098196 2.2247926e-17 4.4495852e-17)
(-39.074661 -1.5454179e-30 -2.2239084e-17)
(-39.051137 1.5479766e-30 3.0959533e-30)
(-39.027623 -6.3158783e-33 2.2222021e-17)
(-39.004117 -1.5341907e-30 -2.2213802e-17)
(-38.980621 2.2205758e-17 2.2205758e-17)
(-38.957133 0 -4.439575e-17)
(-38.933653 0 9.258412e-30)
(-38.910182 -2.218259e-17 4.436518e-17)
(-38.886719 -2.2175197e-17 -4.4350395e-17)
(-38.863264 0 -1.5341764e-30)
(-38.839818 0 2.2160959e-17)
(-38.816379 0 0)
(-38.792948 0 0)
(-38.769524 2.2141157e-17 2.2141157e-17)
(-38.746106 1.5255969e-30 -2.2134915e-17)
(-38.722695 -4.4257617e-17 -4.4257617e-17)
(-38.699291 9.4315388e-33 2.2122851e-17)
(-38.675894 2.2117091e-17 -6.2860554e-33)
(-38.652503 2.2111571e-17 2.2111571e-17)
(-38.629119 -3.0692392e-30 2.2106296e-17)
(-38.605741 -3.0622547e-30 -2.2101232e-17)
(-38.582367 -3.1400775e-33 0)
(-38.558999 -2.2091563e-17 -2.2091563e-17)
(-38.535636 -2.208694e-17 -2.208694e-17)
(-38.512278 -2.20825e-17 0)
(-38.488926 4.4156562e-17 4.4156562e-17)
(-38.465578 6.6222876e-17 2.2074292e-17)
(-38.442236 -2.2070512e-17 -4.4141025e-17)
(-38.418897 -4.4133814e-17 1.5271814e-30)
(-38.395561 0 -6.2708085e-33)
(-38.37223 2.206012e-17 2.206012e-17)
(-38.348902 2.2056934e-17 2.2056934e-17)
(-38.325578 -2.2053902e-17 -2.2053902e-17)
(-38.302258 6.2672805e-33 2.2051033e-17)
(-38.278941 -9.3997664e-33 -2.2048325e-17)
(-38.255627 6.2657835e-33 1.2531567e-32)
(-38.232317 2.2043335e-17 4.408667e-17)
(-38.209008 2.2041011e-17 -2.2041011e-17)
(-38.185703 -2.2038773e-17 -2.2038773e-17)
(-38.1624 -4.4073219e-17 -2.2036609e-17)
(-38.139099 2.2034514e-17 -3.0561417e-30)
(-38.115802 2.0571144e-50 2.203249e-17)
(-38.092507 2.2030547e-17 0)
(-38.069215 6.1044076e-30 0)
(-38.045924 -4.4053845e-17 -2.2026923e-17)
(-38.022636 0 3.057983e-30)
(-37.99935 0 -6.1123769e-30)
(-37.976065 4.4043883e-17 -3.060657e-30)
(-37.952782 -1.222922e-29 2.2020339e-17)
(-37.929501 -4.4037542e-17 -2.2018771e-17)
(-37.906223 0 3.1288405e-33)
(-37.882946 2.2015816e-17 2.2015816e-17)
(-37.859671 2.2014459e-17 0)
(-37.836399 -2.2013194e-17 0)
(-37.813127 3.1280975e-33 0)
(-37.789858 -3.0560056e-30 0)
(-37.76659 3.1278187e-33 0)
(-37.743323 2.2009313e-17 0)
(-37.720057 -2.2008742e-17 0)
(-37.696792 -2.2008375e-17 -2.2008375e-17)
(-37.673528 0 0)
(-37.650264 2.2008278e-17 2.2008278e-17)
(-37.626999 -3.0556701e-30 0)
(-37.603734 -2.2009103e-17 -2.2009103e-17)
(-37.580469 4.4019816e-17 -6.1054578e-30)
(-37.557203 -6.1057576e-30 2.2010988e-17)
(-37.533936 -2.2012361e-17 0)
(-37.510669 -6.1128643e-30 0)
(-37.4874 -4.4032194e-17 -2.2016097e-17)
(-37.46413 4.4037056e-17 -3.0570536e-30)
(-37.440858 2.2021369e-17 2.2021369e-17)
(-37.417583 -2.2024627e-17 0)
(-37.394304 -3.1304091e-33 0)
(-37.371021 -2.2032363e-17 -2.2032363e-17)
(-37.347733 0 -2.2036816e-17)
(-37.324441 0 2.2041651e-17)
(-37.301144 2.2046875e-17 2.2046875e-17)
(-37.277842 -3.058637e-30 0)
(-37.254534 -4.4117113e-17 -2.2058556e-17)
(-37.231221 3.1356305e-33 3.1356305e-33)
(-37.2079 6.6215835e-17 2.2071945e-17)
(-37.184572 -2.2079261e-17 -2.2079261e-17)
(-37.161235 -2.2086966e-17 -2.2086966e-17)
(-37.137891 4.4190086e-17 2.2095043e-17)
(-37.114538 -2.2103486e-17 2.2103486e-17)
(-37.091177 2.2112296e-17 0)
(-37.067806 4.4242953e-17 -2.2121476e-17)
(-37.044426 -2.2131028e-17 -2.2131028e-17)
(-37.021037 -2.2140949e-17 2.2140949e-17)
(-36.997636 -2.2151232e-17 2.2151232e-17)
(-36.974225 2.2161867e-17 0)
(-36.950803 -1.2259201e-48 -2.2172843e-17)
(-36.927369 -2.2184147e-17 -2.2184147e-17)
(-36.903924 2.2195766e-17 2.2195766e-17)
(-36.880466 -2.2207698e-17 2.2207698e-17)
(-36.856996 2.2219942e-17 0)
(-36.833513 6.1608873e-30 0)
(-36.810018 6.3225225e-33 0)
(-36.786509 2.2258613e-17 0)
(-36.762986 -4.4544283e-17 0)
(-36.739448 2.2285971e-17 0)
(-36.715896 6.1922911e-30 0)
(-36.692329 -6.1899479e-30 0)
(-36.668747 -2.2329174e-17 -2.2329174e-17)
(-36.645149 -4.468828e-17 1.288003e-47)
(-36.621536 6.7078164e-17 2.2359388e-17)
(-36.597907 6.2067096e-30 0)
(-36.574262 -1.2422188e-29 0)
(-36.5506 6.2091872e-30 0)
(-36.526922 -4.484633e-17 -2.2423165e-17)
(-36.503226 4.4879594e-17 -3.1123536e-30)
(-36.479513 -6.2293941e-30 2.2456693e-17)
(-36.455782 -4.4947684e-17 -2.2473842e-17)
(-36.432033 0 3.1226845e-30)
(-36.408266 0 -3.1987036e-33)
(-36.384481 2.252676e-17 -3.1276164e-30)
(-36.360677 -3.1269301e-30 2.2544892e-17)
(-36.336854 -2.256327e-17 -2.256327e-17)
(-36.313011 -2.2581884e-17 2.2581884e-17)
(-36.289149 2.2600721e-17 -1.2557964e-29)
(-36.265268 6.7859298e-17 -2.2619766e-17)
(-36.241366 -2.2639008e-17 2.2639008e-17)
(-36.217444 -2.2658443e-17 0)
(-36.193502 -6.4454949e-33 0)
(-36.169539 -2.2697886e-17 -2.2697886e-17)
(-36.145556 0 -3.1541532e-30)
(-36.121552 4.5476158e-17 2.2738079e-17)
(-36.097527 4.5516878e-17 -2.2758439e-17)
(-36.073481 -2.277896e-17 -2.277896e-17)
(-36.049413 -4.559927e-17 0)
(-36.025324 -2.2820458e-17 2.2820458e-17)
(-36.001213 4.5682853e-17 2.2841427e-17)
(-35.97708 4.5725078e-17 -2.2862539e-17)
(-35.952924 -4.5767579e-17 -6.351121e-30)
(-35.928747 -4.5810341e-17 -4.4558031e-48)
(-35.904547 0 -3.1831402e-30)
(-35.880325 4.5896565e-17 2.2948282e-17)
(-35.85608 -2.2970001e-17 -2.2970001e-17)
(-35.831813 -4.5983655e-17 1.8170572e-47)
(-35.807523 2.3013766e-17 -3.1952324e-30)
(-35.78321 2.3035816e-17 -2.3035816e-17)
(-35.758874 -3.276735e-33 0)
(-35.734514 3.2044597e-30 0)
(-35.710132 2.3102565e-17 2.3102565e-17)
(-35.685726 -2.3124987e-17 3.2862583e-33)
(-35.661298 -2.3147492e-17 -9.6315287e-30)
(-35.636846 2.3170086e-17 2.3170086e-17)
(-35.61237 -3.2167898e-30 0)
(-35.587871 -3.299128e-33 0)
(-35.563348 -3.2231195e-30 -2.3238409e-17)
(-35.538801 -2.3261341e-17 6.4492947e-30)
(-35.514231 2.3284339e-17 2.3284339e-17)
(-35.489636 -9.7080017e-30 0)
(-35.465017 -3.2392111e-30 0)
(-35.440375 -6.4815416e-30 0)
(-35.415708 -2.3376953e-17 -2.3376953e-17)
(-35.391017 2.3400244e-17 3.3253747e-33)
(-35.366301 -3.2521301e-30 2.3423573e-17)
(-35.341562 -6.5007504e-30 -2.3446932e-17)
(-35.316798 -3.3353327e-33 2.3470317e-17)
(-35.29201 -4.6987463e-17 -6.5304191e-30)
(-35.267198 -2.3517177e-17 -4.7034355e-17)
(-35.242362 2.3540654e-17 2.3540654e-17)
(-35.217501 4.7128309e-17 9.8149451e-30)
(-35.192616 -3.2749128e-30 3.2749128e-30)
(-35.167705 -4.7222349e-17 -3.2781767e-30)
(-35.142771 -2.3634666e-17 -2.3634666e-17)
(-35.117812 4.7316262e-17 0)
(-35.092828 2.3681565e-17 0)
(-35.06782 -2.3704965e-17 2.3704965e-17)
(-35.042789 -2.3728331e-17 3.2944427e-30)
(-35.017733 -6.5919883e-30 -6.5919883e-30)
(-34.992652 2.3774947e-17 -1.2077822e-48)
(-34.967548 0 -2.3798182e-17)
(-34.94242 0 2.3821354e-17)
(-34.917267 2.3844453e-17 2.3844453e-17)
(-34.892091 0 0)
(-34.866891 -2.3890401e-17 -2.3890401e-17)
(-34.841667 2.3913241e-17 -3.3201156e-30)
(-34.816419 3.4015076e-33 2.3935982e-17)
(-34.791148 -6.6494253e-30 0)
(-34.765853 0 0)
(-34.740534 -2.4003493e-17 -2.4003493e-17)
(-34.715193 2.4025718e-17 6.8285196e-33)
(-34.689829 2.4047788e-17 -1.1485499e-48)
(-34.664442 -4.8139397e-17 -2.4069698e-17)
(-34.639032 -2.4091442e-17 2.4091442e-17)
(-34.6136 2.411301e-17 -3.3409982e-30)
(-34.588146 0 3.3508198e-30)
(-34.56267 0 -6.7040875e-30)
(-34.537172 -2.4176533e-17 -2.4176533e-17)
(-34.511652 6.722542e-30 2.4197281e-17)
(-34.486111 2.4217802e-17 -6.7248016e-30)
(-34.460549 0 6.7338788e-30)
(-34.434966 0 -6.7394453e-30)
(-34.409362 -2.4277896e-17 -2.4277896e-17)
(-34.383738 1.0123806e-29 2.4297392e-17)
(-34.358094 2.4316603e-17 -6.7522369e-30)
(-34.332431 0 3.3856621e-30)
(-34.306748 0 0)
(-34.281046 0 -2.437249e-17)
(-34.255325 0 2.4390519e-17)
(-34.229586 0 -3.3888403e-30)
(-34.203828 0 3.4710891e-33)
(-34.178053 0 -3.3936214e-30)
(-34.15226 0 3.3994179e-30)
(-34.126451 4.8951523e-17 2.4475761e-17)
(-34.100625 1.3594811e-29 -2.4491802e-17)
(-34.074782 -2.45075e-17 -2.45075e-17)
(-34.048923 2.4522849e-17 2.4522849e-17)
(-34.023049 -2.4537845e-17 2.4537845e-17)
(-33.99716 2.4552489e-17 0)
(-33.971255 -6.8286904e-30 -2.4566788e-17)
(-33.945337 -2.4580748e-17 -2.4580748e-17)
(-33.919404 -6.8293681e-30 0)
(-33.893457 -2.460766e-17 2.460766e-17)
(-33.867497 0 -3.4183258e-30)
(-33.841524 0 3.5005883e-33)
(-33.815538 2.4645457e-17 3.4182742e-30)
(-33.789539 6.8468647e-30 -2.4657383e-17)
(-33.763529 -2.4668991e-17 2.4668991e-17)
(-33.737507 0 3.4231055e-30)
(-33.711474 0 -6.8562785e-30)
(-33.68543 0 -2.4701975e-17)
(-33.659375 0 -2.4712364e-17)
(-33.63331 0 4.9444919e-17)
(-33.607234 0 -3.5146673e-33)
(-33.581149 0 3.4316389e-30)
(-33.555055 4.9502201e-17 2.47511e-17)
(-33.528951 -2.0612115e-29 -2.4760133e-17)
(-33.502838 -4.9537839e-17 3.438918e-30)
(-33.476717 2.4777462e-17 2.4777462e-17)
(-33.450586 3.5222692e-33 0)
(-33.424448 2.4793838e-17 0)
(-33.398301 -1.3752722e-29 0)
(-33.372147 -4.9618635e-17 -2.4809317e-17)
(-33.345985 -2.4816739e-17 -2.4816739e-17)
(-33.319816 4.3801562e-49 2.4823956e-17)
(-33.29364 7.449292e-17 2.4830973e-17)
(-33.267457 0 0)
(-33.241267 -4.968885e-17 -2.4844425e-17)
(-33.215071 0 -2.4850867e-17)
(-33.188868 0 2.4857125e-17)
(-33.16266 4.97264e-17 2.48632e-17)
(-33.136445 -6.8985848e-30 0)
(-33.110225 -7.4624435e-17 -2.4874812e-17)
(-33.083999 2.4880348e-17 -2.4880348e-17)
(-33.057768 2.4885705e-17 2.4885705e-17)
(-33.031532 -2.4890881e-17 6.9117025e-30)
(-33.00529 2.4895876e-17 -2.4895876e-17)
(-32.979044 -2.4900689e-17 0)
(-32.952794 -6.9086327e-30 0)
(-32.926538 2.4909762e-17 0)
(-32.900279 -2.4914019e-17 0)
(-32.874016 0 2.4918087e-17)
(-32.847748 -2.4921961e-17 -6.9132494e-30)
(-32.821478 2.4925639e-17 -2.4925639e-17)
(-32.795203 4.9858235e-17 2.4929118e-17)
(-32.768926 -2.4932396e-17 3.4616151e-30)
(-32.742646 -2.4935474e-17 -3.465586e-30)
(-32.716363 -2.4938351e-17 -2.2988971e-49)
(-32.690078 -2.4941028e-17 2.4941028e-17)
(-32.66379 4.988701e-17 2.4943505e-17)
(-32.6375 2.4945784e-17 -4.9891568e-17)
(-32.611209 -2.4947864e-17 -3.4637627e-30)
(-32.584915 0 3.4604782e-30)
(-32.558621 2.4951424e-17 -2.4951424e-17)
(-32.532325 -2.4952901e-17 0)
(-32.506027 -2.4954179e-17 2.4954179e-17)
(-32.47973 7.4865779e-17 2.495526e-17)
(-32.453431 7.0929647e-33 -2.4956151e-17)
(-32.427133 -4.9913716e-17 -6.9229297e-30)
(-32.400834 2.4957386e-17 2.4957386e-17)
(-32.374535 3.4651331e-30 0)
(-32.348236 2.4957907e-17 0)
(-32.321937 -7.0934649e-33 -2.4957911e-17)
(-32.295639 -4.9915504e-17 3.4615888e-30)
(-32.269341 2.495744e-17 2.495744e-17)
(-32.243044 0 0)
(-32.216748 -6.9298971e-30 -2.4956405e-17)
(-32.190454 -3.5464184e-33 3.5464184e-33)
(-32.16416 -2.4954879e-17 -6.9294734e-30)
(-32.137868 2.4953944e-17 -3.4610607e-30)
(-32.111577 -6.9289239e-30 2.49529e-17)
(-32.085288 -3.4607571e-30 -2.4951755e-17)
(-32.059 -3.545682e-33 3.545682e-33)
(-32.032714 -2.4949205e-17 -6.9278978e-30)
(-32.00643 2.4947826e-17 -2.4947826e-17)
(-31.980148 -2.5826663e-50 2.4946391e-17)
(-31.953868 -6.9267054e-30 6.9267054e-30)
(-31.92759 -3.5446686e-33 3.5446686e-33)
(-31.901314 -4.9883648e-17 -3.4629241e-30)
(-31.87504 -3.4591574e-30 -2.4940221e-17)
(-31.848768 2.4938583e-17 2.4938583e-17)
(-31.822499 0 0)
(-31.796231 0 -1.3844495e-29)
(-31.769966 -2.4933551e-17 -3.4582321e-30)
(-31.743703 -1.0373996e-29 -1.0373996e-29)
(-31.717442 2.4930193e-17 -3.5427935e-33)
(-31.691184 -2.4928525e-17 -2.4928525e-17)
(-31.664927 3.4608468e-30 2.4926862e-17)
(-31.638672 -6.4828388e-50 -6.4828388e-50)
(-31.61242 -3.4603859e-30 -3.4603859e-30)
(-31.586169 2.4921887e-17 6.920312e-30)
(-31.559921 2.4920237e-17 -3.459927e-30)
(-31.533675 3.4561579e-30 4.9837191e-17)
(-31.507431 -2.4916963e-17 -2.4916963e-17)
(-31.48119 0 -2.4915338e-17)
(-31.45495 0 -3.459022e-30)
(-31.428713 2.4912103e-17 3.4587976e-30)
(-31.402478 -2.4910487e-17 4.9820974e-17)
(-31.376245 2.0735934e-29 -2.490887e-17)
(-31.350014 2.490725e-17 -2.490725e-17)
(-31.323785 -2.4905626e-17 -1.7319685e-50)
(-31.297559 0 0)
(-31.271335 2.490235e-17 -1.6221113e-50)
(-31.245113 2.4900688e-17 -2.4900688e-17)
(-31.218892 -2.4899003e-17 2.4899003e-17)
(-31.192674 -2.4897289e-17 -1.2579119e-50)
(-31.166459 0 -3.4529604e-30)
(-31.140245 2.4893757e-17 -3.5376157e-33)
(-31.114034 2.4891933e-17 -2.4891933e-17)
(-31.087825 -4.9780133e-17 4.9780133e-17)
(-31.061618 -2.4888156e-17 6.9109457e-30)
(-31.035414 2.48862e-17 -2.48862e-17)
(-31.009213 2.4884196e-17 3.4513868e-30)
(-30.983013 3.4511018e-30 -3.4511018e-30)
(-30.956817 2.4880034e-17 2.4880034e-17)
(-30.930623 6.9080896e-30 -2.487787e-17)
(-30.904432 -4.9751299e-17 -5.0372637e-50)
(-30.878243 0 -1.0363795e-29)
(-30.852058 0 6.9097255e-30)
(-30.825875 0 -6.9019923e-30)
(-30.799695 2.4866191e-17 -6.9048463e-30)
(-30.773518 2.486369e-17 2.6165611e-50)
(-30.747345 0 0)
(-30.721174 -2.4858547e-17 2.4858547e-17)
(-30.695007 -3.4439315e-30 0)
(-30.668843 2.4853233e-17 0)
(-30.642682 0 -2.4850515e-17)
(-30.616524 0 -6.8997273e-30)
(-30.59037 -2.4844961e-17 2.4844961e-17)
(-30.564219 -3.445553e-30 0)
(-30.538071 3.4416278e-30 0)
(-30.511927 -2.4836417e-17 -4.9672835e-17)
(-30.485786 2.4833536e-17 -2.067322e-29)
(-30.459649 -1.0331878e-29 4.9661289e-17)
(-30.433515 -2.4827749e-17 -2.4827749e-17)
(-30.407385 0 3.5278241e-33)
(-30.381258 -2.4821969e-17 -3.4462835e-30)
(-30.355135 -3.4458846e-30 -2.4819096e-17)
(-30.329015 2.4816237e-17 0)
(-30.302898 -2.4813392e-17 0)
(-30.276785 2.4810561e-17 0)
(-30.250675 2.4807749e-17 -2.4807749e-17)
(-30.224568 -2.4804963e-17 -6.8807946e-30)
(-30.198465 0 2.4802212e-17)
(-30.172365 2.4799503e-17 0)
(-30.146269 2.4796837e-17 0)
(-30.120176 -2.4794213e-17 -2.4794213e-17)
(-30.094085 -2.4791626e-17 3.523102e-33)
(-30.067998 0 2.4789076e-17)
(-30.041914 -2.4786563e-17 0)
(-30.015833 2.4784092e-17 0)
(-29.989755 2.4781664e-17 -2.4781664e-17)
(-29.96368 -2.477928e-17 -6.8736702e-30)
(-29.937608 -4.9553876e-17 -6.8835837e-30)
(-29.911538 1.3758847e-29 6.8794233e-30)
(-29.885472 7.4317105e-17 2.4772368e-17)
(-29.859408 1.229136e-50 -2.4770134e-17)
(-29.833347 -2.4767931e-17 6.874042e-30)
(-29.807289 -4.9531515e-17 -6.8734386e-30)
(-29.781233 1.3738647e-29 6.8693236e-30)
(-29.75518 4.9522975e-17 2.4761487e-17)
(-29.72913 -2.4759384e-17 0)
(-29.703083 2.4757297e-17 0)
(-29.677037 -2.4755219e-17 -2.4755219e-17)
(-29.650995 -2.4753146e-17 -1.3303923e-49)
(-29.624955 4.9502143e-17 2.4751071e-17)
(-29.598918 0 0)
(-29.572883 0 0)
(-29.546851 -4.948962e-17 -2.474481e-17)
(-29.520821 -6.143596e-50 -1.2287192e-49)
(-29.494795 4.9481142e-17 2.4740571e-17)
(-29.46877 0 0)
(-29.442749 0 0)
(-29.41673 -4.9468014e-17 -2.4734007e-17)
(-29.390714 -1.2408073e-49 -2.4816146e-49)
(-29.364701 4.9458885e-17 2.4729443e-17)
(-29.33869 0 0)
(-29.312683 0 0)
(-29.286679 -4.9444547e-17 -2.4722274e-17)
(-29.260677 -2.4719786e-17 3.5128928e-33)
(-29.234679 4.9434488e-17 2.4717244e-17)
(-29.208684 2.4714649e-17 -2.4714649e-17)
(-29.182692 0 6.8655429e-30)
(-29.156703 -4.941861e-17 -6.8647937e-30)
(-29.130718 1.3721039e-29 6.8605193e-30)
(-29.104735 4.940751e-17 2.4703755e-17)
(-29.078756 -2.4700894e-17 0)
(-29.05278 0 0)
(-29.026808 2.469498e-17 0)
(-29.000839 -2.4691932e-17 0)
(-28.974873 3.5084942e-33 0)
(-28.948912 2.468569e-17 -2.468569e-17)
(-28.922954 -2.4682506e-17 6.8503331e-30)
(-28.897001 2.4679282e-17 2.4679282e-17)
(-28.87105 2.4676016e-17 0)
(-28.845104 -2.4672707e-17 0)
(-28.819162 -2.4669358e-17 0)
(-28.793223 6.8492513e-30 0)
(-28.767289 2.4662574e-17 0)
(-28.741359 -2.4659155e-17 0)
(-28.715432 -6.8464036e-30 0)
(-28.68951 2.465228e-17 -2.465228e-17)
(-28.663592 -2.4648825e-17 1.3681971e-29)
(-28.637677 2.4645364e-17 2.4645364e-17)
(-28.611767 2.4641902e-17 0)
(-28.585861 -2.4638449e-17 0)
(-28.559959 -2.4635013e-17 0)
(-28.534061 6.8397048e-30 0)
(-28.508166 2.4628206e-17 0)
(-28.482276 -2.4624836e-17 0)
(-28.45639 3.4989243e-33 0)
(-28.430507 2.4618177e-17 -2.4618177e-17)
(-28.404629 -2.4614903e-17 6.8315709e-30)
(-28.378754 2.4611678e-17 2.4611678e-17)
(-28.352884 2.4608505e-17 0)
(-28.327017 -2.4605385e-17 0)
(-28.301153 -4.9204631e-17 -2.4602316e-17)
(-28.275293 1.3668461e-29 6.8342307e-30)
(-28.249437 4.9192654e-17 2.4596327e-17)
(-28.223584 -2.4593414e-17 0)
(-28.197734 3.4945289e-33 0)
(-28.171888 4.917555e-17 0)
(-28.146046 6.9874929e-33 -2.4585055e-17)
(-28.120207 -2.4582399e-17 -6.8295364e-30)
(-28.09437 0 2.4579803e-17)
(-28.068537 2.4577262e-17 0)
(-28.042707 0 0)
(-28.01688 -2.4572349e-17 0)
(-27.991056 0 0)
(-27.965234 0 0)
(-27.939416 0 0)
(-27.9136 -2.4563197e-17 0)
(-27.887787 -1.0932085e-50 -2.4561024e-17)
(-27.861977 2.4558888e-17 3.4900278e-33)
(-27.836169 0 2.4556787e-17)
(-27.810364 2.4554723e-17 0)
(-27.784562 -6.8177938e-30 0)
(-27.758762 -2.4550689e-17 0)
(-27.732964 0 0)
(-27.707169 0 0)
(-27.681377 0 0)
(-27.655586 -2.4542803e-17 0)
(-27.629799 6.8145032e-30 -2.4540841e-17)
(-27.604014 2.4538879e-17 -3.4871844e-33)
(-27.578231 0 2.4536912e-17)
(-27.552451 2.4534938e-17 0)
(-27.526673 6.8088254e-30 0)
(-27.500898 -2.4530941e-17 0)
(-27.475125 0 -2.452891e-17)
(-27.449355 2.4526851e-17 1.3617752e-29)
(-27.423588 -2.4524764e-17 2.4524764e-17)
(-27.397823 1.3625872e-29 0)
(-27.37206 2.4520499e-17 -2.4520499e-17)
(-27.346301 -2.4518319e-17 -6.8117335e-30)
(-27.320544 0 2.4516104e-17)
(-27.29479 -2.4513851e-17 0)
(-27.269039 -6.8063726e-30 0)
(-27.24329 2.4509232e-17 -2.4509232e-17)
(-27.217545 0 -2.4506866e-17)
(-27.191802 2.4504464e-17 2.4504464e-17)
(-27.166062 -2.4502025e-17 2.4502025e-17)
(-27.140325 -1.3606076e-29 0)
(-27.114591 2.4497045e-17 0)
(-27.088861 -1.3599794e-29 0)
(-27.063133 -3.4805143e-33 0)
(-27.037408 6.8036846e-30 2.4489347e-17)
(-27.011687 -3.4797728e-33 -3.4797728e-33)
(-26.985969 -2.4484077e-17 -4.8968153e-17)
(-26.960253 0 -2.4481408e-17)
(-26.934542 2.4478725e-17 4.895745e-17)
(-26.908833 -6.7930285e-30 4.8952062e-17)
(-26.883128 -6.7922783e-30 -2.4473328e-17)
(-26.857425 3.8672176e-50 -2.4470617e-17)
(-26.831726 -6.7942488e-30 0)
(-26.806031 0 0)
(-26.780338 -4.8924926e-17 0)
(-26.754649 -6.7919876e-30 0)
(-26.728964 2.4457063e-17 -2.4457063e-17)
(-26.703281 -2.4454385e-17 -6.7939713e-30)
(-26.677601 6.7862814e-30 2.445172e-17)
(-26.651925 2.4449071e-17 0)
(-26.626252 2.4446439e-17 0)
(-26.600582 6.7875651e-30 0)
(-26.574915 -6.7868479e-30 0)
(-26.549252 2.4438694e-17 0)
(-26.523591 -2.4436173e-17 0)
(-26.497933 -2.4433683e-17 0)
(-26.472279 0 0)
(-26.446627 -2.4428788e-17 0)
(-26.420978 6.7827217e-30 0)
(-26.395333 2.4424021e-17 0)
(-26.36969 0 0)
(-26.34405 0 0)
(-26.318412 0 0)
(-26.292778 -4.8829807e-17 -2.4414903e-17)
(-26.267146 2.7115675e-29 1.3557837e-29)
(-26.241516 4.8821005e-17 2.4410503e-17)
(-26.21589 0 0)
(-26.190266 0 0)
(-26.164645 0 2.44041e-17)
(-26.139027 0 -6.7759566e-30)
(-26.113411 0 3.4674442e-33)
(-26.087798 0 -2.4397928e-17)
(-26.062187 0 -2.4395895e-17)
(-26.036578 -4.8787738e-17 -1.3543917e-29)
(-26.010972 1.3553196e-29 6.7765979e-30)
(-25.985369 4.8779683e-17 2.4389842e-17)
(-25.959768 2.4387841e-17 0)
(-25.93417 -2.4385845e-17 0)
(-25.908574 -2.4383846e-17 0)
(-25.882981 6.7738162e-30 0)
(-25.85739 1.3525723e-29 0)
(-25.831801 2.4377788e-17 -2.4377788e-17)
(-25.806215 -2.4375747e-17 1.3533856e-29)
(-25.780632 2.4373697e-17 2.4373697e-17)