/*--------------------------------*- C++ -*----------------------------------*\
  =========                 |
  \\      /  F ield         | OpenFOAM: The Open Source CFD Toolbox
   \\    /   O peration     | Website:  https://openfoam.org
    \\  /    A nd           | Version:  7
     \\/     M anipulation  |
\*---------------------------------------------------------------------------*/
FoamFile
{
    version     2.0;
    format      ascii;
    class       volScalarField;
    location    "0.00203";
    object      Uy;
}
// * * * * * * * * * * * * * * * * * * * * * * * * * * * * * * * * * * * * * //

dimensions      [0 1 -1 0 0 0 0];

internalField   nonuniform List<scalar> 
5000
(
7.5044076e-21
1.00805e-20
0
0
-4.6903996e-21
5.1147339e-36
4.4728767e-21
0
0
-4.7537183e-21
-9.4019329e-21
4.6421301e-21
4.61104e-21
-4.6264051e-21
0
-4.6786109e-21
-1.0293596e-50
4.6732832e-21
0
4.6193637e-21
-4.5931616e-21
-4.5682885e-21
9.1088737e-21
-4.5685121e-21
-4.5921947e-21
-3.7945147e-35
4.5987458e-21
4.5907205e-21
-9.1418919e-21
7.8776093e-35
-7.8986094e-35
4.4797571e-21
8.8591394e-21
-8.8079352e-21
7.1848809e-35
-3.5338751e-34
-1.511711e-34
8.8759468e-21
-8.6404033e-21
-8.6124526e-21
8.6435845e-21
-2.94913e-34
-8.5206279e-21
4.2610049e-21
1.2756473e-20
-4.2083524e-21
-4.1711699e-21
-2.8303562e-34
-8.1360983e-21
0
3.9733538e-21
5.6666093e-37
-3.9696023e-21
7.8206468e-21
-1.3473804e-34
-7.609268e-21
3.7737755e-21
-1.2965919e-34
-3.7314244e-21
0
3.5472746e-21
1.1609059e-34
9.4800049e-37
3.4043019e-21
-3.4490404e-21
1.1852148e-34
3.2893768e-21
-3.1685646e-21
-3.1045874e-21
3.1390657e-21
3.1653025e-21
-3.1487854e-21
-3.0900685e-21
6.0174219e-21
2.934962e-21
-2.8544914e-21
0
2.7703738e-21
-3.9127198e-37
-2.7144075e-21
2.6449732e-21
-7.0515113e-37
6.8497367e-37
2.4872632e-21
2.5720662e-21
9.0396858e-35
-2.4924323e-21
0
-1.9327755e-21
-2.1446372e-34
-7.8602894e-35
2.3479839e-21
2.3951818e-21
-4.800403e-21
-1.6420893e-34
2.303166e-21
0
0
-2.198614e-21
-1.6056986e-34
4.7542088e-21
-2.377643e-21
-4.6637785e-21
0
2.3167454e-21
2.3951819e-21
-2.4747855e-21
-2.4944401e-21
0
0
2.1880688e-21
2.2094199e-21
0
-2.5480668e-21
9.0955965e-35
2.6319746e-21
-2.6197681e-21
7.2609948e-37
-8.7927799e-35
3.5858016e-51
5.3518248e-21
-1.1722276e-36
-2.7433853e-21
0
-2.6371814e-21
2.6617217e-21
2.7620344e-21
-5.6740604e-21
-2.8399432e-21
5.6193721e-21
2.7754515e-21
-2.7752084e-21
-2.8385831e-21
-2.8831243e-21
0
2.8648533e-21
2.7994185e-21
-2.7737032e-21
-9.8222944e-35
2.9206888e-21
-2.9662107e-21
-2.9342631e-21
0
2.8115623e-21
2.8043334e-21
-2.8958681e-21
2.9640797e-21
-1.6911929e-36
-2.9585738e-21
2.9252506e-21
-2.916267e-21
2.052558e-34
2.9922287e-21
-2.9985122e-21
2.9600305e-21
2.9373619e-21
-2.9662454e-21
0
0
-3.0141443e-21
-2.968247e-21
2.9620463e-21
3.0315774e-21
-3.0932626e-21
-2.133046e-34
3.0172304e-21
-2.9510504e-21
-2.959946e-21
0
3.1343091e-21
3.1391719e-21
0
-3.0104359e-21
-2.9731855e-21
0
3.1291732e-21
6.6207703e-34
-3.1560223e-21
3.0898006e-21
3.0359643e-21
-3.0504228e-21
-2.1640638e-34
2.1965342e-34
1.3503012e-36
3.0924378e-21
-3.0328105e-21
-4.2270065e-34
2.1531972e-34
-2.1917785e-34
3.1594461e-21
0
0
-3.0419949e-21
-3.0995111e-21
0
0
3.0338161e-21
-2.1238949e-51
-3.0312376e-21
0
3.0784856e-21
-3.0075164e-21
-8.1929519e-34
5.9326383e-21
-3.0068509e-21
-6.2644416e-34
-4.2415408e-37
-2.9210385e-21
2.8958396e-21
-4.1377298e-37
-4.0562858e-34
2.0161457e-34
-2.8559387e-21
0
2.854447e-21
1.9909768e-34
7.8827714e-34
2.753878e-21
0
-2.7467701e-21
-2.8217802e-21
0
0
0
2.6268193e-21
1.8133033e-34
-2.7002062e-21
0
0
2.7097819e-21
2.6444222e-21
-2.6245668e-21
-2.6713627e-21
0
2.7147296e-21
2.6771256e-21
-2.6147648e-21
-2.6063711e-21
0
2.721649e-21
-7.5486689e-34
-1.8401966e-34
2.5576518e-21
-2.5271923e-21
-2.5900789e-21
0
2.7190928e-21
-3.7397015e-34
2.618597e-21
3.5203683e-34
-5.0037256e-21
2.5353625e-21
-3.61172e-34
-9.1062798e-34
-1.7753675e-34
-2.4831402e-21
2.4040998e-21
2.4007163e-21
0
-2.5084391e-21
-2.4574284e-21
0
2.2105421e-21
2.1898747e-21
-4.5676384e-21
-2.3437567e-21
2.3272059e-21
2.2651542e-21
6.08864e-34
-2.1747853e-21
2.1939272e-21
-1.5269324e-34
-2.1436596e-21
2.0459719e-21
-1.4019967e-34
1.4435516e-34
-6.0411472e-37
-1.4606709e-34
2.0254118e-21
0
0
-1.9886846e-21
-2.0926275e-21
0
0
0
0
1.8627429e-21
1.3769397e-34
-4.1790494e-21
9.026534e-37
2.0895436e-21
2.0423503e-21
-2.7831059e-34
-2.7325249e-34
-2.7736683e-37
-1.9818194e-21
-2.0609415e-21
-2.1205595e-21
4.2647105e-21
6.3081068e-21
-2.05989e-21
-4.0424411e-21
0
1.9663268e-21
2.0157552e-21
-2.0980992e-21
6.049277e-37
-8.7257747e-37
5.4701911e-37
1.8556747e-21
1.9067984e-21
-2.024121e-21
-4.129246e-21
2.0172851e-21
6.5182055e-51
1.7938856e-21
4.9254447e-34
-3.7155151e-21
0
0
3.6649452e-21
-9.6734102e-34
-3.4534067e-21
0
1.7772231e-21
1.738686e-21
-1.6830527e-21
2.4085588e-37
-2.4074612e-34
2.4413151e-37
1.6514525e-21
-1.5885282e-21
-1.6196797e-21
0
1.7111629e-21
-2.2347667e-34
-1.4626543e-21
2.965385e-21
-4.5101285e-34
-1.73366e-21
-4.8586281e-34
-3.3739535e-21
3.1824266e-21
1.5075641e-21
-1.5327901e-21
-2.3417996e-37
-1.7020653e-21
0
0
1.4070161e-21
-2.0379643e-34
-3.2224005e-21
2.3628653e-37
4.940865e-21
-1.6136212e-21
-1.5598829e-21
2.9458222e-21
-1.3607252e-21
1.2755951e-21
2.658101e-21
-1.4453144e-21
-1.4956213e-21
-1.444983e-21
1.3046056e-21
1.5989747e-50
-1.0289147e-21
1.0867636e-21
-1.2180246e-21
1.2795744e-21
3.4386895e-34
3.0284122e-37
8.623846e-22
-1.6736001e-21
9.6241609e-22
3.0006412e-34
-3.1283186e-34
-1.0825189e-21
-1.7715768e-21
1.9943864e-21
1.949828e-34
-4.9328567e-34
2.7692944e-34
-2.0891209e-21
2.1361046e-21
-2.8857662e-34
-1.7252274e-21
0
0
6.7716146e-22
-1.2309726e-34
-9.4748092e-22
-9.1414004e-22
8.9224959e-22
2.8444657e-21
-1.0078495e-21
-9.7164771e-22
-2.2638384e-37
-6.4588966e-22
0
1.8333384e-21
2.0249932e-21
-9.8671127e-22
-1.6600795e-21
-6.2215788e-22
1.076114e-21
1.3156009e-21
-1.6277512e-21
-1.7539765e-21
0
1.1610907e-21
-2.8198937e-22
-5.7475124e-22
4.8041202e-22
6.0737746e-22
-9.3018047e-38
9.0168134e-35
4.4567092e-22
-1.5318293e-23
1.4072773e-22
3.7766672e-23
-2.9748416e-35
-3.7607823e-38
-4.0404226e-35
-3.4156545e-22
3.2838443e-22
-5.0471322e-35
2.2542575e-35
4.2539785e-35
-5.7369973e-23
2.3625619e-22
-4.7482804e-35
-6.3123605e-35
3.0912988e-38
9.7029715e-22
3.1945599e-22
-1.2477199e-23
3.7722456e-22
-3.1816812e-35
-2.384204e-22
5.4989587e-23
-1.2892905e-22
9.8586848e-23
-2.1388038e-22
-7.0580894e-23
6.9643219e-35
-2.8084611e-22
0
0
2.0190056e-22
0
5.6397614e-23
-6.5461108e-22
-1.3469628e-37
1.9966714e-34
0
1.3276716e-22
-6.3708906e-23
-2.975414e-22
1.6903681e-21
1.0378477e-21
-7.5252114e-22
0
0
6.2283516e-22
-2.8992198e-34
-1.0681665e-21
0
0
5.8064422e-22
-3.6875519e-34
-1.471246e-21
0
0
0
0
0
0
0
0
-5.4257338e-21
-1.2063886e-33
1.9556434e-21
-1.8437418e-21
1.8418898e-21
-2.3978056e-21
9.5423637e-34
4.1210518e-21
1.0944218e-33
3.3861742e-21
0
0
-3.2972011e-21
-1.1107264e-33
5.0100082e-21
0
0
0
0
0
0
0
-1.5469388e-20
5.9649218e-33
1.3886858e-20
-7.0994264e-21
-1.108931e-36
-8.9148601e-21
5.3194941e-33
1.9317922e-20
9.7883042e-21
-2.5610902e-50
-3.4682847e-20
0
2.2505933e-20
0
0
-2.6926571e-20
4.1222891e-33
4.5119968e-20
-1.4623631e-20
-1.4901747e-20
1.5534856e-20
-1.6699556e-20
1.8262014e-20
5.4349195e-33
-1.99953e-20
1.9981671e-20
0
2.1531223e-20
-2.2869639e-20
-4.8383278e-20
2.5148732e-20
2.5738016e-20
2.6469577e-20
2.764877e-20
-5.8122119e-20
-3.0352772e-20
3.1310141e-20
0
-3.3205587e-20
3.4808029e-20
3.6635295e-20
-1.1503838e-19
-1.1247582e-35
8.0607779e-20
-4.1195161e-20
-5.9174095e-33
-4.452893e-20
1.3270496e-35
9.7715361e-20
-5.0650875e-20
0
1.4778673e-32
7.8076226e-36
5.7221077e-20
-5.9679193e-20
1.7199309e-32
8.8474062e-33
9.294186e-36
6.7359406e-20
-6.9889676e-20
1.2798071e-49
2.0986039e-32
1.1100648e-35
1.6059459e-19
1.1439513e-32
-8.5070349e-20
0
0
9.4685249e-20
4.0633097e-32
-1.0045717e-19
1.0337958e-19
-1.4804637e-32
6.7289941e-49
1.5826473e-32
-1.1779079e-19
-1.2156782e-19
-1.7392473e-32
1.2936878e-19
0
0
-1.4188468e-19
1.4627129e-19
-1.2563618e-31
-1.5584648e-19
1.6094503e-19
0
-1.7114505e-19
-1.7630501e-19
1.8174637e-19
1.8758735e-19
0
-1.9994392e-19
-2.0599486e-19
4.2394519e-19
2.1820939e-19
-2.2499401e-19
-2.3232308e-19
-3.3273205e-32
-2.4735652e-19
-7.0697838e-32
5.2375889e-19
0
0
0
-2.9524615e-19
-3.042114e-19
0
3.2228341e-19
4.5938937e-32
-3.4114273e-19
0
0
3.7205966e-19
5.3092329e-32
-5.4539103e-32
4.046597e-19
-4.1603091e-19
1.7800219e-31
4.3987631e-19
0
4.6457393e-19
6.6251864e-32
-4.9008782e-19
5.0336097e-19
-5.1697861e-19
-5.308653e-19
5.4496641e-19
0
-5.7389659e-19
-5.8882737e-19
6.0408113e-19
6.1961242e-19
0
6.5137168e-19
-6.6764905e-19
-6.8427075e-19
7.0125427e-19
1.4370972e-18
-4.0878678e-31
-2.2614138e-18
8.7479276e-49
7.9015128e-19
1.6178126e-18
-4.5936632e-31
-1.6946352e-18
8.668238e-19
-8.8658353e-19
9.0670532e-19
9.2723356e-19
-1.8962291e-18
0
0
2.0244388e-18
-8.4975231e-48
-2.1126991e-18
0
0
2.2503159e-18
-9.1164968e-48
-2.3451209e-18
0
0
2.491093e-18
1.2705239e-18
-2.5916974e-18
-1.321501e-18
0
2.7475441e-18
-7.777036e-31
-2.8543438e-18
1.454169e-18
0
-1.5089629e-18
1.5369843e-18
-2.2246438e-34
-1.5942525e-18
1.623233e-18
-1.6523301e-18
-1.6815999e-18
1.7111675e-18
1.7411353e-18
-4.9191653e-31
-1.8022634e-18
1.8332539e-18
5.1771085e-31
-1.8957408e-18
1.9273049e-18
-1.9592042e-18
-1.9914855e-18
2.024107e-18
2.056971e-18
-5.8035269e-31
-2.1232169e-18
2.1566834e-18
-3.1128484e-34
-2.2245816e-18
2.2589446e-18
-2.2934931e-18
-2.328215e-18
2.3631534e-18
4.796714e-18
-1.352349e-30
-4.9391557e-18
2.5055466e-18
-3.6120136e-34
-5.1562175e-18
-7.4313211e-34
2.6513735e-18
0
-2.7253379e-18
0
2.8003483e-18
0
0
0
2.9523054e-18
-1.8461125e-48
-3.0291193e-18
0
-3.1070006e-18
8.7360372e-31
3.185154e-18
0
0
0
3.342816e-18
-9.3929782e-31
-3.4225573e-18
0
-3.5024653e-18
-9.8319501e-31
3.5827808e-18
0
-3.6634298e-18
3.7037718e-18
-2.0804157e-30
-3.7846238e-18
3.8252207e-18
0
3.9065551e-18
1.0960462e-30
-3.987716e-18
0
-4.0689752e-18
4.1096782e-18
2.3049395e-30
-4.190955e-18
2.3494135e-30
6.0709792e-34
-1.1981447e-30
6.1861976e-34
4.3935811e-18
0
-4.474218e-18
1.2529405e-30
1.2640997e-30
1.9240525e-48
1.2869766e-30
0
9.4287868e-18
1.3201264e-30
-4.7937468e-18
4.8331986e-18
-1.3522977e-30
-4.9116244e-18
-4.9506687e-18
-1.3855113e-30
1.3962756e-30
-5.0669426e-18
5.1053566e-18
5.1436201e-18
0
5.2195844e-18
-1.459823e-30
-5.2946338e-18
0
0
0
1.0885642e-17
-6.0858459e-30
-1.1030518e-17
0
0
0
0
0
0
0
1.159198e-17
-3.2393771e-30
-1.1727325e-17
-5.8970683e-18
5.9301184e-18
5.9628203e-18
-1.665605e-30
-3.3439282e-30
-6.0592432e-18
6.0908469e-18
-6.1221283e-18
-6.1530661e-18
6.1836604e-18
6.2139126e-18
-3.4657903e-30
-6.2733543e-18
-6.302563e-18
1.7563283e-30
6.3601481e-18
6.3885006e-18
-6.4164499e-18
-6.4439331e-18
6.4709756e-18
-6.4976681e-18
0
6.550246e-18
6.5760733e-18
-1.831224e-30
-6.6264248e-18
6.650921e-18
-6.6750325e-18
-6.6988122e-18
6.7222748e-18
-6.7453944e-18
-1.8793717e-30
6.7903929e-18
6.8122045e-18
9.7111124e-34
-1.37092e-17
-3.8172764e-30
6.8955926e-18
6.915504e-18
0
-6.953972e-18
0
0
0
-7.0259121e-18
-7.0428549e-18
7.0593953e-18
7.0755555e-18
0
-7.106613e-18
1.9784875e-30
7.1357466e-18
0
0
-7.1765076e-18
3.9905975e-30
7.2015417e-18
0
0
-7.2356447e-18
4.0222181e-30
7.256413e-18
0
-7.2752639e-18
2.0226246e-30
-2.0239117e-30
2.0271669e-30
7.3079265e-18
0
7.3215467e-18
-4.0663738e-30
-7.3334197e-18
0
-7.3437145e-18
7.3481351e-18
7.3520627e-18
-1.4711185e-17
-2.0454727e-30
1.4723076e-17
-2.0447981e-30
-7.3656679e-18
0
0
-7.3684774e-18
2.0450721e-30
7.3682786e-18
0
-7.3662137e-18
7.3645256e-18
7.3624279e-18
-7.3599307e-18
0
7.353702e-18
-7.3499411e-18
-4.0774461e-30
4.0748821e-30
-7.3361041e-18
6.1046801e-30
-7.3248909e-18
7.3186858e-18
-2.0293788e-30
4.0569384e-30
1.4595255e-17
-2.0221571e-30
-7.2815565e-18
0
0
0
1.4489687e-17
7.2347021e-18
-1.4448359e-17
-7.213282e-18
0
0
-7.178368e-18
-6.0567418e-49
7.1533007e-18
0
1.4253611e-17
7.1130108e-18
-1.4197742e-17
-7.0844032e-18
0
1.4108987e-17
2.0006131e-33
-2.1069663e-17
1.9437347e-30
1.3981253e-17
-6.9738769e-18
-3.9544984e-33
6.9394653e-18
-1.9230244e-30
-3.8301598e-30
-6.8854811e-18
0
-6.8480597e-18
3.7915496e-30
1.3619058e-17
-6.7898305e-18
1.1271421e-29
6.7496091e-18
-1.3458236e-17
9.5331769e-34
6.6873805e-18
0
0
0
6.6009307e-18
-6.5787381e-18
-1.3112625e-17
6.5336605e-18
1.8079184e-30
1.7996699e-30
6.4644683e-18
0
-6.4173162e-18
9.0856176e-34
1.2738742e-17
-6.3451387e-18
-3.5066928e-30
6.296157e-18
6.2713971e-18
-3.4708143e-30
-1.2442762e-17
0
-6.1707845e-18
-6.145264e-18
0
6.0937828e-18
6.0678485e-18
-6.0418015e-18
0
5.9893544e-18
0
0
-5.9098103e-18
4.8991985e-30
5.856333e-18
0
0
-5.7754179e-18
-5.7482872e-18
5.7211018e-18
5.6938636e-18
-5.666566e-18
-5.6391985e-18
1.1223523e-17
5.5842726e-18
-1.5437889e-30
-5.5292061e-18
3.0522638e-30
3.0369534e-30
-5.4464049e-18
5.4187264e-18
-5.3910228e-18
5.3633143e-18
4.5494156e-33
-5.3079146e-18
1.0560441e-17
5.2525186e-18
5.224803e-18
-1.0394166e-17
-1.0338755e-17
5.1416988e-18
-5.1140504e-18
5.0864331e-18
-2.8094803e-30
-1.0062547e-17
5.0037243e-18
-1.3810863e-30
1.3748673e-30
4.9213042e-18
0
0
-4.8393167e-18
-4.8120829e-18
0
4.7577833e-18
4.7307288e-18
0
4.6768103e-18
-1.2911981e-30
-4.6231567e-18
4.5964434e-18
-1.2676459e-30
-4.5432445e-18
0
-4.4903347e-18
-2.4784951e-30
4.4377641e-18
-4.4116184e-18
1.2159125e-30
4.3595774e-18
4.3336797e-18
1.1955985e-30
-4.2821663e-18
0
4.2310416e-18
-4.2056154e-18
1.1881074e-33
-2.3075473e-30
-4.1299175e-18
4.1048944e-18
0
8.1102763e-18
-8.9487188e-30
-4.0057701e-18
-2.2098942e-30
-7.9136593e-18
7.8650269e-18
7.8165884e-18
-7.768348e-18
-7.720316e-18
-3.8362511e-18
0
3.7887552e-18
7.530316e-18
-5.3172199e-34
3.7182669e-18
-3.694978e-18
-3.6717931e-18
3.6487097e-18
-7.2514573e-18
7.2057e-18
5.962649e-30
-7.1147683e-18
7.0695912e-18
-1.9495969e-30
3.4899228e-18
-3.4676472e-18
-3.4454699e-18
3.4233781e-18
9.4352586e-31
6.7589007e-18
-6.7152577e-18
-6.6718212e-18
6.628591e-18
9.1386966e-31
3.2713308e-18
-1.8049015e-30
-3.2286836e-18
-8.9020071e-31
-4.0565987e-48
-3.1653829e-18
-6.2889258e-18
3.1236217e-18
8.986678e-48
3.0821632e-18
5.0999202e-30
-3.0410199e-18
6.0411421e-18
-1.6653389e-30
-5.9598011e-18
-9.7274242e-49
2.9395107e-18
0
0
2.8794704e-18
-2.8595952e-18
-5.6795661e-18
0
0
0
2.7611931e-18
2.7417051e-18
0
-2.7028945e-18
2.6835749e-18
4.4374532e-30
-5.2902468e-18
0
0
0
2.5688803e-18
2.5499481e-18
-2.5310717e-18
2.5122484e-18
1.3847764e-30
-4.9494926e-18
0
0
4.8377094e-18
-6.8221227e-34
-2.3818302e-18
2.3633808e-18
-2.3449753e-18
2.3266189e-18
-1.2819449e-30
-4.5801028e-18
0
0
2.2355061e-18
2.2174101e-18
0
0
-2.163384e-18
-2.1454543e-18
0
2.1097247e-18
2.0919277e-18
-2.074171e-18
2.0564517e-18
2.0387696e-18
-2.0211294e-18
-2.0035371e-18
1.1029418e-30
1.9684938e-18
-1.9510323e-18
-5.3664989e-31
1.9162261e-18
0
1.8815953e-18
-1.0351209e-30
-1.8471502e-18
1.829997e-18
-1.0065505e-30
-1.7958338e-18
0
1.7618474e-18
-4.8452931e-31
-2.4556913e-34
1.7112163e-18
-1.6944531e-18
-1.6777426e-18
0
3.288915e-18
-1.808126e-30
-1.6113677e-18
-2.2665045e-34
-3.1570363e-18
3.1243691e-18
3.0918064e-18
-3.0593467e-18
-1.5134971e-18
0
2.9626554e-18
-2.4397218e-30
-2.8988695e-18
0
2.835571e-18
7.7864235e-31
-1.3863772e-18
-3.8063771e-31
-2.7105118e-18
2.6796155e-18
3.3080216e-30
-2.6182253e-18
2.5877322e-18
-7.0958927e-31
-2.5271896e-18
-1.2485793e-18
2.4672862e-18
1.2187826e-18
-2.4079942e-18
2.3785767e-18
2.9339452e-30
-2.3202251e-18
2.2913064e-18
-3.1413408e-31
1.1169917e-18
-1.2236328e-30
-3.265988e-18
5.964978e-31
2.1213476e-18
-1.0468179e-18
-2.0661102e-18
1.0193836e-18
-5.58439e-31
9.9230747e-19
1.0872927e-30
-9.656056e-19
1.9048012e-18
-7.8219961e-31
1.0284329e-30
-5.0671414e-31
-9.0050873e-19
0
-8.7517063e-19
-8.6266016e-19
0
0
0
0
0
7.8963274e-19
7.7782651e-19
0
-7.5453299e-19
7.4304498e-19
1.2187991e-30
-1.4407621e-18
0
0
0
6.762971e-19
6.6555453e-19
-6.5492093e-19
-6.4439265e-19
1.2679372e-18
1.0390478e-30
-1.2268656e-18
0
1.1866788e-18
9.719276e-31
-5.7369034e-19
5.6402423e-19
-5.5446132e-19
5.4500395e-19
2.9733104e-31
-1.0528533e-18
0
0
4.9938047e-19
4.9057137e-19
0
4.7327165e-19
1.3210107e-34
4.5641622e-19
-4.4814806e-19
-1.3199473e-18
0
-8.4790859e-19
-8.3219275e-19
0
1.2021135e-18
7.8632948e-19
-7.714501e-19
3.7838317e-19
3.7113969e-19
-1.0919953e-18
-3.5696132e-19
-4.974173e-35
-3.4319037e-19
3.3645072e-19
3.2980558e-19
3.2325568e-19
3.0832207e-49
3.1044822e-19
3.0418941e-19
-2.9802456e-19
0
-5.7194775e-19
-5.6017433e-19
0
2.6858611e-19
5.2593652e-19
1.4286177e-31
2.5200015e-19
4.933005e-19
-4.8277558e-19
-4.7242019e-19
-2.311151e-19
-2.261032e-19
0
2.163326e-19
6.3471582e-19
-2.0689128e-19
-2.3731898e-47
5.9329133e-19
-3.8663334e-19
-1.8894712e-19
-1.8465425e-19
-3.6087602e-19
3.5259622e-19
1.7223354e-19
-1.6824301e-19
-1.6432336e-19
-1.6047105e-19
4.7005975e-19
1.5297261e-19
-4.4798975e-19
-1.4575686e-19
1.4225008e-19
2.7761628e-19
-1.3543173e-19
1.3212085e-19
-2.145702e-31
2.0934284e-31
3.6770325e-19
-1.1949829e-19
-1.1648917e-19
-2.2708966e-19
-1.1066404e-19
2.1568832e-19
2.9865749e-35
1.023666e-19
-9.9699621e-20
-2.9125673e-19
2.8359122e-19
9.2034087e-20
-2.6877898e-19
0
2.5459198e-19
8.256783e-20
-2.4094744e-19
7.8112168e-20
1.5191994e-19
4.0996893e-32
-7.9703633e-32
-6.9796759e-20
0
-1.3181059e-19
-1.2803978e-19
6.2178642e-20
6.0382187e-20
1.1725829e-19
-5.6917034e-20
-5.5242019e-20
1.0720431e-19
0
-1.0087421e-19
-9.7829094e-20
4.7430744e-20
9.1966395e-20
-2.473853e-32
-4.3182982e-20
8.3661557e-20
-4.0513325e-20
1.3065549e-31
7.5961921e-20
-3.6763205e-20
0
-6.8837224e-20
0
7.148516e-32
3.1120994e-20
6.0155193e-20
-8.7185787e-20
7.9791354e-36
5.422726e-20
0
-5.0532859e-20
-2.4377989e-20
4.7030093e-20
-2.5179311e-32
-2.1867025e-20
4.216033e-20
-2.0312809e-20
3.2570804e-32
3.7663759e-20
-1.812427e-20
1.7438442e-20
-3.3550236e-20
-4.8410819e-20
0
4.471197e-20
2.8628356e-20
-4.1221716e-20
-2.6371474e-20
1.2648729e-20
2.4258929e-20
-1.1626956e-20
-1.1138986e-20
2.1329581e-20
-1.020543e-20
-1.9523721e-20
9.334782e-21
-1.2680302e-36
1.7045027e-20
1.6263228e-20
-2.3257924e-20
7.3877334e-21
1.1722041e-32
-2.0112651e-20
0
1.8196598e-20
1.1511585e-20
-5.4567959e-21
-5.1706379e-21
-4.8983517e-21
0
-4.3898677e-21
2.3000322e-33
7.8049178e-21
-2.0367623e-33
-3.4488302e-21
0
-3.0410481e-21
5.6994119e-21
7.9828072e-21
-4.9521353e-21
-6.8953519e-21
-2.1296842e-21
1.9711099e-21
3.6446258e-21
-1.6784251e-21
1.535727e-21
1.3960356e-21
-2.5247981e-21
2.272651e-21
1.0194862e-21
-2.7324276e-21
-1.6098085e-21
6.9900057e-22
1.7866068e-21
-1.1040234e-33
9.0050823e-34
3.2225619e-22
2.7267926e-34
1.7025391e-22
-9.4090679e-23
-1.9956539e-23
4.9497105e-23
-1.1365433e-22
-1.7065254e-22
6.6534507e-22
-2.7239813e-22
-6.4740346e-22
1.1207478e-21
1.1949268e-37
-4.6217568e-22
9.9562871e-22
5.3003505e-22
0
-5.932445e-22
-6.2307913e-22
-1.2993502e-21
6.7100226e-22
-2.2933305e-33
-2.1163595e-21
7.2139298e-22
7.3681161e-22
7.532216e-22
-7.6638419e-22
-7.728005e-22
2.3277429e-21
-7.7875183e-22
-1.5621788e-21
-1.3057777e-33
-7.8667491e-22
1.5715288e-21
2.3444786e-21
4.3006222e-34
-4.2619622e-34
-1.0838769e-37
-7.5629884e-22
-1.4899952e-21
-7.3057525e-22
2.1429637e-21
-7.7613972e-34
-1.3759415e-21
0
0
6.4490259e-22
-3.453248e-34
3.3283235e-34
5.7952972e-22
-1.1254083e-21
-5.4584381e-22
-5.8267591e-34
4.9918075e-22
1.4156023e-21
4.4565648e-22
0
0
0
-1.0612719e-21
-6.5127401e-22
8.8773075e-22
-2.9630508e-34
-4.8049471e-22
0
0
3.290733e-22
-2.9934014e-34
-1.1629333e-34
1.5417217e-22
-5.1591137e-23
-5.2362833e-23
2.8231226e-24
-3.1516121e-23
-1.8273301e-22
-8.6547073e-23
0
0
0
5.6783499e-22
4.384197e-22
-7.3260651e-22
5.8618422e-34
2.8320086e-22
-4.3347568e-38
3.3116281e-22
-7.1930585e-22
4.2646427e-34
4.0201811e-22
-8.3373197e-22
0
2.5194133e-34
9.5498209e-22
1.003027e-21
-1.55751e-21
-1.0602747e-21
5.3996006e-22
3.0657142e-34
-5.6911623e-22
1.7653801e-21
1.2110865e-21
-6.1566923e-22
-6.2026105e-22
6.2518267e-22
6.3297468e-22
-6.4456374e-22
-6.5817547e-22
3.7071989e-34
-3.7179844e-34
-6.6768383e-22
0
-6.6890699e-22
1.3490345e-21
2.0451881e-21
-1.3687753e-21
-1.3589462e-21
-6.7079492e-22
7.3692265e-34
1.3198528e-21
-6.5923027e-22
6.5944433e-22
6.5387812e-22
-1.2820588e-21
1.2517598e-21
6.1316206e-22
-6.0376162e-22
-1.1954878e-21
-5.9228407e-22
1.16084e-21
-3.1108502e-34
5.3871863e-22
5.1924951e-22
-1.5101217e-21
4.9075714e-22
4.7911999e-22
-1.3897318e-21
6.2589209e-38
1.2420912e-21
3.8872743e-22
-1.0987953e-21
3.46711e-22
9.5708505e-50
5.1236097e-34
5.6422434e-22
-5.0659361e-22
-4.4917548e-22
1.9780197e-22
-1.9304507e-34
-3.0274598e-22
1.2620719e-22
2.9013317e-22
6.4883197e-23
-3.3419373e-23
0
2.0115924e-23
8.9255948e-23
-1.0410048e-38
-3.1885749e-22
-1.4122387e-22
3.5049698e-22
-2.9158418e-38
-4.5884924e-22
5.0407069e-22
-4.6454873e-34
-6.2287648e-22
1.0419032e-21
7.663668e-22
0
0
-4.6810214e-22
-1.4762562e-21
-5.1904509e-22
1.6463549e-21
-6.4439224e-34
-1.2252026e-21
1.2853655e-21
1.3396572e-21
-6.952921e-22
-1.4407265e-21
7.4536122e-22
7.7033049e-22
-2.3865231e-21
-8.2089946e-22
-1.4089151e-33
4.8314999e-34
8.9471693e-22
-9.1554459e-22
1.8684416e-21
2.8600597e-21
0
-2.9697498e-21
-2.0257038e-21
3.1057673e-21
-2.9906191e-37
-1.0648888e-21
2.1511737e-21
-1.0837604e-21
-1.0955023e-21
-1.2403838e-33
1.1400094e-21
2.3100028e-21
-1.1623506e-21
-2.3367322e-21
-2.3388694e-21
1.3002023e-33
1.1848741e-21
-1.203494e-21
2.4328208e-21
3.6625574e-21
0
-3.6582483e-21
-2.4314303e-21
3.6671133e-21
-1.3680625e-33
-1.2378647e-21
1.2382331e-21
1.2312675e-21
-6.7721997e-34
-2.4322733e-21
6.7895684e-34
2.4565423e-21
-1.3613292e-33
-1.3548413e-33
-2.4101709e-21
-3.5646308e-21
2.3669658e-21
-1.3213464e-33
-3.9698624e-33
1.1857361e-21
1.1749936e-21
2.3121305e-21
-3.4095896e-21
-1.1282906e-21
2.2601844e-21
-2.2583455e-21
-6.3735489e-37
3.3241601e-21
1.0892434e-21
-1.0697585e-21
-3.1721548e-21
3.5093861e-33
2.0965219e-21
1.0377564e-21
-2.0464297e-21
-3.010041e-21
2.952158e-21
9.7225112e-22
1.074011e-33
9.6015753e-22
-1.8921329e-21
5.1493904e-34
-9.0533911e-22
8.8537095e-22
-2.9139565e-33
-2.6148465e-21
2.6048832e-21
2.5759167e-21
0
0
0
-7.8836198e-22
-2.3344314e-21
-7.7119292e-22
-8.4818957e-34
-7.5540933e-22
2.23176e-21
7.2978819e-22
-7.1517766e-22
-7.0123173e-22
-6.8843612e-22
1.3565546e-21
-6.7152754e-22
6.6605362e-22
-2.1930973e-33
-1.2953205e-21
1.907732e-21
1.2502544e-21
0
-1.2194766e-21
-6.7044801e-34
5.9737126e-22
-1.7699699e-21
-5.826521e-22
5.766238e-22
0
0
5.5854595e-22
1.1020376e-21
-1.2106294e-33
-1.0840779e-21
-5.413711e-22
5.3937101e-22
-5.3424895e-22
5.2790582e-22
9.1823778e-51
-8.658548e-34
1.5626853e-21
0
0
-1.0353703e-21
-1.0213689e-21
-5.0637956e-22
5.6136887e-34
1.5267903e-21
-5.6953e-34
-1.0292226e-21
0
1.0225638e-21
5.1115106e-22
-1.0264522e-21
5.161673e-22
5.1624159e-22
-1.5357079e-21
5.0762135e-22
-1.6853619e-33
-1.0180936e-21
1.5523188e-21
1.0527365e-21
0
0
0
-1.5486882e-21
-1.0322652e-21
1.5603116e-21
1.0542435e-21
0
-1.0761741e-21
5.9878208e-34
5.3853013e-22
-1.0721242e-21
5.3393305e-22
-5.3280361e-22
-5.335238e-22
1.6133378e-21
-1.0889051e-21
-1.0984011e-21
5.483339e-22
-5.4267418e-22
1.0746175e-21
1.602899e-21
0
-1.6307295e-21
-1.1037685e-21
5.5420468e-22
5.484801e-22
-6.0036129e-34
5.346178e-22
-1.7734403e-33
-5.3634534e-22
-3.0173289e-34
-1.736672e-52
5.4820153e-22
0
5.3230664e-22
-1.0517234e-21
-1.5690798e-21
1.5781038e-21
1.5945139e-21
0
-1.0673119e-21
-1.0527286e-21
1.0356458e-21
-5.1084901e-22
-5.0615217e-22
1.5160713e-21
-1.0155288e-21
-1.0207505e-21
5.1032345e-22
1.0099423e-21
4.9568105e-22
-1.4618437e-21
-4.8041402e-22
-7.9332897e-34
9.5417056e-22
2.7241713e-37
-1.4371632e-21
9.4761877e-22
1.3937141e-21
4.5582643e-22
-1.3464964e-21
-8.8859193e-22
1.3299416e-21
-9.8492973e-34
-8.8488107e-22
-4.3753223e-22
2.3811049e-34
8.4036044e-22
-4.583071e-34
4.0767723e-22
4.0538428e-22
-1.2136073e-21
-4.0193984e-22
-4.3973538e-34
7.7594466e-22
-1.265431e-33
-1.1229843e-21
7.4301437e-22
-4.1123465e-34
-4.0751039e-34
-7.9675945e-34
-3.4977797e-22
1.0284465e-21
-3.3929268e-22
-5.6480471e-34
-1.1277565e-33
-9.9920452e-22
3.217132e-22
6.2067809e-22
-3.3696114e-34
3.0246432e-22
3.053238e-22
-6.140997e-22
-6.0509943e-22
3.22318e-34
8.3110208e-22
-2.9789064e-34
-2.663438e-22
5.383441e-22
-2.7201477e-22
-2.7089361e-22
1.4612344e-34
-1.3938459e-34
2.402262e-22
-4.6842844e-22
2.3362386e-22
-7.8772257e-34
-7.9365228e-34
7.0782482e-22
-4.5607699e-22
6.1612599e-38
4.1491906e-22
-2.0319886e-22
-6.1136481e-22
-2.0653122e-22
6.2301591e-22
-2.2721839e-34
-1.9695826e-22
3.7452674e-22
-3.6011837e-22
-8.8734003e-34
1.7882932e-22
-1.8098395e-22
1.813204e-22
-3.5600703e-22
1.711018e-22
4.9197176e-22
0
0
-3.2155438e-22
-4.6088673e-38
3.223367e-22
-1.5686263e-22
-4.5241662e-22
-1.4656606e-22
4.3852007e-22
4.2246254e-38
1.6834864e-34
3.0574203e-22
-4.5212722e-22
-7.2794775e-34
1.4157392e-22
-1.4100358e-22
-1.4392931e-22
1.6498743e-34
1.5216805e-22
-3.049694e-22
2.9844744e-22
-4.8635966e-34
-2.9254216e-22
4.5030993e-22
3.1156001e-22
-1.6071918e-22
-4.8877168e-22
-1.6261555e-22
1.6301244e-22
0
-1.718492e-22
1.777423e-22
5.4359455e-22
1.0069577e-34
-3.6451409e-22
1.8731292e-22
1.9646698e-22
-4.1474459e-22
2.1628872e-22
-2.1954629e-22
-4.3461064e-22
6.4934101e-22
-7.3877597e-34
5.1877248e-34
4.9764427e-22
-5.2427871e-22
-2.7105332e-22
-2.7510755e-22
-3.0708666e-34
2.7958652e-22
-5.7363441e-22
5.957358e-22
9.3495977e-22
0
-3.3790101e-22
1.9312148e-34
1.0112472e-37
-1.085692e-21
-3.6850001e-22
1.1323507e-21
-3.891703e-22
7.8666776e-50
1.2571436e-21
-4.331566e-22
-1.3300094e-21
-4.5001667e-22
9.1458503e-22
-4.6679858e-22
4.7894573e-22
-1.646638e-33
-1.0227934e-21
1.5769158e-21
5.9415224e-34
-2.4071461e-33
1.100879e-21
-1.1211272e-21
-6.3624254e-34
5.8905844e-22
-1.2098302e-21
-6.1710205e-22
0
0
1.2867342e-21
-1.4514754e-33
-3.7876881e-37
-7.5365219e-34
-6.8890711e-22
-6.9755081e-22
7.055438e-22
7.1370619e-22
-1.4481313e-21
1.4704744e-21
-8.265126e-34
-1.5016646e-21
1.5113466e-21
2.5283479e-33
-8.4820609e-34
7.750647e-22
-1.572097e-21
7.9240541e-22
-1.7647795e-33
-1.589056e-21
0
1.5879792e-21
8.0367875e-22
-1.6281116e-21
-8.1933893e-22
8.1915933e-22
-1.3612194e-33
-8.1264169e-22
0
0
1.6323968e-21
1.6369246e-21
0
-1.6193612e-21
-8.0116606e-22
7.9209559e-22
-7.8943989e-22
7.9163591e-22
0
-1.5643122e-21
0
0
7.4349464e-22
-8.1719209e-34
-7.3448854e-22
0
7.22513e-22
3.9303264e-34
-6.9104731e-22
0
1.3175306e-21
1.3020098e-21
-6.4482402e-22
-7.0451153e-34
6.1904213e-22
-1.2023659e-21
-1.164621e-21
1.1284626e-21
1.5616972e-37
1.1913469e-33
1.4836795e-37
-1.0075955e-21
4.8345454e-22
-5.1438396e-34
4.4488151e-22
-4.2850309e-22
-1.2361486e-21
1.1813621e-21
3.7307978e-22
-3.512828e-22
-3.6715524e-34
-3.1234031e-22
5.899339e-22
5.5180864e-22
-5.0829384e-22
-7.7023861e-34
-2.0957765e-22
-1.9109813e-22
3.50276e-22
-1.5870419e-22
1.5448375e-34
-6.4504449e-35
9.1944232e-23
1.4054967e-22
-1.057936e-22
-7.5944021e-23
0
4.8445471e-24
-1.6631321e-35
7.0997907e-23
6.0097365e-35
-2.1033238e-22
-1.7048379e-22
0
2.3841814e-22
3.0196476e-34
1.4997199e-22
1.6178989e-22
-5.2112661e-22
1.0380455e-34
4.0519374e-22
-2.188652e-22
-4.6316289e-22
2.3966366e-22
4.921665e-22
2.5382637e-22
0
-5.5343094e-22
2.8935699e-22
8.9158654e-22
-2.9994761e-22
-3.0149796e-22
-6.0953789e-22
-3.1072763e-22
6.3820002e-22
3.2707802e-22
3.3013529e-22
-3.6419159e-34
-3.2472474e-22
-3.2305064e-22
-6.4766216e-22
-3.2689799e-22
0
0
0
6.2894109e-22
6.158361e-22
-6.0726786e-22
-3.3507156e-34
-3.3367179e-34
3.2778402e-34
6.3247456e-34
-5.4429313e-22
0
5.0273373e-22
2.4473085e-22
-2.39268e-22
2.3077604e-22
2.1739977e-22
0
0
-3.4674818e-22
5.4454677e-34
3.4424731e-34
-2.8621187e-22
2.5179471e-22
2.1234327e-22
0
-1.4258446e-22
6.626881e-35
1.0287759e-22
-8.1171646e-23
-2.5470028e-35
9.5042974e-25
0
8.5677977e-23
5.9432389e-23
-1.4342563e-22
8.1782423e-23
2.0927713e-34
-2.2253113e-22
2.6344719e-22
3.0700444e-22
0
0
0
-4.4525367e-22
-4.6885845e-22
4.9405428e-22
0
-5.6075371e-22
0
-3.2112603e-22
6.7774526e-22
3.5121251e-22
-3.5948552e-22
7.3787063e-22
3.8086112e-22
-7.9189744e-22
-4.149678e-22
-4.8217203e-34
4.4954436e-22
-1.018773e-33
2.6435148e-37
9.4521269e-22
0
-4.9166081e-22
-1.0113076e-21
-5.2030898e-22
0
0
0
-5.5029759e-22
1.1101627e-21
5.6021921e-22
-5.6725353e-22
-5.7654418e-22
5.8566037e-22
5.9101355e-22
-1.1846845e-21
0
1.1869208e-21
1.188189e-21
0
0
-1.2172135e-21
-6.7454013e-34
-6.0476089e-22
-6.0091483e-22
5.9743047e-22
-5.9703897e-22
5.9975127e-22
1.2017328e-21
5.9807011e-22
0
-1.1730165e-21
-6.4416586e-34
5.7683423e-22
-5.7512706e-22
-5.724934e-22
-1.1328681e-21
1.1160441e-21
5.4950142e-22
-1.5420632e-37
5.3848051e-22
-1.0665766e-21
5.2483243e-22
-5.1465201e-22
-1.6873698e-50
4.9331098e-22
-9.751416e-22
9.6810185e-22
9.5429298e-22
0
-4.512337e-22
-8.7461623e-22
2.3663753e-34
4.1970627e-22
4.1508152e-22
-8.1700271e-22
-7.9662979e-22
3.8536393e-22
7.4435777e-22
7.210912e-22
-3.5066874e-22
-6.8353116e-22
3.3228975e-22
-3.213827e-22
5.1577175e-34
2.9924958e-22
-5.8042041e-22
5.6262751e-22
3.0059792e-34
-1.4338142e-33
4.9142579e-22
-4.7047732e-22
-1.0087984e-33
2.2039261e-22
-4.2510861e-22
2.0192294e-22
-5.3668665e-38
7.8320926e-34
1.6693953e-22
-3.2092436e-22
3.4493323e-34
-8.2915893e-35
1.412965e-22
-3.7170785e-38
-2.391987e-22
2.1981402e-22
5.8188766e-38
-4.2925528e-34
1.8393152e-22
-1.7454126e-22
-1.8176347e-34
1.502371e-22
-6.6770101e-23
-5.7818421e-23
-5.0517258e-23
4.6231681e-23
-4.9081858e-35
-8.5146135e-23
0
0
5.2447844e-23
5.5598691e-39
-3.2887228e-23
1.6313294e-23
-1.8743671e-35
1.5997986e-23
2.7186382e-35
-1.2476668e-23
0
-3.0701901e-26
2.93746e-24
3.3740621e-24
-7.9079649e-36
1.100514e-24
4.7982617e-24
-3.7176123e-24
2.0317298e-36
-2.9123138e-24
0
0
-9.6755046e-25
2.2628713e-36
-2.1412875e-24
-4.260335e-24
-3.4994126e-23
5.0382954e-23
1.7040274e-23
-2.3735664e-23
6.022281e-24
1.0094546e-35
1.3073927e-23
-1.2976187e-38
-1.0335076e-34
3.5683398e-23
-7.2802469e-23
-3.4166244e-23
0
-3.1833498e-23
3.5977599e-23
4.2991097e-23
5.0678515e-23
-1.2689881e-34
6.8441287e-35
-7.0827107e-35
-1.2681975e-22
6.2080862e-23
1.0502673e-34
-1.3595115e-22
1.0736838e-38
8.3424065e-23
1.7919661e-22
1.8516347e-22
-1.8375841e-22
-1.0002749e-34
-9.0944513e-23
-9.5857875e-23
2.0660358e-22
-2.2161113e-22
-1.1630583e-22
3.5463362e-22