/*--------------------------------*- C++ -*----------------------------------*\
  =========                 |
  \\      /  F ield         | OpenFOAM: The Open Source CFD Toolbox
   \\    /   O peration     | Website:  https://openfoam.org
    \\  /    A nd           | Version:  7
     \\/     M anipulation  |
\*---------------------------------------------------------------------------*/
FoamFile
{
    version     2.0;
    format      ascii;
    class       volScalarField;
    location    "0.00035";
    object      p;
}
// * * * * * * * * * * * * * * * * * * * * * * * * * * * * * * * * * * * * * //

dimensions      [1 -1 -2 0 0 0 0];

internalField   nonuniform List<scalar> 
5000
(
120000
120000
120000
120000
120000
120000
120000
120000
120000
120000
120000
120000
120000
120000
120000
120000
120000
120000
120000
120000
120000
120000
120000
120000
120000
120000
120000
120000
120000
120000
120000
120000
120000
120000
120000
120000
120000
120000
120000
120000
120000
120000
120000
120000
120000
120000
120000
120000
120000
120000
120000
120000
120000
120000
120000
120000
120000
120000
120000
120000
120000
120000
120000
120000
120000
120000
120000
120000
120000
120000
120000
120000
120000
120000
120000
120000
120000
120000
120000
120000
120000
120000
120000
120000
120000
120000
120000
120000
120000
120000
120000
120000
120000
120000
120000
120000
120000
120000
120000
120000
120000
120000
120000
120000
120000
120000
120000
120000
120000
120000
120000
120000
120000
120000
120000
120000
120000
120000
120000
120000
120000
120000
120000
120000
120000
120000
120000
120000
120000
120000
120000
120000
120000
120000
120000
120000
120000
120000
120000
120000
120000
120000
120000
120000
120000
120000
120000
120000
120000
120000
120000
120000
120000
120000
120000
120000
120000
120000
120000
120000
120000
120000
120000
120000
120000
120000
120000
120000
120000
120000
120000
120000
120000
120000
120000
120000
120000
120000
120000
120000
120000
120000
120000
120000
120000
120000
120000
120000
120000
120000
120000
120000
120000
120000
120000
120000
120000
120000
120000
120000
120000
120000
120000
120000
120000
120000
120000
120000
120000
120000
120000
120000
120000
120000
120000
120000
120000
120000
120000
120000
120000
120000
120000
120000
120000
120000
120000
120000
120000
120000
120000
120000
120000
120000
120000
120000
120000
120000
120000
120000
120000
120000
120000
120000
120000
120000
120000
120000
120000
120000
120000
120000
120000
120000
120000
120000
120000
120000
120000
120000
120000
120000
120000
120000
120000
120000
120000
120000
120000
120000
120000
120000
120000
120000
120000
120000
120000
120000
120000
120000
120000
120000
120000
120000
120000
120000
120000
120000
120000
120000
120000
120000
120000
120000
120000
120000
120000
120000
120000
120000
120000
120000
120000
120000
120000
120000
120000
120000
120000
120000
120000
120000
120000
120000
120000
120000
120000
120000
120000
120000
120000
120000
120000
120000
120000
120000
120000
120000
120000
120000
120000
120000
120000
120000
120000
120000
120000
120000
120000
120000
120000
120000
120000
120000
120000
120000
120000
120000
120000
120000
120000
120000
120000
120000
120000
120000
120000
120000
120000
120000
120000
120000
120000
120000
120000
120000
120000
120000
120000
120000
120000
120000
120000
120000
120000
120000
120000
120000
120000
120000
120000
120000
120000
120000
120000
120000
120000
120000
120000
120000
120000
120000
120000
120000
120000
120000
120000
120000
120000
120000
120000
120000
120000
120000
120000
120000
120000
120000
120000
120000
120000
120000
120000
120000
120000
120000
120000
120000
120000
120000
120000
120000
120000
120000
120000
120000
120000
120000
120000
120000
120000
120000
120000
120000
120000
120000
120000
120000
120000
120000
120000
120000
120000
120000
120000
120000
120000
120000
120000
120000
120000
120000
120000
120000
120000
120000
120000
120000
120000
120000
120000
120000
120000
120000
120000
120000
120000
120000
120000
120000
120000
120000
120000
120000
120000
120000
120000
120000
120000
120000
120000
120000
120000
120000
120000
120000
120000
120000
120000
120000
120000
120000
120000
120000
120000
120000
120000
120000
120000
120000
120000
120000
120000
120000
120000
120000
120000
120000
120000
120000
120000
120000
120000
120000
120000
120000
120000
120000
120000
120000
120000
120000
120000
120000
120000
120000
120000
120000
120000
120000
120000
120000
120000
120000
120000
120000
120000
120000
120000
120000
120000
120000
120000
120000
120000
120000
120000
120000
120000
120000
120000
120000
120000
120000
120000
120000
120000
120000
120000
120000
120000
120000
120000
120000
120000
120000
120000
120000
120000
120000
120000
120000
120000
120000
120000
120000
120000
120000
120000
120000
120000
120000
120000
120000
120000
120000
120000
120000
120000
120000
120000
120000
120000
120000
120000
120000
120000
120000
120000
120000
120000
120000
120000
120000
120000
120000
120000
120000
120000
120000
120000
120000
120000
120000
120000
120000
120000
120000
120000
120000
120000
120000
120000
120000
120000
120000
120000
120000
120000
120000
120000
120000
120000
120000
120000
120000
120000
120000
120000
120000
120000
120000
120000
120000
120000
120000
120000
120000
120000
120000
120000
120000
120000
120000
120000
120000
120000
120000
120000
120000
120000
120000
120000
120000
120000
120000
120000
120000
120000
120000
120000
120000
120000
120000
120000
120000
120000
120000
120000
120000
120000
120000
120000
120000
120000
120000
120000
120000
120000
120000
120000
120000
120000
120000
120000
120000
120000
120000
120000
120000
120000
120000
120000
120000
120000
120000
120000
120000
120000
120000
120000
120000
120000
120000
120000
120000
120000
120000
120000
120000
120000
120000
120000
120000
120000
120000
120000
120000
120000
120000
120000
120000
120000
120000
120000
120000
120000
120000
120000
120000
120000
120000
120000
120000
120000
120000
120000
120000
120000
120000
120000
120000
120000
120000
120000
120000
120000
120000
120000
120000
120000
120000
120000
120000
120000
120000
120000
120000
120000
120000
120000
120000
120000
120000
120000
120000
120000
120000
120000
120000
120000
120000
120000
120000
120000
120000
120000
120000
120000
120000
120000
120000
120000
120000
120000
120000
120000
120000
120000
120000
120000
120000
120000
120000
120000
120000
120000
120000
120000
120000
120000
120000
120000
120000
120000
120000
120000
120000
120000
120000
120000
120000
120000
120000
120000
120000
120000
120000
120000
120000
120000
120000
120000
120000
120000
120000
120000
120000
120000
120000
120000
120000
120000
120000
120000
120000
120000
120000
120000
120000
120000
120000
120000
120000
120000
120000
120000
120000
120000
120000
120000
120000
120000
120000
120000
120000
120000
120000
120000
120000
120000
120000
120000
120000
120000
120000
120000
120000
120000
120000
120000
120000
120000
120000
120000
120000
120000
120000
120000
120000
120000
120000
120000
120000
120000
120000
120000
120000
120000
120000
120000
120000
120000
120000
120000
120000
120000
120000
120000
120000
120000
120000
120000
120000
120000
120000
120000
120000
120000
120000
120000
120000
120000
120000
120000
120000
120000
120000
120000
120000
120000
120000
120000
120000
120000
120000
120000
120000
120000
120000
120000
120000
120000
120000
120000
120000
120000
120000
120000
120000
120000
120000
120000
120000
120000
120000
120000
120000
120000
120000
120000
120000
120000
120000
120000
120000
120000
120000
120000
120000
120000
120000
120000
120000
120000
120000
120000
120000
120000
120000
120000
120000
120000
120000
120000
120000
120000
120000
120000
120000
120000
120000
120000
120000
120000
120000
120000
120000
120000
120000
120000
120000
120000
120000
120000
120000
120000
120000
120000
120000
120000
120000
120000
120000
120000
120000
120000
120000
120000
120000
120000
120000
120000
120000
120000
120000
120000
120000
120000
120000
120000
120000
120000
120000
120000
120000
120000
120000
120000
120000
120000
120000
120000
120000
120000
120000
120000
120000
120000
120000
120000
120000
120000
120000
120000
120000
120000
120000
120000
120000
120000
120000
120000
120000
120000
120000
120000
120000
120000
120000
120000
120000
120000
120000
120000
120000
120000
120000
120000
120000
120000
120000
120000
120000
120000
120000
120000
120000
120000
120000
120000
120000
120000
120000
120000
120000
120000
120000
120000
120000
120000
120000
120000
120000
120000
120000
120000
120000
120000
120000
120000
120000
120000
120000
120000
120000
120000
120000
120000
120000
120000
120000
120000
120000
120000
120000
120000
120000
120000
120000
120000
120000
120000
120000
120000
120000
120000
120000
120000
120000
120000
120000
120000
120000
120000
120000
120000
120000
120000
120000
120000
120000
120000
120000
120000
120000
120000
120000
120000
120000
120000
120000
120000
120000
120000
120000
120000
120000
120000
120000
120000
120000
120000
120000
120000
120000
120000
120000
120000
120000
120000
120000
120000
120000
120000
120000
120000
120000
120000
120000
120000
120000
120000
120000
120000
120000
120000
120000
120000
120000
120000
120000
120000
120000
120000
120000
120000
120000
120000
120000
120000
120000
120000
120000
120000
120000
120000
120000
120000
120000
120000
120000
120000
120000
120000
120000
120000
120000
120000
120000
120000
120000
120000
120000
120000
120000
120000
120000
120000
120000
120000
120000
120000
120000
120000
120000
120000
120000
120000
120000
120000
120000
120000
120000
120000
120000
120000
120000
120000
120000
120000
120000
120000
120000
120000
120000
120000
120000
120000
120000
120000
120000
120000
120000
120000
120000
120000
120000
120000
120000
120000
120000
120000
120000
120000
120000
120000
120000
120000
120000
120000
120000
120000
120000
120000
120000
120000
120000
120000
120000
120000
120000
120000
120000
120000
120000
120000
120000
120000
120000
120000
120000
120000
120000
120000
120000
120000
120000
120000
120000
120000
120000
120000
120000
120000
120000
120000
120000
120000
120000
120000
120000
120000
120000
120000
120000
120000
120000
120000
120000
120000
120000
120000
120000
120000
120000
120000
120000
120000
120000
120000
120000
120000
120000
120000
120000
120000
120000
120000
120000
120000
120000
120000
120000
120000
120000
120000
120000
120000
120000
120000
120000
120000
120000
120000
120000
120000
120000
120000
120000
120000
120000
120000
120000
120000
120000
120000
120000
120000
120000
120000
120000
120000
120000
120000
120000
120000
120000
120000
120000
120000
120000
120000
120000
120000
120000
120000
120000
120000
120000
120000
120000
120000
120000
120000
120000
120000
120000
120000
120000
120000
120000
120000
120000
120000
120000
120000
120000
120000
120000
120000
120000
120000
120000
120000
120000
120000
120000
120000
120000
120000
120000
120000
120000
120000
120000
120000
120000
120000
120000
120000
120000
120000
120000
120000
120000
120000
120000
120000
120000
120000
120000
120000
120000
120000
120000
120000
120000
120000
120000
120000
120000
120000
120000
120000
120000
120000
120000
120000
120000
120000
120000
120000
120000
120000
120000
120000
120000
120000
120000
120000
120000
120000
120000
120000
120000
120000
120000
120000
120000
120000
120000
120000
120000
120000
120000
120000
120000
120000
120000
120000
120000
120000
120000
120000
120000
120000
120000
120000
120000
120000
120000
120000
120000
120000
120000
120000
120000
120000
120000
120000
120000
120000
120000
120000
120000
120000
120000
120000
120000
120000
120000
120000
120000
120000
120000
120000
120000
120000
120000
120000
120000
120000
120000
120000
120000
120000
120000
120000
120000
120000
120000
120000
120000
120000
120000
120000
120000
120000
120000
120000
120000
120000
120000
120000
120000
120000
120000
120000
120000
120000
120000
120000
120000
120000
120000
120000
120000
120000
120000
120000
120000
120000
120000
120000
120000
120000
120000
120000
120000
120000
120000
120000
120000
120000
120000
120000
120000
120000
120000
120000
120000
120000
120000
120000
120000
120000
120000
120000
120000
120000
120000
120000
120000
120000
120000
120000
120000
120000
120000
120000
120000
120000
120000
120000
120000
120000
120000
120000
120000
120000
120000
120000
120000
120000
120000
120000
120000
120000
120000
120000
120000
120000
120000
120000
120000
120000
120000
120000
120000
120000
120000
120000
120000
120000
120000
120000
120000
120000
120000
120000
120000
120000
120000
120000
120000
120000
120000
120000
120000
120000
120000
120000
120000
120000
120000
120000
120000
120000
120000
120000
120000
120000
120000
120000
120000
120000
120000
120000
119999.99
119999.99
119999.99
119999.99
119999.99
119999.99
119999.99
119999.99
119999.99
119999.99
119999.98
119999.98
119999.98
119999.98
119999.98
119999.97
119999.97
119999.97
119999.96
119999.96
119999.96
119999.95
119999.94
119999.94
119999.93
119999.93
119999.92
119999.91
119999.9
119999.89
119999.88
119999.87
119999.85
119999.84
119999.82
119999.8
119999.78
119999.76
119999.74
119999.71
119999.68
119999.65
119999.62
119999.58
119999.54
119999.49
119999.45
119999.39
119999.34
119999.27
119999.21
119999.13
119999.05
119998.96
119998.87
119998.76
119998.65
119998.53
119998.4
119998.25
119998.1
119997.93
119997.75
119997.55
119997.33
119997.1
119996.85
119996.58
119996.29
119995.98
119995.64
119995.27
119994.88
119994.45
119994
119993.5
119992.98
119992.41
119991.8
119991.14
119990.44
119989.68
119988.87
119988.01
119987.08
119986.08
119985.02
119983.88
119982.67
119981.37
119979.98
119978.5
119976.92
119975.23
119973.44
119971.53
119969.5
119967.33
119965.03
119962.58
119959.99
119957.23
119954.3
119951.2
119947.91
119944.43
119940.74
119936.83
119932.7
119928.34
119923.73
119918.86
119913.72
119908.3
119902.58
119896.56
119890.22
119883.55
119876.53
119869.14
119861.39
119853.24
119844.69
119835.72
119826.32
119816.47
119806.15
119795.34
119784.04
119772.22
119759.87
119746.97
119733.51
119719.46
119704.81
119689.54
119673.63
119657.08
119639.85
119621.93
119603.31
119583.96
119563.88
119543.04
119521.42
119499.01
119475.79
119451.75
119426.86
119401.12
119374.51
119347.01
119318.61
119289.29
119259.04
119227.84
119195.69
119162.57
119128.46
119093.36
119057.26
119020.14
118981.99
118942.82
118902.6
118861.33
118819
118775.61
118731.15
118685.62
118639.02
118591.33
118542.56
118492.7
118441.76
118389.74
118336.63
118282.43
118227.16
118170.82
118113.4
118054.91
117995.36
117934.76
117873.12
117810.43
117746.72
117681.99
117616.25
117549.52
117481.81
117413.13
117343.49
117272.91
117201.41
117129.01
117055.71
116981.55
116906.53
116830.68
116754.02
116676.56
116598.34
116519.37
116439.68
116359.28
116278.22
116196.5
116114.15
116031.2
115947.69
115863.62
115779.04
115693.97
115608.44
115522.47
115436.11
115349.37
115262.29
115174.89
115087.22
114999.3
114911.16
114822.84
114734.37
114645.78
114557.1
114468.37
114379.62
114290.89
114202.2
114113.6
114025.12
113936.79
113848.64
113760.72
113673.05
113585.67
113498.62
113411.93
113325.63
113239.75
113154.34
113069.43
112985.04
112901.22
112817.99
112735.4
112653.47
112572.23
112491.72
112411.96
112333
112254.86
112177.56
112101.15
112025.64
111951.07
111877.46
111804.85
111733.24
111662.68
111593.18
111524.77
111457.47
111391.29
111326.27
111262.42
111199.75
111138.28
111078.04
111019.02
110961.26
110904.75
110849.5
110795.53
110742.85
110691.45
110641.35
110592.54
110545.04
110498.83
110453.92
110410.31
110367.98
110326.95
110287.19
110248.7
110211.47
110175.5
110140.76
110107.24
110074.94
110043.82
110013.89
109985.11
109957.47
109930.94
109905.51
109881.16
109857.86
109835.58
109814.31
109794.02
109774.67
109756.26
109738.74
109722.09
109706.29
109691.31
109677.12
109663.69
109651
109639.02
109627.71
109617.06
109607.04
109597.62
109588.77
109580.47
109572.69
109565.42
109558.61
109552.26
109546.34
109540.82
109535.68
109530.91
109526.48
109522.37
109518.56
109515.04
109511.79
109508.79
109506.02
109503.48
109501.14
109498.99
109497.02
109495.21
109493.56
109492.05
109490.67
109489.41
109488.27
109487.23
109486.28
109485.43
109484.65
109483.95
109483.32
109482.74
109482.23
109481.77
109481.35
109480.97
109480.64
109480.34
109480.07
109479.83
109479.62
109479.43
109479.26
109479.11
109478.98
109478.86
109478.76
109478.66
109478.58
109478.51
109478.45
109478.4
109478.35
109478.31
109478.27
109478.24
109478.22
109478.2
109478.18
109478.16
109478.15
109478.14
109478.13
109478.11
109478.1
109478.09
109478.07
109478.05
109478.03
109478.01
109478
109477.97
109477.95
109477.93
109477.92
109477.9
109477.88
109477.86
109477.84
109477.82
109477.8
109477.78
109477.77
109477.75
109477.73
109477.72
109477.7
109477.68
109477.67
109477.66
109477.64
109477.63
109477.62
109477.6
109477.59
109477.58
109477.57
109477.56
109477.55
109477.53
109477.52
109477.51
109477.5
109477.49
109477.47
109477.46
109477.46
109477.45
109477.43
109477.42
109477.41
109477.4
109477.39
109477.38
109477.37
109477.36
109477.35
109477.33
109477.32
109477.31
109477.29
109477.28
109477.27
109477.26
109477.25
109477.25
109477.24
109477.24
109477.23
109477.22
109477.21
109477.2
109477.19
109477.18
109477.17
109477.17
109477.16
109477.15
109477.14
109477.13
109477.12
109477.11
109477.11
109477.1
109477.09
109477.09
109477.08
109477.08
109477.07
109477.07
109477.07
109477.07
109477.06
109477.06
109477.06
109477.06
109477.05
109477.05
109477.05
109477.04
109477.03
109477.03
109477.02
109477.01
109477
109476.99
109476.98
109476.98
109476.97
109476.97
109476.96
109476.96
109476.96
109476.95
109476.95
109476.95
109476.95
109476.95
109476.95
109476.94
109476.94
109476.93
109476.93
109476.93
109476.92
109476.92
109476.92
109476.91
109476.91
109476.91
109476.91
109476.9
109476.9
109476.9
109476.9
109476.9
109476.9
109476.9
109476.91
109476.91
109476.91
109476.91
109476.91
109476.91
109476.91
109476.91
109476.91
109476.91
109476.92
109476.92
109476.92
109476.92
109476.92
109476.92
109476.92
109476.93
109476.93
109476.93
109476.93
109476.93
109476.93
109476.93
109476.93
109476.93
109476.93
109476.93
109476.93
109476.93
109476.93
109476.93
109476.93
109476.93
109476.93
109476.93
109476.93
109476.93
109476.93
109476.93
109476.93
109476.93
109476.93
109476.94
109476.94
109476.94
109476.94
109476.94
109476.95
109476.95
109476.95
109476.96
109476.96
109476.96
109476.96
109476.97
109476.97
109476.97
109476.98
109476.98
109476.98
109476.98
109476.99
109476.99
109476.99
109476.99
109476.99
109476.99
109477
109477
109477
109477
109477
109477
109477
109477
109477
109477.01
109477.01
109477.01
109477.01
109477.01
109477.01
109477.01
109477.01
109477.01
109477.02
109477.02
109477.02
109477.02
109477.02
109477.02
109477.02
109477.03
109477.03
109477.03
109477.03
109477.03
109477.04
109477.04
109477.04
109477.04
109477.04
109477.04
109477.05
109477.05
109477.05
109477.05
109477.05
109477.05
109477.06
109477.06
109477.06
109477.06
109477.06
109477.06
109477.07
109477.07
109477.07
109477.07
109477.07
109477.07
109477.08
109477.08
109477.08
109477.08
109477.08
109477.08
109477.09
109477.09
109477.09
109477.09
109477.09
109477.09
109477.09
109477.1
109477.1
109477.1
109477.1
109477.1
109477.1
109477.1
109477.1
109477.11
109477.11
109477.11
109477.11
109477.11
109477.11
109477.11
109477.11
109477.11
109477.11
109477.11
109477.12
109477.12
109477.12
109477.12
109477.12
109477.12
109477.12
109477.12
109477.12
109477.13
109477.13
109477.13
109477.13
109477.13
109477.13
109477.13
109477.13
109477.14
109477.14
109477.14
109477.14
109477.14
109477.14
109477.14
109477.15
109477.15
109477.15
109477.15
109477.15
109477.15
109477.15
109477.15
109477.16
109477.16
109477.16
109477.16
109477.16
109477.16
109477.16
109477.16
109477.16
109477.17
109477.17
109477.17
109477.17
109477.17
109477.17
109477.17
109477.17
109477.17
109477.17
109477.17
109477.18
109477.18
109477.18
109477.18
109477.18
109477.18
109477.18
109477.18
109477.18
109477.18
109477.18
109477.18
109477.18
109477.18
109477.19
109477.19
109477.19
109477.19
109477.19
109477.19
109477.19
109477.19
109477.19
109477.19
109477.19
109477.19
109477.19
109477.19
109477.19
109477.19
109477.2
109477.2
109477.2
109477.2
109477.2
109477.2
109477.2
109477.2
109477.2
109477.2
109477.2
109477.2
109477.2
109477.21
109477.21
109477.21
109477.21
109477.21
109477.21
109477.21
109477.21
109477.21
109477.21
109477.21
109477.22
109477.22
109477.22
109477.22
109477.22
109477.22
109477.22
109477.22
109477.22
109477.22
109477.22
109477.22
109477.22
109477.22
109477.22
109477.22
109477.22
109477.22
109477.23
109477.23
109477.23
109477.23
109477.23
109477.23
109477.23
109477.23
109477.23
109477.22
109477.22
109477.22
109477.22
109477.22
109477.22
109477.22
109477.21
109477.21
109477.21
109477.22
109477.22
109477.22
109477.23
109477.23
109477.23
109477.23
109477.23
109477.23
109477.22
109477.2
109477.19
109477.17
109477.15
109477.13
109477.12
109477.13
109477.15
109477.19
109477.27
109477.37
109477.6
109476.85
109477.09
109477.18
109477.19
109477.22
109477.24
109477.25
109477.25
109477.24
109477.24
109477.23
109477.22
109477.21
109477.21
109477.2
109477.2
109477.2
109477.2
109477.2
109477.2
109477.21
109477.21
109477.21
109477.21
109477.21
109477.21
109477.22
109477.22
109477.22
109477.22
109477.22
109477.22
109477.22
109477.22
109477.22
109477.22
109477.22
109477.22
109477.23
109477.23
109477.23
109477.23
109477.23
109477.23
109477.23
109477.23
109477.23
109477.23
109477.24
109477.24
109477.24
109477.24
109477.24
109477.24
109477.24
109477.24
109477.24
109477.24
109477.24
109477.24
109477.24
109477.24
109477.24
109477.24
109477.24
109477.24
109477.24
109477.24
109477.24
109477.24
109477.24
109477.24
109477.24
109477.24
109477.24
109477.24
109477.24
109477.24
109477.24
109477.24
109477.24
109477.24
109477.24
109477.24
109477.24
109477.23
109477.23
109477.23
109477.23
109477.23
109477.23
109477.23
109477.23
109477.23
109477.23
109477.23
109477.23
109477.22
109477.22
109477.22
109477.22
109477.22
109477.22
109477.22
109477.22
109477.22
109477.22
109477.22
109477.22
109477.22
109477.22
109477.21
109477.21
109477.21
109477.21
109477.21
109477.21
109477.21
109477.21
109477.21
109477.21
109477.21
109477.21
109477.21
109477.21
109477.21
109477.21
109477.21
109477.2
109477.2
109477.2
109477.2
109477.2
109477.2
109477.2
109477.2
109477.2
109477.2
109477.2
109477.2
109477.2
109477.2
109477.2
109477.2
109477.19
109477.19
109477.19
109477.19
109477.19
109477.19
109477.19
109477.19
109477.19
109477.19
109477.19
109477.19
109477.19
109477.18
109477.18
109477.18
109477.18
109477.18
109477.18
109477.18
109477.18
109477.18
109477.18
109477.17
109477.17
109477.17
109477.17
109477.17
109477.17
109477.17
109477.17
109477.17
109477.16
109477.16
109477.16
109477.16
109477.16
109477.16
109477.16
109477.16
109477.16
109477.16
109477.15
109477.15
109477.15
109477.15
109477.15
109477.15
109477.15
109477.15
109477.15
109477.14
109477.14
109477.14
109477.14
109477.14
109477.14
109477.14
109477.14
109477.13
109477.13
109477.13
109477.13
109477.13
109477.13
109477.13
109477.12
109477.12
109477.12
109477.12
109477.12
109477.12
109477.12
109477.12
109477.11
109477.11
109477.11
109477.11
109477.11
109477.11
109477.11
109477.11
109477.1
109477.1
109477.1
109477.1
109477.1
109477.1
109477.1
109477.1
109477.1
109477.1
109477.09
109477.09
109477.09
109477.09
109477.09
109477.09
109477.09
109477.09
109477.09
109477.08
109477.08
109477.08
109477.08
109477.08
109477.08
109477.08
109477.08
109477.08
109477.07
109477.07
109477.07
109477.07
109477.07
109477.07
109477.07
109477.07
109477.07
109477.07
109477.07
109477.07
109477.07
109477.07
109477.07
109477.07
109477.07
109477.07
109477.07
109477.07
109477.07
109477.07
109477.07
109477.07
109477.07
109477.07
109477.07
109477.07
109477.07
109477.07
109477.07
109477.07
109477.07
109477.07
109477.07
109477.06
109477.06
109477.06
109477.06
109477.06
109477.06
109477.06
109477.06
109477.06
109477.05
109477.05
109477.05
109477.05
109477.05
109477.05
109477.05
109477.05
109477.04
109477.04
109477.04
109477.04
109477.04
109477.03
109477.03
109477.03
109477.03
109477.03
109477.02
109477.02
109477.02
109477.02
109477.01
109477.01
109477.01
109477.01
109477
109477
109477
109476.99
109476.99
109476.99
109476.98
109476.98
109476.98
109476.97
109476.97
109476.97
109476.96
109476.96
109476.96
109476.95
109476.95
109476.95
109476.94
109476.94
109476.94
109476.93
109476.93
109476.93
109476.92
109476.92
109476.91
109476.91
109476.91
109476.9
109476.9
109476.89
109476.89
109476.89
109476.88
109476.88
109476.87
109476.87
109476.86
109476.86
109476.86
109476.85
109476.85
109476.84
109476.84
109476.83
109476.83
109476.82
109476.82
109476.81
109476.81
109476.8
109476.8
109476.79
109476.79
109476.79
109476.78
109476.78
109476.77
109476.77
109476.76
109476.76
109476.76
109476.76
109476.75
109476.75
109476.75
109476.74
109476.74
109476.74
109476.74
109476.74
109476.73
109476.73
109476.73
109476.73
109476.73
109476.73
109476.73
109476.72
109476.72
109476.72
109476.73
109476.73
109476.73
109476.73
109476.73
109476.74
109476.74
109476.74
109476.75
109476.75
109476.75
109476.76
109476.76
109476.76
109476.77
109476.78
109476.78
109476.79
109476.8
109476.81
109476.82
109476.84
109476.85
109476.86
109476.87
109476.89
109476.9
109476.91
109476.93
109476.94
109476.96
109476.97
109476.99
109477.01
109477.03
109477.04
109477.06
109477.08
109477.1
109477.11
109477.12
109477.14
109477.15
109477.17
109477.2
109477.21
109477.21
109477.22
109477.22
109477.23
109477.22
109477.21
109477.2
109477.18
109477.15
109477.12
109477.08
109477.04
109476.98
109476.92
109476.85
109476.78
109476.69
109476.59
109476.49
109476.37
109476.23
109476.08
109475.91
109475.72
109475.51
109475.28
109475.03
109474.74
109474.42
109474.07
109473.69
109473.26
109472.78
109472.26
109471.69
109471.05
109470.35
109469.59
109468.74
109467.82
109466.81
109465.7
109464.48
109463.15
109461.7
109460.11
109458.38
109456.49
109454.44
109452.2
109449.77
109447.13
109444.26
109441.16
109437.79
109434.14
109430.2
109425.93
109421.33
109416.36
109411
109405.22
109399.01
109392.32
109385.13
109377.42
109369.14
109360.26
109350.75
109340.56
109329.67
109318.03
109305.61
109292.34
109278.2
109263.14
109247.1
109230.05
109211.92
109192.68
109172.25
109150.6
109127.66
109103.39
109077.71
109050.58
109021.93
108991.7
108959.84
108926.28
108890.97
108853.84
108814.83
108773.88
108730.93
108685.93
108638.82
108589.54
108538.03
108484.26
108428.16
108369.7
108308.82
108245.49
108179.67
108111.33
108040.45
107966.99
107890.95
107812.3
107731.05
107647.19
107560.73
107471.68
107380.06
107285.9
107189.24
107090.12
106988.59
106884.7
106778.52
106670.14
106559.62
106447.06
106332.56
106216.23
106098.18
105978.52
105857.38
105734.9
105611.22
105486.48
105360.83
105234.41
105107.4
104979.94
104852.2
104724.34
104596.52
104468.91
104341.67
104214.96
104088.94
103963.77
103839.59
103716.55
103594.81
103474.48
103355.71
103238.62
103123.33
103009.94
102898.56
102789.28
102682.19
102577.37
102474.89
102374.81
102277.18
102182.05
102089.45
101999.42
101911.98
101827.14
101744.9
101665.28
101588.25
101513.82
101441.96
101372.64
101305.85
101241.54
101179.68
101120.24
101063.15
101008.38
100955.88
100905.59
100857.46
100811.43
100767.45
100725.45
100685.37
100647.16
100610.76
100576.1
100543.12
100511.76
100481.97
100453.68
100426.84
100401.38
100377.26
100354.41
100332.79
100312.33
100292.99
100274.71
100257.45
100241.17
100225.81
100211.33
100197.68
100184.83
100172.74
100161.37
100150.68
100140.63
100131.19
100122.33
100114.02
100106.23
100098.93
100092.08
100085.68
100079.68
100074.07
100068.83
100063.93
100059.35
100055.08
100051.09
100047.38
100043.91
100040.68
100037.67
100034.87
100032.26
100029.84
100027.59
100025.49
100023.55
100021.74
100020.07
100018.51
100017.07
100015.74
100014.5
100013.35
100012.29
100011.31
100010.41
100009.57
100008.8
100008.08
100007.42
100006.81
100006.25
100005.73
100005.26
100004.82
100004.41
100004.04
100003.7
100003.39
100003.1
100002.83
100002.59
100002.36
100002.16
100001.97
100001.8
100001.64
100001.5
100001.36
100001.24
100001.13
100001.03
100000.94
100000.85
100000.77
100000.7
100000.64
100000.58
100000.53
100000.48
100000.43
100000.39
100000.36
100000.32
100000.29
100000.26
100000.24
100000.22
100000.2
100000.18
100000.16
100000.14
100000.13
100000.12
100000.11
100000.1
100000.09
100000.08
100000.07
100000.06
100000.06
100000.05
100000.05
100000.04
100000.04
100000.03
100000.03
100000.03
100000.02
100000.02
100000.02
100000.02
100000.02
100000.01
100000.01
100000.01
100000.01
100000.01
100000.01
100000.01
100000.01
100000.01
100000.01
100000
100000
100000
100000
100000
100000
100000
100000
100000
100000
100000
100000
100000
100000
100000
100000
100000
100000
100000
100000
100000
100000
100000
100000
100000
100000
100000
100000
100000
100000
100000
100000
100000
100000
100000
100000
100000
100000
100000
100000
100000
100000
100000
100000
100000
100000
100000
100000
100000
100000
100000
100000
100000
100000
100000
100000
100000
100000
100000
100000
100000
100000
100000
100000
100000
100000
100000
100000
100000
100000
100000
100000
100000
100000
100000
100000
100000
100000
100000
100000
100000
100000
100000
100000
100000
100000
100000
100000
100000
100000
100000
100000
100000
100000
100000
100000
100000
100000
100000
100000
100000
100000
100000
100000
100000
100000
100000
100000
100000
100000
100000
100000
100000
100000
100000
100000
100000
100000
100000
100000
100000
100000
100000
100000
100000
100000
100000
100000
100000
100000
100000
100000
100000
100000
100000
100000
100000
100000
100000
100000
100000
100000
100000
100000
100000
100000
100000
100000
100000
100000
100000
100000
100000
100000
100000
100000
100000
100000
100000
100000
100000
100000
100000
100000
100000
100000
100000
100000
100000
100000
100000
100000
100000
100000
100000
100000
100000
100000
100000
100000
100000
100000
100000
100000
100000
100000
100000
100000
100000
100000
100000
100000
100000
100000
100000
100000
100000
100000
100000
100000
100000
100000
100000
100000
100000
100000
100000
100000
100000
100000
100000
100000
100000
100000
100000
100000
100000
100000