/*--------------------------------*- C++ -*----------------------------------*\
  =========                 |
  \\      /  F ield         | OpenFOAM: The Open Source CFD Toolbox
   \\    /   O peration     | Website:  https://openfoam.org
    \\  /    A nd           | Version:  7
     \\/     M anipulation  |
\*---------------------------------------------------------------------------*/
FoamFile
{
    version     2.0;
    format      ascii;
    class       volScalarField;
    location    "0.0004";
    object      mag(U);
}
// * * * * * * * * * * * * * * * * * * * * * * * * * * * * * * * * * * * * * //

dimensions      [0 1 -1 0 0 0 0];

internalField   nonuniform List<scalar> 
5000
(
17.092266
17.075708
17.061434
17.03763
17.013785
16.988634
16.962496
16.936447
16.910053
16.88371
16.857279
16.830865
16.804427
16.777999
16.751565
16.725137
16.698707
16.672281
16.645855
16.619433
16.593011
16.566592
16.540174
16.513759
16.487346
16.460936
16.434528
16.408122
16.38172
16.35532
16.328924
16.302531
16.276142
16.249756
16.223374
16.196996
16.170622
16.144251
16.117885
16.091522
16.065164
16.038809
16.012459
15.986113
15.959771
15.933433
15.907099
15.88077
15.854444
15.828123
15.801806
15.775493
15.749185
15.722881
15.696581
15.670285
15.643993
15.617706
15.591423
15.565144
15.538869
15.512599
15.486333
15.460071
15.433813
15.40756
15.38131
15.355065
15.328824
15.302588
15.276355
15.250127
15.223903
15.197683
15.171468
15.145256
15.119049
15.092846
15.066647
15.040452
15.014261
14.988075
14.961893
14.935715
14.909541
14.883371
14.857206
14.831044
14.804887
14.778734
14.752585
14.72644
14.7003
14.674163
14.648031
14.621903
14.595779
14.569659
14.543543
14.517431
14.491324
14.46522
14.439121
14.413025
14.386934
14.360847
14.334763
14.308684
14.282608
14.256537
14.230469
14.204405
14.178345
14.152288
14.126236
14.100187
14.074141
14.048099
14.022061
13.996025
13.969994
13.943965
13.91794
13.891918
13.865899
13.839883
13.81387
13.78786
13.761853
13.735849
13.709848
13.68385
13.657854
13.631861
13.605871
13.579884
13.553899
13.527917
13.501938
13.475962
13.449989
13.424018
13.39805
13.372086
13.346124
13.320165
13.29421
13.268257
13.242308
13.216362
13.19042
13.164481
13.138546
13.112614
13.086686
13.060763
13.034843
13.008927
12.983015
12.957108
12.931205
12.905306
12.879412
12.853523
12.827639
12.801759
12.775884
12.750015
12.72415
12.698291
12.672437
12.646588
12.620745
12.594907
12.569074
12.543248
12.517427
12.491611
12.465802
12.439998
12.4142
12.388407
12.362621
12.336841
12.311066
12.285298
12.259535
12.233779
12.208028
12.182284
12.156545
12.130813
12.105086
12.079366
12.053651
12.027943
12.00224
11.976544
11.950853
11.925168
11.89949
11.873817
11.84815
11.822489
11.796834
11.771185
11.745541
11.719904
11.694272
11.668646
11.643026
11.617412
11.591803
11.5662
11.540603
11.515011
11.489426
11.463845
11.438271
11.412702
11.387139
11.361582
11.33603
11.310483
11.284943
11.259407
11.233878
11.208354
11.182836
11.157323
11.131815
11.106314
11.080817
11.055327
11.029841
11.004362
10.978887
10.953419
10.927955
10.902498
10.877045
10.851599
10.826157
10.800722
10.775291
10.749866
10.724447
10.699033
10.673624
10.648221
10.622824
10.597432
10.572045
10.546664
10.521288
10.495917
10.470552
10.445193
10.419839
10.39449
10.369147
10.343809
10.318476
10.293149
10.267828
10.242511
10.2172
10.191895
10.166595
10.1413
10.116011
10.090727
10.065449
10.040176
10.014908
9.9896455
9.9643885
9.9391369
9.9138907
9.8886499
9.8634144
9.8381843
9.8129595
9.7877401
9.7625261
9.7373174
9.7121141
9.6869162
9.6617236
9.6365363
9.6113544
9.5861778
9.5610066
9.5358407
9.5106801
9.4855249
9.460375
9.4352304
9.4100911
9.3849572
9.3598286
9.3347053
9.3095874
9.2844747
9.2593674
9.2342654
9.2091687
9.1840773
9.1589912
9.1339103
9.1088348
9.0837646
9.0586997
9.0336401
9.0085858
8.9835367
8.958493
8.9334545
8.9084213
8.8833934
8.8583708
8.8333534
8.8083413
8.7833345
8.758333
8.7333367
8.7083457
8.6833599
8.6583795
8.6334042
8.6084343
8.5834695
8.5585101
8.5335558
8.5086069
8.4836632
8.4587247
8.4337914
8.4088634
8.3839407
8.3590231
8.3341109
8.3092038
8.284302
8.2594054
8.234514
8.2096278
8.1847469
8.1598712
8.1350007
8.1101354
8.0852754
8.0604205
8.0355709
8.0107264
7.9858872
7.9610532
7.9362244
7.9114008
7.8865823
7.8617691
7.8369611
7.8121583
7.7873606
7.7625682
7.7377809
7.7129989
7.688222
7.6634503
7.6386838
7.6139224
7.5891663
7.5644153
7.5396695
7.5149288
7.4901934
7.4654631
7.440738
7.416018
7.3913032
7.3665936
7.3418892
7.3171899
7.2924957
7.2678068
7.2431229
7.2184443
7.1937708
7.1691024
7.1444392
7.1197812
7.0951283
7.0704805
7.0458379
7.0212004
6.9965681
6.9719409
6.9473189
6.922702
6.8980903
6.8734836
6.8488822
6.8242858
6.7996946
6.7751085
6.7505276
6.7259518
6.7013811
6.6768155
6.6522551
6.6276998
6.6031496
6.5786046
6.5540646
6.5295298
6.5050002
6.4804756
6.4559562
6.4314418
6.4069326
6.3824286
6.3579296
6.3334357
6.308947
6.2844634
6.2599849
6.2355115
6.2110432
6.18658
6.1621219
6.137669
6.1132212
6.0887784
6.0643408
6.0399083
6.0154809
5.9910586
5.9666413
5.9422293
5.9178223
5.8934204
5.8690236
5.8446319
5.8202453
5.7958638
5.7714875
5.7471162
5.72275
5.6983889
5.674033
5.6496821
5.6253363
5.6009956
5.57666
5.5523295
5.5280041
5.5036839
5.4793687
5.4550586
5.4307535
5.4064536
5.3821588
5.3578691
5.3335845
5.3093049
5.2850305
5.2607611
5.2364969
5.2122377
5.1879837
5.1637347
5.1394908
5.115252
5.0910183
5.0667897
5.0425662
5.0183477
4.9941344
4.9699261
4.945723
4.9215249
4.8973319
4.873144
4.8489612
4.8247835
4.8006109
4.7764433
4.7522808
4.7281235
4.7039712
4.6798239
4.6556818
4.6315448
4.6074128
4.5832859
4.5591641
4.5350474
4.5109357
4.4868291
4.4627276
4.4386312
4.4145398
4.3904535
4.3663722
4.3422961
4.3182249
4.2941589
4.2700979
4.246042
4.2219911
4.1979452
4.1739044
4.1498687
4.1258379
4.1018123
4.0777916
4.053776
4.0297654
4.0057598
3.9817592
3.9577636
3.933773
3.9097874
3.8858068
3.8618312
3.8378606
3.8138949
3.7899342
3.7659785
3.7420277
3.7180818
3.6941409
3.6702049
3.6462738
3.6223477
3.5984264
3.5745101
3.5505986
3.526692
3.5027903
3.4788935
3.4550016
3.4311145
3.4072323
3.3833549
3.3594825
3.3356149
3.3117521
3.2878942
3.2640412
3.2401931
3.2163499
3.1925117
3.1686783
3.1448499
3.1210265
3.0972082
3.0733948
3.0495866
3.0257835
3.0019856
2.9781929
2.9544056
2.9306236
2.9068472
2.8830763
2.8593111
2.8355516
2.8117982
2.7880507
2.7643095
2.7405747
2.7168465
2.693125
2.6694105
2.6457032
2.6220034
2.5983114
2.5746274
2.5509518
2.527285
2.5036272
2.4799789
2.4563406
2.4327127
2.4090956
2.38549
2.3618963
2.3383152
2.3147472
2.2911932
2.2676537
2.2441296
2.2206216
2.1971305
2.1736574
2.1502031
2.1267685
2.1033548
2.0799631
2.0565944
2.0332501
2.0099313
1.9866394
1.9633757
1.9401418
1.9169391
1.8937691
1.8706336
1.8475342
1.8244727
1.801451
1.7784708
1.7555343
1.7326434
1.7098002
1.6870069
1.6642659
1.6415793
1.6189495
1.5963791
1.5738705
1.5514264
1.5290493
1.5067421
1.4845074
1.4623482
1.4402672
1.4182676
1.3963524
1.3745245
1.3527872
1.3311436
1.309597
1.2881506
1.2668078
1.2455719
1.2244463
1.2034344
1.1825398
1.1617658
1.141116
1.1205939
1.1002031
1.0799471
1.0598294
1.0398536
1.0200233
1.0003419
0.98081307
0.96144023
0.94222689
0.9231765
0.90429248
0.88557822
0.86703706
0.84867229
0.83048716
0.81248485
0.79466848
0.7770411
0.7596057
0.74236517
0.72532235
0.70847997
0.69184068
0.67540702
0.65918146
0.64316634
0.62736391
0.6117763
0.59640553
0.58125352
0.56632203
0.55161274
0.53712717
0.52286674
0.50883272
0.49502626
0.48144837
0.46809992
0.45498165
0.44209416
0.42943791
0.41701322
0.40482029
0.39285914
0.38112969
0.3696317
0.35836479
0.34732846
0.33652206
0.3259448
0.31559578
0.30547394
0.29557812
0.28590701
0.27645919
0.26723311
0.2582271
0.24943939
0.24086808
0.23251117
0.22436656
0.21643204
0.2087053
0.20118394
0.19386548
0.18674734
0.17982687
0.17310133
0.16656793
0.16022379
0.15406598
0.14809149
0.14229729
0.13668028
0.13123731
0.1259652
0.12086073
0.11592064
0.11114167
0.1065205
0.10205382
0.097738282
0.093570555
0.089547282
0.085665111
0.081920688
0.078310669
0.074831717
0.071480506
0.068253731
0.065148101
0.062160351
0.059287242
0.056525562
0.053872131
0.051323803
0.048877468
0.046530056
0.044278538
0.042119927
0.040051282
0.038069708
0.036172359
0.034356439
0.032619203
0.030957958
0.029370067
0.027852944
0.026404061
0.025020945
0.02370118
0.022442406
0.021242324
0.020098688
0.019009312
0.01797207
0.01698489
0.01604576
0.015152725
0.014303887
0.013497404
0.012731493
0.012004422
0.011314518
0.010660161
0.010039784
0.0094518741
0.0088949694
0.0083676595
0.0078685843
0.0073964327
0.006949942
0.0065278966
0.0061291273
0.0057525099
0.0053969642
0.0050614529
0.0047449808
0.0044465932
0.0041653751
0.0039004499
0.0036509783
0.0034161574
0.0031952194
0.0029874304
0.0027920894
0.0026085272
0.0024361055
0.0022742153
0.0021222766
0.0019797368
0.0018460697
0.0017207749
0.0016033765
0.0014934221
0.0013904821
0.0012941487
0.0012040347
0.0011197732
0.0010410162
0.00096743438
0.00089871554
0.00083456445
0.00077470181
0.00071886361
0.00066680038
0.00061827654
0.00057306972
0.00053097016
0.00049178004
0.00045531295
0.00042139329
0.00038985574
0.00036054472
0.0003333139
0.00030802573
0.00028455096
0.00026276818
0.00024256346
0.00022382988
0.00020646718
0.00019038138
0.00017548444
0.00016169391
0.00014893262
0.00013712836
0.00012621364
0.00011612536
0.00010680455
9.8196196e-05
9.0248907e-05
8.291476e-05
7.6149064e-05
6.9910167e-05
6.4159265e-05
5.8860224e-05
5.3979412e-05
4.9485542e-05
4.5349518e-05
4.1544297e-05
3.8044753e-05
3.4827552e-05
3.1871038e-05
2.9155116e-05
2.6661148e-05
2.437186e-05
2.2271246e-05
2.0344478e-05
1.8577833e-05
1.695861e-05
1.547506e-05
1.4116323e-05
1.2872362e-05
1.1733903e-05
1.0692385e-05
9.7399068e-06
8.8691771e-06
8.0734732e-06
7.3465982e-06
6.6828423e-06
6.0769469e-06
5.52407e-06
5.0197565e-06
4.5599084e-06
4.1407576e-06
3.7588407e-06
3.410977e-06
3.0942447e-06
2.8059614e-06
2.5436665e-06
2.3051029e-06
2.088201e-06
1.8910644e-06
1.7119568e-06
1.5492886e-06
1.4016011e-06
1.2675628e-06
1.1459562e-06
1.0356669e-06
9.3567716e-07
8.4505728e-07
7.6295816e-07
6.8860425e-07
6.2128836e-07
5.6036636e-07
5.0525023e-07
4.554032e-07
4.1033783e-07
3.6960935e-07
3.3281318e-07
2.995812e-07
2.6957902e-07
2.4250118e-07
2.1807133e-07
1.9603883e-07
1.7617428e-07
1.5827038e-07
1.421399e-07
1.2761197e-07
1.1453147e-07
1.0275844e-07
9.2165789e-08
8.2637988e-08
7.407132e-08
6.6371851e-08
5.945267e-08
5.3237971e-08
4.7657733e-08
4.2648461e-08
3.8154181e-08
3.4122007e-08
3.050634e-08
2.7264859e-08
2.4360274e-08
2.1758417e-08
1.942745e-08
1.734162e-08
1.5474727e-08
1.380455e-08
1.2310924e-08
1.0974616e-08
9.7803998e-09
8.7142264e-09
7.7610226e-09
6.9103153e-09
6.1514378e-09
5.4739079e-09
4.8695665e-09
4.3302856e-09
3.8493809e-09
3.4219153e-09
3.0403707e-09
2.6995306e-09
2.3969856e-09
2.1274787e-09
1.8881087e-09
1.6752522e-09
1.4855652e-09
1.3169589e-09
1.1670337e-09
1.0337287e-09
9.1571701e-10
8.1118811e-10
7.182447e-10
6.3567664e-10
5.6177575e-10
4.9633353e-10
4.3907383e-10
3.8800906e-10
3.4308712e-10
3.0327008e-10
2.6808391e-10
2.3676234e-10
2.0910709e-10
1.8463908e-10
1.627441e-10
1.4415091e-10
1.2722434e-10
1.1220658e-10
9.8670536e-11
8.6743112e-11
7.6314129e-11
6.736166e-11
5.9495771e-11
5.2423213e-11
4.5965922e-11
4.0672841e-11
3.6298373e-11
3.2097774e-11
2.8003436e-11
2.4799292e-11
2.233526e-11
1.9291107e-11
1.672591e-11
1.5020573e-11
1.3223774e-11
1.1766951e-11
1.0718232e-11
9.4511289e-12
8.1456846e-12
6.8888967e-12
6.2867923e-12
5.8047422e-12
5.1555791e-12
4.616404e-12
4.0090385e-12
3.4147821e-12
3.0786563e-12
2.6868153e-12
2.3035161e-12
2.0738482e-12
1.7890233e-12
1.3050544e-12
1.2868783e-12
1.00578e-12
7.5254855e-13
6.838595e-13
8.7110157e-13
6.3435158e-13
4.0393009e-13
4.132423e-13
3.5716378e-13
3.1874789e-13
8.4011868e-14
5.2965967e-14
4.0222325e-15
9.6351415e-14
3.1514737e-13
3.0767903e-14
2.4648008e-13
2.4204513e-13
1.4967904e-13
1.9992069e-13
4.2224717e-13
4.9916581e-13
6.5679022e-13
9.0126399e-13
6.3669853e-13
7.4348623e-13
6.8079861e-13
7.5470516e-13
7.2550466e-13
6.7175072e-13
4.5236849e-13
3.3555975e-13
1.4034577e-13
5.4504635e-13
8.6349656e-13
6.1204068e-13
4.7538241e-13
5.6676052e-13
4.6608772e-13
5.8000659e-13
4.3892469e-13
2.0738657e-13
3.2165013e-13
3.9529995e-13
3.1935146e-13
1.6521003e-13
6.8752579e-14
4.8906173e-14
1.0795102e-13
4.4470612e-14
1.7318129e-14
5.476555e-14
1.0110201e-14
2.3387517e-13
3.3315306e-14
2.0529288e-13
4.2621133e-13
1.4205417e-13
1.2129749e-13
2.9301963e-13
3.1695629e-13
1.1328662e-13
4.2015185e-13
3.9566278e-13
3.5229881e-13
1.9871111e-13
8.1873332e-14
2.0488559e-13
1.2010437e-13
2.7041725e-13
1.845999e-14
4.7290303e-15
3.8252963e-13
5.2650783e-13
5.6584478e-13
6.1850836e-13
6.168467e-13
7.7804618e-13
4.6011557e-13
5.4562306e-13
6.9160354e-13
6.9335674e-13
8.2666747e-13
7.3592532e-13
5.8849851e-13
8.6556187e-13
7.7343179e-13
8.7074301e-13
6.1589313e-13
5.6694871e-13
6.4169113e-13
8.4502248e-13
1.0076889e-12
1.0310805e-12
9.8030578e-13
6.9779783e-13
7.8901233e-13
7.6780199e-13
9.2173857e-13
6.4835176e-13
5.9809311e-13
7.3983964e-13
6.5366933e-13
6.9100082e-13
7.9420249e-13
6.7049705e-13
6.3858929e-13
8.279104e-13
7.7063522e-13
5.8831876e-13
5.8215804e-13
5.4236579e-13
6.0080576e-13
6.5697919e-13
5.2310521e-13
5.8511179e-13
5.4710701e-13
4.4931319e-13
3.2598711e-13
3.1805012e-13
9.8292076e-14
6.1915404e-14
6.3848204e-14
4.517006e-14
2.5120185e-14
1.498282e-13
1.0786949e-13
8.838332e-15
1.0759356e-13
2.362273e-15
2.8051777e-14
8.3483051e-15
9.969074e-14
7.3636854e-14
3.3577953e-14
3.3079142e-13
4.563484e-13
4.4583192e-13
4.3443657e-13
5.4995021e-13
4.4030462e-13
4.1754654e-13
5.6198192e-13
5.4268347e-13
3.1558873e-13
3.4959759e-13
4.1117794e-13
2.4031928e-13
4.5437275e-13
5.5484208e-13
4.5849117e-13
1.8027076e-13
2.9716107e-14
6.6260126e-14
2.413196e-13
2.5013292e-13
3.3973728e-13
4.4503537e-13
2.7266187e-13
4.4068331e-13
5.6654748e-13
3.7047983e-13
3.2790769e-13
5.1921784e-13
6.0957509e-13
5.5610455e-13
3.3567703e-13
2.5859882e-13
2.5492354e-13
5.3137708e-13
6.0782633e-13
6.449865e-13
9.4785787e-13
1.0233862e-12
8.4224341e-13
5.673397e-13
6.3600596e-13
7.2950455e-13
5.6758226e-13
5.0653644e-13
6.0932238e-13
8.3653723e-13
7.1121642e-13
4.6585072e-13
2.8282918e-13
5.0708524e-13
4.5680168e-13
4.6916306e-13
2.8975063e-13
2.8335386e-13
2.4525182e-13
3.4580143e-13
3.5490447e-13
1.5964434e-13
2.0647947e-13
6.5907253e-14
9.4669202e-14
2.1204307e-13
1.2200465e-13
3.6701928e-14
1.3572691e-14
6.0329224e-14
1.4707095e-13
6.3394314e-14
1.2578737e-13
1.5753692e-13
1.6374677e-13
4.6685602e-14
1.8758692e-13
3.5012001e-13
3.469582e-13
3.7518843e-13
3.8642347e-13
4.5613686e-13
2.9117363e-13
3.3268659e-13
6.2076438e-13
6.8673695e-13
3.9630005e-13
1.8074798e-13
1.6332014e-14
3.6690888e-13
3.0138993e-13
6.3726578e-13
5.9952159e-13
5.0255325e-13
5.3522942e-13
5.1543603e-13
7.4876068e-13
7.2252219e-13
7.1032786e-13
6.101979e-13
5.8599536e-13
4.4503908e-13
4.9053031e-13
4.084987e-13
4.4807875e-13
3.7007227e-13
5.1737332e-13
5.515364e-13
3.7351598e-13
6.0529107e-13
4.0310199e-13
4.4414785e-13
4.1350703e-13
3.2831512e-13
7.3110698e-14
1.2207965e-13
2.1090049e-13
2.2290026e-13
7.2280703e-14
4.1433239e-14
7.9909329e-15
6.9991873e-14
8.0824486e-14
1.2820827e-13
2.6192016e-14
6.3694844e-14
3.4141163e-14
3.6909886e-13
3.2198109e-13
2.8032308e-13
1.1102612e-14
5.6714514e-15
2.9176214e-13
7.5254009e-14
4.9795649e-13
6.5059759e-13
5.3706354e-13
6.6494745e-13
8.2093185e-13
5.2630997e-13
7.438156e-13
4.9234257e-13
6.2701591e-13
7.8605351e-13
8.6493131e-13
8.8862952e-13
7.7796817e-13
7.2083137e-13
1.1052065e-12
1.0599471e-12
1.1314695e-12
1.0259326e-12
9.1721358e-13
1.0687081e-12
1.1199704e-12
1.3363858e-12
1.1671965e-12
8.7673288e-13
1.0033335e-12
1.3147096e-12
1.4715752e-12
1.646066e-12
1.5292459e-12
1.5413588e-12
1.6891453e-12
1.5548283e-12
1.5769683e-12
1.4799494e-12
1.2843462e-12
1.6095799e-12
1.8784874e-12
1.6308534e-12
1.419176e-12
1.5655921e-12
1.4981435e-12
1.55898e-12
1.320601e-12
1.2281716e-12
1.4763881e-12
1.7972625e-12
1.6574918e-12
1.2407119e-12
1.2713637e-12
1.2168957e-12
1.301972e-12
1.237358e-12
1.3509255e-12
1.4746753e-12
1.1361908e-12
1.268491e-12
1.2833336e-12
1.3640417e-12
1.451099e-12
1.1517178e-12
1.2286908e-12
1.2156096e-12
1.3103493e-12
1.1522649e-12
1.2918589e-12
1.2750187e-12
1.01934e-12
1.1035436e-12
1.0922434e-12
1.2378367e-12
1.1229505e-12
8.036071e-13
9.4505212e-13
8.9202681e-13
5.8148607e-13
5.7874564e-13
8.4590824e-13
7.775955e-13
9.3975671e-13
1.1977148e-12
9.6014948e-13
6.4188934e-13
6.7624594e-13
4.7003608e-13
5.5252556e-13
6.4900117e-13
5.3641467e-13
7.1548714e-13
4.0507346e-13
5.3748842e-13
7.1539201e-13
4.8589628e-13
6.5388334e-13
8.5526891e-13
9.1146264e-13
8.9182867e-13
6.8259219e-13
8.9337046e-13
9.3144822e-13
9.6603724e-13
1.2621458e-12
1.3246652e-12
1.4205113e-12
1.4104393e-12
1.3772486e-12
1.3246814e-12
1.3443019e-12
1.4110228e-12
1.5674433e-12
1.811893e-12
1.7018449e-12
1.7828166e-12
2.036755e-12
1.9584359e-12
1.5762766e-12
1.5619166e-12
1.7468214e-12
1.4833898e-12
1.5486174e-12
1.6715283e-12
1.4044609e-12
1.4604428e-12
1.5041739e-12
1.5387478e-12
1.5264868e-12
1.3129921e-12
1.4124706e-12
1.451536e-12
1.3870919e-12
1.3411216e-12
1.2340435e-12
1.3315425e-12
1.2548427e-12
1.436267e-12
1.4587215e-12
1.5095041e-12
1.3978196e-12
1.1807721e-12
1.1782883e-12
1.3836131e-12
1.2724052e-12
1.5477728e-12
1.6088821e-12
1.558215e-12
1.4591909e-12
1.4801315e-12
1.5232425e-12
1.4611704e-12
1.5502873e-12
1.3646815e-12
1.6418613e-12
1.6105678e-12
1.5564092e-12
1.4866082e-12
1.4071359e-12
1.351799e-12
1.10928e-12
1.0245252e-12
1.1451463e-12
1.2818564e-12
1.2330156e-12
9.468803e-13
8.2256495e-13
9.1486038e-13
5.928304e-13
6.3220526e-13
7.4770787e-13
7.4769714e-13
4.6158919e-13
7.9562879e-13
6.6578937e-13
5.9577079e-13
6.6069719e-13
6.7644608e-13
7.1339417e-13
5.530879e-13
4.6859488e-13
2.4800126e-13
7.7329701e-13
4.8470174e-13
5.4209095e-13
3.8120189e-13
4.312517e-13
3.5372191e-13
4.7681704e-13
4.2730713e-13
4.1443037e-13
4.0188704e-13
5.5408585e-13
7.2821248e-13
4.3730348e-13
5.8615038e-13
4.8124677e-13
6.6538362e-13
4.9804871e-13
4.7192264e-13
6.6259783e-13
7.0776041e-13
6.5781681e-13
6.1024135e-13
7.0956373e-13
6.6885961e-13
8.0203299e-13
1.2640916e-12
1.4479772e-12
1.0886919e-12
8.3625036e-13
1.0508805e-12
1.083387e-12
1.2726042e-12
1.4284813e-12
1.4544582e-12
1.5280371e-12
2.0139935e-12
2.62021e-12
3.1005423e-12
3.6913872e-12
3.9472973e-12
4.3002828e-12
5.0770991e-12
5.8170996e-12
6.8717759e-12
7.6654939e-12
8.4807093e-12
9.4399273e-12
1.0668116e-11
1.3097338e-11
1.5126025e-11
1.7004134e-11
1.9444076e-11
2.2557447e-11
2.605714e-11
2.9748126e-11
3.3821532e-11
3.8874207e-11
4.4682876e-11
5.1277584e-11
5.869494e-11
6.6871837e-11
7.6574883e-11
8.7840575e-11
1.0022725e-10
1.1436098e-10
1.3053222e-10
1.4926444e-10
1.7050935e-10
1.9472778e-10
2.2219114e-10
2.5291979e-10
2.8854682e-10
3.2938575e-10
3.7577238e-10
4.2894416e-10
4.8876474e-10
5.5638654e-10
6.3445868e-10
7.2210799e-10
8.2190956e-10
9.3543163e-10
1.0643123e-09
1.2107735e-09
1.3769156e-09
1.5655839e-09
1.7787465e-09
2.020865e-09
2.2955586e-09
2.6061402e-09
2.9580722e-09
3.3569845e-09
3.8084531e-09
4.3188922e-09
4.8958521e-09
5.5487438e-09
6.2869149e-09
7.1211213e-09
8.0639638e-09
9.1282754e-09
1.0329831e-08
1.1686411e-08
1.3216569e-08
1.4942403e-08
1.6888677e-08
1.9082477e-08
2.155446e-08
2.4338889e-08
2.7474372e-08
3.1004426e-08
3.4977612e-08
3.9447207e-08
4.4473719e-08
5.0125332e-08
5.6476854e-08
6.3613732e-08
7.163011e-08
8.0631289e-08
9.0735077e-08
1.0207244e-07
1.1478946e-07
1.2905019e-07
1.4503711e-07
1.6295177e-07
1.8302091e-07
2.0549619e-07
2.3065708e-07
2.5881538e-07
2.9031812e-07
3.2554976e-07
3.6493991e-07
4.0896292e-07
4.5814717e-07
5.1308032e-07
5.7441172e-07
6.4286493e-07
7.1924041e-07
8.0442638e-07
8.9940504e-07
1.0052672e-06
1.1232194e-06
1.2545956e-06
1.4008747e-06
1.5636899e-06
1.7448463e-06
1.9463419e-06
2.1703824e-06
2.419401e-06
2.6960863e-06
3.0034044e-06
3.3446255e-06
3.7233578e-06
4.1435753e-06
4.6096563e-06
5.1264225e-06
5.6991814e-06
6.3337749e-06
7.0366257e-06
7.8147949e-06
8.6760454e-06
9.628903e-06
1.068273e-05
1.1847803e-05
1.3135399e-05
1.4557883e-05
1.6128813e-05
1.7863045e-05
1.9776854e-05
2.1888058e-05
2.4216157e-05
2.6782485e-05
2.9610373e-05
3.2725324e-05
3.6155199e-05
3.9930428e-05
4.408423e-05
4.8652857e-05
5.3675847e-05
5.9196306e-05
6.5261212e-05
7.1921736e-05
7.9233598e-05
8.7257437e-05
9.6059224e-05
0.00010571069
0.0001162898
0.00012788127
0.00014057707
0.00015447704
0.0001696895
0.00018633193
0.00020453166
0.00022442663
0.00024616625
0.00026991225
0.00029583958
0.00032413747
0.00035501047
0.00038867956
0.00042538338
0.00046537955
0.00050894597
0.00055638235
0.00060801172
0.0006641821
0.00072526823
0.00079167344
0.00086383161
0.00094220925
0.0010273077
0.0011196656
0.001219861
0.0013285143
0.0014462911
0.0015739046
0.0017121191
0.0018617531
0.0020236825
0.0021988446
0.0023882414
0.0025929436
0.002814095
0.0030529166
0.003310711
0.0035888675
0.0038888666
0.0042122856
0.0045608034
0.004936207
0.0053403963
0.0057753911
0.0062433366
0.0067465107
0.0072873303
0.0078683585
0.0084923118
0.0091620679
0.0098806731
0.010651351
0.011477509
0.012362749
0.013310875
0.014325904
0.015412069
0.016573837
0.017815912
0.019143249
0.02056106
0.022074828
0.023690314
0.025413571
0.027250949
0.029209113
0.031295048
0.03351607
0.035879842
0.038394378
0.041068057
0.043909637
0.046928259
0.050133463
0.053535193
0.057143815
0.06097012
0.065025336
0.069321137
0.073869656
0.078683487
0.083775698
0.089159837
0.094849941
0.10086054
0.10720667
0.11390386
0.12096816
0.12841614
0.13626488
0.14453197
0.15323555
0.16239425
0.17202726
0.18215424
0.19279542
0.20397152
0.21570375
0.22801387
0.24092409
0.25445715
0.26863624
0.28348502
0.29902762
0.3152886
0.33229295
0.35006608
0.36863378
0.38802222
0.40825794
0.42936778
0.45137891
0.4743188
0.49821516
0.52309594
0.54898929
0.57592355
0.6039272
0.63302885
0.66325716
0.69464089
0.72720876
0.76098953
0.79601186
0.83230435
0.86989546
0.90881349
0.94908652
0.99074242
1.0338088
1.0783128
1.1242815
1.1717412
1.2207181
1.2712378
1.3233254
1.3770053
1.4323015
1.4892375
1.5478357
1.6081181
1.6701061
1.73382
1.7992795
1.8665033
1.9355096
2.0063152
2.0789364
2.1533883
2.2296851
2.3078399
2.387865
2.4697713
2.553569
2.6392669
2.7268729
2.8163935
2.9078344
3.0011998
3.0964929
3.1937157
3.292869
3.3939524
3.4969641
3.6019014
3.7087601
3.8175349
3.9282193
4.0408054
4.1552843
4.2716456
4.3898779
4.5099685
4.6319035
4.7556677
4.8812447
5.0086171
5.1377661
5.2686718
5.401313
5.5356677
5.6717123
5.8094225
5.9487724
6.0897355
6.2322839
6.3763886
6.5220198
6.6691464
6.8177363
6.9677566
7.1191731
7.2719509
7.426054
7.5814454
7.7380873
7.8959408
8.0549665
8.2151237
8.376371
8.5386663
8.7019665
8.8662277
9.0314055
9.1974543
9.3643282
9.5319803
9.700363
9.8694282
10.039127
10.20941
10.380227
10.551527
10.723259
10.895372
11.067812
11.240527
11.413463
11.586568
11.759786
11.933062
12.106343
12.279571
12.452692
12.625649
12.798385
12.970846
13.142973
13.31471
13.485999
13.656785
13.827009
13.996613
14.165543
14.333738
14.501145
14.667703
14.833358
14.998054
15.161731
15.324338
15.485816
15.646112
15.805171
15.962937
16.119361
16.274385
16.427961
16.580035
16.730559
16.879482
17.026755
17.172333
17.316165
17.458212
17.598425
17.736763
17.873185
18.00765
18.140122
18.27056
18.398932
18.525204
18.649343
18.771321
18.891106
19.008677
19.124005
19.237071
19.347853
19.456333
19.562497
19.666328
19.767818
19.866954
19.963732
20.058147
20.150195
20.239878
20.327195
20.412154
20.49476
20.575023
20.652955
20.728566
20.801878
20.872903
20.941665
21.008185
21.072487
21.134599
21.194545
21.252361
21.308074
21.361719
21.413332
21.462948
21.510606
21.556343
21.600204
21.642226
21.682453
21.72093
21.757698
21.792806
21.826296
21.858216
21.888612
21.91753
21.945018
21.971121
21.995888
22.019363
22.041595
22.06263
22.08251
22.101286
22.118998
22.135692
22.151411
22.166197
22.180094
22.193138
22.205375
22.216838
22.22757
22.237604
22.246977
22.255726
22.263879
22.271475
22.27854
22.285107
22.291204
22.296857
22.302097
22.306945
22.311428
22.315568
22.319387
22.322907
22.326147
22.329128
22.331864
22.334377
22.336679
22.338786
22.340716
22.342476
22.344084
22.345549
22.346883
22.348096
22.349197
22.350199
22.351103
22.351924
22.352665
22.353335
22.353939
22.354481
22.354972
22.35541
22.355804
22.356157
22.356471
22.356754
22.357003
22.357227
22.357424
22.3576
22.357755
22.35789
22.358012
22.358116
22.358208
22.358288
22.358358
22.358419
22.35847
22.358517
22.358554
22.35859
22.358625
22.358657
22.358687
22.358712
22.358755
22.358811
22.358854
22.358879
22.358913
22.358976
22.359032
22.359068
22.359097
22.35915
22.359209
22.359252
22.359282
22.359318
22.359368
22.359413
22.359442
22.359469
22.359509
22.359554
22.359585
22.359602
22.359628
22.359673
22.35971
22.359723
22.359737
22.359779
22.359828
22.359851
22.359859
22.359888
22.359938
22.359975
22.359986
22.360003
22.360051
22.360097
22.360113
22.36012
22.360158
22.360207
22.360232
22.360241
22.360263
22.360306
22.360342
22.36036
22.360379
22.360417
22.360456
22.360471
22.360479
22.360511
22.36055
22.360565
22.360569
22.360588
22.360625
22.360653
22.360667
22.360689
22.360727
22.360762
22.360795
22.360834
22.360878
22.360927
22.360948
22.360962
22.360966
22.36097
22.360998
22.361027
22.361034
22.361028
22.360994
22.360979
22.360993
22.360983
22.360969
22.360983
22.361004
22.361017
22.361033
22.361059
22.361088
22.361117
22.361152
22.361191
22.361233
22.361274
22.3613
22.361324
22.361351
22.361365
22.361375
22.361388
22.361399
22.361403
22.361412
22.36142
22.36142
22.361421
22.361425
22.361424
22.361419
22.361421
22.361421
22.361417
22.361427
22.361441
22.361446
22.361449
22.361463
22.361479
22.361492
22.361499
22.36151
22.36152
22.361529
22.361541
22.361557
22.361566
22.361577
22.361589
22.361597
22.361607
22.361619
22.361629
22.361636
22.36164
22.361645
22.36165
22.361652
22.361656
22.36166
22.361647
22.361616
22.361611
22.361618
22.361618
22.361618
22.361622
22.361613
22.361584
22.361571
22.361576
22.361578
22.361583
22.361591
22.361592
22.361592
22.361594
22.361591
22.361584
22.361585
22.361588
22.36159
22.361594
22.361596
22.361596
22.361595
22.361594
22.361597
22.361593
22.361581
22.361573
22.361578
22.361587
22.361586
22.361575
22.361562
22.361569
22.361575
22.36157
22.361559
22.36156
22.361563
22.361561
22.361558
22.361562
22.36156
22.361552
22.361546
22.361547
22.361548
22.361548
22.361545
22.361538
22.361531
22.361525
22.361517
22.361505
22.361502
22.361498
22.36149
22.361475
22.361464
22.361461
22.36146
22.361457
22.361452
22.361444
22.361437
22.361435
22.361431
22.361422
22.361415
22.361416
22.361414
22.361407
22.361399
22.361401
22.361402
22.361399
22.361394
22.36139
22.36139
22.361388
22.361384
22.361378
22.361378
22.361377
22.361373
22.361364
22.361362
22.361365
22.361365
22.361362
22.361355
22.361347
22.361343
22.361341
22.361337
22.361331
22.361323
22.361319
22.361314
22.361306
22.3613
22.361297
22.361292
22.361284
22.361274
22.361264
22.36126
22.361256
22.361249
22.361239
22.361227
22.361215
22.361204
22.361202
22.361199
22.361194
22.361186
22.361176
22.361166
22.361154
22.361147
22.361142
22.361136
22.361128
22.361117
22.361107
22.361101
22.361095
22.361088
22.361078
22.361071
22.361065
22.361058
22.361048
22.361041
22.361037
22.361033
22.361027
22.361018
22.361009
22.361005
22.361003
22.361
22.360994
22.360988
22.360982
22.360979
22.360976
22.360972
22.360967
22.36096
22.360958
22.360957
22.360956
22.360952
22.360948
22.360942
22.360938
22.360938
22.360936
22.360933
22.360929
22.360924
22.360922
22.36092
22.360917
22.360912
22.360909
22.360907
22.360904
22.3609
22.360894
22.36089
22.360887
22.360883
22.36088
22.360879
22.360876
22.360872
22.360866
22.36086
22.360855
22.360853
22.360849
22.360845
22.360839
22.360831
22.360825
22.360823
22.36082
22.360816
22.36081
22.360803
22.360795
22.360789
22.360786
22.360782
22.360777
22.36077
22.360762
22.360754
22.360751
22.360747
22.360742
22.360736
22.360729
22.36072
22.360715
22.360711
22.360707
22.360702
22.360695
22.360688
22.360684
22.36068
22.360675
22.360669
22.360662
22.360658
22.360656
22.360653
22.360648
22.360643
22.360636
22.360631
22.360628
22.360627
22.360625
22.360622
22.360618
22.360614
22.360609
22.360604
22.360602
22.360601
22.3606
22.360597
22.360593
22.360588
22.360583
22.360583
22.360582
22.36058
22.360576
22.360572
22.360567
22.360564
22.360563
22.360561
22.360558
22.360554
22.36055
22.360545
22.360543
22.360541
22.360539
22.360535
22.36053
22.360525
22.360522
22.360519
22.360516
22.360511
22.360506
22.360504
22.360501
22.360497
22.360493
22.360487
22.360482
22.360479
22.360476
22.360473
22.360469
22.360464
22.360459
22.360454
22.36045
22.360447
22.360443
22.36044
22.360436
22.360431
22.360427
22.360422
22.360419
22.360416
22.360412
22.360408
22.360402
22.360397
22.360395
22.360393
22.36039
22.360385
22.36038
22.360375
22.360372
22.36037
22.360367
22.360363
22.360358
22.360355
22.360352
22.360349
22.360345
22.36034
22.360337
22.360335
22.360332
22.360329
22.360326
22.360322
22.360319
22.360317
22.360314
22.360311
22.360306
22.360302
22.360301
22.360299
22.360296
22.360293
22.360288
22.360284
22.360283
22.360282
22.36028
22.360276
22.360272
22.360267
22.360265
22.360264
22.360262
22.36026
22.360256
22.360252
22.360249
22.360247
22.360245
22.360243
22.360239
22.360236
22.360233
22.36023
22.360227
22.360224
22.36022
22.360216
22.360213
22.360212
22.360209
22.360207
22.360203
22.3602
22.360197
22.360195
22.360193
22.36019
22.360186
22.360182
22.360176
22.36017
22.360162
22.360155
22.360147
22.36014
22.360134
22.360131
22.360131
22.360134
22.360142
22.360152
22.360165
22.360176
22.360184
22.360186
22.360178
22.360158
22.360123
22.360078
22.360033
22.360008
22.36006
22.360295
22.36106
22.363148
22.368199
22.36624
22.359232
22.358903
22.359848
22.359894
22.359857
22.359929
22.360014
22.360054
22.360082
22.360104
22.360116
22.36012
22.360119
22.360115
22.360108
22.3601
22.360091
22.360084
22.360076
22.36006
22.360053
22.360062
22.360068
22.360066
22.360064
22.360065
22.360065
22.360065
22.360065
22.360065
22.360063