/*--------------------------------*- C++ -*----------------------------------*\
  =========                 |
  \\      /  F ield         | OpenFOAM: The Open Source CFD Toolbox
   \\    /   O peration     | Website:  https://openfoam.org
    \\  /    A nd           | Version:  7
     \\/     M anipulation  |
\*---------------------------------------------------------------------------*/
FoamFile
{
    version     2.0;
    format      ascii;
    class       volScalarField;
    location    "0.0008";
    object      Uy;
}
// * * * * * * * * * * * * * * * * * * * * * * * * * * * * * * * * * * * * * //

dimensions      [0 1 -1 0 0 0 0];

internalField   nonuniform List<scalar> 
5000
(
1.2303464e-16
1.3804056e-16
0
0
-7.2497479e-17
8.2535252e-32
7.2696016e-17
0
0
-7.2829414e-17
-1.4569313e-16
7.2852719e-17
7.2852588e-17
-7.2847154e-17
0
-7.2827757e-17
-5.4642668e-48
7.2800275e-17
0
7.2770239e-17
-7.2754356e-17
-7.2739974e-17
1.4544808e-16
-7.2709617e-17
-7.2693652e-17
-5.9904332e-31
7.2663154e-17
7.2648634e-17
-1.4526511e-16
1.2589959e-30
-1.2690337e-30
7.2587266e-17
1.4514212e-16
-1.451127e-16
1.2576441e-30
-6.3075484e-30
-2.5142039e-30
1.4498756e-16
-1.4495427e-16
-1.449238e-16
1.4488989e-16
-4.9817279e-30
-1.4482379e-16
7.2395688e-17
2.1713259e-16
-7.2360438e-17
-7.2341228e-17
-4.9538511e-30
-1.4460444e-16
0
7.2259701e-17
1.0265596e-32
-7.2213084e-17
1.4437779e-16
-2.5226919e-30
-1.4427164e-16
7.2107195e-17
-2.4890739e-30
-7.2049667e-17
0
7.1991728e-17
2.4544149e-30
2.0445499e-32
7.191096e-17
-7.1886348e-17
2.5123055e-30
7.1845262e-17
-7.1829132e-17
-7.1815488e-17
7.1805662e-17
7.1798711e-17
-7.1795544e-17
-7.179501e-17
1.4359568e-16
7.180342e-17
-7.1811795e-17
0
7.1835524e-17
-1.0210522e-32
-7.1866128e-17
7.1883007e-17
-2.0435325e-32
2.0440308e-32
7.1935248e-17
7.1952005e-17
2.5056779e-30
-7.1982747e-17
0
-7.2008337e-17
-7.4711771e-30
-2.5179922e-30
7.2034713e-17
7.2040071e-17
-1.440874e-16
-4.9860446e-30
7.204558e-17
0
0
-7.2036888e-17
-4.9953028e-30
1.4404953e-16
-7.201711e-17
-1.4401706e-16
0
7.1988978e-17
7.1978182e-17
-7.1966815e-17
-7.1954949e-17
0
0
7.1916988e-17
7.1903725e-17
0
-7.1876541e-17
2.5122264e-30
7.18487e-17
-7.1834599e-17
2.0412587e-32
-2.5102494e-30
-4.0834925e-49
1.4355485e-16
-3.059441e-32
-7.1748559e-17
0
-7.1719599e-17
7.1705099e-17
7.1690591e-17
-1.4335216e-16
-7.1661568e-17
1.4329412e-16
7.1632554e-17
-7.1618057e-17
-7.1603571e-17
-7.1589097e-17
0
7.1560197e-17
7.1545776e-17
-7.153138e-17
-2.4798156e-30
7.1502674e-17
-7.1488373e-17
-7.1474111e-17
0
7.1445728e-17
7.1431618e-17
-7.1417571e-17
7.1403592e-17
-4.058034e-32
-7.1375867e-17
7.1362134e-17
-7.1348497e-17
4.9672807e-30
7.1321532e-17
-7.1308216e-17
7.1295016e-17
7.1281934e-17
-7.1268973e-17
0
0
-7.1230793e-17
-7.1218282e-17
7.1205862e-17
7.119352e-17
-7.1181236e-17
-4.9354961e-30
7.115675e-17
-7.1144491e-17
-7.1132177e-17
0
7.1107222e-17
7.1094492e-17
0
-7.1068274e-17
-7.1054677e-17
0
7.1026213e-17
1.4773667e-29
-7.0995658e-17
7.0979447e-17
7.0962538e-17
-7.0944875e-17
-4.8985151e-30
4.8770284e-30
3.0220906e-32
7.0865797e-17
-7.084375e-17
-9.8226927e-30
4.869442e-30
-4.8677296e-30
7.0746078e-17
0
0
-7.0663384e-17
-7.0634259e-17
0
0
7.0543263e-17
1.2370163e-48
-7.0480579e-17
0
7.0417367e-17
-7.0385888e-17
-1.9496101e-29
1.4064773e-16
-7.0293601e-17
-1.4588256e-29
-9.9810291e-33
-7.0207426e-17
7.0180674e-17
-9.9696407e-33
-9.7070708e-30
4.8519523e-30
-7.008657e-17
0
7.0048516e-17
4.8466928e-30
1.9432413e-29
7.0004017e-17
0
-6.9983005e-17
-6.9975083e-17
0
0
0
6.9959744e-17
4.8416877e-30
-6.9960809e-17
0
0
6.9971387e-17
6.9977012e-17
-6.9983506e-17
-6.9990756e-17
0
7.0007067e-17
7.0015901e-17
-7.0025038e-17
-7.0034372e-17
0
7.0053215e-17
-1.945497e-29
-4.8593971e-30
7.0080504e-17
-7.0089003e-17
-7.0097082e-17
0
7.0111734e-17
-9.745179e-30
7.0124038e-17
9.7267769e-30
-1.4026737e-16
7.0137439e-17
-9.7283372e-30
-2.4351535e-29
-4.8544598e-30
-7.014484e-17
7.0144722e-17
7.0143864e-17
0
-7.0139973e-17
-7.0136973e-17
0
7.0128965e-17
7.0124003e-17
-1.4023687e-16
-7.0112288e-17
7.0105588e-17
7.0098363e-17
1.9442855e-29
-7.0082449e-17
7.0073814e-17
-4.8589192e-30
-7.0055322e-17
7.0045518e-17
-4.8668339e-30
4.8760583e-30
-1.9899224e-32
-4.8347504e-30
6.9991884e-17
0
0
-6.9956787e-17
-6.9944716e-17
0
0
0
0
6.988225e-17
4.8155855e-30
-1.3971302e-16
2.9776085e-32
6.9830466e-17
6.9817349e-17
-9.6916157e-30
-9.6699448e-30
-9.9160079e-33
-6.9764408e-17
-6.9751082e-17
-6.9737729e-17
1.3944871e-16
2.0913287e-16
-6.9697544e-17
-1.3936824e-16
0
6.9657235e-17
6.9643781e-17
-6.9630323e-17
1.9786302e-32
-2.9673712e-32
1.9778647e-32
6.9576463e-17
6.9562998e-17
-6.9549534e-17
-1.3907215e-16
6.9522615e-17
3.8452914e-49
6.9495709e-17
1.9254346e-29
-1.3893764e-16
0
0
1.3885706e-16
-3.8550391e-29
-1.388034e-16
0
6.9374892e-17
6.9361499e-17
-6.9348111e-17
9.8530579e-33
-9.6245807e-30
9.8492578e-33
6.929463e-17
-6.9281277e-17
-6.9267931e-17
0
6.9241259e-17
-9.6116098e-30
-6.9214615e-17
1.3840261e-16
-1.9192466e-29
-6.9174702e-17
-1.9204748e-29
-1.3829626e-16
1.382697e-16
6.9121583e-17
-6.9108321e-17
-9.8189995e-33
-6.9081818e-17
0
0
6.9042116e-17
-9.5741659e-30
-1.3803137e-16
9.8058418e-33
2.0696784e-16
-6.8976087e-17
-6.8962902e-17
1.3789945e-16
-6.8936553e-17
6.8923389e-17
1.3782046e-16
-6.8897082e-17
-6.8883939e-17
-6.8870803e-17
6.8857674e-17
7.4774848e-49
-6.8831437e-17
6.8818329e-17
-6.8805228e-17
6.8792133e-17
1.9059476e-29
1.9544463e-32
6.8752892e-17
-1.3747965e-16
6.8726765e-17
1.9080431e-29
-1.9057282e-29
-6.8687627e-17
-1.3734919e-16
2.0598471e-16
1.9042825e-29
-3.8078432e-29
1.9016105e-29
-1.3721907e-16
1.3719309e-16
-1.9024797e-29
-1.3714117e-16
0
0
6.8531691e-17
-9.5034083e-30
-6.8505797e-17
-6.849286e-17
6.847993e-17
2.0540102e-16
-6.8454091e-17
-6.8441181e-17
-1.9448486e-32
-6.8415382e-17
0
1.3677922e-16
1.3675347e-16
-6.8363865e-17
-1.36702e-16
-6.8338147e-17
1.3665059e-16
1.3662491e-16
-1.3659924e-16
-1.3657358e-16
0
1.3652231e-16
-6.8248344e-17
-1.3647108e-16
6.8222746e-17
6.8209957e-17
-9.6914015e-33
9.4667255e-30
6.8171631e-17
-6.8158869e-17
-6.8146113e-17
6.8133364e-17
-9.44819e-30
-9.6787127e-33
-9.4446581e-30
-6.8082434e-17
6.8069718e-17
-2.8347116e-29
-9.4472749e-30
-1.8881356e-29
-6.801892e-17
6.8006237e-17
-9.4402294e-30
-1.8847959e-29
-9.658866e-33
-1.3591114e-16
-6.794292e-17
6.7930276e-17
1.3583528e-16
-9.4279348e-30
-1.3578477e-16
-6.7879767e-17
1.3573431e-16
6.7854551e-17
-6.7841953e-17
-6.7829361e-17
-1.8821732e-29
6.7804197e-17
0
0
6.77665e-17
0
-6.77414e-17
6.772886e-17
9.6230688e-33
-1.8790377e-29
0
-6.7678764e-17
6.7666256e-17
6.7653755e-17
-1.3528252e-16
-6.7628771e-17
6.7616289e-17
0
0
-6.757888e-17
1.8771453e-29
6.7553972e-17
0
0
-6.7516658e-17
2.8126466e-29
6.7491814e-17
0
0
0
0
0
0
0
0
1.3476065e-16
3.7394343e-29
-6.7355621e-17
6.7343277e-17
-6.733094e-17
6.7318608e-17
-1.8708745e-29
-6.7293965e-17
-1.8682776e-29
-6.7269346e-17
0
0
6.7232465e-17
1.8665707e-29
-6.7207909e-17
0
0
0
0
0
0
0
1.3421987e-16
-5.5856959e-29
-1.34171e-16
6.7073294e-17
9.5299546e-33
6.70489e-17
-3.7172363e-29
-1.3404906e-16
-6.7012355e-17
-3.4272441e-49
2.0096407e-16
0
-1.3392743e-16
0
0
1.338546e-16
-1.8561994e-29
-2.0070916e-16
6.6890941e-17
6.6878834e-17
-6.6866733e-17
6.6854638e-17
-6.684255e-17
-1.8538497e-29
6.6818391e-17
-6.6806321e-17
0
-6.6782198e-17
6.6770146e-17
1.335162e-16
-6.6746061e-17
-6.6734027e-17
-6.6721999e-17
-6.6709977e-17
1.3339592e-16
6.6685951e-17
-6.6673946e-17
0
6.6649955e-17
-6.6637968e-17
-6.6625987e-17
1.9984203e-16
1.8929439e-32
-1.3318015e-16
6.6578118e-17
9.2420497e-30
6.6554217e-17
-1.8912452e-32
-1.3306068e-16
6.6518406e-17
0
-1.8464216e-29
-9.4477517e-33
-6.6470731e-17
6.6458826e-17
-1.8450989e-29
-9.2144019e-30
-9.4392958e-33
-6.6411254e-17
6.6399373e-17
3.3338569e-49
-1.8431191e-29
-9.4308578e-33
-1.327038e-16
-9.201228e-30
6.6328197e-17
0
0
-6.6292678e-17
-2.7579052e-29
6.6269025e-17
-6.6257207e-17
9.1975139e-30
1.3249943e-48
-9.1942363e-30
6.6209993e-17
6.6198205e-17
9.1799208e-30
-6.6174649e-17
0
0
6.6139369e-17
-6.6127624e-17
5.5039617e-29
6.610416e-17
-6.6092442e-17
0
6.6069033e-17
6.6057344e-17
-6.6045666e-17
-6.6033999e-17
0
6.6010701e-17
6.5999072e-17
-1.3197491e-16
-6.5975854e-17
6.5964267e-17
6.5952695e-17
9.1459004e-30
6.5929601e-17
1.8304139e-29
-1.3181316e-16
0
0
0
6.5860769e-17
6.584937e-17
0
-6.5826644e-17
-9.1190962e-30
6.5804017e-17
0
0
-6.577028e-17
-9.1206508e-30
9.1097598e-30
-6.5736808e-17
6.5725713e-17
-2.7343461e-29
-6.5703623e-17
0
-6.5681671e-17
-9.1177302e-30
6.5659865e-17
-6.5649018e-17
6.5638209e-17
6.562744e-17
-6.5616711e-17
0
6.5595376e-17
6.5584771e-17
-6.5574209e-17
-6.556369e-17
0
-6.5542784e-17
6.5532398e-17
6.5522057e-17
-6.5511762e-17
-1.3100302e-16
3.6371266e-29
1.9644346e-16
2.5466081e-49
-6.5460978e-17
-1.3090192e-16
3.6306124e-29
1.3086214e-16
-6.5421195e-17
6.5411368e-17
-6.5401587e-17
-6.5391853e-17
1.3076433e-16
0
0
-1.3070677e-16
-1.8111988e-48
1.3066885e-16
0
0
-1.3061264e-16
-1.7288125e-48
1.305756e-16
0
0
-1.3052068e-16
-6.5251271e-17
1.3048448e-16
6.5233247e-17
0
-1.3043075e-16
3.6213094e-29
1.3039531e-16
-6.5188848e-17
0
6.5171337e-17
-6.5162631e-17
9.2589342e-33
6.5145316e-17
-6.5136704e-17
6.5128123e-17
6.5119571e-17
-6.5111047e-17
-6.5102551e-17
1.8075331e-29
6.5085638e-17
-6.5077219e-17
-1.8068318e-29
6.5060455e-17
-6.5052108e-17
6.5043784e-17
6.5035481e-17
-6.5027199e-17
-6.5018938e-17
1.8052177e-29
6.5002474e-17
-6.499427e-17
9.2350781e-33
6.4977917e-17
-6.4969766e-17
6.4961632e-17
6.4953514e-17
-6.4945412e-17
-1.2987465e-16
3.6077577e-29
1.2984239e-16
-6.4913154e-17
9.2235731e-33
1.2979422e-16
1.8442594e-32
-6.4881122e-17
0
6.4865185e-17
0
-6.48493e-17
0
0
0
-6.4817678e-17
-1.5283862e-49
6.480194e-17
0
6.478625e-17
-1.7987679e-29
-6.4770608e-17
0
0
0
-6.4739466e-17
1.7974708e-29
6.4723966e-17
0
6.4708512e-17
1.7956931e-29
-6.4693104e-17
0
6.4677742e-17
-6.4670078e-17
3.5929315e-29
6.4654782e-17
-6.4647151e-17
0
-6.4631919e-17
-1.7944887e-29
6.4616727e-17
0
6.4601574e-17
-6.459401e-17
-3.5868747e-29
6.4578908e-17
-3.5851192e-29
-9.1750729e-33
1.7935177e-29
-9.1729348e-33
-6.4541276e-17
0
6.4526261e-17
-1.7906407e-29
-1.7904326e-29
1.3723279e-49
-1.790933e-29
0
-1.2896255e-16
-1.7903086e-29
6.4466281e-17
-6.4458779e-17
1.7887677e-29
6.4443762e-17
6.4436245e-17
1.7890574e-29
-1.7888482e-29
6.4413646e-17
-6.4406094e-17
-6.4398531e-17
0
-6.4383365e-17
1.7875867e-29
6.4368138e-17
0
0
0
-1.2867493e-16
7.1452361e-29
1.28644e-16
0
0
0
0
0
0
0
-1.285181e-16
3.5700731e-29
1.2848598e-16
6.4234908e-17
-6.4226786e-17
-6.4218625e-17
1.7839082e-29
3.5618842e-29
6.4193898e-17
-6.4185571e-17
6.41772e-17
6.4168784e-17
-6.4160322e-17
-6.4151814e-17
3.5604382e-29
6.4134654e-17
6.4126001e-17
-1.7785874e-29
-6.4108544e-17
-6.409974e-17
6.4090884e-17
6.4081976e-17
-6.4073015e-17
6.4064001e-17
0
-6.4045811e-17
-6.4036634e-17
1.7760938e-29
6.4018116e-17
-6.4008774e-17
6.3999376e-17
6.3989921e-17
-6.3980411e-17
6.3970843e-17
1.7760758e-29
-6.3951538e-17
-6.39418e-17
-9.0852843e-33
1.278443e-16
3.5485233e-29
-6.3902273e-17
-6.3892246e-17
0
6.3872019e-17
0
0
0
6.3830861e-17
6.3820423e-17
-6.3809925e-17
-6.3799367e-17
0
6.3778068e-17
-1.7715979e-29
-6.3756522e-17
0
0
6.3723724e-17
-3.5365368e-29
-6.370153e-17
0
0
6.366772e-17
-3.5334087e-29
-6.3644817e-17
0
6.3621606e-17
-1.7663198e-29
1.765088e-29
-1.7656614e-29
-6.357418e-17
0
-6.3549919e-17
3.5259189e-29
6.3525255e-17
0
6.3500153e-17
-6.3487426e-17
-6.3474575e-17
1.2692319e-16
1.7636412e-29
-1.2687043e-16
1.7610973e-29
6.3408238e-17
0
0
6.3366511e-17
-1.7582651e-29
-6.3337749e-17
0
6.3308137e-17
-6.3292984e-17
-6.3277583e-17
6.3261921e-17
0
-6.3229758e-17
6.3213227e-17
3.5078789e-29
-3.5069247e-29
6.3161634e-17
-5.2583309e-29
6.3125391e-17
-6.3106655e-17
1.7509173e-29
-3.5025371e-29
-1.2609544e-16
1.7483455e-29
6.3005914e-17
0
0
0
-1.2583042e-16
-6.289086e-17
1.2573156e-16
6.2839935e-17
0
0
6.2757412e-17
1.2234498e-48
-6.2697814e-17
0
-1.2526824e-16
-6.2600612e-17
1.2513185e-16
6.2530002e-17
0
-1.2490843e-16
-1.773919e-32
1.8711827e-16
-1.7290012e-29
-1.2457018e-16
6.223875e-17
3.5351285e-32
-6.2140673e-17
1.7249641e-29
3.4416428e-29
6.1978833e-17
0
6.1860093e-17
-3.4310915e-29
-1.2346357e-16
6.1663783e-17
-1.0254901e-28
-6.1519554e-17
1.2288619e-16
-8.72029e-33
-6.1280899e-17
0
0
0
-6.0915788e-17
6.0815234e-17
1.2142136e-16
-6.060198e-17
-1.6796584e-29
-1.6746805e-29
-6.0249395e-17
0
5.9990619e-17
-8.5057075e-33
-1.1942248e-16
5.9563369e-17
3.2960061e-29
-5.9250304e-17
-5.9084715e-17
3.2734579e-29
1.1746881e-16
0
5.8357171e-17
5.8157911e-17
0
-5.7736971e-17
-5.7514827e-17
5.7284582e-17
0
-5.6798816e-17
0
0
5.6003209e-17
-4.6400437e-29
-5.5425151e-17
0
0
5.4481244e-17
5.4145026e-17
-5.3797552e-17
-5.3438538e-17
5.30677e-17
5.2684751e-17
-1.045788e-16
-5.1881358e-17
1.4296823e-29
5.1026031e-17
-2.8060346e-29
-2.7804178e-29
4.9640523e-17
-4.915017e-17
4.8645068e-17
-4.8124922e-17
-4.0577197e-32
4.7038329e-17
-9.2942599e-17
-4.5888063e-17
-4.5288333e-17
8.9343654e-17
8.8076526e-17
-4.3387365e-17
4.2718859e-17
-4.2032475e-17
2.2951898e-29
8.1210042e-17
-3.9863436e-17
1.0852552e-29
-1.0647064e-29
-3.7524273e-17
0
0
3.5008601e-17
3.4129798e-17
0
-3.2310616e-17
-3.1369866e-17
0
-2.9425188e-17
7.8919311e-30
2.7395243e-17
-2.634795e-17
7.0122757e-30
2.4188125e-17
0
2.1940655e-17
1.153957e-29
-1.960492e-17
1.8403814e-17
-4.7633591e-30
-1.5934964e-17
-1.4667194e-17
-3.7126815e-30
1.2065007e-17
0
-9.3741805e-18
7.995665e-18
-1.8744642e-33
2.8728036e-30
3.7288364e-18
-2.2564888e-18
0
1.474937e-18
-5.0366266e-30
-3.8193222e-18
-2.9923456e-30
-1.3967081e-17
1.7192457e-17
2.0458363e-17
-2.3764057e-17
-2.7108952e-17
-1.5246285e-17
0
1.8686715e-17
4.0869418e-17
-3.1549199e-33
2.3984562e-17
-2.5785706e-17
-2.7603829e-17
2.9438544e-17
-6.2578897e-17
6.6312261e-17
5.8356491e-29
-7.3870238e-17
7.769309e-17
-2.2631552e-29
4.2710984e-17
-4.4663058e-17
-4.6627727e-17
4.8604495e-17
1.4034252e-29
1.0518464e-16
-1.0920471e-16
-1.1324489e-16
1.1730411e-16
1.6843963e-29
6.2737702e-17
-3.5983258e-29
-6.6854941e-17
-1.9129036e-29
3.992157e-46
-7.3080332e-17
-1.5033284e-16
7.7257047e-17
-9.054962e-46
8.1449612e-17
1.3917797e-28
-8.5653441e-17
1.7551629e-16
-4.9881311e-29
-1.8394048e-16
1.0093996e-46
9.6182102e-17
0
0
1.0248945e-16
-1.0458684e-16
-2.1336151e-16
0
0
0
1.1501062e-16
1.1707889e-16
0
-1.2119457e-16
1.2324092e-16
2.0865355e-28
-2.5461604e-16
0
0
0
1.3532537e-16
1.3730243e-16
-1.3926759e-16
1.4122037e-16
7.9505534e-29
-2.9017382e-16
0
0
3.0156454e-16
-4.3386044e-32
-1.5450433e-16
1.5634162e-16
-1.5816252e-16
1.5996662e-16
-8.983146e-29
-3.2704558e-16
0
0
1.6872103e-16
1.704157e-16
0
0
-1.7538085e-16
-1.7699553e-16
0
1.8016173e-16
1.8171264e-16
-1.8324169e-16
1.8474864e-16
1.8623322e-16
-1.876951e-16
-1.8913398e-16
1.0582363e-28
1.9194152e-16
-1.9330962e-16
-5.4023768e-29
1.9597302e-16
0
1.9853816e-16
-1.1092318e-28
-2.0100238e-16
2.0219621e-16
-1.1291149e-28
-2.0450613e-16
0
2.0671082e-16
-5.7694471e-29
-2.9673479e-32
2.0981677e-16
-2.1079763e-16
-2.1175093e-16
0
4.271481e-16
-2.3818676e-28
-2.1528461e-16
-3.0709263e-32
-4.3376234e-16
4.3527251e-16
4.3672462e-16
-4.3811836e-16
-2.1972673e-16
0
4.4194287e-16
-3.6886564e-28
-4.4420053e-16
0
4.4621434e-16
1.2415779e-28
-2.2398978e-16
-6.230761e-29
-4.4950268e-16
4.501706e-16
5.6295199e-28
-4.5131944e-16
4.5179952e-16
-1.2547505e-28
-4.5256948e-16
-2.2642985e-16
4.5308619e-16
2.2662389e-16
-4.5334425e-16
4.5337557e-16
5.6615534e-28
-4.5324146e-16
4.5307578e-16
-6.2872939e-29
2.2627382e-16
-2.5086898e-28
-6.7763725e-16
1.252427e-28
4.5070087e-16
-2.2503587e-16
-4.4937596e-16
2.2430655e-16
-1.243087e-28
2.2344355e-16
2.4764833e-28
-2.2244597e-16
4.4379134e-16
-1.8429856e-28
2.4503517e-28
-1.220777e-28
-2.1935666e-16
0
-2.1788297e-16
-2.1709509e-16
0
0
0
0
0
2.1165282e-16
2.1062679e-16
0
-2.0847328e-16
2.0734585e-16
3.4346185e-28
-4.0998034e-16
0
0
0
1.998787e-16
1.9851828e-16
-1.9712517e-16
-1.9569955e-16
3.8848328e-16
3.2113978e-28
-3.824596e-16
0
3.7618317e-16
3.1063064e-28
-1.8482918e-16
1.8315216e-16
-1.8144503e-16
1.7970815e-16
9.8771265e-29
-3.5229322e-16
0
0
1.7059096e-16
1.6868395e-16
0
1.647901e-16
4.6271767e-32
1.6079332e-16
-1.587577e-16
-4.7009416e-16
0
-3.0501825e-16
-3.0076225e-16
0
4.3818436e-16
2.8774239e-16
-2.8332329e-16
1.3943355e-16
1.371877e-16
-4.0477473e-16
-1.3264599e-16
-1.8524104e-32
-1.2804318e-16
1.2572104e-16
1.2338628e-16
1.2103981e-16
1.1452283e-46
1.1631555e-16
1.1393968e-16
-1.1155598e-16
0
-2.135382e-16
-2.0873595e-16
0
9.9555591e-17
1.9429293e-16
5.2572666e-29
9.232773e-17
1.7984062e-16
-1.7503132e-16
-1.7022977e-16
-8.2719093e-17
-8.0329407e-17
0
7.5572812e-17
2.1962442e-16
-7.0854029e-17
-1.217729e-44
1.9854583e-16
-1.2773233e-16
-6.1565358e-17
-5.9280593e-17
-1.1402588e-16
1.0952691e-16
5.2533177e-17
-5.0323133e-17
-4.8134333e-17
-4.5967757e-17
1.3147315e-16
4.1705157e-17
-1.18833e-16
-3.7542821e-17
3.5501485e-17
6.6975692e-17
-3.1502728e-17
2.9546913e-17
-4.5987696e-29
4.2847343e-29
7.1588331e-17
-2.2031491e-17
-2.0232986e-17
-3.6935725e-17
-1.6736672e-17
3.0079863e-17
3.8022896e-33
1.1751654e-17
-1.0160935e-17
-2.5818885e-17
2.1264048e-17
5.6063221e-18
-1.2484067e-17
0
4.1472525e-18
5.680473e-20
3.6823735e-18
-2.4866188e-18
-7.4174306e-18
-2.7127491e-30
6.693043e-30
7.1352521e-18
0
1.8463479e-17
2.0449527e-17
-1.1180328e-17
-1.2098834e-17
-2.5962576e-17
1.3827328e-17
1.4637225e-17
-3.0824359e-17
0
3.3712878e-17
3.5054931e-17
-1.8164501e-17
-3.7535892e-17
1.0734753e-29
1.9878245e-17
-4.0770271e-17
2.0861393e-17
-7.0963065e-29
-4.3445714e-17
2.2109286e-17
0
4.5594582e-17
0
-5.1907491e-29
-2.3625606e-17
-4.7699414e-17
7.2147726e-17
-6.8852294e-33
-4.8755361e-17
0
4.9229496e-17
2.4701473e-17
-4.9534499e-17
2.7549518e-29
2.4839456e-17
-4.9695534e-17
2.4837825e-17
-4.1307861e-29
-4.9533172e-17
2.4707121e-17
-2.4632109e-17
4.9084209e-17
7.331455e-17
0
-7.2573677e-17
-4.8097372e-17
7.1683316e-17
4.7458902e-17
-2.3554053e-17
-4.67368e-17
2.3173102e-17
2.2969027e-17
-4.551365e-17
2.253671e-17
4.4617841e-17
-2.2074097e-17
3.1026531e-33
-4.3172077e-17
-4.2666912e-17
6.3226566e-17
-2.0812791e-17
-3.4219378e-29
6.0825421e-17
0
-5.9169314e-17
-3.8884967e-17
1.9159425e-17
1.8874341e-17
1.8587402e-17
0
1.8008739e-17
-9.8347184e-30
-3.4852475e-17
9.508401e-30
1.684206e-17
0
1.6257751e-17
-3.1932527e-17
-4.7026698e-17
3.0771586e-17
4.5291043e-17
1.4809459e-17
-1.4523386e-17
-2.8477957e-17
1.3956406e-17
-1.3675756e-17
-1.3397099e-17
2.6241244e-17
-2.5692979e-17
-1.2574834e-17
3.6917332e-17
2.4078731e-17
-1.1775651e-17
-3.4544256e-17
2.4993482e-29
-2.442739e-29
-1.0749948e-17
-1.1657921e-29
-1.0255555e-17
1.0013109e-17
9.7739313e-18
9.5380504e-18
-9.3055164e-18
-9.0763512e-18
2.6551596e-17
-8.6280773e-18
-1.6818105e-17
2.4580426e-17
2.2684383e-33
-7.7727251e-18
1.5135137e-17
7.365891e-18
0
-6.9730938e-18
-6.782014e-18
-1.3189001e-17
6.4105705e-18
-2.0749429e-29
-1.8160268e-17
5.8802397e-18
5.7106665e-18
5.5447017e-18
-5.3823374e-18
-5.2235609e-18
1.5205035e-17
-4.9166803e-18
-9.5370922e-18
-7.701176e-30
-4.4827386e-18
8.689982e-18
1.2631845e-17
2.2638836e-30
-2.1935343e-30
-5.438799e-34
-3.7058163e-18
-7.1750567e-18
-3.4722882e-18
1.0080097e-17
-3.608766e-30
-6.2884551e-18
0
0
2.8414549e-18
-1.5241729e-30
1.4721787e-30
2.5624239e-18
-4.9488673e-18
-2.3888746e-18
-2.5590101e-30
2.2248342e-18
6.438782e-18
2.0699263e-18
0
0
0
-5.3582646e-18
-3.4405986e-18
4.9694942e-18
-1.7707556e-30
-3.0694246e-18
0
0
2.7318933e-18
-2.9157605e-30
-1.4008767e-30
2.4256801e-18
-1.1651243e-18
-2.2381078e-18
-2.1492402e-18
1.0317468e-18
2.9709416e-18
9.502846e-19
0
0
0
-2.4135123e-18
-1.5423762e-18
2.2174736e-18
-1.5729728e-30
-6.7890045e-19
9.2416678e-35
-6.2274041e-19
1.1925398e-18
-6.3377465e-31
-5.4643547e-19
1.0455721e-18
0
-2.6543843e-31
-9.1418873e-19
-8.7375648e-19
1.2519302e-18
7.9682032e-19
-3.8025681e-19
-2.0136691e-31
3.4615636e-19
-9.8999009e-19
-6.2870875e-19
2.9930257e-19
2.8490588e-19
-2.7112246e-19
-2.5783315e-19
2.4499575e-19
2.3265034e-19
-1.2257238e-31
1.1626388e-31
1.9868858e-19
0
1.7836288e-19
-3.3778186e-19
-4.796409e-19
3.0252087e-19
2.8597841e-19
1.3510044e-19
-1.4167248e-31
-2.4107533e-19
1.13741e-19
-1.0725005e-19
-1.0113304e-19
1.9075612e-19
-1.7978999e-19
-8.4653182e-20
7.9687309e-20
1.5000896e-19
7.0585785e-20
-1.3287989e-19
3.471379e-32
-5.8932997e-20
-5.5487597e-20
1.5678627e-19
-4.9287136e-20
-4.6494212e-20
1.3144728e-19
-5.8677862e-36
-1.1688092e-19
-3.6772872e-20
1.0401173e-19
-3.2666066e-20
-9.2779056e-48
-4.8379988e-32
-5.4711366e-20
5.1439925e-20
4.8451063e-20
-2.2818686e-20
2.3799208e-32
4.0186844e-20
-1.8809024e-20
-5.2935117e-20
-1.651251e-20
1.5352154e-20
0
1.3244347e-20
2.4537745e-20
-1.6046668e-36
-3.1039088e-20
-9.4435138e-21
1.7153176e-20
-1.1035976e-36
-1.3969776e-20
1.2344653e-20
-8.881602e-33
-9.3876791e-21
1.2764152e-20
7.2723267e-21
0
0
-2.13459e-21
-5.5168492e-21
-1.114483e-21
1.4915835e-21
-4.6890416e-34
-1.0057854e-21
4.2514083e-22
-4.6011e-22
3.6780829e-22
5.5524856e-22
-2.4771559e-22
-2.8780236e-22
7.7548972e-22
1.4461476e-22
-2.1259781e-35
1.4872839e-34
5.9641468e-22
-8.5221333e-22
2.1398565e-21
4.5500734e-21
0
-9.3663709e-21
-6.7135771e-21
1.0108049e-20
-9.7869934e-37
-3.5292846e-21
7.0999671e-21
-3.4419679e-21
-3.41908e-21
-3.954005e-33
3.6402574e-21
7.2342853e-21
-3.6382541e-21
-7.5075086e-21
-7.7707512e-21
4.4260444e-33
4.1088797e-21
-4.2808875e-21
8.8269783e-21
1.3362215e-20
0
-1.3533548e-20
-9.0985626e-21
1.3886802e-20
-5.2346158e-33
-4.8026678e-21
4.9163565e-21
5.0526717e-21
-2.8917898e-33
-1.0829656e-20
3.2249885e-33
1.2683277e-20
-7.2689793e-33
-6.6479019e-33
-1.17081e-20
-1.7954173e-20
1.2244329e-20
-6.6556993e-33
-1.8338745e-32
5.6110185e-21
5.8560866e-21
1.1273484e-20
-1.6620205e-20
-5.4955047e-21
1.109664e-20
-1.1526997e-20
-2.9895966e-36
1.4868545e-20
5.0131993e-21
-4.7473278e-21
-1.2681667e-20
1.3913905e-32
8.361355e-21
3.1303203e-21
-4.784182e-21
-8.2602545e-21
9.8801197e-21
3.4708086e-21
3.2895307e-33
2.2899779e-21
-4.777435e-21
1.6289074e-33
-3.3108769e-21
3.3769785e-21
-1.0278351e-32
-7.9774341e-21
7.540662e-21
8.6642237e-21
0
0
0
-3.7491332e-21
-9.7973874e-21
-2.7346014e-21
-3.272563e-33
-3.5982417e-21
1.1516552e-20
3.2459709e-21
-2.3346478e-21
-2.2367762e-21
-2.6558221e-21
5.5395667e-21
-2.3500188e-21
1.4094938e-21
-2.1601381e-33
-1.2893222e-21
2.4464578e-21
1.0573567e-21
0
2.7338418e-21
1.8907575e-33
-1.5138189e-21
4.5716799e-21
2.0819563e-21
-3.0264125e-21
0
0
-2.7591134e-21
-6.048751e-21
8.6460897e-33
8.7889835e-21
3.995973e-21
-3.3405335e-21
3.0682382e-21
-3.2725305e-21
-5.4867107e-50
5.1664486e-33
-7.8789118e-21
0
0
5.0356712e-21
4.1020422e-21
1.5699201e-21
-1.4008458e-33
-3.306283e-21
1.2828474e-33
2.9059941e-21
0
-1.7143729e-21
-2.3532605e-22
1.6806137e-22
-7.6818265e-22
-1.4325317e-21
3.4920788e-21
-6.1120497e-22
1.3350571e-33
9.3742834e-22
-1.9034932e-21
-1.8308576e-21
0
0
0
5.9974042e-21
3.6997904e-21
-7.7217678e-21
-8.5222417e-21
0
8.7652941e-21
-3.9750123e-33
-3.422669e-21
7.8108908e-21
-4.2936485e-21
4.1077196e-21
3.7404945e-21
-1.0736414e-20
7.4708335e-21
8.2141455e-21
-4.3400041e-21
4.2711819e-21
-8.1681928e-21
-1.2182315e-20
0
1.2989506e-20
8.592151e-21
-4.1819247e-21
-4.0386668e-21
4.3027294e-33
-3.7747369e-21
1.2524432e-32
3.6932199e-21
1.9352859e-33
5.3088521e-50
-2.991701e-21
0
-2.9019346e-21
5.6880766e-21
7.9557367e-21
-7.1439006e-21
-6.3766236e-21
0
3.6693928e-21
3.5484543e-21
-3.3202302e-21
1.4729743e-21
1.277087e-21
-3.4769215e-21
2.2718765e-21
2.2437238e-21
-1.0544511e-21
-1.9292412e-21
-9.3973341e-22
3.0061009e-21
1.0630919e-21
1.7825252e-33
-2.1403262e-21
-6.5101585e-37
3.9034045e-21
-2.8823773e-21
-4.5615549e-21
-1.5922027e-21
5.2071954e-21
3.9000578e-21
-6.4025941e-21
4.9668926e-33
4.6109823e-21
2.4297728e-21
-1.4573695e-33
-5.5761258e-21
3.1491389e-33
-2.8157429e-21
-2.8173436e-21
8.6851056e-21
2.9956178e-21
3.3046628e-33
-5.6130359e-21
8.6037552e-33
7.1291144e-21
-4.4244379e-21
2.3117662e-33
2.1194982e-33
3.6092766e-33
1.2396283e-21
-2.3776722e-21
3.1882803e-22
-2.5657827e-34
-2.0137681e-33
-3.1258476e-21
1.5152885e-21
4.0906106e-21
-2.8805518e-33
3.1496443e-21
3.7229164e-21
-8.6283478e-21
-9.8143889e-21
6.0694789e-33
1.7900455e-20
-7.1425224e-33
-6.9129605e-21
1.4802093e-20
-7.8617001e-21
-8.2564361e-21
4.7726555e-33
-4.9046957e-33
9.0421591e-21
-1.8503624e-20
9.5582244e-21
-3.0795635e-32
-3.0339073e-32
2.9364079e-20
-1.9079681e-20
2.6320748e-36
1.9520805e-20
-9.3691237e-21
-2.7612026e-20
-9.0832259e-21
2.538137e-20
-9.5035022e-33
-8.8077221e-21
1.631207e-20
-1.5611926e-20
-3.7690419e-32
7.0796165e-21
-7.0932772e-21
6.9146104e-21
-1.3292974e-20
6.2675839e-21
1.727254e-20
0
0
-9.6000973e-21
-1.2945121e-36
8.4533904e-21
-3.8661484e-21
-1.0693279e-20
-3.3500065e-21
9.5999182e-21
8.6750843e-37
3.1750154e-33
5.3512467e-21
-7.7367838e-21
-1.2842843e-32
2.6052245e-21
-2.6312127e-21
-2.6306738e-21
2.948494e-33
2.7477441e-21
-5.7947757e-21
6.1897557e-21
-1.1085215e-32
-7.1295588e-21
1.1342853e-20
7.9787661e-21
-4.2224037e-21
-1.3459873e-20
-4.7938318e-21
5.168769e-21
0
-5.8446971e-21
6.1206564e-21
1.9214399e-20
3.7170002e-33
-1.4031259e-20
7.3418322e-21
7.6179835e-21
-1.5723508e-20
7.9113658e-21
-8.0169093e-21
-1.6860631e-20
2.4620873e-20
-2.6668088e-32
1.8121502e-32
1.6313691e-20
-1.6926137e-20
-8.4785705e-21
-8.3573442e-21
-9.8532147e-33
8.7836645e-21
-1.6766735e-20
1.7123622e-20
2.4858638e-20
0
-8.2002168e-21
4.5062868e-33
2.1897624e-36
-2.4029045e-20
-8.1152255e-21
2.27484e-20
-7.1159713e-21
-1.0598771e-48
2.0841811e-20
-6.8062743e-21
-1.9673421e-20
-6.1405379e-21
1.1539235e-20
-5.5445618e-21
5.3591419e-21
-1.6922809e-32
-9.408356e-21
1.3089134e-20
4.5584273e-33
-1.7248982e-32
7.2888292e-21
-6.752016e-21
-3.4191283e-33
2.7841323e-21
-4.975215e-21
-2.2080694e-21
0
0
3.4951549e-21
-3.3799324e-33
-7.0590456e-37
-1.1169437e-33
-8.8285334e-22
-8.178312e-22
7.3436756e-22
6.0663006e-22
-9.2426212e-22
6.8522229e-22
-2.8039383e-34
-3.0571153e-22
5.8390911e-23
-1.8145504e-34
6.1027851e-35
-1.8834863e-23
2.3788152e-23
-6.6657703e-23
3.3675438e-34
3.7052553e-22
0
-1.6674642e-22
-5.8116978e-23
1.6629629e-22
9.5439631e-23
-4.5900326e-23
-6.9447567e-35
-1.1693081e-22
0
0
3.8654056e-22
5.7283118e-22
0
-9.1623136e-22
-4.9575502e-22
5.5294744e-22
-6.5474653e-22
7.7183109e-22
0
-1.7959778e-21
0
0
1.1995444e-21
-1.4767131e-33
-1.4088818e-21
0
1.4951067e-21
8.8395373e-34
-1.7178883e-21
0
3.9060745e-21
4.056042e-21
-2.0819236e-21
-2.3780546e-33
2.2260557e-21
-4.6687504e-21
-4.9083936e-21
5.0640391e-21
7.1843814e-37
5.5692666e-33
7.1961646e-37
-5.2580688e-21
2.7759079e-21
-3.1949277e-33
2.9014895e-21
-2.8624433e-21
-8.4659253e-21
8.4673992e-21
2.8793978e-21
-2.9694849e-21
-3.3473148e-33
-2.9997424e-21
5.9132775e-21
5.8329365e-21
-5.8232647e-21
-9.8084769e-33
-2.9676524e-21
-2.9389847e-21
5.7695309e-21
-2.8366428e-21
3.1305212e-33
-1.5772015e-33
2.8451307e-21
5.6046213e-21
-5.4565352e-21
-5.3187516e-21
0
2.633537e-21
2.9602119e-33
-5.3787181e-21
-2.969495e-33
7.8193514e-21
5.0554504e-21
0
-4.9424023e-21
-5.5484804e-33
-2.5323272e-21
-2.5590518e-21
7.7564944e-21
-1.4333808e-33
-5.0814103e-21
2.477016e-21
4.8306409e-21
-2.4312125e-21
-5.0486445e-21
-2.6183327e-21
0
5.2711864e-21
-2.5944462e-21
-7.6841674e-21
2.5765104e-21
2.6445834e-21
5.432614e-21
2.7545704e-21
-5.4988837e-21
-2.7331496e-21
-2.7291669e-21
3.0439621e-33
2.7717237e-21
2.7888275e-21
5.5748053e-21
2.7803091e-21
0
0
0
-5.4667805e-21
-5.4265463e-21
5.4177578e-21
3.0050012e-33
2.9708552e-33
-2.9101108e-33
-5.7244051e-33
5.0936304e-21
0
-4.9676347e-21
-2.4190219e-21
2.3700611e-21
-2.339921e-21
-2.3034803e-21
0
0
4.104755e-21
-6.8141329e-33
-4.5414366e-33
4.0022388e-21
-3.7873307e-21
-3.5405322e-21
0
3.3910374e-21
-1.8957026e-33
-3.3680249e-21
3.2124187e-21
1.6840143e-33
-2.9108425e-21
0
2.8389923e-21
1.3896239e-21
-2.6475647e-21
1.2576581e-21
2.7523335e-33
-2.5234201e-21
2.5817785e-21
2.5589814e-21
0
0
0
-2.2502955e-21
-2.3881048e-21
2.4890502e-21
0
-2.4965366e-21
0
-1.2060466e-21
2.4056087e-21
1.2149409e-21
-1.2477916e-21
2.5998587e-21
1.3555115e-21
-2.7952242e-21
-1.4159062e-21
-1.5705292e-33
1.4166042e-21
-3.1871756e-33
8.3092775e-37
2.9803323e-21
0
-1.5660834e-21
-3.2065856e-21
-1.6195687e-21
0
0
0
-1.6497605e-21
3.3930787e-21
1.7164496e-21
-1.6956166e-21
-1.6651762e-21
1.6562263e-21
1.6722274e-21
-3.3940141e-21
0
3.3458354e-21
3.2740299e-21
0
0
-3.2423992e-21
-1.7906587e-33
-1.5863137e-21
-1.5472162e-21
1.5025386e-21
-1.4583077e-21
1.4231723e-21
2.8097839e-21
1.3990543e-21
0
-2.649544e-21
-1.3965468e-33
1.2064944e-21
-1.1897397e-21
-1.1962729e-21
-2.3949997e-21
2.3274176e-21
1.0887806e-21
-2.8625414e-37
9.5857464e-22
-1.9215704e-21
9.9107633e-22
-1.0119293e-21
-9.2890927e-50
9.395544e-22
-1.7366833e-21
1.6614287e-21
1.703424e-21
0
-9.4280501e-22
-1.8920856e-21
5.0344985e-34
8.679723e-22
8.7011075e-22
-1.8337635e-21
-1.9676479e-21
1.0361067e-21
2.1043061e-21
2.070619e-21
-1.0291163e-21
-2.1363152e-21
1.145028e-21
-1.2320018e-21
2.1552955e-33
1.3224976e-21
-2.6815086e-21
2.7565653e-21
1.6006723e-33
-8.433674e-33
3.1711119e-21
-3.2443136e-21
-7.342236e-33
1.7129085e-21
-3.6067648e-21
1.9089887e-21
-5.6224473e-37
8.8472154e-33
1.9877903e-21
-3.9917463e-21
4.5813435e-33
-1.2113203e-33
2.2938838e-21
-6.7073818e-37
-4.7486866e-21
4.7324486e-21
1.3432377e-36
-1.0580623e-32
4.8776603e-21
-5.0289895e-21
-5.6979282e-33
5.1617752e-21
-2.5648536e-21
-2.5368381e-21
-2.5192532e-21
2.5329469e-21
-2.8587483e-33
-5.1771104e-21
0
0
4.8228319e-21
6.7554489e-37
-4.7985235e-21
2.4082574e-21
-2.6368726e-33
2.3035195e-21
4.9191632e-33
-4.2809818e-21
0
-2.0663803e-21
4.0398192e-21
1.9402183e-21
-4.0853925e-33
1.7357965e-21
-3.3106722e-21
1.6055923e-21
-1.7359193e-33
-2.9986877e-21
0
0
1.1790889e-21
-6.1281895e-34
1.0578709e-21
-1.0126692e-21
-2.817775e-21
2.4786065e-21
7.0918296e-22
-1.2542688e-21
5.8483423e-22
9.2625256e-34
5.0832915e-22
-2.42897e-37
-1.0763305e-33
2.3838688e-22
-4.0289288e-22
-1.9206111e-22
0
-1.3478873e-22
5.5799028e-23
-2.2363429e-23
-5.6522619e-23
1.0129367e-34
-2.685259e-35
2.3746261e-35
1.0730797e-22
-1.1663187e-22
-2.6940369e-34
2.985695e-22
-1.4031784e-38
-5.1695966e-23
-5.9445798e-23
-8.338593e-23
1.530845e-22
9.6963891e-35
4.4869334e-23
-2.6315855e-23
1.8392113e-22