/*--------------------------------*- C++ -*----------------------------------*\
  =========                 |
  \\      /  F ield         | OpenFOAM: The Open Source CFD Toolbox
   \\    /   O peration     | Website:  https://openfoam.org
    \\  /    A nd           | Version:  7
     \\/     M anipulation  |
\*---------------------------------------------------------------------------*/
FoamFile
{
    version     2.0;
    format      ascii;
    class       volScalarField;
    location    "0.00294";
    object      Uz;
}
// * * * * * * * * * * * * * * * * * * * * * * * * * * * * * * * * * * * * * //

dimensions      [0 1 -1 0 0 0 0];

internalField   nonuniform List<scalar> 
5000
(
0
0
0
0
0
-7.7863518e-22
-1.5273333e-36
2.3145667e-21
8.4347036e-22
-1.7711031e-21
-1.8006409e-21
9.0327328e-22
-7.6919208e-36
-7.9253193e-36
1.7930624e-21
-1.7864194e-21
-1.5658309e-51
-7.7992659e-36
-8.8103874e-22
1.7553987e-21
8.7510235e-22
0
0
-8.7081138e-22
7.4492954e-36
-7.2304157e-36
-8.8054255e-22
8.8279944e-22
8.8342043e-22
-8.8165192e-22
1.5345429e-35
-7.4515196e-36
-8.7061588e-22
8.6831843e-22
8.6565017e-22
0
0
-8.6564958e-22
-8.6979568e-22
8.7414802e-22
-1.4650181e-35
-8.6658099e-22
8.5824123e-22
-1.4377069e-35
-8.4312887e-22
8.4333992e-22
-2.9287456e-35
2.9503876e-35
-2.9868059e-35
1.4831025e-35
8.6329357e-22
0
0
0
0
0
0
0
0
0
0
0
0
-8.383873e-22
-8.4412761e-22
8.4992902e-22
-1.4661511e-35
-1.6334624e-52
8.4783717e-22
0
0
-8.4132609e-22
-8.4218503e-22
0
8.4618356e-22
2.9215347e-35
-8.4495413e-22
-8.4374612e-22
8.4293585e-22
1.6857067e-21
-1.6855889e-21
4.7878235e-37
2.5244569e-21
-1.6806629e-21
-8.7320453e-35
1.678904e-21
-2.520943e-21
8.4082533e-22
8.4009827e-22
-8.3901679e-22
8.379964e-22
8.3730338e-22
2.9169775e-35
-1.6773799e-21
-5.806162e-35
-8.3840058e-22
-8.3755439e-22
-2.93765e-35
5.8269368e-35
1.6749799e-21
8.3813579e-22
-8.3805528e-22
1.1903585e-37
8.3722421e-22
0
-8.3709661e-22
-2.9152133e-35
8.3724786e-22
-8.370178e-22
-8.3678055e-22
1.673461e-21
8.3700555e-22
-2.5125717e-21
-8.3818643e-22
2.5170664e-21
-8.3991629e-22
-8.4079021e-22
-4.7850389e-37
-8.3800362e-22
2.5108891e-21
-5.8826215e-35
-1.6826598e-21
1.677579e-21
8.3630383e-22
-8.3347165e-22
8.3020182e-22
-8.277185e-22
-1.6538425e-21
8.2842118e-22
2.8761774e-35
8.4123063e-22
1.707154e-21
-8.6881629e-22
-8.8508053e-22
-8.9851003e-22
-3.1537752e-35
-3.1168957e-35
2.8407309e-35
1.4806514e-21
7.7122838e-22
-3.6256033e-22
-9.252416e-22
-1.021721e-21
-8.3573489e-22
4.8869099e-35
1.5748036e-21
-2.4689324e-37
2.5003933e-37
-2.6701823e-52
8.6806005e-22
-6.0022537e-35
1.1874289e-34
8.4183069e-22
-8.378594e-22
8.4306388e-22
2.9462663e-35
-8.5172246e-22
8.4876889e-22
-1.2017894e-37
-8.4273953e-22
0
8.4810209e-22
5.9274022e-35
-1.7211418e-21
8.5816742e-22
-2.4285422e-37
-8.5063794e-22
8.4842348e-22
-8.5210691e-22
8.5933738e-22
-3.5993715e-34
-2.3918628e-34
8.5888047e-22
-1.7116624e-21
0
-5.9424216e-35
-1.7931142e-34
8.6522822e-22
8.6465744e-22
5.9442835e-35
-8.604054e-22
8.5995311e-22
5.9393778e-35
3.6947435e-37
1.2010516e-34
-1.7310401e-21
8.627943e-22
8.6112581e-22
-5.9377783e-35
5.9796668e-35
-1.8095832e-34
6.0040784e-35
-8.6660263e-22
0
0
0
0
-8.7076e-22
1.8115149e-34
8.6533541e-22
8.6293483e-22
-8.6487053e-22
-8.7068592e-22
1.7482629e-21
6.0373407e-35
-1.8042052e-34
-8.6512483e-22
-8.6268748e-22
8.6468561e-22
0
8.7432336e-22
6.0500385e-35
-8.7158493e-22
-8.693553e-22
1.208362e-34
8.6693477e-22
-1.7365696e-21
8.7074949e-22
8.7283324e-22
-8.7280057e-22
8.7089237e-22
0
0
0
8.6648948e-22
-8.6906621e-22
-1.7409792e-21
8.6873007e-22
-6.0183299e-35
8.6343477e-22
8.6165828e-22
-1.7265275e-21
2.4594665e-37
-2.4602577e-37
8.6427959e-22
8.6146367e-22
-1.718814e-21
1.2224235e-37
-1.7953026e-34
8.6203121e-22
-4.7772549e-34
-1.1879074e-34
8.5329919e-22
-8.5316998e-22
0
-8.5928515e-22
8.5732356e-22
8.5341507e-22
-8.4880715e-22
0
-8.4558289e-22
8.4910149e-22
8.5260586e-22
-2.9620713e-34
-1.7025853e-21
-1.6982058e-21
2.5412125e-21
1.6896258e-21
0
-1.6789963e-21
-8.3796215e-22
8.3957713e-22
8.4229419e-22
8.4230969e-22
-1.676665e-21
-1.6677992e-21
8.291708e-22
1.6519077e-21
2.2978036e-34
-1.6670082e-21
8.3533054e-22
-1.1531639e-34
-8.2630104e-22
1.6430196e-21
-8.1805596e-22
1.1404981e-34
8.2306116e-22
-8.2518443e-22
8.2306572e-22
-1.6387686e-21
3.4025327e-34
1.625216e-21
-1.624717e-21
-5.6324493e-35
8.1468376e-22
0
0
8.0714991e-22
-8.0552849e-22
-1.6121522e-21
8.0660754e-22
-2.2867644e-37
8.0139005e-22
7.980303e-22
-7.9565648e-22
0
-7.9771586e-22
-7.9617303e-22
0
1.5783252e-21
7.8600268e-22
-1.5726778e-21
5.4545303e-35
-2.2410369e-37
7.85731e-22
7.8115654e-22
-7.7688894e-22
7.7526636e-22
-7.7834311e-22
4.4347341e-37
1.5563024e-21
-7.7427586e-22
-7.6867868e-22
-7.6445003e-22
-1.0611219e-34
7.6990459e-22
0
0
-7.6369783e-22
1.0522326e-34
-2.0919089e-34
-1.0499542e-34
7.6130459e-22
-7.643329e-22
1.0812679e-37
7.5507819e-22
0
0
0
0
0
0
0
-7.4947828e-22
0
7.4209044e-22
0
-7.339945e-22
-2.0411094e-34
7.4168414e-22
0
0
-7.33348e-22
-1.0076675e-34
7.2077447e-22
0
0
-7.3625754e-22
-7.3406153e-22
7.2826222e-22
7.2122716e-22
0
-7.1548781e-22
1.0256205e-37
7.2839996e-22
-7.2974177e-22
-7.2504386e-22
7.197657e-22
7.1445564e-22
0
-7.1314661e-22
-7.1918379e-22
7.2249185e-22
7.2075886e-22
0
-7.1178962e-22
-7.0779938e-22
7.0764919e-22
7.1216759e-22
0
0
0
0
0
0
0
0
-7.1041581e-22
-4.1109772e-51
7.009958e-22
0
0
0
-7.0803821e-22
-9.8187958e-35
7.044818e-22
-6.9974143e-22
9.6588846e-35
-9.8810845e-38
-9.7205185e-35
7.0391893e-22
-7.0392509e-22
7.0130657e-22
-3.8724257e-34
-6.93391e-22
6.9385695e-22
0
0
-7.0067343e-22
-9.6848839e-35
6.9240318e-22
-6.8868099e-22
-6.9047542e-22
0
7.0047711e-22
6.9864341e-22
-6.948248e-22
-1.9120243e-34
-8.3208006e-52
-9.5422815e-35
6.9462834e-22
-6.9879006e-22
-4.2356037e-51
-9.6311197e-35
-6.880059e-22
0
0
6.9267104e-22
9.9055245e-38
-2.8974479e-34
6.9287161e-22
0
0
-6.8463839e-22
1.9156426e-34
6.9576769e-22
0
0
0
-6.8353692e-22
9.7112156e-38
6.8884977e-22
-6.9447463e-22
6.9588803e-22
-1.9260187e-34
-1.3784063e-21
6.8529074e-22
2.846662e-34
9.542356e-35
-9.6150641e-35
-6.9476411e-22
0
0
6.8717902e-22
9.5198155e-35
-1.9111057e-34
1.1334356e-53
-6.9255874e-22
6.9132748e-22
6.8860779e-22
0
-6.8745755e-22
-9.5769089e-35
6.9160331e-22
0
0
-6.8722386e-22
1.9554336e-37
-9.3818504e-54
-6.9054847e-22
6.8920524e-22
-9.4923752e-35
9.462357e-35
-1.8936274e-34
-6.882319e-22
6.9171156e-22
-1.9168424e-34
1.907906e-34
-1.890949e-34
-6.7643548e-22
6.7903915e-22
-1.9069992e-34
9.6267858e-35
0
-6.8746861e-22
6.8228097e-22
-9.4113411e-35
9.6338683e-38
-9.4925689e-35
9.5933828e-35
6.9238328e-22
-6.893014e-22
-6.8558894e-22
6.818403e-22
6.7931523e-22
0
-6.8686176e-22
-6.9004595e-22
0
6.8674021e-22
-9.4919538e-35
9.6829504e-38
9.4596793e-35
-6.8562304e-22
6.8860036e-22
9.5450834e-35
-1.9057789e-34
-6.842791e-22
-6.8292208e-22
1.3687474e-21
-9.7509968e-38
9.5202234e-35
6.8548333e-22
-6.831768e-22
9.4619911e-35
6.827864e-22
0
0
0
-6.8165033e-22
-6.7911715e-22
6.794117e-22
6.8305428e-22
0
-6.8500997e-22
-6.8221284e-22
6.7916546e-22
6.7716668e-22
0
-6.8256986e-22
-6.8357883e-22
6.8246266e-22
1.8863846e-34
-6.7701464e-22
0
0
0
0
6.7737294e-22
-1.8698053e-34
-6.7420248e-22
6.7908425e-22
9.4700643e-35
-9.4574776e-35
1.7783129e-52
6.7239093e-22
6.6911013e-22
-1.3437281e-21
-9.4215395e-35
9.4645504e-35
-6.7983033e-22
0
6.7070927e-22
6.6755795e-22
-6.7019996e-22
-1.8768906e-34
6.8005329e-22
0
0
-6.7069389e-22
9.261447e-35
6.6916627e-22
0
-6.7719755e-22
9.6100873e-38
-1.8707157e-34
-9.2939766e-35
6.6734258e-22
-6.68078e-22
9.5527452e-38
-1.8740082e-34
-6.7418515e-22
6.7199625e-22
1.8573241e-34
9.4718712e-38
-9.2617009e-35
-6.7031399e-22
6.7302637e-22
0
-3.7223188e-34
-9.2741333e-35
-2.7775407e-34
-9.493362e-38
-6.6952531e-22
6.6983363e-22
8.3724074e-53
-9.269888e-35
1.8536628e-34
-9.268528e-35
1.3341452e-21
-6.6616975e-22
-6.6404585e-22
-9.1955067e-35
9.2064337e-35
1.3293537e-21
-6.6533331e-22
-6.6422212e-22
2.8005889e-53
0
-7.9357728e-53
-6.6125174e-22
6.6319029e-22
1.4016827e-52
-9.1527223e-35
-9.3413068e-38
-6.5635287e-22
1.3170628e-21
1.835536e-34
-6.6024001e-22
9.1228327e-35
-9.0805281e-35
6.526729e-22
-6.5505917e-22
-1.5110937e-52
-2.7386469e-34
1.8201368e-34
-1.806107e-34
-1.7972451e-34
-1.3620744e-52
0
6.5557709e-22
0
0
-6.4422787e-22
-1.7819449e-34
6.4641964e-22
0
0
-1.2991142e-21
-5.3561716e-34
1.2712034e-21
-6.3151294e-22
9.0670623e-38
-8.9882792e-35
-6.528432e-22
0
0
0
-6.4103795e-22
-1.7731721e-34
6.4015124e-22
0
0
-6.4548795e-22
9.1726755e-38
6.4413903e-22
0
0
-6.3789065e-22
-1.7681982e-34
-1.7766662e-34
1.7802845e-34
6.4105387e-22
-6.4020455e-22
1.7728537e-34
-1.7700787e-34
1.7698862e-34
6.3902141e-22
0
0
-6.398262e-22
-2.1051556e-52
6.3948576e-22
0
0
-6.3856913e-22
-4.7570001e-52
6.3738213e-22
0
0
-6.3598144e-22
7.158788e-53
6.3551837e-22
0
0
-6.3629365e-22
9.0441131e-38
6.3600149e-22
-6.3510503e-22
1.7607623e-34
-1.7568286e-34
1.7524266e-34
6.3015645e-22
0
0
0
0
0
-6.3117346e-22
1.7564225e-34
6.3347064e-22
0
0
0
0
0
0
0
-6.2712312e-22
3.4910466e-34
6.2997979e-22
0
0
0
0
0
0
0
-6.2648376e-22
1.7419212e-34
6.2770875e-22
0
0
-6.2503673e-22
1.735076e-34
6.246355e-22
0
0
0
-6.2550533e-22
-1.7379147e-34
6.2560873e-22
0
0
0
0
0
0
0
-6.2550955e-22
8.8878865e-38
6.2531033e-22
0
0
0
0
0
0
0
-6.2294303e-22
-8.8494497e-38
6.2256411e-22
0
0
0
-6.216236e-22
3.4495172e-34
6.2084702e-22
0
-6.1971874e-22
-1.719943e-34
6.1846686e-22
0
0
-6.1718656e-22
-6.1694704e-22
6.1670217e-22
6.1641501e-22
0
0
0
0
6.1491863e-22
-8.7338349e-38
-1.2284925e-21
-6.1388975e-22
1.2270399e-21
1.2262737e-21
-6.1274022e-22
-6.1233006e-22
0
0
0
0
-6.1008703e-22
-1.693611e-34
6.0910703e-22
0
0
0
0
0
0
0
0
0
0
0
0
0
0
-6.0053821e-22
3.3315771e-34
5.992417e-22
0
0
5.9722638e-22
-1.6564513e-34
8.4671792e-38
-5.9509646e-22
-5.9433809e-22
-3.2954768e-34
1.6467007e-34
5.9184145e-22
0
0
0
0
0
-5.8591217e-22
3.247918e-34
5.8412797e-22
0
0
0
0
0
0
0
-5.7805893e-22
3.2044287e-34
5.7653098e-22
0
0
0
0
0
0
0
-5.7033537e-22
4.7429242e-34
5.6874538e-22
0
0
0
0
0
0
0
0
-5.6045219e-22
7.9515467e-38
5.5869271e-22
0
0
0
0
-5.5505037e-22
5.5433809e-22
5.5363656e-22
-1.1058821e-21
-1.53349e-34
5.5156607e-22
0
0
0
0
-5.4824105e-22
1.5197852e-34
1.0939124e-21
-5.4632456e-22
-5.4570113e-22
5.4508639e-22
0
0
0
-5.4274375e-22
-1.5040114e-34
5.4164619e-22
5.4111398e-22
-5.4059359e-22
-5.4008459e-22
5.3958676e-22
0
0
-5.3816124e-22
-5.3770886e-22
5.3726696e-22
5.3683606e-22
5.3641548e-22
2.9767572e-34
-5.3560318e-22
0
0
0
-5.3403279e-22
-5.3363131e-22
5.3321931e-22
5.3279635e-22
5.3236918e-22
1.4763651e-34
-5.3155591e-22
0
0
0
-5.3042143e-22
1.4715887e-34
5.3006834e-22
0
0
0
0
0
0
0
-5.2917067e-22
1.4685081e-34
1.0581635e-21
1.4690833e-34
-5.2904346e-22
0
0
-5.2907745e-22
7.519119e-38
-1.4693475e-34
1.4687003e-34
5.2922793e-22
5.2926194e-22
-1.4697261e-34
-5.2930399e-22
0
0
-5.2935268e-22
4.4085803e-34
1.4694848e-34
-7.5259998e-38
5.297648e-22
-5.2996973e-22
-5.3021299e-22
1.0609577e-21
-2.9445581e-34
-5.3103432e-22
5.3133496e-22
0
-5.3196939e-22
-1.4788604e-34
5.3265153e-22
0
-5.333787e-22
5.3375842e-22
-5.9313739e-34
-5.3454785e-22
5.3495721e-22
0
-5.3580339e-22
0
5.366825e-22
0
-5.3759095e-22
5.3805502e-22
-2.9876902e-34
-5.389995e-22
5.3947865e-22
0
-5.4044793e-22
-1.502076e-34
5.4143014e-22
0
-5.4242463e-22
5.4292782e-22
-1.544542e-37
-5.4395416e-22
5.4447723e-22
0
-5.4553967e-22
-5.4607772e-22
5.4661882e-22
5.4716232e-22
-5.4770711e-22
5.4825303e-22
5.4879885e-22
-5.4934302e-22
0
0
0
0
0
0
-5.5306276e-22
2.3799251e-53
1.1081501e-21
-5.5456964e-22
-5.5505383e-22
5.5552365e-22
0
0
-5.5685224e-22
-5.5728303e-22
5.5771738e-22
5.5815207e-22
0
-5.590082e-22
-1.554202e-34
5.5983004e-22
0
0
-5.6099647e-22
-5.6136531e-22
5.6172312e-22
5.6206962e-22
0
-5.6272647e-22
1.5634379e-34
5.6333123e-22
-5.6361234e-22
-3.1315576e-34
-8.0167675e-38
-5.6436503e-22
5.6458394e-22
5.6478634e-22
0
0
-5.652881e-22
1.5692525e-34
5.6553192e-22
0
-5.6570049e-22
-5.6575506e-22
5.6578934e-22
5.6580305e-22
0
0
0
0
0
0
-5.6536467e-22
1.5687341e-34
5.6508248e-22
0
0
0
0
0
0
-5.6354404e-22
-1.4444621e-53
5.6294388e-22
5.6261657e-22
1.5597162e-34
-5.6190694e-22
0
0
0
0
-5.598154e-22
-1.5523895e-34
5.5885305e-22
-5.5834535e-22
-5.5782037e-22
5.5727844e-22
-3.090216e-34
-4.631325e-34
-4.6248249e-34
1.5417648e-34
-3.0784978e-34
1.5366942e-34
5.5303707e-22
0
-5.5169526e-22
4.5877452e-34
-7.8202736e-38
-5.4958856e-22
5.4886306e-22
5.4812725e-22
-5.4738151e-22
1.5170959e-34
-4.5433738e-34
-3.0264361e-34
-3.0197836e-34
1.5077083e-34
-3.012555e-34
-5.4192851e-22
5.4112361e-22
5.4031423e-22
-5.3950048e-22
1.4942845e-34
-5.9710918e-34
-1.4904895e-34
1.4889633e-34
1.4851492e-34
1.4836168e-34
-5.3373712e-22
0
5.3208721e-22
-1.4744613e-34
-1.5765898e-52
5.296276e-22
0
-5.280062e-22
5.2720286e-22
5.2640498e-22
-5.2561357e-22
0
0
0
0
-5.2177907e-22
1.4460872e-34
-2.8888801e-34
5.1959966e-22
5.1889731e-22
-5.1820781e-22
0
0
0
0
-5.1497596e-22
-7.3097304e-38
5.1379382e-22
0
0
0
0
0
0
0
-5.0979032e-22
-5.0937772e-22
5.0898564e-22
5.0861428e-22
0
0
0
0
0
0
-5.066172e-22
-5.064197e-22
5.062445e-22
5.0609164e-22
0
0
0
0
0
0
-5.0565519e-22
-5.0568407e-22
5.0573627e-22
5.0581184e-22
0
0
0
0
0
0
-5.0699211e-22
2.816367e-34
5.0753896e-22
0
0
0
0
0
0
-5.1023408e-22
1.4181519e-34
5.1121583e-22
0
0
0
0
-5.1402913e-22
-7.3135984e-38
5.1528587e-22
-5.1594002e-22
3.2913677e-53
5.1729692e-22
-5.1799846e-22
2.8807337e-34
5.1944432e-22
-5.2018737e-22
-2.89237e-34
-2.8966314e-34
6.072204e-52
-2.9045918e-34
-1.4537683e-34
5.2488542e-22
-5.2570204e-22
-5.2652613e-22
1.0547137e-21
-2.9303755e-34
-1.0580729e-21
0
5.3073442e-22
-1.4761155e-34
-1.4792508e-34
-4.4395971e-34
-4.4475019e-34
-2.9682463e-34
4.4617955e-34
-2.9785205e-34
1.4935386e-34
5.3843853e-22
0
-5.401274e-22
-7.687563e-38
-4.5102893e-34
-4.5179151e-34
7.7226617e-38
3.0209544e-34
-1.5134676e-34
-5.4582846e-22
0
5.4737365e-22
-3.0425333e-34
-7.7999476e-38
5.4960316e-22
0
-5.5102358e-22
5.5171317e-22
5.5238829e-22
-5.5304833e-22
0
0
-5.5493745e-22
6.168077e-34
-3.0852959e-34
3.0908109e-34
-1.5481196e-34
5.5776746e-22
5.5828447e-22
-5.5878496e-22
0
0
0
0
-5.6103028e-22
-1.55897e-34
-6.2368944e-34
5.6216625e-22
5.6250795e-22
-5.6283124e-22
0
0
0
0
-5.6416467e-22
-5.6437761e-22
5.6457371e-22
5.6475281e-22
0
0
0
0
0
0
-5.6554585e-22
-5.6559578e-22
5.6563055e-22
5.6565047e-22
0
0
0
0
0
0
-5.6540181e-22
4.7076943e-34
1.1304323e-21
-5.6510581e-22
-1.6949539e-21
-5.648531e-22
0
1.1291197e-21
-6.2672931e-34
-1.8789806e-33
-5.6405134e-22
-1.127731e-21
1.1273445e-21
-5.6347207e-22
-5.6326528e-22
5.6305273e-22
-5.6283461e-22
7.9951906e-38
5.6238401e-22
5.6215256e-22
-5.619176e-22
-5.6167973e-22
5.6143948e-22
-5.6119751e-22
-7.9716407e-38
5.6071026e-22
0
0
0
1.1194776e-21
-5.5949995e-22
-1.1185276e-21
5.5903111e-22
-5.5880252e-22
-5.5857836e-22
1.1167188e-21
8.1085394e-53
-5.5793907e-22
5.5773898e-22
1.1150925e-21
5.5736195e-22
-1.6715593e-21
5.5701958e-22
7.9207958e-52
-1.6701451e-21
1.1131568e-21
5.5645257e-22
5.5633781e-22
1.1124698e-21
-1.1122882e-21
-5.5606578e-22
-5.5600025e-22
5.5594758e-22
5.5590828e-22
-1.6676481e-21
5.558711e-22
5.5587391e-22
-5.5589097e-22
-5.5592265e-22
-7.9008004e-38
1.6680939e-21
-5.5610861e-22
9.2604404e-34
-9.2654063e-34
-1.6693021e-21
5.5657455e-22
5.5673076e-22
1.1138057e-21
-5.5709122e-22
-1.1145923e-21
1.1150345e-21
-5.5775428e-22
5.5800738e-22
5.5827651e-22
-1.6756858e-21
5.5886325e-22
5.5918015e-22
-1.1190255e-21
-5.598615e-22
5.6022515e-22
1.6818106e-21
-5.6099783e-22
-2.2456345e-21
3.1186122e-34
1.1245525e-21
5.6273105e-22
0
1.1273581e-21
1.2524706e-33
-1.6940229e-21
5.6518854e-22
-1.2560549e-33
5.6624636e-22
5.6678863e-22
-1.1346788e-21
0
0
0
-5.6961004e-22
3.1658044e-34
1.1415524e-21
-5.7136457e-22
-1.1439105e-21
1.7176432e-21
-1.9088221e-33
-1.1474701e-21
5.7432806e-22
0
0
0
1.1533568e-21
-5.7725633e-22
-1.1556571e-21
1.7351844e-21
-1.6454869e-37
-1.1590117e-21
0
0
-5.811035e-22
3.2292274e-34
1.1642262e-21
-5.8259856e-22
-1.1661387e-21
1.750578e-21
-9.7227134e-34
-1.1687788e-21
5.8479499e-22
-5.8518184e-22
1.1710972e-21
5.8589472e-22
-1.9522115e-33
-5.8652159e-22
-1.1735989e-21
1.7611572e-21
-3.3383001e-37
-5.8748093e-22
3.2619243e-34
-5.8779752e-22
-5.8791158e-22
3.2638162e-34
1.7641347e-21
-1.6713778e-37
-1.764158e-21
1.1760217e-21
2.0408581e-52
-1.1756674e-21
5.876967e-22
-5.8752641e-22
1.1746452e-21
5.8708467e-22
-1.3030665e-33
-5.8650286e-22
-1.1723176e-21
-5.8577838e-22
-5.853612e-22
1.7547205e-21
0
-5.8388526e-22
-3.2378547e-34
3.2344903e-34
-3.2300828e-34
5.813822e-22
-6.446203e-34
5.7989752e-22
-1.9286529e-33
-1.7347634e-21
1.1547471e-21
1.7293587e-21
5.7549232e-22
-1.7234769e-21
-1.1469063e-21
1.7171232e-21
-5.7125601e-22
-1.7102954e-21
0
0
5.6639281e-22
5.6508096e-22
0
-5.6234375e-22
-5.6091897e-22
1.1189154e-21
-1.2388407e-33
-1.6692799e-21
6.1597685e-34
5.532546e-22
5.516171e-22
5.4994593e-22
-5.4824156e-22
-5.4650518e-22
5.4473706e-22
1.6288142e-21
-5.4110912e-22
-2.1570023e-21
5.3736329e-22
1.0708971e-21
5.3350713e-22
0
-5.295476e-22
0
-5.2549157e-22
5.2342982e-22
-1.1575492e-33
5.1924451e-22
-1.7222545e-33
-1.5449491e-21
5.1282656e-22
5.1065453e-22
-5.0846787e-22
-5.0626762e-22
5.0405495e-22
1.5054928e-21
-4.9959678e-22
-1.9894138e-21
8.2459755e-34
4.9284202e-22
9.8115408e-22
4.883078e-22
-9.720714e-22
-2.6852484e-34
-6.842365e-38
4.7921589e-22
-1.0589634e-33
-4.7467827e-22
1.4172481e-21
-5.2194849e-34
-9.358198e-22
0
0
-4.6121326e-22
2.5478095e-34
9.1360541e-22
-4.5461653e-22
-9.0488912e-22
-4.5028743e-22
4.973828e-34
1.3380641e-21
4.4391439e-22
-4.4182591e-22
8.7951245e-22
-2.488067e-37
-1.4511144e-33
-4.3365884e-22
-8.6332393e-22
1.2890528e-21
-4.7496354e-34
-8.5158095e-22
0
0
8.4021861e-22
-9.2866505e-34
-4.6218783e-34
-1.1784613e-37
-1.2385753e-21
-8.2221906e-22
6.8184257e-34
1.2230949e-21
4.0603954e-22
-4.0441505e-22
8.0565411e-22
4.4536656e-34
-1.3313181e-33
-3.9831745e-22
-7.9382239e-22
1.1866824e-21
-3.9427113e-22
-3.9304689e-22
3.9189335e-22
-3.9081608e-22
7.796402e-22
-4.3175016e-34
-3.8809338e-22
-5.5048854e-38
-7.7350153e-22
7.7246702e-22
-6.4237227e-34
-7.7103685e-22
3.8532298e-22
0
-3.8527149e-22
-2.1387585e-34
1.1570245e-21
-3.8608335e-22
-7.7320977e-22
-3.8722234e-22
-3.8794995e-22
3.8878419e-22
3.8969887e-22
3.9067038e-22
-3.9167721e-22
2.1798732e-34
-2.1851946e-34
3.9483672e-22
-4.3961502e-34
3.9694687e-22
-1.3254793e-33
-1.1970007e-21
7.9998853e-22
-3.5062747e-52
-4.0198782e-22
-4.4727052e-34
2.2424009e-34
1.2145516e-21
-4.0585151e-22
-1.220459e-21
0
0
4.0981931e-22
4.1089887e-22
8.2389795e-22
-4.13021e-22
-8.2840514e-22
8.3091132e-22
-4.1669198e-22
-1.2537544e-21
4.1924688e-22
4.2069897e-22
4.2215757e-22
4.2357669e-22
-8.5013533e-22
-4.2669869e-22
4.2837018e-22
1.2899763e-21
-4.3164292e-22
8.8505792e-51
-7.2467966e-34
-8.7414039e-22
8.7774568e-22
8.8151113e-22
-4.4271907e-22
-8.8936509e-22
8.9325361e-22
4.4860913e-22
-1.3519672e-21
-1.3581794e-21
4.5478955e-22
9.1372874e-22
4.5897659e-22
-2.5595553e-34
-9.2653238e-22
-4.6541829e-22
4.6758772e-22
9.3955858e-22
-6.7072877e-38
-9.4838656e-22
9.5282322e-22
-7.9718627e-34
-9.6177364e-22
4.8313752e-22
9.7078953e-22
9.7532147e-22
0
-4.9221609e-22
-1.4835089e-21
-4.9679631e-22
4.9909479e-22
0
0
0
0
-5.1063277e-22
2.8472221e-34
1.5457501e-21
-5.1755319e-22
-1.5595545e-21
-5.2214459e-22
8.7344526e-34
1.0534141e-21
5.2897409e-22
-5.3123159e-22
1.0669539e-21
5.3570899e-22
-1.7916998e-33
-5.4013379e-22
-1.0846462e-21
1.6334852e-21
-1.5536716e-37
-5.4878688e-22
7.8288373e-38
-5.5300272e-22
-5.5508057e-22
6.1851197e-34
1.6775526e-21
-1.5950462e-37
-1.6896331e-21
-1.1303955e-21
3.1466093e-34
1.1382478e-21
5.7105655e-22
-5.7296938e-22
1.1497323e-21
5.7674245e-22
-1.9268059e-33
-5.8041024e-22
-1.1644123e-21
1.7519263e-21
-6.5039218e-34
-5.8740442e-22
-5.890661e-22
-5.9069209e-22
-3.2859019e-34
3.2952939e-34
1.1906318e-21
3.3116893e-34
-1.1963647e-21
1.1990903e-21
-3.0018862e-33
-1.8063969e-21
1.2067103e-21
-6.7129142e-34
-1.2113105e-21
6.0673373e-22
6.077647e-22
1.2174949e-21
-6.0968262e-22
-1.8317116e-21
0
0
0
1.8409315e-21
1.8428772e-21
-1.8446897e-21
-1.8463662e-21
1.2319362e-21
-1.752009e-37
6.1684921e-22
-2.0559538e-33
-1.8525731e-21
1.8533337e-21
-3.0877159e-33
-1.2362027e-21
-3.4304039e-34
3.4321192e-34
1.2361505e-21
-6.1791578e-22
6.1767532e-22
-2.0564119e-33
-1.8508239e-21
1.8493312e-21
6.1585794e-22
-1.365896e-33
1.2288453e-21
-1.2271455e-21
-6.1263574e-22
-6.1161429e-22
-1.8315312e-21
6.7644524e-34
6.0806656e-22
1.8202e-21
-4.0320565e-33
-1.8115906e-21
0
6.0074568e-22
1.1982058e-21
-5.9740889e-22
5.9566662e-22
-1.9778872e-33
-1.1840964e-21
1.7705294e-21
-1.3059587e-33
-6.5123008e-34
-6.4868716e-34
-6.4643359e-34
5.8022352e-22
-1.7343431e-21
-1.7278941e-21
5.7377334e-22
1.1430801e-21
0
-5.6694261e-22
6.2660499e-34
-1.2481735e-33
6.2135481e-34
5.5719309e-22
-5.5463421e-22
-5.5202464e-22
1.6480914e-21
1.4240067e-50
-9.0584984e-34
5.4106895e-22
-5.9717513e-34
1.070545e-21
-1.0645864e-21
-1.0585199e-21
-5.2617354e-22
5.8057352e-34
5.1984269e-22
0
0
0
1.0130604e-21
-5.0306586e-22
-9.9909679e-22
1.4879365e-21
-4.9235843e-22
-1.4660669e-21
1.4549125e-21
-1.6026327e-33
-9.5478619e-22
1.4206057e-21
9.3926649e-22
0
-9.2340377e-22
-1.5241333e-33
-4.5360653e-22
-8.9900021e-22
4.453565e-22
0
8.7392059e-22
1.2298364e-37
4.7561908e-34
-4.2411098e-22
-1.2592903e-21
1.2461583e-21
-6.8472422e-34
-1.2196286e-21
1.2062374e-21
-1.9865674e-33
-7.8614449e-22
3.885297e-22
-3.8396272e-22
7.5874483e-22
3.7475883e-22
-1.6435708e-33
-3.6546529e-22
-7.2157143e-22
-3.5608524e-22
-3.5136477e-22
6.9324931e-22
3.4186478e-22
0
-3.322899e-22
1.8182057e-34
9.3035639e-52
3.1779761e-22
-8.8941092e-38
3.0805392e-22
1.1314892e-50
-8.9474892e-22
8.7997932e-22
8.6516799e-22
-5.6687822e-22
-5.5695237e-22
0
5.3702586e-22
-2.6351312e-22
-7.7550366e-22
7.6043378e-22
-4.1378603e-34
-4.8679785e-22
2.383438e-22
0
-2.2820257e-22
-2.2311697e-22
2.1802129e-22
-3.5455327e-34
4.156009e-22
1.1520775e-37
-5.9262259e-22
0
5.6172577e-22
3.6415611e-22
-5.3071429e-22
-3.4344396e-22
4.9959083e-22
1.6132878e-22
-6.244674e-22
-1.5089386e-22
2.9131787e-22
2.8082385e-22
-1.500411e-34
-1.2988574e-22
-1.2460919e-22
-1.193244e-22
1.1403134e-22
-1.2070561e-34
2.0683146e-22
-3.2668639e-34
-2.7825777e-22
0
0
1.5334599e-22
-1.5831375e-34
-6.5902056e-23
1.8149323e-22
-5.5079557e-23
-8.2656562e-35
-1.4719292e-34
-1.1621054e-22
3.3266175e-23
-1.5417049e-35
2.4749329e-35
1.679827e-23
-1.1276459e-23
8.1314561e-40
-9.8114923e-38
-5.9709164e-36
-1.1002202e-23
0
2.2226824e-23
-5.5686613e-23
-3.3473561e-23
7.8240719e-23
0
-5.0477017e-23
5.618353e-23
1.238066e-22
-2.0289841e-22
2.4439783e-34
2.6349499e-34
-8.4876277e-23
2.7195548e-22
-1.3705648e-38
-1.0225511e-22
-1.080802e-22
1.1391756e-22
1.1976552e-22
-1.256237e-22
0
1.3737381e-22
-2.8653834e-22
2.4846079e-34
1.5510619e-22
3.5762316e-34
3.7075731e-34
4.9162678e-38
3.5790887e-22
-5.5481888e-22
-5.727964e-22
0
4.0591949e-22
6.2702073e-22
3.0564466e-38
-2.2116718e-22
-2.2726208e-22
2.333526e-22
2.3943642e-22
-2.4552245e-22
0
-5.1552907e-22
-5.2787718e-22
8.1041161e-22
2.7633782e-22
-2.8252143e-22
8.2049301e-38
2.9484716e-22
6.0207487e-22
3.072823e-22
-5.2228249e-34
-1.2797136e-21
1.0866206e-33
9.977112e-22
-3.3882577e-22
-3.4505686e-22
-3.5130749e-22
3.5761597e-22
3.6399473e-22
3.7042359e-22
1.0711059e-37
-3.8327365e-22
3.8964978e-22
-1.1880394e-21
-8.0481019e-22
1.2265792e-21
-4.153819e-22
-8.4388834e-22
8.5700698e-22
-4.3502834e-22
4.4151862e-22
8.960131e-22
-1.3636118e-21
4.6114131e-22
-1.5583067e-33
-1.4235887e-21
9.624869e-22
4.8793996e-22
4.9463724e-22
1.0027584e-21
-5.0820562e-22
2.8272945e-77
-1.0441698e-21
-5.290323e-22
5.9494884e-34
5.4274539e-22
1.0991699e-21
-1.1130573e-21
5.6364325e-22
1.7127786e-21
-1.7349052e-21
-5.8565825e-22
-3.7810461e-50
-6.0005568e-22
1.8215277e-21
6.1439787e-22
-6.2182146e-22
-1.2589456e-21
6.3729596e-22
-6.4518656e-22
2.1749371e-33
1.3216463e-21
-2.0056275e-21
-7.5115165e-34
3.0382392e-33
-1.5365148e-33
1.4007196e-21
-1.417707e-21
7.1757147e-22
2.9057047e-21
-7.3528268e-22
-1.4880255e-21
0
-1.5221434e-21
1.7090318e-33
4.4269245e-37
8.7524655e-34
7.984949e-22
8.0880383e-22
-8.1897949e-22
-8.287956e-22
1.6766298e-21
-1.6957487e-21
9.5238361e-34
1.7371976e-21
-1.7599451e-21
-2.9697916e-33
1.0029212e-33
9.1482351e-22
1.8520105e-21
-9.3728984e-22
9.4908467e-22
-5.3378048e-34
-9.749062e-22
-1.97723e-21
1.0023823e-21
2.0318773e-21
-1.0292845e-21
1.0426959e-21
-1.7597342e-33
1.0712324e-21
2.413581e-33
-2.2060693e-21
-2.2393751e-21
-2.522787e-33
3.8401719e-33
-3.8953999e-33
1.1865011e-21
1.2042631e-21
1.2230203e-21
-1.2426799e-21
0
0
1.3038771e-21
-7.3524503e-34
-1.9125841e-37
-1.5187591e-33
-1.3913339e-21
0
1.440455e-21
2.931673e-21
-1.4916756e-21
-3.0362633e-21
-3.0908164e-21
-3.1472216e-21
4.8081441e-21
5.4374978e-33
-4.9903986e-21
3.3905576e-21
3.4565311e-21
0
1.7977829e-21
-3.6678753e-21
-1.8708082e-21
3.8170735e-21
1.9475162e-21
-2.2071581e-33
-6.0918671e-21
2.0747013e-21
6.3599227e-21
-6.4984097e-21
-2.2132775e-21
6.7856058e-21
-2.5668373e-33
-2.3652289e-21
-4.83997e-21
-2.7482989e-33
5.0674255e-21
-5.1852725e-21
2.6536759e-21
8.1524409e-21
0
-2.8533177e-21
-5.8480274e-21
1.6637328e-33
-3.0689028e-21
-6.2889219e-21
6.4472306e-21
6.6138313e-21
0
3.4836864e-21
3.9688694e-33
4.0724552e-33
4.1775401e-33
-1.1585448e-20
-7.9305696e-21
0
8.3715933e-21
9.5481598e-33
4.4183782e-21
1.3615693e-20
-4.6627286e-21
2.6593175e-33
-7.0021447e-37
-5.0678783e-21
-1.0425639e-20
5.3613198e-21
1.1026676e-20
-5.6697083e-21
0
-1.199994e-20
6.1748584e-21
1.9067495e-20
-6.5423512e-21
-6.7343189e-21
-1.3864397e-20
7.1366697e-21
2.2044406e-20
-7.5665341e-21
8.6487849e-33
1.604702e-20
-8.2628409e-21
-8.5106099e-21
-1.7535151e-20
-2.7101377e-20
1.8617147e-20
1.9182075e-20
-1.976187e-20
-1.129751e-32
2.0974768e-20
-2.161441e-20
-1.2366154e-32
2.296517e-20
0
-2.43993e-20
-2.5146024e-20
0
4.0067456e-20
1.3767921e-20
4.0342167e-36
1.4633828e-20
1.5086536e-20
1.7261277e-32
-3.2065676e-20
-3.305702e-20
5.6752049e-32
3.513709e-20
-3.6226579e-20
-6.2195984e-32
3.8508116e-20
0
0
0
0
-4.485631e-20
-2.5676098e-32
4.767856e-20
2.4578959e-20
-5.0682621e-20
8.7025921e-32
5.3865722e-20
-5.552722e-20
-3.1780967e-32
2.9504578e-20
-6.0833855e-20
1.0444983e-31
6.4645821e-20
-6.6632081e-20
-6.8676036e-20
7.078357e-20
7.2958919e-20
0
0
0
0
4.241632e-20
-4.3708213e-20
-4.5040211e-20
5.1526381e-32
5.5194051e-75
4.9275442e-20
1.0153746e-19
5.2302001e-20
-1.0776239e-19
-1.6652178e-19
5.7183018e-20
1.1781213e-19
-1.8202779e-19
-1.2498707e-19
1.9308638e-19
1.3257182e-19
6.8267854e-20
7.8052765e-32
-1.4480968e-19
0
7.6761575e-20
-7.9026411e-20
1.8063643e-31
2.380533e-35
2.8716387e-31
8.8774574e-20
9.1384537e-20
-2.6733124e-35
-1.9359957e-19
-1.9922775e-19
3.4137157e-31
2.1097881e-19
0
0
0
1.1825148e-19
1.216463e-19
-1.2513067e-19
-1.2871137e-19
1.3239298e-19
-2.723537e-19
-4.2018573e-19
0
2.9626167e-19
1.6905188e-31
1.5661046e-19
4.8305063e-19
-1.6554189e-19
2.8340342e-31
-3.4991803e-19
1.1980753e-30
3.6972969e-19
1.0546515e-31
2.7748822e-35
-2.0066276e-19
2.0620156e-19
-4.2377209e-19
-2.177176e-19
4.4739068e-19
-4.596372e-19
-6.7100632e-35
2.6929523e-31
2.4909706e-19
7.6754561e-19
-5.2554385e-19
6.9038666e-49
-2.7713873e-19
4.7397591e-31
5.844074e-19
-3.0000781e-19
-6.1600497e-19
3.5093421e-31
9.7376644e-19
-9.4697485e-35
-3.4199042e-19
3.5100013e-19
-7.2044051e-19
-3.6965753e-19
7.5864022e-19
-7.7843081e-19
-4.4322375e-31
2.2743779e-30
-9.3338843e-31
8.6237992e-19
-8.8458869e-19
4.5365518e-19
9.3056272e-19
-4.7718007e-19
4.8935565e-19
-1.003621e-18
8.5698478e-31
1.5827131e-18
0
0
-1.7053144e-18
-5.8268068e-19
1.1944817e-18
-1.2242485e-18
-3.5660098e-34
2.8548444e-30
7.3136802e-31
1.3501169e-18
-1.3833444e-18
-1.4172863e-18
7.2597769e-19
2.2310629e-18
7.6178717e-19
-7.8028794e-19
0
0
8.3822954e-19
-4.7645541e-31
-2.6367442e-18
-2.5576912e-34
1.8427071e-18
9.4326149e-19
-1.0717202e-30
-2.9652239e-18
-2.2460731e-30
2.0705578e-18
0
1.084083e-18
-2.2184618e-18
-1.1348871e-18
2.5782357e-30
1.1877573e-18
2.4299751e-18
-1.2427587e-18
0
0
0
0
1.3900223e-18
-7.8888366e-31
-4.3590451e-18
1.4854239e-18
4.5553564e-18
-4.6563233e-18
-1.5863991e-18
3.2426705e-18
1.6569266e-18
2.8192952e-30
-5.1903435e-18
1.0048379e-33
6.0154387e-30
1.8450441e-18
3.7695223e-18
1.9251976e-18
2.1824037e-30
-2.0082702e-18
-2.050927e-18
-2.0943438e-18
-2.1385308e-18
4.8480302e-30
4.458518e-18
0
0
2.3714189e-18
4.0294264e-30
3.2415798e-34
-3.0745181e-34
-2.2974974e-18
-4.9332425e-18
-5.107177e-18
5.2580266e-18
2.9987265e-30
2.7681544e-18
8.4899926e-18
0
0
-3.0147338e-18
-3.0900001e-18
0
3.2141182e-18
-1.8189139e-30
-3.3425344e-18
3.4117823e-18
-6.9540678e-18
1.17994e-29
1.0837802e-17
-3.6853296e-18
-3.7579768e-18
-7.6541245e-18
3.9006339e-18
1.1921569e-17
-4.0503736e-18
2.2901332e-30
-8.4005239e-18
-4.2785603e-18
8.717887e-18
-8.8803423e-18
1.2446436e-46
9.2026225e-18
0
0
-9.7058555e-18
5.4778805e-30
1.6749079e-29
1.3598593e-46
1.561851e-17
5.8811169e-30
-5.3887796e-18
-1.0960506e-17
-1.1147905e-17
1.1341268e-17
1.2806798e-29
5.8647124e-18
1.9861718e-29
-6.0621462e-18
1.2323447e-17
0
6.3672784e-18
-7.1836559e-30
-6.5771758e-18
-1.3365406e-17
-7.5357631e-30
1.3794713e-17
0
0
7.2308482e-18
-4.0760824e-30
-2.2369227e-17
-8.4048099e-30
1.5372564e-17
0
-7.9219684e-18
8.041773e-18
8.1616639e-18
8.2818676e-18
8.40317e-18
-1.7052399e-17
-2.5953274e-17
8.7769413e-18
1.7805578e-17
-2.7086517e-17
4.927589e-47
1.8569391e-17
0
0
0
0
-1.9882574e-17
-2.0152184e-17
1.0212158e-17
3.1043862e-17
1.1644117e-29
-1.0619566e-17
2.1514804e-17
2.1793647e-17
-1.1036932e-17
-4.4707051e-17
-2.2632888e-17
3.4371835e-17
2.3199751e-17
-3.5229487e-17
-2.6386815e-29
2.4056854e-17
0
0
0
-2.5217153e-17
-1.415841e-29
2.8646135e-29
-1.3047863e-17
3.9584477e-17
-1.3341159e-17
-1.3488436e-17
4.0911316e-17
2.757139e-17
-1.3933214e-17
-2.8161236e-17
-2.8458229e-17
4.789448e-29
-1.613127e-29
4.1708699e-33
2.9646185e-17
0
1.5120134e-17
1.5268272e-17
-1.5416429e-17
-1.5564383e-17
1.5711672e-17
1.5858656e-17
-3.2011758e-17
-1.6152911e-17
1.6299056e-17
-1.6444524e-17
1.6589865e-17
3.3469955e-17
0
0
-5.1498847e-17
-1.7308811e-17
3.4901414e-17
1.7591883e-17
1.7732237e-17
-3.5743543e-17
2.0004634e-29
3.6296726e-17
0
-1.8421285e-17
-5.5668793e-17
-4.1492609e-29
1.0449314e-28
-3.7909759e-17