/*--------------------------------*- C++ -*----------------------------------*\
  =========                 |
  \\      /  F ield         | OpenFOAM: The Open Source CFD Toolbox
   \\    /   O peration     | Website:  https://openfoam.org
    \\  /    A nd           | Version:  7
     \\/     M anipulation  |
\*---------------------------------------------------------------------------*/
FoamFile
{
    version     2.0;
    format      ascii;
    class       volScalarField;
    location    "0.00295";
    object      Uz;
}
// * * * * * * * * * * * * * * * * * * * * * * * * * * * * * * * * * * * * * //

dimensions      [0 1 -1 0 0 0 0];

internalField   nonuniform List<scalar> 
5000
(
0
0
0
0
0
-1.2639241e-21
-2.6774409e-36
3.7367897e-21
1.2316649e-21
-2.4318729e-21
-2.4006255e-21
1.185703e-21
-9.8610207e-36
-1.0077069e-35
2.3401169e-21
-2.4017315e-21
2.8107504e-52
-1.0818252e-35
-1.2301996e-21
2.4615387e-21
1.2291125e-21
0
0
-1.2038127e-21
1.0185021e-35
-9.7602085e-36
-1.172709e-21
1.1709773e-21
1.1815606e-21
-1.1950169e-21
2.1079629e-35
-1.0328281e-35
-1.2110549e-21
1.2050405e-21
1.1938873e-21
0
0
-1.1594011e-21
-1.1576646e-21
1.1689213e-21
-1.9847029e-35
-1.1933625e-21
1.1980718e-21
-2.0187169e-35
-1.1787087e-21
1.1642325e-21
-3.9365572e-35
3.8747178e-35
-3.9268144e-35
1.9835067e-35
1.181953e-21
0
0
0
0
0
0
0
0
0
0
0
0
-1.1422789e-21
-1.1253967e-21
1.1145163e-21
-1.9360333e-35
2.53959e-52
1.1606347e-21
0
0
-1.1485002e-21
-1.1363991e-21
0
1.1099165e-21
3.8690553e-35
-1.1395003e-21
-1.1568378e-21
1.1597981e-21
2.2930372e-21
-2.2630464e-21
6.3312365e-37
3.303069e-21
-2.2157039e-21
-1.1718435e-34
2.2911913e-21
-3.4590724e-21
1.1435119e-21
1.1278058e-21
-1.1110182e-21
1.0956614e-21
1.0964754e-21
3.8798263e-35
-2.2687449e-21
-7.918059e-35
-1.1383996e-21
-1.124951e-21
-3.9022546e-35
7.645171e-35
2.1895251e-21
1.108726e-21
-1.1263562e-21
1.6128677e-37
1.1310871e-21
0
-1.1133773e-21
-3.8475499e-35
1.1031941e-21
-1.1115511e-21
-1.1226461e-21
2.2552293e-21
1.1242329e-21
-3.3572993e-21
-1.1142003e-21
3.3317813e-21
-1.1120965e-21
-1.1174264e-21
-6.375251e-37
-1.1204657e-21
3.3505622e-21
-7.7726014e-35
-2.2167274e-21
2.2221103e-21
1.1134261e-21
-1.1130568e-21
1.1129501e-21
-1.113999e-21
-2.2320079e-21
1.1194687e-21
3.8826037e-35
1.131256e-21
2.2766801e-21
-1.1414546e-21
-1.1415135e-21
-1.1253399e-21
-3.7302069e-35
-2.5950667e-35
2.7620482e-35
2.3487999e-21
1.152958e-21
-1.0617728e-21
-2.131845e-21
-1.1188739e-21
-1.1221493e-21
7.7037761e-35
2.2041778e-21
-3.1149339e-37
3.1195499e-37
-3.0259021e-52
1.1108973e-21
-7.6910448e-35
1.5378712e-34
1.1003854e-21
-1.098095e-21
1.1002608e-21
3.8293312e-35
-1.1062143e-21
1.105807e-21
-1.5692503e-37
-1.103352e-21
0
1.1057115e-21
7.6479656e-35
-2.20509e-21
1.0995037e-21
-3.1211255e-37
-1.1003949e-21
1.1037956e-21
-1.1034156e-21
1.099461e-21
-4.5614389e-34
-3.0319551e-34
1.0986374e-21
-2.205343e-21
0
-7.6087548e-35
-2.265975e-34
1.0831567e-21
1.0870587e-21
7.5722623e-35
-1.1052804e-21
1.1011518e-21
7.525278e-35
4.6252527e-37
1.4942164e-34
-2.1661183e-21
1.0954462e-21
1.1027867e-21
-7.5710843e-35
7.5468389e-35
-2.2600902e-34
7.4632138e-35
-1.0817216e-21
0
0
0
0
-1.0910602e-21
2.2626125e-34
1.0824666e-21
1.0876074e-21
-1.0951213e-21
-1.0980454e-21
2.189265e-21
7.5435578e-35
-2.2513937e-34
-1.0805236e-21
-1.0847852e-21
1.0919539e-21
0
1.0931794e-21
7.5358572e-35
-1.0841538e-21
-1.081397e-21
1.5119907e-34
1.0897262e-21
-2.1790245e-21
1.0870168e-21
1.0812211e-21
-1.0764717e-21
1.0784193e-21
0
0
0
1.0826343e-21
-1.0761052e-21
-2.1423581e-21
1.0730594e-21
-7.507385e-35
1.0867434e-21
1.0872613e-21
-2.1691942e-21
3.0779927e-37
-3.0730345e-37
1.0801918e-21
1.0794877e-21
-2.1529637e-21
1.5249725e-37
-2.2357729e-34
1.0779656e-21
-6.0029667e-34
-1.4947507e-34
1.0727729e-21
-1.0657925e-21
0
-1.0635387e-21
1.0733319e-21
1.079098e-21
-1.0743988e-21
0
-1.058231e-21
1.0518783e-21
1.0558599e-21
-3.7044515e-34
-2.1471594e-21
-2.1410483e-21
3.1932508e-21
2.1136292e-21
0
-2.1065748e-21
-1.0610544e-21
1.0666916e-21
1.0644953e-21
1.0588879e-21
-2.1037364e-21
-2.0947068e-21
1.0529435e-21
2.117824e-21
2.9388534e-34
-2.108882e-21
1.0437263e-21
-1.4340115e-34
-1.0344688e-21
2.0939815e-21
-1.0569802e-21
1.4717218e-34
1.0479426e-21
-1.0344348e-21
1.0211738e-21
-2.0400622e-21
4.3166446e-34
2.1041001e-21
-2.1159513e-21
-7.2573349e-35
1.0366822e-21
0
0
1.0192856e-21
-1.0343414e-21
-2.0950266e-21
1.0492827e-21
-2.9570477e-37
1.0314647e-21
1.0212754e-21
-1.0138394e-21
0
-1.0304762e-21
-1.0395893e-21
0
2.0636521e-21
1.0244162e-21
-2.0314768e-21
6.9955735e-35
-2.8910833e-37
1.0287697e-21
1.0338494e-21
-1.0288543e-21
1.0216465e-21
-1.0132497e-21
5.7223312e-37
2.0177671e-21
-1.0182374e-21
-1.0244097e-21
-1.0231261e-21
-1.4114666e-34
1.0101332e-21
0
0
-1.0093798e-21
1.4115086e-34
-2.8252841e-34
-1.4085074e-34
1.0078233e-21
-1.0015613e-21
1.4179924e-37
1.0020971e-21
0
0
0
0
0
0
0
-1.0027254e-21
0
1.0015937e-21
0
-9.9266023e-22
-2.7442201e-34
9.9135636e-22
0
0
-9.9631303e-22
-1.3802179e-34
9.926743e-22
0
0
-9.8959988e-22
-9.8653465e-22
9.8325161e-22
9.8251909e-22
0
-9.8763451e-22
1.4004431e-37
9.8200268e-22
-9.7699262e-22
-9.727469e-22
9.7321e-22
9.7831359e-22
0
-9.8091979e-22
-9.7737433e-22
9.7317698e-22
9.6922964e-22
0
-9.7075399e-22
-9.7464753e-22
9.757725e-22
9.7337114e-22
0
0
0
0
0
0
0
0
-9.6197753e-22
6.1741391e-52
9.610338e-22
0
0
0
-9.5468163e-22
-1.3222661e-34
9.5582826e-22
-9.5898806e-22
1.333276e-34
-1.3635154e-37
-1.3295334e-34
9.5508349e-22
-9.5247348e-22
9.496069e-22
-5.2487613e-34
-9.3879279e-22
9.374969e-22
0
0
-9.5503722e-22
-1.3205297e-34
9.4414454e-22
-9.3828183e-22
-9.3279374e-22
0
9.3466809e-22
9.4086829e-22
-9.477194e-22
-2.6330123e-34
1.4099568e-51
-1.3011258e-34
9.2884871e-22
-9.2143474e-22
4.7323593e-51
-1.2940474e-34
-9.4089555e-22
0
0
9.2884268e-22
1.3072967e-37
-3.8088665e-34
9.2276021e-22
0
0
-9.3542225e-22
2.5742088e-34
9.2075307e-22
0
0
0
-9.3274273e-22
1.3242764e-37
9.2734886e-22
-9.2086507e-22
9.1486312e-22
-2.5416975e-34
-1.8425119e-21
9.2737407e-22
3.8666508e-34
1.2842257e-34
-1.2765311e-34
-9.1393034e-22
0
0
9.2354269e-22
1.2828931e-34
-2.5572501e-34
2.1982313e-53
-9.1137344e-22
9.1174753e-22
9.1781585e-22
0
-9.2098228e-22
-1.273108e-34
9.1174653e-22
0
0
-9.1588992e-22
2.6114254e-37
2.710272e-52
-9.1157381e-22
9.0598423e-22
-1.2521735e-34
1.2622864e-34
-2.5384897e-34
-9.1560214e-22
9.1256009e-22
-2.517722e-34
2.5035754e-34
-2.5019396e-34
-9.0709026e-22
9.1233992e-22
-2.5338745e-34
1.2659387e-34
0
-9.0103601e-22
9.0222885e-22
-1.2581283e-34
1.2921022e-37
-1.2615952e-34
1.2569831e-34
9.0026685e-22
-8.9995769e-22
-9.0392589e-22
9.075167e-22
9.0581245e-22
0
-8.9424119e-22
-8.91166e-22
0
9.0350035e-22
-1.2556093e-34
1.2793915e-37
1.2365456e-34
-8.8336208e-22
8.8368567e-22
1.2400166e-34
-2.5060905e-34
-9.0317294e-22
-8.9764613e-22
1.7776322e-21
-1.2504522e-37
1.2187139e-34
8.8840833e-22
-8.9938851e-22
1.2533945e-34
8.974566e-22
0
0
0
-8.8267431e-22
-8.9379007e-22
8.9929665e-22
8.9592341e-22
0
-8.8300451e-22
-8.770958e-22
8.7915795e-22
8.8797685e-22
0
-8.9326981e-22
-8.8911437e-22
8.8244685e-22
2.4333094e-34
-8.7621091e-22
0
0
0
0
8.8152661e-22
-2.4284546e-34
-8.7395257e-22
8.8031775e-22
1.2313349e-34
-1.2346449e-34
3.1032907e-52
8.7900097e-22
8.7284296e-22
-1.7413452e-21
-1.2175126e-34
1.2244634e-34
-8.8353137e-22
0
8.7573515e-22
8.7107743e-22
-8.7388819e-22
-2.4441824e-34
8.8450881e-22
0
0
-8.6314884e-22
1.1888411e-34
8.6509096e-22
0
-8.8203234e-22
1.2504123e-37
-2.4280196e-34
-1.2039422e-34
8.6513202e-22
-8.7157433e-22
1.2460675e-37
-2.4336111e-34
-8.7197574e-22
8.6160669e-22
2.3675298e-34
1.2147657e-37
-1.203736e-34
-8.7985466e-22
8.8342519e-22
0
-4.8123133e-34
-1.1876802e-34
-3.5312877e-34
-1.2121031e-37
-8.6413648e-22
8.7437987e-22
2.5581156e-52
-1.2196631e-34
2.433765e-34
-1.2123381e-34
1.7397319e-21
-8.6541452e-22
-8.6081221e-22
-1.195715e-34
1.2043216e-34
1.7486859e-21
-8.7677664e-22
-8.73774e-22
1.1307289e-52
0
-1.9545316e-52
-8.6532824e-22
8.7142407e-22
1.362648e-52
-1.2120048e-34
-1.2369707e-37
-8.6677608e-22
1.7311822e-21
2.4158117e-34
-8.7418232e-22
1.2126412e-34
-1.2101524e-34
8.6859977e-22
-8.6547083e-22
5.7127682e-52
-3.6347969e-34
2.4312529e-34
-2.4258563e-34
-2.4146535e-34
-1.5368654e-52
0
8.7072554e-22
0
0
-8.7339375e-22
-2.4086876e-34
8.6269197e-22
0
0
-1.7567449e-21
-7.2802231e-34
1.7316174e-21
-8.548477e-22
1.2103938e-37
-1.1988363e-34
-8.8062418e-22
0
0
0
-8.5052175e-22
-2.328164e-34
8.4908002e-22
0
0
-8.8777284e-22
1.2598266e-37
8.8079913e-22
0
0
-8.636708e-22
-2.3909534e-34
-2.4138244e-34
2.442279e-34
8.8819387e-22
-8.8873152e-22
2.4486074e-34
-2.4323813e-34
2.4084126e-34
8.6232822e-22
0
0
-8.8914182e-22
-7.2986685e-51
8.8315731e-22
0
0
-8.6638458e-22
3.8164636e-51
8.8502679e-22
0
0
-8.8429817e-22
-2.9621754e-52
8.7288964e-22
0
0
-8.8681192e-22
1.2623066e-37
8.8583114e-22
-8.8021055e-22
2.4294793e-34
-2.4285346e-34
2.4477704e-34
8.8919071e-22
0
0
0
0
0
-8.7447089e-22
2.4586581e-34
8.9247279e-22
0
0
0
0
0
0
0
-8.889157e-22
4.9377462e-34
8.8629596e-22
0
0
0
0
0
0
0
-8.8456086e-22
2.4453125e-34
8.7728934e-22
0
0
-8.788146e-22
2.4492203e-34
8.7994105e-22
0
0
0
-8.7098698e-22
-2.435653e-34
8.792028e-22
0
0
0
0
0
0
0
-8.720946e-22
1.2275507e-37
8.5265832e-22
0
0
0
0
0
0
0
-8.610068e-22
-1.220302e-37
8.571086e-22
0
0
0
-8.5291369e-22
4.7379663e-34
8.5473628e-22
0
-8.5589315e-22
-2.3729198e-34
8.520604e-22
0
0
-8.4765139e-22
-8.4754418e-22
8.4710383e-22
8.4566473e-22
0
0
0
0
8.3956468e-22
-1.1931151e-37
-1.677712e-21
-8.3727845e-22
1.670595e-21
1.666767e-21
-8.317885e-22
-8.3014335e-22
0
0
0
0
-8.263685e-22
-2.2934152e-34
8.2439825e-22
0
0
0
0
0
0
0
0
0
0
0
0
0
0
-7.9638363e-22
4.4032336e-34
7.9235186e-22
0
0
7.9803233e-22
-2.2160621e-34
1.1323551e-37
-7.9505327e-22
-7.9304284e-22
-4.3927693e-34
2.1929512e-34
7.8752314e-22
0
0
0
0
0
-7.7986968e-22
4.3177464e-34
7.7562321e-22
0
0
0
0
0
0
0
-7.6593987e-22
4.2461384e-34
7.646516e-22
0
0
0
0
0
0
0
-7.5864698e-22
6.3101499e-34
7.567859e-22
0
0
0
0
0
0
0
0
-7.4676983e-22
1.0598393e-37
7.4487774e-22
0
0
0
0
-7.4103529e-22
7.4024772e-22
7.3946896e-22
-1.4773941e-21
-2.0491195e-34
7.3718289e-22
0
0
0
0
-7.3334263e-22
2.033058e-34
1.4634199e-21
-7.3087832e-22
-7.3006727e-22
7.2928861e-22
0
0
0
-7.2670158e-22
-2.0142695e-34
7.2568802e-22
7.2531678e-22
-7.24951e-22
-7.2457194e-22
7.2416493e-22
0
0
-7.2297138e-22
-7.2254517e-22
7.2210087e-22
7.2165793e-22
7.2124087e-22
4.0035121e-34
-7.2053676e-22
0
0
0
-7.1976545e-22
-7.1966659e-22
7.1957848e-22
7.1951133e-22
7.1946221e-22
1.9966886e-34
-7.193842e-22
0
0
0
-7.1916283e-22
1.9957345e-34
7.1901432e-22
0
0
0
0
0
0
0
-7.1812459e-22
1.9930514e-34
1.4362593e-21
1.994261e-34
-7.1846374e-22
0
0
-7.1957908e-22
1.0231325e-37
-2.000343e-34
2.0004979e-34
7.2123468e-22
7.2167925e-22
-2.0052304e-34
-7.2260578e-22
0
0
-7.2407074e-22
6.0339535e-34
2.0123925e-34
-1.0311439e-37
7.2611682e-22
-7.2665031e-22
-7.2714395e-22
1.4551709e-21
-4.0390025e-34
-7.2843862e-22
7.2885907e-22
0
-7.2973172e-22
-2.028616e-34
7.3064296e-22
0
-7.3159604e-22
7.3207882e-22
-8.134707e-34
-7.3317552e-22
7.338693e-22
0
-7.3526665e-22
0
7.3668503e-22
0
-7.381187e-22
7.3883205e-22
-4.1029248e-34
-7.4025207e-22
7.40958e-22
0
-7.4236793e-22
-2.0633768e-34
7.4379317e-22
0
-7.452509e-22
7.4599104e-22
-2.122351e-37
-7.4748423e-22
7.4823441e-22
0
-7.4973318e-22
-7.504776e-22
7.5121567e-22
7.5194742e-22
-7.5266515e-22
7.5337019e-22
7.5403628e-22
-7.5465383e-22
0
0
0
0
0
0
-7.5881764e-22
3.0910463e-53
1.5201355e-21
-7.6065863e-22
-7.6126604e-22
7.6191038e-22
0
0
-7.6393056e-22
-7.6460641e-22
7.6528021e-22
7.6594595e-22
0
-7.6724032e-22
-2.1333003e-34
7.6847419e-22
0
0
-7.7018289e-22
-7.7070049e-22
7.7118615e-22
7.7164584e-22
0
-7.7253435e-22
2.1463634e-34
7.7340024e-22
-7.738561e-22
-4.3002152e-34
-1.1010002e-37
-7.7520731e-22
7.7565103e-22
7.7608714e-22
0
0
-7.773188e-22
2.1584047e-34
7.780553e-22
0
-7.7870235e-22
-7.7897934e-22
7.7922943e-22
7.7946048e-22
0
0
0
0
0
0
-7.8076116e-22
2.1672808e-34
7.8101287e-22
0
0
0
0
0
0
-7.8139718e-22
-1.4435393e-55
7.8139047e-22
7.813674e-22
2.1673778e-34
-7.8127772e-22
0
0
0
0
-7.8075893e-22
-2.1664609e-34
7.8042211e-22
-7.8022606e-22
-7.8001222e-22
7.7978254e-22
-4.3270326e-34
-6.489515e-34
-6.4850501e-34
2.1634795e-34
-4.3230978e-34
2.1595798e-34
7.7779599e-22
0
-7.7710864e-22
6.467311e-34
-1.1032975e-37
-7.759955e-22
7.7560491e-22
7.7520499e-22
-7.7479542e-22
2.1491873e-34
-6.4417827e-34
-4.2946412e-34
-4.2888391e-34
2.1431361e-34
-4.2858354e-34
-7.7163165e-22
7.7113488e-22
7.7062592e-22
-7.7010523e-22
2.134762e-34
-8.5373708e-34
-2.1327968e-34
2.1323087e-34
2.1285141e-34
2.1279588e-34
-7.6612278e-22
0
7.6488085e-22
-2.1210666e-34
-1.2555027e-52
7.6293951e-22
0
-7.6159558e-22
7.6090882e-22
7.6021254e-22
-7.5950591e-22
0
0
0
0
-7.5578767e-22
2.0953938e-34
-4.1873057e-34
7.5331873e-22
7.5243162e-22
-7.515155e-22
0
0
0
0
-7.4728401e-22
-1.0608771e-37
7.4575067e-22
0
0
0
0
0
0
0
-7.394426e-22
-7.3864895e-22
7.3785576e-22
7.37064e-22
0
0
0
0
0
0
-7.3162616e-22
-7.308679e-22
7.3011394e-22
7.2936396e-22
0
0
0
0
0
0
-7.2420038e-22
-7.2347236e-22
7.2274721e-22
7.2202513e-22
0
0
0
0
0
0
-7.1727881e-22
3.9790232e-34
7.1605128e-22
0
0
0
0
0
0
-7.1214182e-22
1.9760636e-34
7.1113792e-22
0
0
0
0
-7.0887468e-22
-1.0067911e-37
7.0807256e-22
-7.0769357e-22
-1.7190677e-53
7.0697956e-22
-7.0664443e-22
3.9226371e-34
7.0601522e-22
-7.0572122e-22
-3.9167333e-34
-3.9152468e-34
-1.9079832e-52
-3.9114955e-34
-1.9541156e-34
7.0423645e-22
-7.0403741e-22
-7.0385348e-22
1.4073716e-21
-3.9031523e-34
-1.4067993e-21
0
7.0317886e-22
-1.9523496e-34
-1.9531575e-34
-5.8520517e-34
-5.8527767e-34
-3.8997759e-34
5.8527094e-34
-3.9009553e-34
1.9531094e-34
7.0307799e-22
0
-7.0325402e-22
-9.9955455e-38
-5.8565366e-34
-5.8588531e-34
1.000224e-37
3.9079375e-34
-1.9555447e-34
-7.0446518e-22
0
7.049514e-22
-3.9144462e-34
-1.002552e-37
7.0576139e-22
0
-7.0628361e-22
7.0653742e-22
7.0678744e-22
-7.0703517e-22
0
0
-7.0781678e-22
7.8622345e-34
-3.9304344e-34
3.9353549e-34
-1.9702049e-34
7.0950773e-22
7.0981478e-22
-7.1014529e-22
0
0
0
0
-7.1217568e-22
-1.9788666e-34
-7.9166237e-34
7.1359047e-22
7.1407589e-22
-7.1456213e-22
0
0
0
0
-7.1698014e-22
-7.1745324e-22
7.179175e-22
7.1836143e-22
0
0
0
0
0
0
-7.2125208e-22
-7.2167093e-22
7.2209404e-22
7.2251876e-22
0
0
0
0
0
0
-7.2530219e-22
6.043137e-34
1.4520986e-21
-7.2641123e-22
-7.2676386e-22
7.2710773e-22
0
1.4555315e-21
-8.0848553e-34
-2.4256358e-33
-7.2867167e-22
-1.4578997e-21
1.4584306e-21
-7.2946666e-22
-7.2970139e-22
7.2992026e-22
-7.3012524e-22
1.0378406e-37
7.3048991e-22
7.3064803e-22
-7.3078934e-22
-7.3091175e-22
7.3101434e-22
-7.3110396e-22
-1.0390828e-37
7.3127127e-22
0
0
0
1.4629701e-21
-7.3150521e-22
-1.4630216e-21
7.3150202e-22
-7.3147804e-22
-7.3143803e-22
1.462765e-21
3.0829009e-53
-7.3122243e-22
7.311175e-22
1.4619916e-21
7.308572e-22
-2.1921047e-21
7.3052845e-22
1.0296337e-51
-2.1903944e-21
1.4598141e-21
7.2966534e-22
7.2940666e-22
1.4582635e-21
-1.4576826e-21
-7.2853741e-22
-7.2822242e-22
7.2789797e-22
7.2756375e-22
-2.1816553e-21
7.2686168e-22
7.2649369e-22
-7.2611391e-22
-7.257226e-22
-1.0307417e-37
2.1747171e-21
-7.2447963e-22
1.2054887e-33
-1.2051508e-33
-2.1693881e-21
7.2265464e-22
7.2216751e-22
1.4433365e-21
-7.2115689e-22
-1.4412658e-21
1.4401939e-21
-7.1954952e-22
7.1899174e-22
7.1842699e-22
-2.1535793e-21
7.1729104e-22
7.1671827e-22
-1.4322801e-21
-7.1555586e-22
7.1496686e-22
2.1431207e-21
-7.1377584e-22
-2.8526963e-21
3.9552967e-34
1.4239192e-21
7.1134731e-22
0
1.4202258e-21
1.575085e-33
-2.1266029e-21
7.0824161e-22
-1.5711172e-33
7.0698358e-22
7.0635189e-22
-1.4114369e-21
0
0
0
-7.031773e-22
3.9006386e-34
1.4038146e-21
-7.0127435e-22
-1.4012856e-21
2.1000408e-21
-2.3292784e-33
-1.3975268e-21
6.9814277e-22
0
0
0
1.391381e-21
-6.9508517e-22
-1.3889663e-21
2.0816533e-21
-1.9704462e-37
-1.3853932e-21
0
0
-6.9093671e-22
3.8329705e-34
1.3795442e-21
-6.8918953e-22
-1.3772127e-21
2.064073e-21
-1.1445649e-33
-1.3737796e-21
6.8635008e-22
-6.8583238e-22
1.3706697e-21
6.848494e-22
-2.279061e-33
-6.8388753e-22
-1.3668258e-21
2.0488358e-21
-3.8794689e-37
-6.8202532e-22
3.7832329e-34
-6.8111918e-22
-6.8067488e-22
3.7758602e-34
2.0394771e-21
-1.9310505e-37
-2.0371353e-21
1.3573396e-21
8.555808e-52
-1.3558622e-21
6.7757068e-22
-6.7721691e-22
1.3537385e-21
6.765282e-22
-1.5015496e-33
-6.7587025e-22
-1.3511156e-21
-6.7525675e-22
-6.7496327e-22
2.0240179e-21
0
-6.7409369e-22
-3.7401299e-34
3.7385236e-34
-3.7359563e-34
6.7293819e-22
-7.4675413e-34
6.7239235e-22
-2.2385231e-33
-2.0156717e-21
1.343294e-21
2.0142049e-21
6.7115115e-22
-2.0126899e-21
-1.3412859e-21
2.0111844e-21
-6.7015325e-22
-2.0097496e-21
0
0
6.6923088e-22
6.6900824e-22
0
-6.6856518e-22
-6.6834254e-22
1.336232e-21
-1.482904e-33
-2.002933e-21
7.4091619e-34
6.6715433e-22
6.6690588e-22
6.6665535e-22
-6.6640344e-22
-6.6615082e-22
6.6589755e-22
1.9969283e-21
-6.6538508e-22
-2.6604894e-21
6.6485357e-22
1.3291589e-21
6.6430082e-22
0
-6.6372695e-22
0
-6.631274e-22
6.628184e-22
-1.4709594e-33
6.6218294e-22
-2.2042834e-33
-1.9845724e-21
6.6118581e-22
6.6084155e-22
-6.6049143e-22
-6.6013498e-22
6.5977254e-22
1.9782111e-21
-6.5902849e-22
-2.6345868e-21
1.0963373e-33
6.5786374e-22
1.3149253e-21
6.570553e-22
-1.313283e-21
-3.6425254e-34
-9.3193944e-38
6.5536085e-22
-1.4541228e-33
-6.544729e-22
1.9620537e-21
-7.2554627e-34
-1.3061731e-21
0
0
-6.5163957e-22
3.6143481e-34
1.301288e-21
-6.5013752e-22
-1.2992517e-21
-6.4910944e-22
7.1984715e-34
1.9441883e-21
6.4753361e-22
-6.4700099e-22
1.2929304e-21
-3.6716663e-37
-2.1496083e-33
-6.4483976e-22
-1.2885848e-21
1.9312291e-21
-7.1422307e-34
-1.2852773e-21
0
0
1.2819573e-21
-1.4219413e-33
-7.1017804e-34
-1.8170804e-37
-1.9163488e-21
-1.2764814e-21
1.0621003e-33
1.9115007e-21
6.3663618e-22
-6.3611001e-22
1.2711785e-21
7.0484957e-34
-2.1132235e-33
-6.3407157e-22
-1.2671688e-21
1.8993242e-21
-6.3264343e-22
-6.321902e-22
6.3174785e-22
-6.3131639e-22
1.2617902e-21
-6.9993344e-34
-6.30086e-22
-8.9485904e-38
-1.2586606e-21
1.2579505e-21
-1.0466474e-33
-1.25664e-21
6.2801999e-22
0
-6.2747369e-22
-3.4806861e-34
1.8809795e-21
-6.2677729e-22
-1.2531582e-21
-6.2640097e-22
-6.2624423e-22
6.2611107e-22
6.2600269e-22
6.2591927e-22
-6.2586035e-22
3.4737994e-34
-3.472828e-34
6.2581578e-22
-6.9495976e-34
6.2589479e-22
-2.0847631e-33
-1.8782049e-21
1.2523854e-21
-6.2812948e-53
-6.2651933e-22
-6.9566778e-34
3.480944e-34
1.8816176e-21
-6.27488e-22
-1.8833926e-21
0
0
6.2889499e-22
6.293174e-22
1.2595359e-21
-6.3024689e-22
-1.2615082e-21
1.2625792e-21
-6.3185357e-22
-1.8973363e-21
6.3306495e-22
6.3371236e-22
6.3438694e-22
6.3508837e-22
-1.2716342e-21
-6.3657258e-22
6.3735444e-22
1.9144865e-21
-6.389954e-22
4.5347341e-51
-1.0667943e-33
-1.2832954e-21
1.2851611e-21
1.2870744e-21
-6.4451726e-22
-1.2910416e-21
1.293094e-21
6.4759203e-22
-1.9459718e-21
-1.949239e-21
6.5085811e-22
1.3039856e-21
6.5314983e-22
-3.6320143e-34
-1.31105e-21
-6.5674257e-22
6.5797974e-22
1.3184697e-21
-9.3863744e-38
-1.323595e-21
1.3262083e-21
-1.1066096e-33
-1.3315249e-21
6.6711282e-22
1.3369534e-21
1.3397057e-21
0
-6.7263737e-22
-2.0221322e-21
-6.7546102e-22
6.7688719e-22
0
0
0
0
-6.8412946e-22
3.8055776e-34
2.0611986e-21
-6.8854102e-22
-2.070057e-21
-6.9149911e-22
1.1541677e-33
1.3889269e-21
6.9594676e-22
-6.9742865e-22
1.3978188e-21
7.0038886e-22
-2.3377287e-33
-7.0333621e-22
-1.4096065e-21
2.1187946e-21
-2.0114615e-37
-7.0916774e-22
1.0098334e-37
-7.1203793e-22
-7.134604e-22
7.9361709e-34
2.1488201e-21
-2.0397225e-37
-2.1571262e-21
-1.440816e-21
4.0042695e-34
1.4461994e-21
7.2442487e-22
-7.2573553e-22
1.4540618e-21
7.2830995e-22
-2.4295963e-33
-7.3081204e-22
-1.4640686e-21
2.1997183e-21
-8.155339e-34
-7.355955e-22
-7.3674575e-22
-7.3787663e-22
-4.0998433e-34
4.1069478e-34
1.4822987e-21
4.118715e-34
-1.4864561e-21
1.4884702e-21
-3.7230943e-33
-2.2385468e-21
1.4942445e-21
-8.3064939e-34
-1.4978646e-21
7.4980252e-22
7.5064878e-22
1.5029417e-21
-7.522685e-22
-2.2591247e-21
0
0
0
2.2676504e-21
2.2695891e-21
-2.2714488e-21
-2.2732294e-21
1.5166198e-21
-2.1567802e-37
7.5936174e-22
-2.5310675e-33
-2.2809112e-21
2.2821988e-21
-3.8030366e-33
-1.5230167e-21
-4.2277866e-34
4.2317165e-34
1.5249238e-21
-7.6272373e-22
7.6295746e-22
-2.5421151e-33
-2.2900212e-21
2.2904676e-21
7.6360932e-22
-1.695647e-33
1.5275243e-21
-1.5275897e-21
-7.6379796e-22
-7.6377151e-22
-2.2911462e-21
8.47744e-34
7.6351219e-22
2.2900965e-21
-5.0835259e-33
-2.2889362e-21
0
7.6246725e-22
1.5243289e-21
-7.6182964e-22
7.6146296e-22
-2.5346919e-33
-1.5212673e-21
2.2805096e-21
-1.6864896e-33
-8.4319631e-34
-8.4214014e-34
-8.4147816e-34
7.5735441e-22
-2.2700718e-21
-2.2679769e-21
7.5525946e-22
1.5089841e-21
0
-7.5285133e-22
8.3459574e-34
-1.6675992e-33
8.3274921e-34
7.4913883e-22
-7.4811863e-22
-7.4706056e-22
2.2378944e-21
5.9948039e-51
-1.2385732e-33
7.4244849e-22
-8.2242263e-34
1.4798242e-21
-1.4771734e-21
-1.4744452e-21
-7.3581999e-22
8.1516808e-34
7.3289983e-22
0
0
0
1.4531754e-21
-7.2489962e-22
-1.4463463e-21
2.1642205e-21
-7.1960078e-22
-2.1532675e-21
2.147611e-21
-2.3777578e-33
-1.4239533e-21
2.1299038e-21
1.4158359e-21
0
-1.4073922e-21
-2.3361992e-33
-6.9931264e-22
-1.3941184e-21
6.9476449e-22
0
1.3800947e-21
1.9543493e-37
7.6063392e-34
-6.8265871e-22
-2.0403512e-21
2.0326083e-21
-1.1244631e-33
-2.0167551e-21
2.0086275e-21
-3.3316252e-33
-1.3279682e-21
6.6113492e-22
-6.5824353e-22
1.3106259e-21
6.5234454e-22
-2.8834566e-33
-6.4629188e-22
-1.2864042e-21
-6.4006762e-22
-6.3688893e-22
1.267334e-21
6.3040674e-22
0
-6.2378548e-22
3.4447175e-34
6.5669751e-52
6.135981e-22
-1.7340779e-37
6.0660889e-22
8.232128e-51
-1.798355e-21
1.7874395e-21
1.7764138e-21
-1.1768564e-21
-1.1693724e-21
0
1.1542222e-21
-5.7327787e-22
-1.70823e-21
1.6965158e-21
-9.3528657e-34
-1.1151549e-21
5.5355687e-22
0
-5.4542092e-22
-5.4130998e-22
5.3716839e-22
-8.8755267e-34
1.0575534e-21
2.9815675e-37
-1.5606981e-21
0
1.5347119e-21
1.0144147e-21
-1.5084589e-21
-9.9680009e-22
1.4818231e-21
4.8943817e-22
-1.9395757e-21
-4.8031851e-22
9.5144389e-22
9.4221899e-22
-5.1786499e-34
-4.6183054e-22
-4.5714726e-22
-4.5242395e-22
4.4765921e-22
-4.916382e-34
8.7604651e-22
-1.4426382e-33
-1.2848595e-21
0
0
8.2702515e-22
-9.0717548e-34
-4.0350919e-22
1.1953439e-21
-3.9334154e-22
-6.4631167e-34
-1.2755389e-33
-1.1332861e-21
3.7250775e-22
-2.0379224e-34
4.0181741e-34
3.5662863e-22
-3.5126057e-22
4.9145128e-38
-1.8890664e-34
3.7159296e-34
3.2917118e-22
0
-3.1795016e-22
6.2462749e-22
3.0662337e-22
-6.0169427e-22
0
2.8900109e-22
-2.8296453e-22
-5.5377829e-22
8.1235827e-22
-8.8153187e-34
-8.6070547e-34
2.5214051e-22
-7.3727124e-22
3.4006849e-38
2.3279886e-22
2.2626037e-22
-2.196755e-22
-2.1300941e-22
2.0622031e-22
0
-1.9217106e-22
3.6984462e-22
-2.9574513e-34
-1.7015376e-22
-3.6129492e-34
-3.4458749e-34
-4.1972716e-38
-2.8011707e-22
3.9699496e-22
3.7341254e-22
0
-2.1648155e-22
-2.9934275e-22
-1.2938955e-38
8.2071906e-23
7.2929757e-23
-6.3763103e-23
-5.4695905e-23
4.5728492e-23
0
5.4996327e-23
3.54871e-23
-2.2212885e-23
3.3515093e-24
-1.4438803e-23
7.2636879e-39
3.6346862e-23
9.3808538e-23
5.7510137e-23
-1.1405107e-34
-3.2016469e-22
3.0733803e-34
3.1537747e-22
-1.1837457e-22
-1.3175443e-22
-1.4502541e-22
1.5809934e-22
1.7109782e-22
1.8430941e-22
5.6296834e-38
-2.1267086e-22
2.281764e-22
-7.3322037e-22
-5.218316e-22
8.3158716e-22
-2.9301547e-22
-6.1727151e-22
6.4935861e-22
-3.4176416e-22
3.6018109e-22
7.595019e-22
-1.1996036e-21
4.1977777e-22
-1.4625001e-33
-1.3738077e-21
9.5436332e-22
4.9757006e-22
5.1948303e-22
1.0855501e-21
-5.6686611e-22
9.277401e-77
-1.229437e-21
-6.3808484e-22
7.3464784e-34
6.8650908e-22
1.4256746e-21
-1.4814389e-21
7.6964544e-22
2.3965231e-21
-2.4830786e-21
-8.5617706e-22
-1.5445874e-49
-9.1487399e-22
2.8399662e-21
9.8034684e-22
-1.0154209e-21
-2.1020429e-21
1.0864561e-21
-1.1216588e-21
3.8541076e-33
2.3879878e-21
-3.697324e-21
-1.4134224e-33
5.8350825e-33
-3.0105294e-33
2.7983227e-21
-2.8867133e-21
1.4889057e-21
6.1427594e-21
-1.5832086e-21
-3.261942e-21
0
-3.4564105e-21
3.951354e-33
1.042609e-36
2.100075e-33
1.9510568e-21
2.0105295e-21
-2.0689346e-21
-2.1266104e-21
4.3706921e-21
-4.4944421e-21
2.5681909e-33
4.7669223e-21
-4.9119096e-21
-8.4224593e-33
2.8877285e-33
2.6732021e-21
5.4931839e-21
-2.8231049e-21
2.9034915e-21
-1.6581832e-33
-3.0734507e-21
-6.3219224e-21
3.2496181e-21
6.6799168e-21
-3.432774e-21
3.5285112e-21
-6.0408925e-33
3.7279628e-21
8.5082031e-33
-7.8728944e-21
-8.0896435e-21
-9.2278498e-33
1.4229024e-32
-1.4623839e-32
4.5116502e-21
4.6348818e-21
4.760417e-21
-4.8889561e-21
0
0
5.2996808e-21
-3.0224192e-33
-7.9490597e-37
-6.3777782e-33
-5.8990693e-21
0
6.2190427e-21
1.2773376e-20
-6.5596424e-21
-1.3474382e-20
-1.3837054e-20
-1.420678e-20
2.1876914e-20
2.4932704e-32
-2.3058399e-20
1.5784007e-20
1.6206485e-20
0
8.5392149e-21
-1.7529159e-20
-8.9963718e-21
1.8470689e-20
9.4812284e-21
-1.0805141e-32
-2.9969741e-20
1.0252012e-20
3.1561382e-20
-3.2389819e-20
-1.1081026e-20
3.4119582e-20
-1.2956121e-32
-1.1977191e-20
-2.4578479e-20
-1.3995147e-32
2.5879817e-20
-2.655927e-20
1.3627489e-20
4.1945519e-20
0
-1.4710855e-20
-3.0179887e-20
8.5978878e-33
-1.5885886e-20
-3.260133e-20
3.344682e-20
3.4305748e-20
0
1.8038388e-20
2.0537895e-32
2.1069129e-32
2.1609698e-32
-5.9898472e-20
-4.0953536e-20
0
4.3061293e-20
4.9012137e-32
2.2638446e-20
6.9640474e-20
-2.3801837e-20
1.354231e-32
-3.5554686e-36
-2.5651092e-20
-5.2598383e-20
2.6962833e-20
5.5281123e-20
-2.8331883e-20
0
-5.9524683e-20
3.0506366e-20
9.3812469e-20
-3.205402e-20
-3.2852961e-20
-6.7332092e-20
3.449478e-20
1.0602887e-19
-3.6214626e-20
4.1194076e-32
7.6063227e-20
-3.8971516e-20
-3.9928264e-20
-8.1803425e-20
-1.2568492e-19
8.58263e-20
8.7919929e-20
-9.0070244e-20
-5.1204953e-32
9.4516514e-20
-9.6801536e-20
-5.5023844e-32
1.0150668e-19
0
-1.064464e-19
-1.0901285e-19
0
1.7146673e-19
5.8514129e-20
1.7023931e-35
6.1317158e-20
6.2762464e-20
7.1312833e-32
-1.3155482e-19
-1.3466456e-19
2.2952833e-31
1.4106343e-19
-1.4436448e-19
-2.4601736e-31
1.5119165e-19
0
0
0
0
-1.695382e-19
-9.6296491e-32
1.774348e-19
9.0762187e-20
-1.8569905e-19
3.1636124e-31
1.9426741e-19
-1.9866179e-19
-1.1278997e-31
1.0386653e-19
-2.1243312e-19
3.6182079e-31
2.2215186e-19
-2.2714815e-19
-2.3222678e-19
2.3739272e-19
2.4265832e-19
0
0
0
0
1.3536453e-19
-1.3833774e-19
-1.4136445e-19
1.6035866e-31
1.2522936e-74
1.5079531e-19
3.0812925e-19
1.5739888e-19
-3.2159606e-19
-4.9278469e-19
1.6778884e-19
3.4275951e-19
-5.2510601e-19
-3.5751597e-19
5.4765291e-19
3.7283451e-19
1.9035834e-19
2.1578445e-31
-3.9692388e-19
0
2.0685254e-19
-2.1115815e-19
4.7856977e-31
6.2530398e-35
7.4782441e-31
2.2919463e-19
2.3390978e-19
-6.7843766e-35
-4.8715642e-19
-4.9707212e-19
8.4447384e-31
5.174439e-19
0
0
0
2.8019122e-19
2.8578059e-19
-2.9146462e-19
-2.9724858e-19
3.0313519e-19
-6.1824728e-19
-9.4563291e-19
0
6.5535218e-19
3.7076087e-31
3.4054765e-19
1.041441e-18
-3.5385728e-19
6.006087e-31
-7.3520546e-19
2.4956289e-30
7.6355722e-19
2.1594433e-31
5.6333314e-35
-4.0390435e-19
4.1151628e-19
-8.3848955e-19
-4.2708993e-19
8.7010844e-19
-8.8628297e-19
-1.2828278e-34
5.1046271e-31
4.6816296e-19
1.4302674e-18
-9.7094959e-19
8.5785453e-49
-5.0330314e-19
8.5343978e-31
1.0433403e-18
-5.3105587e-19
-1.0811505e-18
6.1068221e-31
1.6800688e-18
-1.6199212e-34
-5.8004048e-19
5.9026641e-19
-1.2012693e-18
-6.1114407e-19
1.2435928e-18
-1.2651923e-18
-7.1425354e-31
3.6340214e-30
-1.478727e-30
1.3546592e-18
-1.3777843e-18
7.0060575e-19
1.4249492e-18
-7.2450366e-19
7.3669569e-19
-1.4981009e-18
1.2683971e-30
2.3227207e-18
0
0
-2.4397151e-18
-8.2657347e-19
1.6801562e-18
-1.7075021e-18
-4.9316899e-34
3.9148531e-30
9.9445947e-31
1.820292e-18
-1.849362e-18
-1.8787812e-18
9.5427363e-19
2.9079932e-18
9.8456634e-19
-9.9998345e-19
0
0
1.0473354e-18
-5.9031249e-31
-3.2394173e-18
-3.1159139e-34
2.2260227e-18
1.1298973e-18
-1.2729865e-30
-3.4926922e-18
-2.6236769e-30
2.398611e-18
0
1.2351463e-18
-2.5067219e-18
-1.2717682e-18
2.8653652e-30
1.3091433e-18
2.6562215e-18
-1.3472717e-18
0
0
0
0
1.4460685e-18
-8.1396804e-31
-4.4608227e-18
1.5076707e-18
4.5858022e-18
-4.649194e-18
-1.5710608e-18
3.1851744e-18
1.6143103e-18
2.7244646e-30
-4.9750479e-18
9.5534761e-34
5.67284e-30
1.7258833e-18
3.4975703e-18
1.7718854e-18
1.9924202e-30
-1.8186904e-18
-1.8423923e-18
-1.8662876e-18
-1.8903726e-18
4.2510988e-30
3.87823e-18
0
0
2.0137122e-18
3.3950624e-30
2.933716e-34
-2.970143e-34
-2.1158715e-18
-4.2837589e-18
-4.3361584e-18
4.3889435e-18
2.4669715e-30
2.2478262e-18
6.8243409e-18
0
0
-2.3567227e-18
-2.3843992e-18
0
2.4403007e-18
-1.3702164e-30
-2.4969132e-18
2.5254752e-18
-5.1084112e-18
8.6029224e-30
7.8365411e-18
-2.6414268e-18
-2.6708416e-18
-5.4008371e-18
2.7301523e-18
8.2801247e-18
-2.7900886e-18
1.5658795e-30
-5.7013283e-18
-2.8811878e-18
5.8237202e-18
-5.8853503e-18
4.7754734e-47
6.0094575e-18
0
0
-6.1977641e-18
3.4718152e-30
1.0533776e-29
4.9206154e-47
9.6788075e-18
3.6178197e-30
-3.2907238e-18
-6.6462646e-18
-6.711302e-18
6.7765488e-18
7.5956648e-30
3.453838e-18
1.1614564e-29
-3.5198393e-18
7.1059889e-18
0
3.6195652e-18
-4.0543139e-30
-3.6864572e-18
-7.4400589e-18
-4.1660962e-30
7.5748475e-18
0
0
3.8890196e-18
-2.177562e-30
-1.1871102e-17
-4.4307572e-30
8.0505437e-18
0
-4.0936868e-18
4.1279428e-18
4.1622279e-18
4.1965425e-18
4.2308863e-18
-8.5305105e-18
-1.2898925e-17
4.3340366e-18
8.7368667e-18
-1.3208486e-17
1.3229618e-47
8.9432305e-18
0
0
0
0
-9.2867499e-18
-9.355286e-18
4.7118765e-18
1.4238218e-17
5.3094944e-30
-4.81433e-18
9.6967576e-18
9.7647354e-18
-4.9162928e-18
-1.98006e-17
-9.9678693e-18
1.5052925e-17
1.0102534e-17
-1.5254424e-17
-1.1362639e-29
1.0303236e-17
0
0
0
-1.0567936e-17
-5.9024249e-30
1.1878945e-29
-5.3820206e-18
1.6243338e-17
-5.4467252e-18
-5.4788546e-18
1.6532507e-17
1.1085342e-17
-5.5743586e-18
-1.1211781e-17
-1.127451e-17
1.8881715e-29
-6.3288689e-30
1.6286393e-33
1.1521812e-17
0
5.8216365e-18
5.8517093e-18
-5.8815747e-18
-5.9112284e-18
5.9406695e-18
5.9698979e-18
-1.1997821e-17
-6.0277004e-18
6.0562594e-18
-6.0845817e-18
6.1126657e-18
1.2281022e-17
0
0
-1.8667731e-17
-6.2494154e-18
1.2551973e-17
6.3022919e-18
6.3283341e-18
-1.2708223e-17
7.0859689e-30
1.280967e-17
0
-6.4543913e-18
-1.9436186e-17
-1.4436295e-29
3.6230959e-29
-1.3100005e-17
1.9719474e-17