# Probe 0 (1.24 0 0)
#                 Probe                       0
#                  Time
                  2e-06                       (0.9999999999999999 0 0)
                  4e-06                       (1.000000000000016 0 0)
                  6e-06                       (1.00000000000003 0 0)
                  8e-06                       (1.000000000000034 0 0)
  9.999999999999999e-06                       (1.000000000000027 0 0)
                1.2e-05                       (1.000000000000017 0 0)
                1.4e-05                       (0.9999999999999974 0 0)
                1.6e-05                       (0.9999999999999823 0 0)
                1.8e-05                       (0.9999999999999777 0 0)
                  2e-05                       (0.9999999999999845 0 0)
                2.2e-05                       (1.000000000000003 0 0)
                2.4e-05                       (1.00000000000005 0 0)
  2.600000000000001e-05                       (1.000000000000122 0 0)
  2.800000000000001e-05                       (1.000000000000193 0 0)
  3.000000000000001e-05                       (1.000000000000249 0 0)
  3.200000000000001e-05                       (1.0000000000003 0 0)
  3.400000000000001e-05                       (1.000000000000317 0 0)
  3.600000000000001e-05                       (1.000000000000298 0 0)
  3.800000000000001e-05                       (1.000000000000275 0 0)
  4.000000000000001e-05                       (1.000000000000259 0 0)
  4.200000000000001e-05                       (1.000000000000246 0 0)
  4.400000000000001e-05                       (1.000000000000241 0 0)
  4.600000000000001e-05                       (1.000000000000256 0 0)
  4.800000000000001e-05                       (1.000000000000309 0 0)
  5.000000000000002e-05                       (1.0000000000004 0 0)
  5.200000000000002e-05                       (1.000000000000503 0 0)
  5.400000000000002e-05                       (1.00000000000061 0 0)
  5.600000000000002e-05                       (1.000000000000702 0 0)
  5.800000000000002e-05                       (1.000000000000749 0 0)
  6.000000000000002e-05                       (1.000000000000748 0 0)
  6.200000000000002e-05                       (1.000000000000707 0 0)
  6.400000000000001e-05                       (1.000000000000669 0 0)
  6.600000000000001e-05                       (1.00000000000064 0 0)
                6.8e-05                       (1.000000000000614 0 0)
  6.999999999999999e-05                       (1.000000000000605 0 0)
  7.199999999999999e-05                       (1.000000000000609 0 0)
  7.399999999999998e-05                       (1.000000000000667 0 0)
  7.599999999999998e-05                       (1.000000000000775 0 0)
  7.799999999999997e-05                       (1.000000000000924 0 0)
  7.999999999999997e-05                       (1.000000000001094 0 0)
  8.199999999999996e-05                       (1.000000000001255 0 0)
  8.399999999999995e-05                       (1.00000000000139 0 0)
  8.599999999999995e-05                       (1.000000000001507 0 0)
  8.799999999999994e-05                       (1.000000000001594 0 0)
  8.999999999999994e-05                       (1.000000000001647 0 0)
  9.199999999999993e-05                       (1.000000000001648 0 0)
  9.399999999999993e-05                       (1.000000000001608 0 0)
  9.599999999999992e-05                       (1.000000000001563 0 0)
  9.799999999999992e-05                       (1.000000000001523 0 0)
  9.999999999999991e-05                       (1.000000000001477 0 0)
  0.0001019999999999999                       (1.000000000001462 0 0)
  0.0001039999999999999                       (1.000000000001481 0 0)
  0.0001059999999999999                       (1.000000000001527 0 0)
  0.0001079999999999999                       (1.000000000001599 0 0)
  0.0001099999999999999                       (1.000000000001688 0 0)
  0.0001119999999999999                       (1.000000000001781 0 0)
  0.0001139999999999999                       (1.000000000001859 0 0)
  0.0001159999999999999                       (1.000000000001901 0 0)
  0.0001179999999999999                       (1.00000000000189 0 0)
  0.0001199999999999999                       (1.000000000001837 0 0)
  0.0001219999999999998                       (1.000000000001755 0 0)
  0.0001239999999999998                       (1.000000000001662 0 0)
  0.0001259999999999998                       (1.000000000001606 0 0)
  0.0001279999999999998                       (1.000000000001588 0 0)
  0.0001299999999999998                       (1.000000000001598 0 0)
  0.0001319999999999998                       (1.000000000001641 0 0)
  0.0001339999999999998                       (1.000000000001736 0 0)
  0.0001359999999999998                       (1.000000000001864 0 0)
  0.0001379999999999998                       (1.000000000001996 0 0)
  0.0001399999999999998                       (1.000000000002104 0 0)
  0.0001419999999999998                       (1.000000000002196 0 0)
  0.0001439999999999998                       (1.000000000002268 0 0)
  0.0001459999999999998                       (1.000000000002331 0 0)
  0.0001479999999999998                       (1.000000000002393 0 0)
  0.0001499999999999998                       (1.000000000002445 0 0)
  0.0001519999999999998                       (1.000000000002462 0 0)
  0.0001539999999999998                       (1.000000000002451 0 0)
  0.0001559999999999998                       (1.000000000002407 0 0)
  0.0001579999999999997                       (1.000000000002367 0 0)
  0.0001599999999999997                       (1.000000000002346 0 0)
  0.0001619999999999997                       (1.000000000002355 0 0)
  0.0001639999999999997                       (1.000000000002374 0 0)
  0.0001659999999999997                       (1.00000000000238 0 0)
  0.0001679999999999997                       (1.00000000000239 0 0)
  0.0001699999999999997                       (1.000000000002401 0 0)
  0.0001719999999999997                       (1.000000000002421 0 0)
  0.0001739999999999997                       (1.000000000002434 0 0)
  0.0001759999999999997                       (1.000000000002438 0 0)
  0.0001779999999999997                       (1.000000000002446 0 0)
  0.0001799999999999997                       (1.00000000000244 0 0)
  0.0001819999999999997                       (1.00000000000243 0 0)
  0.0001839999999999997                       (1.00000000000241 0 0)
  0.0001859999999999997                       (1.000000000002386 0 0)
  0.0001879999999999997                       (1.000000000002362 0 0)
  0.0001899999999999997                       (1.000000000002378 0 0)
  0.0001919999999999997                       (1.000000000002447 0 0)
  0.0001939999999999996                       (1.000000000002551 0 0)
  0.0001959999999999996                       (1.00000000000269 0 0)
  0.0001979999999999996                       (1.000000000002857 0 0)
  0.0001999999999999996                       (1.000000000003026 0 0)
  0.0002019999999999996                       (1.000000000003178 0 0)
  0.0002039999999999996                       (1.000000000003293 0 0)
  0.0002059999999999996                       (1.000000000003347 0 0)
  0.0002079999999999996                       (1.000000000003356 0 0)
  0.0002099999999999996                       (1.000000000003302 0 0)
  0.0002119999999999996                       (1.000000000003244 0 0)
  0.0002139999999999996                       (1.000000000003183 0 0)
  0.0002159999999999996                       (1.000000000003146 0 0)
  0.0002179999999999996                       (1.000000000003149 0 0)
  0.0002199999999999996                       (1.000000000003142 0 0)
  0.0002219999999999996                       (1.000000000003131 0 0)
  0.0002239999999999996                       (1.000000000003159 0 0)
  0.0002259999999999996                       (1.000000000003217 0 0)
  0.0002279999999999996                       (1.000000000003325 0 0)
  0.0002299999999999995                       (1.000000000003449 0 0)
  0.0002319999999999995                       (1.000000000003587 0 0)
  0.0002339999999999995                       (1.000000000003713 0 0)
  0.0002359999999999995                       (1.000000000003811 0 0)
  0.0002379999999999995                       (1.000000000003891 0 0)
  0.0002399999999999995                       (1.000000000003942 0 0)
  0.0002419999999999995                       (1.000000000003975 0 0)
  0.0002439999999999995                       (1.000000000003977 0 0)
  0.0002459999999999995                       (1.000000000003936 0 0)
  0.0002479999999999995                       (1.000000000003882 0 0)
  0.0002499999999999995                       (1.000000000003815 0 0)
  0.0002519999999999995                       (1.000000000003744 0 0)
  0.0002539999999999995                       (1.000000000003679 0 0)
  0.0002559999999999995                       (1.000000000003609 0 0)
  0.0002579999999999995                       (1.000000000003544 0 0)
  0.0002599999999999995                       (1.000000000003506 0 0)
  0.0002619999999999995                       (1.000000000003517 0 0)
  0.0002639999999999995                       (1.000000000003569 0 0)
  0.0002659999999999995                       (1.000000000003651 0 0)
  0.0002679999999999995                       (1.00000000000375 0 0)
  0.0002699999999999995                       (1.000000000003879 0 0)
  0.0002719999999999995                       (1.000000000004018 0 0)
  0.0002739999999999995                       (1.000000000004176 0 0)
  0.0002759999999999994                       (1.000000000004332 0 0)
  0.0002779999999999994                       (1.000000000004464 0 0)
  0.0002799999999999994                       (1.000000000004548 0 0)
  0.0002819999999999994                       (1.000000000004599 0 0)
  0.0002839999999999994                       (1.000000000004615 0 0)
  0.0002859999999999994                       (1.000000000004588 0 0)
  0.0002879999999999994                       (1.000000000004538 0 0)
  0.0002899999999999994                       (1.000000000004465 0 0)
  0.0002919999999999994                       (1.00000000000436 0 0)
  0.0002939999999999994                       (1.000000000004275 0 0)
  0.0002959999999999994                       (1.000000000004255 0 0)
  0.0002979999999999994                       (1.000000000004296 0 0)
  0.0002999999999999994                       (1.000000000004382 0 0)
  0.0003019999999999994                       (1.000000000004498 0 0)
  0.0003039999999999994                       (1.00000000000464 0 0)
  0.0003059999999999994                       (1.000000000004792 0 0)
  0.0003079999999999994                       (1.00000000000493 0 0)
  0.0003099999999999993                       (1.000000000005055 0 0)
  0.0003119999999999993                       (1.000000000005177 0 0)
  0.0003139999999999993                       (1.000000000005282 0 0)
  0.0003159999999999993                       (1.000000000005381 0 0)
  0.0003179999999999993                       (1.000000000005445 0 0)
  0.0003199999999999993                       (1.000000000005498 0 0)
  0.0003219999999999993                       (1.000000000005547 0 0)
  0.0003239999999999993                       (1.000000000005611 0 0)
  0.0003259999999999993                       (1.000000000005687 0 0)
  0.0003279999999999993                       (1.000000000005744 0 0)
  0.0003299999999999993                       (1.000000000005769 0 0)
  0.0003319999999999993                       (1.000000000005768 0 0)
  0.0003339999999999993                       (1.000000000005751 0 0)
  0.0003359999999999993                       (1.000000000005712 0 0)
  0.0003379999999999993                       (1.000000000005674 0 0)
  0.0003399999999999993                       (1.000000000005653 0 0)
  0.0003419999999999993                       (1.000000000005644 0 0)
  0.0003439999999999993                       (1.000000000005649 0 0)
  0.0003459999999999992                       (1.000000000005657 0 0)
  0.0003479999999999992                       (1.000000000005667 0 0)
  0.0003499999999999992                       (1.000000000005685 0 0)
  0.0003519999999999992                       (1.000000000005707 0 0)
  0.0003539999999999992                       (1.000000000005729 0 0)
  0.0003559999999999992                       (1.000000000005743 0 0)
  0.0003579999999999992                       (1.000000000005746 0 0)
  0.0003599999999999992                       (1.000000000005745 0 0)
  0.0003619999999999992                       (1.000000000005728 0 0)
  0.0003639999999999992                       (1.00000000000572 0 0)
  0.0003659999999999992                       (1.000000000005749 0 0)
  0.0003679999999999992                       (1.000000000005773 0 0)
  0.0003699999999999992                       (1.000000000005812 0 0)
  0.0003719999999999992                       (1.000000000005856 0 0)
  0.0003739999999999992                       (1.000000000005886 0 0)
  0.0003759999999999992                       (1.000000000005936 0 0)
  0.0003779999999999992                       (1.000000000006008 0 0)
  0.0003799999999999992                       (1.000000000006112 0 0)
  0.0003819999999999991                       (1.000000000006243 0 0)
  0.0003839999999999991                       (1.000000000006391 0 0)
  0.0003859999999999991                       (1.000000000006545 0 0)
  0.0003879999999999991                       (1.000000000006717 0 0)
  0.0003899999999999991                       (1.000000000006903 0 0)
  0.0003919999999999991                       (1.000000000007069 0 0)
  0.0003939999999999991                       (1.000000000007196 0 0)
  0.0003959999999999991                       (1.000000000007287 0 0)
  0.0003979999999999991                       (1.00000000000734 0 0)
  0.0003999999999999991                       (1.000000000007364 0 0)
  0.0004019999999999991                       (1.000000000007371 0 0)
  0.0004039999999999991                       (1.000000000007356 0 0)
  0.0004059999999999991                       (1.000000000007333 0 0)
  0.0004079999999999991                       (1.000000000007316 0 0)
  0.0004099999999999991                       (1.000000000007285 0 0)
  0.0004119999999999991                       (1.000000000007241 0 0)
  0.0004139999999999991                       (1.000000000007184 0 0)
  0.0004159999999999991                       (1.000000000007115 0 0)
   0.000417999999999999                       (1.000000000007017 0 0)
   0.000419999999999999                       (1.000000000006903 0 0)
   0.000421999999999999                       (1.000000000006782 0 0)
   0.000423999999999999                       (1.000000000006652 0 0)
   0.000425999999999999                       (1.000000000006543 0 0)
   0.000427999999999999                       (1.000000000006456 0 0)
   0.000429999999999999                       (1.000000000006394 0 0)
   0.000431999999999999                       (1.000000000006404 0 0)
   0.000433999999999999                       (1.000000000006471 0 0)
   0.000435999999999999                       (1.000000000006597 0 0)
   0.000437999999999999                       (1.0000000000068 0 0)
   0.000439999999999999                       (1.000000000007076 0 0)
   0.000441999999999999                       (1.000000000007369 0 0)
   0.000443999999999999                       (1.000000000007659 0 0)
   0.000445999999999999                       (1.000000000007924 0 0)
   0.000447999999999999                       (1.000000000008141 0 0)
   0.000449999999999999                       (1.000000000008293 0 0)
   0.000451999999999999                       (1.000000000008391 0 0)
  0.0004539999999999989                       (1.00000000000843 0 0)
  0.0004559999999999989                       (1.000000000008426 0 0)
  0.0004579999999999989                       (1.000000000008391 0 0)
  0.0004599999999999989                       (1.000000000008337 0 0)
  0.0004619999999999989                       (1.000000000008277 0 0)
  0.0004639999999999989                       (1.000000000008207 0 0)
  0.0004659999999999989                       (1.000000000008142 0 0)
  0.0004679999999999989                       (1.000000000008102 0 0)
  0.0004699999999999989                       (1.000000000008088 0 0)
  0.0004719999999999989                       (1.000000000008081 0 0)
  0.0004739999999999989                       (1.000000000008102 0 0)
  0.0004759999999999989                       (1.000000000008148 0 0)
  0.0004779999999999989                       (1.000000000008235 0 0)
  0.0004799999999999989                       (1.000000000008328 0 0)
  0.0004819999999999989                       (1.000000000008438 0 0)
  0.0004839999999999989                       (1.000000000008538 0 0)
  0.0004859999999999989                       (1.000000000008619 0 0)
  0.0004879999999999989                       (1.000000000008677 0 0)
  0.0004899999999999989                       (1.000000000008718 0 0)
  0.0004919999999999989                       (1.000000000008731 0 0)
   0.000493999999999999                       (1.000000000008725 0 0)
   0.000495999999999999                       (1.000000000008713 0 0)
  0.0004979999999999991                       (1.000000000008674 0 0)
  0.0004999999999999991                       (1.000000000008628 0 0)
  0.0005019999999999992                       (1.000000000008594 0 0)
  0.0005039999999999992                       (1.000000000008557 0 0)
  0.0005059999999999993                       (1.000000000008535 0 0)
  0.0005079999999999993                       (1.000000000008519 0 0)
  0.0005099999999999994                       (1.000000000008536 0 0)
  0.0005119999999999994                       (1.000000000008564 0 0)
  0.0005139999999999995                       (1.000000000008612 0 0)
  0.0005159999999999995                       (1.000000000008676 0 0)
  0.0005179999999999996                       (1.000000000008745 0 0)
  0.0005199999999999996                       (1.000000000008783 0 0)
  0.0005219999999999997                       (1.000000000008778 0 0)
  0.0005239999999999997                       (1.000000000008726 0 0)
  0.0005259999999999998                       (1.000000000008643 0 0)
  0.0005279999999999998                       (1.000000000008533 0 0)
  0.0005299999999999999                       (1.000000000008389 0 0)
  0.0005319999999999999                       (1.000000000008243 0 0)
               0.000534                       (1.00000000000812 0 0)
               0.000536                       (1.000000000008029 0 0)
  0.0005380000000000001                       (1.000000000007997 0 0)
  0.0005400000000000001                       (1.000000000008026 0 0)
  0.0005420000000000002                       (1.000000000008123 0 0)
  0.0005440000000000002                       (1.000000000008267 0 0)
  0.0005460000000000003                       (1.000000000008427 0 0)
  0.0005480000000000003                       (1.000000000008607 0 0)
  0.0005500000000000004                       (1.000000000008795 0 0)
  0.0005520000000000004                       (1.00000000000897 0 0)
  0.0005540000000000005                       (1.000000000009131 0 0)
  0.0005560000000000005                       (1.000000000009273 0 0)
  0.0005580000000000006                       (1.000000000009391 0 0)
  0.0005600000000000006                       (1.000000000009477 0 0)
  0.0005620000000000007                       (1.000000000009544 0 0)
  0.0005640000000000007                       (1.000000000009589 0 0)
  0.0005660000000000007                       (1.000000000009586 0 0)
  0.0005680000000000008                       (1.000000000009543 0 0)
  0.0005700000000000008                       (1.00000000000947 0 0)
  0.0005720000000000009                       (1.000000000009364 0 0)
  0.0005740000000000009                       (1.000000000009254 0 0)
   0.000576000000000001                       (1.000000000009152 0 0)
   0.000578000000000001                       (1.000000000009068 0 0)
  0.0005800000000000011                       (1.000000000009014 0 0)
  0.0005820000000000011                       (1.000000000008987 0 0)
  0.0005840000000000012                       (1.000000000009 0 0)
  0.0005860000000000012                       (1.000000000009052 0 0)
  0.0005880000000000013                       (1.00000000000914 0 0)
  0.0005900000000000013                       (1.000000000009297 0 0)
  0.0005920000000000014                       (1.000000000009486 0 0)
  0.0005940000000000014                       (1.000000000009684 0 0)
  0.0005960000000000015                       (1.000000000009869 0 0)
  0.0005980000000000015                       (1.000000000010051 0 0)
  0.0006000000000000016                       (1.000000000010238 0 0)
  0.0006020000000000016                       (1.000000000010388 0 0)
  0.0006040000000000017                       (1.000000000010526 0 0)
  0.0006060000000000017                       (1.000000000010626 0 0)
  0.0006080000000000018                       (1.000000000010698 0 0)
  0.0006100000000000018                       (1.000000000010745 0 0)
  0.0006120000000000019                       (1.000000000010768 0 0)
  0.0006140000000000019                       (1.000000000010782 0 0)
   0.000616000000000002                       (1.000000000010801 0 0)
   0.000618000000000002                       (1.000000000010838 0 0)
  0.0006200000000000021                       (1.000000000010865 0 0)
  0.0006220000000000021                       (1.000000000010872 0 0)
  0.0006240000000000022                       (1.000000000010873 0 0)
  0.0006260000000000022                       (1.000000000010831 0 0)
  0.0006280000000000023                       (1.000000000010767 0 0)
  0.0006300000000000023                       (1.000000000010679 0 0)
  0.0006320000000000024                       (1.000000000010584 0 0)
  0.0006340000000000024                       (1.000000000010502 0 0)
  0.0006360000000000024                       (1.000000000010441 0 0)
  0.0006380000000000025                       (1.000000000010419 0 0)
  0.0006400000000000025                       (1.000000000010434 0 0)
  0.0006420000000000026                       (1.00000000001051 0 0)
  0.0006440000000000026                       (1.000000000010631 0 0)
  0.0006460000000000027                       (1.000000000010798 0 0)
  0.0006480000000000027                       (1.000000000010982 0 0)
  0.0006500000000000028                       (1.00000000001117 0 0)
  0.0006520000000000028                       (1.000000000011337 0 0)
  0.0006540000000000029                       (1.000000000011479 0 0)
  0.0006560000000000029                       (1.000000000011573 0 0)
   0.000658000000000003                       (1.000000000011635 0 0)
   0.000660000000000003                       (1.00000000001163 0 0)
  0.0006620000000000031                       (1.000000000011561 0 0)
  0.0006640000000000031                       (1.00000000001144 0 0)
  0.0006660000000000032                       (1.000000000011261 0 0)
  0.0006680000000000032                       (1.00000000001107 0 0)
  0.0006700000000000033                       (1.000000000010884 0 0)
  0.0006720000000000033                       (1.000000000010715 0 0)
  0.0006740000000000034                       (1.000000000010569 0 0)
  0.0006760000000000034                       (1.000000000010478 0 0)
  0.0006780000000000035                       (1.000000000010445 0 0)
  0.0006800000000000035                       (1.000000000010458 0 0)
  0.0006820000000000036                       (1.000000000010516 0 0)
  0.0006840000000000036                       (1.000000000010607 0 0)
  0.0006860000000000037                       (1.000000000010741 0 0)
  0.0006880000000000037                       (1.000000000010905 0 0)
  0.0006900000000000038                       (1.000000000011104 0 0)
  0.0006920000000000038                       (1.00000000001137 0 0)
  0.0006940000000000039                       (1.00000000001166 0 0)
  0.0006960000000000039                       (1.000000000011957 0 0)
   0.000698000000000004                       (1.000000000012224 0 0)
   0.000700000000000004                       (1.000000000012432 0 0)
  0.0007020000000000041                       (1.000000000012548 0 0)
  0.0007040000000000041                       (1.00000000001256 0 0)
  0.0007060000000000042                       (1.000000000012465 0 0)
  0.0007080000000000042                       (1.00000000001227 0 0)
  0.0007100000000000042                       (1.000000000011994 0 0)
  0.0007120000000000043                       (1.000000000011698 0 0)
  0.0007140000000000043                       (1.000000000011395 0 0)
  0.0007160000000000044                       (1.000000000011123 0 0)
  0.0007180000000000044                       (1.0000000000109 0 0)
  0.0007200000000000045                       (1.000000000010735 0 0)
  0.0007220000000000045                       (1.000000000010622 0 0)
  0.0007240000000000046                       (1.000000000010557 0 0)
  0.0007260000000000046                       (1.000000000010518 0 0)
  0.0007280000000000047                       (1.00000000001051 0 0)
  0.0007300000000000047                       (1.000000000010522 0 0)
  0.0007320000000000048                       (1.000000000010548 0 0)
  0.0007340000000000048                       (1.000000000010604 0 0)
  0.0007360000000000049                       (1.000000000010701 0 0)
  0.0007380000000000049                       (1.000000000010828 0 0)
   0.000740000000000005                       (1.000000000010998 0 0)
   0.000742000000000005                       (1.000000000011182 0 0)
  0.0007440000000000051                       (1.000000000011387 0 0)
  0.0007460000000000051                       (1.000000000011591 0 0)
  0.0007480000000000052                       (1.000000000011778 0 0)
  0.0007500000000000052                       (1.000000000011943 0 0)
  0.0007520000000000053                       (1.000000000012102 0 0)
  0.0007540000000000053                       (1.000000000012209 0 0)
  0.0007560000000000054                       (1.00000000001226 0 0)
  0.0007580000000000054                       (1.000000000012243 0 0)
  0.0007600000000000055                       (1.000000000012187 0 0)
  0.0007620000000000055                       (1.000000000012119 0 0)
  0.0007640000000000056                       (1.000000000012078 0 0)
  0.0007660000000000056                       (1.00000000001203 0 0)
  0.0007680000000000057                       (1.000000000011988 0 0)
  0.0007700000000000057                       (1.000000000011956 0 0)
  0.0007720000000000058                       (1.000000000011942 0 0)
  0.0007740000000000058                       (1.00000000001196 0 0)
  0.0007760000000000059                       (1.000000000011996 0 0)
  0.0007780000000000059                       (1.000000000012054 0 0)
  0.0007800000000000059                       (1.000000000012137 0 0)
   0.000782000000000006                       (1.000000000012227 0 0)
   0.000784000000000006                       (1.000000000012328 0 0)
  0.0007860000000000061                       (1.000000000012457 0 0)
  0.0007880000000000061                       (1.000000000012627 0 0)
  0.0007900000000000062                       (1.000000000012795 0 0)
  0.0007920000000000062                       (1.000000000012995 0 0)
  0.0007940000000000063                       (1.000000000013189 0 0)
  0.0007960000000000063                       (1.000000000013357 0 0)
  0.0007980000000000064                       (1.000000000013476 0 0)
  0.0008000000000000064                       (1.000000000013537 0 0)
  0.0008020000000000065                       (1.000000000013539 0 0)
  0.0008040000000000065                       (1.000000000013481 0 0)
  0.0008060000000000066                       (1.000000000013387 0 0)
  0.0008080000000000066                       (1.000000000013257 0 0)
  0.0008100000000000067                       (1.000000000013123 0 0)
  0.0008120000000000067                       (1.000000000013028 0 0)
  0.0008140000000000068                       (1.000000000012985 0 0)
  0.0008160000000000068                       (1.000000000012977 0 0)
  0.0008180000000000069                       (1.000000000012995 0 0)
  0.0008200000000000069                       (1.000000000013008 0 0)
   0.000822000000000007                       (1.000000000013034 0 0)
   0.000824000000000007                       (1.00000000001304 0 0)
  0.0008260000000000071                       (1.000000000013015 0 0)
  0.0008280000000000071                       (1.000000000012989 0 0)
  0.0008300000000000072                       (1.00000000001297 0 0)
  0.0008320000000000072                       (1.00000000001293 0 0)
  0.0008340000000000073                       (1.000000000012907 0 0)
  0.0008360000000000073                       (1.000000000012913 0 0)
  0.0008380000000000074                       (1.000000000012946 0 0)
  0.0008400000000000074                       (1.000000000013019 0 0)
  0.0008420000000000075                       (1.000000000013097 0 0)
  0.0008440000000000075                       (1.000000000013202 0 0)
  0.0008460000000000076                       (1.000000000013331 0 0)
  0.0008480000000000076                       (1.000000000013501 0 0)
  0.0008500000000000077                       (1.000000000013702 0 0)
  0.0008520000000000077                       (1.000000000013887 0 0)
  0.0008540000000000077                       (1.000000000014035 0 0)