/*--------------------------------*- C++ -*----------------------------------*\
  =========                 |
  \\      /  F ield         | OpenFOAM: The Open Source CFD Toolbox
   \\    /   O peration     | Website:  https://openfoam.org
    \\  /    A nd           | Version:  7
     \\/     M anipulation  |
\*---------------------------------------------------------------------------*/
FoamFile
{
    version     2.0;
    format      ascii;
    class       volVectorField;
    location    "0.00195";
    object      U;
}
// * * * * * * * * * * * * * * * * * * * * * * * * * * * * * * * * * * * * * //

dimensions      [0 1 -1 0 0 0 0];

internalField   nonuniform List<vector> 
5000
(
(-56.62861 4.4373789e-17 0)
(-56.579609 4.5512859e-17 0)
(-56.555616 0 0)
(-56.52781 0 0)
(-56.500957 -2.3841524e-17 0)
(-56.473696 2.7122772e-32 -2.3857442e-17)
(-56.446486 2.3870323e-17 -5.0882654e-32)
(-56.419096 0 7.1635104e-17)
(-56.391716 0 2.3883656e-17)
(-56.364229 -2.388718e-17 -4.7774361e-17)
(-56.336748 -4.7777813e-17 -4.7777813e-17)
(-56.309204 2.3889839e-17 2.3889839e-17)
(-56.281662 2.3889531e-17 -2.036944e-31)
(-56.254081 -2.3888944e-17 -2.1047904e-31)
(-56.2265 0 4.7774826e-17)
(-56.198895 -2.3885883e-17 -4.7771765e-17)
(-56.17129 -5.3827483e-50 -2.6913742e-50)
(-56.143671 2.3881382e-17 -2.1041241e-31)
(-56.11605 0 -2.3878447e-17)
(-56.088424 2.3875677e-17 4.7751354e-17)
(-56.060795 -2.3872266e-17 2.3872266e-17)
(-56.033168 -2.3869064e-17 0)
(-56.00554 4.7730525e-17 0)
(-55.977913 -2.3861813e-17 -2.3861813e-17)
(-55.950288 -2.3857816e-17 2.0342398e-31)
(-55.922667 -1.9661347e-31 -1.9661347e-31)
(-55.895047 2.3850095e-17 -2.3850095e-17)
(-55.867432 2.3846385e-17 2.3846385e-17)
(-55.839819 -4.7684341e-17 2.384217e-17)
(-55.812211 4.132916e-31 -2.3838369e-17)
(-55.784607 -4.1660407e-31 4.1660407e-31)
(-55.757008 2.3830192e-17 -2.0318844e-31)
(-55.729413 4.7651658e-17 -2.3825829e-17)
(-55.701824 -4.7643812e-17 2.3821906e-17)
(-55.674239 4.1292999e-31 2.3817512e-17)
(-55.64666 -2.0710768e-30 0)
(-55.619086 -8.2557097e-31 0)
(-55.591518 4.7610488e-17 -2.3805244e-17)
(-55.563955 -4.7601714e-17 -2.3800857e-17)
(-55.536398 -4.7593874e-17 2.3796937e-17)
(-55.508845 4.758513e-17 -3.9897297e-31)
(-55.481298 -1.6361969e-30 -2.3788661e-17)
(-55.453756 -4.756861e-17 2.3784305e-17)
(-55.426219 2.3780415e-17 -4.0214863e-31)
(-55.398687 7.1328201e-17 -2.3776067e-17)
(-55.37116 -2.3772182e-17 2.3772182e-17)
(-55.343639 -2.3767834e-17 -8.1738219e-31)
(-55.316122 -1.6277427e-30 8.1387137e-31)
(-55.288611 -4.7519186e-17 -8.1709878e-31)
(-55.261105 0 4.051066e-31)
(-55.233603 2.3751348e-17 2.3751348e-17)
(-55.206108 3.3747165e-33 0)
(-55.178617 -2.37431e-17 0)
(-55.151132 4.7478403e-17 0)
(-55.123652 -8.2973922e-31 0)
(-55.096177 -4.7461885e-17 0)
(-55.068708 2.3726584e-17 0)
(-55.041244 -8.1920127e-31 0)
(-55.013785 -2.3718366e-17 0)
(-54.986331 0 0)
(-54.958882 2.3710183e-17 0)
(-54.931439 8.0852912e-31 0)
(-54.904 6.7365114e-33 0)
(-54.876567 2.3698118e-17 -2.3698118e-17)
(-54.849139 -2.3693766e-17 -2.3693766e-17)
(-54.821717 8.2816747e-31 2.368988e-17)
(-54.794299 2.3685537e-17 -4.0727598e-31)
(-54.766888 -2.3681663e-17 -1.0779385e-49)
(-54.73948 -2.3677343e-17 2.3677343e-17)
(-54.712079 2.3673494e-17 0)
(-54.684683 2.3669177e-17 0)
(-54.657292 -2.3665332e-17 -2.3665332e-17)
(-54.629905 -2.3661002e-17 -2.3661002e-17)
(-54.602525 4.7314283e-17 0)
(-54.575149 2.3652818e-17 2.3652818e-17)
(-54.547779 -2.3648954e-17 8.1665459e-31)
(-54.520414 0 -2.3644655e-17)
(-54.493054 2.3640814e-17 -2.3640814e-17)
(-54.465699 -3.3589528e-33 2.3636529e-17)
(-54.43835 -2.3632722e-17 4.7265445e-17)
(-54.411005 2.362843e-17 -4.725686e-17)
(-54.383665 -6.7145257e-33 1.3429051e-32)
(-54.35633 6.713304e-33 7.0861015e-17)
(-54.329001 2.3616519e-17 -4.7233038e-17)
(-54.301676 2.3612238e-17 -2.4562266e-30)
(-54.274357 8.2196253e-31 4.7216711e-17)
(-54.247043 -2.360412e-17 -7.0812361e-17)
(-54.219734 0 2.3600164e-17)
(-54.192431 -2.3595997e-17 2.3595997e-17)
(-54.165132 -2.447415e-30 -2.3591989e-17)
(-54.137839 -8.2460232e-31 2.3587898e-17)
(-54.110552 2.3583874e-17 2.3583874e-17)
(-54.083269 2.3579849e-17 8.2097005e-31)
(-54.055991 -4.7151658e-17 -4.7151658e-17)
(-54.028719 -1.6313332e-30 -1.6313332e-30)
(-54.001451 2.3567821e-17 -2.3567821e-17)
(-53.974188 0 -2.3563835e-17)
(-53.946929 0 -8.2696814e-31)
(-53.919676 -2.3555795e-17 1.6402651e-30)
(-53.892428 -1.6332889e-30 4.7103479e-17)
(-53.865185 4.7095415e-17 2.3547707e-17)
(-53.837948 -2.3543639e-17 -2.3543639e-17)
(-53.810715 -4.7079197e-17 3.3451782e-33)
(-53.783489 0 2.353554e-17)
(-53.756267 2.353152e-17 0)
(-53.729051 2.3527494e-17 -2.3527494e-17)
(-53.70184 -2.3523507e-17 -8.1900841e-31)
(-53.674635 -2.3519507e-17 2.3519507e-17)
(-53.647434 0 -2.3515523e-17)
(-53.620239 0 -2.3511493e-17)
(-53.593048 2.3507439e-17 4.7014877e-17)
(-53.565863 2.3503292e-17 2.3503292e-17)
(-53.538683 0 -7.0497224e-17)
(-53.511508 -2.3494723e-17 -2.3494723e-17)
(-53.484338 8.2118926e-31 7.0470802e-17)
(-53.457175 2.3485653e-17 -2.3485653e-17)
(-53.430017 -2.348092e-17 -2.348092e-17)
(-53.402865 6.6722881e-33 -1.3344576e-32)
(-53.375719 -8.2051661e-31 -2.3471026e-17)
(-53.34858 -1.5393259e-49 7.0397673e-17)
(-53.321447 4.6921382e-17 -1.6403106e-30)
(-53.29432 -9.9996474e-33 -4.6910842e-17)
(-53.267199 -2.3450175e-17 4.6900349e-17)
(-53.240085 0 2.3444972e-17)
(-53.212977 -2.3439929e-17 -2.3439929e-17)
(-53.185876 2.3435081e-17 2.3435081e-17)
(-53.15878 2.3430548e-17 -2.3430548e-17)
(-53.131691 -4.6852706e-17 -4.6852706e-17)
(-53.104606 -2.3422591e-17 2.3422591e-17)
(-53.077526 4.6838505e-17 8.0872246e-31)
(-53.05045 2.3416394e-17 2.3416394e-17)
(-53.023377 -2.3413966e-17 4.6827932e-17)
(-52.996308 -2.3411991e-17 -2.3411991e-17)
(-52.969241 -2.3410387e-17 -2.3410387e-17)
(-52.942177 0 -2.3409154e-17)
(-52.915114 2.3408184e-17 -8.1499325e-31)
(-52.888053 2.3407457e-17 -8.1164152e-31)
(-52.860993 -2.3406849e-17 8.1494675e-31)
(-52.833934 -8.1160224e-31 4.6812648e-17)
(-52.806876 2.3405763e-17 2.3405763e-17)
(-52.779819 -2.3405128e-17 -2.3405128e-17)
(-52.752764 -2.3404332e-17 -4.6808664e-17)
(-52.725709 0 -2.3403353e-17)
(-52.698657 2.3402143e-17 -2.3402143e-17)
(-52.671607 2.3400699e-17 1.6228144e-30)
(-52.644559 -2.3399007e-17 4.6798013e-17)
(-52.617513 2.3397066e-17 -6.649846e-33)
(-52.59047 -1.329845e-32 6.6492251e-33)
(-52.56343 -2.3392454e-17 2.4474914e-49)
(-52.536393 2.3389803e-17 2.3389803e-17)
(-52.50936 -2.3386933e-17 -1.6218597e-30)
(-52.48233 1.6282938e-30 3.2565876e-30)
(-52.455305 2.3380641e-17 2.3380641e-17)
(-52.428283 -2.337727e-17 -2.337727e-17)
(-52.401267 2.3373776e-17 2.3373776e-17)
(-52.374255 2.3370204e-17 8.1034979e-31)
(-52.347247 -2.3366561e-17 -2.3366561e-17)
(-52.320245 0 2.3362884e-17)
(-52.293247 0 -3.319537e-33)
(-52.266254 -2.3355424e-17 -2.3355424e-17)
(-52.239265 -2.3351642e-17 0)
(-52.212281 2.3347834e-17 2.3347834e-17)
(-52.185302 2.3343984e-17 1.6155639e-30)
(-52.158327 -2.3340112e-17 -4.6680224e-17)
(-52.131358 -1.6183422e-30 2.3336211e-17)
(-52.104394 2.3332307e-17 -6.6314406e-33)
(-52.077435 -2.3328397e-17 -2.3328397e-17)
(-52.050481 -2.3324507e-17 2.3324507e-17)
(-52.023532 0 -2.332063e-17)
(-51.996588 2.3316787e-17 2.3316787e-17)
(-51.969648 2.331296e-17 -9.7136305e-30)
(-51.942714 0 -6.4658633e-30)
(-51.915784 -2.3305336e-17 2.3305336e-17)
(-51.888858 -2.3301505e-17 -4.660301e-17)
(-51.861937 0 0)
(-51.83502 2.3293732e-17 -1.6153964e-30)
(-51.808109 4.8453712e-30 -4.8453712e-30)
(-51.781203 -2.3285874e-17 2.3285874e-17)
(-51.754303 2.3281956e-17 2.3281956e-17)
(-51.727408 2.3278076e-17 1.6043866e-30)
(-51.700518 -2.3274221e-17 -2.3274221e-17)
(-51.673633 -1.6071645e-30 2.3270401e-17)
(-51.646752 1.6002881e-30 1.6002881e-30)
(-51.619877 9.9175172e-33 9.9175172e-33)
(-51.593005 2.3258943e-17 3.2226622e-30)
(-51.566139 -2.3255102e-17 -4.6510203e-17)
(-51.539277 -3.224898e-30 2.3251232e-17)
(-51.512421 1.5989657e-30 2.3247357e-17)
(-51.485569 -1.5986983e-30 -1.5986983e-30)
(-51.458723 2.32396e-17 1.6017347e-30)
(-51.431882 0 -4.8308223e-30)
(-51.405046 0 1.6045067e-30)
(-51.378214 -2.3228111e-17 -2.3228111e-17)
(-51.351388 -2.3224325e-17 0)
(-51.324566 0 0)
(-51.297748 0 0)
(-51.270936 2.3212911e-17 0)
(-51.244128 9.2103722e-50 -2.3209087e-17)
(-51.217324 -2.3205249e-17 4.8376735e-30)
(-51.190526 0 2.3201421e-17)
(-51.163733 2.3197586e-17 2.3197586e-17)
(-51.136945 -2.3193764e-17 -2.3193764e-17)
(-51.110162 -6.4262022e-30 -2.3189937e-17)
(-51.083383 4.6372261e-17 4.6372261e-17)
(-51.05661 -2.318233e-17 1.6043763e-30)
(-51.029841 -4.812345e-30 -4.812345e-30)
(-51.003077 -3.293334e-33 -2.3174778e-17)
(-50.976317 -2.3171004e-17 -2.3171004e-17)
(-50.949563 2.3167201e-17 2.3167201e-17)
(-50.922812 -3.2917141e-33 0)
(-50.896067 -3.2055964e-30 2.3159527e-17)
(-50.869327 1.6025321e-30 1.6025321e-30)
(-50.842593 -2.3151846e-17 -2.3151846e-17)
(-50.815863 0 -2.3148049e-17)
(-50.789139 2.3144276e-17 3.2232195e-30)
(-50.762419 1.6014837e-30 2.3140533e-17)
(-50.735703 6.421337e-30 -4.6273571e-17)
(-50.708992 2.313304e-17 2.313304e-17)
(-50.682286 0 2.3129273e-17)
(-50.655584 -2.3125503e-17 -2.3125503e-17)
(-50.628887 -2.3121715e-17 2.3121715e-17)
(-50.602195 0 0)
(-50.575507 0 0)
(-50.548825 0 0)
(-50.522147 2.3106496e-17 2.3106496e-17)
(-50.495475 1.598865e-30 -2.3102694e-17)
(-50.468808 -2.3098902e-17 -4.6197805e-17)
(-50.442145 0 2.3095141e-17)
(-50.415488 0 -1.6046456e-30)
(-50.388835 2.3087654e-17 2.3087654e-17)
(-50.362186 2.3083903e-17 2.3083903e-17)
(-50.335542 -2.3080148e-17 -4.6160296e-17)
(-50.308903 -2.3076369e-17 6.5586986e-33)
(-50.282269 0 -6.5576245e-33)
(-50.255639 2.30688e-17 2.30688e-17)
(-50.229014 2.3065019e-17 2.3065019e-17)
(-50.202395 -2.3061229e-17 -4.6122459e-17)
(-50.17578 -2.3057442e-17 3.2766595e-33)
(-50.149169 0 -4.8027895e-30)
(-50.122564 2.3049821e-17 2.3049821e-17)
(-50.095964 -6.3994134e-30 -1.2798827e-29)
(-50.069368 -1.5979508e-30 -3.1959015e-30)
(-50.042778 2.3038341e-17 2.3038341e-17)
(-50.016192 -2.3034519e-17 -2.3034519e-17)
(-49.989611 -2.303068e-17 0)
(-49.963035 0 -2.3026829e-17)
(-49.936463 2.3022941e-17 2.3022941e-17)
(-49.909897 -3.199235e-30 2.3019033e-17)
(-49.883335 2.3015094e-17 -2.3015094e-17)
(-49.856779 3.1915992e-30 0)
(-49.830228 -4.6014379e-17 -2.3007189e-17)
(-49.803681 2.3003229e-17 2.3003229e-17)
(-49.77714 -3.1899482e-30 2.2999247e-17)
(-49.750603 -7.9832902e-30 -7.9832902e-30)
(-49.724072 -1.5911517e-30 -4.5982483e-17)
(-49.697546 -2.298723e-17 -4.5974461e-17)
(-49.671025 2.2983223e-17 6.8949669e-17)
(-49.644509 2.2979254e-17 4.5958509e-17)
(-49.617999 0 0)
(-49.591493 -2.2971442e-17 -4.5942883e-17)
(-49.564992 -2.2967604e-17 -2.2967604e-17)
(-49.538496 0 2.2963825e-17)
(-49.512004 2.2960095e-17 2.2960095e-17)
(-49.485517 2.2956448e-17 2.2956448e-17)
(-49.459035 -4.5905771e-17 -4.5905771e-17)
(-49.432558 -2.2949444e-17 -4.5898888e-17)
(-49.406084 2.2946118e-17 2.2946118e-17)
(-49.379615 2.2942928e-17 4.5885857e-17)
(-49.35315 6.3634214e-30 6.3634214e-30)
(-49.326689 -2.2936912e-17 -4.5873824e-17)
(-49.300231 2.2934079e-17 2.2934079e-17)
(-49.273777 -1.5902674e-30 -3.1805347e-30)
(-49.247326 -2.2928792e-17 -2.2928792e-17)
(-49.220879 2.2926346e-17 4.5852692e-17)
(-49.194435 -1.5930147e-30 -2.2924018e-17)
(-49.167995 1.5961189e-30 3.1922378e-30)
(-49.141557 -6.5141691e-33 2.2919695e-17)
(-49.115121 -1.5828026e-30 -2.291766e-17)
(-49.088689 2.2915671e-17 2.2915671e-17)
(-49.062259 0 -4.5827462e-17)
(-49.035832 0 9.5595114e-30)
(-49.009408 -2.2909926e-17 4.5819852e-17)
(-48.982986 -2.2908045e-17 -4.5816089e-17)
(-48.956567 0 -1.5852643e-30)
(-48.93015 0 2.2904269e-17)
(-48.903736 0 0)
(-48.877325 0 0)
(-48.850916 2.2898261e-17 2.2898261e-17)
(-48.824511 1.5780601e-30 -2.2896105e-17)
(-48.798108 -4.578776e-17 -4.578776e-17)
(-48.771708 9.759263e-33 2.2891569e-17)
(-48.745312 2.2889194e-17 -6.5055001e-33)
(-48.718919 2.288673e-17 2.288673e-17)
(-48.692529 -3.1772423e-30 2.2884192e-17)
(-48.666142 -3.1703726e-30 -2.2881553e-17)
(-48.639759 -3.2512772e-33 0)
(-48.61338 -2.2876002e-17 -2.2876002e-17)
(-48.587004 -2.2873099e-17 -2.2873099e-17)
(-48.560632 -2.287011e-17 0)
(-48.534264 4.5734133e-17 4.5734133e-17)
(-48.5079 6.8591878e-17 2.2863959e-17)
(-48.48154 -2.2860814e-17 -4.5721628e-17)
(-48.455184 -4.5715222e-17 1.5819035e-30)
(-48.428832 0 -6.4956026e-33)
(-48.402485 2.2851068e-17 2.2851068e-17)
(-48.376141 2.2847728e-17 2.2847728e-17)
(-48.349802 -2.2844335e-17 -2.2844335e-17)
(-48.323467 6.4917789e-33 2.2840916e-17)
(-48.297136 -9.7361965e-33 -2.2837464e-17)
(-48.27081 6.4898137e-33 1.2979627e-32)
(-48.244489 2.2830519e-17 4.5661038e-17)
(-48.218172 2.2827031e-17 -2.2827031e-17)
(-48.191859 -2.2823525e-17 -2.2823525e-17)
(-48.165552 -4.5640029e-17 -2.2820015e-17)
(-48.139248 2.2816496e-17 -3.164601e-30)
(-48.112949 8.0599216e-50 2.2812983e-17)
(-48.086654 2.2809474e-17 0)
(-48.060364 6.319802e-30 0)
(-48.034078 -4.5604957e-17 -2.2802479e-17)
(-48.007797 0 3.1654108e-30)
(-47.981519 0 -6.3266039e-30)
(-47.955246 4.5583808e-17 -3.167668e-30)
(-47.928977 -1.2655733e-29 2.2788332e-17)
(-47.902714 -4.5569493e-17 -2.2784747e-17)
(-47.876455 0 3.2373981e-33)
(-47.850201 2.27776e-17 2.27776e-17)
(-47.823952 2.2774066e-17 0)
(-47.797707 -2.2770565e-17 0)
(-47.771467 3.2353977e-33 0)
(-47.745231 -3.1605021e-30 0)
(-47.718999 3.2344113e-33 0)
(-47.692771 2.2756656e-17 0)
(-47.666547 -2.2753144e-17 0)
(-47.640328 -2.2749617e-17 -2.2749617e-17)
(-47.614113 0 0)
(-47.587904 2.2742554e-17 2.2742554e-17)
(-47.561698 -3.1570889e-30 0)
(-47.535498 -2.273553e-17 -2.273553e-17)
(-47.509301 4.5464065e-17 -6.3057722e-30)
(-47.48311 -6.3048025e-30 2.2728537e-17)
(-47.456923 -2.2725038e-17 0)
(-47.43074 -6.3093182e-30 0)
(-47.404562 -4.5436063e-17 -2.2718032e-17)
(-47.378388 4.5429066e-17 -3.1536869e-30)
(-47.352219 2.2711044e-17 2.2711044e-17)
(-47.326055 -2.2707569e-17 0)
(-47.299895 -3.2264474e-33 0)
(-47.273739 -2.2700651e-17 -2.2700651e-17)
(-47.247588 0 -2.2697201e-17)
(-47.221441 0 2.269375e-17)
(-47.195298 2.2690296e-17 2.2690296e-17)
(-47.16916 -3.1466177e-30 0)
(-47.143026 -4.5366759e-17 -2.2683379e-17)
(-47.116897 3.2230112e-33 3.2230112e-33)
(-47.090771 6.802944e-17 2.267648e-17)
(-47.064651 -2.2673046e-17 -2.2673046e-17)
(-47.038535 -2.2669622e-17 -2.2669622e-17)
(-47.012422 4.533241e-17 2.2666205e-17)
(-46.986315 -2.2662788e-17 2.2662788e-17)
(-46.960211 2.2659365e-17 0)
(-46.934112 4.5311869e-17 -2.2655935e-17)
(-46.908017 -2.2652497e-17 -2.2652497e-17)
(-46.881926 -2.2649059e-17 2.2649059e-17)
(-46.85584 -2.2645625e-17 2.2645625e-17)
(-46.829759 2.2642203e-17 0)
(-46.803682 1.5356491e-49 -2.2638793e-17)
(-46.777609 -2.2635393e-17 -2.2635393e-17)
(-46.75154 2.2631999e-17 2.2631999e-17)
(-46.725476 -2.2628606e-17 2.2628606e-17)
(-46.699416 2.2625213e-17 0)
(-46.673361 6.2687702e-30 0)
(-46.647309 6.4285445e-33 0)
(-46.621262 2.2615048e-17 0)
(-46.59522 -4.5223346e-17 0)
(-46.569181 2.2608305e-17 0)
(-46.543147 6.2769418e-30 0)
(-46.517117 -6.2695832e-30 0)
(-46.491091 -2.2598203e-17 -2.2598203e-17)
(-46.465069 -4.5189665e-17 -1.2041233e-48)
(-46.439052 6.7774387e-17 2.2591462e-17)
(-46.413039 6.2658444e-30 0)
(-46.38703 -1.2529822e-29 0)
(-46.361026 6.2575606e-30 0)
(-46.335026 -4.5156017e-17 -2.2578009e-17)
(-46.30903 4.5149302e-17 -3.1310576e-30)
(-46.283039 -6.2611847e-30 2.2571296e-17)
(-46.257052 -4.5135894e-17 -2.2567947e-17)
(-46.231069 0 3.1328706e-30)
(-46.20509 0 -3.2061481e-33)
(-46.179116 2.2557919e-17 -3.1319426e-30)
(-46.153146 -3.1282723e-30 2.2554569e-17)
(-46.12718 -2.255121e-17 -2.255121e-17)
(-46.101218 -2.254784e-17 2.254784e-17)
(-46.07526 2.2544462e-17 -1.2526705e-29)
(-46.049307 6.7623239e-17 -2.254108e-17)
(-46.023359 -2.2537694e-17 2.2537694e-17)
(-45.997414 -2.2534306e-17 0)
(-45.971474 -6.4036707e-33 0)
(-45.945539 -2.2527513e-17 -2.2527513e-17)
(-45.919607 0 -3.1272477e-30)
(-45.89368 4.5041371e-17 2.2520685e-17)
(-45.867758 4.503452e-17 -2.251726e-17)
(-45.84184 -2.251383e-17 -2.251383e-17)
(-45.815926 -4.5020794e-17 0)
(-45.790016 -2.2506961e-17 2.2506961e-17)
(-45.764111 4.5007041e-17 2.2503521e-17)
(-45.73821 4.5000154e-17 -2.2500077e-17)
(-45.712314 -4.4993263e-17 -6.2436699e-30)
(-45.686422 -4.4986376e-17 3.1846183e-49)
(-45.660534 0 -3.1224782e-30)
(-45.634651 4.4972653e-17 2.2486327e-17)
(-45.608772 -2.2482917e-17 -2.2482917e-17)
(-45.582897 -4.4959046e-17 -1.231291e-48)
(-45.557026 2.2476146e-17 -3.1205893e-30)
(-45.53116 2.2472789e-17 -2.2472789e-17)
(-45.505298 -3.1931018e-33 0)
(-45.47944 3.1192024e-30 0)
(-45.453587 2.2462903e-17 2.2462903e-17)
(-45.427738 -2.2459704e-17 3.1917159e-33)
(-45.401893 -2.2456568e-17 -9.3440392e-30)
(-45.376053 2.2453497e-17 2.2453497e-17)
(-45.350216 -3.1138368e-30 0)
(-45.324382 -3.1899879e-33 0)
(-45.298553 -3.1130277e-30 -2.2444657e-17)
(-45.272727 -2.2441827e-17 6.2220813e-30)
(-45.246904 2.2439059e-17 2.2439059e-17)
(-45.221086 -9.3451942e-30 0)
(-45.195271 -3.1146989e-30 0)
(-45.169459 -6.225498e-30 0)
(-45.143651 -2.242866e-17 -2.242866e-17)
(-45.117846 2.2426231e-17 3.1869591e-33)
(-45.092044 -3.1133303e-30 2.2423864e-17)
(-45.066246 -6.2164605e-30 -2.2421554e-17)
(-45.04045 -3.1859737e-33 2.2419297e-17)
(-45.014658 -4.4834167e-17 -6.2311494e-30)
(-44.988868 -2.2414906e-17 -4.4829811e-17)
(-44.963081 2.2412752e-17 2.2412752e-17)
(-44.937297 4.4821226e-17 9.3344718e-30)
(-44.911516 -3.1111944e-30 3.1111944e-30)
(-44.885738 -4.481269e-17 -3.1108981e-30)
(-44.859962 -2.2404202e-17 -2.2404202e-17)
(-44.83419 4.4804086e-17 0)
(-44.80842 2.2399859e-17 0)
(-44.782654 -2.2397642e-17 2.2397642e-17)
(-44.75689 -2.2395382e-17 3.1093759e-30)
(-44.73113 -6.2149289e-30 -6.2149289e-30)
(-44.705372 2.2390715e-17 2.9591283e-50)
(-44.679618 0 -2.2388298e-17)
(-44.653867 0 2.2385817e-17)
(-44.628119 2.2383265e-17 2.2383265e-17)
(-44.602375 0 0)
(-44.576634 -2.2377907e-17 -2.2377907e-17)
(-44.550896 2.2375089e-17 -3.1065585e-30)
(-44.525162 3.1792771e-33 2.2372173e-17)
(-44.499432 -6.2082919e-30 0)
(-44.473706 0 0)
(-44.447984 -2.2362838e-17 -2.2362838e-17)
(-44.422266 2.2359524e-17 6.354959e-33)
(-44.396553 2.2356107e-17 8.1687571e-50)
(-44.370843 -4.470517e-17 -2.2352585e-17)
(-44.345139 -2.2348961e-17 2.2348961e-17)
(-44.319439 2.2345235e-17 -3.0960626e-30)
(-44.293744 0 3.101882e-30)
(-44.268053 0 -6.1994977e-30)
(-44.242368 -2.2333434e-17 -2.2333434e-17)
(-44.216687 6.2035709e-30 2.2329283e-17)
(-44.191012 2.2325024e-17 -6.1992148e-30)
(-44.165342 0 6.2011745e-30)
(-44.139678 0 -6.1999333e-30)
(-44.114019 -2.2311624e-17 -2.2311624e-17)
(-44.088367 9.2944686e-30 2.230696e-17)
(-44.062719 2.2302196e-17 -6.1928762e-30)
(-44.037078 0 3.1020995e-30)
(-44.011443 0 0)
(-43.985814 0 -2.2287267e-17)
(-43.960191 0 2.2282073e-17)
(-43.934575 0 -3.0929082e-30)
(-43.908965 0 3.1649514e-33)
(-43.883362 0 -3.0913924e-30)
(-43.857765 0 3.0937757e-30)
(-43.832176 4.4509021e-17 2.225451e-17)
(-43.806594 1.2349704e-29 -2.2248674e-17)
(-43.781018 -2.2242725e-17 -2.2242725e-17)
(-43.75545 2.2236665e-17 2.2236665e-17)
(-43.72989 -2.2230492e-17 2.2230492e-17)
(-43.704337 2.2224207e-17 0)
(-43.678792 -6.1757579e-30 -2.2217808e-17)
(-43.653254 -2.2211292e-17 -2.2211292e-17)
(-43.627724 -6.1657912e-30 0)
(-43.602203 -2.2197898e-17 2.2197898e-17)
(-43.576689 0 -3.0810015e-30)
(-43.551184 0 3.1525365e-33)
(-43.525688 2.2176865e-17 3.0758855e-30)
(-43.5002 6.1560562e-30 -2.2169598e-17)
(-43.474721 -2.2162203e-17 2.2162203e-17)
(-43.449251 0 3.0728084e-30)
(-43.42379 0 -6.1497885e-30)
(-43.398338 0 -2.2139243e-17)
(-43.372896 0 -2.2131328e-17)
(-43.347463 0 4.4246563e-17)
(-43.322041 0 -3.1427449e-33)
(-43.296627 0 3.0661656e-30)
(-43.271224 4.4196664e-17 2.2098332e-17)
(-43.245831 -1.8389086e-29 -2.2089739e-17)
(-43.220449 -4.416201e-17 3.0657279e-30)
(-43.195077 2.2072128e-17 2.2072128e-17)
(-43.169715 3.135356e-33 0)
(-43.144364 2.205394e-17 0)
(-43.119024 -1.2223913e-29 0)
(-43.093696 -4.4070344e-17 -2.2035172e-17)
(-43.068379 -2.202557e-17 -2.202557e-17)
(-43.043073 -3.9005454e-49 2.2015822e-17)
(-43.017779 6.6017785e-17 2.2005928e-17)
(-42.992497 0 0)
(-42.967226 -4.3971405e-17 -2.1985703e-17)
(-42.941968 0 -2.1975368e-17)
(-42.916722 0 2.1964885e-17)
(-42.891489 4.3908506e-17 2.1954253e-17)
(-42.866269 -6.0870295e-30 0)
(-42.841061 -6.5797658e-17 -2.1932553e-17)
(-42.815866 2.192149e-17 -2.192149e-17)
(-42.790685 2.1910287e-17 2.1910287e-17)
(-42.765517 -2.1898943e-17 6.0809008e-30)
(-42.740362 2.1887454e-17 -2.1887454e-17)
(-42.715221 -2.1875817e-17 0)
(-42.690093 -6.0649922e-30 0)
(-42.66498 2.1852096e-17 0)
(-42.63988 -2.1840018e-17 0)
(-42.614795 0 2.1827801e-17)
(-42.589725 -2.181545e-17 -6.051516e-30)
(-42.564669 2.1802967e-17 -2.1802967e-17)
(-42.539628 4.3580705e-17 2.1790352e-17)
(-42.514602 -2.1777604e-17 3.0236037e-30)
(-42.489591 -2.176472e-17 -3.0249078e-30)
(-42.464596 -2.1751701e-17 5.4925198e-49)
(-42.439615 -2.1738548e-17 2.1738548e-17)
(-42.414651 4.3450533e-17 2.1725266e-17)
(-42.389702 2.171186e-17 -4.342372e-17)
(-42.364769 -2.1698334e-17 -3.0125978e-30)
(-42.339852 0 3.0076217e-30)
(-42.314951 2.1670924e-17 -2.1670924e-17)
(-42.290066 -2.1657039e-17 0)
(-42.265198 -2.1643033e-17 2.1643033e-17)
(-42.240346 6.4886718e-17 2.1628906e-17)
(-42.215511 6.1432568e-33 -2.1614663e-17)
(-42.190693 -4.3200621e-17 -5.9918373e-30)
(-42.165892 2.1585853e-17 2.1585853e-17)
(-42.141108 2.9949594e-30 0)
(-42.116341 2.1556631e-17 0)
(-42.091591 -6.1225657e-33 -2.1541863e-17)
(-42.066858 -4.3053973e-17 2.9857487e-30)
(-42.042143 2.1511999e-17 2.1511999e-17)
(-42.017446 0 0)
(-41.992766 -5.96504e-30 -2.1481698e-17)
(-41.968104 -3.050558e-33 3.050558e-33)
(-41.943461 -2.1450995e-17 -5.9565144e-30)
(-41.918835 2.1435505e-17 -2.9730604e-30)
(-41.894228 -5.9478868e-30 2.1419925e-17)
(-41.869639 -2.9687258e-30 -2.1404253e-17)
(-41.845068 -3.0394868e-33 3.0394868e-33)
(-41.820516 -2.1372625e-17 -5.9347527e-30)
(-41.795983 2.1356668e-17 -2.1356668e-17)
(-41.771468 6.9746891e-49 2.1340617e-17)
(-41.746972 -5.9213825e-30 5.9213825e-30)
(-41.722495 -3.0280841e-33 3.0280841e-33)
(-41.698037 -4.2583874e-17 -2.9561736e-30)
(-41.673598 -2.9508745e-30 -2.1275546e-17)
(-41.649179 2.1259078e-17 2.1259078e-17)
(-41.624779 0 0)
(-41.600398 0 -1.1785012e-29)
(-41.576037 -2.1209225e-17 -2.9416758e-30)
(-41.551695 -8.8180534e-30 -8.8180534e-30)
(-41.527373 2.1175636e-17 -3.0092389e-33)
(-41.503071 -2.1158743e-17 -2.1158743e-17)
(-41.478788 2.9353267e-30 2.1141787e-17)
(-41.454525 2.979474e-48 2.979474e-48)
(-41.430282 -2.9305935e-30 -2.9305935e-30)
(-41.406059 2.1090566e-17 5.8564306e-30)
(-41.381856 2.1073387e-17 -2.9258302e-30)
(-41.357673 2.9204466e-30 4.2112328e-17)
(-41.33351 -2.1038903e-17 -2.1038903e-17)
(-41.309368 0 -2.1021611e-17)
(-41.285246 0 -2.9162374e-30)
(-41.261144 2.0986961e-17 2.9138307e-30)
(-41.237062 -2.0969616e-17 4.1939231e-17)
(-41.213001 1.7442171e-29 -2.0952265e-17)
(-41.18896 2.0934914e-17 -2.0934914e-17)
(-41.16494 -2.0917567e-17 7.61038e-49)
(-41.140939 0 0)
(-41.116959 2.0882901e-17 7.6008684e-49)
(-41.092999 2.0865592e-17 -2.0865592e-17)
(-41.069059 -2.0848308e-17 2.0848308e-17)
(-41.045139 -2.0831058e-17 7.56442e-49)
(-41.02124 0 -2.886838e-30)
(-40.99736 2.0796687e-17 -2.955387e-33)
(-40.973501 2.0779578e-17 -2.0779578e-17)
(-40.949661 -4.1525049e-17 4.1525049e-17)
(-40.925841 -2.0745531e-17 5.7606212e-30)
(-40.902041 2.0728602e-17 -2.0728602e-17)
(-40.878261 2.0711743e-17 2.8726761e-30)
(-40.8545 2.8703481e-30 -2.8703481e-30)
(-40.830759 2.0678252e-17 2.0678252e-17)
(-40.807037 5.737323e-30 -2.0661628e-17)
(-40.783335 -4.1290182e-17 -2.8890859e-48)
(-40.759652 0 -8.5951785e-30)
(-40.735988 0 5.7265548e-30)
(-40.712344 0 -5.7161888e-30)
(-40.688718 2.0579925e-17 -5.7146357e-30)
(-40.665111 2.0563902e-17 6.9776511e-49)
(-40.641523 0 0)
(-40.617953 -2.053218e-17 2.053218e-17)
(-40.594401 -2.8426779e-30 0)
(-40.570868 2.0500888e-17 0)
(-40.547353 0 -2.048541e-17)
(-40.523856 0 -5.6841254e-30)
(-40.500377 -2.0454812e-17 2.0454812e-17)
(-40.476916 -2.8349443e-30 0)
(-40.453472 2.8299633e-30 0)
(-40.430046 -2.0409852e-17 -4.0819704e-17)
(-40.406637 2.0395113e-17 -1.6978358e-29)
(-40.383245 -8.4801982e-30 4.076099e-17)
(-40.35987 -2.0365999e-17 -2.0365999e-17)
(-40.336513 0 2.8921399e-33)
(-40.313172 -2.0337377e-17 -2.8236425e-30)
(-40.289847 -2.8216818e-30 -2.0323256e-17)
(-40.266539 2.0309261e-17 0)
(-40.243248 -2.0295395e-17 0)
(-40.219972 2.0281655e-17 0)
(-40.196713 2.0268042e-17 -2.0268042e-17)
(-40.173469 -2.0254555e-17 -5.6185301e-30)
(-40.150241 0 2.0241195e-17)
(-40.127029 2.0227964e-17 0)
(-40.103832 2.0214862e-17 0)
(-40.080651 -2.020189e-17 -2.020189e-17)
(-40.057485 -2.0189047e-17 2.8690361e-33)
(-40.034333 0 2.0176329e-17)
(-40.011197 -2.0163738e-17 0)
(-39.988075 2.0151272e-17 0)
(-39.964968 2.0138934e-17 -2.0138934e-17)
(-39.941875 -2.0126727e-17 -5.5830712e-30)
(-39.918797 -4.0229302e-17 -5.5882968e-30)
(-39.895732 1.1164243e-29 5.5821216e-30)
(-39.872682 6.0272677e-17 2.0090892e-17)
(-39.849645 4.9186509e-49 -2.0079206e-17)
(-39.826622 -2.0067648e-17 5.5695347e-30)
(-39.803613 -4.0112437e-17 -5.5663626e-30)
(-39.780617 1.1120756e-29 5.5603782e-30)
(-39.757634 4.0067506e-17 2.0033753e-17)
(-39.734665 -2.002272e-17 0)
(-39.711708 2.0011818e-17 0)
(-39.688764 -2.0001046e-17 -2.0001046e-17)
(-39.665832 -1.9990402e-17 -1.1056571e-47)
(-39.642913 3.9959777e-17 1.9979888e-17)
(-39.620007 0 0)
(-39.597112 0 0)
(-39.57423 -3.9898308e-17 -1.9949154e-17)
(-39.551359 -3.2820168e-48 -6.5640335e-48)
(-39.5285 3.9858679e-17 1.9929339e-17)
(-39.505652 0 0)
(-39.482816 0 0)
(-39.459991 -3.9801144e-17 -1.9900572e-17)
(-39.437178 -3.0379388e-48 -6.0758776e-48)
(-39.414375 3.9764098e-17 1.9882049e-17)
(-39.391584 0 0)
(-39.368803 0 0)
(-39.346032 -3.9710641e-17 -1.985532e-17)
(-39.323272 -1.9846687e-17 2.8203839e-33)
(-39.300522 3.9676377e-17 1.9838188e-17)
(-39.277782 1.9829824e-17 -1.9829824e-17)
(-39.255052 0 5.50688e-30)
(-39.232331 -3.9627017e-17 -5.5046328e-30)
(-39.20962 1.0999219e-29 5.4996095e-30)
(-39.186918 3.959549e-17 1.9797745e-17)
(-39.164225 -1.9790065e-17 0)
(-39.141541 0 0)
(-39.118866 1.9775108e-17 0)
(-39.0962 -1.9767834e-17 0)
(-39.073543 2.8081646e-33 0)
(-39.050894 1.975371e-17 -1.975371e-17)
(-39.028253 -1.9746858e-17 5.4805034e-30)
(-39.00562 1.9740143e-17 1.9740143e-17)
(-38.982996 1.9733563e-17 0)
(-38.960379 -1.9727117e-17 0)
(-38.937769 -1.9720809e-17 0)
(-38.915168 5.4743637e-30 0)
(-38.892573 1.9708618e-17 0)
(-38.869986 -1.9702737e-17 0)
(-38.847406 -5.4694638e-30 0)
(-38.824832 1.969139e-17 -1.969139e-17)
(-38.802265 -1.9685917e-17 1.092718e-29)
(-38.779705 1.9680577e-17 1.9680577e-17)
(-38.757151 1.9675372e-17 0)
(-38.734603 -1.9670304e-17 0)
(-38.712062 -1.9665374e-17 0)
(-38.689526 5.4593524e-30 0)
(-38.666996 1.9655923e-17 0)
(-38.644471 -1.9651395e-17 0)
(-38.621952 2.792006e-33 0)
(-38.599439 1.9642724e-17 -1.9642724e-17)
(-38.57693 -1.9638583e-17 5.4504528e-30)
(-38.554427 1.963457e-17 1.963457e-17)
(-38.531928 1.9630685e-17 0)
(-38.509434 -1.9626925e-17 0)
(-38.486944 -3.924657e-17 -1.9623285e-17)
(-38.464459 1.0901612e-29 5.450806e-30)
(-38.441978 3.9232719e-17 1.961636e-17)
(-38.419502 -1.9613074e-17 0)
(-38.397029 2.7867355e-33 0)
(-38.374561 3.921372e-17 0)
(-38.352096 5.5717717e-33 -1.9603929e-17)
(-38.329634 -1.9601111e-17 -5.445624e-30)
(-38.307176 0 1.9598403e-17)
(-38.284722 1.9595802e-17 0)
(-38.262271 0 0)
(-38.239822 -1.9590923e-17 0)
(-38.217377 0 0)
(-38.194935 0 0)
(-38.172495 0 0)
(-38.150059 -1.9582482e-17 0)
(-38.127624 -2.1461537e-50 -1.9580646e-17)
(-38.105192 1.957892e-17 2.7823318e-33)
(-38.082762 0 1.9577302e-17)
(-38.060334 1.9575795e-17 0)
(-38.037908 -5.4354214e-30 0)
(-38.015484 -1.9573121e-17 0)
(-37.993062 0 0)
(-37.970641 0 0)
(-37.948222 0 0)
(-37.925804 -1.9569222e-17 0)
(-37.903387 5.4338016e-30 -1.9568567e-17)
(-37.880972 1.9568044e-17 -2.7807863e-33)
(-37.858557 0 1.9567659e-17)
(-37.836142 1.9567417e-17 0)
(-37.813729 5.4306762e-30 0)
(-37.791315 -1.9567385e-17 0)
(-37.768902 0 -1.9567591e-17)
(-37.746489 1.9567946e-17 1.0864478e-29)
(-37.724075 -1.9568463e-17 1.9568463e-17)
(-37.701661 1.0873489e-29 0)
(-37.679247 1.9570012e-17 -1.9570012e-17)
(-37.656832 -1.9571058e-17 -5.4372744e-30)
(-37.634416 0 1.9572293e-17)
(-37.611998 -1.9573724e-17 0)
(-37.58958 -5.4356871e-30 0)
(-37.567159 1.9577195e-17 -1.9577195e-17)
(-37.544737 0 -1.9579241e-17)
(-37.522312 1.9581503e-17 1.9581503e-17)
(-37.499885 -1.9583985e-17 1.9583985e-17)
(-37.477455 -1.0877671e-29 0)
(-37.455023 1.9589636e-17 0)
(-37.432587 -1.0878285e-29 0)
(-37.410148 -2.7847919e-33 0)
(-37.387704 5.4452841e-30 1.9599887e-17)
(-37.365257 -2.7858658e-33 -2.7858658e-33)
(-37.342806 -1.9607935e-17 -3.9215871e-17)
(-37.32035 0 -1.9612336e-17)
(-37.297889 1.9616993e-17 3.9233986e-17)
(-37.275423 -5.4458256e-30 3.9243821e-17)
(-37.252952 -5.4472627e-30 -1.9627088e-17)
(-37.230475 -3.3306083e-49 -1.9632527e-17)
(-37.207991 -5.4531444e-30 0)
(-37.185502 0 0)
(-37.163006 -3.9300824e-17 0)
(-37.140502 -5.4583316e-30 0)
(-37.117992 1.9663668e-17 -1.9663668e-17)
(-37.095474 -1.9670698e-17 -5.4649567e-30)
(-37.072948 5.4613902e-30 1.9677991e-17)
(-37.050413 1.9685545e-17 0)
(-37.027871 1.9693356e-17 0)
(-37.005319 5.4706943e-30 0)
(-36.982759 -5.4730079e-30 0)
(-36.960189 1.9718355e-17 0)
(-36.93761 -1.9727213e-17 0)
(-36.91502 -1.9736332e-17 0)
(-36.89242 0 0)
(-36.86981 -1.9755326e-17 0)
(-36.847188 5.4884006e-30 0)
(-36.824556 1.9775301e-17 0)
(-36.801912 0 0)
(-36.779257 0 0)
(-36.756589 0 0)
(-36.73391 -3.9636289e-17 -1.9818145e-17)
(-36.711218 2.2024969e-29 1.1012485e-29)
(-36.688513 3.9681944e-17 1.9840972e-17)
(-36.665795 0 0)
(-36.643064 0 0)
(-36.62032 0 1.9876893e-17)
(-36.597561 0 -5.5228651e-30)
(-36.574789 0 2.8282357e-33)
(-36.552003 0 -1.9914781e-17)
(-36.529202 0 -1.9927828e-17)
(-36.506386 -3.9882146e-17 -1.1071645e-29)
(-36.483555 1.1087614e-29 5.5438071e-30)
(-36.460709 3.9936297e-17 1.9968149e-17)
(-36.437848 1.9981977e-17 0)
(-36.414971 -1.9995996e-17 0)
(-36.392078 -2.0010201e-17 0)
(-36.369169 5.5632749e-30 0)
(-36.346244 1.1117553e-29 0)
(-36.323302 2.0053875e-17 -2.0053875e-17)
(-36.300344 -2.0068769e-17 1.1142543e-29)
(-36.277369 2.0083827e-17 2.0083827e-17)