/*--------------------------------*- C++ -*----------------------------------*\
  =========                 |
  \\      /  F ield         | OpenFOAM: The Open Source CFD Toolbox
   \\    /   O peration     | Website:  https://openfoam.org
    \\  /    A nd           | Version:  7
     \\/     M anipulation  |
\*---------------------------------------------------------------------------*/
FoamFile
{
    version     2.0;
    format      ascii;
    class       volScalarField;
    location    "0.00328";
    object      mag(U);
}
// * * * * * * * * * * * * * * * * * * * * * * * * * * * * * * * * * * * * * //

dimensions      [0 1 -1 0 0 0 0];

internalField   nonuniform List<scalar> 
5000
(
89.653944
89.57921
89.536821
89.492328
89.448463
89.404583
89.360721
89.316868
89.273021
89.229179
89.185337
89.141494
89.097646
89.053793
89.009935
88.966071
88.9222
88.878325
88.834444
88.790559
88.74667
88.702779
88.658885
88.614989
88.571092
88.527195
88.483298
88.439401
88.395504
88.351608
88.307714
88.26382
88.219929
88.176038
88.13215
88.088264
88.044381
88.000499
87.956621
87.912744
87.868871
87.825
87.781132
87.737267
87.693405
87.649546
87.60569
87.561837
87.517987
87.47414
87.430297
87.386456
87.342619
87.298784
87.254953
87.211125
87.1673
87.123479
87.07966
87.035845
86.992033
86.948224
86.904419
86.860616
86.816817
86.773021
86.729228
86.685438
86.641652
86.597869
86.554088
86.510312
86.466538
86.422767
86.379
86.335236
86.291475
86.247717
86.203962
86.16021
86.116462
86.072716
86.028974
85.985235
85.941499
85.897766
85.854036
85.81031
85.766586
85.722866
85.679149
85.635434
85.591724
85.548016
85.504311
85.46061
85.416912
85.373217
85.329525
85.285836
85.242151
85.198468
85.154789
85.111113
85.06744
85.02377
84.980104
84.93644
84.89278
84.849123
84.805468
84.761817
84.718169
84.674524
84.630882
84.587243
84.543608
84.499975
84.456345
84.412719
84.369095
84.325475
84.281858
84.238243
84.194632
84.151024
84.107419
84.063817
84.020218
83.976622
83.93303
83.88944
83.845854
83.80227
83.75869
83.715113
83.671538
83.627966
83.584398
83.540833
83.497271
83.453711
83.410155
83.366602
83.323052
83.279504
83.23596
83.192419
83.148881
83.105346
83.061814
83.018284
82.974758
82.931235
82.887715
82.844198
82.800683
82.757172
82.713664
82.670158
82.626656
82.583157
82.53966
82.496166
82.452676
82.409188
82.365703
82.322221
82.278742
82.235266
82.191793
82.148323
82.104856
82.061391
82.01793
81.974472
81.931016
81.887564
81.844114
81.800667
81.757224
81.713783
81.670345
81.62691
81.583478
81.540049
81.496622
81.453199
81.409778
81.366361
81.322946
81.279534
81.236125
81.192719
81.149315
81.105915
81.062517
81.019123
80.975731
80.932341
80.888955
80.845572
80.802191
80.758813
80.715438
80.672066
80.628697
80.58533
80.541966
80.498605
80.455247
80.411892
80.368539
80.32519
80.281843
80.238498
80.195157
80.151818
80.108482
80.065149
80.021819
79.978492
79.935167
79.891845
79.848526
79.805209
79.761895
79.718584
79.675276
79.63197
79.588668
79.545368
79.50207
79.458776
79.415484
79.372195
79.328908
79.285624
79.242343
79.199065
79.155789
79.112516
79.069246
79.025979
78.982714
78.939452
78.896193
78.852936
78.809682
78.766431
78.723182
78.679936
78.636693
78.593452
78.550214
78.506979
78.463747
78.420517
78.377289
78.334065
78.290842
78.247623
78.204406
78.161192
78.11798
78.074771
78.031565
77.988361
77.94516
77.901961
77.858765
77.815571
77.77238
77.729192
77.686006
77.642823
77.599642
77.556464
77.513288
77.470115
77.426945
77.383777
77.340612
77.297449
77.254288
77.211131
77.167975
77.124822
77.081672
77.038524
76.995379
76.952236
76.909096
76.865958
76.822822
76.779689
76.736559
76.693431
76.650305
76.607182
76.564061
76.520942
76.477826
76.434713
76.391601
76.348492
76.305386
76.262281
76.219179
76.17608
76.132982
76.089887
76.046795
76.003704
75.960616
75.91753
75.874447
75.831365
75.788286
75.745209
75.702134
75.659061
75.61599
75.572922
75.529855
75.486791
75.443729
75.400669
75.357611
75.314555
75.271501
75.228449
75.185399
75.142352
75.099306
75.056262
75.01322
74.970181
74.927143
74.884107
74.841073
74.79804
74.75501
74.711982
74.668955
74.62593
74.582906
74.539885
74.496865
74.453847
74.41083
74.367816
74.324802
74.28179
74.23878
74.195772
74.152764
74.109759
74.066754
74.023751
73.98075
73.937749
73.89475
73.851752
73.808756
73.765761
73.722766
73.679773
73.636781
73.59379
73.5508
73.507811
73.464823
73.421836
73.37885
73.335864
73.292879
73.249895
73.206911
73.163929
73.120946
73.077965
73.034983
72.992003
72.949022
72.906042
72.863063
72.820083
72.777104
72.734125
72.691146
72.648167
72.605188
72.562209
72.519229
72.47625
72.43327
72.390291
72.34731
72.30433
72.261349
72.218367
72.175385
72.132403
72.089419
72.046435
72.00345
71.960465
71.917477
71.87449
71.831501
71.788512
71.745521
71.702529
71.659536
71.616541
71.573545
71.530548
71.487549
71.444549
71.401547
71.358543
71.315538
71.272531
71.229521
71.186511
71.143497
71.100483
71.057465
71.014446
70.971425
70.928401
70.885375
70.842347
70.799315
70.756282
70.713246
70.670208
70.627166
70.584122
70.541075
70.498026
70.454973
70.411918
70.368859
70.325798
70.282733
70.239665
70.196594
70.15352
70.110443
70.067362
70.024278
69.981191
69.9381
69.895006
69.851908
69.808807
69.765702
69.722594
69.679482
69.636367
69.593248
69.550126
69.507
69.46387
69.420736
69.3776
69.334458
69.291314
69.248166
69.205014
69.161858
69.118699
69.075536
69.032369
68.989198
68.946024
68.902846
68.859665
68.81648
68.773291
68.730098
68.686903
68.643703
68.6005
68.557293
68.514083
68.470869
68.427652
68.384432
68.341208
68.297981
68.25475
68.211516
68.168279
68.125039
68.081796
68.038549
67.9953
67.952047
67.908791
67.865533
67.822272
67.779007
67.735741
67.692471
67.649199
67.605924
67.562646
67.519366
67.476084
67.432799
67.389512
67.346223
67.302932
67.259638
67.216343
67.173045
67.129746
67.086444
67.043142
66.999837
66.95653
66.913223
66.869913
66.826602
66.78329
66.739977
66.696662
66.653346
66.61003
66.566712
66.523394
66.480074
66.436754
66.393433
66.350112
66.30679
66.263468
66.220145
66.176823
66.133499
66.090176
66.046852
66.003529
65.960206
65.916882
65.873559
65.830237
65.786914
65.743592
65.700271
65.65695
65.61363
65.57031
65.526991
65.483673
65.440356
65.397039
65.353724
65.31041
65.267097
65.223784
65.180474
65.137164
65.093855
65.050548
65.007243
64.963939
64.920636
64.877335
64.834035
64.790738
64.747442
64.704147
64.660855
64.617564
64.574275
64.530988
64.487703
64.44442
64.401139
64.357861
64.314584
64.271309
64.228037
64.184766
64.141498
64.098232
64.054968
64.011707
63.968448
63.925191
63.881937
63.838685
63.795435
63.752188
63.708944
63.665702
63.622462
63.579225
63.53599
63.492758
63.449529
63.406302
63.363078
63.319856
63.276637
63.233421
63.190208
63.146997
63.103788
63.060583
63.01738
62.97418
62.930983
62.887788
62.844597
62.801408
62.758221
62.715038
62.671857
62.628679
62.585504
62.542332
62.499163
62.455996
62.412832
62.369672
62.326513
62.283358
62.240206
62.197057
62.15391
62.110766
62.067625
62.024487
61.981352
61.93822
61.895091
61.851964
61.80884
61.76572
61.722602
61.679487
61.636374
61.593265
61.550159
61.507055
61.463954
61.420857
61.377762
61.33467
61.291581
61.248495
61.205412
61.162331
61.119254
61.076179
61.033108
60.990039
60.946973
60.90391
60.86085
60.817792
60.774738
60.731686
60.688638
60.645592
60.602549
60.559508
60.516471
60.473437
60.430405
60.387376
60.34435
60.301327
60.258307
60.215289
60.172275
60.129263
60.086254
60.043248
60.000245
59.957245
59.914248
59.871253
59.828261
59.785272
59.742286
59.699303
59.656323
59.613345
59.57037
59.527399
59.484429
59.441463
59.3985
59.355539
59.312582
59.269627
59.226675
59.183725
59.140779
59.097835
59.054894
59.011956
58.969021
58.926089
58.883159
58.840233
58.797309
58.754388
58.711469
58.668554
58.625641
58.582732
58.539825
58.49692
58.454019
58.41112
58.368225
58.325332
58.282441
58.239554
58.19667
58.153788
58.110909
58.068033
58.02516
57.982289
57.939422
57.896557
57.853695
57.810836
57.76798
57.725126
57.682275
57.639428
57.596582
57.55374
57.510901
57.468064
57.425231
57.3824
57.339571
57.296746
57.253924
57.211104
57.168287
57.125473
57.082662
57.039854
56.997049
56.954246
56.911446
56.868649
56.825855
56.783064
56.740276
56.69749
56.654708
56.611928
56.569151
56.526377
56.483606
56.440837
56.398072
56.355309
56.312549
56.269793
56.227039
56.184288
56.14154
56.098795
56.056052
56.013313
55.970576
55.927842
55.885111
55.842383
55.799658
55.756937
55.714218
55.671502
55.628789
55.586078
55.543371
55.500666
55.457964
55.415265
55.372569
55.329876
55.287187
55.244501
55.201817
55.159137
55.116459
55.073783
55.03111
54.98844
54.945773
54.903109
54.860449
54.817792
54.775139
54.732489
54.689842
54.647197
54.604554
54.561914
54.519275
54.47664
54.434008
54.391379
54.348755
54.306135
54.263518
54.220905
54.178295
54.135687
54.09308
54.050475
54.007872
53.965272
53.922674
53.88008
53.837491
53.794906
53.752326
53.709749
53.667177
53.624607
53.582039
53.539472
53.496907
53.454343
53.411782
53.369222
53.326666
53.284113
53.241565
53.19902
53.15648
53.113945
53.071414
53.028887
52.986363
52.943842
52.901323
52.858805
52.816288
52.773772
52.731257
52.688743
52.646232
52.603723
52.561218
52.518718
52.476223
52.433732
52.391247
52.348766
52.30629
52.263818
52.22135
52.178884
52.13642
52.093959
52.051498
52.009038
51.966578
51.92412
51.881661
51.839204
51.796748
51.754294
51.711841
51.669389
51.626939
51.584491
51.542045
51.499602
51.457162
51.414725
51.372292
51.329863
51.287438
51.245018
51.202601
51.160189
51.11778
51.075375
51.032973
50.990575
50.948181
50.905791
50.863405
50.821022
50.778643
50.736266
50.693893
50.651522
50.609155
50.566792
50.524433
50.482078
50.439726
50.397378
50.355031
50.312685
50.270339
50.227992
50.185646
50.143301
50.100958
50.058617
50.016279
49.973944
49.931612
49.889282
49.846954
49.804627
49.762302
49.719979
49.677659
49.635343
49.593031
49.550723
49.508418
49.466116
49.423816
49.381517
49.339221
49.296926
49.254633
49.212343
49.170055
49.12777
49.085485
49.043202
49.000919
48.958637
48.916356
48.874077
48.831802
48.789528
48.747258
48.704988
48.662719
48.62045
48.578177
48.535903
48.493626
48.45135
48.409074
48.3668
48.324529
48.282261
48.239997
48.197736
48.155478
48.113221
48.070966
48.028713
47.986461
47.944211
47.901963
47.859716
47.817471
47.775227
47.732983
47.690739
47.648496
47.606255
47.564015
47.521777
47.479542
47.43731
47.395079
47.35285
47.310622
47.268395
47.226168
47.183942
47.141718
47.099496
47.057276
47.01506
46.972846
46.930635
46.888425
46.846217
46.804009
46.761802
46.719595
46.67739
46.635187
46.592986
46.550789
46.508595
46.466405
46.424218
46.382035
46.339853
46.297674
46.255496
46.213321
46.171147
46.128975
46.086805
46.044635
46.002466
45.960297
45.91813
45.875964
45.833799
45.791639
45.749481
45.707328
45.665179
45.623033
45.580889
45.538745
45.496602
45.454459
45.412316
45.370175
45.328036
45.285901
45.24377
45.201644
45.159524
45.117407
45.075295
45.033185
44.991075
44.948965
44.906851
44.864736
44.822622
44.780509
44.7384
44.696295
44.654196
44.612102
44.570014
44.527929
44.485845
44.443761
44.401674
44.359587
44.3175
44.275416
44.233335
44.19126
44.149191
44.107127
44.065066
44.023006
43.980945
43.938884
43.896824
43.854767
43.812715
43.770671
43.728634
43.686603
43.644578
43.602554
43.560529
43.518498
43.476464
43.434424
43.392384
43.350345
43.308308
43.266275
43.224247
43.182224
43.140205
43.098189
43.056176
43.014164
42.972154
42.930146
42.888142
42.846142
42.804149
42.762162
42.720181
42.678206
42.636234
42.594263
42.55229
42.510311
42.468328
42.42634
42.38435
42.342359
42.300369
42.258382
42.216398
42.17442
42.132449
42.090485
42.048527
42.006575
41.964627
41.92268
41.880733
41.838782
41.79683
41.754875
41.71292
41.670965
41.629012
41.587063
41.545119
41.503179
41.461244
41.419312
41.377382
41.335453
41.293524
41.251594
41.209663
41.16773
41.125797
41.083864
41.041929
40.999994
40.958058
40.916123
40.87419
40.832258
40.79033
40.748405
40.706484
40.664568
40.622655
40.580747
40.538843
40.496942
40.455043
40.413147
40.371252
40.329359
40.287469
40.245582
40.2037
40.161823
40.119949
40.078079
40.036209
39.99434
39.952468
39.910596
39.868723
39.826851
39.78498
39.743111
39.701243
39.659378
39.617517
39.575661
39.53381
39.491963
39.450118
39.408273
39.366421
39.324566
39.282706
39.240848
39.198992
39.15714
39.115295
39.073456
39.031624
38.989798
38.947976
38.906158
38.864343
38.822529
38.780712
38.738889
38.69706
38.655225
38.613391
38.571558
38.529731
38.48791
38.446098
38.404293
38.362493
38.320696
38.2789
38.2371
38.195296
38.153488
38.111677
38.069867
38.02806
37.986259
37.944467
37.902684
37.86091
37.819141
37.777375
37.735607
37.693832
37.652054
37.610271
37.568489
37.526708
37.484929
37.443155
37.401387
37.359623
37.317865
37.276111
37.234361
37.192612
37.150863
37.109112
37.06736
37.025606
36.983853
36.9421
36.90035
36.858603
36.816859
36.775118
36.733381
36.691648
36.649917
36.608189
36.566464
36.52474
36.483017
36.441294
36.39957
36.357847
36.316123
36.274401
36.232682
36.190966
36.149253
36.107544
36.065839
36.024137
35.982436
35.940737
35.899038
35.857341
35.815644
35.773949
35.732256
35.690566
35.648878
35.607192
35.565509
35.523828
35.482148
35.44047
35.398791
35.357113
35.315436
35.273759
35.232083
35.190408
35.148735
35.107065
35.065396
35.02373
34.982066
34.940404
34.898745
34.857087
34.81543
34.773776
34.732124
34.690474
34.648826
34.607181
34.565538
34.523896
34.482256
34.440616
34.398976
34.357335
34.315693
34.274052
34.232412
34.190772
34.149135
34.107501
34.065869
34.024241
33.982615
33.940992
33.899371
33.857751
33.816133
33.774515
33.732898
33.691281
33.649664
33.608048
33.566432
33.524818
33.483204
33.441592
33.399982
33.358373
33.316766
33.275161
33.233559
33.191959
33.150361
33.108765
33.067172
33.025579
32.983988
32.942399
32.90081
32.859223
32.817637
32.776052
32.734469
32.692887
32.651307
32.609728
32.56815
32.526574
32.485
32.443427
32.401856
32.360287
32.318721
32.277157
32.235595
32.194035
32.152477
32.110921
32.069367
32.027814
31.986263
31.944713
31.903165
31.861618
31.820074
31.778531
31.736989
31.695449
31.65391
31.612373
31.570837
31.529304
31.487772
31.446242
31.404715
31.36319
31.321667
31.280145
31.238624
31.197103
31.155583
31.114063
31.072544
31.031025
30.989507
30.947991
30.906475
30.864961
30.823449
30.78194
30.740433
30.698928
30.657426
30.615927
30.574429
30.532934
30.49144
30.449948
30.408458
30.36697
30.325482
30.283995
30.24251
30.201025
30.159543
30.118062
30.076582
30.035104
29.993627
29.952152
29.910678
29.869205
29.827734
29.786264
29.744796
29.70333
29.661865
29.6204
29.578936
29.537474
29.496012
29.454552
29.413093
29.371636
29.33018
29.288725
29.247272
29.205821
29.164371
29.122924
29.081477
29.040032
28.998587
28.957143
28.915699
28.874256
28.832813
28.79137
28.749927
28.708484
28.667042
28.625601
28.584162
28.542725
28.50129
28.459858
28.418429
28.377
28.335573
28.294146
28.25272
28.211297
28.169876
28.128459
28.087045
28.045634
28.004224
27.962814
27.921401
27.879986
27.83857
27.797155
27.755742
27.714333
27.672929
27.631529
27.590131
27.548733
27.507331
27.465926
27.424517
27.383108
27.3417
27.300294
27.258893
27.217495
27.1761
27.134707
27.093316
27.051925
27.010535
26.969145
26.927756
26.886366
26.844975
26.803581
26.762185
26.720786
26.679388
26.637992
26.596599
26.555211
26.51383
26.472453
26.431081
26.38971
26.348339
26.306965
26.265588
26.22421
26.182832
26.141454
26.100077
26.058702
26.017329
25.975957
25.934586
25.893218
25.851853
25.810491
25.769132
25.727777
25.686424
25.645073
25.603723
25.562372
25.521019
25.479665
25.43831
25.396955
25.3556
25.314247
25.272894
25.231544
25.190196
25.148852
25.107511
25.066175
25.024842
24.983512
24.942184
24.900858
24.859532
24.818205
24.776878
24.735551
24.694224
24.652898
24.611573
24.570249
24.528928
24.487609
24.446292
24.404977
24.363664
24.322355
24.281047
24.239743
24.198441
24.157142
24.115843
24.074546
24.033249
23.991952
23.950657
23.909362
23.868069
23.826776
23.785485
23.744195
23.702907
23.661623
23.620341
23.579062
23.537785
23.496509
23.455234
23.41396
23.372686
23.331414
23.290144
23.248875
23.207607
23.16634
23.125074
23.083809
23.042544
23.001282
22.960021
22.918763
22.877508
22.836255
22.795003
22.753753
22.712504
22.671255
22.630006
22.588759
22.547514
22.506272
22.465033
22.423796
22.382561
22.341325
22.300088
22.258851
22.217615
22.176381
22.13515
22.093923
22.052698
22.011475
21.970252
21.929027
21.8878
21.846573
21.805347
21.764122
21.722901
21.681684
21.640471
21.59926
21.558051
21.516842
21.47563
21.434417
21.393204
21.351992
21.310782
21.269573
21.228365
21.187158
21.145952
21.104746
21.063541
21.022339
20.981139
20.939945
20.898755
20.857569
20.816386
20.775204
20.734021
20.692837
20.651653
20.610468
20.569284
20.5281
20.486916
20.445733
20.404549
20.363367
20.322187
20.281011
20.239838
20.198669
20.157502
20.116338
20.075174
20.034009
19.992843
19.951677
19.910511
19.869345
19.82818
19.787015
19.74585
19.704686
19.663521
19.622358
19.581196
19.540036
19.498879
19.457724
19.41657
19.375417
19.334265
19.293113
19.251962
19.210813
19.169665
19.12852
19.087375
19.046232
19.005089
18.963946
18.922803
18.881662
18.840522
18.799384
18.758248
18.717113
18.675979
18.634845
18.593712
18.552579
18.511448
18.470319
18.429192
18.388067
18.346943
18.30582
18.264697
18.223575
18.182453
18.141333
18.100216
18.059102
18.017989
17.976877
17.935766
17.894655
17.853544
17.812435
17.771328
17.730224
17.689122
17.648023
17.606924
17.565825
17.524726
17.483628
17.442532
17.401439
17.360349
17.319262
17.278177
17.237091
17.196004
17.154918
17.113833
17.072752
17.031673
16.990599
16.949527
16.908455
16.867382
16.826308
16.785235
16.744164
16.703097
16.662035
16.620976
16.579919
16.538861
16.497799
16.456738
16.415679
16.374623
16.333572
16.292526
16.251483
16.21044
16.169392
16.128343
16.087296
16.046251
16.005211
15.964177
15.923148
15.882119
15.841088
15.800051
15.759015
15.717981
15.676951
15.635929
15.594913
15.553899
15.512884
15.47186
15.430835
15.389812
15.348792
15.307781
15.266777
15.225778
15.184779
15.14377
15.102756
15.061743
15.020733
14.979732
14.938739
14.897753
14.856769
14.815777
14.774776
14.733774
14.692774
14.65178
14.610796
14.569821
14.52885
14.48788
14.446893
14.405901
14.364909
14.323923
14.282947
14.241983
14.201026
14.16007
14.119097
14.078116
14.037136
13.996161
13.955194
13.914237
13.873288
13.83234
13.791384
13.750416
13.709448
13.668483
13.627525
13.586576
13.545635
13.504697
13.463755
13.422797
13.381839
13.340883
13.299933
13.258993
13.218059
13.177129
13.136195
13.095247
13.054299
13.013352
12.97241
12.931474
12.890547
12.849624
12.808703
12.767774
12.726835
12.685892
12.644951
12.604016
12.56309
12.522173
12.48126
12.440347
12.399419
12.35849
12.317562
12.276639
12.235721
12.194807
12.153894
12.112972
12.072046
12.031123
11.990203
11.949291
11.908385
11.867482
11.826579
11.785667
11.744749
11.70383
11.662913
11.622001
11.581096
11.540198
11.499303
11.458405
11.417494
11.376579
11.335666
11.294759
11.25386
11.212969
11.172081
11.131187
11.090282
11.049379
11.00848
10.967589
10.926707
10.885829
10.844949
10.804054
10.763156
10.722259
10.681366
10.64048
10.599601
10.558727
10.517854
10.476975
10.436086
10.395193
10.354301
10.313415
10.27254
10.231673
10.190811
10.149949
10.109069
10.068188
10.02731
9.9864407
9.9455818
9.9047303
9.8638802
9.8230156
9.7821418
9.7412699
9.700403
9.6595449
9.6186952
9.5778499
9.5370047
9.4961483
9.4552873
9.4144212
9.3735573
9.3326994
9.2918515
9.2510133
9.2101806
9.1693478
9.1284987
9.0876465
9.0467969
9.0059542
8.9651211
8.9242956
8.8834731
8.8426443
8.801804
8.7609645
8.7201262
8.6792932
8.6384677
8.5976489
8.5568334
8.5160164
8.4751846
8.4343482
8.3935128
8.3526828
8.3118623
8.2710518
8.230248
8.1894462
8.1486373
8.1078214
8.0670034
8.0261861
7.9853743
7.9445715
7.9037775
7.8629881
7.8221956
7.7813819
7.7405658
7.6997514
7.6589437
7.6181455
7.5773559
7.5365709
7.4957872
7.4550017
7.4142165
7.3734285
7.3326348
7.2918385
7.2510431
7.2102515
7.1694671
7.128691
7.0879217
7.0471554
7.0063855
6.9656035
6.9248195
6.8840321
6.8432467
6.8024653
6.7616902
6.7209231
6.6801635
6.6394089
6.5986554
6.5578928
6.5171243
6.4763573
6.435593
6.3948331
6.3540763
6.3133197
6.2725549
6.2317875
6.1910216
6.1502597
6.1095045
6.0687565
6.0280136
5.9872723
5.9465251
5.9057743
5.8650259
5.824281
5.78354
5.7428013
5.7020604
5.6613117
5.6205645
5.5798203
5.5390825
5.4983516
5.4576244
5.4168939
5.3761433
5.3353925
5.2946453
5.2539088
5.2131865
5.1724757
5.1317694
5.0910497
5.0503067
5.0095654
4.9688265
4.9280969
4.8873787
4.8466693
4.8059633
4.7652486
4.7245169
4.6837831
4.6430499
4.6023223
4.5616031
4.5208916
4.4801847
4.4394791
4.3987714
4.3580591
4.3173362
4.2766119
4.2358927
4.1951827
4.1544812
4.113783
4.0730743
4.0323529
3.9916352
3.9509209
3.910211
3.8695036
3.8287963
3.7880887
3.7473824
3.7066788
3.6659775
3.6252772
3.5845765
3.5438763
3.5031786
3.4624851
3.4217954
3.3811074
3.3404127
3.2997042
3.258997
3.2182926
3.1775945
3.136903
3.0962158
3.0555299
3.0148399
2.9741437
2.9334485
2.8927559
2.852067
2.8113803
2.7706925
2.7299974
2.6893039
2.6486124
2.607924
2.5672384
2.5265553
2.485874
2.4451934
2.4045126
2.3638284
2.323141
2.2824525
2.2417667
2.2010854
2.1604085
2.1197338
2.0790594
2.0383813
1.9976995
1.9570152
1.916335
1.8756619
1.8349953
1.7943303
1.7536515
1.7129705
1.6722962
1.6316291
1.5909659
1.5503007
1.5096261
1.4689542
1.4282861
1.3876229
1.3469612
1.3062939
1.2656288
1.2249669
1.1843067
1.1436475
1.1029895
1.0623287
1.021664
0.98100524
0.94035054
0.89969475
0.85903372
0.81837798
0.77772871
0.73708257
0.696423
0.65576194
0.61510789
0.57445445
0.53380125
0.49315204
0.45250903
0.41186893
0.37121511
0.33057554
0.28994183
0.24928221
0.20863973
0.16799698
0.1273492
0.086717472
0.046092736
0.0054220328
0.035278035
0.075930558
0.11658485
0.15723849
0.19788959
0.23853903
0.27918701
0.31983367
0.36047908
0.40112332
0.44176647
0.48240856
0.52304965
0.56368978
0.60432899
0.64496731
0.68560479
0.72624143
0.76687727
0.80751234
0.84814666
0.88878026
0.92941318
0.97004544
1.0106771
1.0513081
1.0919385
1.1325684
1.1731978
1.2138266
1.254455
1.2950829
1.3357105
1.3763376
1.4169644
1.4575909
1.4982172
1.5388431
1.5794689
1.6200944
1.6607198
1.7013452
1.7419704
1.7825957
1.8232211
1.8638465
1.9044719
1.9450976
1.9857234
2.0263495
2.0669759
2.1076026
2.1482298
2.1888575
2.2294857
2.2701145
2.3107439
2.3513741
2.392005
2.4326368
2.4732695
2.5139032
2.5545379
2.5951738
2.635811
2.6764494
2.7170892
2.7577305
2.7983733
2.8390178
2.8796641
2.9203123
2.9609624
3.0016146
3.042269
3.0829256
3.1235847
3.1642464
3.2049107
3.2455778
3.2862478
3.3269209
3.3675972
3.4082769
3.4489601
3.4896471
3.5303378
3.5710326
3.6117315
3.6524348
3.6931427
3.7338554
3.774573
3.8152957
3.8560238
3.8967575
3.937497
3.9782426
4.0189945
4.059753
4.1005182
4.1412905
4.1820701
4.2228574
4.2636525
4.3044559
4.3452678
4.3860885
4.4269184
4.4677578
4.5086069
4.5494662
4.5903357
4.6312161
4.672108
4.7130119
4.7539277
4.794856
4.8357972
4.8767518
4.9177203
4.9587029
4.9997003
5.0407129
5.0817411
5.1227855
5.1638466
5.2049249
5.246021
5.2871354
5.3282686
5.3694211
5.4105936
5.4517867
5.493001
5.534237
5.5754954
5.6167769
5.6580819
5.6994113
5.7407656
5.7821455
5.8235518
5.864985
5.906446
5.9479353
5.9894538
6.031002
6.0725809
6.114191
6.1558332
6.1975081
6.2392166
6.2809593
6.3227371
6.3645506
6.4064011
6.4482898
6.4902172
6.5321834
6.5741885
6.6162337
6.6583205
6.7004499
6.7426222
6.7848382
6.8270987
6.8694047
6.9117567
6.9541557
6.9966024
7.0390976
7.0816421
7.1242366
7.1668818
7.2095784
7.2523274
7.2951292
7.3379848
7.3808947
7.4238596
7.4668803
7.5099573
7.5530913
7.5962829
7.6395328
7.6828415
7.7262096
7.7696376
7.813126
7.8566754
7.9002862
7.943959
7.987694
8.0314918
8.0753526
8.1192769
8.163265
8.2073171
8.2514335
8.2956145
8.3398603
8.3841709
8.4285466
8.4729875
8.5174935
8.5620649
8.6067014
8.6514032
8.6961702
8.7410021
8.7858989
8.8308604
8.8758863
8.9209764
8.9661304
9.011348
9.0566287
9.1019721
9.1473778
9.1928453
9.238374
9.2839633
9.3296127
9.3753214
9.4210888
9.466914
9.5127964
9.5587352
9.6047293
9.650778
9.6968803
9.7430352
9.7892417
9.8354988
9.8818053
9.9281602
9.9745623
10.02101
10.067503
10.114039
10.160618
10.207237
10.253896
10.300593
10.347327
10.394095
10.440898
10.487733
10.534598
10.581493
10.628415
10.675364
10.722337
10.769332
10.816349
10.863385
10.910438
10.957508
11.004592
11.051689
11.098796
11.145913
11.193037
11.240166
11.2873
11.334435
11.381571
11.428705
11.475836
11.522962
11.570081
11.617191
11.664291
11.71138
11.758454
11.805514
11.852556
11.899579
11.946582
11.993563
12.04052
12.087452
12.134357
12.181234
12.228081
12.274897
12.321679
12.368428
12.41514
12.461816
12.508452
12.555049
12.601605
12.648118
12.694588
12.741012
12.78739
12.833721
12.880004
12.926237
12.972421
13.018554
13.064635
13.110665
13.156642
13.202566
13.248437
13.294253
13.340011
13.385712
13.431352
13.476933
13.522452
13.567911
13.613311
13.658653
13.703936
13.74916
13.794324
13.839427
13.884468
13.929446
13.974363
14.019219
14.064014
14.108749
14.153424
14.198038
14.242591
14.287082
14.33151
14.375874
14.420176
14.464415
14.508595
14.552717
14.596781
14.64079
14.68474
14.728632
14.772465
14.816237
14.85995
14.903606
14.947207
14.990755
15.03425
15.077692
15.121081
15.164416
15.207699
15.250929
15.294108
15.337237
15.380315
15.423345
15.466327
15.509261
15.552149
15.594991
15.637787
15.680538
15.723245
15.765909
15.808529
15.851107
15.893643
15.936139
15.978596
16.021014
16.063393
16.105734
16.148037
16.190303
16.232533
16.274728
16.316889
16.359017
16.401111
16.443172
16.4852
16.527197
16.569163
16.611099
16.653005
16.694883
16.736732
16.778552
16.820345
16.862111
16.903851
16.945565
16.987253
17.028917
17.070556
17.112172
17.153763
17.195332
17.236879
17.278403
17.319906
17.361387
17.402848
17.444288
17.485708
17.527109
17.56849
17.609852
17.651196
17.692521
17.733829
17.775119
17.816391
17.857647
17.898886
17.940108
17.981314
18.022505
18.063679
18.104838
18.145982
18.18711
18.228223
18.269322
18.310405
18.351473
18.392527
18.433566
18.47459
18.515599
18.556594
18.597575
18.638543
18.679497
18.720439
18.761369
18.80229
18.843201
18.884106
18.925005
18.965899
19.006791
19.04768
19.088567
19.129451
19.170331
19.211205
19.25207
19.292922
19.333758
19.374574
19.415365
19.456131
19.496869
19.537582
19.578273
19.618949
19.659618
19.70029
19.74097
19.781661
19.822364
19.863076
19.903791
19.9445
19.98519
20.025856
20.066494
20.107101
20.147682
20.188243
20.228796
20.269353
20.309922
20.350505
20.391101
20.431702
20.472305
20.512882
20.55343
20.593944
20.634435
20.674905
20.715375
20.755852
20.796341
20.836842
20.87735
20.917861
20.958358
20.998819
21.039253
21.079659
21.120058
21.160462
21.200875
21.241298
21.281729
21.322161
21.362582
21.402971
21.443338
21.48368
21.524018
21.564361
21.604711
21.645069
21.685429
21.725783
21.766109
21.806411
21.846691
21.886959
21.927226
21.967496
22.007765
22.048031
22.08828
22.128499
22.168692
22.208865
22.249024
22.289183
22.329338
22.369493
22.409633
22.449755
22.489857
22.529947
22.570038
22.610133
22.650231
22.690332
22.730433
22.770527
22.810616
22.850705
22.890799
22.930897
22.970999
23.011103
23.051206
23.091303
23.131398
23.171493
23.211589
23.251684
23.291779
23.331869
23.371955
23.412038
23.45212
23.492201
23.53228
23.572359
23.612435
23.652509
23.69258
23.73265
23.772717
23.812782
23.852844
23.892903
23.932958
23.973011
24.01306
24.053106
24.093149
24.13319
24.173227
24.21326
24.253291
24.293319
24.333344
24.373365
24.413384
24.4534
24.493413
24.533423
24.57343
24.613435
24.653437
24.693437
24.733434
24.773429
24.813421
24.853412
24.893399
24.933385
24.973369
25.01335
25.05333
25.093307
25.133283
25.173257
25.213229
25.253199
25.293168
25.333135
25.3731
25.413064
25.453026
25.492987
25.532947
25.572905
25.612862
25.652818
25.692773
25.732727
25.77268
25.812632
25.852584
25.892535
25.932485
25.972434
26.012384
26.052332
26.09228
26.132228
26.172176
26.212124
26.252072
26.29202
26.331968
26.371916
26.411865
26.451815
26.491764
26.531715
26.571666
26.611617
26.65157
26.691523
26.731477
26.771433
26.811389
26.851347
26.891307
26.931267
26.971229
27.011193
27.051159
27.091126
27.131095
27.171066
27.211039
27.251015
27.290992
27.330972
27.370954
27.410938
27.450926
27.490915
27.530908
27.570904
27.610902
27.650903
27.690908
27.730915
27.770926
27.810939
27.850956
27.890977
27.931001
27.971028
28.01106
28.051095
28.091134
28.131178
28.171225
28.211277
28.251333
28.291394
28.331459
28.371528
28.411602
28.45168
28.491764
28.531852
28.571945
28.612044
28.652148
28.692257
28.732373
28.772494
28.812621
28.852754
28.892894
28.933039
28.973191
29.013349
29.053514
29.093685
29.133863
29.174048
29.214239
29.254438
29.294643
29.334855
29.375074
29.4153
29.455534
29.495775
29.536023
29.576279
29.616543
29.656814
29.697093
29.737379
29.777673
29.817975
29.858285
29.898603
29.93893
29.979265
30.019609
30.059962
30.100323
30.140692
30.181069
30.221456
30.261852
30.302257
30.342672
30.383096
30.423529
30.463968
30.504413
30.544863
30.585319
30.625779
30.666245
30.706717
30.747195
30.787679
30.828169
30.868666
30.909172
30.949689
30.990221
31.030772
31.071343
31.111936
31.152548
31.193178
31.233822
31.274476
31.31514
31.355814
31.396503
31.437208
31.477933
31.518675
31.559432
31.600198
31.640965
31.681731
31.722497
31.763268
31.804055
31.844865
31.885703
31.926564
31.967438
32.008312
32.049174
32.09002
32.130859
32.171706
32.212583
32.253503
32.294472
32.335474
32.376484
32.41747
32.458413
32.499315
32.540199
32.581111
32.622097
32.663181
32.704343
32.745544
32.786744
32.827917
32.869071
32.910277
32.952179
32.995785
33.035138
33.073275
33.114951
33.157312
33.198614
33.240107
33.281813
33.32347
33.365093
33.406781
33.448528
33.490292
33.532062
33.573823
33.615559
33.657265
33.698945
33.740606
33.78226
33.823911
33.86556
33.907205
33.948844
33.990472
34.032085
34.073686
34.115281
34.156872
34.198462
34.240053
34.281647
34.323245
34.364846
34.406451
34.448059
34.489671
34.531288
34.572912
34.614543
34.656184