/*--------------------------------*- C++ -*----------------------------------*\
  =========                 |
  \\      /  F ield         | OpenFOAM: The Open Source CFD Toolbox
   \\    /   O peration     | Website:  https://openfoam.org
    \\  /    A nd           | Version:  7
     \\/     M anipulation  |
\*---------------------------------------------------------------------------*/
FoamFile
{
    version     2.0;
    format      ascii;
    class       volScalarField;
    location    "0.00347";
    object      mag(U);
}
// * * * * * * * * * * * * * * * * * * * * * * * * * * * * * * * * * * * * * //

dimensions      [0 1 -1 0 0 0 0];

internalField   nonuniform List<scalar> 
5000
(
0.075263169
0.075669401
0.074601733
0.075661061
0.075136328
0.075221651
0.075238919
0.075226271
0.075264991
0.075265888
0.075249511
0.075247636
0.075249397
0.075247774
0.075243889
0.075240976
0.075239783
0.075238903
0.075238004
0.075237112
0.075236249
0.075235401
0.075234558
0.075233744
0.075232957
0.075232181
0.07523142
0.075230674
0.075229945
0.075229232
0.075228533
0.075227844
0.075227166
0.075226503
0.075225854
0.075225217
0.075224591
0.075223976
0.075223368
0.07522277
0.075222184
0.075221609
0.075221045
0.075220488
0.075219937
0.075219396
0.07521886
0.075218328
0.075217867
0.075217649
0.075217698
0.075217736
0.075217755
0.075217811
0.075217868
0.075217972
0.075218259
0.075218701
0.07521871
0.075218476
0.075218446
0.075218488
0.075218544
0.075218708
0.075219246
0.075220708
0.075220401
0.075217596
0.075215698
0.075215965
0.0752163
0.075217333
0.075216937
0.075215755
0.075215769
0.075215196
0.075214982
0.075215143
0.075215371
0.075216001
0.075215514
0.075213608
0.075214063
0.075216022
0.075215161
0.075211512
0.07521102
0.075212611
0.075210583
0.075209159
0.075211799
0.075211916
0.07520871
0.075208291
0.07521022
0.075208545
0.075207171
0.075209806
0.075209893
0.075206549
0.075206057
0.075207923
0.075206014
0.075205228
0.075207001
0.075205091
0.075204305
0.075206067
0.075204206
0.075202924
0.075205633
0.075205728
0.075202524
0.075201701
0.075204549
0.075204636
0.075201343
0.075200566
0.075203566
0.075203595
0.075200455
0.075198261
0.075198478
0.075198712
0.07519953
0.075201186
0.075201158
0.075198372
0.075197363
0.075200122
0.075200185
0.075196949
0.075196527
0.075198298
0.075196863
0.075194945
0.075195049
0.075195225
0.075195771
0.075194527
0.075194466
0.07519733
0.075197305
0.075193769
0.075193103
0.075195168
0.075194348
0.075193476
0.075194065
0.075192228
0.075191833
0.075193159
0.075191377
0.075190508
0.075193079
0.075193106
0.075190037
0.075189651
0.075191234
0.075189542
0.075188922
0.075190391
0.075188725
0.075187993
0.07519073
0.075190733
0.075187524
0.075186855
0.075189627
0.075189622
0.075186463
0.07518583
0.075188536
0.075188535
0.075185376
0.07518486
0.075186301
0.075184686
0.075184131
0.075185496
0.075183892
0.075183362
0.075184719
0.075183311
0.075181677
0.075181829
0.075182059
0.075182794
0.07518234
0.075182316
0.07518417
0.075183783
0.075180669
0.075180186
0.075181598
0.075179995
0.075179468
0.075180821
0.075179224
0.075178687
0.075180029
0.075178453
0.075177846
0.075180476
0.075180461
0.075177343
0.075176836
0.075178237
0.07517666
0.075176145
0.075177479
0.075175909
0.075175293
0.075177899
0.07517788
0.075174785
0.07517428
0.075175729
0.075174303
0.075173538
0.075174683
0.075173276
0.075172866
0.075174082
0.075172815
0.075171165
0.075171266
0.075171409
0.075171948
0.075173143
0.075173009
0.07517081
0.075168972
0.075169041
0.075169115
0.075169379
0.075169824
0.075171178
0.075171172
0.0751687
0.075168048
0.075170444
0.075170401
0.075167634
0.075165841
0.075165919
0.075166
0.075166291
0.075166773
0.07516824
0.075168217
0.075165441
0.075164941
0.075166373
0.075164735
0.075164071
0.075166778
0.075166764
0.075163544
0.075163016
0.075164549
0.075163316
0.07516157
0.075161665
0.075161807
0.075162328
0.075163528
0.075163398
0.075160889
0.07516029
0.075163095
0.075163081
0.075159777
0.075159241
0.075160744
0.075159069
0.075158504
0.075159932
0.07515825
0.075157693
0.075159114
0.075157515
0.075156608
0.075157768
0.075156624
0.0751555
0.075155751
0.075156093
0.075157161
0.075156233
0.075153191
0.07515265
0.075152957
0.075153301
0.075154335
0.0751533
0.075153271
0.075154524
0.0751529
0.075151598
0.075152422
0.075151675
0.075151007
0.075151135
0.075151287
0.075151793
0.075152945
0.075152714
0.075149967
0.075149477
0.075150992
0.075149274
0.075148589
0.075151463
0.075151452
0.075148055
0.075147489
0.075149012
0.075147345
0.075146676
0.075148068
0.075146793
0.075145133
0.075145252
0.075145413
0.075145976
0.075147215
0.075147064
0.075144509
0.075143906
0.07514528
0.07514384
0.075142302
0.075142679
0.075143169
0.075144801
0.075144814
0.075141989
0.075140253
0.075141111
0.075140371
0.075139697
0.075139791
0.075139915
0.075140234
0.075139257
0.075138456
0.075138854
0.075139405
0.075141196
0.075141196
0.075138156
0.075137601
0.075139686
0.075139122
0.07513799
0.075138112
0.075136512
0.075136249
0.075137277
0.075135559
0.075135104
0.075137902
0.075137862
0.075134512
0.075133993
0.075135501
0.075133782
0.075133238
0.075134679
0.075132952
0.075132388
0.075133822
0.075132117
0.075131476
0.07513428
0.075134212
0.075131036
0.075129382
0.075129814
0.075130312
0.075132028
0.075132057
0.07512918
0.075128643
0.075131508
0.075131468
0.075128124
0.075127608
0.075129078
0.075127533
0.075125874
0.075126115
0.075126447
0.075127515
0.075127459
0.075127462
0.075127472
0.075125105
0.075124638
0.075126082
0.075124363
0.075123815
0.075125227
0.075123532
0.075122993
0.07512438
0.075122723
0.075122073
0.075124699
0.075124643
0.075121569
0.07512106
0.075122355
0.075120989
0.075119523
0.075119621
0.075119755
0.075120131
0.075119351
0.075119172
0.075119865
0.075118989
0.075118742
0.075119467
0.075118908
0.075118514
0.075118811
0.075118456
0.075118117
0.075118118
0.075118119
0.075118128
0.075118138
0.075118175
0.075118218
0.075118342
0.075118535
0.075118785
0.075119118
0.075119506
0.075119932
0.075120407
0.075120906
0.075121444
0.07512202
0.075122629
0.075123294
0.075124007
0.075124783
0.075125632
0.075126557
0.075127573
0.07512868
0.075129877
0.075131168
0.07513254
0.075134016
0.075135611
0.075137311
0.075139103
0.075140863
0.075142529
0.075144232
0.075146011
0.075147876
0.075149806
0.075151732
0.075153498
0.075154991
0.075156178
0.075157229
0.075158416
0.075160002
0.07516183
0.075163179
0.075164048
0.075165086
0.07516695
0.075169379
0.075171105
0.075171986
0.075172463
0.07517331
0.075175005
0.075176604
0.07517744
0.075178003
0.07517851
0.075178676
0.075178523
0.075178499
0.075178426
0.075178321
0.075178167
0.075177863
0.075177202
0.075176324
0.075176418
0.075176771
0.075176544
0.075176119
0.075174716
0.075175057
0.07517792
0.075178625
0.075178033
0.075177365
0.075176972
0.075178276
0.075179338
0.075178227
0.075176521
0.075176547
0.075178981
0.075180317
0.075179642
0.075178811
0.075178462
0.075179711
0.075180781
0.075180246
0.075179615
0.075178827
0.075179745
0.075182077
0.075181912
0.075181511
0.07518148
0.075181343
0.07518133
0.075180697
0.075180134
0.075181091
0.075182332
0.075182199
0.075182185
0.075182131
0.07518207
0.075181905
0.075181625
0.075181269
0.075180258
0.075178974
0.0751803
0.075184041
0.075184505
0.075183688
0.075183595
0.075183261
0.075182925
0.075181752
0.07518104
0.07518232
0.075183178
0.07518282
0.075182801
0.075182734
0.075182658
0.075182438
0.075182142
0.075181539
0.075180542
0.075178545
0.075178118
0.075180583
0.075182428
0.075182017
0.075181952
0.075181739
0.075181465
0.075180956
0.075179654
0.075178922
0.075179994
0.075181086
0.075180737
0.075180702
0.075180584
0.075180447
0.075180038
0.075179442
0.075178321
0.075175682
0.075175441
0.075178367
0.075179236
0.075178662
0.07517853
0.075178081
0.07517754
0.075176436
0.075176169
0.075176056
0.075175785
0.075175411
0.075174254
0.075174775
0.075175847
0.075175809
0.075175753
0.075175448
0.075175108
0.075174038
0.075173102
0.075173305
0.075173109
0.07517346
0.075173522
0.075173392
0.075173192
0.075172804
0.075171259
0.075171061
0.075173499
0.075174281
0.075173629
0.075173594
0.075173471
0.07517333
0.075172939
0.075172374
0.07517155
0.075171333
0.075171065
0.075170523
0.075170055
0.075167952
0.075167673
0.07517042
0.075171313
0.075170635
0.075170612
0.075170527
0.075170448
0.075170192
0.075169908
0.075169525
0.075168999
0.075168277
0.07516741
0.075165885
0.07516304
0.075162916
0.075166293
0.075168096
0.075167428
0.075167203
0.07516648
0.075165255
0.075164816
0.075165501
0.075165588
0.075165469
0.075165345
0.075164862
0.075164268
0.075164666
0.075165212
0.075164968
0.075164822
0.075164239
0.075163703
0.075163565
0.075163196
0.075163147
0.075163021
0.075162887
0.075162605
0.075162281
0.075161622
0.075161447
0.075160919
0.075160312
0.075161581
0.07516271
0.075162233
0.075162033
0.075161357
0.075160378
0.075159966
0.07515988
0.075159619
0.075159839
0.075159874
0.075159774
0.075159534
0.075159158
0.075159017
0.075158497
0.075158472
0.075158382
0.075158265
0.075158022
0.075157339
0.075157018
0.075156827
0.075156349
0.07515661
0.075156619
0.075156476
0.075156019
0.075156045
0.075157568
0.075157794
0.07515736
0.075157141
0.075156329
0.075155869
0.075155655
0.07515511
0.075154701
0.075153415
0.075153152
0.075154953
0.075155821
0.075155422
0.075155331
0.07515496
0.075154722
0.075154305
0.075153415
0.075153008
0.075152082
0.075150534
0.075150243
0.075151246
0.075151139
0.075151216
0.075151187
0.075151064
0.075152521
0.075153048
0.07515254
0.075152071
0.07515017
0.07514991
0.07515184
0.07515219
0.075152034
0.075152012
0.075151818
0.075151626
0.075150808
0.075150112
0.075150869
0.075151143
0.075150817
0.075150752
0.07515044
0.075150291
0.075149907
0.075149176
0.075148777
0.075147815
0.075146268
0.075145791
0.075146613
0.075146574
0.075146485
0.075145718
0.075143176
0.075143578
0.075147533
0.075149142
0.075148479
0.075148109
0.075146529
0.075145988
0.075147749
0.075148458
0.075148085
0.075147823
0.075146793
0.07514651
0.075146155
0.075145066
0.075145093
0.075146301
0.075147302
0.075147012
0.075146835
0.07514618
0.075145198
0.075144859
0.075144792
0.075144655
0.075144826
0.075144893
0.07514488
0.07514486
0.075144787
0.075144562
0.075144184
0.075143055
0.07514074
0.075141058
0.075144579
0.075145761
0.075145221
0.075145144
0.075144703
0.075144576
0.075144206
0.075143406
0.075143139
0.075142181
0.075140674
0.075140747
0.075142038
0.075142206
0.07514219
0.075142173
0.075142024
0.075142005
0.075141956
0.075141777
0.075141597
0.075140819
0.075139401
0.075140746
0.075144683
0.075145014
0.075144028
0.075143768
0.075142791
0.07514091
0.075140749
0.075143194
0.075144875
0.075144366
0.075144397
0.075144363
0.075144291
0.075143911
0.07514331
0.075143141
0.075142793
0.075142066
0.075142041
0.075141904
0.075141952
0.075143251
0.075143773
0.075143559
0.075143532
0.075143143
0.075143054
0.075142777
0.075141969
0.075141882
0.07514137
0.075140663
0.07514142
0.075142769
0.075142775
0.075142751
0.075142628
0.075142206
0.075142005
0.075142206
0.075142237
0.075142203
0.075141669
0.075140147
0.075141131
0.075144917
0.075145828
0.075145125
0.075145094
0.075144757
0.075144359
0.075144149
0.075143861
0.075143371
0.075143691
0.075144002
0.075143693
0.075143166
0.07514344
0.075144659
0.07514504
0.075145065
0.075145066
0.075145065
0.075144821
0.075144924
0.075145625
0.075145784
0.075145857
0.07514579
0.075145547
0.075144111
0.075144796
0.075148602
0.075149782
0.075149164
0.075149215
0.075148775
0.075148561
0.075149493
0.075150115
0.075149965
0.075150254
0.075150439
0.075150442
0.075150429
0.075150405
0.075150436
0.075150408
0.07515032
0.075150108
0.075149206
0.07514726
0.075147809
0.075151557
0.075153606
0.075153401
0.075153462
0.075153354
0.07515305
0.07515199
0.075152139
0.075153711
0.075154091
0.07515405
0.075154154
0.07515413
0.075153967
0.075154876
0.07515619
0.075156199
0.075156189
0.075155533
0.075153827
0.075154745
0.07515847
0.075159433
0.075158711
0.075158862
0.075158512
0.075158453
0.075159797
0.07516097
0.07516094
0.075160894
0.075160105
0.075158444
0.075158809
0.075161249
0.075162261
0.075162257
0.07516224
0.075161748
0.075162229
0.075164224
0.075165814
0.075165756
0.075165669
0.075164754
0.075162529
0.075162969
0.075166683
0.075168784
0.075168226
0.0751684
0.075168384
0.075168191
0.075169304
0.075170885
0.075170968
0.075170939
0.075170741
0.075170234
0.075171084
0.07517265
0.075173055
0.075173396
0.075173351
0.075173226
0.075174802
0.075176562
0.075176547
0.075176876
0.075177609
0.075177961
0.075177881
0.075177952
0.075177531
0.07517764
0.075179789
0.075181524
0.07518115
0.075181724
0.075182081
0.075182134
0.075183601
0.075185061
0.075185055
0.075185045
0.075185005
0.075184689
0.075184974
0.075186958
0.075188843
0.075188784
0.075189466
0.075189814
0.075189716
0.075189056
0.075189469
0.075192102
0.075193498
0.075193246
0.075193366
0.075192964
0.075191679
0.075192753
0.075196491
0.075197598
0.075196878
0.075197612
0.075198112
0.075198108
0.075199409
0.075201012
0.07520094
0.075200989
0.075201556
0.07520187
0.075201904
0.075203433
0.075205791
0.075206104
0.075205994
0.075205853
0.075205871
0.075205434
0.075205883
0.075208085
0.075208962
0.07520899
0.075210105
0.075211029
0.075211197
0.075212355
0.075213164
0.07521304
0.075212864
0.075211964
0.07521293
0.075215819
0.07521689
0.075216655
0.075216267
0.075216474
0.075218129
0.075219564
0.07521925
0.075219184
0.075218883
0.075217995
0.075219779
0.075223713
0.075223931
0.075222736
0.075223384
0.075223738
0.075223558
0.075224926
0.075226723
0.075226522
0.075226256
0.075225935
0.07522504
0.075225269
0.075227368
0.075228848
0.07522827
0.075227983
0.075227361
0.075226082
0.075227306
0.075230839
0.075231275
0.075230187
0.075230315
0.075230253
0.07522957
0.075228793
0.075229914
0.075232222
0.075231811
0.075230924
0.075230729
0.07523032
0.075229491
0.075228567
0.075227303
0.075227664
0.075229426
0.075228803
0.07522755
0.075226799
0.075225782
0.075224024
0.075222995
0.075224167
0.075224846
0.075223154
0.075221989
0.07522055
0.075218567
0.075216157
0.07521463
0.075214617
0.075213368
0.07521116
0.075209268
0.075206872
0.075203683
0.075202813
0.075204046
0.075201942
0.075198323
0.075195877
0.07519297
0.075189252
0.075185079
0.075182715
0.075181654
0.075177744
0.07517337
0.075169654
0.075165397
0.075160262
0.075154625
0.075151051
0.07514861
0.075142881
0.075136649
0.0751312
0.075125027
0.075117787
0.075110927
0.075105673
0.075099815
0.07509157
0.075083235
0.075074196
0.075063893
0.0750549
0.075047941
0.075039349
0.075028089
0.075017232
0.075005531
0.0749936
0.074982983
0.074971412
0.074957428
0.074943101
0.074927711
0.074910656
0.074895095
0.074881699
0.074866394
0.07484792
0.074828924
0.074808839
0.074787293
0.074766123
0.074746324
0.074724949
0.074700411
0.074675551
0.074649336
0.074621195
0.074592967
0.074565763
0.07453709
0.074504778
0.074471575
0.074436917
0.074400377
0.074362197
0.074324216
0.074286396
0.074244444
0.074199851
0.074153863
0.074104958
0.074055486
0.074006249
0.073953739
0.073897293
0.073839317
0.073778672
0.073716025
0.07365276
0.073586291
0.073515207
0.073441662
0.073364727
0.073285541
0.073205121
0.07312028
0.073030919
0.07293803
0.072841407
0.07274263
0.072639612
0.072530689
0.072418584
0.072301748
0.072180155
0.072055677
0.071926195
0.071789579
0.071647696
0.071499842
0.071345244
0.071186661
0.07102471
0.070855388
0.070676827
0.070491661
0.070298953
0.070097827
0.06989084
0.069678538
0.069456972
0.069224288
0.068982957
0.068731985
0.068470444
0.068200754
0.067923353
0.067634234
0.067331542
0.067017597
0.066691313
0.066351647
0.066000864
0.065639649
0.065263666
0.064870595
0.064463769
0.064041286
0.063602119
0.063146364
0.062673037
0.062184033
0.061678094
0.061149956
0.060601163
0.060033323
0.059443709
0.058831292
0.058195718
0.05753732
0.056856579
0.056150093
0.055414884
0.054652452
0.053861492
0.05304092
0.052189515
0.051307686
0.050396137
0.049450325
0.048466592
0.047447309
0.04639038
0.045294052
0.044157505
0.042979274
0.041759999
0.040497018
0.039184538
0.037823741
0.036415198
0.034954905
0.033440571
0.031871224
0.030244836
0.028561261
0.026818101
0.025009251
0.023134178
0.021192779
0.019181047
0.01709627
0.014936204
0.012699958
0.01038612
0.0079888258
0.0055032515
0.0029290644
0.0002632076
0.0024980155
0.0053583542
0.0083188961
0.011381388
0.01455415
0.01784116
0.021242715
0.02476565
0.028412921
0.032185542
0.036090035
0.040131057
0.044313966
0.048645366
0.053126447
0.057762029
0.062560995
0.067521515
0.072651635
0.077968859
0.083463928
0.089142973
0.095042022
0.10112177
0.10738872
0.11390299
0.12062816
0.1275701
0.13476486
0.14219798
0.14987651
0.1578218
0.16603389
0.17451863
0.18329216
0.19235842
0.20172454
0.21140456
0.22140766
0.23174257
0.24241989
0.25344925
0.26484288
0.27661012
0.28876067
0.30131154
0.31427379
0.3276556
0.34147333
0.3557394
0.37046315
0.3856613
0.4013486
0.41753815
0.43424715
0.45148642
0.46926949
0.48761927
0.50654814
0.52607006
0.54620817
0.56697064
0.58837717
0.61046055
0.63321858
0.65667124
0.68087823
0.70579393
0.73144288
0.75791039
0.78516771
0.81323745
0.84216255
0.87194531
0.90260808
0.93418524
0.96669208
1.0001503
1.0345872
1.0700214
1.1064801
1.1439898
1.1825705
1.2222478
1.2630467
1.3049917
1.3481125
1.3924329
1.4379764
1.4847721
1.5328432
1.5822134
1.6329148
1.684974
1.7384135
1.7932631
1.8495471
1.9072889
1.9665187
2.0272607
2.0895412
2.1533902
2.2188259
2.2858736
2.3545652
2.4249132
2.4969465
2.570705
2.6461809
2.7234042
2.8024413
2.8832365
2.9658237
3.0502832
3.1365807
3.224741
3.3147954
3.4067391
3.5005907
3.5963726
3.6940838
3.7937358
3.8953418
3.9988993
4.1044147
4.2118963
4.3213417
4.4327507
4.5461218
4.6614481
4.7787242
4.8979408
5.0190878
5.1421566
5.2671298
5.393989
5.522719
5.6532941
5.78569
5.9198869
6.0558536
6.1935592
6.3329754
6.4740614
6.6167808
6.761099
6.9069665
7.0543457
7.2031973
7.353456
7.5050831
7.6580384
7.8122287
7.9676289
8.1242131
8.2818322
8.4404709
8.6001082
8.7606196
8.9219664
9.0840876
9.2468971
9.4103362
9.5743368
9.7388165
9.9037123
10.068954
10.234461
10.400166
10.565994
10.731868
10.897718
11.063472
11.229054
11.394395
11.559421
11.724058
11.888238
12.051892
12.214951
12.377348
12.539016
12.69989
12.859907
13.019003
13.177119
13.334197
13.490177
13.645008
13.798633
13.951002
14.102064
14.251772
14.400081
14.546949
14.692328
14.836189
14.978499
15.119201
15.258261
15.395667
15.531388
15.665392
15.797659
15.928165
16.056888
16.183811
16.308918
16.432194
16.553627
16.673207
16.790925
16.906775
17.02075
17.132848
17.243067
17.351408
17.457872
17.562462
17.665182
17.766038
17.865038
17.962189
18.057502
18.150987
18.242657
18.332524
18.420603
18.506907
18.591453
18.674258
18.755339
18.834714
18.912402
18.988423
19.062796
19.135541
19.206677
19.276231
19.344227
19.410686
19.475622
19.539056
19.601015
19.661525
19.720609
19.778291
19.834595
19.889544
19.943161
19.99547
20.046496
20.096261
20.144788
20.192103
20.238227
20.283184
20.326997
20.369691
20.411286
20.451806
20.491273
20.52971
20.567138
20.60358
20.639057
20.673589
20.707199
20.739906
20.771732
20.802695
20.832818
20.862118
20.890616
20.918328
20.945276
20.971478
20.996951
21.021713
21.045779
21.069168
21.091898
21.113989
21.135455
21.15631
21.176567
21.196241
21.215347
21.233901
21.251918
21.269412
21.286398
21.302889
21.318898
21.334438
21.349521
21.36416
21.378366
21.392152
21.405528
21.418506
21.431096
21.44331
21.455158
21.46665
21.477796
21.488605
21.499087
21.509252
21.519107
21.528663
21.537927
21.546909
21.555615
21.564054
21.572233
21.580161
21.587844
21.595289
21.602504
21.609495
21.616269
21.622833
21.629192
21.635352
21.641318
21.647097
21.652696
21.658122
21.663379
21.668471
21.673399
21.678169
21.682787
21.687256
21.691584
21.695774
21.699832
21.70376
21.707564
21.711246
21.714811
21.718262
21.721602
21.724835
21.727964
21.730993
21.733924
21.73676
21.739506
21.742162
21.744733
21.74722
21.749627
21.751956
21.75421
21.756391
21.7585
21.760542
21.762516
21.764427
21.766276
21.768064
21.769794
21.771468
21.773088
21.774655
21.776171
21.777637
21.779054
21.780425
21.781752
21.783038
21.784283
21.785489
21.786655
21.787782
21.788872
21.789924
21.790941
21.791924
21.792875
21.793795
21.794686
21.795548
21.796383
21.797191
21.797973
21.79873
21.799463
21.800172
21.800859
21.801524
21.802167
21.802791
21.803394
21.803978
21.804544
21.805092
21.805623
21.806138
21.806636
21.807119
21.807587
21.80804
21.80848
21.808907
21.80932
21.809721
21.81011
21.810487
21.810854
21.81121
21.811555
21.81189
21.812216
21.812532
21.812839
21.813139
21.813431
21.813715
21.813992
21.814261
21.814523
21.814776
21.815022
21.815262
21.815495
21.815722
21.815943
21.816159
21.81637
21.816577
21.816779
21.816976
21.817169
21.817359
21.817544
21.817725
21.817903
21.818077
21.818248
21.818416
21.818581
21.818743
21.818902
21.819058
21.819212
21.819364
21.819513
21.81966
21.819805
21.819949
21.82009
21.82023
21.820368
21.820505
21.82064
21.820774
21.820906
21.821038
21.821169
21.821298
21.821427
21.821555
21.821683
21.821809
21.821936
21.822061
21.822186
21.82231
21.822434
21.822556
21.822679
21.8228
21.822922
21.823043
21.823163
21.823284
21.823405
21.823526
21.823647
21.823768
21.823889
21.824011
21.824133
21.824255
21.824378
21.824501
21.824624
21.824748
21.824872
21.824997
21.825122
21.825248
21.825374
21.825501
21.825628
21.825756
21.825885
21.826014
21.826144
21.826274
21.826405
21.826538
21.82667
21.826804
21.826939
21.827074
21.82721
21.827347
21.827486
21.827625
21.827765
21.827906
21.828048
21.828191
21.828335
21.828479
21.828624
21.82877
21.828916
21.829064
21.829211
21.82936
21.82951
21.829661
21.829813
21.829966
21.83012
21.830275
21.830432
21.83059
21.830749
21.830909
21.831071
21.831234
21.831398
21.831563
21.831729
21.831897
21.832066
21.832236
21.832407
21.832579
21.832753
21.832928
21.833104
21.833282
21.833461
21.833641
21.833822
21.834005
21.834189
21.834374
21.834561
21.834749
21.834938
21.835129
21.835321
21.835515
21.83571
21.835906
21.836104
21.836303
21.836503
21.836705
21.836907
21.837111
21.837316
21.837522
21.837728
21.837936
21.838146
21.838356
21.838568
21.838781
21.838996
21.839212
21.83943
21.839649
21.83987
21.840092
21.840316
21.840541
21.840767
21.840995
21.841225
21.841455
21.841688
21.841921
21.842157
21.842393
21.842631
21.842871
21.843111
21.843354
21.843597
21.843843
21.844089
21.844337
21.844587
21.844838
21.84509
21.845344
21.8456
21.845857
21.846115
21.846375
21.846637
21.8469
21.847164
21.84743
21.847698
21.847967
21.848238
21.84851
21.848783
21.849058
21.849333
21.84961
21.849888
21.850167
21.850447
21.850728
21.85101
21.851294
21.85158
21.851866
21.852155
21.852445
21.852736
21.853029
21.853324
21.85362
21.853917
21.854216
21.854517
21.854819
21.855122
21.855427
21.855733
21.856041
21.85635
21.85666
21.856972
21.857285
21.8576
21.857916
21.858234
21.858553
21.858873
21.859195
21.859518
21.859842
21.860168
21.860495
21.860824
21.861154
21.861485
21.861818
21.862152
21.862488
21.862825
21.863163
21.863503
21.863844
21.864187
21.864531
21.864876
21.865223
21.865572
21.865921
21.866272
21.866625
21.866979
21.867333
21.867689
21.868046
21.868404
21.868763
21.869123
21.869484
21.869846
21.870208
21.870572
21.870937
21.871303
21.871671
21.872039
21.872409
21.872781
21.873153
21.873527
21.873903
21.874279
21.874657
21.875037
21.875417
21.875799
21.876182
21.876566
21.876951
21.877337
21.877725
21.878114
21.878504
21.878895
21.879287
21.879681
21.880075
21.880471
21.880868
21.881266
21.881665
21.882065
21.882466
21.882868
21.883272
21.883676
21.884082
21.884488
21.884896
21.885304
21.885714
21.886125
21.886537
21.88695
21.887363
21.887778
21.888194
21.888611
21.889029
21.889448
21.889867
21.890288
21.89071
21.891133
21.891556
21.891981
21.892407
21.892833
21.893261
21.893689
21.894118
21.894549
21.89498
21.895412
21.895845
21.896278
21.896713
21.897149
21.897585
21.898022
21.898461
21.8989
21.89934
21.89978
21.900222
21.900664
21.901108
21.901552
21.901997
21.902443
21.902891
21.903339
21.903788
21.904238
21.904689
21.90514
21.905592
21.906045
21.906499
21.906952
21.907407
21.907862
21.908318
21.908774
21.909231
21.909688
21.910147
21.910606
21.911065
21.911525
21.911985
21.912446
21.912907
21.913369
21.913831
21.914294
21.914758
21.915223
21.915688
21.916155
21.916622
21.91709
21.91756
21.91803
21.918501
21.918972
21.919444
21.919917
21.92039
21.920864
21.921338
21.921812
21.922287
21.922761
21.923236
21.923711
21.924187
21.924663
21.925139
21.925616
21.926093
21.926572
21.92705
21.92753
21.92801
21.928491
21.928972
21.929453
21.929935
21.930418
21.930901
21.931385
21.931869
21.932354
21.932839
21.933324
21.93381
21.934297
21.934784
21.935271
21.935759
21.936247
21.936735
21.937223
21.937712
21.938201
21.93869
21.939179
21.939669
21.940159
21.940649
21.94114
21.941631
21.942122
21.942614
21.943106
21.943599
21.944092
21.944585
21.945079
21.945573
21.946067
21.946562
21.947057
21.947552
21.948047
21.948542
21.949038
21.949533
21.950028
21.950523
21.951019
21.951514
21.95201
21.952506
21.953003
21.953499
21.953996
21.954493
21.95499
21.955488
21.955986
21.956483
21.956981
21.957479
21.957978
21.958476
21.958974
21.959473
21.959971
21.96047
21.960969
21.961468
21.961966
21.962465
21.962964
21.963463
21.963963
21.964462
21.964961
21.96546
21.965959
21.966459
21.966958
21.967457
21.967956
21.968455
21.968955
21.969454
21.969953
21.970452
21.970951
21.97145
21.971949
21.972448
21.972947
21.973445
21.973944
21.974442
21.974941
21.975439
21.975937
21.976436
21.976934
21.977431
21.977929
21.978427
21.978924
21.979422
21.979919
21.980416
21.980912
21.981409
21.981905
21.982402
21.982898
21.983393
21.983889
21.984384
21.984879
21.985374
21.985869
21.986363
21.986857
21.987351
21.987844
21.988337
21.988829
21.989322
21.989814
21.990305
21.990796
21.991286
21.991776
21.992266
21.992754
21.993242
21.993729
21.994216
21.994701
21.995186
21.99567
21.996153
21.996635
21.997115
21.997595
21.998074
21.998552
21.999029
21.999504
21.999978
22.000451
22.000923
22.001396
22.001871
22.002348
22.002827
22.003309
22.003793
22.004279
22.004766
22.005254
22.005741
22.006229
22.006717
22.007205
22.007692
22.008179
22.008664
22.009148
22.009631
22.010113
22.010595
22.011076
22.011558
22.01204
22.012521
22.013001
22.013482
22.013962
22.014441
22.014921
22.015399
22.015878
22.016355
22.016832
22.017308
22.017782
22.018256
22.018729
22.0192
22.019671
22.02014
22.020609
22.021076
22.021542
22.022007
22.02247
22.022931
22.023392
22.023851
22.024311
22.024771
22.025231
22.025692
22.026153
22.026613
22.027073
22.027532
22.02799
22.028447
22.028903
22.029357
22.02981
22.030262
22.030712
22.031161
22.031608
22.032055
22.0325
22.032945
22.033389
22.033833
22.034275
22.034718
22.035158
22.035598
22.036036
22.036472
22.036909
22.037347
22.037785
22.038225
22.038664
22.039104
22.039542
22.03998
22.040417
22.040852
22.041287
22.041719
22.042151
22.042581
22.043009
22.043436
22.043862
22.044287
22.04471
22.045132
22.045553
22.045972
22.04639
22.046807
22.047222
22.047636
22.048048
22.04846
22.04887
22.049279
22.049687
22.050094
22.0505
22.050906
22.051311
22.051715
22.052117
22.052519
22.05292
22.053319
22.053717
22.054114
22.05451
22.054905
22.055298
22.05569
22.056081
22.056471
22.05686
22.057248
22.057634
22.05802
22.058404
22.058787
22.059169
22.05955
22.059929
22.060307
22.060684
22.061059
22.061433
22.061805
22.062176
22.062546
22.062914
22.063281
22.063647
22.06401
22.064373
22.064734
22.065094
22.065452
22.065809
22.066165
22.066519
22.066872
22.067224
22.067574
22.067923
22.068271
22.068618
22.068963
22.069307
22.069649
22.06999
22.07033
22.070668
22.071004
22.071339
22.071673
22.072004
22.072335
22.072663
22.072991
22.073316
22.073641
22.073964
22.074285
22.074605
22.074924
22.075242
22.075558
22.075872
22.076185
22.076497
22.076808
22.077116
22.077424
22.07773
22.078034
22.078337
22.078639
22.078938
22.079236
22.079533
22.079827
22.08012
22.080411
22.0807
22.080987
22.081273
22.081557
22.08184
22.082121
22.082401
22.082679
22.082955
22.08323
22.083504
22.083776
22.084046
22.084315
22.084582
22.084848
22.085112
22.085374
22.085635
22.085894
22.086151
22.086406
22.08666
22.086912
22.087162
22.087411
22.087658
22.087903
22.088146
22.088388
22.088629
22.088868
22.089106
22.089342
22.089576
22.089809
22.090041
22.090271
22.090499
22.090725
22.09095
22.091173
22.091395
22.091615
22.091833
22.092049
22.092263
22.092476
22.092687
22.092896
22.093104
22.09331
22.093514
22.093716
22.093917
22.094117
22.094314
22.09451
22.094705
22.094898
22.095089
22.095279
22.095467
22.095654
22.095839
22.096022
22.096204
22.096383
22.096562
22.096738
22.096913
22.097086
22.097257
22.097427
22.097595
22.097761
22.097926
22.098089
22.098251
22.098411
22.098569
22.098726
22.098882
22.099036
22.099188
22.099339
22.099488
22.099636
22.099782
22.099927
22.10007
22.100211
22.100351
22.10049
22.100627
22.100762
22.100896
22.101029
22.10116
22.101289
22.101417
22.101543
22.101667
22.10179
22.101911
22.102031
22.102149
22.102266
22.102381
22.102495
22.102607
22.102718
22.102827
22.102935
22.103042
22.103147
22.103251
22.103353
22.103454
22.103554
22.103653
22.103749
22.103845
22.103939
22.104032
22.104123
22.104213
22.104302
22.10439
22.104476
22.10456
22.104643
22.104725
22.104806
22.104885
22.104963
22.10504
22.105116
22.10519
22.105262
22.105334
22.105404
22.105473
22.10554
22.105606
22.105671
22.105734
22.105795
22.105856
22.105914
22.105971
22.106027
22.10608
22.106132
22.106182
22.106231
22.106277
22.106322
22.106365
22.106406
22.106445
22.106483
22.106519
22.106553
22.106585
22.106616
22.106646
22.106675
22.106703
22.10673
22.106761
22.106792
22.106824
22.106855
22.106886
22.106915
22.106944
22.106971
22.106997
22.10702
22.107042
22.107061
22.107078
22.107094
22.107108
22.107119
22.107131
22.107149
22.107166
22.107182
22.107197
22.10721
22.107221
22.107239
22.107257
22.107274
22.107289
22.107301
22.107311
22.107318
22.107324
22.107328
22.107332
22.107333
22.107335
22.107335
22.107329
22.107324
22.107322
22.107328
22.107336
22.107339
22.107335
22.107322
22.107317
22.107318
22.107327
22.10733
22.107333
22.107339
22.107326
22.10728
22.107256
22.107248
22.107264
22.107273
22.107231
22.107188