/*--------------------------------*- C++ -*----------------------------------*\
  =========                 |
  \\      /  F ield         | OpenFOAM: The Open Source CFD Toolbox
   \\    /   O peration     | Website:  https://openfoam.org
    \\  /    A nd           | Version:  7
     \\/     M anipulation  |
\*---------------------------------------------------------------------------*/
FoamFile
{
    version     2.0;
    format      ascii;
    class       volScalarField;
    location    "0.00347";
    object      T;
}
// * * * * * * * * * * * * * * * * * * * * * * * * * * * * * * * * * * * * * //

dimensions      [0 0 0 1 0 0 0];

internalField   nonuniform List<scalar> 
5000
(
277.93656
277.93657
277.93654
277.93646
277.93641
277.93636
277.93633
277.9363
277.93629
277.93628
277.93627
277.93626
277.93626
277.93626
277.93626
277.93625
277.93625
277.93625
277.93625
277.93625
277.93625
277.93625
277.93626
277.93626
277.93626
277.93626
277.93626
277.93626
277.93626
277.93626
277.93626
277.93626
277.93626
277.93626
277.93626
277.93626
277.93626
277.93626
277.93626
277.93626
277.93626
277.93626
277.93626
277.93626
277.93627
277.93627
277.93627
277.93627
277.93627
277.93627
277.93627
277.93627
277.93627
277.93627
277.93627
277.93627
277.93627
277.93627
277.93627
277.93628
277.93628
277.93628
277.93628
277.93628
277.93628
277.93628
277.93628
277.93628
277.93628
277.93628
277.93628
277.93628
277.93629
277.93629
277.93629
277.93629
277.93629
277.93629
277.93629
277.93629
277.93629
277.93629
277.93629
277.93629
277.9363
277.9363
277.9363
277.9363
277.9363
277.9363
277.9363
277.9363
277.9363
277.9363
277.9363
277.9363
277.93631
277.93631
277.93631
277.93631
277.93631
277.93631
277.93631
277.93631
277.93631
277.93631
277.93631
277.93631
277.93632
277.93632
277.93632
277.93632
277.93632
277.93632
277.93632
277.93632
277.93632
277.93632
277.93632
277.93632
277.93632
277.93633
277.93633
277.93633
277.93633
277.93633
277.93633
277.93633
277.93633
277.93633
277.93633
277.93633
277.93633
277.93634
277.93634
277.93634
277.93634
277.93634
277.93634
277.93634
277.93634
277.93634
277.93634
277.93634
277.93634
277.93634
277.93634
277.93635
277.93635
277.93635
277.93635
277.93635
277.93635
277.93635
277.93635
277.93635
277.93635
277.93635
277.93635
277.93635
277.93635
277.93635
277.93636
277.93636
277.93636
277.93636
277.93636
277.93636
277.93636
277.93636
277.93636
277.93636
277.93636
277.93636
277.93636
277.93636
277.93636
277.93636
277.93636
277.93636
277.93636
277.93637
277.93637
277.93637
277.93637
277.93637
277.93637
277.93637
277.93637
277.93637
277.93637
277.93637
277.93637
277.93637
277.93637
277.93637
277.93637
277.93637
277.93637
277.93637
277.93637
277.93637
277.93637
277.93637
277.93637
277.93638
277.93638
277.93638
277.93638
277.93638
277.93638
277.93638
277.93638
277.93638
277.93638
277.93638
277.93638
277.93638
277.93638
277.93638
277.93638
277.93638
277.93638
277.93638
277.93638
277.93638
277.93638
277.93638
277.93638
277.93638
277.93638
277.93638
277.93638
277.93638
277.93638
277.93638
277.93638
277.93638
277.93638
277.93638
277.93638
277.93638
277.93638
277.93639
277.93639
277.93639
277.93639
277.93639
277.93639
277.93639
277.93639
277.93639
277.93639
277.93639
277.93639
277.93639
277.93639
277.93639
277.93639
277.93639
277.93639
277.93639
277.93639
277.93639
277.93639
277.93639
277.93639
277.93639
277.93639
277.93639
277.93639
277.93639
277.93639
277.93639
277.93639
277.93639
277.93639
277.93639
277.93639
277.93639
277.93639
277.93639
277.93639
277.93639
277.93639
277.93639
277.93639
277.93639
277.93639
277.93639
277.93639
277.93639
277.93639
277.93639
277.93639
277.93639
277.93639
277.93639
277.93639
277.93639
277.93639
277.93639
277.93639
277.93639
277.9364
277.9364
277.9364
277.9364
277.9364
277.9364
277.9364
277.9364
277.9364
277.9364
277.9364
277.9364
277.9364
277.9364
277.9364
277.9364
277.9364
277.9364
277.9364
277.9364
277.9364
277.9364
277.9364
277.9364
277.9364
277.9364
277.9364
277.9364
277.9364
277.9364
277.9364
277.9364
277.9364
277.9364
277.9364
277.9364
277.9364
277.9364
277.9364
277.9364
277.9364
277.9364
277.9364
277.9364
277.9364
277.9364
277.9364
277.9364
277.9364
277.9364
277.9364
277.9364
277.9364
277.9364
277.9364
277.9364
277.9364
277.9364
277.9364
277.9364
277.9364
277.9364
277.9364
277.9364
277.93641
277.93641
277.93641
277.93641
277.93641
277.93641
277.93641
277.93641
277.93641
277.93641
277.93641
277.93641
277.93641
277.93641
277.93641
277.93641
277.93641
277.93641
277.93641
277.93641
277.93641
277.93641
277.93641
277.93641
277.93641
277.93641
277.93641
277.93641
277.93641
277.93641
277.93641
277.93641
277.93641
277.93641
277.93641
277.93641
277.93641
277.93641
277.93641
277.93641
277.93641
277.93641
277.93641
277.93641
277.93641
277.93641
277.93641
277.93641
277.93641
277.93641
277.93641
277.93641
277.93642
277.93642
277.93642
277.93642
277.93642
277.93642
277.93642
277.93642
277.93642
277.93642
277.93642
277.93642
277.93642
277.93642
277.93642
277.93642
277.93642
277.93642
277.93642
277.93642
277.93642
277.93642
277.93642
277.93642
277.93642
277.93642
277.93642
277.93642
277.93642
277.93642
277.93642
277.93642
277.93642
277.93642
277.93642
277.93642
277.93643
277.93643
277.93643
277.93643
277.93643
277.93643
277.93643
277.93643
277.93643
277.93643
277.93643
277.93643
277.93643
277.93643
277.93643
277.93643
277.93643
277.93643
277.93643
277.93643
277.93643
277.93643
277.93643
277.93643
277.93643
277.93643
277.93643
277.93643
277.93643
277.93643
277.93643
277.93643
277.93644
277.93644
277.93644
277.93644
277.93644
277.93644
277.93644
277.93644
277.93644
277.93644
277.93644
277.93644
277.93644
277.93644
277.93644
277.93644
277.93644
277.93644
277.93644
277.93644
277.93644
277.93644
277.93644
277.93644
277.93644
277.93644
277.93644
277.93644
277.93644
277.93645
277.93645
277.93645
277.93645
277.93645
277.93645
277.93645
277.93645
277.93645
277.93645
277.93645
277.93645
277.93645
277.93645
277.93645
277.93645
277.93645
277.93645
277.93645
277.93645
277.93645
277.93645
277.93645
277.93645
277.93645
277.93645
277.93645
277.93646
277.93646
277.93646
277.93646
277.93646
277.93646
277.93646
277.93646
277.93646
277.93646
277.93646
277.93646
277.93646
277.93646
277.93646
277.93646
277.93646
277.93646
277.93646
277.93646
277.93646
277.93646
277.93646
277.93646
277.93646
277.93646
277.93647
277.93647
277.93647
277.93647
277.93647
277.93647
277.93647
277.93647
277.93647
277.93647
277.93647
277.93647
277.93647
277.93647
277.93647
277.93647
277.93647
277.93647
277.93647
277.93647
277.93647
277.93647
277.93647
277.93647
277.93647
277.93647
277.93647
277.93647
277.93647
277.93648
277.93648
277.93648
277.93648
277.93648
277.93648
277.93648
277.93648
277.93648
277.93648
277.93648
277.93648
277.93648
277.93648
277.93648
277.93648
277.93648
277.93648
277.93648
277.93648
277.93648
277.93648
277.93648
277.93648
277.93648
277.93648
277.93649
277.93649
277.93649
277.93649
277.93649
277.93649
277.93649
277.93649
277.93649
277.93649
277.93649
277.93649
277.93649
277.93649
277.93649
277.93649
277.93649
277.93649
277.93649
277.93649
277.9365
277.9365
277.9365
277.9365
277.9365
277.9365
277.9365
277.9365
277.9365
277.9365
277.9365
277.9365
277.9365
277.9365
277.9365
277.9365
277.9365
277.9365
277.9365
277.9365
277.9365
277.9365
277.9365
277.9365
277.9365
277.9365
277.9365
277.9365
277.9365
277.93651
277.93651
277.93651
277.93651
277.93651
277.93651
277.93651
277.93651
277.93651
277.93651
277.93651
277.93651
277.93651
277.93651
277.93651
277.93651
277.93651
277.93651
277.93651
277.93651
277.93651
277.93651
277.93651
277.93652
277.93652
277.93652
277.93652
277.93652
277.93652
277.93652
277.93652
277.93652
277.93652
277.93652
277.93652
277.93652
277.93652
277.93652
277.93652
277.93652
277.93652
277.93652
277.93652
277.93652
277.93653
277.93653
277.93653
277.93653
277.93653
277.93653
277.93653
277.93653
277.93653
277.93653
277.93653
277.93653
277.93653
277.93653
277.93653
277.93653
277.93653
277.93653
277.93653
277.93653
277.93653
277.93653
277.93654
277.93654
277.93654
277.93654
277.93654
277.93654
277.93654
277.93654
277.93654
277.93654
277.93654
277.93654
277.93654
277.93654
277.93654
277.93654
277.93654
277.93654
277.93654
277.93654
277.93654
277.93654
277.93655
277.93655
277.93655
277.93655
277.93655
277.93655
277.93655
277.93655
277.93655
277.93655
277.93655
277.93655
277.93655
277.93655
277.93655
277.93655
277.93655
277.93655
277.93655
277.93655
277.93655
277.93656
277.93656
277.93656
277.93656
277.93656
277.93656
277.93656
277.93656
277.93656
277.93656
277.93656
277.93656
277.93656
277.93656
277.93656
277.93656
277.93656
277.93656
277.93656
277.93656
277.93656
277.93656
277.93656
277.93656
277.93657
277.93657
277.93657
277.93657
277.93657
277.93657
277.93657
277.93657
277.93657
277.93657
277.93657
277.93657
277.93657
277.93657
277.93657
277.93657
277.93657
277.93657
277.93657
277.93657
277.93658
277.93658
277.93658
277.93658
277.93658
277.93658
277.93658
277.93658
277.93658
277.93658
277.93658
277.93658
277.93658
277.93658
277.93658
277.93658
277.93658
277.93659
277.93659
277.93659
277.93659
277.93659
277.93659
277.93659
277.93659
277.93659
277.93659
277.93659
277.93659
277.93659
277.93659
277.93659
277.93659
277.93659
277.93659
277.93659
277.93659
277.93659
277.93659
277.93659
277.9366
277.9366
277.9366
277.9366
277.9366
277.9366
277.9366
277.9366
277.9366
277.9366
277.9366
277.9366
277.9366
277.9366
277.93661
277.93661
277.93661
277.93661
277.93661
277.93661
277.93661
277.93661
277.93661
277.93661
277.93661
277.93661
277.93661
277.93661
277.93661
277.93661
277.93661
277.93661
277.93661
277.93661
277.93661
277.93661
277.93661
277.93661
277.93662
277.93662
277.93662
277.93662
277.93662
277.93662
277.93662
277.93662
277.93662
277.93662
277.93662
277.93662
277.93662
277.93662
277.93662
277.93662
277.93662
277.93662
277.93662
277.93662
277.93663
277.93663
277.93663
277.93663
277.93663
277.93663
277.93663
277.93663
277.93663
277.93663
277.93663
277.93663
277.93663
277.93663
277.93663
277.93664
277.93664
277.93664
277.93664
277.93664
277.93664
277.93664
277.93664
277.93664
277.93664
277.93664
277.93664
277.93664
277.93664
277.93664
277.93664
277.93664
277.93664
277.93664
277.93664
277.93664
277.93664
277.93664
277.93665
277.93665
277.93665
277.93665
277.93665
277.93665
277.93665
277.93665
277.93665
277.93665
277.93665
277.93665
277.93665
277.93665
277.93665
277.93665
277.93665
277.93665
277.93665
277.93665
277.93666
277.93666
277.93666
277.93666
277.93666
277.93666
277.93666
277.93666
277.93666
277.93666
277.93666
277.93666
277.93666
277.93666
277.93666
277.93666
277.93666
277.93666
277.93666
277.93666
277.93666
277.93667
277.93667
277.93667
277.93667
277.93667
277.93667
277.93667
277.93667
277.93667
277.93667
277.93667
277.93667
277.93667
277.93667
277.93667
277.93667
277.93667
277.93667
277.93667
277.93667
277.93668
277.93668
277.93668
277.93668
277.93668
277.93668
277.93668
277.93668
277.93668
277.93668
277.93668
277.93668
277.93668
277.93668
277.93668
277.93668
277.93668
277.93669
277.93669
277.93669
277.93669
277.93669
277.93669
277.93669
277.93669
277.93669
277.93669
277.93669
277.93669
277.93669
277.93669
277.93669
277.93669
277.93669
277.93669
277.9367
277.9367
277.9367
277.9367
277.9367
277.9367
277.9367
277.9367
277.9367
277.9367
277.9367
277.9367
277.9367
277.9367
277.93671
277.93671
277.93671
277.93671
277.93671
277.93671
277.93671
277.93671
277.93671
277.93671
277.93671
277.93671
277.93671
277.93671
277.93671
277.93672
277.93672
277.93672
277.93672
277.93672
277.93672
277.93672
277.93672
277.93672
277.93672
277.93673
277.93673
277.93673
277.93673
277.93673
277.93673
277.93673
277.93673
277.93673
277.93673
277.93673
277.93674
277.93674
277.93674
277.93674
277.93674
277.93674
277.93674
277.93674
277.93675
277.93675
277.93675
277.93675
277.93675
277.93675
277.93676
277.93676
277.93676
277.93676
277.93676
277.93677
277.93677
277.93677
277.93677
277.93677
277.93678
277.93678
277.93678
277.93678
277.93678
277.93679
277.93679
277.93679
277.93679
277.9368
277.9368
277.9368
277.93681
277.93681
277.93681
277.93682
277.93682
277.93682
277.93683
277.93683
277.93684
277.93684
277.93685
277.93685
277.93686
277.93686
277.93687
277.93687
277.93688
277.93688
277.93689
277.93689
277.9369
277.9369
277.93691
277.93692
277.93693
277.93693
277.93694
277.93695
277.93696
277.93697
277.93698
277.93699
277.937
277.93701
277.93702
277.93703
277.93704
277.93705
277.93706
277.93708
277.93709
277.9371
277.93712
277.93713
277.93715
277.93716
277.93718
277.9372
277.93722
277.93723
277.93725
277.93727
277.93729
277.93732
277.93734
277.93736
277.93738
277.93741
277.93744
277.93746
277.93749
277.93752
277.93755
277.93758
277.93762
277.93765
277.93769
277.93772
277.93776
277.9378
277.93784
277.93788
277.93793
277.93797
277.93802
277.93807
277.93812
277.93818
277.93823
277.93829
277.93835
277.93841
277.93847
277.93854
277.93861
277.93868
277.93876
277.93884
277.93892
277.939
277.93909
277.93918
277.93927
277.93937
277.93947
277.93957
277.93968
277.9398
277.93991
277.94003
277.94016
277.94029
277.94042
277.94057
277.94071
277.94086
277.94102
277.94118
277.94135
277.94153
277.94171
277.9419
277.94209
277.9423
277.94251
277.94273
277.94295
277.94319
277.94343
277.94369
277.94395
277.94422
277.9445
277.9448
277.9451
277.94542
277.94574
277.94608
277.94643
277.94679
277.94717
277.94756
277.94796
277.94838
277.94882
277.94927
277.94973
277.95022
277.95072
277.95124
277.95178
277.95234
277.95292
277.95351
277.95414
277.95478
277.95544
277.95613
277.95685
277.95759
277.95836
277.95915
277.95997
277.96083
277.96171
277.96262
277.96357
277.96455
277.96556
277.96661
277.9677
277.96883
277.96999
277.9712
277.97245
277.97374
277.97508
277.97646
277.9779
277.97938
277.98092
277.9825
277.98415
277.98584
277.9876
277.98942
277.9913
277.99325
277.99526
277.99734
277.9995
278.00172
278.00402
278.0064
278.00886
278.01141
278.01404
278.01675
278.01956
278.02247
278.02547
278.02857
278.03177
278.03508
278.0385
278.04204
278.04569
278.04946
278.05335
278.05738
278.06153
278.06582
278.07025
278.07483
278.07955
278.08443
278.08946
278.09465
278.10001
278.10554
278.11125
278.11714
278.12322
278.12948
278.13595
278.14262
278.14949
278.15658
278.16389
278.17143
278.1792
278.18721
278.19546
278.20397
278.21273
278.22176
278.23107
278.24065
278.25052
278.26068
278.27114
278.28191
278.293
278.30441
278.31616
278.32824
278.34067
278.35346
278.36661
278.38014
278.39405
278.40834
278.42304
278.43814
278.45366
278.4696
278.48598
278.50279
278.52006
278.53779
278.55599
278.57466
278.59382
278.61348
278.63364
278.65431
278.6755
278.69723
278.71949
278.74229
278.76565
278.78958
278.81407
278.83914
278.8648
278.89104
278.91789
278.94534
278.97341
279.00209
279.0314
279.06134
279.09191
279.12313
279.15498
279.18748
279.22063
279.25444
279.2889
279.32402
279.35979
279.39623
279.43332
279.47107
279.50948
279.54855
279.58827
279.62863
279.66965
279.7113
279.75359
279.79651
279.84006
279.88422
279.92898
279.97435
280.0203
280.06683
280.11393
280.16158
280.20977
280.25849
280.30772
280.35745
280.40767
280.45835
280.50948
280.56104
280.61301
280.66537
280.71811
280.7712
280.82463
280.87836
280.93238
280.98667
281.0412
281.09596
281.15091
281.20603
281.2613
281.3167
281.3722
281.42778
281.48341
281.53906
281.59472
281.65035
281.70594
281.76146
281.81688
281.87218
281.92734
281.98234
282.03714
282.09173
282.14608
282.20018
282.254
282.30752
282.36071
282.41357
282.46607
282.51819
282.56991
282.62122
282.6721
282.72253
282.77249
282.82198
282.87098
282.91947
282.96744
283.01488
283.06178
283.10812
283.15391
283.19912
283.24375
283.28779
283.33124
283.37408
283.41632
283.45794
283.49895
283.53934
283.5791
283.61824
283.65675
283.69462
283.73187
283.76849
283.80448
283.83984
283.87457
283.90867
283.94215
283.97501
284.00725
284.03887
284.06988
284.10029
284.13009
284.1593
284.18791
284.21594
284.24339
284.27026
284.29656
284.3223
284.34748
284.37212
284.39621
284.41977
284.4428
284.46531
284.48731
284.5088
284.52979
284.5503
284.57032
284.58987
284.60895
284.62758
284.64575
284.66349
284.68079
284.69766
284.71411
284.73015
284.74579
284.76104
284.7759
284.79038
284.80449
284.81823
284.83162
284.84466
284.85735
284.86971
284.88175
284.89347
284.90487
284.91597
284.92677
284.93727
284.9475
284.95744
284.96711
284.97652
284.98566
284.99456
285.00321
285.01161
285.01978
285.02772
285.03544
285.04294
285.05022
285.0573
285.06418
285.07086
285.07735
285.08365
285.08977
285.09571
285.10148
285.10709
285.11252
285.1178
285.12293
285.1279
285.13273
285.13741
285.14195
285.14636
285.15064
285.15479
285.15882
285.16272
285.16651
285.17018
285.17375
285.1772
285.18055
285.1838
285.18695
285.19
285.19296
285.19583
285.19861
285.2013
285.20392
285.20645
285.2089
285.21128
285.21358
285.21582
285.21798
285.22007
285.2221
285.22407
285.22598
285.22782
285.22961
285.23134
285.23301
285.23464
285.23621
285.23773
285.23921
285.24063
285.24201
285.24335
285.24465
285.2459
285.24712
285.24829
285.24943
285.25053
285.2516
285.25263
285.25363
285.2546
285.25553
285.25644
285.25731
285.25816
285.25898
285.25978
285.26054
285.26129
285.26201
285.2627
285.26338
285.26403
285.26466
285.26527
285.26586
285.26643
285.26699
285.26752
285.26804
285.26854
285.26903
285.2695
285.26995
285.27039
285.27081
285.27123
285.27162
285.27201
285.27238
285.27274
285.27309
285.27343
285.27375
285.27407
285.27438
285.27467
285.27496
285.27524
285.27551
285.27577
285.27602
285.27626
285.2765
285.27673
285.27695
285.27717
285.27738
285.27758
285.27777
285.27796
285.27814
285.27832
285.27849
285.27866
285.27882
285.27898
285.27913
285.27928
285.27942
285.27956
285.2797
285.27983
285.27996
285.28008
285.2802
285.28032
285.28043
285.28054
285.28065
285.28075
285.28085
285.28095
285.28105
285.28114
285.28123
285.28132
285.28141
285.2815
285.28158
285.28166
285.28174
285.28181
285.28189
285.28196
285.28204
285.28211
285.28217
285.28224
285.28231
285.28237
285.28244
285.2825
285.28256
285.28262
285.28268
285.28274
285.28279
285.28285
285.2829
285.28296
285.28301
285.28307
285.28312
285.28317
285.28322
285.28327
285.28332
285.28337
285.28342
285.28347
285.28351
285.28356
285.28361
285.28365
285.2837
285.28375
285.28379
285.28384
285.28388
285.28393
285.28398
285.28402
285.28407
285.28411
285.28415
285.2842
285.28424
285.28429
285.28433
285.28438
285.28442
285.28446
285.28451
285.28455
285.2846
285.28464
285.28469
285.28473
285.28478
285.28482
285.28487
285.28491
285.28496
285.285
285.28505
285.28509
285.28514
285.28518
285.28523
285.28528
285.28532
285.28537
285.28542
285.28546
285.28551
285.28556
285.28561
285.28565
285.2857
285.28575
285.2858
285.28585
285.2859
285.28595
285.286
285.28605
285.2861
285.28615
285.2862
285.28625
285.2863
285.28636
285.28641
285.28646
285.28652
285.28657
285.28662
285.28668
285.28673
285.28679
285.28684
285.2869
285.28696
285.28701
285.28707
285.28713
285.28719
285.28724
285.2873
285.28736
285.28742
285.28748
285.28754
285.2876
285.28766
285.28772
285.28778
285.28785
285.28791
285.28797
285.28803
285.2881
285.28816
285.28823
285.28829
285.28836
285.28842
285.28849
285.28856
285.28862
285.28869
285.28876
285.28883
285.2889
285.28897
285.28904
285.28911
285.28918
285.28925
285.28932
285.28939
285.28946
285.28954
285.28961
285.28968
285.28976
285.28983
285.28991
285.28998
285.29006
285.29014
285.29021
285.29029
285.29037
285.29045
285.29052
285.2906
285.29068
285.29076
285.29084
285.29092
285.29101
285.29109
285.29117
285.29125
285.29134
285.29142
285.29151
285.29159
285.29168
285.29176
285.29185
285.29193
285.29202
285.29211
285.2922
285.29229
285.29237
285.29246
285.29255
285.29265
285.29274
285.29283
285.29292
285.29301
285.29311
285.2932
285.29329
285.29339
285.29348
285.29358
285.29367
285.29377
285.29387
285.29396
285.29406
285.29416
285.29426
285.29436
285.29446
285.29456
285.29466
285.29476
285.29486
285.29496
285.29506
285.29516
285.29527
285.29537
285.29548
285.29558
285.29568
285.29579
285.2959
285.296
285.29611
285.29622
285.29632
285.29643
285.29654
285.29665
285.29676
285.29687
285.29698
285.29709
285.2972
285.29731
285.29743
285.29754
285.29765
285.29777
285.29788
285.298
285.29811
285.29823
285.29834
285.29846
285.29857
285.29869
285.29881
285.29893
285.29905
285.29917
285.29928
285.2994
285.29953
285.29965
285.29977
285.29989
285.30001
285.30013
285.30026
285.30038
285.3005
285.30063
285.30075
285.30088
285.301
285.30113
285.30125
285.30138
285.30151
285.30164
285.30176
285.30189
285.30202
285.30215
285.30228
285.30241
285.30254
285.30267
285.3028
285.30293
285.30306
285.30319
285.30332
285.30346
285.30359
285.30372
285.30386
285.30399
285.30413
285.30426
285.3044
285.30453
285.30467
285.30481
285.30494
285.30508
285.30522
285.30535
285.30549
285.30563
285.30577
285.30591
285.30605
285.30618
285.30632
285.30646
285.3066
285.30675
285.30689
285.30703
285.30717
285.30731
285.30745
285.30759
285.30774
285.30788
285.30802
285.30817
285.30831
285.30845
285.3086
285.30874
285.30889
285.30903
285.30918
285.30932
285.30947
285.30961
285.30976
285.30991
285.31005
285.3102
285.31034
285.31049
285.31064
285.31078
285.31093
285.31108
285.31123
285.31137
285.31152
285.31167
285.31182
285.31196
285.31211
285.31226
285.31241
285.31256
285.3127
285.31285
285.313
285.31315
285.3133
285.31345
285.3136
285.31374
285.31389
285.31404
285.31419
285.31434
285.31449
285.31463
285.31478
285.31493
285.31508
285.31523
285.31538
285.31553
285.31567
285.31582
285.31597
285.31612
285.31627
285.31641
285.31656
285.31671
285.31686
285.317
285.31715
285.3173
285.31744
285.31759
285.31774
285.31789
285.31803
285.31818
285.31833
285.31847
285.31862
285.31877
285.31891
285.31906
285.31921
285.31936
285.3195
285.31965
285.3198
285.31994
285.32009
285.32024
285.32039
285.32053
285.32068
285.32083
285.32098
285.32113
285.32128
285.32143
285.32158
285.32173
285.32188
285.32203
285.32218
285.32233
285.32248
285.32264
285.32279
285.32295
285.3231
285.32326
285.32342
285.32357
285.32373
285.32389
285.32405
285.32422
285.32438
285.32454
285.32471
285.32487
285.32504
285.32521
285.32537
285.32554
285.32572
285.32589
285.32606
285.32624
285.32641
285.32659
285.32677
285.32695
285.32713
285.32731
285.32749
285.32768
285.32786
285.32805
285.32824
285.32842
285.32862
285.32881
285.329
285.32919
285.32939
285.32958
285.32978
285.32998
285.33018
285.33037
285.33058
285.33078
285.33098
285.33118
285.33139
285.33159
285.3318
285.332
285.33221
285.33242
285.33262
285.33283
285.33304
285.33325
285.33346
285.33367
285.33388
285.33409
285.3343
285.33451
285.33472
285.33493
285.33514
285.33535
285.33557
285.33578
285.33599
285.3362
285.33641
285.33662
285.33683
285.33704
285.33725
285.33746
285.33767
285.33788
285.33809
285.3383
285.33851
285.33872
285.33893
285.33914
285.33935
285.33955
285.33976
285.33997
285.34017
285.34038
285.34059
285.34079
285.34099
285.3412
285.3414
285.34161
285.34181
285.34201
285.34221
285.34241
285.34261
285.34281
285.34301
285.34321
285.34341
285.34361
285.34381
285.34401
285.3442
285.3444
285.3446
285.34479
285.34499
285.34518
285.34538
285.34557
285.34576
285.34596
285.34615
285.34634
285.34653
285.34672
285.34691
285.3471
285.34729
285.34748
285.34767
285.34786
285.34805
285.34824
285.34842
285.34861
285.3488
285.34898
285.34917
285.34935
285.34954
285.34972
285.34991
285.35009
285.35027
285.35046
285.35064
285.35082
285.351
285.35118
285.35136
285.35155
285.35173
285.35191
285.35209
285.35227
285.35244
285.35262
285.3528
285.35298
285.35316
285.35334
285.35351
285.35369
285.35387
285.35404
285.35422
285.3544
285.35457
285.35475
285.35493
285.3551
285.35528
285.35545
285.35563
285.3558
285.35597
285.35615
285.35632
285.3565
285.35667
285.35684
285.35702
285.35719
285.35736
285.35754
285.35771
285.35788
285.35805
285.35823
285.3584
285.35857
285.35874
285.35891
285.35908
285.35925
285.35943
285.3596
285.35977
285.35994
285.36011
285.36029
285.36046
285.36063
285.3608
285.36097
285.36114
285.36131
285.36148
285.36165
285.36182
285.36199
285.36216
285.36233
285.36251
285.36268
285.36285
285.36302
285.36319
285.36336
285.36353
285.3637
285.36387
285.36404
285.36421
285.36439
285.36456
285.36473
285.3649
285.36507
285.36525
285.36542
285.36559
285.36576
285.36593
285.36611
285.36628
285.36645
285.36662
285.3668
285.36697
285.36714
285.36731
285.36749
285.36766
285.36783
285.368
285.36818
285.36835
285.36852
285.3687
285.36887
285.36904
285.36921
285.36939
285.36956
285.36973
285.3699
285.37007
285.37024
285.37041
285.37058
285.37075
285.37092
285.37109
285.37126
285.37143
285.37159
285.37176
285.37193
285.37209
285.37226
285.37242
285.37258
285.37274
285.3729
285.37306
285.37322
285.37338
285.37354
285.37369
285.37385
285.374
285.37415
285.37431
285.37446
285.3746
285.37475
285.3749
285.37504
285.37519
285.37533
285.37547
285.37561
285.37575
285.37588
285.37602
285.37615
285.37628
285.37641
285.37654
285.37667
285.3768
285.37692
285.37704
285.37717
285.37729
285.37741
285.37753
285.37764
285.37776
285.37788
285.37799
285.3781
285.37821
285.37832
285.37843
285.37854
285.37865
285.37876
285.37887
285.37897
285.37908
285.37918
285.37928
285.37938
285.37948
285.37958
285.37968
285.37978
285.37988
285.37998
285.38007
285.38017
285.38027
285.38036
285.38046
285.38055
285.38064
285.38074
285.38083
285.38092
285.38101
285.3811
285.38119
285.38128
285.38137
285.38145
285.38154
285.38163
285.38171
285.3818
285.38188
285.38196
285.38204
285.38213
285.38221
285.38229
285.38236
285.38244
285.38252
285.3826
285.38267
285.38275
285.38282
285.38289
285.38297
285.38304
285.38311
285.38318
285.38325
285.38332
285.38338
285.38345
285.38351
285.38358
285.38364
285.38371
285.38377
285.38383
285.38389
285.38395
285.38402
285.38408
285.38414
285.3842
285.38425
285.38431
285.38437
285.38443
285.38448
285.38454
285.38459
285.38465
285.3847
285.38476
285.38481
285.38487
285.38492
285.38498
285.38503
285.38508
285.38514
285.38519
285.38525
285.3853
285.38536
285.38541
285.38546
285.38552
285.38557
285.38563
285.38568
285.38574
285.38579
285.38585
285.3859
285.38595
285.38601
285.38606
285.38612
285.38617
285.38623
285.38628
285.38634
285.3864
285.38645
285.38651
285.38657
285.38663
285.38669
285.38675
285.3868
285.38686
285.38692
285.38698
285.38705
285.38711
285.38717
285.38723
285.3873
285.38736
285.38742
285.38749
285.38755
285.38762
285.38768
285.38775
285.38781
285.38788
285.38795
285.38801
285.38808
285.38815
285.38822
285.38828
285.38835
285.38842
285.38849
285.38856
285.38863
285.3887
285.38877
285.38884
285.38891
285.38898
285.38906
285.38913
285.3892
285.38928
285.38935
285.38943
285.38951
285.38958
285.38966
285.38973
285.38981
285.38989
285.38997
285.39005
285.39013
285.39021
285.39029
285.39037
285.39045
285.39053
285.39062
285.3907
285.39078
285.39087
285.39096
285.39105
285.39113
285.39122
285.39131
285.3914
285.39149
285.39158
285.39167
285.39177
285.39186
285.39195
285.39205
285.39215
285.39224
285.39234
285.39244
285.39254
285.39264
285.39274
285.39285
285.39295
285.39306
285.39316
285.39327
285.39338
285.39349
285.3936
285.39371
285.39383
285.39394
285.39406
285.39418
285.3943
285.39442
285.39454
285.39466
285.39479
285.39491
285.39504
285.39516
285.39529
285.39542
285.39555
285.39568
285.39581
285.39594
285.39608
285.39621
285.39635
285.39648
285.39661
285.39674
285.39686
285.39699
285.39711
285.39724
285.39736
285.39747
285.39758
285.39768
285.39778
285.39788
285.39797
285.39805
285.39812
285.39819
285.39825
285.39831
285.39836
285.3984
285.39844
285.39847
285.39849
285.39852
285.39854
285.39855
285.39857
285.39858
285.39859
285.39861
285.39862
285.39864
285.39866
285.3987
285.39874
285.39879
285.39886
285.39894
285.39903
285.39915
285.39928
285.39944
285.39962
285.39982
285.40003
285.40026
285.4005
285.40075
285.40101
285.40128
285.40155
285.40183
285.4021
285.40237
285.40264
285.4029
285.40316
285.4034
285.40363
285.40385
285.40408
285.40431
285.4046
285.40501
285.40569
285.40685
285.40892
285.41258
285.41893
285.42972
285.44758
285.47637
285.52146
285.59003
285.69108
285.83531
286.03442
286.30007
286.64226
287.06765
287.57796
288.16906
288.83122
289.55044
290.31077
291.09672
291.89481
292.69384
293.48381
294.2546
294.99548
295.69607
296.34816
296.94708
297.49144
297.98154
298.41795
298.80136
299.13368
299.41876
299.66161
299.8669
300.03835
300.17953
300.29471
300.38838
300.46408
300.52427
300.57136
300.60812
300.63691
300.65906
300.67557
300.68786
300.69724
300.70421
300.70904
300.71239
300.71495
300.71676
300.71773
300.71832
300.71877
300.71892
300.71896
300.71895
300.71887
300.71871
300.71855
300.71836
300.71815
300.71799
300.71782
300.71767
300.71753
300.71738
300.71725
300.71713
300.71696
300.71682
300.71669
300.71652
300.71636
300.71621
300.71603
300.71588
300.71571
300.71557
300.7154
300.71527
300.71512
300.715
300.71489
300.7148
300.71472
300.71468
300.71464
300.71464
300.71464
300.71468
300.71474
300.71482
300.71493
300.71506
300.71521
300.71539
300.71559
300.71581
300.71605
300.71631
300.7166
300.7169
300.71723
300.71757
300.71793
300.7183
300.7187
300.71911
300.71954
300.71998
300.72044
300.72092
300.72141
300.72192
300.72245
300.72299
300.72355
300.72412
300.72471
300.72531
300.72593
300.72657
300.72722
300.72789
300.72858
300.72928
300.73
300.73074
300.73149
300.73225
300.73304
300.73384
300.73467
300.73551
300.73636
300.73724
300.73813
300.73904
300.73997
300.74092
300.74188
300.74287
300.74388
300.7449
300.74595
300.74701
300.7481
300.7492
300.75033
300.75147
300.75264
300.75383
300.75504
300.75627
300.75752
300.7588
300.76009
300.76141
300.76275
300.76411
300.7655
300.76691
300.76834
300.7698
300.77128
300.77278
300.77431
300.77586
300.77744
300.77904
300.78067
300.78232
300.784
300.7857
300.78743
300.78919
300.79097
300.79278
300.79461
300.79647
300.79836
300.80028
300.80222
300.80419
300.80619
300.80821
300.81027
300.81236
300.81447
300.81661
300.81878
300.82098
300.82321
300.82547
300.82776
300.83008
300.83243
300.83482
300.83723
300.83967
300.84215
300.84465
300.84719
300.84976
300.85236
300.855
300.85766
300.86036
300.86309
300.86586
300.86866
300.87149
300.87435
300.87725
300.88018
300.88314
300.88614
300.88918