/*--------------------------------*- C++ -*----------------------------------*\
  =========                 |
  \\      /  F ield         | OpenFOAM: The Open Source CFD Toolbox
   \\    /   O peration     | Website:  https://openfoam.org
    \\  /    A nd           | Version:  7
     \\/     M anipulation  |
\*---------------------------------------------------------------------------*/
FoamFile
{
    version     2.0;
    format      ascii;
    class       volScalarField;
    location    "0.00347";
    object      Uz;
}
// * * * * * * * * * * * * * * * * * * * * * * * * * * * * * * * * * * * * * //

dimensions      [0 1 -1 0 0 0 0];

internalField   nonuniform List<scalar> 
5000
(
0
0
0
0
0
-3.9092769e-22
-7.929769e-37
1.1914648e-21
4.0629281e-22
-8.4496826e-22
-8.6010199e-22
4.2185664e-22
-3.5486694e-36
-3.6834984e-36
8.4302935e-22
-8.453107e-22
-4.177268e-52
-3.7099259e-36
-4.2063121e-22
8.4059532e-22
4.1990673e-22
0
0
-4.1855996e-22
3.5650096e-36
-3.4424574e-36
-4.1720159e-22
4.1674168e-22
4.1628042e-22
-4.1582064e-22
7.2602632e-36
-3.5376888e-36
-4.1444839e-22
4.1399852e-22
4.1356005e-22
0
0
-4.123333e-22
-4.1195936e-22
4.1160686e-22
-6.8966695e-36
-4.1097966e-22
4.1070571e-22
-6.9411651e-36
-4.1022206e-22
4.1000293e-22
-1.4092547e-35
1.4025968e-35
-1.3950611e-35
6.7905266e-36
3.9848925e-22
0
0
0
0
0
0
0
0
0
0
0
0
-3.9701914e-22
-3.9596036e-22
3.9528399e-22
-6.8121e-36
1.4858227e-52
3.9905878e-22
0
0
-3.9385508e-22
-3.9207251e-22
0
3.9089035e-22
1.3678874e-35
-3.982138e-22
-3.9763623e-22
3.9752829e-22
7.8807864e-22
-7.7955463e-22
2.2032781e-37
1.1621147e-21
-7.7784875e-22
-4.083057e-35
7.9365419e-22
-1.1838656e-21
3.9122648e-22
3.9456512e-22
-3.9671453e-22
3.9733021e-22
3.9877915e-22
1.3855325e-35
-7.8610405e-22
-2.6992298e-35
-3.9387801e-22
-3.9641506e-22
-1.3940275e-35
2.7753578e-35
7.9522975e-22
3.9249972e-22
-3.8919401e-22
5.5851274e-38
3.9232851e-22
0
-3.9281383e-22
-1.3651373e-35
3.8887732e-22
-3.9255311e-22
-3.9510958e-22
7.9186344e-22
3.974577e-22
-1.1894167e-21
-3.9475868e-22
1.186976e-21
-3.9728657e-22
-3.9626997e-22
-2.2428502e-37
-3.9555474e-22
1.1922385e-21
-2.7700744e-35
-7.8509925e-22
7.8211808e-22
3.9085196e-22
-3.8918921e-22
3.8725448e-22
-3.8790493e-22
-7.8383866e-22
3.937822e-22
1.3627168e-35
3.9612123e-22
7.9027194e-22
-3.8991047e-22
-3.857455e-22
-3.8779733e-22
-1.3515057e-35
-1.3421725e-35
1.3475968e-35
7.7404881e-22
3.9020827e-22
-3.8959961e-22
-7.6930806e-22
-3.8634577e-22
-3.9207257e-22
2.7056527e-35
7.7374234e-22
-1.1122262e-37
1.1119459e-37
-2.8043393e-52
3.9150967e-22
-2.7119465e-35
5.4019934e-35
3.9184063e-22
-3.9510034e-22
3.9642256e-22
1.3803445e-35
-3.973756e-22
3.9243293e-22
-5.5300982e-38
-3.9338779e-22
0
3.898943e-22
2.7270706e-35
-7.9516697e-22
3.9912544e-22
-1.1394767e-37
-4.0012472e-22
3.9517733e-22
-3.8945921e-22
3.9133612e-22
-1.6566963e-34
-1.0993477e-34
3.905823e-22
-7.8481209e-22
0
-2.7542557e-35
-8.1907079e-35
3.9794115e-22
3.9771406e-22
2.7190087e-35
-3.9870613e-22
3.9850189e-22
2.7165545e-35
1.6968249e-37
5.5303434e-35
-7.9615462e-22
3.9786244e-22
3.9804779e-22
-2.7668127e-35
2.7739769e-35
-8.2583788e-35
2.7513006e-35
-4.0436074e-22
0
0
0
0
-4.0092299e-22
8.4490304e-35
4.0520951e-22
4.0215484e-22
-4.0649715e-22
-4.0669262e-22
8.027356e-22
2.7907693e-35
-8.505501e-35
-4.0827078e-22
-4.0491132e-22
4.0929615e-22
0
4.0616965e-22
2.8408204e-35
-4.1063758e-22
-4.0525822e-22
5.6695064e-35
4.1349912e-22
-8.2421455e-22
4.0882681e-22
4.1325977e-22
-4.1300491e-22
4.0965806e-22
0
0
0
4.126115e-22
-4.1399799e-22
-8.2652098e-22
4.1342409e-22
-2.8710324e-35
4.1229544e-22
4.1364564e-22
-8.3676092e-22
1.1923405e-37
-1.1897398e-37
4.1862093e-22
4.1821311e-22
-8.3578655e-22
5.9018206e-38
-8.6592971e-35
4.2101344e-22
-2.3328315e-34
-5.7439494e-35
4.1591218e-22
-4.2213189e-22
0
-4.2207539e-22
4.2212937e-22
4.2155707e-22
-4.2105834e-22
0
-4.185634e-22
4.2366388e-22
4.2227345e-22
-1.4537213e-34
-8.456948e-22
-8.454024e-22
1.2510387e-21
8.372283e-22
0
-8.4588853e-22
-4.1833572e-22
4.2017266e-22
4.2114495e-22
4.2033145e-22
-8.4101145e-22
-8.4000292e-22
4.1868814e-22
8.3898528e-22
1.1762944e-34
-8.4572421e-22
4.1686022e-22
-5.802166e-35
-4.2426952e-22
8.4443462e-22
-4.1824146e-22
5.8794244e-35
4.2149412e-22
-4.1775044e-22
4.2158748e-22
-8.4170647e-22
1.7403439e-34
8.4178547e-22
-8.3951312e-22
-2.8767811e-35
4.1949995e-22
0
0
4.1843832e-22
-4.1467955e-22
-8.2954023e-22
4.1881728e-22
-1.1878841e-37
4.1686042e-22
4.1628721e-22
-4.1392217e-22
0
-4.1432076e-22
-4.1067043e-22
0
8.2416489e-22
4.0716681e-22
-8.218684e-22
2.8600835e-35
-1.1715904e-37
4.1173978e-22
4.092324e-22
-4.056247e-22
4.0521457e-22
-4.0913207e-22
2.3133692e-37
8.0516513e-22
-4.0612574e-22
-4.052581e-22
-3.986712e-22
-5.5431617e-35
4.0526633e-22
0
0
-4.0158426e-22
5.5580666e-35
-1.0966523e-34
-5.5136595e-35
3.9738298e-22
-3.9622744e-22
5.6276909e-38
3.9437822e-22
0
0
0
0
0
0
0
-3.8976036e-22
0
3.9533157e-22
0
-3.9183926e-22
-1.0651175e-34
3.7800627e-22
0
0
-3.8222682e-22
-5.2922149e-35
3.7874533e-22
0
0
-3.7717978e-22
-3.7577289e-22
3.7148348e-22
3.7086811e-22
0
-3.7294161e-22
5.211225e-38
3.6698673e-22
-3.6556154e-22
-3.6380426e-22
3.6828582e-22
3.6676611e-22
0
-3.6504331e-22
-3.6400601e-22
3.569012e-22
3.5760037e-22
0
-3.6050406e-22
-3.5554982e-22
3.5918029e-22
3.5791261e-22
0
0
0
0
0
0
0
0
-3.5408899e-22
-3.3904117e-51
3.5196246e-22
0
0
0
-3.5422697e-22
-4.8285979e-35
3.4084915e-22
-3.4177386e-22
4.8288622e-35
-4.9029964e-38
-4.7181198e-35
3.4271235e-22
-3.4319793e-22
3.4097773e-22
-1.8865989e-34
-3.3433957e-22
3.2994875e-22
0
0
-3.3944103e-22
-4.6900589e-35
3.3338904e-22
-3.3758867e-22
-3.3675534e-22
0
3.3660624e-22
3.3571104e-22
-3.3128874e-22
-9.3071528e-35
1.6780959e-51
-4.5447292e-35
3.2833289e-22
-3.3490811e-22
-7.7443785e-51
-4.5464722e-35
-3.307934e-22
0
0
3.2981129e-22
4.661295e-38
-1.3744599e-34
3.2843232e-22
0
0
-3.2827136e-22
8.9856618e-35
3.2881255e-22
0
0
0
-3.3289319e-22
4.7309573e-38
3.3301176e-22
-3.3322526e-22
3.3353699e-22
-9.3012169e-35
-6.7245449e-22
3.379034e-22
1.4230868e-34
4.7954494e-35
-4.8314602e-35
-3.5065616e-22
0
0
3.5555448e-22
4.951459e-35
-9.9275331e-35
-4.4915912e-53
-3.5972984e-22
3.6084538e-22
3.6198748e-22
0
-3.6455661e-22
-5.08132e-35
3.6752525e-22
0
0
-3.7214968e-22
1.0616233e-37
-7.1249998e-53
-3.7647565e-22
3.7801764e-22
-5.2560629e-35
5.2798728e-35
-1.0573209e-34
-3.8155985e-22
3.8208875e-22
-1.0622145e-34
1.0641504e-34
-1.066107e-34
-3.8457894e-22
3.8551967e-22
-1.0739208e-34
5.4004156e-35
0
-3.8985898e-22
3.9096871e-22
-5.4628977e-35
5.6382233e-38
-5.5350489e-35
5.543431e-35
3.9941363e-22
-4.0212625e-22
-4.0747388e-22
4.1181695e-22
4.1133087e-22
0
-4.1011732e-22
-4.1181012e-22
0
4.2542517e-22
-5.9567893e-35
6.0959636e-38
5.9552802e-35
-4.2884584e-22
4.3017051e-22
5.9932328e-35
-1.201999e-34
-4.3758685e-22
-4.4471655e-22
8.9339913e-22
-6.3020356e-38
6.1351982e-35
4.4585749e-22
-4.4658955e-22
6.1535484e-35
4.4341247e-22
0
0
0
-4.4693877e-22
-4.5122626e-22
4.5498879e-22
4.5804851e-22
0
-4.5724223e-22
-4.579392e-22
4.5710323e-22
4.5283321e-22
0
-4.6161223e-22
-4.6541165e-22
4.6485857e-22
1.2838881e-34
-4.6838098e-22
0
0
0
0
4.7587062e-22
-1.3287922e-34
-4.8011073e-22
4.807072e-22
6.6965736e-35
-6.7635583e-35
-4.6503679e-53
4.896935e-22
4.8969224e-22
-9.8022367e-22
-6.8098022e-35
6.8101388e-35
-4.903735e-22
0
4.938816e-22
4.9917517e-22
-5.0291174e-22
-1.3946821e-34
5.0604111e-22
0
0
-5.0832955e-22
7.0496266e-35
5.0847268e-22
0
-5.1287362e-22
7.3340664e-38
-1.4359083e-34
-7.1707755e-35
5.1758311e-22
-5.1826644e-22
7.3752355e-38
-1.4428695e-34
-5.2050253e-22
5.1811581e-22
1.4294867e-34
7.3599389e-38
-7.2810477e-35
-5.2983637e-22
5.3156524e-22
0
-2.9522136e-34
-7.3821037e-35
-2.214519e-34
-7.5409699e-38
-5.321179e-22
5.3654888e-22
-5.4660553e-52
-7.5077447e-35
1.5012288e-34
-7.5139403e-35
1.0835802e-21
-5.42138e-22
-5.423174e-22
-7.4956233e-35
7.4397371e-35
1.0751526e-21
-5.437541e-22
-5.4819664e-22
7.8435639e-53
0
7.7475199e-53
-5.4374871e-22
5.3620348e-22
-5.2761282e-53
-7.4667055e-35
-7.7627531e-38
-5.5347923e-22
1.1219982e-21
1.5663099e-34
-5.6438209e-22
7.8241647e-35
-7.8033598e-35
5.5887338e-22
-5.53648e-22
1.0427809e-52
-2.3283618e-34
1.5892195e-34
-1.5900891e-34
-1.5617112e-34
-2.4893765e-52
0
5.6163637e-22
0
0
-5.5678439e-22
-1.5543741e-34
5.6315909e-22
0
0
-1.1242575e-21
-4.6727018e-34
1.1197683e-21
-5.5433497e-22
7.7698609e-38
-7.577425e-35
-5.4948735e-22
0
0
0
-5.553201e-22
-1.5478161e-34
5.6127674e-22
0
0
-5.5907528e-22
7.9209424e-38
5.5387605e-22
0
0
-5.4586768e-22
-1.5091389e-34
-1.5138702e-34
1.508257e-34
5.3847039e-22
-5.4018661e-22
1.516537e-34
-1.5289951e-34
1.5271535e-34
5.4878605e-22
0
0
-5.4060682e-22
3.3395511e-52
5.4402263e-22
0
0
-5.4359899e-22
-2.4674212e-52
5.4383379e-22
0
0
-5.3532244e-22
-1.132745e-50
5.1643048e-22
0
0
-5.1611424e-22
7.312053e-38
5.1247464e-22
-5.1069785e-22
1.4108519e-34
-1.4019078e-34
1.3998245e-34
5.0602914e-22
0
0
0
0
0
-4.9668599e-22
1.3405198e-34
4.7501912e-22
0
0
0
0
0
0
0
-4.677681e-22
2.5996529e-34
4.6722973e-22
0
0
0
0
0
0
0
-4.4847115e-22
1.2407126e-34
4.5326026e-22
0
0
-4.3916926e-22
1.1991341e-34
4.2821117e-22
0
0
0
-3.9808776e-22
-1.1067731e-34
3.9506882e-22
0
0
0
0
0
0
0
-3.6917433e-22
5.1899409e-38
3.5870023e-22
0
0
0
0
0
0
0
-3.5940375e-22
-4.9803077e-38
3.3656659e-22
0
0
0
-3.140546e-22
1.7177446e-34
3.0750431e-22
0
-3.0312427e-22
-8.3186527e-35
2.9553905e-22
0
0
-2.8130197e-22
-2.777994e-22
2.7490691e-22
2.7118643e-22
0
0
0
0
2.3918141e-22
-3.319474e-38
-4.5834937e-22
-2.2120702e-22
4.5073169e-22
4.6923251e-22
-2.3170002e-22
-2.2579901e-22
0
0
0
0
-1.9240985e-22
-5.2550579e-35
1.8295306e-22
0
0
0
0
0
0
0
0
0
0
0
0
0
0
-1.0611385e-22
5.4046643e-35
7.8289195e-23
0
0
7.6502126e-23
-1.9705704e-35
9.1737246e-39
-6.2909323e-23
-6.0701407e-23
-3.0864915e-35
1.2424117e-35
3.4607712e-23
0
0
0
0
0
1.7019879e-24
-4.8264178e-36
-1.8098596e-23
0
0
0
0
0
0
0
7.1994518e-23
-4.6467715e-35
-8.9979569e-23
0
0
0
0
0
0
0
1.4033715e-22
-1.2451096e-34
-1.6045474e-22
0
0
0
0
0
0
0
0
2.0623082e-22
-3.0007186e-38
-2.2600399e-22
0
0
0
0
2.9631933e-22
-3.0651896e-22
-3.0670046e-22
5.9932876e-22
8.5574881e-35
-3.2874548e-22
0
0
0
0
3.8320357e-22
-1.0869748e-34
-8.11203e-22
4.1492624e-22
4.2023598e-22
-4.2856323e-22
0
0
0
4.5291947e-22
1.2903369e-34
-4.8898023e-22
-5.0389018e-22
5.1282061e-22
5.1614746e-22
-5.1558706e-22
0
0
5.496244e-22
5.6557289e-22
-5.7780555e-22
-5.8752361e-22
-5.9805928e-22
-3.4121241e-34
6.3819068e-22
0
0
0
6.6791008e-22
6.7894584e-22
-6.8520461e-22
-6.9088313e-22
-7.0043988e-22
-2.0137243e-34
7.5411942e-22
0
0
0
7.6136756e-22
-2.152125e-34
-8.0639888e-22
0
0
0
0
0
0
0
8.8360525e-22
-2.4431597e-34
-1.7859249e-21
-2.5541529e-34
9.3903722e-22
0
0
9.5835081e-22
-1.4001296e-37
2.8096308e-34
-2.809242e-34
-1.0089914e-21
-1.0147153e-21
2.8435289e-34
1.042275e-21
0
0
1.0903443e-21
-9.1993326e-34
-3.1035525e-34
1.6149154e-37
-1.1428836e-21
1.139047e-21
1.1474152e-21
-2.3333017e-21
6.5612607e-34
1.1921962e-21
-1.2075522e-21
0
1.2425114e-21
3.4477088e-34
-1.2474693e-21
0
1.279364e-21
-1.3079489e-21
1.4802762e-33
1.3352399e-21
-1.3323366e-21
0
1.3616722e-21
0
-1.3940863e-21
0
1.4009348e-21
-1.4152641e-21
8.0105328e-34
1.4644531e-21
-1.4761706e-21
0
1.4915004e-21
4.1684554e-34
-1.5131135e-21
0
1.5347879e-21
-1.5590205e-21
4.4901384e-37
1.5770724e-21
-1.5714831e-21
0
1.6004948e-21
1.6246926e-21
-1.6380901e-21
-1.6440687e-21
1.6526781e-21
-1.6635966e-21
-1.6748345e-21
1.6877903e-21
0
0
0
0
0
0
1.7655575e-21
-6.1338588e-52
-3.5758966e-21
1.7824407e-21
1.793223e-21
-1.809015e-21
0
0
1.8708287e-21
1.8649973e-21
-1.8596103e-21
-1.8694531e-21
0
1.8895742e-21
5.2457788e-34
-1.9053665e-21
0
0
1.9238418e-21
1.9272682e-21
-1.937918e-21
-1.9541096e-21
0
1.9799268e-21
-5.4975544e-34
-2.0033412e-21
2.0263209e-21
1.1253039e-33
2.8771486e-37
2.0249328e-21
-2.024374e-21
-2.0268697e-21
0
0
2.0397649e-21
-5.7097251e-34
-2.0588052e-21
0
2.0673928e-21
2.0721482e-21
-2.0628978e-21
-2.0620407e-21
0
0
0
0
0
0
2.0909359e-21
-5.8231141e-34
-2.1083811e-21
0
0
0
0
0
0
2.0969664e-21
6.5349601e-52
-2.0806759e-21
-2.1002648e-21
-5.8589415e-34
2.0981354e-21
0
0
0
0
2.0502575e-21
5.6433739e-34
-2.0219755e-21
2.0208826e-21
2.0317052e-21
-2.0348049e-21
1.1189521e-33
1.6687619e-33
1.6636559e-33
-5.4923265e-34
1.0856493e-33
-5.3754893e-34
-1.9170385e-21
0
1.8713497e-21
-1.5477864e-33
2.6288174e-37
1.8247587e-21
-1.7941947e-21
-1.7653525e-21
1.7396151e-21
-4.7813704e-34
1.4155368e-33
9.2829224e-34
9.0871488e-34
-4.4310555e-34
8.662906e-34
1.5309545e-21
-1.4997807e-21
-1.450728e-21
1.3999067e-21
-3.7893125e-34
1.4669276e-33
3.5108077e-34
-3.3824215e-34
-3.2427626e-34
-3.108833e-34
1.0743145e-21
0
-9.3305913e-22
2.3979812e-34
1.152008e-50
-7.3720441e-22
0
5.9131354e-22
-5.038825e-22
-4.0870531e-22
3.1896906e-22
0
0
0
0
-2.128589e-22
8.8234281e-35
-2.4288888e-34
5.7403103e-22
7.1482102e-22
-8.47068e-22
0
0
0
0
-1.6036394e-21
-2.549139e-37
1.9947764e-21
0
0
0
0
0
0
0
-3.7572113e-21
-4.0305012e-21
4.3064831e-21
4.5897631e-21
0
0
0
0
0
0
-7.0166774e-21
-7.4120352e-21
7.832459e-21
8.2758667e-21
0
0
0
0
0
0
-1.1921387e-20
-1.2524479e-20
1.3163057e-20
1.3837001e-20
0
0
0
0
0
0
-1.9270137e-20
1.1209682e-32
2.1140239e-20
0
0
0
0
0
0
-2.8951213e-20
8.4019351e-33
3.1613795e-20
0
0
0
0
-3.9281746e-20
-5.8274043e-36
4.2797898e-20
-4.4661532e-20
9.5375976e-50
4.8626907e-20
-5.0731229e-20
2.9388752e-32
5.5190939e-20
-5.7551959e-20
-3.3317912e-32
-3.4738509e-32
2.0986758e-48
-3.7747573e-32
-1.9663136e-32
7.3876547e-20
-7.6984991e-20
-8.0219002e-20
1.6716787e-19
-4.8314136e-32
-1.8145048e-19
0
9.8441842e-20
-2.8469602e-32
-2.9664506e-32
-9.2565217e-32
-9.6406285e-32
-6.688724e-32
1.0451529e-31
-7.2521259e-32
3.7795514e-32
1.4161097e-19
0
-1.5341889e-19
-2.2690735e-35
-1.3833176e-31
-1.4397835e-31
2.5570329e-35
1.039223e-31
-5.4091094e-32
-2.026644e-19
0
2.1933256e-19
-1.2664275e-31
-3.3724624e-35
2.4683731e-19
0
-2.6699636e-19
2.7766547e-19
2.887443e-19
-3.0024897e-19
0
0
-3.374975e-19
3.8958143e-31
-2.0237493e-31
2.1054161e-31
-1.0951388e-31
4.0973904e-19
4.2588899e-19
-4.4265442e-19
0
0
0
0
-5.3655975e-19
-1.5481621e-31
-6.4311094e-31
6.0189264e-19
6.2534378e-19
-6.4967896e-19
0
0
0
0
-7.8582034e-19
-8.1619865e-19
8.4771436e-19
8.8040984e-19
0
0
0
0
0
0
-1.1461471e-18
-1.1899705e-18
1.2354176e-18
1.2825444e-18
0
0
0
0
0
0
-1.6649781e-18
1.4389554e-30
3.5864346e-18
-1.8608848e-18
-5.7930944e-18
-2.0037383e-18
0
4.3144238e-18
-2.4853392e-30
-7.7328612e-30
-2.4090057e-18
-4.9982115e-18
5.1849477e-18
-2.6892223e-18
-2.7894662e-18
2.8933301e-18
-3.0009375e-18
4.4230104e-34
3.227905e-18
3.347542e-18
-3.4714749e-18
-3.599849e-18
3.7328131e-18
-3.8705283e-18
-5.7030364e-34
4.16086e-18
0
0
0
9.6121264e-18
-4.9819009e-18
-1.0327895e-17
5.3524168e-18
-5.5475238e-18
-5.7494924e-18
1.1917107e-17
-8.4795508e-47
-6.3989152e-18
6.6307223e-18
1.3741247e-17
7.1188831e-18
-2.2127347e-17
7.6416119e-18
-1.4548839e-45
-2.460376e-17
1.6991379e-17
8.8003128e-18
9.1154659e-18
1.8882974e-17
-1.9557458e-17
-1.0127579e-17
-1.0488448e-17
1.0861812e-17
1.1248754e-17
-3.494664e-17
1.2061125e-17
1.2487339e-17
-1.2928566e-17
-1.3384373e-17
-1.9689617e-33
4.3026432e-17
-1.4845292e-17
2.5582129e-29
-2.6485478e-29
-4.9371895e-17
1.703069e-17
1.762305e-17
3.6469967e-17
-1.8867117e-17
-3.9040154e-17
4.0388992e-17
-2.089103e-17
2.1610349e-17
2.2353124e-17
-6.9360178e-17
2.3911886e-17
2.4729323e-17
-5.1146253e-17
-2.6444092e-17
2.7343014e-17
8.4812116e-17
-2.9228012e-17
-1.2086313e-16
1.7337733e-29
6.4572417e-17
3.3370671e-17
0
7.1285521e-17
8.176848e-29
-1.1417665e-16
3.9323472e-17
-9.0204588e-29
4.197094e-17
4.3355975e-17
-8.9566708e-17
0
0
0
-5.0939222e-17
2.920208e-29
1.086032e-16
-5.6058196e-17
-1.157335e-16
1.7918566e-16
-2.0530563e-28
-1.2723426e-16
6.5646581e-17
0
0
0
1.4872792e-16
-7.6700167e-17
-1.5820391e-16
2.4471227e-16
-2.390493e-32
-1.7343029e-16
0
0
-9.497057e-17
5.4340312e-29
2.0170111e-16
-1.0390768e-16
-2.1408988e-16
3.3079114e-16
-1.8908002e-28
-2.3390294e-16
1.2042323e-16
-1.2398206e-16
2.5525861e-16
1.3136627e-16
-4.5021996e-28
-1.3911438e-16
-2.8625586e-16
4.4170809e-16
-8.6083547e-32
-1.557402e-16
8.8888902e-29
-1.6463485e-16
-1.6923082e-16
9.6542668e-29
5.3617164e-16
-5.2188576e-32
-5.6586746e-16
3.8745002e-16
-1.2216011e-44
-4.0847571e-16
2.0964842e-16
-2.1516168e-16
4.4155488e-16
2.2649532e-16
-5.1587548e-28
-2.382352e-16
-4.8851142e-16
-2.5037536e-16
-2.56593e-16
7.8872165e-16
0
-2.758191e-16
-1.5676065e-28
1.6047031e-28
-1.6418613e-28
3.0272014e-16
-3.4376506e-28
3.1667024e-16
-1.078266e-27
-9.9275885e-16
6.7629585e-16
1.0363198e-15
3.5279135e-16
-1.0805932e-15
-7.3530824e-16
1.1254666e-15
-3.8269676e-16
-1.1708165e-15
0
0
4.1314426e-16
4.2079581e-16
0
-4.3609998e-16
-4.4373836e-16
9.0271552e-16
-1.0190097e-27
-1.3995263e-15
5.2623916e-28
4.8148939e-16
4.8889535e-16
4.9623381e-16
-5.0349621e-16
-5.1067387e-16
5.1775792e-16
1.5742185e-15
-5.3160983e-16
-2.1534398e-15
5.4498102e-16
1.1029284e-15
5.5780055e-16
0
-5.6999788e-16
0
-5.8150401e-16
5.8697708e-16
-1.3149806e-27
5.9732303e-16
-2.0055352e-27
-1.8204504e-15
6.1122702e-16
6.1540386e-16
-6.193389e-16
-6.2302721e-16
6.2646394e-16
1.8889287e-15
-6.3255947e-16
-2.5408374e-15
1.061911e-27
6.3969277e-16
1.2830395e-15
6.4306636e-16
-1.2886611e-15
-3.581965e-28
-9.1802876e-32
6.4640861e-16
-1.4354541e-27
-6.4632117e-16
1.9375334e-15
-7.1614054e-28
-1.2880771e-15
0
0
-6.3923655e-16
3.5363303e-28
1.2693509e-15
-6.3199915e-16
-1.2581312e-15
-6.2587961e-16
6.9083456e-28
1.8563265e-15
6.148685e-16
-6.1073408e-16
1.2127576e-15
-3.4208889e-31
-1.9885636e-27
-5.920592e-16
-1.1737879e-15
1.7446362e-15
-6.3963319e-28
-1.1406597e-15
0
0
1.1046563e-15
-1.2124141e-27
-5.9895014e-28
-1.5152668e-31
-1.5795262e-15
-1.0395594e-15
8.5433698e-28
1.5181578e-15
4.9907129e-16
-4.9202156e-16
9.6982387e-16
5.3023845e-28
-1.566983e-27
-4.6329568e-16
-9.1203903e-16
1.3461595e-15
-4.4140333e-16
-4.3407639e-16
4.267457e-16
-4.1941753e-16
8.2419529e-16
-4.4938051e-28
-3.9750583e-16
-5.5457119e-32
-7.66028e-16
7.5163665e-16
-6.1380205e-28
-7.231008e-16
3.5448668e-16
0
-3.4052011e-16
-1.8513971e-28
9.8037761e-16
-3.2002626e-16
-6.2665832e-16
-3.0670421e-16
-3.0015331e-16
2.9367828e-16
2.8728257e-16
2.8097e-16
-2.7474077e-16
1.4908923e-28
-1.4568504e-28
2.5655019e-16
-2.7834815e-28
2.4487117e-16
-7.9653042e-28
-7.0064959e-16
4.5605028e-16
2.0567073e-45
-2.172514e-16
-2.3532567e-28
1.1484555e-28
6.0535387e-16
-1.9681405e-16
-5.7580742e-16
0
0
1.7785222e-16
1.7333983e-16
3.3783507e-16
-1.6458474e-16
-3.2068162e-16
3.1237004e-16
-1.5211655e-16
-4.4440342e-16
1.4423786e-16
1.4042576e-16
1.366972e-16
1.3305119e-16
-2.589734e-16
-1.2600271e-16
1.2259814e-16
3.578151e-16
-1.1602205e-16
-1.6239749e-44
-1.8272663e-28
-2.1344939e-16
2.0754378e-16
2.017781e-16
-9.8075842e-17
-1.9066557e-16
1.8531756e-16
9.0050537e-17
-2.6251542e-16
-2.5506617e-16
8.260192e-17
1.6048875e-16
7.7947859e-17
-4.2025153e-29
-1.4706241e-16
-7.1408181e-17
6.9340199e-17
1.3465214e-16
-9.2888908e-33
-1.269105e-16
1.2319302e-16
-9.9576723e-29
-1.1605393e-16
5.631395e-17
1.0929464e-16
1.0605201e-16
0
-4.991515e-17
-1.4527062e-16
-4.697312e-17
4.5562914e-17
0
0
0
0
-3.9082027e-17
2.1033716e-29
1.1021574e-16
-3.5616727e-17
-1.0358088e-16
-3.3468446e-17
5.4029935e-29
6.2884363e-17
3.0472841e-17
-2.9531543e-17
5.7235285e-17
2.773065e-17
-8.9496393e-29
-2.6034056e-17
-5.0444954e-17
7.3304808e-17
-6.7278475e-33
-2.2931461e-17
3.156674e-33
-2.1514971e-17
-2.0836668e-17
2.2401483e-29
5.8624783e-17
-5.3787298e-33
-5.4981145e-17
-3.5494866e-17
9.5341266e-30
3.3278821e-17
1.611016e-17
-1.5596979e-17
3.019901e-17
1.4617332e-17
-4.7122039e-29
-1.3697176e-17
-2.6516683e-17
3.8499353e-17
-1.3792843e-29
-1.202191e-17
-1.163516e-17
-1.1260487e-17
-6.0458619e-30
5.8523078e-30
2.0410857e-17
5.4803292e-30
-1.9112546e-17
1.8493933e-17
-4.4700925e-29
-2.5972007e-17
1.6753155e-17
-8.9999043e-30
-1.5683378e-17
7.5867562e-18
7.3399183e-18
1.4202452e-17
-6.8705256e-18
-1.9941781e-17
0
0
0
1.7464904e-17
1.6897693e-17
-1.6349577e-17
-1.5818383e-17
1.0201814e-17
-1.4023546e-33
4.7725025e-18
-1.5377075e-29
-1.3396965e-17
1.2961305e-17
-2.0887548e-29
-8.0904012e-18
-2.172264e-30
2.1031055e-30
7.330672e-18
-3.546701e-18
3.431928e-18
-1.1062181e-29
-9.6411011e-18
9.3301961e-18
3.0099405e-18
-6.4682198e-30
5.6395483e-18
-5.459029e-18
-2.6423321e-18
-2.5581276e-18
-7.4304094e-18
2.6624342e-30
2.3224095e-18
6.7475029e-18
-1.4510536e-29
-6.3306189e-18
0
1.9806844e-18
3.8385518e-18
-1.8600448e-18
1.8029214e-18
-5.8209307e-30
-3.3890644e-18
4.9293629e-18
-3.5378023e-30
-1.7171062e-30
-1.6652718e-30
-1.6160349e-30
1.4127607e-18
-4.1139246e-18
-3.9944382e-18
1.2933453e-18
2.5135719e-18
0
-1.1873453e-18
1.2809055e-30
-2.490928e-30
1.210997e-30
1.0611015e-18
-1.0327249e-18
-1.0056663e-18
2.9394519e-18
1.2724182e-46
-1.5509749e-30
9.0828186e-19
-9.832558e-31
1.7296131e-18
-1.6884989e-18
-1.6489522e-18
-8.0548306e-19
8.7386753e-31
7.6979486e-19
0
0
0
1.4141238e-18
-6.9304661e-19
-1.3593073e-18
2.0005844e-18
-6.5464984e-19
-1.9289997e-18
1.8956816e-18
-2.0692587e-30
-1.2224842e-18
1.8049844e-18
1.1851144e-18
0
-1.1514446e-18
-1.8914063e-30
-5.6061459e-19
-1.1073439e-18
5.4712364e-19
0
1.0703337e-18
1.5055736e-34
5.8241241e-31
-5.1985012e-19
-1.546201e-18
1.5338022e-18
-8.454276e-31
-1.5116346e-18
1.5017131e-18
-2.4857621e-30
-9.8931211e-19
4.9206311e-19
-4.8974039e-19
9.7541359e-19
4.859699e-19
-2.1515764e-30
-4.8334649e-19
-9.6482595e-19
-4.8169189e-19
-4.811545e-19
9.6155883e-19
4.8054167e-19
0
-4.8038391e-19
2.6678985e-31
-6.9312166e-50
4.8123201e-19
-1.3694043e-34
4.8254582e-19
-2.1754456e-48
-1.4532773e-18
1.4567023e-18
1.4605131e-18
-9.7646541e-19
-9.7949696e-19
0
9.8625397e-19
-4.9498279e-19
-1.4908348e-18
1.4970308e-18
-8.3471423e-31
-1.0068761e-18
5.0579435e-19
0
-5.1077766e-19
-5.1339922e-19
5.1610352e-19
-8.6406655e-31
1.0434994e-18
2.9824975e-34
-1.5830876e-18
0
1.6017686e-18
1.0742721e-18
-1.6212396e-18
-1.0875075e-18
1.6414778e-18
5.5063346e-19
-2.2167218e-18
-5.5780267e-19
1.1230002e-18
1.1305409e-18
-6.3179783e-31
-5.7301096e-19
-5.7696878e-19
-5.8097547e-19
5.8502311e-19
-6.5399502e-31
1.186424e-18
-1.9894267e-30
-1.8044983e-18
0
0
1.2283006e-18
-1.3733026e-30
-6.2277136e-19
1.8814252e-18
-6.3155189e-19
-1.0589055e-30
-2.133113e-30
-1.9350254e-18
6.4956469e-19
-3.6301234e-31
7.3134116e-31
6.6342828e-19
-6.6811101e-19
9.5613888e-35
-3.7609911e-31
7.5739462e-31
6.8712655e-19
0
-6.9679504e-19
1.4033342e-18
7.0656355e-19
-1.4229667e-18
0
7.2138991e-19
-7.2637516e-19
-1.4627614e-18
2.2092171e-18
-2.4697852e-30
-2.486219e-30
7.5158824e-19
-2.2700534e-18
1.0825849e-34
7.6694334e-19
7.7211471e-19
-7.773187e-19
-7.8255698e-19
7.8782922e-19
0
-7.9846504e-19
1.6076414e-18
-1.3477237e-30
-8.1458118e-19
-1.8208234e-30
-1.8323287e-30
-2.3611469e-34
-1.6722782e-18
2.5245632e-18
2.5407121e-18
0
-1.7153773e-18
-2.5892888e-18
-1.234236e-34
8.7395017e-19
8.7939796e-19
-8.8485905e-19
-8.9033285e-19
8.9581883e-19
0
1.8136479e-18
1.8246833e-18
-2.7536057e-18
-9.2340396e-19
9.2894735e-19
-2.6560038e-34
-9.4005606e-19
-1.8912405e-18
-9.5119048e-19
1.5935058e-30
3.8493884e-18
-3.223656e-30
-2.9205642e-18
9.7911399e-19
9.8470947e-19
9.9030709e-19
-9.9590608e-19
-1.0015057e-18
-1.0071054e-18
-2.8782797e-34
1.0183022e-18
-1.0238973e-18
3.0884681e-18
2.0701587e-18
-3.1220105e-18
1.0462661e-18
2.1037442e-18
-2.114985e-18
1.0631298e-18
-1.0687842e-18
-2.1489083e-18
3.2404109e-18
-1.0858287e-18
3.6358952e-30
3.2916559e-18
-2.2058066e-18
-1.1085713e-18
-1.1142174e-18
-2.2396778e-18
1.1254368e-18
-2.6422192e-74
2.2731532e-18
1.1421272e-18
-1.2740878e-30
-1.1532067e-18
-2.3174803e-18
2.3285415e-18
-1.1697984e-18
-3.5259685e-18
3.542531e-18
1.1863602e-18
2.8650848e-47
1.1973773e-18
-3.6086306e-18
-1.2083695e-18
1.2138548e-18
2.4386648e-18
-1.2248017e-18
1.2302624e-18
-4.1154918e-30
-2.4823135e-18
3.7397687e-18
1.3906358e-30
-5.5844471e-30
2.8035019e-30
-2.5364376e-18
2.5471979e-18
-1.2789677e-18
-5.1372975e-18
1.2896687e-18
2.5900006e-18
0
2.6112487e-18
-2.9106312e-30
-7.481686e-34
-1.4670138e-30
-1.3266985e-18
-1.3319279e-18
1.3371409e-18
1.3423359e-18
-2.6950235e-18
2.7053365e-18
-1.5073723e-30
-2.7258636e-18
2.7360934e-18
4.5732351e-30
-1.5300805e-30
-1.3833674e-18
-2.7769437e-18
1.3935747e-18
-1.3986743e-18
7.7919793e-31
1.4088533e-18
2.8278538e-18
-1.4189847e-18
-2.8480429e-18
1.4290316e-18
-1.4340099e-18
2.3965931e-30
-1.4438587e-18
-3.217443e-30
2.9071345e-18
2.9167513e-18
3.2482399e-30
-4.8892546e-30
4.9050432e-30
-1.4773804e-18
-1.4820846e-18
-1.4867719e-18
1.491442e-18
0
0
-1.5053463e-18
8.381337e-31
2.152266e-34
1.6864111e-30
1.5236198e-18
0
-1.5326351e-18
-3.0742227e-18
1.5415664e-18
3.0920001e-18
3.1008243e-18
3.1096053e-18
-4.6775141e-18
-5.2072282e-30
4.7035288e-18
-3.1442913e-18
-3.1528522e-18
0
-1.5849201e-18
3.1782667e-18
1.5933241e-18
-3.1949844e-18
-1.6016376e-18
1.7826381e-30
4.8295814e-18
-1.6139377e-18
-4.8539767e-18
4.866072e-18
1.6260328e-18
-4.8900565e-18
1.813736e-30
1.6379219e-18
3.2836779e-18
1.8265458e-30
-3.2992073e-18
3.3069026e-18
-1.6572757e-18
-4.9832307e-18
0
1.6686096e-18
3.3446824e-18
-9.3081113e-31
1.6797341e-18
3.366791e-18
-3.374067e-18
-3.3812962e-18
0
-1.6978065e-18
-1.888757e-30
-1.8929069e-30
-1.8965462e-30
5.1355182e-18
3.4305783e-18
0
-3.444238e-18
-3.8306431e-30
-1.7288568e-18
-5.1965667e-18
1.7354938e-18
-9.6490172e-31
2.4755475e-34
1.7452209e-18
3.4967935e-18
-1.7515413e-18
-3.5093168e-18
1.757753e-18
0
3.527787e-18
-1.7669471e-18
-5.3099784e-18
1.7730314e-18
1.7760612e-18
3.5581551e-18
-1.7820738e-18
-5.3551297e-18
1.7879809e-18
-1.9879002e-30
-3.587515e-18
1.7966012e-18
1.7994196e-18
3.6044315e-18
5.4149808e-18
-3.6155152e-18
-3.6210207e-18
3.6264977e-18
2.0154803e-30
-3.6372916e-18
3.6425697e-18
2.0247834e-30
-3.6528643e-18
0
3.6628499e-18
3.6677334e-18
0
-5.5159287e-18
-1.8409837e-18
-5.2389745e-34
-1.8455988e-18
-1.8478851e-18
-2.053437e-30
3.7048749e-18
3.7094135e-18
-6.1845571e-30
-3.7184515e-18
3.722946e-18
6.2070112e-30
-3.7318839e-18
0
0
0
0
3.7533979e-18
2.0862063e-30
-3.7614247e-18
-1.8826596e-18
3.7691469e-18
-6.2838403e-30
-3.7766415e-18
3.7803267e-18
2.1009328e-30
-1.8937963e-18
3.7911666e-18
-6.3201091e-30
-3.7981741e-18
3.8016106e-18
3.8050085e-18
-3.8083687e-18
-3.8116881e-18
0
0
0
0
-1.9137693e-18
1.915287e-18
1.9167923e-18
-2.1295916e-30
-1.5292804e-74
-1.9212497e-18
-3.8454142e-18
-1.9241431e-18
3.8511083e-18
5.7808104e-18
-1.9282878e-18
-3.8592076e-18
5.7926473e-18
3.8642492e-18
-5.8000062e-18
-3.8690441e-18
-1.9356903e-18
-2.1501889e-30
3.8759493e-18
0
-1.940169e-18
1.9412274e-18
-4.312411e-30
-5.5231185e-34
-6.4747556e-30
-1.945256e-18
-1.9462355e-18
5.5343063e-34
3.8963522e-18
3.8982602e-18
-6.4940799e-30
-3.9019794e-18
0
0
0
-1.9542851e-18
-1.9550219e-18
1.9557289e-18
1.9564092e-18
-1.9570658e-18
3.9154022e-18
5.8749515e-18
0
-3.9189933e-18
-2.1754081e-30
-1.9606066e-18
-5.8834002e-18
1.9616396e-18
-3.2673838e-30
3.9251719e-18
-1.3076652e-29
-3.9268822e-18
-1.0900773e-30
-2.791303e-34
1.9645527e-18
-1.9648781e-18
3.9303624e-18
1.9654622e-18
-3.9314428e-18
3.9319181e-18
5.5882059e-34
-2.1835281e-30
-1.9665427e-18
-5.9000819e-18
3.9336466e-18
-9.4814758e-51
1.9670106e-18
-3.2761775e-30
-3.93421e-18
1.967119e-18
3.9342219e-18
-2.1831994e-30
-5.9010854e-18
5.5904213e-34
1.9668588e-18
-1.9667407e-18
3.9332012e-18
1.9664383e-18
-3.9325082e-18
3.9320966e-18
2.1818008e-30
-1.091097e-29
4.3641202e-30
-3.9300111e-18
3.9293801e-18
-1.9643535e-18
-3.927991e-18
1.963615e-18
-1.9632125e-18
3.9255775e-18
-3.2683075e-30
-5.8856303e-18
0
0
5.8810302e-18
1.959789e-18
-3.9184258e-18
3.9172297e-18
1.1129913e-33
-8.6918388e-30
-2.1722234e-30
-3.9120107e-18
3.9105981e-18
3.9091428e-18
-1.9538226e-18
-5.8591574e-18
-1.9522605e-18
1.9514464e-18
0
0
-1.948873e-18
1.0812719e-30
5.8411437e-18
5.5311667e-34
-3.8902947e-18
-1.9441706e-18
2.1566682e-30
5.8264998e-18
4.3099397e-30
-3.880247e-18
0
-1.9380309e-18
3.8739155e-18
1.9358782e-18
-4.2964086e-30
-1.9337471e-18
-3.8653666e-18
1.9315759e-18
0
0
0
0
-1.9255909e-18
1.06841e-30
5.7716666e-18
-1.9224662e-18
-5.7617275e-18
5.7554113e-18
1.9162506e-18
-3.8279775e-18
-1.9117012e-18
-3.1793746e-30
5.7218992e-18
-1.0830608e-33
-6.3399968e-30
-1.9015979e-18
-3.7991911e-18
-1.8975311e-18
-2.1037297e-30
1.8934729e-18
1.8916355e-18
1.89003e-18
1.8886118e-18
-4.1901278e-30
-3.7709758e-18
0
0
-1.8790981e-18
-3.1253385e-30
-2.6644126e-34
2.6614779e-34
1.8707302e-18
3.7370571e-18
3.7325179e-18
-3.7279147e-18
-2.0677765e-30
-1.859364e-18
-5.5712861e-18
0
0
1.8503704e-18
1.8481245e-18
0
-1.8435688e-18
1.0220341e-30
1.8389032e-18
-1.8365183e-18
3.6681834e-18
-6.1002219e-30
-5.4877583e-18
1.8269837e-18
1.8248542e-18
3.6454922e-18
-1.8203964e-18
-5.4529366e-18
1.8146371e-18
-1.0057592e-30
3.6167037e-18
1.8053389e-18
-3.6045977e-18
3.5986169e-18
4.3208686e-48
-3.5869326e-18
0
0
3.5699649e-18
-1.9764374e-30
-5.9269106e-30
4.4071326e-48
-5.3209711e-18
-1.9662004e-30
1.7680537e-18
3.5301567e-18
3.5238551e-18
-3.5172669e-18
-3.8971645e-30
-1.7517823e-18
-5.8237561e-30
1.7450598e-18
-3.4842001e-18
0
-1.7363856e-18
1.9232143e-30
1.7289692e-18
3.4501026e-18
1.9102048e-30
-3.4343571e-18
0
0
-1.7057972e-18
9.4481846e-31
5.0956192e-18
1.8816781e-30
-3.3828518e-18
0
1.6843096e-18
-1.6807061e-18
-1.6770566e-18
-1.6733573e-18
-1.6696105e-18
3.3316451e-18
4.9860041e-18
-1.6581552e-18
-3.3085824e-18
4.9512412e-18
1.4984957e-48
-3.2852465e-18
0
0
0
0
3.2458537e-18
3.2375867e-18
-1.6145575e-18
-4.830728e-18
-1.7836834e-30
1.6014961e-18
-3.1942209e-18
-3.1854643e-18
1.5883625e-18
6.335989e-18
3.1592603e-18
-4.7257648e-18
-3.1417327e-18
4.6993777e-18
3.4677316e-30
-3.1151266e-18
0
0
0
3.0785678e-18
1.703657e-30
-3.3973287e-30
1.5252117e-18
-4.5614618e-18
1.5157515e-18
1.5110045e-18
-4.5187333e-18
-3.002938e-18
1.4966754e-18
2.983722e-18
2.9740477e-18
-4.9371215e-30
1.6404241e-30
-4.1847347e-34
-2.9348919e-18
0
-1.45754e-18
-1.4525628e-18
1.4475677e-18
1.4425515e-18
-1.4375101e-18
-1.4324402e-18
2.8546789e-18
1.4222065e-18
-1.4170407e-18
1.4118411e-18
-1.4066075e-18
-2.8026804e-18
0
0
4.1560668e-18
1.3799759e-18
-2.7491502e-18
-1.3691555e-18
-1.3637189e-18
2.7165341e-18
-1.5025843e-30
-2.6946477e-18
0
1.3363341e-18
3.9924631e-18