/*--------------------------------*- C++ -*----------------------------------*\
  =========                 |
  \\      /  F ield         | OpenFOAM: The Open Source CFD Toolbox
   \\    /   O peration     | Website:  https://openfoam.org
    \\  /    A nd           | Version:  7
     \\/     M anipulation  |
\*---------------------------------------------------------------------------*/
FoamFile
{
    version     2.0;
    format      ascii;
    class       volScalarField;
    location    "0.00137";
    object      Uy;
}
// * * * * * * * * * * * * * * * * * * * * * * * * * * * * * * * * * * * * * //

dimensions      [0 1 -1 0 0 0 0];

internalField   nonuniform List<scalar> 
5000
(
-5.4492573e-17
-5.9262715e-17
0
0
3.1388483e-17
-3.6438485e-32
-3.2725341e-17
0
0
3.4811056e-17
7.1055435e-17
-3.6255115e-17
-3.6993258e-17
3.7742152e-17
0
3.9272208e-17
-6.0492575e-46
-4.0845267e-17
0
-4.2461256e-17
4.3285308e-17
4.4120036e-17
-8.9930823e-17
4.5821404e-17
4.6687978e-17
3.9204557e-31
-4.8452706e-17
-4.9350769e-17
1.0051846e-16
-8.872859e-31
9.1079847e-31
-5.3046406e-17
-1.079917e-16
1.0991073e-16
-9.6958326e-31
4.9489927e-30
2.00743e-30
-1.1778516e-16
1.1980247e-16
1.2183889e-16
-1.2389421e-16
4.3320809e-30
1.2806071e-16
-6.5085731e-17
-1.9845035e-16
6.7223393e-17
6.8305439e-17
4.7533794e-30
1.4099066e-16
0
-7.2718738e-17
-1.0493674e-32
7.4974557e-17
-1.5222852e-16
2.7009664e-30
1.5683303e-16
-7.9578756e-17
2.7884272e-30
8.1924684e-17
0
-8.4298122e-17
-2.9158881e-30
-2.4640979e-32
-8.7906936e-17
8.9122163e-17
-3.1582825e-30
-9.1569992e-17
9.2802236e-17
9.4039791e-17
-9.5282472e-17
-9.6530095e-17
9.7782473e-17
9.9039417e-17
-2.0060148e-16
-1.0156625e-16
1.0283575e-16
0
-1.0538596e-16
1.5158191e-32
1.0794983e-16
-1.0923639e-16
3.1413317e-32
-3.1780531e-32
-1.1311226e-16
-1.1440894e-16
-4.0285469e-30
1.1700823e-16
0
1.1961409e-16
1.2544044e-29
4.2728252e-30
-1.2353174e-16
-1.248392e-16
2.5229425e-16
8.8207824e-30
-1.2876358e-16
0
0
1.3268688e-16
9.2923118e-30
-2.705985e-16
1.3660392e-16
2.7581465e-16
0
-1.4050961e-16
-1.4180812e-16
1.4310464e-16
1.4439897e-16
0
0
-1.482671e-16
-1.4955094e-16
0
1.5210926e-16
-5.3620851e-30
-1.5465399e-16
1.5592084e-16
-4.4674322e-32
5.5389509e-30
-5.9267158e-47
-3.2189535e-16
6.9147226e-32
1.6343454e-16
0
1.6590206e-16
-1.6712819e-16
-1.6834905e-16
3.3912897e-16
1.7077436e-16
-3.4395707e-16
-1.7317687e-16
1.7436923e-16
1.7555549e-16
1.7673551e-16
0
-1.7907634e-16
-1.802369e-16
1.8139072e-16
6.3294005e-30
-1.8367769e-16
1.848106e-16
1.8593631e-16
0
-1.881657e-16
-1.8926916e-16
1.9036499e-16
-1.9145308e-16
1.0944254e-31
1.9360568e-16
-1.9466999e-16
1.9572618e-16
-1.3702011e-29
-1.9781382e-16
1.988451e-16
-1.998679e-16
-2.0088214e-16
2.0188773e-16
0
0
2.0485185e-16
2.0582207e-16
-2.0678327e-16
-2.0773536e-16
2.0867828e-16
1.4536374e-29
-2.1053634e-16
2.1145134e-16
2.123569e-16
0
-2.1413948e-16
-2.1501638e-16
0
2.1674108e-16
2.1758878e-16
0
-2.1925462e-16
-4.5785435e-29
2.2088069e-16
-2.2167869e-16
-2.224666e-16
2.2324438e-16
1.5471333e-29
-1.5459758e-29
-9.6143462e-32
-2.2625331e-16
2.2697978e-16
3.1580948e-29
-1.570958e-29
1.5757396e-29
-2.2978144e-16
0
0
2.3177222e-16
2.3241459e-16
0
0
-2.3427754e-16
2.6301043e-47
2.3546575e-16
0
-2.3661067e-16
2.3716682e-16
6.5872786e-29
-4.7649274e-16
2.3876971e-16
4.9679883e-29
3.4075271e-32
2.402737e-16
-2.4075293e-16
3.4279574e-32
3.3451563e-29
-1.6756639e-29
2.4255865e-16
0
-2.4339447e-16
-1.6872323e-29
-6.7770703e-29
-2.4456383e-16
0
2.4528689e-16
2.456314e-16
0
0
0
-2.4689539e-16
-1.7106743e-29
2.4745864e-16
0
0
-2.4821706e-16
-2.4844671e-16
2.4866476e-16
2.4887117e-16
0
-2.4924898e-16
-2.4942033e-16
2.4957996e-16
2.4972782e-16
0
-2.4998819e-16
6.9447969e-29
1.7351198e-29
-2.5028994e-16
2.5036674e-16
2.5043162e-16
0
-2.5052547e-16
3.482259e-29
-2.5057128e-16
-3.4754388e-29
5.0113719e-16
-2.5054843e-16
3.4746021e-29
8.6956287e-29
1.7330358e-29
2.5034456e-16
-2.5026299e-16
-2.5016913e-16
0
2.499444e-16
2.4981348e-16
0
-2.4951439e-16
-2.4934616e-16
4.9833087e-16
2.4897219e-16
-2.487664e-16
-2.4854802e-16
-6.8882125e-29
2.4807342e-16
-2.4781714e-16
1.7167211e-29
2.4726648e-16
-2.4697203e-16
1.7141004e-29
-1.7153773e-29
6.9920796e-32
1.6966877e-29
-2.4530761e-16
0
0
2.4415422e-16
2.4374381e-16
0
0
0
0
-2.4149601e-16
-1.661085e-29
4.8101022e-16
-1.0231385e-31
-2.394615e-16
-2.3891988e-16
3.3094613e-29
3.294815e-29
3.3710356e-32
2.3662088e-16
2.3601291e-16
2.3539164e-16
-4.6951407e-16
-7.0232729e-16
2.3344781e-16
4.6554634e-16
0
-2.313838e-16
-2.3066906e-16
2.2994095e-16
-6.5142405e-32
9.7391791e-32
-6.4709517e-32
-2.2689478e-16
-2.2609983e-16
2.2529152e-16
4.4893977e-16
-2.2363492e-16
-4.325429e-47
-2.2192507e-16
-6.1255598e-29
4.4032428e-16
0
0
-4.3483725e-16
1.2022316e-28
4.3104778e-16
0
-2.1357691e-16
-2.1258394e-16
2.1157804e-16
-2.9922272e-32
2.9090833e-29
-2.9627261e-32
-2.0742626e-16
2.0635656e-16
2.0527429e-16
0
-2.0307234e-16
2.8039138e-29
2.0082102e-16
-3.9935411e-16
5.5068911e-29
1.9735298e-16
5.4473358e-29
3.8996275e-16
-3.8755602e-16
-1.9256308e-16
1.913367e-16
2.7014694e-32
1.8885011e-16
0
0
-1.8503757e-16
2.5485087e-29
3.6488483e-16
-2.5740013e-32
-5.3941765e-16
1.784725e-16
1.7712927e-16
-3.5155272e-16
1.7441395e-16
-1.7304222e-16
-3.4332274e-16
1.7027158e-16
1.6887305e-16
1.6746599e-16
-1.6605061e-16
-1.3976569e-46
1.6319574e-16
-1.6175668e-16
1.6031019e-16
-1.5885649e-16
-4.3616218e-29
-4.4317524e-32
-1.5445455e-16
3.0594891e-16
-1.5148838e-16
-4.1651073e-29
4.1193119e-29
1.46997e-16
2.9097943e-16
-4.3193344e-16
-3.9518255e-29
7.8193069e-29
-3.8634147e-29
2.7577951e-16
-2.7271818e-16
3.7400059e-29
2.6657899e-16
0
0
-1.2866905e-16
1.7632099e-29
1.2558174e-16
1.2403693e-16
-1.224918e-16
-3.6283998e-16
1.1940185e-16
1.1785769e-16
3.3058578e-32
1.1477269e-16
0
-2.2338866e-16
-2.2031696e-16
1.086253e-16
2.1419024e-16
1.0556829e-16
-2.0809029e-16
-2.0505203e-16
2.0202248e-16
1.9900231e-16
0
-1.9299277e-16
9.5002364e-17
1.8702872e-16
-9.2032695e-17
-9.0557698e-17
1.2660406e-32
-1.2166412e-29
-8.6175897e-17
8.4730745e-17
8.3293835e-17
-8.1865467e-17
1.1157687e-29
1.1231629e-32
1.0767761e-29
7.6243377e-17
-7.4862139e-17
3.0610556e-29
1.0014637e-29
1.9644455e-29
6.9442588e-17
-6.8115355e-17
9.2744714e-30
1.8158961e-29
9.1239336e-33
1.2584879e-16
6.1657291e-17
-6.0402873e-17
-1.1832269e-16
8.0434073e-30
1.1343547e-16
5.5516019e-17
-1.0865586e-16
-5.3153627e-17
5.199327e-17
5.0847006e-17
1.3797794e-29
-4.8597304e-17
0
0
-4.533165e-17
0
4.3228371e-17
-4.2199144e-17
-5.8527339e-33
1.1153104e-29
0
3.8233186e-17
-3.7279681e-17
-3.6341438e-17
7.0836955e-17
3.4510809e-17
-3.3618436e-17
0
0
3.1032996e-17
-8.3906946e-30
-2.9385534e-17
0
0
2.7027776e-17
-1.0946499e-29
-2.5530869e-17
0
0
0
0
0
0
0
0
-3.903321e-17
-1.050152e-29
1.8335203e-17
-1.776487e-17
1.7207918e-17
-1.6664197e-17
4.4845517e-30
1.5615821e-17
4.1959802e-30
1.4618448e-17
0
0
-1.3215064e-17
-3.5463312e-30
1.2339211e-17
0
0
0
0
0
0
0
-1.8563736e-17
7.4479322e-30
1.7242979e-17
-8.3058388e-18
-1.136815e-33
-7.7026538e-18
4.111526e-30
1.4271348e-17
6.8652815e-18
1.2410684e-47
-1.9049231e-17
0
1.173322e-17
0
0
-1.0398826e-17
1.3846538e-30
1.4372462e-17
-4.5968485e-18
-4.4095256e-18
4.228677e-18
-4.0541331e-18
3.8857239e-18
1.0328234e-30
-3.5666477e-18
3.4156542e-18
0
3.1299611e-18
-2.9949506e-18
-5.7299216e-18
2.7398425e-18
2.619451e-18
2.5036415e-18
2.3922742e-18
-4.5704196e-18
-2.1823145e-18
2.0834558e-18
0
-1.8973305e-18
1.809814e-18
1.7258325e-18
-4.9357993e-18
-4.4565274e-34
2.9878487e-18
-1.422924e-18
-1.8811363e-31
-1.2897304e-18
3.4882806e-34
2.3351841e-18
-1.1104211e-18
0
2.78626e-31
1.3548364e-34
9.0556088e-19
-8.5986107e-19
2.2664243e-31
1.0742111e-31
1.0440384e-34
6.966628e-19
-6.6038366e-19
-1.6275594e-48
1.6459432e-31
7.9759544e-35
1.0624652e-18
6.9711282e-32
-4.7533586e-19
0
0
4.0100922e-19
1.5751529e-31
-3.5718187e-19
3.3683793e-19
-4.407888e-32
-3.4576126e-48
3.9090507e-32
-2.6489913e-19
-2.4907497e-19
-3.2461081e-32
2.1976711e-19
0
0
-1.8120159e-19
1.6967549e-19
-1.3217674e-31
-1.4848127e-19
1.3877185e-19
0
-1.2104294e-19
-1.1299363e-19
1.0546854e-19
9.8458465e-20
0
-8.5939298e-20
-8.0412309e-20
1.5072431e-19
7.078263e-20
-6.666531e-20
-6.3006373e-20
-8.2958325e-33
-5.7179618e-20
-1.53145e-32
1.0857001e-19
0
0
0
-5.7647816e-20
-6.2617042e-20
0
6.511261e-20
9.0777916e-33
-7.039538e-20
0
0
6.904334e-20
1.0078893e-32
-1.0361257e-32
7.2091361e-20
-6.9123443e-20
2.8986145e-32
7.0109705e-20
0
6.3871859e-20
8.5913167e-33
-6.0512426e-20
5.7990652e-20
-5.4163681e-20
-5.0096746e-20
4.6132379e-20
0
-3.7122688e-20
-3.18647e-20
2.5975885e-20
2.2123066e-20
0
2.73231e-20
-2.1087283e-20
-1.6764891e-20
2.6357612e-20
6.8790538e-20
-1.5519304e-32
-7.9537502e-20
8.422622e-49
4.4215149e-20
7.5739476e-20
-2.1051417e-32
-9.7818151e-20
5.4010132e-20
-4.8312961e-20
4.7386442e-20
5.5743651e-20
-1.2043849e-19
0
0
1.0368084e-19
-9.1101624e-49
-1.0866473e-19
0
0
1.0668324e-19
7.346321e-49
-1.0414622e-19
0
0
1.0708851e-19
5.1192385e-20
-9.9476423e-20
-5.0831974e-20
0
9.8309658e-20
-2.5751577e-32
-9.0263923e-20
4.4478683e-20
0
-4.141035e-20
3.9809177e-20
-5.4677161e-36
-3.6890375e-20
3.4959819e-20
-3.2867115e-20
-3.0697362e-20
2.8397935e-20
2.5921891e-20
-6.4300421e-33
-2.0016611e-20
1.8683895e-20
5.4808065e-33
-1.8162624e-20
1.5073149e-20
-1.7884782e-20
-2.1996354e-20
1.7535841e-20
1.6426951e-20
-7.7213426e-33
-3.4991749e-20
2.6094556e-20
-2.9326452e-36
-2.8406443e-20
3.4901394e-20
-2.8791451e-20
-2.30792e-20
2.9521454e-20
7.5717396e-20
-1.968219e-32
-5.5022346e-20
2.8221521e-20
-5.1241827e-36
-7.827864e-20
-9.5016098e-36
2.6548698e-20
0
-3.1104889e-20
0
2.7510409e-20
0
0
0
2.5974574e-20
2.224567e-50
-2.5528096e-20
0
-2.7317939e-20
6.8564764e-33
2.5069424e-20
0
0
0
2.475057e-20
-7.2410546e-33
-2.6512728e-20
0
-2.4839169e-20
-7.2714057e-33
2.7149834e-20
0
-2.487401e-20
2.4806676e-20
-1.4097265e-32
-2.5281745e-20
2.4376464e-20
0
2.3205158e-20
6.3238674e-33
-2.2239311e-20
0
-2.192588e-20
2.268568e-20
1.3426899e-32
-2.5419328e-20
1.4628288e-32
3.8219857e-36
-7.3081803e-33
3.8472243e-36
3.0056006e-20
0
-3.1265563e-20
8.6043691e-33
8.8627702e-33
1.394652e-49
9.1686554e-33
0
5.7370467e-20
7.29932e-33
-2.0418136e-20
1.2803099e-20
-2.8697546e-33
-1.175967e-20
-1.2546815e-20
-2.9025837e-33
2.2191487e-33
-8.1874379e-21
1.0241044e-20
1.1485869e-20
0
1.1460438e-20
-3.738039e-33
-1.5239857e-20
0
0
0
4.2916624e-20
-2.5408319e-32
-4.5799629e-20
0
0
0
0
0
0
0
3.4095599e-20
-8.1916995e-33
-1.9361958e-20
-5.9745898e-21
5.9784576e-21
1.0184892e-20
-3.4029992e-33
-4.383193e-33
-4.306667e-21
5.3961221e-21
-7.6668063e-21
-7.733191e-21
6.2653907e-21
6.7053179e-21
-5.1203382e-33
-1.0079873e-20
-7.7730334e-21
1.8935409e-33
9.9782975e-21
1.2777251e-20
-1.0663792e-20
-6.2079993e-21
5.6974313e-21
-9.4210542e-21
0
8.1514417e-21
4.8617226e-21
-1.3039193e-33
-5.910712e-21
6.0611961e-21
-4.8541153e-21
-4.1813116e-21
4.4902702e-21
-4.6324003e-21
-1.1877449e-33
4.1758959e-21
4.6111634e-21
6.9345228e-37
-9.2415216e-21
-2.4898535e-33
4.7224387e-21
4.6736399e-21
0
-4.2489457e-21
0
0
0
-4.1650357e-21
-4.6982449e-21
5.182605e-21
4.5674824e-21
0
-3.4942921e-21
1.0884434e-33
3.8574524e-21
0
0
-2.6869672e-21
1.4179704e-33
2.2958444e-21
0
0
-2.1290451e-21
1.129524e-33
1.7672803e-21
0
-1.5732893e-21
4.5685189e-34
-4.2941046e-34
3.8575995e-34
1.1893205e-21
0
1.0490726e-21
-9.450893e-34
-1.8285588e-21
0
-1.6381313e-21
2.0662563e-21
2.0560272e-21
-3.3850918e-21
-3.2933779e-34
1.2705092e-21
-2.8448303e-35
4.87874e-22
0
0
-9.3826361e-23
-1.6983022e-35
7.1786826e-23
0
3.8804932e-22
5.9161896e-22
1.5773933e-21
-1.6867484e-21
0
1.2906344e-21
-6.4241212e-22
-2.1085296e-34
3.918744e-34
-1.3890407e-21
2.1461019e-33
-3.2073936e-21
2.7382303e-21
-6.7057038e-34
1.8867249e-33
8.4752794e-21
-1.0776167e-33
-3.0014641e-21
0
0
0
6.8022987e-21
2.6221128e-21
-4.1853815e-21
-1.838111e-21
0
0
-1.8246375e-21
-3.1711229e-50
7.5180385e-22
0
3.5036894e-22
-1.3962505e-22
1.0682486e-21
9.7118854e-22
0
-3.9745716e-21
-7.3016548e-37
9.5269913e-21
-1.0511473e-33
-8.8191513e-21
5.0428176e-21
3.2334582e-36
-6.3477705e-21
1.9504771e-33
4.2645916e-33
8.3277833e-21
0
9.5652599e-21
-5.6398211e-33
-2.1417829e-20
1.0953877e-20
-1.8666827e-32
-1.1797108e-20
2.4994515e-20
-1.7112244e-36
-1.2247957e-20
0
0
0
-1.3497834e-20
1.3934971e-20
2.5599646e-20
-1.2303391e-20
-3.6884359e-33
-3.5071247e-33
-1.1769783e-20
0
1.2417614e-20
-1.6265892e-36
-2.0977169e-20
1.1015379e-20
6.0492268e-33
-1.0309197e-20
-1.062367e-20
5.9441083e-33
1.9009094e-20
0
8.9036616e-21
8.5731101e-21
0
-8.9159e-21
-8.6618247e-21
8.4047745e-21
0
-7.9779383e-21
0
0
7.1019759e-21
-6.0405157e-33
-7.1927394e-21
0
0
6.7682129e-21
6.8505282e-21
-6.7149009e-21
-6.4355717e-21
6.3832491e-21
6.6408254e-21
-1.3521631e-20
-6.6657351e-21
1.8473108e-33
6.6784415e-21
-3.6430165e-33
-3.5671165e-33
6.4875131e-21
-6.5889523e-21
6.4683424e-21
-5.6922261e-21
-4.4840313e-36
5.7132599e-21
-1.2473779e-20
-6.462306e-21
-6.4469463e-21
1.2643113e-20
1.2282052e-20
-6.066861e-21
6.0996103e-21
-6.0979585e-21
3.2560622e-33
1.0430451e-20
-5.0884807e-21
1.528265e-33
-1.6012819e-33
-5.7298542e-21
0
0
5.3636835e-21
5.4074618e-21
0
-5.0691235e-21
-4.9538839e-21
0
-5.1022525e-21
1.3977215e-33
4.8507294e-21
-4.7271765e-21
1.3033799e-33
4.7190928e-21
0
4.5004171e-21
2.4090623e-33
-4.1810479e-21
4.0137892e-21
-1.097006e-33
-3.968267e-21
-3.9035278e-21
-1.0218781e-33
3.3989261e-21
0
-3.4448361e-21
3.4749156e-21
-9.615211e-37
1.8097826e-33
3.1674278e-21
-3.0919984e-21
0
-5.7203777e-21
6.3286759e-33
2.9264191e-21
1.6556035e-33
5.8820646e-21
-5.7500861e-21
-5.7533535e-21
5.8577506e-21
5.9965046e-21
3.0382692e-21
0
-3.1736539e-21
-6.6186639e-21
4.8482123e-37
-3.4882405e-21
3.5852971e-21
3.7389766e-21
-3.9317927e-21
8.1026853e-21
-8.2470769e-21
-7.0547205e-33
8.839081e-21
-9.2555317e-21
2.6549531e-33
-4.8609671e-21
4.8734552e-21
4.9564486e-21
-5.1694414e-21
-1.4934807e-33
-1.1031217e-20
1.1116193e-20
1.101898e-20
-1.0997627e-20
-1.558987e-33
-5.7917762e-21
3.2519615e-33
5.8163108e-21
1.5879568e-33
-5.5147706e-51
5.7192631e-21
1.1431114e-20
-5.5961661e-21
-4.5481718e-50
-5.2943633e-21
-8.6227596e-33
5.1294658e-21
-1.0125069e-20
2.7550369e-33
9.6164133e-21
5.9355253e-51
-4.3928843e-21
0
0
-4.1196247e-21
3.8727768e-21
7.4059562e-21
0
0
0
-3.3457195e-21
-3.1703903e-21
0
3.1459971e-21
-3.1738739e-21
-5.187336e-33
6.0545934e-21
0
0
0
-3.1163264e-21
-3.0887597e-21
3.1267198e-21
-3.2519956e-21
-1.8961283e-33
7.0192642e-21
0
0
-7.5704737e-21
1.1299853e-36
4.1265192e-21
-4.2220359e-21
4.3467134e-21
-4.5073456e-21
2.6096072e-33
9.6370763e-21
0
0
-5.083556e-21
-5.3666869e-21
0
0
5.7417837e-21
5.7627123e-21
0
-5.7523116e-21
-5.9457046e-21
6.1006382e-21
-6.1804699e-21
-6.206917e-21
6.1102226e-21
6.0088474e-21
-3.3567587e-33
-6.1708967e-21
6.20128e-21
1.6973222e-33
-5.9607907e-21
0
-5.8127447e-21
3.2164462e-33
5.5766036e-21
-5.3656963e-21
2.9366217e-33
5.2926303e-21
0
-4.9369607e-21
1.3002746e-33
6.4611932e-37
-4.4826048e-21
4.3890539e-21
4.192299e-21
0
-7.3070588e-21
3.9677987e-33
3.5431153e-21
4.8835767e-37
6.4623025e-21
-5.9876593e-21
-5.5367808e-21
5.2719926e-21
2.5955348e-21
0
-4.7532421e-21
3.6358207e-33
4.110515e-21
0
-4.0166571e-21
-1.0895554e-33
1.8350807e-21
4.6895314e-34
3.1936492e-21
-3.1594082e-21
-4.0165501e-33
3.265889e-21
-3.2781096e-21
9.1058766e-34
3.2989576e-21
1.6606963e-21
-3.3334748e-21
-1.6848085e-21
3.4703568e-21
-3.6120331e-21
-4.6926877e-33
3.8937513e-21
-4.0440847e-21
5.8861778e-34
-2.2237754e-21
2.5531516e-33
6.9944096e-21
-1.3096546e-33
-4.8861826e-21
2.5909664e-21
5.5313601e-21
-2.9067706e-21
1.6696325e-33
-3.0941381e-21
-3.540955e-33
3.2891798e-21
-6.7869535e-21
2.9093016e-33
-3.9815671e-33
2.0395978e-33
3.7682681e-21
0
3.9450661e-21
4.0280261e-21
0
0
0
0
0
-4.3525905e-21
-4.358468e-21
0
4.5121237e-21
-4.5768684e-21
-7.6637962e-33
9.1156511e-21
0
0
0
-4.6983685e-21
-4.6995925e-21
4.6511091e-21
4.6192859e-21
-9.2734062e-21
-7.7925008e-33
9.3684549e-21
0
-9.1054759e-21
-7.6038931e-33
4.614151e-21
-4.6167409e-21
4.5723893e-21
-4.4880971e-21
-2.4641289e-33
8.9359048e-21
0
0
-4.435997e-21
-4.3712671e-21
0
-4.3970262e-21
-1.2509398e-36
-4.3653375e-21
4.2960089e-21
1.2775705e-20
0
8.6295783e-21
8.6044573e-21
0
-1.2489505e-20
-8.3281208e-21
8.40338e-21
-4.2256728e-21
-4.2044177e-21
1.237709e-20
4.0618061e-21
5.7809145e-37
4.1060292e-21
-4.1238794e-21
-4.0936523e-21
-4.0185549e-21
5.8378122e-53
-3.9316934e-21
-3.9396363e-21
3.9336733e-21
0
7.5868636e-21
7.4267389e-21
0
-3.70169e-21
-7.3787776e-21
-2.006965e-33
-3.5142313e-21
-6.84596e-21
6.6759288e-21
6.4871626e-21
3.1522506e-21
3.0865876e-21
0
-2.9750329e-21
-8.6161482e-21
2.7447514e-21
5.000146e-49
-7.4966763e-21
4.8548786e-21
2.3629617e-21
2.2797379e-21
4.3365951e-21
-4.0802178e-21
-1.9119552e-21
1.787372e-21
1.6757857e-21
1.5830644e-21
-4.4823401e-21
-1.3914875e-21
3.8111889e-21
1.1510954e-21
-1.0562394e-21
-1.9571349e-21
8.9227777e-22
-7.7931075e-22
1.1091528e-33
-9.7250748e-34
-1.5793988e-21
4.6698161e-22
3.8547284e-22
5.8581947e-22
2.2204401e-22
-3.6719022e-22
-4.425647e-38
-1.0781991e-22
3.4147228e-23
-7.5694274e-23
1.2651851e-22
3.391096e-23
-9.0419162e-23
0
2.8010896e-22
1.1529868e-22
-3.0069515e-22
6.6270868e-23
8.8508658e-23
2.5254104e-35
-4.4454635e-35
-2.2174032e-24
0
2.2319163e-22
2.8149504e-22
-1.6486724e-22
-2.1675914e-22
-5.9420791e-22
3.807225e-22
4.3946658e-22
-9.4504227e-22
0
1.2183624e-21
1.4397027e-21
-8.266976e-22
-1.8191461e-21
5.3812074e-34
1.0344272e-21
-2.2464556e-21
1.2320814e-21
-4.4905397e-33
-2.8975869e-21
1.5221204e-21
0
3.3827574e-21
0
-4.3042227e-33
-2.05465e-21
-4.285587e-21
6.6698154e-21
-6.5889613e-37
-4.8483482e-21
0
5.2683754e-21
2.7381682e-21
-5.6895104e-21
3.2758022e-33
3.0339054e-21
-6.2162288e-21
3.1746314e-21
-5.4284056e-33
-6.7997564e-21
3.5132121e-21
-3.5900071e-21
7.3147256e-21
1.1000481e-20
0
-1.148341e-20
-7.9582702e-21
1.221303e-20
8.2588394e-21
-4.1877472e-21
-8.2263024e-21
4.0890585e-21
4.2221734e-21
-8.7341604e-21
4.4833309e-21
9.0357458e-21
-4.1833358e-21
5.5936428e-37
-8.2918015e-21
-8.8180335e-21
1.3665502e-20
-4.6730401e-21
-7.2351079e-33
1.2597666e-20
0
-1.2536463e-20
-8.7475783e-21
4.5169839e-21
4.6386672e-21
4.3106826e-21
0
4.2570334e-21
-2.2604983e-33
-8.5335771e-21
2.4215137e-33
4.4112556e-21
0
4.1324588e-21
-7.8661452e-21
-1.1979907e-20
8.0894986e-21
1.215602e-20
4.005976e-21
-3.7954968e-21
-7.2491032e-21
3.6166702e-21
-3.6098305e-21
-3.5674431e-21
6.9634358e-21
-6.608253e-21
-3.1499105e-21
9.2802159e-21
6.1128383e-21
-2.9936604e-21
-8.6854235e-21
6.1200866e-33
-5.8446365e-33
-2.5518029e-21
-2.7565333e-33
-2.3817159e-21
2.2534919e-21
2.1308107e-21
2.0354314e-21
-1.963861e-21
-1.8908923e-21
5.3922885e-21
-1.6913536e-21
-3.1946002e-21
4.5438319e-21
4.0776332e-37
-1.3479485e-21
2.520601e-21
1.1916393e-21
0
-1.086602e-21
-1.0118189e-21
-1.8666457e-21
8.7602804e-22
-2.8136349e-33
-2.4769873e-21
7.9356145e-22
7.3671218e-22
6.8113359e-22
-6.542984e-22
-6.5491827e-22
1.9989324e-21
-6.6402733e-22
-1.2770981e-21
-1.0202091e-33
-6.1024698e-22
1.2667142e-21
2.0064621e-21
3.841579e-34
-3.8377839e-34
-9.7660652e-38
-7.0702019e-22
-1.5124697e-21
-8.2045793e-22
2.6324703e-21
-1.0103084e-33
-1.8410355e-21
0
0
1.0501854e-21
-6.2748679e-34
6.6636602e-34
1.2459938e-21
-2.5405216e-21
-1.3000192e-21
-1.4987255e-33
1.4213299e-21
4.5179203e-21
1.5735326e-21
0
0
0
-5.1305944e-21
-3.5671034e-21
5.5937335e-21
-2.1315884e-33
-3.86373e-21
0
0
3.9571242e-21
-4.5312984e-33
-2.3368645e-33
4.2873757e-21
-2.1491579e-21
-4.2945328e-21
-4.2989918e-21
2.1603649e-21
6.5690485e-21
2.2210779e-21
0
0
0
-6.4837003e-21
-4.3132382e-21
6.5461456e-21
-4.8924334e-33
-2.196709e-21
3.0679842e-37
-2.1134732e-21
4.152667e-21
-2.2901682e-33
-2.0770673e-21
4.1563966e-21
0
-1.1154796e-33
-3.921308e-21
-3.8594867e-21
5.7742147e-21
3.8622883e-21
-1.9216198e-21
-1.0463851e-33
1.8398181e-21
-5.3995693e-21
-3.5483506e-21
1.7646513e-21
1.7615545e-21
-1.755208e-21
-1.7431293e-21
1.7235473e-21
1.6975959e-21
-9.2922191e-34
9.1904554e-34
1.6481913e-21
0
1.6571905e-21
-3.2854672e-21
-4.8700863e-21
3.2248596e-21
3.2425341e-21
1.6525785e-21
-1.8569078e-33
-3.336322e-21
1.6477923e-21
-1.6282238e-21
-1.6406757e-21
3.3790596e-21
-3.4997076e-21
-1.7854719e-21
1.7857772e-21
3.5340265e-21
1.7508089e-21
-3.5300942e-21
1.0102566e-33
-1.8950114e-21
-1.9547919e-21
5.9563027e-21
-1.9920237e-21
-1.9992601e-21
6.0452081e-21
-2.9052372e-37
-6.2850637e-21
-2.1503857e-21
6.5836211e-21
-2.2263953e-21
1.7367597e-49
-3.8131133e-33
-4.6378511e-21
4.6903095e-21
4.7382131e-21
-2.3829936e-21
2.6644814e-33
4.8786362e-21
-2.4969763e-21
-7.6336528e-21
-2.5610221e-21
2.5657867e-21
0
2.5704445e-21
5.2402563e-21
-3.7932379e-37
-8.085011e-21
-2.7021108e-21
5.3793303e-21
-3.8065962e-37
-5.3938743e-21
5.4815306e-21
-4.6307226e-33
-5.5874182e-21
8.3649626e-21
5.5678782e-21
0
0
-2.7521847e-21
-8.2755677e-21
-2.7691979e-21
8.3258119e-21
-3.0698763e-33
-5.4579868e-21
5.3711702e-21
5.3405952e-21
-2.6814861e-21
-5.3892446e-21
2.6795849e-21
2.6218475e-21
-7.6791307e-21
-2.5399307e-21
-4.2754782e-33
1.425721e-33
2.5371135e-21
-2.4870433e-21
4.7594506e-21
6.9394393e-21
0
-7.1392727e-21
-4.7773996e-21
7.0710977e-21
-6.5250065e-37
-2.2214231e-21
4.2989314e-21
-2.1193106e-21
-2.1314734e-21
-2.378184e-33
2.1247742e-21
4.1492353e-21
-2.0167948e-21
-3.9112932e-21
-3.8212924e-21
2.1094932e-33
1.8960303e-21
-1.8766655e-21
3.6628544e-21
5.3266346e-21
0
-5.0981924e-21
-3.3886215e-21
5.0389493e-21
-1.8260339e-33
-1.5987923e-21
1.5505003e-21
1.5194862e-21
-8.3877598e-34
-3.0184737e-21
8.2939747e-34
2.9200748e-21
-1.5776561e-33
-1.544204e-33
-2.7427052e-21
-4.0807352e-21
2.689852e-21
-1.4686031e-33
-4.3361782e-33
1.2908491e-21
1.2834737e-21
2.5360677e-21
-3.7108867e-21
-1.2035418e-21
2.3702358e-21
-2.3730378e-21
-6.8249142e-37
3.6153687e-21
1.1916522e-21
-1.1686228e-21
-3.44688e-21
3.8019036e-33
2.2894841e-21
1.1469668e-21
-2.2742343e-21
-3.3676869e-21
3.3374245e-21
1.1139024e-21
1.2514633e-33
1.1325539e-21
-2.2371833e-21
6.0788598e-34
-1.0766419e-21
1.07941e-21
-3.6689325e-33
-3.3775864e-21
3.3973969e-21
3.34455e-21
0
0
0
-1.0966833e-21
-3.3393685e-21
-1.1161313e-21
-1.2232558e-33
-1.0858404e-21
3.2351241e-21
1.0818343e-21
-1.0956765e-21
-1.1020996e-21
-1.0926623e-21
2.1513294e-21
-1.0618454e-21
1.0604695e-21
-3.5666407e-33
-2.1554959e-21
3.2127813e-21
2.1065739e-21
0
-2.0630703e-21
-1.1563392e-33
1.0565808e-21
-3.167678e-21
-1.0273189e-21
9.9179826e-22
0
0
9.813378e-22
1.9894798e-21
-2.2120446e-33
-1.9765319e-21
-9.783306e-22
9.7210945e-22
-9.6215378e-22
9.4310166e-22
1.677304e-49
-1.483489e-33
2.6593164e-21
0
0
-1.8632481e-21
-1.8392695e-21
-8.9427436e-22
9.6935077e-34
2.5874457e-21
-9.5735158e-34
-1.7431745e-21
0
1.7801548e-21
8.8324675e-22
-1.7267058e-21
8.4577382e-22
8.3966581e-22
-2.5461984e-21
8.7036007e-22
-2.965975e-33
-1.7921092e-21
2.6457373e-21
1.7278705e-21
0
0
0
-2.6986071e-21
-1.8245917e-21
2.7569669e-21
1.8491869e-21
0
-1.8697887e-21
1.0422775e-33
9.4359379e-22
-1.9089357e-21
9.73507e-22
-9.9486848e-22
-1.0067461e-21
3.0087e-21
-1.9956988e-21
-2.0027942e-21
1.0179232e-21
-1.0483463e-21
2.1505762e-21
3.2686855e-21
0
-3.3003916e-21
-2.2187151e-21
1.12012e-21
1.1300358e-21
-1.262898e-33
1.1474264e-21
-3.8770736e-33
-1.1850518e-21
-6.6602399e-34
-1.9504569e-51
1.1932994e-21
0
1.2012621e-21
-2.4539986e-21
-3.742926e-21
3.7575886e-21
3.7354519e-21
0
-2.4636455e-21
-2.4922727e-21
2.5390889e-21
-1.283208e-21
-1.275201e-21
3.7805735e-21
-2.4951297e-21
-2.4907698e-21
1.2619091e-21
2.5524112e-21
1.2723647e-21
-3.7438809e-21
-1.2165991e-21
-1.994231e-33
2.4079121e-21
6.9804259e-37
-3.7412976e-21
2.4876575e-21
3.6367767e-21
1.1730475e-21
-3.4200623e-21
-2.2470774e-21
3.3888372e-21
-2.5372362e-33
-2.29843e-21
-1.1424727e-21
6.2007407e-34
2.1599342e-21
-1.1610582e-33
1.0204161e-21
1.0100595e-21
-3.0419184e-21
-1.0176085e-21
-1.1152726e-33
1.9434624e-21
-3.0963946e-33
-2.6751403e-21
1.7477607e-21
-9.7416138e-34
-9.8353935e-34
-1.9595381e-33
-8.5661744e-22
2.4256674e-21
-7.6244735e-22
-1.2217784e-33
-2.4262873e-33
-2.2152091e-21
7.417848e-22
1.4613425e-21
-7.8290795e-34
6.7444686e-22
6.4900824e-22
-1.2606453e-21
-1.2352996e-21
6.769007e-34
1.8096579e-21
-6.5950236e-34
-5.8016726e-22
1.1224517e-21
-5.4359053e-22
-5.3301374e-22
2.9369882e-34
-2.9339541e-34
5.2226304e-22
-1.0138962e-21
4.8890838e-22
-1.5921229e-33
-1.5951743e-33
1.4624392e-21
-9.8926256e-22
1.3960583e-37
9.5075609e-22
-4.6049663e-22
-1.3724318e-21
-4.6626707e-22
1.4418308e-21
-5.4296113e-34
-4.8680669e-22
9.5960149e-22
-9.5744914e-22
-2.440046e-33
5.0420711e-22
-5.173699e-22
5.1999764e-22
-1.0257333e-21
5.0942594e-22
1.5607371e-21
0
0
-1.1692334e-21
-1.6560017e-37
1.137697e-21
-5.6286399e-22
-1.736648e-21
-6.123667e-22
1.9488195e-21
1.9272173e-37
7.6563298e-34
1.3620065e-21
-1.9869079e-21
-3.2638893e-33
6.6441845e-22
-6.9553088e-22
-7.3537808e-22
8.5294753e-34
7.8802071e-22
-1.5955152e-21
1.6076039e-21
-2.6950806e-33
-1.6231333e-21
2.444382e-21
1.6491266e-21
-8.4430318e-22
-2.6206982e-21
-9.0358384e-22
9.217975e-22
0
-9.1725662e-22
9.1737852e-22
2.7888487e-21
5.291338e-34
-1.9643358e-21
1.0063402e-21
1.0166047e-21
-2.0260868e-21
1.0093916e-21
-1.0132149e-21
-2.0529145e-21
3.1477807e-21
-3.5761975e-33
2.4172521e-33
2.1775528e-21
-2.1712413e-21
-1.0879822e-21
-1.0969743e-21
-1.2363842e-33
1.1267648e-21
-2.265075e-21
2.2663495e-21
3.4010185e-21
0
-1.1523773e-21
6.4544042e-34
3.3090716e-37
-3.4764734e-21
-1.1525385e-21
3.4606126e-21
-1.1639851e-21
3.4559672e-50
3.558863e-21
-1.1801854e-21
-3.5106235e-21
-1.1644891e-21
2.3270512e-21
-1.1679961e-21
1.1727791e-21
-3.905561e-33
-2.3376361e-21
3.4941089e-21
1.2882398e-33
-5.1229467e-33
2.2935634e-21
-2.2785787e-21
-1.258439e-33
1.1324869e-21
-2.2571689e-21
-1.117109e-21
0
0
2.1600496e-21
-2.4011026e-33
-6.147899e-37
-1.1905396e-33
-1.0541655e-21
-1.0337736e-21
1.0220495e-21
1.0220952e-21
-2.0572312e-21
2.054453e-21
-1.1236571e-33
-1.9803017e-21
1.940856e-21
3.194741e-33
-1.062958e-33
9.605766e-22
-1.9205886e-21
9.5455815e-22
-2.0979035e-33
-1.8654663e-21
0
1.8220176e-21
9.0490509e-22
-1.8080266e-21
-9.0607433e-22
9.0571758e-22
-1.4970256e-33
-8.9045575e-22
0
0
1.7861775e-21
1.7916049e-21
0
-1.7676885e-21
-8.8332007e-22
8.913434e-22
-9.0699606e-22
9.1783971e-22
0
-1.8283696e-21
0
0
9.3826518e-22
-1.067132e-33
-9.7659394e-22
0
9.7822234e-22
5.461663e-34
-9.984952e-22
0
2.1025986e-21
2.1397572e-21
-1.077625e-21
-1.2038763e-33
1.0962334e-21
-2.2274463e-21
-2.2758124e-21
2.3236199e-21
3.3464929e-37
2.6390109e-33
3.416744e-37
-2.4463121e-21
1.254744e-21
-1.4200017e-33
1.2896234e-21
-1.2950683e-21
-3.8872563e-21
3.9190054e-21
1.3382034e-21
-1.3803571e-21
-1.5656341e-33
-1.4226153e-21
2.8524852e-21
2.8519032e-21
-2.8586032e-21
-4.8265745e-33
-1.4854843e-21
-1.5163183e-21
3.0626309e-21
-1.5326672e-21
1.6958904e-33
-8.4434136e-34
1.5286138e-21
3.123122e-21
-3.1848555e-21
-3.2137543e-21
0
1.5904678e-21
1.7447222e-33
-3.1414538e-21
-1.7770287e-33
4.8879045e-21
3.2805321e-21
0
-3.2327013e-21
-3.5363525e-33
-1.5817728e-21
-1.6000824e-21
4.8623115e-21
-9.0266911e-34
-3.2282682e-21
1.5950579e-21
3.1380652e-21
-1.5507953e-21
-3.1153098e-21
-1.5690422e-21
0
3.1005587e-21
-1.5254156e-21
-4.4860222e-21
1.4731728e-21
1.4740148e-21
2.9524601e-21
1.4677385e-21
-2.8930576e-21
-1.4156986e-21
-1.3859643e-21
1.5197015e-33
1.3662957e-21
1.3607123e-21
2.6882499e-21
1.317819e-21
0
0
0
-2.4536521e-21
-2.4255852e-21
2.381426e-21
1.2924836e-33
1.268374e-33
-1.2474546e-33
-2.4476528e-33
2.1411361e-21
0
-2.0024105e-21
-9.8723194e-22
9.858737e-22
-9.8070012e-22
-9.5701938e-22
0
0
1.6564924e-21
-2.7084666e-33
-1.8173822e-33
1.6406792e-21
-1.6182742e-21
-1.5581718e-21
0
1.3956013e-21
-7.4202985e-34
-1.3033087e-21
1.2923721e-21
7.1198816e-34
-1.2585816e-21
0
1.168968e-21
5.5604236e-22
-1.0589578e-21
5.0693949e-22
1.0890293e-33
-9.5968078e-22
9.4281722e-22
9.1980843e-22
0
0
0
-7.4153512e-22
-7.2364286e-22
7.1386595e-22
0
-6.6176738e-22
0
-2.8428806e-22
5.4406984e-22
2.6761333e-22
-2.6451885e-22
5.1053886e-22
2.3712e-22
-4.2997609e-22
-1.9852981e-22
-2.1315442e-34
1.9073588e-22
-4.1725164e-34
1.0109644e-37
3.2092775e-22
0
-1.3699734e-22
-2.7261928e-22
-1.3646038e-22
0
0
0
-8.7903977e-23
1.7839089e-22
9.5397601e-23
-9.8934975e-23
-9.3481087e-23
7.8082459e-23
6.2407719e-23
-1.1284947e-22
0
1.3620535e-22
1.4573177e-22
0
0
-1.06506e-22
-5.6268067e-35
-5.298841e-23
-5.6738695e-23
5.868024e-23
-5.8149944e-23
5.8017095e-23
1.2075585e-22
6.4439714e-23
0
-1.4078144e-22
-7.7658195e-35
6.9449359e-23
-7.1876361e-23
-7.8042712e-23
-1.730364e-22
1.9001305e-22
1.014016e-22
-2.9674153e-38
1.0544309e-22
-2.1737573e-22
1.1604505e-22
-1.2573375e-22
1.8944335e-50
1.4175175e-22
-2.9394246e-22
3.0762304e-22
3.2681209e-22
0
-1.8239497e-22
-3.7566163e-22
1.0785778e-34
2.0555688e-22
2.2069159e-22
-4.7224754e-22
-4.9071004e-22
2.4568998e-22
4.9218891e-22
5.1144779e-22
-2.7497108e-22
-5.9645189e-22
3.173936e-22
-3.2566587e-22
5.3846498e-34
3.2259562e-22
-6.6432669e-22
7.0290679e-22
4.1619927e-34
-2.1908302e-33
8.1003106e-22
-8.1512034e-22
-1.8278625e-33
4.2255682e-22
-8.7870208e-22
4.5894582e-22
-1.3469728e-37
2.134266e-33
4.8368983e-22
-9.8126566e-22
1.1212414e-33
-2.9110344e-34
5.4402732e-22
-1.5784957e-37
-1.1116512e-21
1.1114043e-21
3.2000451e-37
-2.5712357e-33
1.2045085e-21
-1.2475309e-21
-1.4005747e-33
1.2396133e-21
-6.0840349e-22
-6.0875472e-22
-6.2562976e-22
6.5520434e-22
-7.5690904e-34
-1.3939623e-21
0
0
1.3469344e-21
1.9076374e-37
-1.3559005e-21
6.9336028e-22
-7.8877145e-34
7.2461475e-22
1.6279475e-33
-1.4727734e-21
0
-7.2362818e-22
1.4274963e-21
7.0828851e-22
-1.5794064e-33
7.2446956e-22
-1.4801129e-21
7.4896467e-22
-8.256572e-34
-1.4549534e-21
0
0
7.0465685e-22
-3.9732333e-34
7.2734587e-22
-7.3070102e-22
-2.1645367e-21
2.1135578e-21
6.9002894e-22
-1.3608702e-21
6.7824985e-22
1.1392249e-33
6.9035525e-22
-3.9074698e-37
-2.2434475e-33
6.5641534e-22
-1.2837319e-21
-6.3457161e-22
0
-6.3928727e-22
6.3693061e-22
6.2478144e-22
6.0678455e-22
-1.3101969e-33
6.441453e-34
-6.4189352e-34
-1.1600532e-21
5.7772735e-22
9.466652e-34
-1.1096581e-21
7.6970696e-38
5.3205883e-22
1.0499263e-21
1.0363363e-21
-1.0167266e-21
-5.5207928e-34
-4.8892084e-22
-4.8529579e-22
9.6808696e-22
-9.5833031e-22
-4.6719658e-22
1.351118e-21
8.7102586e-22