/*--------------------------------*- C++ -*----------------------------------*\
| =========                 |                                                 |
| \\      /  F ield         | OpenFOAM: The Open Source CFD Toolbox           |
|  \\    /   O peration     | Version:  4.x                                   |
|   \\  /    A nd           | Web:      www.OpenFOAM.org                      |
|    \\/     M anipulation  |                                                 |
\*---------------------------------------------------------------------------*/
FoamFile
{
    version     2.0;
    format      ascii;
    class       volVectorField;
    location    "0.54";
    object      U;
}
// * * * * * * * * * * * * * * * * * * * * * * * * * * * * * * * * * * * * * //

dimensions      [0 1 -1 0 0 0 0];

internalField   nonuniform List<vector> 
6279
(
(0.05253992009 0.01522037122 -0.00763726682)
(0.05714541038 0.01638954349 -0.009334642728)
(0.06215055234 0.01500695787 -0.01084016478)
(0.06684661985 0.0121716344 -0.01217162753)
(0.07057445423 0.007986162849 -0.01317822021)
(0.07265025277 0.002781745959 -0.01373186181)
(0.07265025778 -0.00278179108 -0.0137318706)
(0.0705744548 -0.00798619561 -0.01317824536)
(0.06684664076 -0.01217171297 -0.01217165611)
(0.06215064556 -0.01500682696 -0.01084016663)
(0.05714560299 -0.01638948224 -0.009334667931)
(0.05253999858 -0.01522051963 -0.007637274423)
(0.05012635107 0.01364317168 -0.00951681529)
(0.053996649 0.0146339476 -0.0115499246)
(0.05820704796 0.01338061395 -0.01338060708)
(0.06215053174 0.01084019572 -0.01500697846)
(0.06525888597 0.00710558201 -0.01624850476)
(0.06698258177 0.002473599227 -0.01692309073)
(0.06698261308 -0.002473647677 -0.01692307088)
(0.06525897063 -0.007105613397 -0.01624845848)
(0.06215065935 -0.01084024084 -0.01500691748)
(0.05820724985 -0.0133805103 -0.01338048475)
(0.05399680149 -0.01463391283 -0.01155002669)
(0.05012643398 -0.01364331961 -0.009516836294)
(0.04751828861 0.01187812184 -0.01059131429)
(0.05064895785 0.01266808535 -0.01266815653)
(0.05399663151 0.01154989778 -0.01463399389)
(0.05714537706 0.009334609363 -0.01638957516)
(0.05960561921 0.0061050279 -0.01773923525)
(0.06096642653 0.002122245667 -0.01847082223)
(0.0609664672 -0.00212223741 -0.0184708066)
(0.05960573328 -0.006105026989 -0.01773919299)
(0.05714552247 -0.009334618352 -0.01638952603)
(0.05399678136 -0.01154990399 -0.01463392497)
(0.05064896086 -0.01266813067 -0.01266830096)
(0.04751832686 -0.01187816488 -0.01059139498)
(0.04484704744 0.009968867518 -0.00996890415)
(0.04751825661 0.01059126879 -0.01187821979)
(0.05012627378 0.009516847101 -0.01364329447)
(0.05253980938 0.007637298375 -0.01522051042)
(0.05438280309 0.004971352027 -0.01642794942)
(0.05538502115 0.001723050504 -0.01710815577)
(0.05538504747 -0.001723057144 -0.01710815609)
(0.05438287343 -0.004971355575 -0.01642794512)
(0.05253988509 -0.00763730901 -0.01522049808)
(0.05012631438 -0.009516901578 -0.01364327415)
(0.04751824742 -0.01059134111 -0.01187820801)
(0.04484710485 -0.009968831075 -0.009968913727)
(0.0579045444 0.01847155299 -0.009286127755)
(0.06372521514 0.02030722316 -0.01139921682)
(0.06978341963 0.01817952316 -0.01316206359)
(0.07524152957 0.01475204959 -0.01475201823)
(0.07954221958 0.009675240659 -0.01597614647)
(0.08194075919 0.003376716991 -0.01663428729)
(0.08194083065 -0.003376704281 -0.01663428804)
(0.07954238622 -0.009675224936 -0.01597614219)
(0.07524177009 -0.01475208722 -0.01475200988)
(0.06978380449 -0.01817943183 -0.01316204213)
(0.06372545796 -0.02030711496 -0.01139922694)
(0.05790485588 -0.01847163844 -0.009286154605)
(0.05486526278 0.01670501271 -0.01155896705)
(0.05989649954 0.01825477093 -0.01413336004)
(0.06510950146 0.0162714938 -0.01627149147)
(0.06978336858 0.01316211152 -0.01817954763)
(0.07342450753 0.008597708769 -0.01964737282)
(0.07543345205 0.002993765021 -0.02043985158)
(0.07543353903 -0.002993752743 -0.02043984491)
(0.07342474267 -0.008597685544 -0.01964733698)
(0.06978366424 -0.01316213874 -0.0181795263)
(0.06510988354 -0.01627143838 -0.0162714312)
(0.05989666841 -0.018254705 -0.01413345918)
(0.05486550558 -0.01670508134 -0.01155907541)
(0.05155384367 0.01454664884 -0.01323610099)
(0.05567474557 0.0159197897 -0.01591985531)
(0.05989649276 0.01413332249 -0.01825481032)
(0.06372515872 0.01139920458 -0.02030728915)
(0.06667773962 0.00741776185 -0.02188681736)
(0.06829835285 0.002579282491 -0.02273693609)
(0.06829841134 -0.002579229672 -0.02273692777)
(0.06667789374 -0.007417724609 -0.02188679357)
(0.06372531389 -0.01139921887 -0.02030730607)
(0.05989663499 -0.01413333772 -0.01825481111)
(0.05567477385 -0.01591980592 -0.01592001488)
(0.05155394687 -0.01454671202 -0.01323627521)
(0.04783688891 0.01215963742 -0.01215969464)
(0.0515539076 0.01323605975 -0.01454673883)
(0.05486532753 0.01155894295 -0.01670504829)
(0.0579045506 0.00928610137 -0.01847154668)
(0.06014041758 0.006006146469 -0.01993165293)
(0.06137677448 0.002085133784 -0.02068134428)
(0.0613768151 -0.002085089783 -0.02068134669)
(0.06014051366 -0.006006132753 -0.01993165613)
(0.05790462767 -0.009286132802 -0.01847155937)
(0.05486538711 -0.01155899271 -0.01670504891)
(0.05155397713 -0.01323612036 -0.01454679685)
(0.04783714423 -0.01215958097 -0.01215974886)
(0.06560596017 0.02288825389 -0.011133777)
(0.07250711741 0.02461933427 -0.01373759924)
(0.07965123353 0.02132764508 -0.01550009857)
(0.0858079646 0.01695589313 -0.01695586234)
(0.09041435636 0.01094213348 -0.01804097381)
(0.09288468933 0.003779396357 -0.01864248042)
(0.09288473837 -0.003779253267 -0.01864245759)
(0.09041448997 -0.01094202545 -0.01804090896)
(0.08580813252 -0.0169558709 -0.01695580763)
(0.07965149769 -0.02132759655 -0.01550006239)
(0.07250729702 -0.0246192974 -0.01373763172)
(0.06560610981 -0.02288836894 -0.01113379464)
(0.06182141619 0.02085361535 -0.0140160174)
(0.0678719885 0.02253321266 -0.01724402689)
(0.07416479812 0.01948757119 -0.01948756067)
(0.07965118815 0.0155001431 -0.02132766136)
(0.08375925016 0.01000351111 -0.0227014114)
(0.08597635466 0.003453631581 -0.02346079969)
(0.08597640539 -0.003453488183 -0.02346080994)
(0.08375938904 -0.01000341215 -0.02270142643)
(0.07965132456 -0.01550013957 -0.02132772383)
(0.07416499963 -0.01948756123 -0.01948762351)
(0.06787207504 -0.02253318512 -0.0172442024)
(0.06182149399 -0.02085371788 -0.01401616647)
(0.05770668534 0.01843003967 -0.01665091245)
(0.06266860816 0.02002471506 -0.02002471468)
(0.0678720404 0.01724399657 -0.02253319049)
(0.07250712727 0.01373758649 -0.02461934959)
(0.07595404283 0.008849905025 -0.02617448261)
(0.07782771541 0.003051567987 -0.02702010524)
(0.07782773739 -0.003051454694 -0.02702012516)
(0.07595410677 -0.008849837091 -0.02617452726)
(0.07250712879 -0.0137375972 -0.02461945734)
(0.06787207777 -0.01724402173 -0.02253329689)
(0.06266861864 -0.02002469318 -0.02002491216)
(0.05770673862 -0.01843009191 -0.01665111137)
(0.05293819059 0.01526832224 -0.01526831128)
(0.05770677786 0.0166509193 -0.0184300441)
(0.06182158011 0.01401597727 -0.02085355356)
(0.06560610248 0.01113372778 -0.02288822972)
(0.06831993109 0.007143208634 -0.02433212276)
(0.06976896342 0.002454677274 -0.02516808029)
(0.06976897245 -0.002454601391 -0.02516809113)
(0.06831995748 -0.007143176686 -0.02433214601)
(0.06560610472 -0.01113375547 -0.02288827905)
(0.06182160803 -0.01401601589 -0.02085361316)
(0.05770684999 -0.01665091744 -0.01843016581)
(0.05293822264 -0.01526842252 -0.01526846589)
(0.07692732496 0.0290256087 -0.01507225638)
(0.08516683863 0.03158498591 -0.01785705459)
(0.09362437923 0.02698246409 -0.01982222138)
(0.100580901 0.0215954196 -0.0215953825)
(0.1059847485 0.01387766593 -0.02294519528)
(0.1089656647 0.004810703761 -0.02362884141)
(0.1089656699 -0.004810579966 -0.02362882041)
(0.1059847739 -0.01387754721 -0.02294512617)
(0.100580907 -0.0215953488 -0.02159533899)
(0.09362444736 -0.02698235526 -0.0198221768)
(0.08516687988 -0.03158489585 -0.01785708891)
(0.0769273358 -0.02902566313 -0.01507231458)
(0.07218586372 0.02717967044 -0.01868202402)
(0.07962241883 0.02922070931 -0.0222667423)
(0.08733418482 0.02479388548 -0.02479385672)
(0.09362436073 0.01982226953 -0.0269824484)
(0.09843541757 0.01266247634 -0.02867640558)
(0.1010526745 0.004379391371 -0.02952933689)
(0.1010526854 -0.004379252915 -0.02952933751)
(0.09843546019 -0.01266236593 -0.02867638673)
(0.09362435905 -0.01982222151 -0.02698250656)
(0.08733423237 -0.0247938222 -0.02479390607)
(0.07962240181 -0.02922065135 -0.02226690806)
(0.07218585386 -0.02717968711 -0.01868219693)
(0.06682002169 0.02401207585 -0.02263514065)
(0.07303033144 0.02620660783 -0.02620657433)
(0.07962245173 0.02226674953 -0.02922066667)
(0.08516687893 0.01785707952 -0.03158494935)
(0.08930967616 0.01135815746 -0.03352009247)
(0.09156671928 0.003932999242 -0.03449802563)
(0.09156672251 -0.003932873094 -0.03449803613)
(0.08930969082 -0.01135808415 -0.03352011232)
(0.08516685124 -0.01785705463 -0.03158503489)
(0.07962247878 -0.0222667037 -0.02922074836)
(0.07303035181 -0.02620654785 -0.02620671927)
(0.06681999582 -0.02401211201 -0.02263532026)
(0.06050505548 0.0208640338 -0.02086399182)
(0.0668200554 0.02263516466 -0.024012042)
(0.07218593375 0.01868201926 -0.02717960288)
(0.07692742783 0.01507225186 -0.02902554767)
(0.0800393685 0.009460925684 -0.03099866651)
(0.08184942339 0.003287831873 -0.03181925489)
(0.08184942545 -0.003287741768 -0.03181926282)
(0.08003937788 -0.009460873724 -0.03099868394)
(0.07692742656 -0.01507223714 -0.02902559483)
(0.07218598967 -0.01868198154 -0.02717966062)
(0.06682012381 -0.02263511522 -0.02401213244)
(0.06050511018 -0.02086401405 -0.02086415191)
(0.09252932684 0.03721394378 -0.01731244377)
(0.1025267057 0.03682495203 -0.02066204897)
(0.112258176 0.0307243616 -0.02253787054)
(0.1201475062 0.02361421757 -0.02361416924)
(0.125991908 0.01479928664 -0.02427863178)
(0.128959171 0.005027442712 -0.02472818149)
(0.1289591789 -0.005027311058 -0.02472816332)
(0.1259919488 -0.0147991763 -0.02427857422)
(0.1201475617 -0.02361416298 -0.02361413566)
(0.1122582927 -0.03072435047 -0.02253784805)
(0.1025268146 -0.03682490346 -0.0206620721)
(0.0925294097 -0.03721397675 -0.01731249088)
(0.08676654336 0.03510887151 -0.02241547754)
(0.09598188094 0.03491974104 -0.0266368591)
(0.1049090298 0.02920658517 -0.02920652833)
(0.1122581662 0.02253792241 -0.03072430542)
(0.1177414681 0.01421210896 -0.03177330635)
(0.1206141066 0.004857160634 -0.03238827792)
(0.1206141173 -0.004857023059 -0.03238827902)
(0.117741507 -0.01421200582 -0.03177328895)
(0.112258188 -0.02253788438 -0.03072435331)
(0.1049090987 -0.0292065947 -0.02920658151)
(0.09598193339 -0.03491971628 -0.02663696073)
(0.08676656139 -0.03510891517 -0.022415623)
(0.08025438333 0.03184897351 -0.02754760418)
(0.08814060464 0.03212507592 -0.0321250172)
(0.09598189533 0.02663691128 -0.03491967431)
(0.1025267149 0.02066210603 -0.03682489147)
(0.1073612643 0.01297755133 -0.03816827764)
(0.1099033936 0.004439173856 -0.03887938227)
(0.1099033954 -0.004439057756 -0.03887938897)
(0.107361272 -0.01297748252 -0.03816828138)
(0.1025267005 -0.02066207711 -0.03682495232)
(0.09598192465 -0.02663689571 -0.0349197338)
(0.08814065826 -0.03212503887 -0.03212511922)
(0.08025441322 -0.03184896491 -0.0275477542)
(0.07193690563 0.02730048508 -0.02730042816)
(0.08025442542 0.02754764689 -0.03184890093)
(0.08676661374 0.02241550066 -0.0351087775)
(0.09252938344 0.01731245925 -0.03721387594)
(0.09655062805 0.01081117785 -0.03882621083)
(0.09871413357 0.003704041545 -0.0396619494)
(0.09871413652 -0.003703940071 -0.03966195085)
(0.09655063528 -0.01081112906 -0.03882621362)
(0.09252939221 -0.01731245056 -0.03721390764)
(0.08676665517 -0.02241550564 -0.03510883706)
(0.08025447988 -0.02754763636 -0.03184899438)
(0.0719368427 -0.02730060902 -0.0273005708)
(0.1198602345 0.04299988438 -0.02515563205)
(0.131581691 0.04867363791 -0.02845692192)
(0.1416223931 0.03999996119 -0.02986289656)
(0.1498897436 0.03171971744 -0.0317196698)
(0.1560411326 0.02015868059 -0.03342378533)
(0.1591719812 0.007011850192 -0.03422082397)
(0.1591719784 -0.007011708582 -0.03422080541)
(0.1560411431 -0.02015851579 -0.03342372159)
(0.1498897503 -0.03171954942 -0.03171963818)
(0.1416224466 -0.03999977787 -0.02986288593)
(0.1315817803 -0.04867358791 -0.02845702689)
(0.1198602469 -0.04299994931 -0.02515572469)
(0.11342872 0.04175122444 -0.03138846906)
(0.1242469012 0.04631318166 -0.03591884785)
(0.1336794616 0.03770691123 -0.037706861)
(0.1416223742 0.02986293843 -0.0399998998)
(0.1474951532 0.01869461119 -0.04209317949)
(0.15050918 0.006401131364 -0.0430938615)
(0.1505091859 -0.006400971836 -0.04309385755)
(0.1474951766 -0.01869446233 -0.04209316032)
(0.1416223823 -0.02986280296 -0.03999994499)
(0.1336795042 -0.03770677869 -0.03770692686)
(0.1242469567 -0.04631314083 -0.03591902339)
(0.1134287055 -0.04175129582 -0.03138862942)
(0.1060266699 0.038789077 -0.03985850423)
(0.1155004843 0.04350818343 -0.04350810385)
(0.1242469074 0.03591891202 -0.04631310721)
(0.1315816722 0.02845697779 -0.04867355297)
(0.1369344339 0.01776266879 -0.05102635773)
(0.139595103 0.006091363455 -0.05213815639)
(0.1395951056 -0.006091237232 -0.05213815814)
(0.1369344461 -0.01776255339 -0.05102634849)
(0.131581678 -0.02845686109 -0.04867359033)
(0.1242469394 -0.03591879471 -0.04631315222)
(0.1155005401 -0.04350812113 -0.04350821733)
(0.1060266984 -0.03878908962 -0.03985863641)
(0.09538068346 0.03534414806 -0.03534406775)
(0.1060266958 0.03985856968 -0.03878897812)
(0.1134287215 0.0313885192 -0.04175115728)
(0.1198602259 0.02515567392 -0.04299980251)
(0.1235428819 0.01546854002 -0.04521765329)
(0.1256290004 0.005335072385 -0.04590110046)
(0.1256290046 -0.005334949889 -0.04590110046)
(0.1235429017 -0.01546844002 -0.04521763385)
(0.1198602538 -0.0251555745 -0.04299982233)
(0.1134287777 -0.03138841624 -0.04175118498)
(0.1060267549 -0.03985851112 -0.03878907639)
(0.09538068333 -0.03534417849 -0.03534419936)
(0.1592801041 0.07110104249 -0.02707596119)
(0.1740649038 0.05548964068 -0.02914279121)
(0.1866678315 0.04401659344 -0.03251261924)
(0.1953045403 0.03161314324 -0.03161305505)
(0.2011217692 0.01849990601 -0.02990492072)
(0.2037854336 0.005875578133 -0.02896887588)
(0.2037854198 -0.005875455385 -0.02896886674)
(0.2011217375 -0.01849976723 -0.02990489117)
(0.1953044859 -0.03161302617 -0.03161306066)
(0.1866677807 -0.04401650858 -0.03251264522)
(0.1740648286 -0.05548964692 -0.02914289508)
(0.1592800115 -0.07110110525 -0.02707607637)
(0.1492169288 0.0707542665 -0.03623624311)
(0.1630380093 0.05583070013 -0.04006685702)
(0.175838748 0.04461582636 -0.04461573047)
(0.1866678137 0.03251270352 -0.04401649768)
(0.1934121103 0.0196769716 -0.04252482632)
(0.1966255355 0.006661491457 -0.04168465499)
(0.1966255208 -0.006661366744 -0.04168464217)
(0.1934120794 -0.0196768477 -0.04252479584)
(0.1866677731 -0.03251259402 -0.04401651232)
(0.1758387048 -0.0446157464 -0.04461577137)
(0.1630379617 -0.05583071476 -0.04006697998)
(0.149216868 -0.07075436406 -0.03623639491)
(0.1370910407 0.064181703 -0.04746683994)
(0.1495286146 0.05082611022 -0.05082599766)
(0.1630379936 0.04006693988 -0.05583059181)
(0.1740648744 0.02914286251 -0.05548951821)
(0.1809605981 0.01707772582 -0.05521117801)
(0.1843569268 0.005730051446 -0.05484334631)
(0.1843569183 -0.005729946542 -0.05484333657)
(0.180960585 -0.0170776209 -0.05521114988)
(0.1740648694 -0.02914276049 -0.05548952642)
(0.1630379953 -0.04006686448 -0.05583062235)
(0.1495286033 -0.05082611675 -0.05082610162)
(0.137090976 -0.06418174468 -0.04746697282)
(0.124502532 0.06313836079 -0.06313825376)
(0.1370910468 0.0474669224 -0.06418155592)
(0.1492169163 0.03623628815 -0.07075415156)
(0.1592800983 0.02707599994 -0.07110087941)
(0.1654134064 0.01574267589 -0.0729460752)
(0.1687459224 0.005410367948 -0.07328287193)
(0.1687459159 -0.005410263763 -0.07328286707)
(0.165413396 -0.01574258472 -0.07294605319)
(0.1592800784 -0.02707591655 -0.07110089984)
(0.1492169058 -0.03623623449 -0.07075418191)
(0.1370910248 -0.04746695723 -0.06418166683)
(0.1245024599 -0.06313844523 -0.06313832815)
(0.1762230425 0.1046897829 -0.04801545911)
(0.1965534919 0.08775836335 -0.05041969034)
(0.2182319503 0.0768084634 -0.05350428891)
(0.2344653733 0.06079213539 -0.06079204754)
(0.2446875828 0.03844214077 -0.06532816653)
(0.2489921956 0.01326430371 -0.06649742869)
(0.2489921857 -0.01326422807 -0.06649741257)
(0.2446875563 -0.03844205272 -0.06532813072)
(0.2344653325 -0.06079205893 -0.06079204932)
(0.21823192 -0.07680841689 -0.05350431526)
(0.1965534679 -0.08775834295 -0.05041976251)
(0.1762230256 -0.1046897486 -0.04801555543)
(0.1652315459 0.09824257337 -0.0619415765)
(0.1855058889 0.08029702137 -0.06353912306)
(0.2058814898 0.06853106142 -0.06853100726)
(0.2182319226 0.05350434751 -0.07680838189)
(0.2278349485 0.03244404695 -0.08203266682)
(0.2325281766 0.0107977561 -0.08374282294)
(0.232528168 -0.01079768241 -0.08374280485)
(0.2278349321 -0.03244396921 -0.08203262576)
(0.2182319042 -0.0535042736 -0.07680837185)
(0.2058814881 -0.06853100822 -0.06853102002)
(0.1855058903 -0.08029700448 -0.06353919238)
(0.1652315322 -0.09824252857 -0.06194168729)
(0.153064767 0.08905254002 -0.07397781294)
(0.1726584509 0.07460376885 -0.07460368067)
(0.1855058687 0.06353917176 -0.08029693884)
(0.1965534627 0.05041974385 -0.08775825375)
(0.2048697146 0.0311837887 -0.09379185423)
(0.2092875815 0.01063361341 -0.09647143301)
(0.2092875757 -0.01063351979 -0.09647141664)
(0.2048697061 -0.03118370161 -0.09379180811)
(0.1965534582 -0.05041966481 -0.08775823034)
(0.1855058712 -0.06353911986 -0.08029691871)
(0.1726584476 -0.07460377695 -0.07460371036)
(0.1530647181 -0.08905253083 -0.07397786462)
(0.1363756009 0.08847004346 -0.08846991272)
(0.1530647558 0.07397790908 -0.08905243084)
(0.165231514 0.0619416458 -0.0982424704)
(0.1762230167 0.04801552235 -0.1046896526)
(0.1832272572 0.02884391127 -0.110542248)
(0.1867690406 0.00978313034 -0.1127857224)
(0.1867690347 -0.009783026854 -0.1127857072)
(0.1832272437 -0.02884381672 -0.11054219)
(0.1762230069 -0.04801542476 -0.1046896195)
(0.1652315192 -0.06194157232 -0.09824244579)
(0.1530647681 -0.07397789961 -0.08905245078)
(0.1363755527 -0.08847001641 -0.08846995024)
(0.2425211778 0.13582298 -0.05407015766)
(0.2686565791 0.1120538282 -0.05986881643)
(0.2945665793 0.08105858382 -0.06207701057)
(0.3150003907 0.05725436183 -0.05725429548)
(0.3266186541 0.03224870007 -0.05496741203)
(0.3312743108 0.01003655559 -0.05336488291)
(0.3312742927 -0.01003648491 -0.053364863)
(0.3266186186 -0.03224863088 -0.05496736372)
(0.3150003685 -0.05725430081 -0.05725427297)
(0.2945665843 -0.08105852997 -0.06207703593)
(0.2686565949 -0.1120537938 -0.05986892465)
(0.2425211724 -0.1358229418 -0.05407029065)
(0.2199802986 0.1335757874 -0.07209914765)
(0.2445884584 0.1131335572 -0.08357774579)
(0.2680219226 0.08462625812 -0.08462617955)
(0.2945665439 0.06207707569 -0.08105849845)
(0.3094750463 0.03836152166 -0.08135563996)
(0.3165420659 0.01297126989 -0.08163228659)
(0.316542058 -0.01297117189 -0.08163226723)
(0.3094750377 -0.03836142536 -0.08135558925)
(0.294566544 -0.06207699147 -0.08105846863)
(0.2680219287 -0.08462620121 -0.08462619024)
(0.2445884493 -0.1131335255 -0.08357783394)
(0.2199802245 -0.1335757375 -0.07209927658)
(0.1863887588 0.1245526008 -0.0973463028)
(0.2153919312 0.108496508 -0.1084963799)
(0.2445884377 0.08357785092 -0.1131334364)
(0.2686565445 0.0598689094 -0.1120536902)
(0.2838484107 0.03545003553 -0.1130498025)
(0.2912248393 0.01172674435 -0.1127853992)
(0.2912248317 -0.01172665759 -0.1127853698)
(0.2838483982 -0.03544993759 -0.1130497184)
(0.268656537 -0.05986880311 -0.1120536195)
(0.2445884449 -0.08357777554 -0.1131333983)
(0.215391903 -0.1084964849 -0.1084964025)
(0.1863886674 -0.1245525727 -0.0973463776)
(0.1474720937 0.1196887389 -0.1196885856)
(0.1863887939 0.09734645046 -0.1245524851)
(0.219980266 0.07209925059 -0.1335756616)
(0.2425211462 0.05407024734 -0.1358228505)
(0.2547972756 0.03210812786 -0.139760308)
(0.2605677673 0.01100431275 -0.1413787252)
(0.2605677616 -0.01100422877 -0.1413786987)
(0.2547972626 -0.0321080396 -0.1397602324)
(0.242521139 -0.05407015646 -0.1358227905)
(0.219980256 -0.07209917685 -0.1335756314)
(0.186388765 -0.09734642314 -0.1245524904)
(0.1474719808 -0.119688713 -0.1196886361)
(0.2600721175 0.226599408 -0.0907352128)
(0.3390385539 0.1847682741 -0.08599938437)
(0.3785604815 0.1653586676 -0.1004838191)
(0.4059195474 0.1210268941 -0.1210268264)
(0.4202189743 0.07259513674 -0.1287860697)
(0.4239644514 0.02380266835 -0.1298691032)
(0.4239644221 -0.02380258907 -0.1298690708)
(0.4202189208 -0.07259505381 -0.1287860085)
(0.4059195 -0.1210268226 -0.1210268127)
(0.3785604756 -0.1653586262 -0.1004838823)
(0.3390385611 -0.1847682652 -0.08599949745)
(0.260072122 -0.2265994131 -0.09073527761)
(0.2385964642 0.212754092 -0.124251368)
(0.3234395942 0.1747770518 -0.120527646)
(0.3616864122 0.1448856958 -0.1448856278)
(0.3785604406 0.1004838832 -0.1653585833)
(0.3934090106 0.05565317052 -0.1704930998)
(0.4007100668 0.01766464618 -0.1714762755)
(0.4007100541 -0.01766459141 -0.171476245)
(0.3934089845 -0.05565309795 -0.1704930306)
(0.3785604141 -0.1004838013 -0.1653585463)
(0.3616864011 -0.1448856339 -0.1448856485)
(0.3234395331 -0.1747770381 -0.1205277367)
(0.2385964023 -0.2127540796 -0.1242514429)
(0.2084394596 0.1816922023 -0.154783924)
(0.2900893927 0.1542706631 -0.154270594)
(0.3234395627 0.1205276987 -0.1747769869)
(0.3390384962 0.08599943288 -0.1847681762)
(0.3479314219 0.04970935632 -0.1902038681)
(0.3523091384 0.01661846891 -0.193082476)
(0.3523091279 -0.0166183974 -0.1930824387)
(0.3479313945 -0.0497092776 -0.1902037855)
(0.3390384591 -0.08599936123 -0.184768106)
(0.3234395032 -0.1205276504 -0.1747769579)
(0.2900892932 -0.154270656 -0.154270616)
(0.2084393565 -0.1816921951 -0.1547839784)
(0.1499718539 0.1745506159 -0.1745506141)
(0.208439522 0.1547839507 -0.1816921666)
(0.2385964911 0.1242513478 -0.2127540581)
(0.2600721158 0.09073520778 -0.2265993491)
(0.2723669675 0.05246936968 -0.2352968076)
(0.2778451558 0.0175137341 -0.2387504429)
(0.2778451513 -0.01751360306 -0.2387504067)
(0.2723669527 -0.05246924799 -0.2352967172)
(0.2600720985 -0.09073510524 -0.2265992704)
(0.2385964586 -0.1242512751 -0.2127540248)
(0.2084394449 -0.1547839396 -0.1816921792)
(0.1499717196 -0.1745506267 -0.174550674)
(0.4646208249 0.326175925 -0.0584707447)
(0.4825440435 0.260598516 -0.06936191671)
(0.5422039128 0.1442860862 -0.06524119027)
(0.5576895066 0.09329433595 -0.05433382692)
(0.5779212248 0.05810955809 -0.05810951832)
(0.5838200221 0.02042016962 -0.0597831754)
(0.5838199814 -0.02042013274 -0.05978315469)
(0.577921139 -0.05810952159 -0.05810948254)
(0.5576894384 -0.09329431299 -0.05433383915)
(0.5422039599 -0.1442860921 -0.06524127482)
(0.4825441616 -0.2605985598 -0.06936198066)
(0.4646209798 -0.326176026 -0.05847071239)
(0.4424111563 0.3145628141 -0.1007005712)
(0.469107763 0.2520599289 -0.1183691864)
(0.5278014926 0.1415462962 -0.1070121878)
(0.5461314086 0.09343992791 -0.09343987242)
(0.5576894359 0.05433386373 -0.09329427286)
(0.5654861673 0.01895664591 -0.09542593642)
(0.5654861313 -0.01895658856 -0.09542591312)
(0.5576893414 -0.0543338027 -0.0932942332)
(0.5461313304 -0.09343988149 -0.09343989833)
(0.5278014752 -0.1415462883 -0.1070122797)
(0.469107776 -0.2520599606 -0.1183692849)
(0.4424112312 -0.3145628443 -0.100700588)
(0.3909416537 0.3040526941 -0.139132167)
(0.4388564002 0.2458082681 -0.169889509)
(0.4982093562 0.1523255611 -0.1523255314)
(0.5278014509 0.1070122246 -0.1415462221)
(0.5422038261 0.06524121857 -0.1442860013)
(0.5491541062 0.02232205984 -0.1466659309)
(0.5491540866 -0.02232195563 -0.1466659003)
(0.5422037697 -0.06524111704 -0.144285942)
(0.5278013795 -0.1070121567 -0.1415462115)
(0.4982092851 -0.152325549 -0.1523255926)
(0.4388563195 -0.2458082915 -0.1698895923)
(0.3909416254 -0.3040527037 -0.1391321869)
(0.3058479074 0.2881621101 -0.2120629908)
(0.3828662619 0.2413641808 -0.2413641633)
(0.4388564225 0.1698894867 -0.245808217)
(0.4691077605 0.118369185 -0.2520598451)
(0.4825440417 0.06936192776 -0.2605984344)
(0.4890686941 0.02279567579 -0.2637593808)
(0.4890686759 -0.02279553299 -0.2637593403)
(0.4825440078 -0.06936179105 -0.2605983251)
(0.4691077084 -0.1183690787 -0.2520597697)
(0.4388563415 -0.1698894328 -0.2458082117)
(0.3828661281 -0.2413641885 -0.2413642273)
(0.3058477849 -0.2881621352 -0.2120630461)
(0.17976777 0.267677743 -0.2676777506)
(0.3058480296 0.2120629671 -0.2881620902)
(0.3909418063 0.139132122 -0.3040526872)
(0.4424112609 0.100700558 -0.3145628064)
(0.4646209302 0.05847070791 -0.3261759621)
(0.472828748 0.01967894768 -0.3306186587)
(0.4728287443 -0.0196788502 -0.3306186049)
(0.464620921 -0.05847060563 -0.326175849)
(0.4424112507 -0.1007004459 -0.3145626965)
(0.3909417779 -0.1391320157 -0.3040526295)
(0.3058479354 -0.2120629086 -0.2881621089)
(0.179767655 -0.2676777646 -0.2676778171)
(0.5198128512 0.6496148322 -0.0598688252)
(0.8141722673 0.4442222994 -0.07480279622)
(0.7663620491 0.3151900761 -0.09384018146)
(0.7255751405 0.1701662544 -0.1001506444)
(0.7254221761 0.09809228731 -0.09809221226)
(0.7307561768 0.03212692944 -0.09598418079)
(0.7307561225 -0.03212685235 -0.09598415259)
(0.7254220908 -0.09809222526 -0.09809217849)
(0.7255751586 -0.1701662382 -0.1001506991)
(0.7663622317 -0.3151901368 -0.09384028669)
(0.8141724771 -0.4442224196 -0.07480282246)
(0.5198129521 -0.6496149646 -0.0598688135)
(0.5197882114 0.636075771 -0.1092628356)
(0.8095731999 0.4397703435 -0.1372166025)
(0.7587483494 0.3104873896 -0.1713852443)
(0.7223461964 0.1733744942 -0.1733744186)
(0.7255750393 0.1001507018 -0.1701661524)
(0.7316783652 0.03238801705 -0.1691356864)
(0.7316783309 -0.03238792024 -0.1691356521)
(0.7255749937 -0.1001506052 -0.1701661004)
(0.7223461871 -0.1733744472 -0.1733744469)
(0.7587483851 -0.3104874141 -0.1713853624)
(0.8095732525 -0.4397703904 -0.1372166504)
(0.5197882861 -0.6360758394 -0.10926284)
(0.5182966236 0.6134654319 -0.1664982144)
(0.7797325712 0.4428556014 -0.2186831569)
(0.7615782992 0.3001945461 -0.3001945412)
(0.7587483222 0.1713852601 -0.3104873294)
(0.7663620054 0.09384021098 -0.3151899909)
(0.7718792308 0.029661134 -0.3191822499)
(0.7718791962 -0.02966103881 -0.3191821981)
(0.7663619551 -0.09384011744 -0.3151898753)
(0.7587482653 -0.1713851938 -0.3104872776)
(0.7615782205 -0.3001945421 -0.3001945943)
(0.7797324857 -0.4428556365 -0.2186832162)
(0.518296601 -0.61346546 -0.1664982211)
(0.507511938 0.562368134 -0.2849104774)
(0.7224682244 0.3830299739 -0.3830299894)
(0.7797326874 0.2186831266 -0.4428556161)
(0.8095733354 0.1372165835 -0.4397703724)
(0.8141724312 0.07480279309 -0.4442223544)
(0.8124383136 0.02438949745 -0.4512998387)
(0.8124382937 -0.02438945589 -0.4512997861)
(0.814172371 -0.07480273977 -0.4442222317)
(0.8095732482 -0.1372165185 -0.4397702628)
(0.7797325548 -0.2186830684 -0.442855587)
(0.7224680784 -0.3830299493 -0.3830300425)
(0.5075118486 -0.5623681477 -0.2849104994)
(0.4012780273 0.4487912409 -0.4487913289)
(0.5075120557 0.2849104644 -0.5623682309)
(0.5182967999 0.1664982017 -0.6134655523)
(0.5197883809 0.1092628324 -0.6360759198)
(0.5198130203 0.05986879354 -0.6496150214)
(0.5211679142 0.01980982291 -0.6537639789)
(0.5211679272 -0.01980980415 -0.6537639477)
(0.5198130432 -0.059868777 -0.649614953)
(0.5197883868 -0.109262807 -0.636075831)
(0.5182967326 -0.1664981409 -0.6134654699)
(0.5075119465 -0.2849103648 -0.5623682029)
(0.4012779369 -0.4487911911 -0.4487913455)
(0.05054059404 0.01778052263 -0.008458400136)
(0.04820992751 0.01566618957 -0.01047953158)
(0.0457521511 0.01348620226 -0.01151643134)
(0.04326553214 0.01110386482 -0.01065538324)
(0.05152223798 0.02395806509 -0.01114582732)
(0.04843830139 0.02066885504 -0.0135442041)
(0.04509477289 0.01759713849 -0.01463582182)
(0.04188206693 0.01419656492 -0.0134335543)
(0.05139436019 0.0331650932 -0.0147887947)
(0.04731203922 0.02810753446 -0.01794951111)
(0.04284505795 0.02347919766 -0.01913891593)
(0.03889584222 0.01829775121 -0.0173863761)
(0.04712083635 0.04616557976 -0.02014159753)
(0.04263724464 0.03809344266 -0.02423104747)
(0.03740731193 0.03083115644 -0.02516910463)
(0.03314821923 0.02332939437 -0.02237644514)
(0.03873553564 0.06001571999 -0.0272689016)
(0.03334032372 0.04856250092 -0.03185259102)
(0.02759984357 0.03797222594 -0.03168711441)
(0.02310388135 0.02806752584 -0.02722919725)
(0.01435068899 0.06608745025 -0.02744817109)
(0.01134014956 0.05124555398 -0.03130626883)
(0.00850518505 0.03788892031 -0.03007504807)
(0.006108141086 0.02578601418 -0.02431942399)
(0.05560823345 0.02305236265 -0.01023610492)
(0.05250101825 0.02076148527 -0.01271478311)
(0.04943223539 0.01782982442 -0.01458006426)
(0.04570377645 0.01487597501 -0.01358055295)
(0.0582516525 0.03180910696 -0.01405324675)
(0.05397408416 0.02817303374 -0.01707527342)
(0.0497326105 0.02393807901 -0.01915224539)
(0.04473863343 0.019976427 -0.01778764987)
(0.05902475644 0.04447657247 -0.0188954348)
(0.05324400568 0.03897234141 -0.02274677753)
(0.04775620523 0.03252479453 -0.02527306996)
(0.04157411343 0.02652260571 -0.02331283795)
(0.05428649626 0.06282536078 -0.02660444574)
(0.04779451325 0.0537305282 -0.03100257608)
(0.04170025561 0.04346965498 -0.03348180815)
(0.03513294552 0.03442116558 -0.03005881082)
(0.04530606864 0.08354080603 -0.03342363852)
(0.03810262877 0.06973016395 -0.03849647549)
(0.03208170605 0.05436709921 -0.04145731605)
(0.02530435646 0.04218191621 -0.03606863633)
(0.01761418062 0.09168863975 -0.03522018902)
(0.0138541798 0.07344055029 -0.0396847996)
(0.01112480751 0.05319076287 -0.04144234861)
(0.00794661611 0.03892040573 -0.03263471558)
(0.06294012656 0.02978246679 -0.01224760545)
(0.05920054413 0.02668515353 -0.01536110169)
(0.0554460348 0.02330613352 -0.01828027516)
(0.05083393802 0.01912654108 -0.01718196999)
(0.06860807381 0.04097893682 -0.01732148389)
(0.06357756831 0.03581448591 -0.02108824779)
(0.05830200851 0.03098123512 -0.02420242996)
(0.05241938759 0.02539113705 -0.02247225498)
(0.07220955653 0.05587686496 -0.02257777766)
(0.06550716314 0.04775850438 -0.02741431523)