/*--------------------------------*- C++ -*----------------------------------*\
  =========                 |
  \\      /  F ield         | OpenFOAM: The Open Source CFD Toolbox
   \\    /   O peration     | Website:  https://openfoam.org
    \\  /    A nd           | Version:  7
     \\/     M anipulation  |
\*---------------------------------------------------------------------------*/
FoamFile
{
    version     2.0;
    format      ascii;
    class       volScalarField;
    location    "0.00216";
    object      p;
}
// * * * * * * * * * * * * * * * * * * * * * * * * * * * * * * * * * * * * * //

dimensions      [1 -1 -2 0 0 0 0];

internalField   nonuniform List<scalar> 
5000
(
109813.05
109813.05
109813.05
109813.05
109813.05
109813.05
109813.05
109813.05
109813.05
109813.05
109813.05
109813.05
109813.05
109813.05
109813.05
109813.05
109813.05
109813.05
109813.05
109813.05
109813.05
109813.06
109813.06
109813.06
109813.06
109813.06
109813.06
109813.06
109813.06
109813.06
109813.06
109813.06
109813.06
109813.06
109813.06
109813.06
109813.06
109813.06
109813.06
109813.06
109813.06
109813.06
109813.06
109813.07
109813.07
109813.07
109813.07
109813.07
109813.07
109813.07
109813.07
109813.07
109813.07
109813.07
109813.07
109813.07
109813.07
109813.07
109813.07
109813.07
109813.07
109813.07
109813.07
109813.07
109813.07
109813.07
109813.08
109813.08
109813.08
109813.08
109813.08
109813.08
109813.08
109813.08
109813.08
109813.08
109813.08
109813.08
109813.08
109813.08
109813.08
109813.08
109813.08
109813.08
109813.08
109813.08
109813.08
109813.08
109813.08
109813.08
109813.09
109813.09
109813.09
109813.09
109813.09
109813.09
109813.09
109813.09
109813.09
109813.09
109813.09
109813.09
109813.09
109813.09
109813.09
109813.09
109813.09
109813.09
109813.09
109813.09
109813.09
109813.09
109813.09
109813.09
109813.09
109813.1
109813.1
109813.1
109813.1
109813.1
109813.1
109813.1
109813.1
109813.1
109813.1
109813.1
109813.1
109813.1
109813.1
109813.1
109813.1
109813.1
109813.1
109813.1
109813.1
109813.1
109813.1
109813.1
109813.1
109813.1
109813.1
109813.11
109813.11
109813.11
109813.11
109813.11
109813.11
109813.11
109813.11
109813.11
109813.11
109813.11
109813.11
109813.11
109813.11
109813.11
109813.11
109813.11
109813.11
109813.11
109813.11
109813.11
109813.11
109813.11
109813.11
109813.11
109813.11
109813.11
109813.12
109813.12
109813.12
109813.12
109813.12
109813.12
109813.12
109813.12
109813.12
109813.12
109813.12
109813.12
109813.12
109813.12
109813.12
109813.12
109813.12
109813.12
109813.12
109813.12
109813.12
109813.12
109813.12
109813.12
109813.12
109813.12
109813.12
109813.12
109813.13
109813.13
109813.13
109813.13
109813.13
109813.13
109813.13
109813.13
109813.13
109813.13
109813.13
109813.13
109813.13
109813.13
109813.13
109813.13
109813.13
109813.13
109813.13
109813.13
109813.13
109813.13
109813.13
109813.13
109813.13
109813.13
109813.13
109813.13
109813.14
109813.14
109813.14
109813.14
109813.14
109813.14
109813.14
109813.14
109813.14
109813.14
109813.14
109813.14
109813.14
109813.14
109813.14
109813.14
109813.14
109813.14
109813.14
109813.14
109813.14
109813.14
109813.14
109813.14
109813.14
109813.14
109813.14
109813.14
109813.14
109813.15
109813.15
109813.15
109813.15
109813.15
109813.15
109813.15
109813.15
109813.15
109813.15
109813.15
109813.15
109813.15
109813.15
109813.15
109813.15
109813.15
109813.15
109813.15
109813.15
109813.15
109813.15
109813.15
109813.15
109813.15
109813.15
109813.15
109813.15
109813.15
109813.16
109813.16
109813.16
109813.16
109813.16
109813.16
109813.16
109813.16
109813.16
109813.16
109813.16
109813.16
109813.16
109813.16
109813.16
109813.16
109813.16
109813.16
109813.16
109813.16
109813.16
109813.16
109813.16
109813.16
109813.16
109813.16
109813.16
109813.16
109813.16
109813.17
109813.17
109813.17
109813.17
109813.17
109813.17
109813.17
109813.17
109813.17
109813.17
109813.17
109813.17
109813.17
109813.17
109813.17
109813.17
109813.17
109813.17
109813.17
109813.17
109813.17
109813.17
109813.17
109813.17
109813.17
109813.17
109813.17
109813.17
109813.17
109813.17
109813.17
109813.18
109813.18
109813.18
109813.18
109813.18
109813.18
109813.18
109813.18
109813.18
109813.18
109813.18
109813.18
109813.18
109813.18
109813.18
109813.18
109813.18
109813.18
109813.18
109813.18
109813.18
109813.18
109813.18
109813.18
109813.18
109813.18
109813.18
109813.18
109813.18
109813.18
109813.18
109813.18
109813.18
109813.18
109813.19
109813.19
109813.19
109813.19
109813.19
109813.19
109813.19
109813.19
109813.19
109813.19
109813.19
109813.19
109813.19
109813.19
109813.19
109813.19
109813.19
109813.19
109813.19
109813.19
109813.19
109813.19
109813.19
109813.19
109813.19
109813.19
109813.19
109813.19
109813.19
109813.19
109813.19
109813.19
109813.19
109813.19
109813.19
109813.19
109813.19
109813.19
109813.19
109813.2
109813.2
109813.2
109813.2
109813.2
109813.2
109813.2
109813.2
109813.2
109813.2
109813.2
109813.2
109813.2
109813.2
109813.2
109813.2
109813.2
109813.2
109813.2
109813.2
109813.2
109813.2
109813.2
109813.2
109813.2
109813.2
109813.2
109813.2
109813.2
109813.2
109813.2
109813.2
109813.2
109813.2
109813.2
109813.2
109813.2
109813.2
109813.2
109813.2
109813.2
109813.2
109813.2
109813.2
109813.2
109813.2
109813.2
109813.2
109813.2
109813.2
109813.21
109813.21
109813.21
109813.21
109813.21
109813.21
109813.21
109813.21
109813.21
109813.21
109813.21
109813.21
109813.21
109813.21
109813.21
109813.21
109813.21
109813.21
109813.21
109813.21
109813.21
109813.21
109813.21
109813.21
109813.21
109813.21
109813.21
109813.21
109813.21
109813.21
109813.21
109813.21
109813.21
109813.21
109813.21
109813.21
109813.21
109813.21
109813.21
109813.21
109813.21
109813.21
109813.21
109813.21
109813.21
109813.21
109813.21
109813.21
109813.21
109813.21
109813.21
109813.21
109813.21
109813.21
109813.21
109813.21
109813.21
109813.21
109813.21
109813.21
109813.21
109813.21
109813.21
109813.21
109813.21
109813.21
109813.21
109813.21
109813.21
109813.21
109813.21
109813.21
109813.21
109813.21
109813.21
109813.21
109813.21
109813.21
109813.21
109813.21
109813.21
109813.21
109813.21
109813.21
109813.21
109813.21
109813.21
109813.22
109813.22
109813.22
109813.22
109813.22
109813.22
109813.22
109813.22
109813.22
109813.22
109813.22
109813.22
109813.22
109813.22
109813.22
109813.22
109813.22
109813.22
109813.22
109813.22
109813.22
109813.22
109813.22
109813.22
109813.22
109813.22
109813.22
109813.22
109813.22
109813.22
109813.22
109813.22
109813.22
109813.22
109813.22
109813.22
109813.22
109813.22
109813.22
109813.22
109813.22
109813.22
109813.22
109813.22
109813.22
109813.22
109813.22
109813.22
109813.22
109813.22
109813.22
109813.22
109813.22
109813.22
109813.22
109813.22
109813.22
109813.22
109813.22
109813.22
109813.22
109813.22
109813.22
109813.22
109813.22
109813.22
109813.22
109813.22
109813.22
109813.22
109813.22
109813.22
109813.22
109813.22
109813.22
109813.22
109813.22
109813.22
109813.22
109813.22
109813.22
109813.22
109813.22
109813.22
109813.22
109813.22
109813.22
109813.22
109813.22
109813.22
109813.22
109813.22
109813.22
109813.22
109813.22
109813.22
109813.22
109813.22
109813.22
109813.22
109813.22
109813.22
109813.22
109813.22
109813.22
109813.22
109813.22
109813.22
109813.22
109813.22
109813.22
109813.22
109813.22
109813.22
109813.22
109813.22
109813.22
109813.22
109813.22
109813.22
109813.22
109813.21
109813.21
109813.21
109813.21
109813.21
109813.21
109813.21
109813.21
109813.21
109813.21
109813.21
109813.21
109813.21
109813.21
109813.21
109813.21
109813.21
109813.21
109813.21
109813.21
109813.21
109813.21
109813.21
109813.21
109813.21
109813.21
109813.21
109813.21
109813.21
109813.21
109813.21
109813.21
109813.21
109813.21
109813.21
109813.2
109813.2
109813.2
109813.2
109813.2
109813.2
109813.2
109813.2
109813.2
109813.2
109813.2
109813.2
109813.2
109813.2
109813.19
109813.19
109813.19
109813.19
109813.19
109813.19
109813.19
109813.19
109813.19
109813.19
109813.18
109813.18
109813.18
109813.18
109813.18
109813.18
109813.18
109813.17
109813.17
109813.17
109813.17
109813.17
109813.16
109813.16
109813.16
109813.16
109813.16
109813.15
109813.15
109813.15
109813.15
109813.14
109813.14
109813.14
109813.13
109813.13
109813.13
109813.12
109813.12
109813.12
109813.11
109813.11
109813.1
109813.1
109813.1
109813.09
109813.09
109813.08
109813.08
109813.07
109813.06
109813.06
109813.05
109813.05
109813.04
109813.03
109813.03
109813.02
109813.01
109813.01
109813
109812.99
109812.98
109812.97
109812.96
109812.96
109812.95
109812.94
109812.93
109812.92
109812.91
109812.89
109812.88
109812.87
109812.86
109812.85
109812.83
109812.82
109812.81
109812.79
109812.78
109812.76
109812.75
109812.73
109812.71
109812.7
109812.68
109812.66
109812.64
109812.62
109812.6
109812.58
109812.56
109812.54
109812.52
109812.49
109812.47
109812.45
109812.42
109812.39
109812.37
109812.34
109812.31
109812.28
109812.25
109812.22
109812.19
109812.16
109812.12
109812.09
109812.05
109812.01
109811.98
109811.94
109811.9
109811.86
109811.81
109811.77
109811.73
109811.68
109811.63
109811.59
109811.54
109811.48
109811.43
109811.38
109811.32
109811.27
109811.21
109811.15
109811.09
109811.02
109810.96
109810.89
109810.83
109810.76
109810.69
109810.61
109810.54
109810.46
109810.38
109810.3
109810.22
109810.14
109810.05
109809.96
109809.87
109809.78
109809.68
109809.59
109809.49
109809.39
109809.28
109809.18
109809.07
109808.96
109808.84
109808.73
109808.61
109808.49
109808.36
109808.24
109808.11
109807.98
109807.84
109807.71
109807.57
109807.42
109807.28
109807.13
109806.98
109806.82
109806.67
109806.51
109806.34
109806.17
109806
109805.83
109805.65
109805.47
109805.29
109805.1
109804.91
109804.72
109804.52
109804.32
109804.12
109803.91
109803.7
109803.48
109803.26
109803.04
109802.81
109802.58
109802.35
109802.11
109801.87
109801.62
109801.37
109801.12
109800.86
109800.6
109800.33
109800.06
109799.78
109799.5
109799.22
109798.93
109798.64
109798.34
109798.04
109797.74
109797.43
109797.11
109796.79
109796.47
109796.14
109795.81
109795.47
109795.13
109794.78
109794.43
109794.07
109793.71
109793.35
109792.97
109792.6
109792.22
109791.83
109791.44
109791.05
109790.65
109790.24
109789.83
109789.42
109789
109788.57
109788.14
109787.7
109787.26
109786.82
109786.37
109785.91
109785.45
109784.98
109784.51
109784.04
109783.55
109783.07
109782.57
109782.08
109781.57
109781.07
109780.55
109780.04
109779.51
109778.98
109778.45
109777.91
109777.36
109776.82
109776.26
109775.7
109775.13
109774.56
109773.99
109773.41
109772.82
109772.23
109771.63
109771.03
109770.42
109769.81
109769.19
109768.57
109767.94
109767.31
109766.67
109766.03
109765.38
109764.73
109764.07
109763.4
109762.73
109762.06
109761.38
109760.7
109760.01
109759.32
109758.62
109757.92
109757.21
109756.5
109755.78
109755.06
109754.33
109753.6
109752.86
109752.12
109751.38
109750.63
109749.87
109749.11
109748.35
109747.58
109746.81
109746.03
109745.25
109744.46
109743.67
109742.88
109742.08
109741.28
109740.47
109739.66
109738.85
109738.03
109737.2
109736.38
109735.55
109734.71
109733.87
109733.03
109732.19
109731.34
109730.48
109729.63
109728.77
109727.9
109727.04
109726.17
109725.29
109724.42
109723.54
109722.65
109721.77
109720.88
109719.98
109719.09
109718.19
109717.29
109716.38
109715.48
109714.57
109713.65
109712.74
109711.82
109710.9
109709.98
109709.05
109708.12
109707.19
109706.26
109705.33
109704.39
109703.45
109702.51
109701.57
109700.62
109699.68
109698.73
109697.78
109696.83
109695.87
109694.92
109693.96
109693
109692.04
109691.08
109690.12
109689.16
109688.19
109687.23
109686.26
109685.29
109684.32
109683.35
109682.38
109681.41
109680.44
109679.46
109678.49
109677.51
109676.54
109675.56
109674.59
109673.61
109672.64
109671.66
109670.68
109669.7
109668.73
109667.75
109666.77
109665.8
109664.82
109663.84
109662.87
109661.89
109660.91
109659.94
109658.96
109657.99
109657.01
109656.04
109655.07
109654.1
109653.13
109652.15
109651.19
109650.22
109649.25
109648.28
109647.32
109646.35
109645.39
109644.43
109643.47
109642.51
109641.55
109640.59
109639.64
109638.69
109637.73
109636.78
109635.83
109634.89
109633.94
109633
109632.06
109631.12
109630.18
109629.24
109628.31
109627.38
109626.45
109625.52
109624.6
109623.67
109622.75
109621.83
109620.92
109620
109619.09
109618.18
109617.28
109616.37
109615.47
109614.57
109613.68
109612.78
109611.89
109611
109610.12
109609.23
109608.35
109607.48
109606.6
109605.73
109604.86
109604
109603.14
109602.28
109601.42
109600.57
109599.72
109598.87
109598.03
109597.18
109596.35
109595.51
109594.68
109593.85
109593.03
109592.21
109591.39
109590.57
109589.76
109588.95
109588.15
109587.35
109586.55
109585.75
109584.96
109584.17
109583.39
109582.61
109581.83
109581.06
109580.29
109579.52
109578.76
109578
109577.24
109576.49
109575.74
109574.99
109574.25
109573.51
109572.78
109572.05
109571.32
109570.59
109569.87
109569.16
109568.44
109567.73
109567.03
109566.32
109565.63
109564.93
109564.24
109563.55
109562.86
109562.18
109561.51
109560.83
109560.16
109559.5
109558.83
109558.17
109557.52
109556.86
109556.22
109555.57
109554.93
109554.29
109553.66
109553.03
109552.4
109551.77
109551.15
109550.54
109549.92
109549.31
109548.71
109548.1
109547.5
109546.91
109546.32
109545.73
109545.14
109544.56
109543.98
109543.4
109542.83
109542.26
109541.7
109541.14
109540.58
109540.02
109539.47
109538.92
109538.38
109537.84
109537.3
109536.76
109536.23
109535.7
109535.17
109534.65
109534.13
109533.62
109533.1
109532.59
109532.09
109531.58
109531.08
109530.59
109530.09
109529.6
109529.11
109528.63
109528.15
109527.67
109527.19
109526.72
109526.25
109525.79
109525.32
109524.86
109524.4
109523.95
109523.5
109523.05
109522.6
109522.16
109521.72
109521.28
109520.85
109520.42
109519.99
109519.56
109519.14
109518.72
109518.31
109517.89
109517.48
109517.07
109516.67
109516.26
109515.86
109515.46
109515.07
109514.68
109514.29
109513.9
109513.52
109513.14
109512.76
109512.38
109512.01
109511.64
109511.27
109510.9
109510.54
109510.18
109509.82
109509.47
109509.12
109508.77
109508.42
109508.08
109507.73
109507.4
109507.06
109506.72
109506.39
109506.06
109505.74
109505.41
109505.09
109504.77
109504.46
109504.14
109503.83
109503.52
109503.21
109502.91
109502.61
109502.31
109502.01
109501.72
109501.43
109501.14
109500.85
109500.56
109500.28
109500
109499.72
109499.45
109499.18
109498.91
109498.64
109498.37
109498.11
109497.85
109497.59
109497.33
109497.08
109496.83
109496.58
109496.33
109496.08
109495.84
109495.6
109495.36
109495.13
109494.89
109494.66
109494.43
109494.21
109493.98
109493.76
109493.54
109493.32
109493.1
109492.89
109492.68
109492.47
109492.26
109492.06
109491.85
109491.65
109491.45
109491.26
109491.06
109490.87
109490.68
109490.49
109490.31
109490.12
109489.94
109489.76
109489.58
109489.41
109489.23
109489.06
109488.89
109488.72
109488.56
109488.39
109488.23
109488.07
109487.91
109487.75
109487.6
109487.45
109487.3
109487.15
109487
109486.85
109486.71
109486.57
109486.43
109486.29
109486.15
109486.02
109485.89
109485.76
109485.63
109485.5
109485.37
109485.25
109485.13
109485.01
109484.89
109484.77
109484.65
109484.54
109484.43
109484.32
109484.21
109484.1
109483.99
109483.89
109483.78
109483.68
109483.58
109483.48
109483.39
109483.29
109483.2
109483.1
109483.01
109482.92
109482.83
109482.74
109482.66
109482.57
109482.49
109482.41
109482.33
109482.25
109482.17
109482.09
109482.02
109481.94
109481.87
109481.8
109481.73
109481.66
109481.59
109481.52
109481.46
109481.39
109481.33
109481.26
109481.2
109481.14
109481.08
109481.02
109480.97
109480.91
109480.85
109480.8
109480.75
109480.69
109480.64
109480.59
109480.54
109480.49
109480.45
109480.4
109480.35
109480.31
109480.26
109480.22
109480.18
109480.14
109480.1
109480.06
109480.02
109479.98
109479.94
109479.9
109479.87
109479.83
109479.8
109479.76
109479.73
109479.7
109479.66
109479.63
109479.6
109479.57
109479.54
109479.51
109479.48
109479.46
109479.43
109479.4
109479.38
109479.35
109479.33
109479.3
109479.28
109479.26
109479.23
109479.21
109479.19
109479.17
109479.15
109479.13
109479.11
109479.09
109479.07
109479.05
109479.03
109479.02
109479
109478.98
109478.97
109478.95
109478.93
109478.92
109478.91
109478.89
109478.88
109478.86
109478.85
109478.84
109478.82
109478.81
109478.8
109478.79
109478.78
109478.77
109478.75
109478.74
109478.73
109478.72
109478.71
109478.7
109478.69
109478.69
109478.68
109478.67
109478.66
109478.65
109478.64
109478.64
109478.63
109478.62
109478.62
109478.61
109478.6
109478.6
109478.59
109478.58
109478.58
109478.57
109478.57
109478.56
109478.56
109478.55
109478.55
109478.54
109478.54
109478.53
109478.53
109478.52
109478.52
109478.52
109478.51
109478.51
109478.51
109478.5
109478.5
109478.5
109478.49
109478.49
109478.49
109478.48
109478.48
109478.48
109478.48
109478.47
109478.47
109478.47
109478.47
109478.46
109478.46
109478.46
109478.46
109478.46
109478.45
109478.45
109478.45
109478.45
109478.45
109478.45
109478.45
109478.44
109478.44
109478.44
109478.44
109478.44
109478.44
109478.44
109478.44
109478.44
109478.43
109478.43
109478.43
109478.43
109478.43
109478.43
109478.43
109478.43
109478.43
109478.43
109478.43
109478.43
109478.43
109478.43
109478.43
109478.43
109478.42
109478.42
109478.42
109478.42
109478.42
109478.42
109478.42
109478.42
109478.42
109478.42
109478.42
109478.42
109478.42
109478.42
109478.42
109478.42
109478.42
109478.42
109478.42
109478.42
109478.42
109478.42
109478.42
109478.42
109478.42
109478.42
109478.42
109478.42
109478.42
109478.42
109478.42
109478.42
109478.42
109478.42
109478.42
109478.42
109478.42
109478.42
109478.42
109478.42
109478.42
109478.42
109478.42
109478.42
109478.42
109478.42
109478.42
109478.42
109478.42
109478.42
109478.42
109478.42
109478.42
109478.42
109478.42
109478.42
109478.42
109478.42
109478.42
109478.42
109478.42
109478.42
109478.42
109478.42
109478.42
109478.42
109478.42
109478.42
109478.42
109478.42
109478.42
109478.42
109478.42
109478.42
109478.42
109478.42
109478.42
109478.42
109478.42
109478.42
109478.42
109478.42
109478.42
109478.42
109478.42
109478.42
109478.42
109478.42
109478.42
109478.42
109478.42
109478.42
109478.42
109478.42
109478.42
109478.42
109478.42
109478.42
109478.42
109478.42
109478.42
109478.42
109478.42
109478.42
109478.42
109478.42
109478.42
109478.42
109478.42
109478.42
109478.42
109478.42
109478.42
109478.42
109478.42
109478.42
109478.42
109478.42
109478.42
109478.42
109478.42
109478.42
109478.42
109478.42
109478.42
109478.42
109478.42
109478.42
109478.42
109478.42
109478.42
109478.42
109478.42
109478.42
109478.42
109478.42
109478.42
109478.42
109478.42
109478.42
109478.42
109478.42
109478.42
109478.42
109478.42
109478.42
109478.42
109478.42
109478.42
109478.42
109478.42
109478.42
109478.42
109478.42
109478.42
109478.42
109478.42
109478.42
109478.42
109478.42
109478.42
109478.42
109478.42
109478.42
109478.42
109478.42
109478.42
109478.42
109478.42
109478.42
109478.42
109478.42
109478.42
109478.42
109478.42
109478.42
109478.42
109478.42
109478.42
109478.42
109478.42
109478.42
109478.42
109478.42
109478.42
109478.42
109478.42
109478.42
109478.42
109478.42
109478.42
109478.42
109478.42
109478.42
109478.42
109478.42
109478.42
109478.42
109478.42
109478.42
109478.42
109478.42
109478.42
109478.42
109478.42
109478.42
109478.42
109478.42
109478.42
109478.42
109478.42
109478.42
109478.42
109478.42
109478.42
109478.42
109478.42
109478.42
109478.42
109478.42
109478.42
109478.42
109478.42
109478.42
109478.42
109478.42
109478.42
109478.42
109478.42
109478.42
109478.42
109478.42
109478.42
109478.42
109478.42
109478.42
109478.42
109478.42
109478.42
109478.42
109478.42
109478.42
109478.42
109478.42
109478.42
109478.42
109478.42
109478.42
109478.42
109478.42
109478.42
109478.42
109478.42
109478.42
109478.42
109478.42
109478.42
109478.42
109478.42
109478.42
109478.42
109478.42
109478.42
109478.42
109478.42
109478.42
109478.42
109478.42
109478.42
109478.42
109478.42
109478.42
109478.42
109478.42
109478.42
109478.42
109478.42
109478.42
109478.42
109478.42
109478.42
109478.42
109478.42
109478.42
109478.42
109478.42
109478.42
109478.42
109478.42
109478.42
109478.42
109478.42
109478.42
109478.42
109478.42
109478.42
109478.42
109478.42
109478.42
109478.43
109478.43
109478.43
109478.43
109478.43
109478.43
109478.43
109478.43
109478.43
109478.43
109478.43
109478.43
109478.43
109478.43
109478.43
109478.43
109478.43
109478.43
109478.43
109478.43
109478.43
109478.43
109478.43
109478.43
109478.43
109478.43
109478.43
109478.43
109478.43
109478.43
109478.43
109478.43
109478.43
109478.43
109478.43
109478.43
109478.43
109478.43
109478.43
109478.43
109478.43
109478.43
109478.43
109478.43
109478.43
109478.43
109478.43
109478.43
109478.43
109478.43
109478.43
109478.43
109478.43
109478.43
109478.43
109478.43
109478.43
109478.43
109478.43
109478.43
109478.43
109478.43
109478.43
109478.43
109478.43
109478.43
109478.43
109478.43
109478.43
109478.43
109478.43
109478.43
109478.43
109478.43
109478.43
109478.43
109478.43
109478.43
109478.43
109478.43
109478.43
109478.43
109478.43
109478.43
109478.43
109478.43
109478.43
109478.43
109478.43
109478.43
109478.43
109478.43
109478.43
109478.43
109478.43
109478.43
109478.43
109478.43
109478.43
109478.43
109478.43
109478.43
109478.43
109478.43
109478.43
109478.43
109478.43
109478.43
109478.43
109478.43
109478.43
109478.43
109478.43
109478.43
109478.43
109478.43
109478.43
109478.43
109478.43
109478.43
109478.43
109478.43
109478.43
109478.43
109478.43
109478.43
109478.43
109478.43
109478.43
109478.43
109478.43
109478.43
109478.43
109478.43
109478.43
109478.43
109478.43
109478.43
109478.43
109478.43
109478.43
109478.43
109478.43
109478.43
109478.43
109478.43
109478.43
109478.43
109478.43
109478.43
109478.43
109478.43
109478.43
109478.43
109478.43
109478.43
109478.43
109478.43
109478.43
109478.43
109478.43
109478.43
109478.43
109478.43
109478.43
109478.43
109478.43
109478.43
109478.43
109478.43
109478.43
109478.43
109478.43
109478.43
109478.43
109478.43
109478.43
109478.43
109478.43
109478.43
109478.43
109478.43
109478.43
109478.43
109478.43
109478.43
109478.43
109478.43
109478.43
109478.43
109478.43
109478.43
109478.43
109478.43
109478.43
109478.43
109478.43
109478.43
109478.43
109478.43
109478.43
109478.43
109478.43
109478.43
109478.43
109478.43
109478.43
109478.43
109478.43
109478.43
109478.43
109478.43
109478.43
109478.43
109478.43
109478.43
109478.43
109478.43
109478.43
109478.43
109478.43
109478.43
109478.43
109478.43
109478.43
109478.43
109478.43
109478.43
109478.43
109478.43
109478.43
109478.43
109478.43
109478.43
109478.43
109478.43
109478.43
109478.43
109478.43
109478.43
109478.43
109478.43
109478.43
109478.43
109478.43
109478.43
109478.43
109478.43
109478.43
109478.43
109478.43
109478.43
109478.43
109478.43
109478.43
109478.43
109478.43
109478.43
109478.43
109478.43
109478.43
109478.43
109478.43
109478.43
109478.43
109478.43
109478.43
109478.43
109478.43
109478.43
109478.43
109478.43
109478.43
109478.43
109478.43
109478.44
109478.44
109478.44
109478.44
109478.44
109478.44
109478.44
109478.44
109478.44
109478.44
109478.44
109478.44
109478.44
109478.44
109478.44
109478.44
109478.44
109478.44
109478.44
109478.44
109478.44
109478.44
109478.44
109478.44
109478.44
109478.44
109478.44
109478.44
109478.44
109478.44
109478.44
109478.44
109478.44
109478.44
109478.44
109478.44
109478.44
109478.44
109478.44
109478.44
109478.44
109478.44
109478.44
109478.44
109478.44
109478.44
109478.44
109478.44
109478.44
109478.44
109478.44
109478.44
109478.44
109478.44
109478.44
109478.44
109478.44
109478.44
109478.44
109478.44
109478.44
109478.44
109478.44
109478.44
109478.44
109478.44
109478.44
109478.44
109478.44
109478.44
109478.44
109478.44
109478.44
109478.44
109478.44
109478.44
109478.44
109478.44
109478.44
109478.44
109478.44
109478.44
109478.44
109478.44
109478.44
109478.44
109478.44
109478.44
109478.44
109478.44
109478.44
109478.44
109478.44
109478.44
109478.44
109478.44
109478.44
109478.44
109478.44
109478.44
109478.44
109478.44
109478.43
109478.43
109478.43
109478.43
109478.43
109478.43
109478.43
109478.43
109478.43
109478.43
109478.43
109478.43
109478.43
109478.43
109478.43
109478.43
109478.43
109478.43
109478.43
109478.43
109478.43
109478.43
109478.43
109478.43
109478.43
109478.43
109478.43
109478.43
109478.43
109478.43
109478.43
109478.43
109478.43
109478.43
109478.43
109478.43
109478.43
109478.43
109478.43
109478.43
109478.43
109478.43
109478.43
109478.43
109478.43
109478.43
109478.43
109478.43
109478.43
109478.43
109478.43
109478.43
109478.44
109478.44
109478.44
109478.44
109478.44
109478.44
109478.44
109478.44
109478.44
109478.44
109478.44
109478.44
109478.44
109478.44
109478.44
109478.44
109478.44
109478.44
109478.44
109478.44
109478.44
109478.44
109478.44
109478.44
109478.44
109478.44
109478.44
109478.44
109478.44
109478.44
109478.44
109478.44
109478.44
109478.44
109478.44
109478.44
109478.44
109478.44
109478.44
109478.44
109478.44
109478.44
109478.44
109478.44
109478.44
109478.44
109478.44
109478.44
109478.44
109478.44
109478.44
109478.44
109478.44
109478.44
109478.44
109478.44
109478.44
109478.44
109478.44
109478.44
109478.44
109478.44
109478.44
109478.44
109478.44
109478.44
109478.44
109478.44
109478.44
109478.44
109478.44
109478.44
109478.44
109478.44
109478.44
109478.44
109478.44
109478.44
109478.44
109478.44
109478.44
109478.44
109478.44
109478.44
109478.44
109478.44
109478.44
109478.44
109478.44
109478.44
109478.44
109478.44
109478.44
109478.44
109478.44
109478.44
109478.44
109478.44
109478.44
109478.44
109478.44
109478.44
109478.44
109478.44
109478.44
109478.44
109478.44
109478.44
109478.44
109478.44
109478.44
109478.44
109478.44
109478.44
109478.44
109478.44
109478.44
109478.44
109478.44
109478.44
109478.44
109478.44
109478.44
109478.44
109478.44
109478.44
109478.44
109478.44
109478.44
109478.44
109478.44
109478.44
109478.44
109478.44
109478.44
109478.44
109478.44
109478.44
109478.44
109478.44
109478.44
109478.44
109478.44
109478.44
109478.44
109478.44
109478.44
109478.44
109478.44
109478.44
109478.44
109478.44
109478.44
109478.44
109478.44
109478.44
109478.44
109478.44
109478.44
109478.44
109478.44
109478.44
109478.44
109478.44
109478.44
109478.44
109478.44
109478.44
109478.44
109478.44
109478.44
109478.44
109478.44
109478.44
109478.44
109478.44
109478.44
109478.44
109478.44
109478.44
109478.44
109478.44
109478.44
109478.44
109478.44
109478.44
109478.44
109478.44
109478.44
109478.44
109478.44
109478.44
109478.44
109478.44
109478.44
109478.44
109478.44
109478.44
109478.44
109478.44
109478.44
109478.44
109478.44
109478.44
109478.44
109478.44
109478.44
109478.44
109478.44
109478.44
109478.44
109478.44
109478.44
109478.44
109478.44
109478.44
109478.44
109478.44
109478.44
109478.44
109478.44
109478.44
109478.44
109478.44
109478.44
109478.44
109478.44
109478.44
109478.44
109478.44
109478.44
109478.44
109478.44
109478.44
109478.44
109478.44
109478.44
109478.44
109478.44
109478.44
109478.44
109478.44
109478.44
109478.44
109478.44
109478.44
109478.44
109478.44
109478.44
109478.44
109478.44
109478.44
109478.44
109478.44
109478.44
109478.44
109478.44
109478.44
109478.44
109478.44
109478.44
109478.44
109478.44
109478.44
109478.44
109478.44
109478.44
109478.44
109478.44
109478.44
109478.44
109478.44
109478.44
109478.44
109478.44
109478.44
109478.44
109478.44
109478.44
109478.44
109478.44
109478.44
109478.44
109478.44
109478.44
109478.44
109478.44
109478.44
109478.44
109478.44
109478.44
109478.44
109478.44
109478.44
109478.44
109478.44
109478.44
109478.44
109478.44
109478.44
109478.44
109478.44
109478.44
109478.44
109478.44
109478.44
109478.44
109478.44
109478.44
109478.44
109478.44
109478.44
109478.44
109478.44
109478.44
109478.44
109478.44
109478.44
109478.44
109478.44
109478.44
109478.44
109478.44
109478.44
109478.44
109478.44
109478.44
109478.44
109478.44
109478.44
109478.44
109478.44
109478.43
109478.43
109478.43
109478.43
109478.44
109478.44
109478.45
109478.45
109478.46
109478.47
109478.49
109478.39
109478.42
109478.43
109478.43
109478.43
109478.44
109478.44
109478.44
109478.44
109478.44
109478.44
109478.44
109478.44
109478.44
109478.44
109478.44
109478.44
109478.44
109478.44
109478.44
109478.44
109478.44
109478.44
109478.44
109478.44
109478.44
109478.44
109478.44
109478.44
109478.44
109478.44
109478.44
109478.44
109478.44
109478.44
109478.44
109478.44
109478.44
109478.44
109478.44
109478.44
109478.44
109478.44
109478.44
109478.44
109478.44
109478.44
109478.44
109478.44
109478.44
109478.44
109478.44
109478.44
109478.44
109478.44
109478.44
109478.44
109478.44
109478.44
109478.44
109478.44
109478.44
109478.44
109478.44
109478.44
109478.44
109478.44
109478.44
109478.44
109478.44
109478.44
109478.44
109478.44
109478.44
109478.44
109478.44
109478.44
109478.44
109478.44
109478.44
109478.44
109478.44
109478.44
109478.44
109478.44
109478.44
109478.44
109478.44
109478.44
109478.44
109478.44
109478.44
109478.44
109478.44
109478.44
109478.44
109478.44
109478.44
109478.44
109478.44
109478.44
109478.44
109478.44
109478.44
109478.44
109478.44
109478.44
109478.44
109478.44
109478.44
109478.44
109478.44
109478.44
109478.44
109478.44
109478.44
109478.44
109478.44
109478.44
109478.44
109478.44
109478.44
109478.44
109478.44
109478.44
109478.44
109478.44
109478.44
109478.44
109478.44
109478.44
109478.44
109478.44
109478.44
109478.44
109478.44
109478.44
109478.44
109478.44
109478.44
109478.44
109478.44
109478.44
109478.44
109478.44
109478.44
109478.44
109478.44
109478.44
109478.44
109478.44
109478.44
109478.44
109478.44
109478.44
109478.44
109478.44
109478.44
109478.44
109478.44
109478.44
109478.44
109478.44
109478.44
109478.44
109478.44
109478.44
109478.44
109478.44
109478.44
109478.44
109478.44
109478.44
109478.44
109478.44
109478.44
109478.44
109478.44
109478.44
109478.44
109478.44
109478.44
109478.44
109478.44
109478.44
109478.44
109478.44
109478.44
109478.44
109478.44
109478.44
109478.44
109478.44
109478.44
109478.44
109478.44
109478.44
109478.44
109478.44
109478.44
109478.44
109478.44
109478.44
109478.44
109478.44
109478.44
109478.44
109478.44
109478.44
109478.44
109478.44
109478.44
109478.44
109478.44
109478.44
109478.44
109478.44
109478.44
109478.44