/*--------------------------------*- C++ -*----------------------------------*\
  =========                 |
  \\      /  F ield         | OpenFOAM: The Open Source CFD Toolbox
   \\    /   O peration     | Website:  https://openfoam.org
    \\  /    A nd           | Version:  7
     \\/     M anipulation  |
\*---------------------------------------------------------------------------*/
FoamFile
{
    version     2.0;
    format      ascii;
    class       volScalarField;
    location    "0.00093";
    object      Uz;
}
// * * * * * * * * * * * * * * * * * * * * * * * * * * * * * * * * * * * * * //

dimensions      [0 1 -1 0 0 0 0];

internalField   nonuniform List<scalar> 
5000
(
0
0
0
0
0
-3.546529e-28
-4.3199321e-43
3.039882e-28
1.519941e-28
-5.06647e-28
-6.079764e-28
3.039882e-28
-1.2959796e-42
-4.4639299e-43
-3.9072292e-43
1.013294e-28
-8.2360921e-70
-4.4639299e-43
1.0720283e-42
-2.026588e-28
1.0462359e-42
0
0
1.013294e-28
-1.2959796e-42
1.6703738e-42
2.026588e-28
-1.519941e-28
-5.06647e-29
5.06647e-29
-1.7711722e-42
-8.7616514e-56
5.06647e-29
-2.026588e-28
-1.519941e-28
0
0
2.026588e-28
8.4780267e-43
1.013294e-28
-8.4958665e-43
-1.013294e-28
5.06647e-29
-8.5678654e-43
-5.06647e-29
5.06647e-29
-5.2271179e-42
-4.8028406e-55
8.7118631e-42
-3.4559457e-42
-5.9353442e-44
0
0
0
0
0
0
0
0
0
0
0
0
1.013294e-28
-4.2764235e-44
1.013294e-28
-2.6135589e-42
-1.4636499e-56
-3.039882e-28
0
0
-1.519941e-28
-1.519941e-28
0
-2.026588e-28
-5.2487175e-42
5.06647e-29
-1.519941e-28
1.519941e-28
6.079764e-28
-5.06647e-28
2.8799547e-44
-1.519941e-28
4.053176e-28
1.0540634e-41
4.053176e-28
-1.2159528e-27
5.06647e-28
4.053176e-28
-1.519941e-28
-5.06647e-29
5.06647e-29
2.8454478e-55
3.039882e-28
1.0519035e-41
2.026588e-28
1.013294e-28
-1.0670232e-41
3.5279446e-41
7.093058e-28
1.519941e-28
-1.519941e-28
3.5999434e-44
1.013294e-28
0
-1.519941e-28
1.7639723e-42
-2.026588e-28
-5.06647e-29
-2.533235e-28
3.039882e-28
-5.06647e-29
9.119646e-28
3.546529e-28
-6.079764e-28
-3.7409133e-42
-1.519941e-28
-8.6398642e-44
-5.06647e-29
4.559823e-28
-2.1254066e-41
-3.039882e-28
5.06647e-28
3.039882e-28
-2.026588e-28
5.06647e-29
5.06647e-29
-1.013294e-28
2.026588e-28
6.99829e-42
1.519941e-28
7.093058e-28
-3.039882e-28
-2.533235e-28
-1.519941e-28
3.5279446e-42
1.7567724e-42
5.2919169e-42
3.039882e-28
5.06647e-29
5.06647e-29
2.026588e-28
5.06647e-29
-5.06647e-29
3.5135448e-42
-1.013294e-28
-8.8166409e-56
-1.5548811e-55
-8.7818996e-56
1.013294e-28
-1.0540634e-41
2.1167667e-41
5.06647e-29
5.06647e-29
-1.013294e-28
-1.7567724e-42
5.06647e-29
-1.519941e-28
-7.1998869e-45
-3.039882e-28
0
2.533235e-28
1.402538e-41
-5.06647e-28
2.533235e-28
-8.6398642e-44
-1.519941e-28
-5.06647e-29
-5.06647e-29
2.533235e-28
-1.0555034e-40
-2.8108358e-41
-1.013294e-28
1.4486615e-41
0
-1.4054179e-41
-3.1621903e-41
5.06647e-29
1.013294e-28
6.9838903e-42
1.013294e-28
-1.519941e-28
-1.3938981e-41
-1.2959796e-43
-4.2119338e-41
5.06647e-28
-2.026588e-28
-1.519941e-28
1.0454236e-41
-3.4919451e-42
-2.1066869e-41
3.499145e-42
-2.6614592e-56
0
0
0
0
2.026588e-28
6.686399e-56
-5.06647e-29
-2.026588e-28
2.533235e-28
1.519941e-28
-5.06647e-28
-1.0519035e-41
-2.134729e-54
5.06647e-29
-1.519941e-28
2.533235e-28
0
5.06647e-29
-1.402538e-41
2.026588e-28
5.06647e-29
7.0558891e-42
1.013294e-28
-1.013294e-28
-1.519941e-28
-1.519941e-28
5.06647e-29
-1.519941e-28
0
0
0
-6.079764e-28
3.546529e-28
5.06647e-28
-1.013294e-28
1.7603723e-41
-1.519941e-28
2.026588e-28
-4.053176e-28
-9.9509558e-57
1.4399774e-44
-2.026588e-28
-4.053176e-28
7.093058e-28
-5.7599095e-44
1.0555034e-40
-3.039882e-28
-7.7478646e-54
-1.4054179e-41
1.013294e-28
-1.519941e-28
0
-1.519941e-28
4.559823e-28
5.06647e-28
-2.026588e-28
0
-5.06647e-29
3.039882e-28
4.559823e-28
-1.0553594e-40
-5.06647e-28
-5.06647e-28
3.039882e-28
4.053176e-28
0
-6.079764e-28
-4.053176e-28
2.533235e-28
2.026588e-28
2.026588e-28
1.013294e-28
2.026588e-28
-1.013294e-28
-2.026588e-28
2.8108358e-41
-5.06647e-28
1.519941e-28
-1.4054179e-41
-1.519941e-28
2.026588e-28
5.06647e-29
-2.8223557e-41
-2.533235e-28
4.053176e-28
-3.039882e-28
-2.026588e-28
8.4555471e-41
2.026588e-28
2.026588e-28
1.402538e-41
-1.013294e-28
0
0
-1.519941e-28
-5.06647e-29
-4.6113438e-41
-1.519941e-28
-2.6435661e-58
5.06647e-29
-1.1099092e-41
5.06647e-29
0
-1.013294e-28
-2.026588e-28
0
3.039882e-28
2.026588e-28
-7.093058e-28
2.1038069e-41
-1.4399774e-44
1.013294e-28
8.3017224e-42
1.013294e-28
-3.5815047e-42
5.06647e-29
5.7599095e-44
6.079764e-28
-2.026588e-28
5.06647e-29
5.06647e-29
-7.0270896e-42
1.4112198e-42
0
0
1.519941e-28
-2.1102868e-41
-2.8122758e-41
-7.0414894e-42
1.3762939e-41
-1.013294e-28
-7.1998869e-45
-3.039882e-28
0
0
0
0
0
0
0
6.9605471e-42
0
1.519941e-28
0
-5.06647e-29
4.1687421e-54
1.519941e-28
0
0
7.0364898e-42
-4.9240026e-41
4.053176e-28
0
0
-1.013294e-28
-1.519941e-28
1.519941e-28
1.013294e-28
0
-2.533235e-28
2.8799547e-44
5.06647e-29
5.06647e-29
-5.06647e-29
-5.06647e-29
-2.026588e-28
0
-1.013294e-28
1.3753353e-41
-1.013294e-28
5.06647e-29
0
-9.1463815e-43
-5.06647e-29
-1.013294e-28
-1.013294e-28
0
0
0
0
0
0
0
0
1.013294e-28
-7.806133e-56
-2.533235e-28
0
0
0
1.519941e-28
2.1081269e-41
-3.039882e-28
4.053176e-28
-7.7377184e-41
7.9198756e-44
5.6274316e-41
-2.026588e-28
1.519941e-28
-4.053176e-28
2.8151558e-40
5.06647e-28
-5.06647e-28
0
0
4.559823e-28
7.0342895e-41
-5.573117e-28
5.573117e-28
4.559823e-28
0
-2.533235e-28
-4.053176e-28
4.559823e-28
1.2655241e-40
3.9030665e-56
9.1445763e-41
-8.106352e-28
9.119646e-28
-7.806133e-56
1.4068579e-40
1.013294e-27
0
0
-1.5706057e-27
-2.6639581e-43
8.8541329e-40
-2.3305762e-27
0
0
3.0905467e-27
-9.9733553e-40
-3.9011819e-27
0
0
0
5.573117e-27
-8.9278597e-43
-6.8903992e-27
7.4477109e-27
-8.0556873e-27
2.4645213e-39
1.9252586e-26
-1.0538258e-26
-4.9169683e-39
-1.7937438e-39
1.9484982e-39
1.5452733e-26
0
0
-2.1076515e-26
-3.2217046e-39
7.0447509e-39
1.1709199e-55
3.0246826e-26
-3.3185378e-26
-3.6630578e-26
0
4.4230283e-26
6.731815e-39
-5.2995276e-26
0
0
6.9562633e-26
-2.164286e-41
3.9030665e-55
9.1804436e-26
-1.0041743e-25
1.5226141e-38
-1.6706438e-38
3.6587708e-38
1.4429306e-25
-1.5766855e-25
4.7833168e-38
-5.2404125e-38
5.7372875e-38
2.257619e-25
-2.4693975e-25
7.50418e-38
-4.1093858e-38
0
3.5232232e-25
-3.8484906e-25
5.83635e-38
-6.5266975e-41
6.9660569e-38
-7.6125541e-38
-5.9789412e-25
6.5246e-25
7.1204169e-25
-7.7724716e-25
-8.4777242e-25
0
1.0079235e-24
1.0990187e-24
0
-1.305832e-24
1.9761429e-37
-2.2037414e-40
-2.3430425e-37
1.8400912e-24
-2.0038395e-24
-3.0262161e-37
6.5959126e-37
2.5854196e-24
2.8136134e-24
-6.1233356e-24
4.7335656e-40
-5.0252826e-37
-3.9405484e-24
4.285271e-24
-6.4686623e-37
-5.0643421e-24
0
0
0
7.0591126e-24
7.6670383e-24
-8.3259328e-24
-9.0397477e-24
0
1.0650531e-23
1.1557885e-23
-1.254002e-23
-1.360332e-23
0
1.5999963e-23
1.7347695e-23
-1.8805673e-23
-5.65993e-36
2.2088644e-23
0
0
0
0
-3.2925671e-23
9.8874664e-36
3.857975e-23
-4.1749841e-23
-6.2717655e-36
6.7917066e-36
1.9930521e-52
-5.7158242e-23
-6.1801003e-23
1.3361771e-22
1.00256e-35
-1.0823053e-35
8.4311887e-23
0
-9.8373824e-23
-1.0623293e-22
1.1469966e-22
3.434691e-35
-1.3363965e-22
0
0
1.678485e-22
-2.5108831e-35
-1.9521722e-22
0
2.2688646e-22
-3.4750211e-38
7.3169877e-35
3.937584e-35
-3.0581152e-22
3.2935971e-22
-5.0399842e-38
1.060263e-34
4.110079e-22
-4.4233693e-22
-1.3216682e-34
-7.2768523e-38
7.6472476e-35
5.9235034e-22
-6.3692444e-22
0
4.0863231e-34
1.0970111e-34
3.5361029e-34
1.2973793e-37
9.8057423e-22
-1.0530152e-21
1.5453977e-50
1.6850726e-34
-3.6171251e-34
1.9407446e-34
-2.9994276e-21
1.6087297e-21
1.7253514e-21
2.5686591e-34
-2.75385e-34
-4.2521517e-21
2.2785124e-21
2.4414247e-21
8.6585434e-51
0
9.8778858e-51
3.2121965e-21
-3.4386589e-21
1.2018547e-50
5.4624709e-34
5.9880059e-37
4.5073711e-21
-9.6412408e-21
-1.4313491e-33
5.5108271e-21
-8.1699772e-34
8.7311773e-34
-6.7262434e-21
7.1855517e-21
-9.7186148e-50
3.4148543e-33
-2.4310568e-33
2.5924361e-33
2.7682487e-33
3.3189544e-50
0
-1.2105615e-20
0
0
1.467455e-20
4.343122e-33
-1.6667335e-20
0
0
4.0292129e-20
1.7858018e-32
-4.5675473e-20
2.4308502e-20
-3.6762006e-36
3.8214672e-33
2.927974e-20
0
0
0
3.7421998e-20
1.1032006e-32
-4.2256818e-20
0
0
5.0630415e-20
-7.6389232e-36
-5.7059328e-20
0
0
6.8164022e-20
2.0055147e-32
2.1299878e-32
-2.2571105e-32
-8.6162729e-20
9.1315433e-20
-2.685373e-32
2.8448261e-32
-3.0116009e-32
-1.1496733e-19
0
0
1.3635836e-19
-9.7887682e-48
-1.5263322e-19
0
0
1.8048504e-19
-8.1350192e-48
-2.0161775e-19
0
0
2.3768233e-19
-1.0505156e-47
-2.6497128e-19
0
0
3.1141103e-19
-4.6682495e-35
-3.4645295e-19
3.6531296e-19
-1.0699492e-31
1.1277282e-31
-1.1877733e-31
-4.5066108e-19
0
0
0
0
0
6.1364775e-19
-1.7917148e-31
-6.790202e-19
0
0
0
0
0
0
0
1.0094383e-18
-5.8822485e-31
-1.1122689e-18
0
0
0
0
0
0
0
1.6256371e-18
-4.7263816e-31
-1.7835922e-18
0
0
2.0464491e-18
-5.9495193e-31
-2.2404475e-18
0
0
0
2.6783713e-18
7.7765201e-31
-2.9246311e-18
0
0
0
0
0
0
0
4.121609e-18
-6.1077541e-34
-4.4808458e-18
0
0
0
0
0
0
0
6.2041969e-18
9.1735429e-34
-6.7150832e-18
0
0
0
7.8454805e-18
-4.5261855e-30
-8.4687759e-18
0
9.1333964e-18
2.6342617e-30
-9.8413356e-18
0
0
1.0988907e-17
1.1395303e-17
-1.1814067e-17
-1.2245461e-17
0
0
0
0
-1.4601076e-17
2.1477961e-33
3.1281875e-17
1.6182838e-17
-3.3479465e-17
-3.4623765e-17
1.7899546e-17
1.850298e-17
0
0
0
0
2.1765552e-17
6.2423535e-30
-2.3189705e-17
0
0
0
0
0
0
0
0
0
0
0
0
0
0
3.624914e-17
-2.0702823e-29
-3.8327942e-17
0
0
-4.1602602e-17
1.1867022e-29
-6.2373198e-33
4.5067468e-17
4.6265066e-17
2.6364025e-29
-1.3536769e-29
-4.9986566e-17
0
0
0
0
0
5.8010536e-17
-3.2992752e-29
-6.0856931e-17
0
0
0
0
0
0
0
7.3086409e-17
-4.1468642e-29
-7.6349817e-17
0
0
0
0
0
0
0
9.0183552e-17
-7.6610709e-29
-9.3827313e-17
0
0
0
0
0
0
0
0
1.1104741e-16
-1.6063505e-32
-1.1504015e-16
0
0
0
0
1.2524939e-16
-1.2732679e-16
-1.2941501e-16
2.6302718e-16
3.710419e-29
-1.3573999e-16
0
0
0
0
1.464544e-16
-4.1247381e-29
-3.0157874e-16
1.5296543e-16
1.5514653e-16
-1.5733218e-16
0
0
0
1.661102e-16
4.6688784e-29
-1.7051336e-16
-1.7271671e-16
1.7492056e-16
1.771244e-16
-1.7932774e-16
0
0
1.859297e-16
1.88126e-16
-1.9031929e-16
-1.9250909e-16
-1.9469491e-16
-1.0933724e-28
1.9905264e-16
0
0
0
2.0769911e-16
2.098436e-16
-2.1198032e-16
-2.1410882e-16
-2.1622863e-16
-6.0597455e-29
2.2044044e-16
0
0
0
2.2874064e-16
-6.4052302e-29
-2.3282228e-16
0
0
0
0
0
0
0
2.4861788e-16
-6.9530583e-29
-5.0483795e-16
-7.061277e-29
2.5615526e-16
0
0
2.6163234e-16
-3.743463e-32
7.3639401e-29
-7.4088478e-29
-2.6868408e-16
-2.7040017e-16
7.5555906e-29
2.7377412e-16
0
0
2.7868535e-16
-2.3340609e-28
-7.8225929e-29
4.027508e-32
-2.8494331e-16
2.864543e-16
2.8794341e-16
-5.7882086e-16
1.6136403e-28
2.9227727e-16
-2.9367666e-16
0
2.9640635e-16
8.2717739e-29
-2.9904256e-16
0
3.0158373e-16
-3.0281821e-16
3.3760411e-28
3.0521404e-16
-3.0637505e-16
0
3.0862238e-16
0
-3.1076905e-16
0
3.1281378e-16
-3.1379753e-16
1.7462367e-28
3.1568705e-16
-3.1659254e-16
0
3.1832424e-16
8.8621657e-29
-3.1994935e-16
0
3.2146679e-16
-3.2218481e-16
9.1766743e-32
3.2353881e-16
-3.2417455e-16
0
3.2536288e-16
3.2591525e-16
-3.2643958e-16
-3.2693578e-16
3.2740372e-16
-3.278433e-16
-3.282544e-16
3.2863691e-16
0
0
0
0
0
0
3.3050518e-16
-1.8468177e-48
-6.6155151e-16
3.3086667e-16
3.3092789e-16
-3.3095932e-16
0
0
3.3086948e-16
3.3077792e-16
-3.3065603e-16
-3.3050375e-16
0
3.301077e-16
9.164348e-29
-3.2958912e-16
0
0
3.2858015e-16
3.2818191e-16
-3.277526e-16
-3.2729215e-16
0
3.2627759e-16
-9.0446896e-29
-3.2513776e-16
3.2452074e-16
1.7986576e-28
4.592838e-32
3.2248068e-16
-3.2173753e-16
-3.2096276e-16
0
0
3.1844845e-16
-8.8131342e-29
-3.1661373e-16
0
3.1465212e-16
3.1362375e-16
-3.1256367e-16
-3.1147191e-16
0
0
0
0
0
0
3.029455e-16
-8.3705957e-29
-3.002269e-16
0
0
0
0
0
0
2.8973849e-16
8.2238859e-47
-2.8646813e-16
-2.8478817e-16
-7.8524843e-29
2.8133968e-16
0
0
0
0
2.7221254e-16
7.50192e-29
-2.6836482e-16
2.6639997e-16
2.6440822e-16
-2.6238993e-16
1.445115e-28
2.150802e-28
2.1326217e-28
-7.0583147e-29
1.3990266e-28
-6.9313414e-29
-2.4755068e-16
0
2.4309507e-16
-2.0052145e-28
3.390006e-32
2.3624609e-16
-2.3392106e-16
-2.3157594e-16
2.2921131e-16
-6.2953321e-29
1.8679636e-28
1.2326196e-28
1.2181553e-28
-6.0227329e-29
1.1914609e-28
2.121646e-16
-2.0966664e-16
-2.0715509e-16
2.0463068e-16
-5.6060087e-29
2.215267e-28
5.4671604e-29
-5.3986444e-29
-5.3216265e-29
-5.2525966e-29
1.8666402e-16
0
-1.8145958e-16
4.9637574e-29
5.090848e-46
-1.7361867e-16
0
1.6837867e-16
-1.6575749e-16
-1.6313671e-16
1.6051722e-16
0
0
0
0
1.4747072e-16
-4.0209128e-29
7.9003505e-29
-1.3971606e-16
-1.3714879e-16
1.345918e-16
0
0
0
0
1.2199186e-16
1.6984087e-32
-1.1705421e-16
0
0
0
0
0
0
0
9.8050322e-17
9.5771206e-17
-9.3515823e-17
-9.1284815e-17
0
0
0
0
0
0
7.6399201e-17
7.4383448e-17
-7.2396768e-17
-7.0439551e-17
0
0
0
0
0
0
5.759141e-17
5.5880811e-17
-5.420199e-17
-5.255506e-17
0
0
0
0
0
0
4.1923871e-17
-2.2504732e-29
-3.9174173e-17
0
0
0
0
0
0
3.053636e-17
-8.1706411e-30
-2.8342688e-17
0
0
0
0
2.3367031e-17
3.1912108e-33
-2.1572429e-17
2.0715443e-17
3.9385143e-47
-1.9079941e-17
1.8300532e-17
-9.7443922e-30
-1.6816103e-17
1.6110146e-17
8.5657492e-30
8.1996522e-30
4.8213212e-46
7.502844e-30
3.5849598e-30
-1.2351537e-17
1.1800038e-17
1.1268625e-17
-2.1513603e-17
5.6944221e-30
1.9579874e-17
0
-8.8954996e-18
2.3531211e-30
2.2419073e-30
6.3943002e-30
6.0850062e-30
3.8562188e-30
-5.5018667e-30
3.4846715e-30
-1.6571464e-30
-5.6635122e-18
0
5.09945e-18
6.8720722e-34
3.8159083e-30
3.6161677e-30
-5.8454313e-34
-2.1614976e-30
1.0232146e-30
3.4854182e-18
0
-3.1142727e-18
1.6329646e-30
3.9474996e-34
-2.6217349e-18
0
2.3323125e-18
-2.1983454e-18
-2.0711479e-18
1.9504341e-18
0
0
1.6244658e-18
-1.6954259e-30
7.9597765e-31
-7.481071e-31
3.5139449e-31
-1.1867316e-18
-1.1129458e-18
1.0432528e-18
0
0
0
0
7.4964048e-19
1.9456067e-31
7.2665737e-31
-6.1116959e-19
-5.7035984e-19
5.3198468e-19
0
0
0
0
3.7209673e-19
3.4566982e-19
-3.2082676e-19
-2.9746387e-19
0
0
0
0
0
0
1.6731195e-19
1.5247736e-19
-1.3837591e-19
-1.2495622e-19
0
0
0
0
0
0
5.0053458e-20
-3.699824e-32
-8.3236024e-20
4.4856995e-20
1.4922799e-19
4.6096475e-20
0
-1.2543066e-19
8.3254307e-32
2.2461053e-31
6.3830813e-20
1.555348e-19
-1.7860029e-19
8.4325265e-20
7.4460699e-20
-7.5643513e-20
8.3931512e-20
-1.2397168e-35
-8.1352718e-20
-7.7695182e-20
8.286437e-20
8.7260229e-20
-8.3924713e-20
7.7887493e-20
1.1038156e-35
-8.0875002e-20
0
0
0
-1.5082967e-19
7.5946974e-20
1.4876518e-19
-7.2282903e-20
7.2608498e-20
7.4180018e-20
-1.4685996e-19
-1.7545187e-48
6.7475559e-20
-6.7502714e-20
-1.3276833e-19
-6.2268088e-20
1.7335807e-19
-5.5265925e-20
-1.5296236e-47
1.4788222e-19
-8.9665502e-20
-4.0547212e-20
-3.7663652e-20
-7.4870912e-20
7.4509418e-20
3.3493231e-20
3.1457993e-20
-3.7111777e-20
-4.2726174e-20
1.167451e-19
-3.6233117e-20
-4.4152333e-20
5.0864786e-20
4.5628434e-20
5.8758801e-36
-1.4492758e-19
5.5936198e-20
-8.8726242e-32
7.7378148e-32
1.4176314e-19
-5.2785301e-20
-5.3031899e-20
-9.4702962e-20
4.5509395e-20
9.9409191e-20
-1.0310343e-19
4.727841e-20
-4.4532279e-20
-5.0322962e-20
1.7065205e-19
-5.3686244e-20
-4.3923085e-20
8.3378677e-20
5.0166327e-20
-5.7314859e-20
-1.5581769e-19
3.9783826e-20
1.4269656e-19
-2.248735e-32
-8.7452168e-20
-3.9134296e-20
0
-6.3269592e-20
-7.3318081e-32
9.9665302e-20
-3.1839784e-20
6.9017191e-32
-3.291904e-20
-3.61313e-20
7.3377904e-20
0
0
0
4.1816968e-20
-2.7260981e-32
-1.0698325e-19
5.5765958e-20
1.108861e-19
-1.6938285e-19
1.8794035e-31
1.0416657e-19
-4.8592357e-20
0
0
0
-9.0164202e-20
3.9437552e-20
7.1909561e-20
-1.0046049e-19
6.3165406e-36
1.5187366e-20
0
0
8.1432767e-21
-2.3800377e-33
-1.2392355e-21
1.7250148e-21
8.0539006e-21
-1.6606116e-20
1.2920459e-32
2.1425583e-20
-1.2236113e-20
1.2731005e-20
-3.1436835e-20
-2.0147922e-20
6.8601591e-32
1.7163037e-20
3.4583713e-20
-6.4415728e-20
1.2695323e-35
1.8090622e-20
-8.7788073e-33
1.73943e-20
1.8260307e-20
-9.1632324e-33
-4.3621374e-20
4.1331921e-36
4.6085101e-20
-3.163335e-20
3.6640851e-48
3.5319035e-20
-1.7325039e-20
1.806299e-20
-4.5131273e-20
-2.6137354e-20
6.1198623e-32
2.6456838e-20
5.4706563e-20
2.9623182e-20
2.9858016e-20
-9.2722638e-20
0
3.5700391e-20
2.1134554e-32
-2.055581e-32
1.8239766e-32
-2.9698597e-20
3.6333706e-32
-3.6322686e-20
1.0863895e-31
7.723259e-20
-4.7777688e-20
-7.6496225e-20
-2.3055235e-20
5.0911098e-20
2.3532762e-20
-2.5081953e-20
5.5937942e-21
8.8367753e-21
0
0
3.5734552e-21
3.9758102e-21
0
-3.7161967e-21
-3.8430283e-21
7.2455676e-21
-5.5925326e-33
-3.9380651e-21
8.2380497e-35
-1.4092105e-21
-2.515331e-21
-3.1728823e-21
4.2078748e-21
5.3000069e-21
-5.4543841e-21
-1.8240433e-20
8.1449931e-21
4.0308194e-20
-1.100471e-20
-2.1422577e-20
-1.0762076e-20
0
1.1831181e-20
0
1.2719361e-20
-1.3758168e-20
3.0926617e-32
-1.4199286e-20
4.6001356e-32
3.7819138e-20
-1.1835636e-20
-1.3148298e-20
1.3405246e-20
1.229107e-20
-1.1915567e-20
-3.8844783e-20
1.1772444e-20
3.24745e-20
-9.1083883e-33
-5.5763944e-21
-1.119882e-20
-3.3207184e-21
1.9024091e-21
-3.5195106e-34
-3.1875418e-37
4.1718883e-21
-1.3437805e-32
-7.2344765e-21
2.2570693e-20
-8.4290597e-33
-1.580642e-20
0
0
-7.3774968e-21
4.0428906e-33
1.4434374e-20
-6.0691026e-21
-1.0121858e-20
-4.2814193e-21
4.3282548e-33
1.2032321e-20
2.9461831e-21
-1.9647689e-21
3.507342e-21
-9.6554428e-37
-4.2807045e-33
-8.5839246e-22
-2.611473e-21
6.7342806e-21
-2.894474e-33
-3.6567526e-21
0
0
7.7570397e-21
-9.9530007e-33
-4.661892e-33
-1.2878602e-36
-1.7455268e-20
-1.3443598e-20
1.1349952e-32
2.0873671e-20
6.5630419e-21
-6.2064175e-21
1.3847985e-20
8.851851e-33
-2.8298252e-32
-7.5010399e-21
-1.4307513e-20
2.1911902e-20
-7.2511444e-21
-7.8561347e-21
8.1635339e-21
-7.947517e-21
1.4602911e-20
-7.7702344e-33
-7.1478501e-21
-9.8744104e-37
-1.2639985e-20
1.2279097e-20
-1.0653638e-32
-1.2487649e-20
5.6795207e-21
0
-5.9417016e-21
-3.4737851e-33
1.9027253e-20
-6.2726852e-21
-1.2273414e-20
-6.3791716e-21
-6.9219132e-21
6.9150183e-21
6.2604995e-21
6.4937377e-21
-7.5350616e-21
4.5282261e-33
-4.6016754e-33
8.0647e-21
-8.7739967e-33
8.3569474e-21
-2.9962414e-32
-2.7111169e-20
1.5896842e-20
-1.7024725e-49
-8.1095897e-21
-9.9262963e-33
5.137355e-33
2.7569551e-20
-8.0380465e-21
-2.173961e-20
0
0
8.9541559e-21
8.9103549e-21
1.6749909e-20
-8.2255426e-21
-1.724866e-20
1.7813251e-20
-8.7909815e-21
-2.5263604e-20
7.7191407e-21
7.8037848e-21
8.6551066e-21
9.0985105e-21
-1.8396796e-20
-9.1810761e-21
9.1195042e-21
2.7220779e-20
-9.217499e-21
-6.7885216e-49
-1.5098526e-32
-1.7919128e-20
1.8212468e-20
1.8550281e-20
-9.2498626e-21
-1.8043437e-20
1.7682109e-20
8.8229098e-21
-2.6200273e-20
-2.5292354e-20
8.1447714e-21
1.6072393e-20
7.8180372e-21
-4.0819612e-33
-1.4008226e-20
-6.8725779e-21
6.764315e-21
1.2705226e-20
-8.1287656e-37
-1.0622555e-20
1.0474294e-20
-8.6382276e-33
-9.8043916e-21
4.4565274e-21
8.099659e-21
7.8114128e-21
0
-3.8411983e-21
-1.0703426e-20
-3.2069604e-21
2.9480082e-21
0
0
0
0
-2.9732464e-21
1.624636e-33
9.2301414e-21
-3.3308055e-21
-1.0602391e-20
-3.6077672e-21
6.1152768e-33
7.7414918e-21
4.1890325e-21
-4.5039984e-21
9.4229373e-21
4.8712599e-21
-1.6896093e-32
-5.3875525e-21
-1.1620956e-20
1.867952e-20
-1.8555805e-36
-6.7791603e-21
1.0015761e-36
-7.3304064e-21
-7.7144338e-21
8.9458559e-33
2.4684041e-20
-2.4011193e-36
-2.6586685e-20
-1.8629602e-20
5.3252085e-33
1.9522925e-20
9.7318581e-21
-9.8468161e-21
2.0433897e-20
1.0628988e-20
-3.6211134e-32
-1.0137355e-20
-1.9875375e-20
3.2006694e-20
-1.2441591e-32
-1.0550664e-20
-9.7894125e-21
-9.9904868e-21
-5.8396212e-33
6.18511e-33
2.2868252e-20
6.3584435e-33
-2.0966816e-20
1.9287928e-20
-4.8762244e-32
-3.043177e-20
2.1019348e-20
-1.1780007e-32
-1.914454e-20
9.2452566e-21
9.1481068e-21
1.7429787e-20
-9.07062e-21
-2.7468868e-20
0
0
0
2.3575748e-20
2.311969e-20
-2.3002092e-20
-2.2205216e-20
1.3720137e-20
-1.8039559e-36
6.125841e-21
-2.0190936e-32
-1.7694632e-20
1.6681942e-20
-2.5594363e-32
-9.5259003e-21
-2.5025918e-33
2.3844952e-33
8.0435831e-21
-3.6863926e-21
3.3402746e-21
-1.0140863e-32
-8.5583711e-21
8.1173154e-21
2.4853402e-21
-4.7119174e-33
3.5228735e-21
-3.1817924e-21
-1.5585078e-21
-1.5285844e-21
-4.3075821e-21
1.3801073e-33
9.3508512e-22
1.7379406e-21
-2.410539e-33
-1.1895944e-21
0
6.2011299e-22
1.207519e-21
-5.3743337e-22
4.813495e-22
-1.4937171e-33
-9.0685508e-22
1.6160513e-21
-1.5667894e-33
-1.0054711e-33
-1.1841142e-33
-1.2359027e-33
1.045321e-21
-3.1569387e-21
-3.8483245e-21
1.6280571e-21
3.858922e-21
0
-2.3502849e-21
2.852839e-33
-6.1587252e-33
3.2553192e-33
3.0920629e-21
-3.2950749e-21
-3.5537545e-21
1.156662e-20
-9.4366218e-49
-7.1782126e-33
4.4580344e-21
-5.1393434e-33
9.6874564e-21
-1.0211851e-20
-1.0612004e-20
-5.4379146e-21
6.180605e-33
5.7018778e-21
0
0
0
1.1791331e-20
-6.0858239e-21
-1.2762315e-20
1.9628905e-20
-6.5458233e-21
-1.9397306e-20
1.8578416e-20
-2.028579e-32
-1.2641459e-20
1.9696839e-20
1.328874e-20
0
-1.2929618e-20
-2.0081574e-32
-5.8630522e-21
-1.2244268e-20
6.3411257e-21
0
1.2646069e-20
1.7532021e-36
6.5977636e-33
-5.7654641e-21
-1.7274905e-20
1.7501975e-20
-9.77175e-33
-1.7310014e-20
1.6759545e-20
-2.7087226e-32
-1.0735094e-20
5.3821816e-21
-5.3676409e-21
1.0538725e-20
5.0739151e-21
-2.2052928e-32
-5.0092497e-21
-1.0116733e-20
-5.010646e-21
-4.9040915e-21
9.546769e-21
4.7238713e-21
0
-4.7847544e-21
2.6259625e-33
3.4189188e-51
4.5448563e-21
-1.3092307e-36
4.6595607e-21
3.1732438e-49
-1.3605272e-20
1.308564e-20
1.2966269e-20
-8.9179799e-21
-9.2415905e-21
0
9.1283697e-21
-4.4253664e-21
-1.2814594e-20
1.2765867e-20
-7.3406623e-33
-9.1059806e-21
4.5932765e-21
0
-4.3948581e-21
-4.2874977e-21
4.2639195e-21
-7.2605212e-33
8.8810291e-21
2.5173025e-36
-1.2894946e-20
0
1.2018541e-20
8.1099714e-21
-1.2538428e-20
-8.4478242e-21
1.249835e-20
4.0419288e-21
-1.5614971e-20
-3.8227579e-21
7.6586219e-21
7.7387883e-21
-4.2907876e-33
-3.7782042e-21
-3.6584323e-21
-3.5776563e-21
3.5600927e-21
-3.9621562e-33
7.090132e-21
-1.1550529e-32
-1.0117141e-20
0
0
6.6401334e-21
-7.2844948e-33
-3.2156705e-21
9.5395246e-21
-3.1658785e-21
-5.2564109e-33
-1.0417083e-32
-9.2586387e-21
3.0810103e-21
-1.7268066e-33
3.4751362e-33
3.07788e-21
-3.0010931e-21
4.2408843e-37
-1.6922316e-33
3.5066242e-33
3.2163502e-21
0
-3.1153824e-21
6.1759096e-21
3.1301914e-21
-6.4798671e-21
0
3.3385745e-21
-3.3123866e-21
-6.5639507e-21
9.9243266e-21
-1.1326597e-32
-1.1624054e-32
3.5209632e-21
-1.0433554e-20
4.8464644e-37
3.4005976e-21
3.47781e-21
-3.599232e-21
-3.6673291e-21
3.6573448e-21
0
-3.562979e-21
7.0938581e-21
-5.9568099e-33
-3.635624e-21
-8.1401459e-33
-8.0945576e-33
-1.0224321e-36
-7.0900105e-21
1.0544109e-20
1.0534071e-20
0
-6.9576974e-21
-1.0308506e-20
-4.8567431e-37
3.3882429e-21
3.325001e-21
-3.2350811e-21
-3.1244971e-21
3.0825487e-21
0
6.3211085e-21
6.2515968e-21
-9.0160332e-21
-2.8680945e-21
2.7783191e-21
-7.8809963e-37
-2.8273319e-21
-5.7070224e-21
-2.8052247e-21
4.4637168e-33
1.0206563e-20
-8.2381317e-33
-7.4359994e-21
2.5418178e-21
2.5825282e-21
2.5675509e-21
-2.5003842e-21
-2.4171792e-21
-2.3531865e-21
-6.6135435e-37
2.3487657e-21
-2.4008306e-21
7.2898716e-21
4.8353296e-21
-7.1261051e-21
2.3371808e-21
4.6952882e-21
-4.8162338e-21
2.474444e-21
-2.5038234e-21
-4.9687113e-21
7.3758488e-21
-2.4758858e-21
8.472575e-33
7.8797812e-21
-5.363333e-21
-2.7016986e-21
-2.7132338e-21
-5.5102662e-21
2.8289302e-21
-1.3625229e-76
5.8873697e-21
2.9571696e-21
-3.3171677e-33
-3.055515e-21
-6.2889401e-21
6.4283198e-21
-3.2349759e-21
-9.6590134e-21
9.7345118e-21
3.3449053e-21
3.9108847e-49
3.5680004e-21
-1.0742133e-20
-3.5722938e-21
3.5612585e-21
7.1991504e-21
-3.7266314e-21
3.8362926e-21
-1.2912414e-32
-7.7731685e-21
1.1660063e-20
4.3408417e-33
-1.7620062e-32
8.9718292e-33
-8.1599655e-21
8.1260436e-21
-4.0534384e-21
-1.6412701e-20
4.1675376e-21
8.4057213e-21
0
8.2900434e-21
-9.146092e-33
-2.390982e-36
-4.7623811e-33
-4.3105122e-21
-4.293992e-21
4.2113186e-21
4.1708025e-21
-8.5048901e-21
8.6558302e-21
-4.8225951e-33
-8.6442442e-21
8.478087e-21
1.3941981e-32
-4.6979726e-33
-4.3106787e-21
-8.655549e-21
4.2818115e-21
-4.2216241e-21
2.3267443e-33
4.2064573e-21
8.4559149e-21
-4.2105771e-21
-8.2940177e-21
4.0827404e-21
-4.0547057e-21
6.7729681e-33
-4.0605152e-21
-8.9142766e-33
7.9279339e-21
7.886078e-21
8.7367752e-33
-1.2947696e-32
1.2678575e-32
-3.7358402e-21
-3.6705453e-21
-3.5725851e-21
3.4769332e-21
0
0
-3.4531821e-21
1.8777424e-33
4.5952405e-37
3.3363543e-33
2.8534932e-21
0
-2.9343438e-21
-5.8983795e-21
2.8930191e-21
5.5418144e-21
5.2441532e-21
4.93671e-21
-7.0950574e-21
-7.7742605e-33
6.9682494e-21
-4.5480534e-21
-4.3595702e-21
0
-1.9243064e-21
3.6580513e-21
1.7700064e-21
-3.4314859e-21
-1.6391168e-21
1.7090673e-33
4.3160254e-21
-1.3633976e-21
-3.9291114e-21
3.7368893e-21
1.1493935e-21
-3.1282535e-21
1.0630059e-33
9.0556132e-22
1.7386896e-21
9.0864112e-34
-1.4848845e-21
1.3330495e-21
-6.1459475e-22
-1.7379296e-21
0
4.665114e-22
8.0012867e-22
-2.0480705e-34
3.6630929e-22
7.3041766e-22
-6.6936052e-22
-5.3964635e-22
0
-2.0522717e-22
-2.5341784e-34
-2.7849135e-34
-2.6980544e-34
6.0935915e-22
3.4269732e-22
0
-4.2346148e-22
-5.4114765e-34
-2.4804065e-22
-6.808134e-22
2.205434e-22
-1.4061958e-34
4.3690964e-38
3.5131522e-22
7.1460953e-22
-3.3036302e-22
-6.4910063e-22
3.7513746e-22
0
1.0640972e-21
-5.6316354e-22
-1.6170344e-21
5.0357336e-22
5.1614416e-22
1.174941e-21
-6.7941078e-22
-2.2579076e-21
7.8461167e-22
-8.5873532e-34
-1.5130473e-21
7.7078976e-22
8.2120184e-22
1.7783045e-21
2.8460623e-21
-1.9604287e-21
-1.9666279e-21
1.9727549e-21
1.1200485e-33
-2.1007067e-21
2.1992877e-21
1.2551836e-33
-2.2573152e-21
0
2.2732755e-21
2.3536444e-21
0
-3.7950867e-21
-1.2604732e-21
-3.5094885e-37
-1.2222582e-21
-1.2460398e-21
-1.4383383e-33
2.6929858e-21
2.7562476e-21
-4.6005892e-33
-2.7280936e-21
2.7018272e-21
4.508885e-33
-2.7510867e-21
0
0
0
0
2.9150201e-21
1.6323487e-33
-2.9966309e-21
-1.5264674e-21
3.0783491e-21
-5.1254705e-33
-3.0808005e-21
3.125737e-21
1.7819527e-33
-1.6433456e-21
3.3239457e-21
-5.5514257e-33
-3.3490565e-21
3.3961606e-21
3.4592283e-21
-3.5181019e-21
-3.5637672e-21
0
0
0
0
-1.9118888e-21
1.9110108e-21
1.9231228e-21
-2.1751275e-33
-1.9600753e-76
-2.0763103e-21
-4.1967621e-21
-2.0980618e-21
4.2037643e-21
6.3614901e-21
-2.1438655e-21
-4.3244775e-21
6.5272723e-21
4.4092164e-21
-6.7649231e-21
-4.5772718e-21
-2.2885797e-21
-2.5028174e-33
4.3765636e-21
0
-2.2428181e-21
2.3340612e-21
-5.338053e-33
-6.8637147e-37
-7.8268916e-33
-2.2664827e-21
-2.1647488e-21
6.0981558e-37
4.4710698e-21
4.625314e-21
-7.8249141e-33
-4.7033446e-21
0
0
0
-2.2202576e-21
-2.1782858e-21
2.1447709e-21
2.1402568e-21
-2.1558866e-21
4.3165648e-21
6.3984777e-21
0
-4.036771e-21
-2.1912079e-33
-1.964261e-21
-5.9358459e-21
1.9712563e-21
-3.2132042e-33
3.7444429e-21
-1.2084917e-32
-3.5671237e-21
-9.9150998e-34
-2.5389365e-37
1.7635207e-21
-1.7180138e-21
3.3341455e-21
1.6388189e-21
-3.2732393e-21
3.2670405e-21
4.5776628e-37
-1.7423207e-33
-1.5251337e-21
-4.51859e-21
3.0269427e-21
1.4971055e-51
1.4929469e-21
-2.410061e-33
-2.8025076e-21
1.391569e-21
2.8333407e-21
-1.6069571e-33
-4.3451868e-21
3.9853326e-37
1.3497139e-21
-1.3233714e-21
2.6725581e-21
1.380196e-21
-2.8327378e-21
2.8331487e-21
1.5286269e-33
-7.4232155e-33
2.9336118e-33
-2.6773236e-21
2.7680928e-21
-1.4239598e-21
-2.8670475e-21
1.4095189e-21
-1.3844043e-21
2.7564886e-21
-2.3278191e-33
-4.3210903e-21
0
0
4.3996788e-21
1.454268e-21
-2.9295674e-21
2.9993761e-21
8.7617608e-37
-6.9456832e-33
-1.7282795e-33
-3.0879666e-21
3.0943492e-21
3.1485484e-21
-1.6235111e-21
-4.970846e-21
-1.6566997e-21
1.6454843e-21
0
0
-1.7056499e-21
9.6886878e-34
5.2736805e-21
4.961884e-37
-3.4486478e-21
-1.7285167e-21
1.966091e-33
5.4976083e-21
4.1478263e-33
-3.7098614e-21
0
-1.8053518e-21
3.6312697e-21
1.8742732e-21
-4.2875435e-33
-1.9491649e-21
-3.8328147e-21
1.8654788e-21
0
0
0
0
-2.0115506e-21
1.0897727e-33
5.7012102e-21
-1.825438e-21
-5.4542685e-21
5.6897147e-21
1.9631888e-21
-3.9867558e-21
-1.9745831e-21
-3.1856201e-33
5.538449e-21
-1.0156702e-36
-5.9457578e-33
-1.8392223e-21
-3.7597113e-21
-1.8854721e-21
-2.0533696e-33
1.7868797e-21
1.7202051e-21
1.670548e-21
1.6631298e-21
-3.7434727e-33
-3.3994766e-21
0
0
-1.5707028e-21
-2.5171383e-33
-2.0930774e-37
2.0763895e-37
1.4565744e-21
2.8688051e-21
2.7632081e-21
-2.6387216e-21
-1.4080131e-33
-1.2352194e-21
-3.662199e-21
0
0
1.0732297e-21
1.0126036e-21
0
-9.6354467e-22
5.2446976e-34
9.0274423e-22
-8.3525567e-22
1.5354711e-21
-2.4107719e-33
-2.1077326e-21
6.8807437e-22
6.5682046e-22
1.2039329e-21
-5.3987418e-22
-1.4763972e-21
4.6683936e-22
-2.5123819e-34
8.5722081e-22
3.8462495e-22
-6.5928659e-22
5.7495498e-22
7.2332868e-51
-5.2865242e-22
0
0
3.2926926e-22
-1.3265122e-34
-3.4599261e-34
-1.4720625e-50
-3.3799567e-22
-1.1171054e-34
6.8808412e-23
6.516044e-23
2.3424211e-23
-1.5917655e-23
-2.1264208e-35
-5.4092128e-24
1.8500659e-35
-1.3391266e-23
2.5595969e-23
0
1.1466337e-23
-2.5553601e-35
-2.8380675e-23
-3.4566682e-23
2.6439413e-36
-3.15275e-23
0
0
2.0618526e-23
4.9019335e-36
1.6213021e-22
1.0063234e-34
-1.9766336e-22
0
4.2012651e-23
-4.5806316e-23
-8.7690445e-23
-1.3931409e-22
-1.7684718e-22
3.7951863e-22
5.3520201e-22
-1.6300267e-22
-3.3575364e-22
5.8936979e-22
-1.457334e-50
-5.3399243e-22
0
0
0
0
6.2698706e-22
6.9105125e-22
-3.6562763e-22
-1.0979289e-21
-3.9664428e-34
3.5987535e-22
-7.6478812e-22
-8.2795292e-22
4.3837758e-22
1.7707059e-21
8.5759842e-22
-1.2585389e-21
-8.6257192e-22
1.375752e-21
1.0810559e-33
-9.9316146e-22
0
0
0
9.368749e-22
5.4959913e-34
-1.137351e-33
5.1120597e-22
-1.4994282e-21
4.9310575e-22
4.9682201e-22
-1.5124273e-21
-1.0049545e-21
4.8492482e-22
9.3495305e-22
9.3488616e-22
-1.6109983e-33
5.5883385e-34
-1.446963e-37
-9.8450375e-22
0
-4.3798051e-22
-4.3976217e-22
4.5820121e-22
4.7698745e-22
-4.8078089e-22
-4.6362401e-22
8.6812628e-22
4.1417321e-22
-4.1707624e-22
4.3506514e-22
-4.5277512e-22
-9.0701643e-22
0
0
1.1775883e-21
4.0397051e-22
-8.5216195e-22
-4.4154526e-22
-4.3854971e-22
8.3806094e-22
-4.4830952e-34
-8.1381544e-22
0
4.4197068e-22
1.3361399e-21
9.5721092e-34
-2.329293e-33
8.5723933e-22
-1.3639293e-21
-4.8358824e-22
-1.4064849e-37
4.8003057e-22
-7.5996195e-34
-7.5259433e-34
1.4324972e-21
-1.5542743e-21
2.7614929e-33
-9.4054038e-34
-1.0997337e-21
5.3194894e-22
-5.3373067e-22
1.1149541e-21
5.9245565e-22
-1.2379614e-21
1.2478962e-21
-3.4686579e-37
-4.6689721e-33