/*--------------------------------*- C++ -*----------------------------------*\
  =========                 |
  \\      /  F ield         | OpenFOAM: The Open Source CFD Toolbox
   \\    /   O peration     | Website:  https://openfoam.org
    \\  /    A nd           | Version:  7
     \\/     M anipulation  |
\*---------------------------------------------------------------------------*/
FoamFile
{
    version     2.0;
    format      ascii;
    class       surfaceScalarField;
    location    "0.00051";
    object      phi;
}
// * * * * * * * * * * * * * * * * * * * * * * * * * * * * * * * * * * * * * //

dimensions      [1 0 -1 0 0 0 0];

internalField   nonuniform List<scalar> 
4999
(
4.9737992e-14
5.6843419e-14
4.9737992e-14
4.2632564e-14
5.6843419e-14
3.5527137e-14
4.2632564e-14
4.2632564e-14
4.2632564e-14
4.2632564e-14
3.5527137e-14
3.5527137e-14
4.2632564e-14
4.9737992e-14
4.2632564e-14
4.2632564e-14
4.2632564e-14
4.2632564e-14
4.2632564e-14
4.9737992e-14
3.5527137e-14
2.8421709e-14
3.5527137e-14
2.8421709e-14
4.2632564e-14
4.2632564e-14
2.8421709e-14
4.9737992e-14
4.2632564e-14
6.3948846e-14
6.3948846e-14
7.1054274e-14
5.6843419e-14
5.6843419e-14
5.6843419e-14
7.1054274e-14
7.1054274e-14
7.1054274e-14
7.8159701e-14
8.5265128e-14
6.3948846e-14
7.1054274e-14
7.1054274e-14
7.8159701e-14
7.8159701e-14
8.5265128e-14
9.2370556e-14
9.9475983e-14
9.2370556e-14
9.2370556e-14
7.8159701e-14
7.8159701e-14
8.5265128e-14
7.8159701e-14
9.2370556e-14
7.8159701e-14
6.3948846e-14
7.8159701e-14
7.1054274e-14
7.1054274e-14
7.1054274e-14
6.3948846e-14
6.3948846e-14
7.1054274e-14
6.3948846e-14
5.6843419e-14
5.6843419e-14
6.3948846e-14
5.6843419e-14
5.6843419e-14
5.6843419e-14
6.3948846e-14
5.6843419e-14
4.9737992e-14
4.9737992e-14
4.2632564e-14
4.9737992e-14
6.3948846e-14
6.3948846e-14
4.2632564e-14
4.9737992e-14
4.9737992e-14
4.2632564e-14
5.6843419e-14
4.9737992e-14
3.5527137e-14
3.5527137e-14
4.2632564e-14
2.1316282e-14
3.5527137e-14
3.5527137e-14
3.5527137e-14
2.1316282e-14
1.4210855e-14
7.1054274e-15
7.1054274e-15
1.4210855e-14
7.1054274e-15
1.4210855e-14
1.4210855e-14
2.1316282e-14
2.1316282e-14
2.8421709e-14
2.8421709e-14
3.5527137e-14
2.8421709e-14
2.8421709e-14
1.4210855e-14
7.1054274e-15
2.1316282e-14
1.4210855e-14
1.4210855e-14
2.1316282e-14
2.1316282e-14
7.1054274e-15
2.1316282e-14
1.4210855e-14
1.4210855e-14
2.1316282e-14
1.4210855e-14
2.1316282e-14
3.5527137e-14
3.5527137e-14
4.2632564e-14
3.5527137e-14
4.2632564e-14
3.5527137e-14
3.5527137e-14
2.1316282e-14
2.1316282e-14
2.1316282e-14
2.1316282e-14
3.5527137e-14
3.5527137e-14
4.2632564e-14
3.5527137e-14
4.9737992e-14
3.5527137e-14
4.2632564e-14
2.8421709e-14
2.8421709e-14
2.8421709e-14
2.1316282e-14
2.1316282e-14
2.1316282e-14
2.8421709e-14
4.2632564e-14
4.9737992e-14
4.2632564e-14
3.5527137e-14
4.2632564e-14
5.6843419e-14
5.6843419e-14
5.6843419e-14
5.6843419e-14
5.6843419e-14
6.3948846e-14
7.1054274e-14
6.3948846e-14
7.8159701e-14
7.1054274e-14
6.3948846e-14
4.9737992e-14
6.3948846e-14
6.3948846e-14
6.3948846e-14
6.3948846e-14
7.1054274e-14
7.8159701e-14
7.8159701e-14
6.3948846e-14
6.3948846e-14
5.6843419e-14
5.6843419e-14
6.3948846e-14
5.6843419e-14
5.6843419e-14
5.6843419e-14
4.2632564e-14
4.9737992e-14
5.6843419e-14
6.3948846e-14
7.8159701e-14
7.8159701e-14
7.1054274e-14
7.8159701e-14
8.5265128e-14
7.8159701e-14
8.5265128e-14
8.5265128e-14
7.1054274e-14
9.2370556e-14
7.8159701e-14
7.8159701e-14
6.3948846e-14
7.1054274e-14
8.5265128e-14
8.5265128e-14
7.8159701e-14
7.8159701e-14
6.3948846e-14
7.1054274e-14
7.8159701e-14
8.5265128e-14
8.5265128e-14
9.9475983e-14
9.2370556e-14
9.2370556e-14
1.0658141e-13
1.0658141e-13
1.1368684e-13
1.2789769e-13
1.1368684e-13
9.9475983e-14
9.9475983e-14
9.9475983e-14
1.1368684e-13
1.2079227e-13
1.1368684e-13
1.3500312e-13
1.4210855e-13
1.3500312e-13
1.2079227e-13
1.2789769e-13
1.2789769e-13
1.2789769e-13
1.2079227e-13
1.2079227e-13
1.2789769e-13
1.2079227e-13
1.1368684e-13
1.1368684e-13
1.2079227e-13
1.2079227e-13
1.0658141e-13
1.2079227e-13
1.2789769e-13
1.2079227e-13
1.2079227e-13
1.1368684e-13
1.2079227e-13
1.2789769e-13
1.2789769e-13
1.3500312e-13
1.4210855e-13
1.4210855e-13
1.4210855e-13
1.4210855e-13
1.4921397e-13
1.4921397e-13
1.563194e-13
1.6342483e-13
1.563194e-13
1.6342483e-13
1.6342483e-13
1.6342483e-13
1.7053026e-13
1.6342483e-13
1.6342483e-13
1.6342483e-13
1.6342483e-13
1.7053026e-13
1.7763568e-13
1.7053026e-13
1.7053026e-13
1.7053026e-13
1.8474111e-13
1.7763568e-13
1.7053026e-13
1.7763568e-13
1.7053026e-13
1.7053026e-13
1.7053026e-13
1.6342483e-13
1.6342483e-13
1.7053026e-13
1.6342483e-13
1.6342483e-13
1.563194e-13
1.6342483e-13
1.4921397e-13
1.4921397e-13
1.3500312e-13
1.3500312e-13
1.4210855e-13
1.4210855e-13
1.2079227e-13
1.2079227e-13
1.2079227e-13
1.0658141e-13
9.2370556e-14
8.5265128e-14
7.8159701e-14
7.8159701e-14
6.3948846e-14
7.1054274e-14
7.1054274e-14
5.6843419e-14
4.9737992e-14
5.6843419e-14
4.9737992e-14
6.3948846e-14
5.6843419e-14
4.9737992e-14
4.2632564e-14
4.2632564e-14
3.5527137e-14
2.8421709e-14
4.2632564e-14
3.5527137e-14
4.2632564e-14
3.5527137e-14
2.8421709e-14
3.5527137e-14
4.2632564e-14
2.8421709e-14
3.5527137e-14
2.1316282e-14
2.8421709e-14
2.1316282e-14
2.8421709e-14
2.1316282e-14
2.8421709e-14
2.1316282e-14
2.8421709e-14
3.5527137e-14
3.5527137e-14
4.9737992e-14
4.2632564e-14
4.9737992e-14
6.3948846e-14
5.6843419e-14
4.9737992e-14
5.6843419e-14
4.9737992e-14
4.9737992e-14
4.9737992e-14
3.5527137e-14
2.8421709e-14
4.2632564e-14
3.5527137e-14
3.5527137e-14
3.5527137e-14
3.5527137e-14
4.9737992e-14
4.2632564e-14
4.2632564e-14
4.2632564e-14
4.9737992e-14
5.6843419e-14
4.9737992e-14
5.6843419e-14
4.2632564e-14
4.2632564e-14
4.2632564e-14
4.9737992e-14
5.6843419e-14
4.9737992e-14
4.9737992e-14
4.2632564e-14
4.9737992e-14
4.2632564e-14
4.2632564e-14
3.5527137e-14
4.9737992e-14
3.5527137e-14
4.2632564e-14
4.2632564e-14
4.2632564e-14
3.5527137e-14
3.5527137e-14
4.2632564e-14
2.1316282e-14
2.1316282e-14
2.8421709e-14
3.5527137e-14
2.1316282e-14
2.1316282e-14
1.4210855e-14
2.1316282e-14
2.1316282e-14
2.1316282e-14
2.1316282e-14
2.8421709e-14
2.8421709e-14
2.8421709e-14
2.8421709e-14
2.1316282e-14
2.8421709e-14
2.1316282e-14
2.8421709e-14
2.1316282e-14
7.1054274e-15
2.8421709e-14
2.8421709e-14
4.2632564e-14
3.5527137e-14
3.5527137e-14
4.2632564e-14
4.2632564e-14
4.2632564e-14
3.5527137e-14
3.5527137e-14
4.2632564e-14
4.9737992e-14
5.6843419e-14
5.6843419e-14
4.9737992e-14
6.3948846e-14
7.8159701e-14
7.1054274e-14
7.8159701e-14
6.3948846e-14
6.3948846e-14
4.2632564e-14
4.9737992e-14
4.9737992e-14
4.9737992e-14
5.6843419e-14
5.6843419e-14
6.3948846e-14
5.6843419e-14
5.6843419e-14
4.9737992e-14
4.9737992e-14
4.9737992e-14
5.6843419e-14
6.3948846e-14
5.6843419e-14
5.6843419e-14
5.6843419e-14
5.6843419e-14
5.6843419e-14
6.3948846e-14
4.9737992e-14
5.6843419e-14
5.6843419e-14
5.6843419e-14
4.9737992e-14
4.2632564e-14
4.9737992e-14
5.6843419e-14
5.6843419e-14
6.3948846e-14
5.6843419e-14
5.6843419e-14
6.3948846e-14
7.1054274e-14
7.1054274e-14
6.3948846e-14
7.1054274e-14
7.1054274e-14
6.3948846e-14
5.6843419e-14
6.3948846e-14
7.1054274e-14
6.3948846e-14
5.6843419e-14
7.1054274e-14
6.3948846e-14
7.1054274e-14
7.1054274e-14
7.1054274e-14
7.1054274e-14
7.1054274e-14
7.1054274e-14
6.3948846e-14
7.1054274e-14
6.3948846e-14
7.1054274e-14
7.1054274e-14
7.1054274e-14
7.1054274e-14
7.1054274e-14
7.1054274e-14
7.1054274e-14
7.1054274e-14
4.9737992e-14
5.6843419e-14
6.3948846e-14
7.8159701e-14
7.8159701e-14
7.8159701e-14
7.1054274e-14
7.1054274e-14
7.8159701e-14
9.2370556e-14
9.2370556e-14
8.5265128e-14
7.8159701e-14
7.8159701e-14
8.5265128e-14
9.2370556e-14
9.9475983e-14
1.1368684e-13
9.9475983e-14
1.0658141e-13
1.0658141e-13
1.0658141e-13
1.0658141e-13
1.1368684e-13
1.0658141e-13
1.2079227e-13
1.0658141e-13
1.1368684e-13
1.1368684e-13
1.2079227e-13
1.1368684e-13
1.1368684e-13
1.2079227e-13
1.0658141e-13
1.1368684e-13
1.0658141e-13
1.0658141e-13
1.2079227e-13
1.1368684e-13
9.9475983e-14
9.9475983e-14
9.2370556e-14
9.2370556e-14
9.2370556e-14
8.5265128e-14
8.5265128e-14
9.9475983e-14
9.2370556e-14
9.9475983e-14
9.2370556e-14
7.8159701e-14
9.2370556e-14
9.2370556e-14
8.5265128e-14
8.5265128e-14
7.8159701e-14
8.5265128e-14
9.9475983e-14
8.5265128e-14
8.5265128e-14
6.3948846e-14
7.1054274e-14
6.3948846e-14
6.3948846e-14
5.6843419e-14
7.1054274e-14
7.1054274e-14
7.1054274e-14
6.3948846e-14
5.6843419e-14
5.6843419e-14
5.6843419e-14
6.3948846e-14
7.1054274e-14
6.3948846e-14
7.8159701e-14
7.8159701e-14
9.2370556e-14
7.1054274e-14
8.5265128e-14
9.2370556e-14
8.5265128e-14
7.8159701e-14
6.3948846e-14
7.8159701e-14
7.8159701e-14
8.5265128e-14
7.8159701e-14
7.8159701e-14
8.5265128e-14
7.8159701e-14
8.5265128e-14
9.2370556e-14
7.8159701e-14
8.5265128e-14
8.5265128e-14
8.5265128e-14
8.5265128e-14
8.5265128e-14
8.5265128e-14
7.8159701e-14
8.5265128e-14
7.1054274e-14
6.3948846e-14
5.6843419e-14
7.1054274e-14
7.1054274e-14
7.1054274e-14
7.8159701e-14
6.3948846e-14
8.5265128e-14
8.5265128e-14
9.2370556e-14
1.0658141e-13
9.9475983e-14
1.1368684e-13
1.2079227e-13
1.2079227e-13
1.1368684e-13
1.0658141e-13
1.0658141e-13
1.2079227e-13
1.1368684e-13
1.2079227e-13
1.2079227e-13
1.2789769e-13
1.2079227e-13
1.2079227e-13
1.0658141e-13
1.0658141e-13
9.9475983e-14
9.9475983e-14
9.9475983e-14
1.0658141e-13
9.9475983e-14
9.2370556e-14
9.9475983e-14
9.2370556e-14
9.2370556e-14
9.9475983e-14
9.9475983e-14
9.9475983e-14
1.0658141e-13
1.0658141e-13
9.9475983e-14
1.1368684e-13
9.2370556e-14
8.5265128e-14
9.2370556e-14
8.5265128e-14
1.0658141e-13
1.0658141e-13
7.8159701e-14
8.5265128e-14
8.5265128e-14
7.8159701e-14
7.8159701e-14
9.2370556e-14
8.5265128e-14
6.3948846e-14
7.1054274e-14
6.3948846e-14
7.1054274e-14
7.1054274e-14
6.3948846e-14
6.3948846e-14
5.6843419e-14
7.1054274e-14
6.3948846e-14
6.3948846e-14
5.6843419e-14
5.6843419e-14
5.6843419e-14
4.9737992e-14
3.5527137e-14
4.9737992e-14
2.8421709e-14
3.5527137e-14
4.2632564e-14
4.9737992e-14
4.9737992e-14
3.5527137e-14
2.8421709e-14
2.8421709e-14
2.8421709e-14
2.8421709e-14
2.8421709e-14
2.8421709e-14
2.8421709e-14
3.5527137e-14
4.9737992e-14
4.9737992e-14
4.2632564e-14
5.6843419e-14
4.9737992e-14
5.6843419e-14
6.3948846e-14
7.1054274e-14
7.1054274e-14
7.8159701e-14
8.5265128e-14
8.5265128e-14
8.5265128e-14
8.5265128e-14
8.5265128e-14
9.2370556e-14
9.2370556e-14
8.5265128e-14
1.0658141e-13
9.2370556e-14
9.9475983e-14
8.5265128e-14
7.8159701e-14
7.8159701e-14
7.8159701e-14
7.8159701e-14
7.1054274e-14
8.5265128e-14
7.1054274e-14
6.3948846e-14
7.8159701e-14
6.3948846e-14
6.3948846e-14
7.1054274e-14
5.6843419e-14
4.2632564e-14
5.6843419e-14
5.6843419e-14
4.9737992e-14
4.2632564e-14
4.2632564e-14
3.5527137e-14
4.9737992e-14
5.6843419e-14
4.9737992e-14
3.5527137e-14
4.9737992e-14
5.6843419e-14
4.9737992e-14
6.3948846e-14
4.9737992e-14
4.9737992e-14
5.6843419e-14
5.6843419e-14
5.6843419e-14
7.1054274e-14
6.3948846e-14
7.1054274e-14
7.1054274e-14
5.6843419e-14
4.9737992e-14
6.3948846e-14
6.3948846e-14
5.6843419e-14
5.6843419e-14
7.1054274e-14
6.3948846e-14
6.3948846e-14
5.6843419e-14
5.6843419e-14
7.1054274e-14
6.3948846e-14
4.9737992e-14
5.6843419e-14
4.2632564e-14
2.8421709e-14
3.5527137e-14
3.5527137e-14
2.8421709e-14
2.8421709e-14
2.1316282e-14
2.8421709e-14
7.1054274e-15
-1.4210855e-14
-7.1054274e-15
-7.1054274e-15
-1.7706546e-30
-8.5431382e-30
-7.1054274e-15
-7.1054274e-15
-7.1054274e-15
-7.1054274e-15
-7.1054274e-15
0
7.1054274e-15
7.1054274e-15
-7.8886091e-31
1.4210855e-14
7.1054274e-15
-1.5777218e-29
0
5.3248111e-30
-1.3896882e-55
-6.3108872e-30
7.1054274e-15
1.4210855e-14
7.1054274e-15
2.1316282e-14
2.1316282e-14
1.4210855e-14
1.4210855e-14
2.8421709e-14
2.1316282e-14
1.4210855e-14
7.1054274e-15
2.1316282e-14
2.1316282e-14
1.4210855e-14
7.1054274e-15
-7.8886091e-30
7.1054274e-15
7.1054274e-15
2.0964824e-30
-7.1054274e-15
8.0779357e-31
-6.3108872e-30
-7.1054274e-15
-1.4210855e-14
-1.4210855e-14
-2.1316282e-14
-2.8421709e-14
-2.8421709e-14
-2.1316282e-14
-2.8421709e-14
-1.4210855e-14
-2.8421709e-14
-3.5527137e-14
-2.1316282e-14
-7.1054274e-15
-1.4210855e-14
-2.1316282e-14
-3.5527137e-14
-2.1316282e-14
-2.1316282e-14
-2.1316282e-14
-2.8421709e-14
-1.4210855e-14
-1.4210855e-14
-1.4210855e-14
-2.1316282e-14
-7.1054274e-15
-1.4210855e-14
-2.1316282e-14
-2.1316282e-14
-1.4210855e-14
-1.4210855e-14
-2.1316282e-14
-7.1054274e-15
-2.1316282e-14
-7.1054274e-15
-2.1316282e-14
-2.1316282e-14
-2.8421709e-14
-3.5527137e-14
-2.8421709e-14
-3.5527137e-14
-3.5527137e-14
-4.2632564e-14
-4.9737992e-14
-5.6843419e-14
-5.6843419e-14
-5.6843419e-14
-4.9737992e-14
-4.9737992e-14
-6.3948846e-14
-4.9737992e-14
-5.6843419e-14
-4.9737992e-14
-4.9737992e-14
-4.2632564e-14
-4.2632564e-14
-3.5527137e-14
-3.5527137e-14
-2.1316282e-14
-2.8421709e-14
-3.5527137e-14
-2.8421709e-14
-3.5527137e-14
-4.2632564e-14
-3.5527137e-14
-2.1316282e-14
-1.4210855e-14
-2.1316282e-14
-2.8421709e-14
-2.1316282e-14
-1.4210855e-14
-1.4210855e-14
-1.4210855e-14
-1.4210855e-14
-2.1316282e-14
-7.1054274e-15
-7.1054274e-15
-1.4210855e-14
-1.4210855e-14
-7.1054274e-15
-2.1316282e-14
-1.4210855e-14
-3.5527137e-14
-2.1316282e-14
-2.8421709e-14
-1.4210855e-14
-1.4210855e-14
-1.4210855e-14
-2.1316282e-14
-7.1054274e-15
-1.4210855e-14
-1.4210855e-14
1.8932662e-29
-1.4210855e-14
7.1054274e-15
7.1054274e-15
1.4210855e-14
1.4210855e-14
2.1316282e-14
2.8421709e-14
2.8421709e-14
3.5527137e-14
2.1316282e-14
4.2632564e-14
3.5527137e-14
3.5527137e-14
4.2632564e-14
4.2632564e-14
4.2632564e-14
3.5527137e-14
4.9737992e-14
5.6843419e-14
4.9737992e-14
4.9737992e-14
5.6843419e-14
4.2632564e-14
4.9737992e-14
4.2632564e-14
6.3948846e-14
6.3948846e-14
6.3948846e-14
5.6843419e-14
5.6843419e-14
4.9737992e-14
4.9737992e-14
6.3948846e-14
5.6843419e-14
4.9737992e-14
4.2632564e-14
2.1316282e-14
2.8421709e-14
3.5527137e-14
3.5527137e-14
2.8421709e-14
2.8421709e-14
3.5527137e-14
3.5527137e-14
3.5527137e-14
3.5527137e-14
2.8421709e-14
2.8421709e-14
4.9737992e-14
3.5527137e-14
2.8421709e-14
2.8421709e-14
2.8421709e-14
1.4210855e-14
3.5527137e-14
3.5527137e-14
3.5527137e-14
3.5527137e-14
3.5527137e-14
2.8421709e-14
3.5527137e-14
3.5527137e-14
2.8421709e-14
2.8421709e-14
2.1316282e-14
2.8421709e-14
2.1316282e-14
2.1316282e-14
2.1316282e-14
2.8421709e-14
2.8421709e-14
2.8421709e-14
3.5527137e-14
4.9737992e-14
4.2632564e-14
3.5527137e-14
4.9737992e-14
4.9737992e-14
4.2632564e-14
4.2632564e-14
2.8421709e-14
3.5527137e-14
3.5527137e-14
4.2632564e-14
4.2632564e-14
4.9737992e-14
4.9737992e-14
6.3948846e-14
5.6843419e-14
5.6843419e-14
4.9737992e-14
4.9737992e-14
5.6843419e-14
4.9737992e-14
5.6843419e-14
4.9737992e-14
5.6843419e-14
6.3948846e-14
6.3948846e-14
6.3948846e-14
5.6843419e-14
5.6843419e-14
5.6843419e-14
6.3948846e-14
5.6843419e-14
5.6843419e-14
4.2632564e-14
4.2632564e-14
4.2632564e-14
3.5527137e-14
2.8421709e-14
3.5527137e-14
3.5527137e-14
2.1316282e-14
1.4210855e-14
2.1316282e-14
2.1316282e-14
2.1316282e-14
2.8421709e-14
2.1316282e-14
7.1054274e-15
-2.3665827e-30
-7.0997481e-30
-6.0055648e-43
7.1054274e-15
1.4210855e-14
1.4210855e-14
1.4210855e-14
7.1054274e-15
1.4210855e-14
2.8421709e-14
1.4210855e-14
7.1054274e-15
7.1054274e-15
1.4210855e-14
1.4210855e-14
2.1316282e-14
2.1316282e-14
2.8421709e-14
3.5527137e-14
2.8421709e-14
3.5527137e-14
2.8421709e-14
4.2632564e-14
4.2632564e-14
4.2632564e-14
2.1316282e-14
1.4210855e-14
2.1316282e-14
2.1316282e-14
1.4210855e-14
2.1316282e-14
2.1316282e-14
1.4210855e-14
7.1054274e-15
7.1054274e-15
1.4210855e-14
2.8421709e-14
2.1316282e-14
2.8421709e-14
2.8421709e-14
3.5527137e-14
2.8421709e-14
1.4210855e-14
1.4210855e-14
2.1316282e-14
1.4210855e-14
7.1054274e-15
7.1054274e-15
1.4210855e-14
1.4210855e-14
4.7331654e-30
-7.1054274e-15
-7.1054274e-15
-2.1316282e-14
-1.4210855e-14
-1.4210855e-14
-7.1054274e-15
-7.1054274e-15
-1.4210855e-14
-7.1054274e-15
-1.4210855e-14
-7.1054274e-15
-2.1316282e-14
-2.1316282e-14
-2.1316282e-14
-2.8421709e-14
-2.8421709e-14
-3.5527137e-14
-2.1316282e-14
-2.8421709e-14
-2.8421709e-14
-2.1316282e-14
-2.1316282e-14
-3.5527137e-14
-2.8421709e-14
-2.8421709e-14
-2.8421709e-14
-2.8421709e-14
-3.5527137e-14
-2.1316282e-14
-4.2632564e-14
-3.5527137e-14
-3.5527137e-14
-2.8421709e-14
-1.4210855e-14
-2.8421709e-14
-2.1316282e-14
-1.4210855e-14
-2.8421709e-14
-2.1316282e-14
-1.4210855e-14
-2.1316282e-14
-2.8421709e-14
-1.4210855e-14
-1.4210855e-14
-2.1316282e-14
-1.4210855e-14
-2.1316282e-14
-1.4210855e-14
-1.4210855e-14
1.3433174e-31
-7.8886091e-31
7.1054274e-15
-1.9721523e-31
-3.2940578e-31
7.1054274e-15
2.1316282e-14
2.1316282e-14
2.8421709e-14
2.8421709e-14
2.8421709e-14
3.5527137e-14
2.8421709e-14
4.2632564e-14
3.5527137e-14
2.8421709e-14
3.5527137e-14
4.2632564e-14
3.5527137e-14
3.5527137e-14
2.8421709e-14
4.2632564e-14
5.6843419e-14
6.3948846e-14
7.1054274e-14
7.1054274e-14
6.3948846e-14
6.3948846e-14
7.1054274e-14
7.1054274e-14
7.8159701e-14
6.3948846e-14
7.1054274e-14
7.8159701e-14
8.5265128e-14
8.5265128e-14
8.5265128e-14
8.5265128e-14
7.1054274e-14
7.8159701e-14
7.1054274e-14
7.1054274e-14
7.1054274e-14
6.3948846e-14
6.3948846e-14
5.6843419e-14
5.6843419e-14
5.6843419e-14
4.2632564e-14
5.6843419e-14
5.6843419e-14
4.2632564e-14
5.6843419e-14
4.2632564e-14
3.5527137e-14
1.4210855e-14
2.1316282e-14
2.1316282e-14
1.4210855e-14
1.4210855e-14
1.4210855e-14
2.1316282e-14
7.1054274e-15
7.1054274e-15
7.1054274e-15
1.4210855e-14
1.4210855e-14
7.1054274e-15
7.1054274e-15
-7.1054274e-15
3.4619724e-31
-4.338735e-30
-4.15617e-30
-1.4210855e-14
7.1054274e-15
4.6159632e-31
3.1554436e-30
7.1054274e-15
1.4210855e-14
7.1054274e-15
7.1054274e-15
2.1316282e-14
7.1054274e-15
1.4210855e-14
-7.1054274e-15
-1.4210855e-14
-7.1054274e-15
-2.232251e-30
7.1054274e-15
7.1054274e-15
5.7338918e-30
-8.0074198e-43
1.4210855e-14
5.5220263e-30
7.1054274e-15
1.5777218e-30
-4.6159632e-31
-1.4210855e-14
-1.4210855e-14
-7.1054274e-15
-2.1316282e-14
-1.4210855e-14
-2.8421709e-14
-1.4210855e-14
-2.8421709e-14
-1.4210855e-14
-2.1316282e-14
-2.1316282e-14
-2.1316282e-14
-1.4210855e-14
-1.4210855e-14
-1.4210855e-14
-2.1316282e-14
-2.8421709e-14
-4.9737992e-14
-5.6843419e-14
-3.5527137e-14
-2.1316282e-14
-2.8421709e-14
-2.8421709e-14
-2.1316282e-14
-7.1054274e-15
-1.4210855e-14
-3.9443045e-31
8.8746852e-31
-7.1054274e-15
6.3108872e-30
7.1054274e-15
2.8421709e-14
2.1316282e-14
4.9737992e-14
4.9737992e-14
4.9737992e-14
4.2632564e-14
5.6843419e-14
5.6843419e-14
7.1054274e-14
8.5265128e-14
9.9475983e-14
1.0658141e-13
1.2789769e-13
1.4210855e-13
1.6342483e-13
1.8474111e-13
1.9895197e-13
2.1316282e-13
2.344791e-13
2.7000624e-13
3.126388e-13
3.5527137e-13
3.907985e-13
4.5474735e-13
5.1159077e-13
5.8264504e-13
6.6791017e-13
7.531753e-13
8.5265128e-13
9.6633812e-13
1.080025e-12
1.2221335e-12
1.3784529e-12
1.5489832e-12
1.7479351e-12
1.9682034e-12
2.2311042e-12
2.5224267e-12
2.8492764e-12
3.2187586e-12
3.623768e-12
4.106937e-12
4.6327386e-12
5.2367e-12
5.9117156e-12
6.6648909e-12
7.5104367e-12
8.4767748e-12
9.5567998e-12
1.0764722e-11
1.213607e-11
1.3670842e-11
1.5397461e-11
1.7337243e-11
1.953282e-11
2.1998403e-11
2.4783731e-11
2.7903013e-11
3.1391778e-11
3.5328185e-11
3.973355e-11
4.4693138e-11
5.0256688e-11
5.6488147e-11
6.3486993e-11
7.1331385e-11
8.0120799e-11
8.9976027e-11
1.0101786e-10
1.133813e-10
1.272511e-10
1.4275514e-10
1.6010659e-10
1.7952573e-10
2.0124702e-10
2.2555469e-10
2.5269742e-10
2.8303759e-10
3.169518e-10
3.5482373e-10
3.9715076e-10
4.4441606e-10
4.9715965e-10
5.5602101e-10
6.2169647e-10
6.9495343e-10
7.7663032e-10
8.6768637e-10
9.6917319e-10
1.082249e-09
1.2081998e-09
1.348468e-09
1.5046169e-09
1.6784298e-09
1.8718112e-09
2.0869351e-09
2.3261819e-09
2.5921736e-09
2.8878091e-09
3.2163285e-09
3.5812775e-09
3.986564e-09
4.4365436e-09
4.9360267e-09
5.4902927e-09
6.1051466e-09
6.7870758e-09
7.543143e-09
8.3812353e-09
9.3099075e-09
1.0338738e-08
1.1478171e-08
1.2739775e-08
1.4136241e-08
1.568155e-08
1.7391088e-08
1.9281778e-08
2.1372223e-08
2.3682865e-08
2.6236208e-08
2.9056928e-08
3.2172146e-08
3.5611627e-08
3.9408057e-08
4.359724e-08
4.8218531e-08
5.331502e-08
5.8933978e-08
6.5127153e-08
7.1951284e-08
7.9468485e-08
8.7746756e-08
9.6860482e-08
1.0689108e-07
1.1792757e-07
1.3006733e-07
1.4341671e-07
1.5809196e-07
1.7422003e-07
1.9193958e-07
2.114019e-07
2.3277209e-07
2.5623029e-07
2.8197287e-07
3.102139e-07
3.411867e-07
3.7514539e-07
4.1236674e-07
4.5315203e-07
4.9782911e-07
5.4675472e-07
6.0031677e-07
6.5893696e-07
7.2307362e-07
7.932247e-07
8.6993096e-07
9.537795e-07
1.0454075e-06
1.1455062e-06
1.2548255e-06
1.374178e-06
1.5044449e-06
1.6465804e-06
1.8016183e-06
1.9706777e-06
2.1549697e-06
2.3558048e-06
2.5746e-06
2.8128873e-06
3.0723227e-06
3.3546949e-06
3.6619356e-06
3.9961304e-06
4.35953e-06
4.7545621e-06
5.183845e-06
5.6502011e-06
6.1566718e-06
6.7065333e-06
7.3033134e-06
7.9508093e-06
8.653107e-06
9.4146011e-06
1.0240017e-05
1.1134433e-05
1.2103306e-05
1.3152495e-05
1.4288292e-05
1.5517447e-05
1.6847204e-05
1.8285328e-05
1.9840144e-05
2.1520573e-05
2.3336167e-05
2.5297156e-05
2.7414489e-05
2.9699876e-05
3.2165843e-05
3.4825779e-05
3.7693991e-05
4.0785759e-05
4.41174e-05
4.7706326e-05
5.1571114e-05
5.5731575e-05
6.0208826e-05
6.5025367e-05
7.0205163e-05
7.5773729e-05
8.1758216e-05
8.8187508e-05
9.5092316e-05
0.00010250528
0.00011046109
0.00011899656
0.00012815079
0.00013796527
0.00014848397
0.00015975355
0.00017182342
0.00018474593
0.0001985765
0.00021337379
0.00022919984
0.00024612023
0.00026420432
0.00028352532
0.00030416057
0.00032619169
0.00034970477
0.0003747906
0.00040154487
0.00043006838
0.00046046726
0.00049285323
0.00052734381
0.00056406257
0.00060313936
0.00064471061
0.00068891955
0.00073591651
0.00078585914
0.00083891276
0.00089525059
0.00095505405
0.0010185131
0.0010858264
0.0011572018
0.0012328565
0.0013130176
0.0013979218
0.0014878165
0.0015829598
0.0016836204
0.0017900785
0.0019026261
0.0020215668
0.0021472165
0.0022799039
0.0024199701
0.0025677699
0.0027236711
0.0028880555
0.003061319
0.0032438716
0.0034361383
0.0036385585
0.0038515871
0.0040756943
0.0043113658
0.0045591032
0.0048194242
0.0050928626
0.0053799687
0.0056813092
0.0059974678
0.0063290446
0.006676657
0.007040939
0.0074225419
0.0078221339
0.0082404002
0.0086780432
0.0091357821
0.0096143529
0.010114509
0.010637019
0.011182669
0.011752262
0.012346616
0.012966564
0.013612955
0.014286655
0.014988542
0.01571951
0.016480465
0.017272329
0.018096034
0.018952526
0.019842763
0.020767712
0.021728353
0.022725674
0.023760672
0.024834353
0.02594773
0.027101822
0.028297655
0.029536259
0.030818668
0.032145918
0.033519049
0.034939101
0.036407113
0.037924124
0.039491171
0.041109286
0.0427795
0.044502835
0.046280309
0.048112931
0.0500017
0.051947609
0.053951635
0.056014746
0.058137895
0.060322021
0.062568046
0.064876878
0.067249405
0.069686494
0.072188995
0.074757735
0.077393519
0.080097127
0.082869318
0.085710823
0.088622345
0.091604564
0.094658127
0.097783654
0.10098174
0.10425293
0.10759776
0.11101673
0.1145103
0.11807889
0.12172289
0.12544267
0.12923855
0.1331108
0.13705969
0.14108543
0.14518819
0.1493681
0.15362527
0.15795975
0.16237158
0.16686073
0.17142715
0.17607074
0.18079137
0.18558887
0.19046303
0.1954136
0.20044028
0.20554276
0.21072067
0.21597359
0.2213011
0.22670271
0.2321779
0.23772611
0.24334677
0.24903924
0.25480285
0.26063692
0.2665407
0.27251342
0.27855429
0.28466247
0.29083709
0.29707725
0.30338201
0.30975042
0.31618147
0.32267414
0.32922737
0.33584009
0.34251118
0.3492395
0.35602389
0.36286315
0.36975606
0.37670138
0.38369784
0.39074414
0.39783899
0.40498102
0.4121689
0.41940122
0.4266766
0.43399361
0.44135081
0.44874674
0.45617992
0.46364885
0.47115203
0.47868792
0.48625497
0.49385163
0.50147631
0.50912744
0.51680341
0.52450259
0.53222337
0.5399641
0.54772313
0.55549879
0.56328941
0.57109332
0.57890881
0.58673418
0.59456773
0.60240774
0.61025248
0.61810023
0.62594924
0.63379778
0.64164409
0.64948643
0.65732303
0.66515213
0.67297197
0.68078077
0.68857677
0.6963582
0.7041233
0.71187029
0.71959741
0.7273029
0.73498499
0.74264191
0.75027192
0.75787326
0.76544418
0.77298294
0.78048781
0.78795705
0.79538894
0.80278178
0.81013386
0.81744349
0.824709
0.83192871
0.83910097
0.84622414
0.85329661
0.86031676
0.867283
0.87419377
0.88104752
0.88784271
0.89457784
0.90125143
0.90786201
0.91440816
0.92088846
0.92730155
0.93364607
0.9399207
0.94612416
0.95225521
0.95831261
0.9642952
0.97020183
0.9760314
0.98178284
0.98745513
0.99304729
0.99855839
1.0039875
1.0093339
1.0145967
1.0197751
1.0248685
1.0298762
1.0347977
1.0396323
1.0443797
1.0490393
1.0536108
1.058094
1.0624884
1.066794
1.0710106
1.0751381
1.0791765
1.0831258
1.0869862
1.0907577
1.0944406
1.0980352
1.1015417
1.1049607
1.1082926
1.1115378
1.1146969
1.1177707
1.1207597
1.1236646
1.1264864
1.1292258
1.1318836
1.134461
1.1369588
1.1393781
1.14172
1.1439856
1.146176
1.1482925
1.1503364
1.1523088
1.1542111
1.1560446
1.1578107
1.1595108
1.1611463
1.1627187
1.1642293
1.1656796
1.1670712
1.1684054
1.1696839
1.1709081
1.1720795
1.1731996
1.1742699
1.1752919
1.1762672
1.1771971
1.1780833
1.178927
1.1797299
1.1804932
1.1812185
1.1819072
1.1825605
1.1831799
1.1837667
1.1843222
1.1848476
1.1853443
1.1858134
1.1862562
1.1866737
1.1870672
1.1874378
1.1877864
1.1881142
1.1884222
1.1887112
1.1889824
1.1892366
1.1894746
1.1896974
1.1899056
1.1901002
1.1902819
1.1904514
1.1906093
1.1907564
1.1908933
1.1910206
1.1911389
1.1912486
1.1913504
1.1914448
1.1915321
1.191613
1.1916877
1.1917567
1.1918204
1.1918791
1.1919332
1.191983
1.1920288
1.1920709
1.1921095
1.1921449
1.1921774
1.1922071
1.1922342
1.1922591
1.1922817
1.1923024
1.1923212
1.1923383
1.1923539
1.192368
1.1923808
1.1923924
1.1924029
1.1924124
1.192421
1.1924287
1.1924356
1.1924418
1.1924473
1.1924523
1.1924568
1.1924607
1.1924643
1.1924674
1.1924702
1.1924726
1.1924748
1.1924767
1.1924784
1.1924799
1.1924812
1.1924825
1.1924837
1.1924849
1.192486
1.1924871
1.1924884
1.1924899
1.1924913
1.1924928
1.1924944
1.192496
1.1924975
1.192499
1.1925006
1.1925023
1.1925038
1.1925052
1.1925066
1.192508
1.1925092
1.1925103
1.1925114
1.1925125
1.1925135
1.1925144
1.1925151
1.1925159
1.1925167
1.1925175
1.1925181
1.1925187
1.1925195
1.1925203
1.192521
1.1925218
1.1925227
1.1925236
1.1925244
1.1925253
1.1925263
1.1925272
1.192528
1.1925289
1.1925299
1.1925309
1.1925318
1.1925327
1.1925335
1.1925345
1.1925354
1.1925361
1.1925369
1.1925378
1.1925387
1.1925395
1.1925403
1.1925411
1.1925419
1.1925427
1.1925435
1.1925442
1.192545
1.1925458
1.1925465
1.1925471
1.1925479
1.1925485
1.1925492
1.1925498
1.1925504
1.192551
1.1925515
1.192552
1.1925525
1.1925529
1.1925534
1.1925539
1.1925544
1.1925547
1.192555
1.1925552
1.1925557
1.1925561
1.1925565
1.1925569
1.1925572
1.1925575
1.1925577
1.1925578
1.1925578
1.192558
1.1925582
1.1925583
1.1925585
1.1925589
1.1925594
1.1925599
1.1925604
1.1925609
1.1925613
1.1925619
1.1925625
1.1925631
1.1925636
1.1925642
1.1925647
1.1925652
1.1925656
1.1925659
1.1925662
1.1925664
1.1925666
1.1925667
1.1925667
1.1925667
1.1925668
1.1925669
1.192567
1.192567
1.1925672
1.1925676
1.1925681
1.1925687
1.1925692
1.1925696
1.1925701
1.1925705
1.1925709
1.1925712
1.1925714
1.1925716
1.1925718
1.1925719
1.1925719
1.1925719
1.1925719
1.1925718
1.1925717
1.1925716
1.1925715
1.1925712
1.192571
1.1925706
1.1925704
1.1925701
1.1925699
1.1925696
1.1925694
1.1925693
1.1925692
1.1925692
1.1925692
1.1925692
1.1925692
1.1925692
1.1925694
1.1925696
1.1925698
1.1925701
1.1925703
1.1925705
1.1925707
1.1925709
1.192571
1.1925712
1.1925713
1.1925714
1.1925715
1.1925716
1.1925716
1.1925716
1.1925715
1.1925715
1.1925714
1.1925713
1.1925712
1.192571
1.1925708
1.1925706
1.1925704
1.1925701
1.1925698
1.1925694
1.1925691
1.1925687
1.1925684
1.1925681
1.1925677
1.1925674
1.1925671
1.1925667
1.1925664
1.1925661
1.1925658
1.1925656
1.1925654
1.1925652
1.192565
1.1925648
1.1925646
1.1925644
1.1925643
1.1925641
1.192564
1.1925638
1.1925637
1.1925636
1.1925634
1.1925633
1.1925631
1.1925629
1.1925628
1.1925626
1.1925624
1.1925622
1.192562
1.1925617
1.1925615
1.1925612
1.1925609
1.1925606
1.1925603
1.1925601
1.1925598
1.1925594
1.1925591
1.1925587
1.1925584
1.192558
1.1925576
1.1925572
1.1925568
1.1925565
1.1925561
1.1925557
1.1925553
1.1925549
1.1925545
1.1925542
1.1925538
1.1925534
1.1925531
1.1925527
1.1925524
1.1925521
1.1925518
1.1925515
1.1925512
1.1925509
1.1925507
1.1925504
1.1925502
1.19255
1.1925498
1.1925496
1.1925494
1.1925492
1.192549
1.1925488
1.1925486
1.1925484
1.1925482
1.1925481
1.1925479
1.1925477
1.1925475
1.1925474
1.1925472
1.192547
1.1925467
1.1925465
1.1925463
1.192546
1.1925458
1.1925455
1.1925453
1.192545
1.1925447
1.1925444
1.1925441
1.1925438
1.1925435
1.1925432
1.1925429
1.1925426
1.1925423
1.1925419
1.1925416
1.1925413
1.192541
1.1925406
1.1925403
1.19254
1.1925396
1.1925393
1.192539
1.1925387
1.1925384
1.1925381
1.1925377
1.1925374
1.1925371
1.1925368
1.1925365
1.1925362
1.192536
1.1925357
1.1925354
1.1925352
1.1925349
1.1925347
1.1925345
1.1925342
1.192534
1.1925338
1.1925336
1.1925334
1.1925332
1.192533
1.1925327
1.1925326
1.1925324
1.1925322
1.192532
1.1925318
1.1925316
1.1925314
1.1925313
1.1925311
1.1925309
1.1925307
1.1925305
1.1925304
1.1925302
1.19253
1.1925298
1.1925296
1.1925294
1.1925292
1.192529
1.1925288
1.1925285
1.1925283
1.1925281
1.1925279
1.1925277
1.1925274
1.1925272
1.192527
1.1925267
1.1925265
1.1925263
1.192526
1.1925258
1.1925256
1.1925253
1.1925251
1.1925249
1.1925247
1.1925244
1.1925242
1.192524
1.1925238
1.1925236
1.1925234
1.1925232
1.192523
1.1925228
1.1925225
1.1925223
1.1925221
1.192522
1.1925218
1.1925216
1.1925214
1.1925212
1.192521
1.1925208
1.1925206
1.1925204
1.1925202
1.19252
1.1925198
1.1925196
1.1925193
1.1925191
1.1925189
1.1925187
1.1925184
1.1925182
1.1925179
1.1925177
1.1925175
1.1925172
1.1925169
1.1925167
1.1925164
1.1925161
1.1925158
1.1925155
1.1925153
1.192515
1.1925147
1.1925143
1.192514
1.1925137
1.1925135
1.1925132
1.1925129
1.1925126
1.1925123
1.192512
1.1925116
1.1925113
1.192511
1.1925107
1.1925104
1.1925101
1.1925098
1.1925095
1.1925092
1.192509
1.1925087
1.1925084
1.1925081
1.1925078
1.1925075
1.1925072
1.1925069
1.1925067
1.1925065
1.1925062
1.192506
1.1925058
1.1925055
1.1925053
1.192505
1.1925047
1.1925045
1.1925042
1.192504
1.1925038