/*--------------------------------*- C++ -*----------------------------------*\
  =========                 |
  \\      /  F ield         | OpenFOAM: The Open Source CFD Toolbox
   \\    /   O peration     | Website:  https://openfoam.org
    \\  /    A nd           | Version:  7
     \\/     M anipulation  |
\*---------------------------------------------------------------------------*/
FoamFile
{
    version     2.0;
    format      ascii;
    class       volScalarField;
    location    "0.00051";
    object      Uy;
}
// * * * * * * * * * * * * * * * * * * * * * * * * * * * * * * * * * * * * * //

dimensions      [0 1 -1 0 0 0 0];

internalField   nonuniform List<scalar> 
5000
(
0
1.013294e-28
0
0
1.519941e-28
-1.1519819e-43
-2.026588e-28
0
0
1.013294e-28
2.241296e-43
5.06647e-29
8.3390259e-43
-5.45244e-43
0
5.06647e-29
-1.5612266e-55
5.06647e-29
0
-5.06647e-29
2.026588e-28
5.06647e-29
2.026588e-28
-1.519941e-28
-1.519941e-28
4.1350036e-56
1.013294e-28
5.06647e-29
1.013294e-28
-1.7567724e-42
2.6567583e-42
-5.06647e-29
8.847221e-43
-3.039882e-28
3.5135448e-42
-8.8126615e-42
1.7567724e-42
1.6308857e-42
-2.8267538e-42
3.9932911e-42
3.039882e-28
-2.4393217e-41
-5.06647e-28
1.519941e-28
7.599705e-28
-1.013294e-28
1.519941e-28
1.3881382e-41
2.026588e-28
0
-5.06647e-29
1.4399774e-44
1.013294e-28
-2.026588e-28
3.5423443e-42
3.039882e-28
1.013294e-28
1.1163898e-55
2.533235e-28
0
-5.06647e-29
-3.4559457e-42
-8.6398642e-44
-2.533235e-28
1.519941e-28
1.7711722e-42
1.013294e-28
1.519941e-28
2.026588e-28
-1.519941e-28
-1.013294e-28
1.519941e-28
1.013294e-28
4.053176e-28
3.546529e-28
-3.546529e-28
0
-1.519941e-28
4.3199321e-44
2.533235e-28
-2.533235e-28
8.6398642e-44
-4.3199321e-44
-2.533235e-28
-5.573117e-28
-8.8198614e-42
-5.928786e-42
0
-1.013294e-28
-2.102367e-41
6.3525562e-56
-1.519941e-28
-1.013294e-28
-1.013294e-28
-1.7531725e-41
3.546529e-28
0
0
-5.06647e-28
-4.2162538e-41
8.106352e-28
-1.519941e-28
-3.039882e-28
0
5.06647e-29
1.013294e-28
-5.06647e-29
-5.06647e-29
0
0
-5.06647e-29
3.433455e-42
0
-8.5528471e-44
1.7711722e-42
5.06647e-29
5.06647e-29
-1.4399774e-44
4.8586921e-57
1.6472184e-71
-2.026588e-28
4.3199321e-44
-1.519941e-28
0
-1.519941e-28
1.290929e-42
-4.3722818e-43
1.013294e-28
5.06647e-29
1.013294e-28
2.2451224e-43
-1.4967482e-43
-1.013294e-28
-1.013294e-28
0
-5.06647e-29
-2.026588e-28
2.533235e-28
5.2703172e-42
-1.013294e-28
5.06647e-29
-1.013294e-28
0
3.039882e-28
2.533235e-28
-3.039882e-28
3.039882e-28
-5.7599095e-44
-1.013294e-28
3.039882e-28
-3.039882e-28
1.4111778e-41
1.519941e-28
5.06647e-29
-1.013294e-28
5.06647e-29
1.519941e-28
0
0
2.026588e-28
4.559823e-28
-4.053176e-28
-2.026588e-28
2.026588e-28
2.1081269e-41
-1.013294e-28
1.013294e-28
2.026588e-28
0
-5.06647e-28
-3.546529e-28
0
1.519941e-28
1.013294e-28
0
-1.013294e-28
5.2703172e-41
-5.06647e-29
-1.519941e-28
-1.519941e-28
1.013294e-28
1.0497435e-41
-3.4847452e-41
-3.2399491e-43
-4.559823e-28
2.026588e-28
2.1081269e-41
-6.9694905e-42
1.0454236e-41
-2.533235e-28
0
0
-5.06647e-29
-2.533235e-28
0
0
2.533235e-28
4.8788331e-57
-2.533235e-28
0
1.013294e-28
-1.519941e-28
-8.4238676e-41
4.053176e-28
-5.06647e-29
1.0519035e-41
7.1998869e-45
1.519941e-28
-3.546529e-28
3.5999434e-44
2.8050759e-41
-1.402538e-41
1.519941e-28
0
-1.013294e-28
-7.0126898e-42
2.8122758e-41
2.533235e-28
0
1.013294e-28
4.053176e-28
0
0
0
1.519941e-28
1.0519035e-41
-1.013294e-28
0
0
1.519941e-28
2.026588e-28
-1.013294e-28
-1.519941e-28
0
2.026588e-28
2.533235e-28
1.519941e-28
2.026588e-28
0
5.06647e-29
-2.8137158e-41
-1.0540634e-41
2.026588e-28
-2.026588e-28
-1.519941e-28
0
5.06647e-29
-2.1124468e-41
5.06647e-29
7.0270896e-42
1.0779478e-42
-3.039882e-28
4.2162538e-41
3.5178647e-41
7.0126898e-42
3.039882e-28
-4.053176e-28
-1.519941e-28
0
-1.519941e-28
-2.026588e-28
0
-5.06647e-29
-2.026588e-28
3.039882e-28
5.9507947e-42
6.4949334e-42
-1.519941e-28
-4.2162538e-41
1.013294e-28
-4.5582267e-42
4.6859436e-55
1.120394e-41
1.013294e-28
7.0414894e-42
-1.4111778e-41
1.4399774e-44
-6.99829e-42
1.013294e-28
0
0
5.06647e-29
1.013294e-28
0
0
0
0
-5.06647e-29
-3.4919451e-42
2.026588e-28
-4.3199321e-44
-1.013294e-28
1.013294e-28
-2.1102868e-41
-1.4039779e-41
-5.0399208e-44
-1.013294e-28
-2.195148e-41
-3.546529e-28
6.079764e-28
3.039882e-28
5.06647e-29
-3.3956316e-42
0
6.8215633e-42
-5.06647e-29
-5.06647e-29
4.3199321e-44
-4.3199321e-44
-1.4399774e-44
-1.013294e-28
-1.013294e-28
5.06647e-29
-1.013294e-28
6.8964008e-42
-4.8788331e-57
-1.519941e-28
-1.4039779e-41
-5.06647e-28
0
0
1.013294e-28
-1.4068579e-40
-8.106352e-28
0
3.039882e-28
2.026588e-28
5.06647e-29
4.3482335e-60
9.0060704e-55
-4.3199321e-44
-4.559823e-28
1.519941e-28
-7.5865267e-42
0
5.06647e-29
2.1102868e-41
1.519941e-28
5.3455294e-43
2.8108358e-41
5.06647e-29
-2.8137158e-41
-1.013294e-28
4.053176e-28
2.533235e-28
-1.519941e-28
-1.4399774e-44
-1.013294e-28
0
0
-4.7040659e-43
2.8108358e-41
3.039882e-28
2.1599661e-44
4.559823e-28
-1.013294e-28
-5.06647e-29
6.6284565e-43
2.026588e-28
-2.533235e-28
-3.039882e-28
1.519941e-28
1.013294e-28
1.013294e-28
-1.519941e-28
1.4525934e-69
2.533235e-28
-3.546529e-28
2.026588e-28
2.533235e-28
8.4238676e-41
4.3199321e-44
3.039882e-28
-6.079764e-28
1.013294e-28
-1.4068579e-41
1.4054179e-41
-5.06647e-29
-1.013294e-28
-3.039882e-28
-5.6216717e-41
1.6865015e-40
-7.0198897e-41
4.053176e-28
-4.053176e-28
1.4054179e-41
2.026588e-28
0
0
-5.06647e-29
7.0270896e-42
1.519941e-28
-5.06647e-29
1.519941e-28
6.079764e-28
-1.013294e-28
2.026588e-28
4.3199321e-44
1.519941e-28
0
-3.039882e-28
-1.013294e-28
-2.026588e-28
-6.079764e-28
-2.026588e-28
-1.013294e-28
-4.053176e-28
5.5964555e-41
3.1852129e-43
0
-4.053176e-28
1.013294e-28
-3.039882e-28
2.026588e-28
2.026588e-28
-3.5999434e-44
2.1102868e-41
1.013294e-28
-1.519941e-28
-4.1753697e-41
-1.519941e-28
-7.0270896e-42
-7.1998869e-45
7.0270896e-42
-1.519941e-28
1.519941e-28
2.1102868e-41
1.4068579e-41
-1.4061379e-41
-5.06647e-29
-1.519941e-28
-2.08363e-54
-7.7393307e-54
7.1998869e-45
-8.106352e-28
-5.06647e-28
3.039882e-28
5.06647e-28
-1.4068579e-41
-1.013294e-28
-5.06647e-29
1.013294e-28
1.4424679e-41
1.4061183e-41
-1.013294e-28
-1.4061379e-41
-2.5658541e-43
0
0
-2.533235e-28
0
1.013294e-28
-2.533235e-28
-2.9316296e-56
-4.2184137e-41
0
2.026588e-28
-1.013294e-28
6.0939035e-43
5.06647e-28
4.559823e-28
-5.06647e-28
0
0
1.013294e-28
2.8151558e-41
1.013294e-28
0
0
1.519941e-28
-6.3330205e-41
-1.519941e-28
0
0
0
0
0
0
0
0
-3.039882e-28
-1.9685931e-40
1.519941e-28
5.06647e-29
-1.519941e-28
-1.3623955e-41
7.0414894e-41
1.519941e-28
4.2027407e-68
5.06647e-29
0
0
-5.6776201e-42
2.8137158e-41
5.06647e-29
0
0
0
0
0
0
0
3.039882e-28
4.2176937e-41
2.026588e-28
5.8981473e-45
7.1998869e-45
1.013294e-28
2.8093959e-41
8.106352e-28
2.533235e-28
-4.8788331e-57
-3.039882e-28
0
-2.026588e-28
0
0
1.013294e-28
-3.5795798e-54
-6.079764e-28
2.533235e-28
1.013294e-28
1.3761834e-41
1.013294e-28
-1.519941e-28
-5.6216717e-41
1.519941e-28
-1.519941e-28
0
-2.533235e-28
4.053176e-28
4.053176e-28
-1.013294e-28
-1.013294e-28
1.013294e-28
-5.06647e-29
6.079764e-28
2.533235e-28
-1.4552972e-41
0
5.06647e-29
-8.2431677e-43
6.144339e-42
1.519941e-28
5.7599095e-44
-2.026588e-28
1.519941e-28
2.8137158e-41
1.519941e-28
-7.1998869e-44
-6.079764e-28
2.026588e-28
0
-2.8137158e-41
-2.1599661e-44
-5.06647e-29
-5.06647e-29
5.6274316e-41
4.2162538e-41
2.8799547e-44
5.06647e-29
5.06647e-29
-4.8788331e-57
-1.4068579e-41
7.1998869e-45
1.45338e-41
2.8108358e-41
-1.519941e-28
0
0
2.533235e-28
8.9977545e-54
5.06647e-29
5.06647e-29
-7.0342895e-42
3.9030665e-56
3.5171447e-41
-1.519941e-28
-3.546529e-28
-6.3243806e-41
2.026588e-28
0
0
-1.013294e-28
1.519941e-28
-1.2653081e-40
-1.013294e-28
5.06647e-29
0
1.519941e-28
-5.06647e-29
2.026588e-28
2.026588e-28
0
-1.013294e-28
5.06647e-29
-3.039882e-28
-1.519941e-28
5.2350058e-44
-6.2549372e-42
3.5135448e-41
5.06647e-29
-7.0342895e-41
3.039882e-28
0
0
0
-1.013294e-28
-5.06647e-29
0
3.546529e-28
4.2119338e-41
5.06647e-29
0
0
-3.039882e-28
-2.1081269e-41
7.0198897e-42
-5.06647e-29
1.013294e-28
-2.1081269e-41
5.06647e-29
0
5.06647e-29
-2.1102868e-41
-5.06647e-29
5.06647e-29
-5.06647e-29
-1.013294e-28
-5.06647e-29
0
1.013294e-28
1.013294e-28
-2.026588e-28
8.4901459e-43
0
-2.533235e-28
2.533235e-28
2.026588e-28
-1.519941e-28
1.013294e-28
1.5443439e-53
3.039882e-28
-4.8788331e-57
1.4285695e-41
-2.7043675e-41
1.1243343e-40
5.06647e-28
-2.026588e-28
1.013294e-28
6.0939035e-43
-5.06647e-29
-3.039882e-28
0
0
5.6641407e-41
7.806133e-56
2.026588e-28
0
0
-1.013294e-28
1.0916801e-68
-1.013294e-28
0
0
-8.9804894e-43
-5.06647e-29
-2.8571391e-41
-1.519941e-28
0
-2.026588e-28
-2.8137158e-41
-1.013294e-28
1.6036588e-43
0
-5.06647e-29
1.013294e-28
-3.5999434e-44
-2.533235e-28
3.039882e-28
-3.039882e-28
-1.013294e-28
1.013294e-28
3.546529e-28
-5.6274316e-41
-1.013294e-28
5.06647e-29
-1.4068579e-41
-1.46385e-41
2.866761e-41
-1.519941e-28
1.013294e-28
-2.026588e-28
1.013294e-28
-7.0342895e-41
-3.039882e-28
3.039882e-28
-3.5999434e-44
-1.519941e-28
5.06647e-29
1.519941e-28
3.039882e-28
-2.026588e-28
5.6256529e-41
-8.4454673e-41
-2.026588e-28
-5.06647e-29
7.1998869e-45
3.039882e-28
4.3199321e-44
1.519941e-28
0
-5.06647e-29
0
2.533235e-28
0
0
0
1.519941e-28
9.7576662e-57
1.519941e-28
0
5.06647e-29
1.8702774e-55
1.013294e-28
0
0
0
1.013294e-28
-7.0342895e-41
-1.519941e-28
0
-1.013294e-28
-1.4061379e-41
1.1275108e-55
0
2.026588e-28
-1.013294e-28
-8.4454673e-41
-3.039882e-28
4.053176e-28
0
-1.013294e-28
1.4068579e-41
-3.039882e-28
0
-1.013294e-28
2.026588e-28
2.2509726e-40
-4.559823e-28
2.8129958e-41
-7.1998869e-45
-5.6303115e-41
4.3199321e-44
3.039882e-28
0
-1.519941e-28
4.2184137e-41
-1.4061379e-41
-1.1911214e-72
-2.8137158e-41
0
-2.026588e-28
-5.6274316e-41
8.5528471e-44
2.026588e-28
-1.4061379e-41
2.5658541e-43
-8.5528471e-44
5.6274316e-41
-9.8480053e-41
2.026588e-28
-5.06647e-29
-5.06647e-29
0
5.06647e-29
3.8593026e-56
-5.06647e-29
0
0
0
2.026588e-28
-2.2509726e-40
-6.079764e-28
0
0
0
0
0
0
0
1.1251306e-40
-1.4075779e-40
-3.039882e-28
1.9243906e-43
-5.06647e-29
5.06647e-29
-4.2227337e-41
1.5902546e-53
2.8557012e-41
5.06647e-29
-1.013294e-28
-5.06647e-29
-1.519941e-28
-2.533235e-28
2.8122758e-41
-2.533235e-28
-1.519941e-28
1.4054179e-41
1.013294e-28
-2.7994074e-41
-1.4140814e-41
1.4078878e-41
1.4078878e-41
-1.519941e-28
0
-1.013294e-28
-1.013294e-28
0
1.013294e-28
-1.519941e-28
5.06647e-29
2.026588e-28
-3.546529e-28
5.06647e-29
-1.4068579e-41
-5.06647e-29
-1.013294e-28
-2.8799547e-44
3.039882e-28
5.6259916e-41
-1.81748e-43
-5.06647e-29
0
2.026588e-28
0
0
0
2.026588e-28
1.519941e-28
-1.013294e-28
-2.026588e-28
0
1.3580086e-41
-2.8151558e-41
-1.013294e-28
0
0
-1.013294e-28
1.1249103e-40
2.533235e-28
0
0
-2.026588e-28
8.4368274e-41
5.06647e-29
0
2.9007514e-41
5.6274316e-41
-4.2184137e-41
1.4068579e-41
-1.013294e-28
0
-2.026588e-28
8.4346675e-41
5.06647e-29
0
1.013294e-28
0
-1.0691059e-43
1.013294e-28
3.9240101e-54
2.026588e-28
-5.6274316e-41
-5.06647e-29
0
0
-2.026588e-28
9.8429653e-41
1.013294e-28
0
2.026588e-28
-2.533235e-28
-3.546529e-28
4.053176e-28
0
-5.06647e-28
4.053176e-28
1.9685931e-40
-1.4061379e-40
1.013294e-28
-8.4382674e-41
2.026588e-28
-2.026588e-28
8.4368274e-41
-1.1254863e-40
-2.026588e-28
1.1243343e-40
4.053176e-28
0
0
0
-3.039882e-28
5.06647e-29
-4.053176e-28
-2.533235e-28
0
0
1.013294e-28
-1.9515332e-56
-2.533235e-28
0
1.013294e-28
2.533235e-28
-7.093058e-28
-3.546529e-28
0
4.053176e-28
4.3199321e-44
1.519941e-28
-5.6216717e-41
-6.079764e-28
4.053176e-28
1.4399774e-43
-1.519941e-28
4.2227337e-41
2.8108358e-41
-1.013294e-28
0
-2.026588e-28
1.1251983e-40
3.039882e-28
-2.026588e-28
5.0612325e-40
1.519941e-28
-1.013294e-28
1.4399774e-44
2.533235e-28
0
0
0
2.026588e-28
-1.013294e-28
0
-3.2073177e-43
2.8137158e-41
4.2162538e-41
1.013294e-28
0
1.013294e-28
-7.1998869e-45
4.2764235e-44
4.2764235e-44
2.8108358e-41
-5.06647e-29
5.06647e-29
-5.6303115e-41
-3.039882e-28
0
-2.533235e-28
-2.026588e-28
0
2.026588e-28
1.519941e-28
-2.026588e-28
0
1.3960171e-41
0
0
1.013294e-28
-8.4382674e-41
-1.0088255e-55
0
0
-1.519941e-28
-2.026588e-28
1.013294e-28
2.026588e-28
-3.039882e-28
-1.013294e-28
-1.013294e-28
-1.519941e-28
1.4075779e-41
-2.026588e-28
1.6865015e-40
1.4054179e-40
-1.013294e-28
2.026588e-28
-3.546529e-28
3.546529e-28
3.4559457e-43
-2.533235e-28
2.026588e-28
5.06647e-29
5.06647e-29
-1.013294e-28
-3.039882e-28
5.06647e-29
1.519941e-28
-5.06647e-29
8.9060829e-56
-2.5658541e-43
-5.06647e-29
-1.4061379e-41
7.0378894e-41
1.519941e-28
0
0
5.06647e-29
-1.4018419e-41
0
2.533235e-28
1.519941e-28
0
-3.546529e-28
1.2661721e-40
3.546529e-28
-3.546529e-28
8.4325075e-41
1.013294e-28
0
1.519941e-28
8.4389874e-41
1.013294e-28
-3.039882e-28
7.0234896e-41
5.06647e-29
-1.519941e-28
-4.2184137e-41
5.06647e-29
0
5.06647e-29
-1.3868744e-41
4.3199321e-44
1.5573441e-53
2.026588e-28
-5.06647e-29
0
3.039882e-28
-4.4996413e-40
-1.013294e-28
-2.8122758e-41
-3.039882e-28
3.039882e-28
3.039882e-28
-1.013294e-28
3.039882e-28
1.013294e-28
0
-3.546529e-28
-5.06647e-28
3.5999434e-44
-3.546529e-28
2.533235e-28
5.06647e-29
4.2764235e-44
2.026588e-28
-3.039882e-28
-1.6876535e-40
2.026588e-28
-3.039882e-28
8.4368274e-41
-5.06647e-29
5.06647e-29
5.06647e-29
1.519941e-28
4.2162538e-41
5.7731718e-43
1.013294e-28
3.039882e-28
-1.013294e-28
1.4061379e-41
-1.519941e-28
8.4411474e-41
-1.013294e-28
-2.8122758e-41
1.9515332e-56
-1.519941e-28
-2.026588e-28
-5.06647e-29
-4.3909498e-56
5.06647e-29
3.375883e-40
-1.519941e-28
1.013294e-28
-5.6245516e-41
3.039882e-28
4.8788331e-57
-1.013294e-28
0
0
1.013294e-28
5.06647e-29
-2.8091399e-41
0
0
0
-5.06647e-29
-2.533235e-28
0
1.013294e-28
-1.013294e-28
8.4382674e-41
-3.039882e-28
0
0
0
3.039882e-28
3.039882e-28
-1.013294e-28
5.06647e-29
7.8051056e-54
1.013294e-28
0
0
-4.053176e-28
8.6398642e-44
2.026588e-28
-5.06647e-29
-5.06647e-29
5.06647e-29
2.8137158e-41
5.06647e-28
0
0
-5.06647e-29
-1.013294e-28
0
0
-9.3012212e-43
-4.0626024e-43
0
-2.533235e-28
-1.519941e-28
1.013294e-28
-1.013294e-28
2.026588e-28
-5.06647e-29
2.026588e-28
1.5637033e-53
1.519941e-28
-1.519941e-28
-4.0805833e-54
-1.519941e-28
0
-1.519941e-28
-2.8129958e-41
-1.519941e-28
2.533235e-28
-1.6877975e-40
-1.013294e-28
0
1.013294e-28
-7.0342895e-41
-3.5999434e-44
1.519941e-28
-1.013294e-28
-5.06647e-29
0
1.013294e-28
-5.6274316e-41
1.519941e-28
4.3199321e-44
3.039882e-28
-4.053176e-28
-5.06647e-28
4.053176e-28
-5.06647e-29
0
-1.013294e-28
1.6870775e-40
3.039882e-28
0
-1.013294e-28
-2.8137158e-41
1.519941e-28
1.4068579e-41
-1.013294e-28
2.026588e-28
3.7963564e-40
-5.06647e-28
5.06647e-28
1.5653126e-53
2.026588e-28
2.026588e-28
-6.079764e-28
-2.026588e-28
-5.0139587e-44
1.013294e-28
-3.7963564e-40
7.093058e-28
-9.119646e-28
9.8480053e-41
1.013294e-28
-3.9351702e-40
-7.599705e-28
-2.8122758e-41
-5.06647e-28
5.06647e-29
-1.013294e-28
1.0691059e-43
-5.9358693e-56
0
0
-5.06647e-29
1.013294e-28
8.4382674e-41
-5.6252716e-41
-2.8108358e-41
-5.06647e-29
0
-2.533235e-28
-2.026588e-28
0
0
0
0
0
-1.519941e-28
-2.026588e-28
0
2.533235e-28
-1.013294e-28
8.4397074e-41
1.013294e-28
0
0
0
5.06647e-29
2.1382118e-44
-5.929289e-57
5.06647e-29
-4.053176e-28
-3.3764589e-40
-1.013294e-28
0
1.013294e-28
5.9077952e-40
-3.546529e-28
2.026588e-28
-3.546529e-28
3.546529e-28
1.1249103e-40
-8.106352e-28
0
0
1.519941e-28
3.546529e-28
0
9.119646e-28
3.4559457e-43
1.2666175e-27
-1.3679469e-27
-4.8638112e-27
0
-4.053176e-27
-4.8638112e-27
0
9.5756283e-27
7.599705e-27
-8.8156578e-27
5.2184641e-27
6.079764e-27
-2.0823192e-26
-7.7010344e-27
-1.1879813e-42
-9.3729695e-27
1.0538258e-26
1.175421e-26
1.3426145e-26
-7.806133e-56
1.7175333e-26
1.9657904e-26
-2.2089809e-26
0
-5.6440476e-26
-6.3128216e-26
0
4.0177107e-26
9.0183166e-26
2.8199905e-38
5.7301775e-26
1.28891e-25
-1.451037e-25
-1.6364698e-25
-9.2260418e-26
-1.0381197e-25
0
1.3096825e-25
4.4184685e-25
-1.6582556e-25
1.1170576e-52
6.2758364e-25
-4.6986443e-25
-2.6386176e-25
-2.9603384e-25
-6.6431554e-25
7.4507507e-25
4.1767978e-25
-4.6834448e-25
-5.2513961e-25
-5.8841982e-25
1.9772912e-24
7.38286e-25
-2.4802397e-24
-9.255934e-25
1.0360424e-24
2.319126e-24
-1.297219e-24
1.4504797e-24
-2.699577e-36
3.0181995e-36
6.0752041e-24
-2.2621282e-24
-2.5263953e-24
-5.6424263e-24
-3.1493684e-24
7.0290178e-24
1.1144129e-39
4.3735795e-24
-4.8770853e-24
-1.6310031e-23
1.8177126e-23
6.7511726e-24
-2.2560332e-23
0
2.7970258e-23
1.0377144e-23
-3.4640215e-23
1.2844464e-23
2.8568507e-23
8.8152473e-36
-1.9593711e-35
-1.9614484e-23
0
-4.8398468e-23
-5.3735285e-23
2.9822306e-23
3.309327e-23
7.3425411e-23
-4.0716483e-23
-4.5144173e-23
1.000797e-22
0
-1.2286068e-22
-1.3607039e-22
7.532934e-23
1.6676428e-22
-5.1216717e-35
-1.020763e-22
2.2578703e-22
-1.2482166e-22
4.5950607e-34
3.0492499e-22
-1.6842836e-22
0
-4.1075169e-22
0
5.554679e-34
2.7594625e-22
6.0864487e-22
-1.0065613e-21
1.0510648e-37
8.1497503e-22
0
-9.8864096e-22
-5.4421082e-22
1.1979248e-21
-7.3171761e-34
-7.2491159e-22
1.5942925e-21
-8.7632224e-22
1.6034746e-33
2.1162349e-21
-1.1621906e-21
1.276124e-21
-2.8016267e-21
-4.6116936e-21
0
5.5487093e-21
4.0557651e-21
-6.6681712e-21
-4.8711157e-21
2.6679732e-21
5.8433824e-21
-3.1985762e-21
-3.5006476e-21
7.6601822e-21
-4.1892727e-21
-9.1615015e-21
5.0072925e-21
-7.7760223e-37
1.1955545e-20
1.3056865e-20
-2.1382918e-20
7.7794605e-21
1.4137341e-32
-2.7776535e-20
0
3.3017949e-20
2.3987966e-20
-1.3066623e-20
-1.423077e-20
-1.5493811e-20
0
-1.8348955e-20
1.107864e-32
4.340606e-20
-1.3092164e-32
-2.5637942e-20
0
-3.0248057e-20
6.5679261e-20
1.0692576e-19
-7.734204e-20
-1.2583252e-19
-4.5479832e-20
4.9297731e-20
1.0683797e-19
-5.7866153e-20
6.2663351e-20
6.783633e-20
-1.4682516e-19
1.5884289e-19
8.5894215e-20
-2.7859276e-19
-2.0073424e-19
1.084407e-19
3.5137595e-19
-2.807883e-31
3.030762e-31
1.4728854e-19
1.7637513e-31
1.7131563e-19
-1.8466937e-19
-1.9899778e-19
-2.1436642e-19
2.3084483e-19
2.4850669e-19
-8.0229025e-19
2.8769767e-19
6.187939e-19
-9.9786146e-19
-1.0159799e-34
3.8403735e-19
-8.2488676e-19
-4.4279958e-19
0
5.0985606e-19
5.4682009e-19
1.1725247e-18
-6.2833309e-19
2.2420307e-30
2.1630012e-18
-7.7193816e-19
-8.2618735e-19
-8.8394097e-19
9.4540165e-19
1.0107819e-18
-3.2409143e-18
1.1542037e-18
2.4654468e-18
2.192014e-30
1.4046617e-18
-2.9972569e-18
-4.7949394e-18
-9.4561933e-31
1.0080586e-30
2.749517e-34
2.0605512e-18
4.3873734e-18
2.3345836e-18
-7.4509015e-18
2.9321832e-30
5.6156807e-18
0
0
-3.3660152e-18
1.9833504e-30
-2.1040698e-30
-4.0219017e-18
8.5293179e-18
4.5204029e-18
5.31595e-30
-5.0731943e-18
-1.6114381e-17
-5.6851502e-18
0
0
0
2.1322707e-17
1.501722e-17
-2.3787902e-17
9.2948079e-30
1.7665463e-17
0
0
-2.0710216e-17
2.4224658e-29
1.275387e-29
-2.4196968e-17
1.2732849e-17
2.679072e-17
2.8173911e-17
-1.4808586e-17
-4.6683649e-17
-1.6345822e-17
0
0
0
5.9471609e-17
4.1566659e-17
-6.5342425e-17
5.0661415e-29
2.3893934e-17
-3.554368e-33
2.6171485e-17
-5.4748984e-17
3.1774421e-29
2.9914084e-17
-6.2505392e-17
0
1.8917699e-29
7.1111533e-17
7.4178242e-17
-1.1602068e-16
-8.0620028e-17
4.1999382e-17
2.4274222e-29
-4.5540367e-17
1.42181e-16
9.8606502e-17
-5.1269884e-17
-5.3294302e-17
5.5377205e-17
5.7519253e-17
-5.972107e-17
-6.1983235e-17
3.5694875e-29
-3.7008937e-29
-6.9136966e-17
0
-7.4216464e-17
1.5370069e-16
2.3864196e-16
-1.6461514e-16
-1.7026242e-16
-8.8018321e-17
1.0097638e-28
1.8796579e-16
-9.7060188e-17
1.002006e-16
1.0340389e-16
-2.1333949e-16
2.1999558e-16
1.1338759e-16
-1.1683864e-16
-2.4070073e-16
-1.2392213e-16
2.5510643e-16
-7.281246e-29
1.3499023e-16
1.3879441e-16
-4.2796328e-16
1.4656926e-16
1.5053779e-16
-4.636766e-16
2.2542858e-32
4.8826105e-16
1.6692479e-16
-5.134295e-16
1.7540735e-16
-2.2382419e-44
3.0646124e-28
3.769186e-16
-3.8578196e-16
-3.9472067e-16
2.0186559e-16
-2.2914084e-28
-4.2195295e-16
2.1557833e-16
6.6062563e-16
2.2486513e-16
-2.2954608e-16
0
-2.3897282e-16
-4.8742883e-16
3.5309995e-32
7.5973021e-16
2.5802645e-16
-5.256379e-16
3.8030901e-32
5.448468e-16
-5.5446177e-16
4.6973918e-28
5.7369024e-16
-8.7494203e-16
-5.9288657e-16
0
0
3.1077071e-16
9.4655649e-16
3.2024934e-16
-9.7488e-16
3.6596e-28
6.6862562e-16
-6.7790104e-16
-6.8711899e-16
3.4813756e-16
7.0536507e-16
-3.5719228e-16
-3.6166467e-16
1.0982928e-15
3.7048898e-16
6.2429516e-28
-2.1034312e-28
-3.8339332e-16
3.8759812e-16
-7.8350262e-16
-1.1875529e-15
0
1.211646e-15
8.1561931e-16
-1.2350289e-15
1.1808656e-31
4.1921944e-16
-8.4578485e-16
4.264974e-16
4.3003268e-16
4.8124715e-28
-4.3688765e-16
-8.8040827e-16
4.4344453e-16
8.9321461e-16
8.9938195e-16
-5.0268788e-28
-4.5561515e-16
4.5845281e-16
-9.2241134e-16
-1.3916171e-15
0
1.4068263e-15
9.4268509e-16
-1.4209552e-15
5.2842155e-28
4.7799153e-16
-4.800198e-16
-4.8195215e-16
2.6840131e-28
9.7104945e-16
-2.7041239e-28
-9.7740163e-16
5.4405764e-28
5.4553923e-28
9.8540832e-16
1.4814959e-15
-9.8971e-16
5.5052359e-28
1.6537077e-27
-4.9728697e-16
-4.9788263e-16
-9.9673908e-16
1.496241e-15
4.9901436e-16
-9.98342e-16
9.9843142e-16
2.8373049e-31
-1.4968646e-15
-4.9865171e-16
4.9823469e-16
1.4931105e-15
-1.6555701e-27
-9.9259406e-16
-4.9542109e-16
9.888593e-16
1.4799674e-15
-1.4762981e-15
-4.9076024e-16
-5.430638e-28
-4.8773351e-16
9.7209179e-16
-2.6879121e-28
4.8232252e-16
-4.8028706e-16
1.5926829e-27
1.4276094e-15
-1.420466e-15
-1.4129793e-15
0
0
0
4.5987728e-16
1.370455e-15
4.5364901e-16
4.9997942e-28
4.4698309e-16
-1.3304659e-15
-4.3988811e-16
4.3618278e-16
4.3237403e-16
4.2846333e-16
-8.4890449e-16
4.2034243e-16
-4.1613566e-16
1.3715942e-27
8.1487743e-16
-1.2088577e-15
-7.9675489e-16
0
7.7793896e-16
4.2645538e-28
-3.7923408e-16
1.1227501e-15
3.6919212e-16
-3.6406314e-16
0
0
-3.4828007e-16
-6.85795e-16
7.4926295e-28
6.6393981e-16
3.2643182e-16
-3.2084896e-16
3.1522501e-16
-3.0956369e-16
-3.0124112e-44
4.9656296e-28
-8.7718205e-16
0
0
5.5005763e-16
5.3843173e-16
2.6339753e-16
-2.8591405e-28
-7.5528383e-16
2.731137e-28
4.8030695e-16
0
-4.5721495e-16
-2.2286803e-16
4.343128e-16
-2.1147665e-16
-2.0583279e-16
6.0068626e-16
-1.9466842e-16
6.2997435e-28
3.6738798e-16
-5.3486171e-16
-3.4587773e-16
0
0
0
4.5658787e-16
2.94377e-16
-4.2677441e-16
-2.7481503e-16
0
2.5591069e-16
-1.369465e-28
-1.1885012e-16
2.2886513e-16
-1.1010736e-16
1.0587604e-16
1.0173995e-16
-2.9310082e-16
1.8751607e-16
1.7982812e-16
-8.6169023e-17
8.2523431e-17
-1.5795523e-16
-2.2659527e-16
0
2.0681928e-16
1.3158636e-16
-6.2745653e-17
-5.9796591e-17
6.3217884e-29
-5.4190782e-17
1.7165487e-28
4.8968278e-17
2.5816478e-29
4.4956753e-46
-4.1832166e-17
0
-3.7523011e-17
7.099603e-17
1.0067116e-16
-9.5094823e-17
-8.975925e-17
0
5.3191135e-17
5.0091704e-17
-4.7136539e-17
2.2160711e-17
2.0821059e-17
-5.8641452e-17
3.6673695e-17
3.437597e-17
-1.609843e-17
-3.013206e-17
-1.4088653e-17
3.9492623e-17
1.2290591e-17
1.9093105e-29
-2.1375352e-17
-5.6583956e-33
2.7791521e-17
-1.7228408e-17
-2.4010767e-17
-7.4301516e-18
2.0676379e-17
1.2775538e-17
-1.77462e-17
1.2154158e-29
1.012032e-17
4.6741816e-18
-2.3945823e-30
-7.9562558e-18
4.0690122e-30
-3.3740934e-18
-3.1033395e-18
8.5553648e-18
2.6182982e-18
2.6663083e-30
-4.4022175e-18
6.7120931e-30
5.5306645e-18
-3.3695691e-18
1.7084879e-30
1.5586674e-30
2.8384993e-30
1.1634512e-18
-3.1734474e-18
9.6068218e-19
1.4509374e-30
2.6296539e-30
2.1434798e-18
-6.4569858e-19
-1.1654651e-18
5.8302398e-31
-4.7258957e-19
-4.2461901e-19
7.6181933e-19
6.8228801e-19
-3.3857767e-31
-8.1680555e-19
2.6931513e-31
2.1592597e-19
-3.8376877e-19
1.7033288e-19
1.5109235e-19
-7.4339372e-32
6.5986017e-32
-1.0566873e-19
1.9277052e-19
-9.3220147e-20
3.0631653e-31
2.8800811e-31
-2.6113438e-19
2.0418956e-19
-3.2371601e-35
-2.1310171e-19
1.0253838e-19
3.5163946e-19
1.2803323e-19
-3.5251898e-19
1.1962354e-31
1.1705445e-19
-2.5454045e-19
2.4044082e-19
5.254567e-31
-1.024899e-19
1.0833468e-19
-1.0561004e-19
1.8372916e-19
-8.4366635e-20
-2.68916e-19
0
0
1.2883856e-19
1.956149e-35
-1.6391452e-19
7.6453544e-20
1.6356528e-19
5.2622077e-20
-2.1922839e-19
-2.2188945e-35
-6.5419997e-32
-1.1450152e-19
2.372499e-19
4.3406557e-31
-7.2175886e-20
6.993151e-20
8.7648577e-20
-1.0534133e-31
-8.0380644e-20
1.4274953e-19
-1.6545373e-19
3.075856e-31
1.6494277e-19
-1.9931041e-19
-1.3850341e-19
8.461041e-20
2.5938531e-19
6.9504466e-20
-6.1969981e-20
0
7.8786696e-20
-6.8493712e-20
-1.6191716e-19
-2.9890988e-32
1.2645175e-19
-6.4174061e-20
-5.3675857e-20
1.0190201e-19
-5.8358585e-20
5.9464273e-20
1.0288724e-19
-1.4775592e-19
1.8581577e-31
-1.2713955e-31
-9.8416042e-20
9.0033597e-20
5.0157115e-20
5.3254807e-20
5.274788e-32
-4.2887198e-20
9.3723025e-20
-1.0104184e-19
-1.420483e-19
0
5.5823427e-20
-3.2523405e-32
-1.4258641e-35
1.4312707e-19
5.8869519e-20
-2.022936e-19
6.1040484e-20
4.322197e-47
-1.333527e-19
4.4203894e-20
1.4366614e-19
5.023027e-20
-1.0947965e-19
6.5445469e-20
-6.9820475e-20
2.1338005e-31
1.176091e-19
-1.806497e-19
-6.727054e-32
2.3096471e-31
-6.881667e-20
3.9589225e-20
1.8584052e-32
-1.8553442e-20
3.3371657e-20
8.3377092e-21
0
0
-1.1122491e-20
1.7737227e-32
7.8995821e-36
2.2122638e-32
2.2530411e-20
2.5635498e-20
-3.3552744e-20
-4.203502e-20
9.0850417e-20
-8.76214e-20
4.5962497e-32
7.8218969e-20
-7.1289889e-20
-1.1069868e-31
3.7889028e-32
-3.2413488e-20
4.4189823e-20
-1.1125191e-20
1.1033541e-32
2.8366946e-21
0
-2.393957e-21
-3.5959154e-21
9.8946593e-21
8.0818043e-21
-1.6601336e-20
4.1813262e-32
3.024628e-20
0
0
-6.1244207e-20
-6.9023413e-20
0
6.3019301e-20
3.3247295e-20
-3.7583119e-20
3.9013855e-20
-3.7477809e-20
0
6.4211736e-20
0
0
-1.8081272e-20
2.1705227e-32
2.063226e-20
0
-1.4252885e-20
-5.2742535e-33
5.4946729e-21
0
-7.6506925e-21
-2.3823672e-21
-4.7428112e-21
-9.3787426e-33
9.7148115e-21
-2.3586084e-20
-2.7334122e-20
2.2968495e-20
2.900935e-36
2.0259033e-32
1.8720355e-36
-1.3995629e-20
9.8081765e-21
-1.1836239e-32
9.6507379e-21
-6.9551583e-21
-1.1460993e-20
4.4444755e-21
-1.8426603e-22
-5.3405279e-22
-2.3168125e-33
-1.1548185e-21
-5.0425454e-22
-5.1824109e-21
9.8957382e-21
1.5387994e-32
3.5264051e-21
5.3686853e-21
-1.395147e-20
5.6852195e-21
-5.0281884e-33
3.566696e-33
-7.7175276e-21
-1.249031e-20
7.186642e-21
3.2212187e-21
0
1.3431326e-21
2.7577613e-33
-8.3865293e-21
-7.3930592e-33
2.5300284e-20
1.8502709e-20
0
-2.2841476e-20
-2.5923623e-32
-1.3762801e-20
-1.5942802e-20
4.6626909e-20
-8.0784866e-33
-3.0508249e-20
1.6661449e-20
3.2269148e-20
-1.5614421e-20
-3.1406867e-20
-1.5594092e-20
0
3.3482981e-20
-1.3658646e-20
-3.757688e-20
1.3249991e-20
1.2368149e-20
2.2683026e-20
1.0993928e-20
-2.3521598e-20
-1.2561073e-20
-1.2118604e-20
1.2082743e-32
9.8657368e-21
9.4977383e-21
1.8343362e-20
8.3870977e-21
0
0
0
-1.1854138e-20
-1.1514163e-20
1.2682802e-20
7.4220102e-33
6.9665195e-33
-6.1453457e-33
-1.1431138e-32
1.0483037e-20
0
-1.2923627e-20
-7.0754387e-21
7.377244e-21
-7.4824263e-21
-7.7035541e-21
0
0
2.1103279e-20
-3.6119713e-32
-2.3479829e-32
2.2523651e-20
-2.5758612e-20
-2.846403e-20
0
2.911173e-20
-1.6334177e-32
-3.1326952e-20
3.3370289e-20
1.7498377e-32
-2.9644302e-20
0
3.4712336e-20
1.8075619e-20
-3.6130575e-20
1.6224542e-20
3.2967741e-32
-3.1055096e-20
3.2675845e-20
3.3369845e-20
0
0
0
-2.8800354e-20
-2.9057176e-20
2.7948784e-20
0
-2.3589186e-20
0
-1.119325e-20
2.2100538e-20
1.0428333e-20
-9.6435817e-21
1.7764241e-20
8.5322549e-21
-1.710694e-20
-8.4567852e-21
-8.7859354e-33
7.1869316e-21
-1.5267872e-32
3.9774175e-36
1.4243556e-20
0
-6.4232304e-21
-1.2230573e-20
-6.0367133e-21
0
0
0
-6.2983064e-21
1.2425425e-20
6.0901463e-21
-6.2371727e-21
-6.5573961e-21
6.6919893e-21
6.6619713e-21
-1.3577078e-20
0
1.4905691e-20
1.5042702e-20
0
0
-1.638425e-20
-9.6490515e-33
-8.7775113e-21
-8.5949041e-21
8.6404786e-21
-9.0609009e-21
9.6601489e-21
1.9798101e-20
9.7819642e-21
0
-2.0127442e-20
-1.1530682e-32
1.0490646e-20
-1.0316488e-20
-1.0202758e-20
-2.0859876e-20
2.0777809e-20
9.4976394e-21
-2.6367076e-36
9.9019636e-21
-2.0611077e-20
1.0337002e-20
-9.949139e-21
-1.6287615e-48
8.2260784e-21
-1.5816968e-20
1.6870714e-20
1.7390445e-20
0
-8.4398475e-21
-1.5981509e-20
4.2223622e-33
7.3827e-21
7.3661652e-21
-1.4372209e-20
-1.3536541e-20
6.6354037e-21
1.3671353e-20
1.3894505e-20
-6.7832889e-21
-1.2995178e-20
6.2421067e-21
-6.362246e-21
1.1273195e-32
7.0612411e-21
-1.4271551e-20
1.4251355e-20
8.0014223e-33
-4.0610802e-32
1.4901075e-20
-1.4968389e-20
-3.2460694e-32
7.4740012e-21
-1.6098164e-20
8.5638282e-21
-2.5200464e-36
3.9942566e-32
9.0811524e-21
-1.8361144e-20
2.0685139e-32
-5.2928228e-33
9.7055012e-21
-2.7679721e-36
-1.9442553e-20
1.9611118e-20
5.5561256e-36
-4.1795691e-32
1.8353697e-20
-1.8686844e-20
-2.1337541e-32
1.9372439e-20
-9.4667785e-21
-9.0508164e-21
-8.6876414e-21
8.5606083e-21
-9.4828208e-33
-1.6769406e-20
0
0
1.4676194e-20
2.069549e-36
-1.4287451e-20
6.7165787e-21
-6.8394997e-33
5.7436147e-21
1.2327904e-32
-1.0919842e-20
0
-4.8306433e-21
8.7582804e-21
4.104393e-21
-8.8355676e-33
3.8525765e-21
-7.185309e-21
3.3002102e-21
-3.4647339e-33
-6.0137981e-21
0
0
2.4837876e-21
-1.3616828e-33
2.4584364e-21
-2.3831001e-21
-6.7849049e-21
6.6833984e-21
2.3354844e-21
-4.9465502e-21
2.5024085e-21
4.013762e-33
2.3718571e-21
-1.4336406e-36
-9.2644567e-33
2.9888853e-21
-6.1009482e-21
-3.076213e-21
0
-3.4069775e-21
3.6580477e-21
3.82159e-21
3.8514858e-21
-8.6025864e-33
4.4325259e-33
-4.6538122e-33
-8.8739359e-21
4.6603733e-21
8.0387779e-33
-9.8156965e-21
6.9174906e-37
4.7955058e-21
9.6553318e-21
1.0034394e-20
-1.0560058e-20
-6.0444057e-33
-5.4322533e-21
-5.275355e-21
1.0195373e-20
-1.0017866e-20
-5.0793921e-21
1.5718665e-20
1.0592415e-20
-5.1986845e-21
-9.937675e-21
-4.7041209e-21
4.557027e-21
9.1269203e-21
-9.1665173e-21
-1.3441302e-20
4.2238794e-21
3.9270999e-21
7.5028554e-21
3.6885113e-21
-7.2726908e-21
-3.5216585e-21
-3.3318936e-21
6.1513024e-21
2.7762018e-21
-5.0032284e-21
4.6936955e-21
-1.2091381e-50
6.5556154e-37
4.3836047e-21
-3.8700841e-21
-5.4918197e-33
-1.6466826e-33
-4.9449021e-33
-4.9224966e-50
-4.5721988e-21
-1.5308827e-33
1.2291968e-21
2.3878762e-21
2.5250355e-21
-2.6925474e-21
-3.026969e-33
-1.3335821e-21
-4.5362212e-33
1.4947055e-21
-3.3510293e-21
0
1.9463759e-21
-2.2968153e-33
2.2360973e-21
4.8463595e-21
-5.2597653e-21
-5.7284056e-21
0
6.7624219e-21
-8.0130477e-33
-7.6651603e-21
8.1875794e-21
4.8506284e-33
-4.6490535e-21
-2.7243905e-33
-1.4628063e-36
5.4226119e-21
-5.7223953e-21
-6.0024324e-21
6.237896e-21
-7.1437918e-33
6.6573748e-21
-2.3204791e-32
8.0038811e-33
1.4661539e-20