/*--------------------------------*- C++ -*----------------------------------*\
  =========                 |
  \\      /  F ield         | OpenFOAM: The Open Source CFD Toolbox
   \\    /   O peration     | Website:  https://openfoam.org
    \\  /    A nd           | Version:  7
     \\/     M anipulation  |
\*---------------------------------------------------------------------------*/
FoamFile
{
    version     2.0;
    format      ascii;
    class       volScalarField;
    location    "0.0006";
    object      Uz;
}
// * * * * * * * * * * * * * * * * * * * * * * * * * * * * * * * * * * * * * //

dimensions      [0 1 -1 0 0 0 0];

internalField   nonuniform List<scalar> 
5000
(
0
0
0
0
0
5.06647e-29
-1.079983e-43
9.119646e-28
3.546529e-28
-2.026588e-28
4.053176e-28
-3.039882e-28
3.4559457e-42
1.339179e-42
1.013294e-28
8.5528471e-43
-1.9515332e-55
1.7855719e-42
-2.026588e-28
8.106352e-28
2.533235e-28
0
0
2.026588e-28
-1.2959796e-42
-1.1984166e-56
-1.2187807e-42
5.06647e-29
1.013294e-28
-1.013294e-28
8.8558609e-43
-8.6398642e-43
2.533235e-28
-1.519941e-28
1.013294e-28
0
0
3.546529e-28
5.5443865e-42
1.013294e-28
2.54876e-42
2.533235e-28
-5.06647e-29
-8.5678654e-43
1.519941e-28
-2.533235e-28
1.2196608e-41
-5.2055182e-42
-1.2196608e-41
1.1231824e-41
2.533235e-28
0
0
0
0
0
0
0
0
0
0
0
0
1.519941e-28
-1.013294e-28
1.519941e-28
3.4847452e-42
-1.4636499e-56
-5.573117e-28
0
0
1.519941e-28
-2.533235e-28
0
5.06647e-28
-1.7495725e-42
2.533235e-28
3.039882e-28
1.3271365e-43
1.013294e-27
-8.106352e-28
-1.5581544e-55
-9.119646e-28
9.119646e-28
2.1081269e-41
5.06647e-28
-9.119646e-28
2.533235e-28
4.053176e-28
-5.06647e-28
3.546529e-28
2.026588e-28
8.8198614e-42
-2.1904295e-41
2.1038069e-41
5.06647e-29
-3.546529e-28
-1.2448604e-41
3.5279446e-42
2.026588e-28
1.519941e-28
2.533235e-28
-1.079983e-43
-1.0639587e-27
0
-5.06647e-29
-1.4111778e-41
3.039882e-28
-1.013294e-28
-1.6995171e-43
6.079764e-28
-2.026588e-28
9.119646e-28
-2.533235e-28
9.119646e-28
-3.039882e-28
1.519941e-28
2.3039638e-43
-1.013294e-28
1.6719351e-27
-4.6050476e-41
-1.6212704e-27
1.2159528e-27
4.559823e-28
-5.06647e-28
3.039882e-28
-1.519941e-28
3.039882e-28
-2.533235e-28
3.499145e-42
3.039882e-28
5.06647e-28
-1.0503123e-41
3.039882e-28
4.053176e-28
1.4111778e-41
8.783862e-42
-5.2919169e-42
-2.026588e-28
-3.039882e-28
5.06647e-28
8.106352e-28
-1.013294e-28
-5.573117e-28
2.4594814e-41
-1.013294e-28
7.1998869e-44
-1.4399774e-44
1.7563799e-55
-2.026588e-28
-3.5135448e-42
-2.8223557e-41
-2.026588e-28
-1.013294e-28
-5.06647e-29
-1.2297407e-41
5.573117e-28
-3.546529e-28
6.4798982e-44
3.039882e-28
0
4.559823e-28
2.4544414e-41
-6.079764e-28
1.013294e-28
-4.3199321e-44
-3.039882e-28
1.013294e-28
-1.519941e-28
3.039882e-28
-2.1110068e-40
-1.9675851e-40
7.093058e-28
-1.2159528e-27
0
1.4054179e-41
7.3784441e-41
-4.053176e-28
-3.546529e-28
-1.0475835e-41
5.06647e-29
3.039882e-28
3.1362707e-41
1.5119762e-43
3.5099449e-41
-2.026588e-28
-2.026588e-28
-4.053176e-28
3.8332198e-41
-3.8411396e-41
6.3200607e-41
-1.0497435e-41
2.026588e-28
0
0
0
0
-1.013294e-28
8.4497872e-41
3.039882e-28
-1.519941e-28
1.519941e-28
-1.519941e-28
7.093058e-28
1.0519035e-41
-2.1038069e-41
-2.533235e-28
-5.06647e-29
-1.2401628e-42
0
2.026588e-28
-7.0126898e-42
2.533235e-28
-5.06647e-29
4.2335335e-41
2.533235e-28
-8.106352e-28
3.039882e-28
-2.5990112e-43
1.519941e-28
-3.5949261e-42
0
0
0
-1.519941e-28
3.039882e-28
7.093058e-28
-3.039882e-28
1.7603723e-41
-1.013294e-28
5.5593506e-43
1.013294e-28
-4.3199321e-44
1.0079842e-43
-2.026588e-28
-1.013294e-28
7.093058e-28
-4.3199321e-44
-3.1665102e-41
1.519941e-28
1.1254863e-40
2.1081269e-41
1.013294e-28
-3.039882e-28
0
-2.026588e-28
2.026588e-28
3.546529e-28
-1.013294e-28
0
-2.533235e-28
-2.533235e-28
-5.06647e-28
1.4071459e-40
1.519941e-27
1.9252586e-27
-1.8239292e-27
-6.079764e-28
0
-5.06647e-28
-5.06647e-29
-1.013294e-28
-3.039882e-28
-2.533235e-28
-4.053176e-28
-1.013294e-28
-4.053176e-28
-2.026588e-28
1.8270433e-40
-1.1146234e-27
0
7.0270896e-42
1.519941e-28
1.013294e-28
-2.026588e-28
3.5279446e-41
5.06647e-28
-2.533235e-28
2.026588e-28
-9.119646e-28
1.0569434e-40
-4.053176e-28
5.06647e-28
7.0126898e-42
-2.533235e-28
0
0
7.599705e-28
-1.013294e-28
6.079764e-28
-1.519941e-28
-4.3199321e-44
1.519941e-28
1.519941e-28
-5.06647e-29
0
2.026588e-28
2.533235e-28
0
5.06647e-28
3.546529e-28
-6.079764e-28
1.0519035e-41
7.1998869e-44
-3.039882e-28
-2.533235e-28
4.559823e-28
-6.079764e-28
5.06647e-28
-2.0159683e-43
-4.229858e-41
-3.039882e-28
-3.2142352e-41
3.546529e-28
3.9507664e-54
3.546529e-28
0
0
2.026588e-28
-1.4068579e-41
-3.9149915e-54
-2.1124468e-41
-5.06647e-29
2.026588e-28
2.1599661e-44
5.573117e-28
0
0
0
0
0
0
0
3.039882e-28
0
-4.053176e-28
0
-5.06647e-29
-9.8379254e-41
2.026588e-28
0
0
-2.026588e-28
-2.1102868e-41
-1.013294e-28
0
0
5.06647e-29
-1.013294e-28
2.533235e-28
3.039882e-28
0
4.559823e-28
-4.3199321e-44
-3.039882e-28
1.013294e-28
-3.039882e-28
5.573117e-28
5.573117e-28
0
-2.026588e-28
-2.533235e-28
3.546529e-28
5.573117e-28
0
-5.06647e-29
-2.026588e-28
1.013294e-28
-2.026588e-28
0
0
0
0
0
0
0
0
-4.559823e-28
-3.1224532e-55
-2.533235e-28
0
0
0
1.519941e-28
1.4054179e-41
-1.013294e-28
-5.06647e-29
3.5171447e-41
-3.5999434e-44
-4.9240026e-41
5.06647e-28
-7.599705e-28
8.106352e-28
-8.4454673e-41
-5.7952765e-43
3.546529e-28
0
0
-3.546529e-28
7.0342895e-42
-1.519941e-28
-1.2270983e-41
2.026588e-28
0
-1.013294e-28
-2.533235e-28
4.559823e-28
2.8122758e-41
-3.9030665e-56
4.2205737e-41
-7.599705e-28
3.546529e-28
7.806133e-56
-7.0342895e-42
1.013294e-28
0
0
-1.519941e-28
-7.1998869e-45
4.2162538e-41
-4.053176e-28
0
0
1.013294e-28
-8.4281876e-41
-3.039882e-28
0
0
0
3.546529e-28
-2.8799547e-44
1.013294e-28
-1.519941e-28
-2.544472e-42
4.2248936e-41
9.119646e-28
-1.519941e-28
-8.4411474e-41
-7.0342895e-41
7.0342895e-41
6.079764e-28
0
0
-3.039882e-28
-4.9240026e-41
1.4061379e-41
4.8788331e-57
-1.519941e-28
3.546529e-28
2.026588e-28
0
-2.026588e-28
-6.3308605e-41
5.06647e-29
0
0
4.559823e-28
1.945524e-56
9.7576662e-57
1.519941e-28
-1.3983182e-42
-4.9139228e-41
9.8480053e-41
-1.5467517e-40
-1.519941e-28
4.053176e-28
-7.0342895e-41
4.2227337e-41
-9.8530452e-41
5.06647e-29
-6.586411e-28
2.3916584e-40
-5.6389514e-41
0
-5.06647e-29
-2.026588e-28
4.2205737e-41
-2.8799547e-44
7.7377184e-41
-9.1539362e-41
-1.519941e-28
-1.013294e-28
-5.06647e-29
1.519941e-28
-1.45338e-41
0
-1.013294e-28
-2.026588e-28
0
5.06647e-28
-8.4411474e-41
1.079983e-43
7.0270896e-41
-1.519941e-28
1.519941e-28
2.1081269e-41
1.4068579e-41
-5.06647e-29
-1.519941e-28
1.013294e-28
7.1998869e-45
7.0270896e-42
4.053176e-28
-3.039882e-28
7.0342895e-42
4.559823e-28
0
0
0
3.546529e-28
1.013294e-28
2.2451224e-43
-5.06647e-29
0
-5.573117e-28
-4.559823e-28
3.546529e-28
1.519941e-28
0
6.4318923e-42
-1.013294e-28
2.026588e-28
1.4068579e-41
-1.519941e-28
0
0
0
0
3.039882e-28
-1.1243343e-40
-1.519941e-28
-5.06647e-29
-2.8137158e-41
7.0414894e-42
2.9272999e-56
-4.559823e-28
-6.079764e-28
1.1146234e-27
3.5171447e-41
-1.4333032e-54
-4.053176e-28
0
6.079764e-28
3.039882e-28
-1.013294e-28
7.0270896e-41
-4.053176e-28
0
0
-1.013294e-28
-6.3243806e-41
-4.559823e-28
0
6.586411e-28
-7.1998869e-44
8.4411474e-41
2.1081269e-41
-2.533235e-28
3.039882e-28
-7.1998869e-45
-5.6274316e-41
-4.559823e-28
4.559823e-28
9.8480053e-41
1.4399774e-44
-1.0266333e-54
1.519941e-28
-2.533235e-28
0
3.9381941e-40
8.4325075e-41
1.0540634e-40
2.8799547e-44
5.06647e-29
-1.013294e-28
-9.7576662e-56
-2.911866e-54
-8.4411474e-41
2.1102868e-41
3.039882e-28
-3.546529e-28
-5.06647e-28
-4.2205737e-41
-2.8137158e-41
-5.06647e-28
2.533235e-28
2.533235e-28
1.9722329e-71
0
2.4394166e-56
1.519941e-28
-3.039882e-28
1.9515332e-56
4.9189627e-41
-2.1599661e-44
-3.546529e-28
7.093058e-28
9.8480053e-41
-2.533235e-28
4.2162538e-41
-2.1081269e-41
-1.519941e-28
2.026588e-28
1.9515332e-56
4.2220137e-41
2.8151558e-41
1.4061379e-41
1.2661721e-40
-2.9272999e-56
0
5.06647e-29
0
0
-5.06647e-29
1.4068579e-41
2.026588e-28
0
0
5.06647e-28
-8.4353875e-41
2.026588e-28
7.0305916e-42
3.5999434e-44
-2.1102868e-41
1.519941e-28
0
0
0
-5.06647e-28
-8.4325075e-41
2.533235e-28
0
0
4.053176e-28
-2.8799547e-44
-3.039882e-28
0
0
-2.533235e-28
-1.9675851e-40
-1.4075779e-40
-4.2205737e-41
-3.546529e-28
-1.013294e-28
9.8429653e-41
-2.8122758e-41
-1.1243343e-40
-5.06647e-28
0
0
5.06647e-28
3.6591248e-55
1.519941e-28
0
0
1.519941e-28
-7.806133e-56
5.06647e-28
0
0
-3.039882e-28
7.806133e-56
2.533235e-28
0
0
1.013294e-28
-5.0399208e-44
-4.559823e-28
4.559823e-28
-7.0378894e-41
-2.8151558e-41
-5.6274316e-41
-2.026588e-28
0
0
0
0
0
4.053176e-28
-8.4368274e-41
-2.533235e-28
0
0
0
0
0
0
0
5.06647e-29
-2.8122758e-41
-1.519941e-28
0
0
0
0
0
0
0
-1.1240394e-40
-4.2184137e-41
-1.013294e-28
0
0
1.013294e-28
-2.8151558e-41
2.026588e-28
0
0
0
3.039882e-28
4.2227337e-41
-2.533235e-28
0
0
0
0
0
0
0
2.533235e-28
7.1998869e-45
3.039882e-28
0
0
0
0
0
0
0
3.039882e-28
2.8799547e-44
-4.559823e-28
0
0
0
1.519941e-28
-1.1251983e-40
1.013294e-28
0
-4.559823e-28
-9.8530452e-41
1.519941e-28
0
0
-2.533235e-28
-5.06647e-29
-1.519941e-28
-1.013294e-28
0
0
0
0
-8.106352e-28
8.6398642e-44
7.093058e-28
5.5665766e-44
5.06647e-28
2.026588e-28
5.06647e-29
-5.06647e-29
0
0
0
0
-3.546529e-28
-2.8151558e-41
1.013294e-28
0
0
0
0
0
0
0
0
0
0
0
0
0
0
-4.559823e-28
4.2205737e-40
2.533235e-28
0
0
4.559823e-28
-4.2205737e-41
2.951617e-58
1.519941e-28
1.013294e-28
-5.6259916e-41
1.6890935e-40
6.079764e-28
0
0
0
0
0
-2.9679573e-41
-1.4064979e-40
-5.06647e-29
0
0
0
0
0
0
0
-1.519941e-28
5.6245516e-41
3.546529e-28
0
0
0
0
0
0
0
3.546529e-28
-1.6876535e-40
2.533235e-28
0
0
0
0
0
0
0
0
1.519941e-28
-4.3199321e-44
-3.546529e-28
0
0
0
0
2.026588e-28
-2.533235e-28
-2.533235e-28
6.079764e-28
5.6274316e-41
-5.06647e-29
0
0
0
0
1.519941e-28
-2.8122758e-41
-4.053176e-28
1.013294e-28
4.053176e-28
-6.586411e-28
0
0
0
-4.559823e-28
-1.1243343e-40
5.06647e-29
-4.053176e-28
3.039882e-28
1.013294e-28
-5.06647e-29
0
0
3.039882e-28
-2.026588e-28
2.026588e-28
-5.06647e-29
-1.013294e-28
1.9696011e-40
-4.559823e-28
0
0
0
-2.533235e-28
-3.039882e-28
3.039882e-28
3.546529e-28
4.559823e-28
1.1249103e-40
-4.053176e-28
0
0
0
2.026588e-28
3.7115136e-54
-1.013294e-28
0
0
0
0
0
0
0
3.546529e-28
9.8429653e-41
1.3172822e-27
8.4411474e-41
-5.06647e-29
0
0
1.013294e-28
-1.4399774e-44
5.6274316e-41
1.4061379e-41
4.053176e-28
2.026588e-28
4.2205737e-41
-2.533235e-28
0
0
5.06647e-28
-3.7972203e-40
-1.8279793e-40
1.2239808e-43
-8.612999e-28
6.586411e-28
5.06647e-28
-1.2159528e-27
3.0919194e-40
2.533235e-28
-6.4146353e-44
0
-4.053176e-28
-4.2227337e-41
-2.026588e-28
0
6.079764e-28
-4.559823e-28
-1.0090978e-54
1.013294e-28
-2.026588e-28
0
-1.013294e-28
0
2.026588e-28
0
-3.546529e-28
6.586411e-28
-1.9675851e-40
1.519941e-28
-5.06647e-28
0
2.026588e-28
4.2205737e-41
2.7705415e-41
0
-2.026588e-28
4.559823e-28
-1.1519819e-43
-3.039882e-28
3.039882e-28
0
3.546529e-28
7.599705e-28
-5.06647e-28
-2.533235e-28
6.586411e-28
-8.106352e-28
-5.573117e-28
4.053176e-28
0
0
0
0
0
0
1.013294e-28
1.4636499e-56
8.106352e-28
-4.559823e-28
-5.06647e-28
5.06647e-28
0
0
-3.039882e-28
-3.039882e-28
3.039882e-28
1.519941e-28
0
-1.4393711e-41
-1.4075779e-41
2.026588e-28
0
0
-1.013294e-28
-3.546529e-28
2.533235e-28
5.06647e-29
0
3.039882e-28
-1.4068579e-41
2.026588e-28
-4.559823e-28
-1.9696011e-40
-1.4399774e-44
-4.053176e-28
6.586411e-28
4.559823e-28
0
0
-6.079764e-28
1.5467517e-40
3.039882e-28
0
1.519941e-28
5.06647e-28
-3.546529e-28
-1.519941e-28
0
0
0
0
0
0
5.06647e-28
6.2395467e-54
1.519941e-28
0
0
0
0
0
0
5.06647e-29
9.7576662e-57
1.013294e-28
2.026588e-28
1.4054179e-41
-2.533235e-28
0
0
0
0
-4.053176e-28
-1.5467517e-40
3.546529e-28
-3.039882e-28
-1.013294e-28
5.06647e-29
2.8122758e-41
4.2191337e-41
-2.1088469e-40
5.6303115e-41
-5.6274316e-41
-8.4368274e-41
-5.573117e-28
0
3.546529e-28
-4.6402551e-40
1.1519819e-43
6.079764e-28
-7.093058e-28
-9.119646e-28
7.093058e-28
1.9146829e-53
-2.5301842e-40
1.1251983e-40
5.0595045e-40
-2.2486687e-40
5.0620965e-40
1.4186116e-27
-7.599705e-28
-5.06647e-28
6.079764e-28
-1.9675851e-40
1.6873655e-39
4.9214827e-40
-4.2205737e-40
-4.075712e-40
-4.6402551e-40
2.0772527e-27
0
-2.4319056e-27
7.1713033e-40
-1.9515332e-55
-3.4451996e-27
0
5.6237817e-27
-6.1810934e-27
-6.5357463e-27
7.093058e-27
0
0
0
0
1.2210193e-26
-3.782511e-39
8.5796372e-39
-1.7935304e-26
-2.0012556e-26
2.1431168e-26
0
0
0
0
3.7390548e-26
5.9255069e-42
-4.6560859e-26
0
0
0
0
0
0
0
1.1399557e-25
1.2737106e-25
-1.4181049e-25
-1.5776988e-25
0
0
0
0
0
0
3.3747757e-25
3.7593207e-25
-4.1813577e-25
-4.6484862e-25
0
0
0
0
0
0
9.7559946e-25
1.0831606e-24
-1.202324e-24
-1.3346095e-24
0
0
0
0
0
0
2.7567676e-24
-1.6960958e-36
-3.383794e-24
0
0
0
0
0
0
6.8831034e-24
-2.113185e-36
-8.4126201e-24
0
0
0
0
1.3838911e-23
2.1709027e-39
-1.6859236e-23
1.8601291e-23
-9.6717988e-53
-2.2627463e-23
2.494745e-23
-1.5271752e-35
-3.0303976e-23
3.338748e-23
2.0418355e-35
2.2484613e-35
-3.2956713e-51
2.7238522e-35
1.4978958e-35
-5.9404968e-23
6.5336032e-23
7.1842443e-23
-1.57955e-22
4.8155155e-35
1.9074135e-22
0
-1.1505279e-22
3.5076921e-35
3.8522296e-35
1.2667076e-34
1.3899639e-34
1.0158552e-34
-1.6717751e-34
1.2215133e-34
-6.7024988e-35
-2.643453e-22
0
3.1713442e-22
4.9343856e-38
3.1640303e-34
3.4630722e-34
-6.4665532e-38
-2.7626611e-34
1.5112292e-34
5.949543e-22
0
-7.104642e-22
4.3077881e-34
1.2043935e-37
-9.2529707e-22
0
1.1020631e-21
-1.2022592e-21
-1.3112206e-21
1.4296823e-21
0
0
1.8503081e-21
-2.2376264e-33
1.2175036e-33
-1.3264156e-33
7.2234318e-34
-2.8289285e-21
-3.0771746e-21
3.3463155e-21
0
0
0
0
5.0687977e-21
1.5281614e-33
6.6314734e-33
-6.4820758e-21
-7.0320804e-21
7.626699e-21
0
0
0
0
1.1398266e-20
1.2341994e-20
-1.3360213e-20
-1.4458483e-20
0
0
0
0
0
0
2.4942779e-20
2.6933715e-20
-2.9075484e-20
-3.1378825e-20
0
0
0
0
0
0
5.308839e-20
-4.7604883e-32
-1.2307642e-19
6.6226664e-20
2.137562e-19
7.6636989e-20
0
-1.7716524e-19
1.0570872e-31
3.4058691e-31
1.0984509e-19
2.3588752e-19
-2.5320602e-19
1.3585875e-19
1.4574895e-19
-1.563138e-19
1.6759575e-19
-2.5528333e-35
-1.9249295e-19
-2.0620561e-19
2.2083045e-19
2.3642318e-19
-2.5304252e-19
2.7075038e-19
4.1156335e-35
-3.0969597e-19
0
0
0
-8.0751963e-19
4.3111841e-19
9.2038637e-19
-4.9108162e-19
5.2388604e-19
5.5871374e-19
-1.1913545e-18
1.5551499e-47
6.7648897e-19
-7.2059006e-19
-1.5346662e-18
-8.1685968e-19
2.6079535e-18
-9.2486232e-19
3.1437691e-46
3.1375912e-18
-2.223331e-18
-1.1812436e-18
-1.2547895e-18
-2.6650053e-18
2.8291818e-18
1.5012704e-18
1.5927662e-18
-1.6893122e-18
-1.7911515e-18
5.6956099e-18
-2.0117299e-18
-2.1310032e-18
2.2566387e-18
2.3889287e-18
3.5927546e-34
-8.0240845e-18
2.8288089e-18
-4.9796035e-30
5.2649783e-30
1.0020406e-17
-3.5280996e-18
-3.7254509e-18
-7.8651647e-18
4.1498992e-18
8.7556373e-18
-9.2335401e-18
4.8671948e-18
-5.1295469e-18
-5.4042921e-18
1.7075727e-17
-5.9928879e-18
-6.3077318e-18
1.3273911e-17
6.9810866e-18
-7.3406637e-18
-2.3148714e-17
8.1083719e-18
3.4070559e-17
-4.9649477e-30
-1.8779861e-17
-9.8541566e-18
0
-2.1683719e-17
-2.523408e-29
3.5738391e-17
-1.2481101e-17
2.9024209e-29
-1.36867e-17
-1.4325347e-17
2.9977607e-17
0
0
0
1.7904656e-17
-1.0384047e-29
-3.9059331e-17
2.038643e-17
4.2547307e-17
-6.6576148e-17
7.7074515e-29
4.8250422e-17
-2.5141395e-17
0
0
0
-5.9106354e-17
3.0746325e-17
6.3953803e-17
-9.9736689e-17
9.8205401e-33
7.179941e-17
0
0
4.0182206e-17
-2.3148376e-29
-8.6489748e-17
4.4840148e-17
9.2957455e-17
-1.4448329e-16
8.306023e-29
1.03318e-16
-5.3475379e-17
5.5337219e-17
-1.1448974e-16
-5.9198653e-17
2.038027e-28
6.3245738e-17
1.3067904e-16
-2.0244118e-16
3.9601965e-32
7.1903998e-17
-4.1179384e-29
7.651736e-17
7.889529e-17
-4.5139162e-29
-2.5138047e-16
2.4531795e-32
2.6664242e-16
-1.8298996e-16
6.1873726e-45
1.937264e-16
-9.9616653e-17
1.0241587e-16
-2.1052091e-16
-1.0814996e-16
2.4667161e-28
1.1406177e-16
2.3416595e-16
1.2014692e-16
1.2325295e-16
-3.792011e-16
0
1.3281642e-16
7.553667e-29
-7.7371352e-29
7.9206478e-29
-1.4611042e-16
1.6599538e-28
-1.5297386e-16
5.210706e-28
4.7991292e-16
-3.2703394e-16
-5.0127928e-16
-1.7069819e-16
5.229932e-16
3.5598101e-16
-5.4502577e-16
1.8538406e-16
5.6734682e-16
0
0
-2.0043345e-16
-2.042426e-16
0
2.1190732e-16
2.1576005e-16
-4.3924888e-16
4.9623578e-28
6.8214708e-16
-2.5674812e-28
-2.351693e-16
-2.3906994e-16
-2.4297335e-16
2.4687805e-16
2.5078251e-16
-2.5468524e-16
-7.7575415e-16
2.6247944e-16
1.0654716e-15
-2.702486e-16
-5.4824007e-16
-2.7798071e-16
0
2.8566382e-16
0
2.9328611e-16
-2.970708e-16
6.6794715e-28
-3.0458002e-16
1.0267852e-27
9.3599864e-16
-3.1567216e-16
-3.1931817e-16
3.2293621e-16
3.2652491e-16
-3.3008296e-16
-1.0008271e-15
3.3710181e-16
1.3622401e-15
-5.729069e-28
-3.4736772e-16
-7.0142943e-16
-3.5402219e-16
7.1457787e-16
2.0011255e-28
5.1684252e-32
-3.668332e-16
8.2134706e-28
3.729714e-16
-1.1279094e-15
4.206584e-28
7.6363983e-16
0
0
3.9021296e-16
-2.1809201e-28
-7.9108414e-16
3.981239e-16
8.0129871e-16
4.0311754e-16
-4.5008198e-28
-1.2236358e-15
-4.1016979e-16
4.1240029e-16
-8.2913862e-16
2.3685291e-31
1.3946466e-27
4.2069961e-16
8.4522985e-16
-1.2733949e-15
4.733223e-28
8.5593266e-16
0
0
-8.6542285e-16
9.6395674e-28
4.8337985e-28
1.2415529e-31
1.3141944e-15
8.7845047e-16
-7.3334728e-28
-1.3239859e-15
-4.4227051e-16
4.4313845e-16
-8.8786388e-16
-4.9350324e-28
1.4829042e-27
4.4586085e-16
8.9270347e-16
-1.3402975e-15
4.471027e-16
4.4736193e-16
-4.4754314e-16
4.4764596e-16
-8.9533915e-16
4.9691591e-28
4.4746901e-16
6.3557608e-32
8.9388891e-16
-8.9312288e-16
7.4272744e-28
8.9110544e-16
-4.4492653e-16
0
4.4342946e-16
2.4559056e-28
-1.3248151e-15
4.4056972e-16
8.7890442e-16
4.3825244e-16
4.3697036e-16
-4.3560596e-16
-4.3415925e-16
-4.3263027e-16
4.3101909e-16
-2.3830845e-28
2.372623e-28
-4.2569355e-16
4.7055281e-28
-4.2173496e-16
1.3975722e-27
1.2523562e-15
-8.3037968e-16
-9.7512035e-46
4.1042572e-16
4.5280049e-28
-2.2505498e-28
-1.2080627e-15
3.9995257e-16
1.1914224e-15
0
0
-3.8825233e-16
-3.8514115e-16
-7.6391457e-16
3.787017e-16
7.5075085e-16
-7.439591e-16
3.6851521e-16
1.0949508e-15
-3.6138602e-16
-3.5772373e-16
-3.5399815e-16
-3.5021071e-16
6.9272581e-16
3.4245631e-16
-3.3849253e-16
-1.0034198e-15
3.3040026e-16
2.2072719e-44
5.3627889e-28
6.357543e-16
-6.2721568e-16
-6.1858884e-16
3.0493899e-16
6.0108741e-16
-5.9222157e-16
-2.9164249e-16
8.614234e-16
8.4782726e-16
-2.7804876e-16
-5.4692524e-16
-2.6885316e-16
1.466638e-28
5.1914896e-16
2.5491046e-16
-2.502335e-16
-4.9109253e-16
3.4227052e-32
4.723036e-16
-4.6290002e-16
3.7765297e-28
4.4410214e-16
-2.1735943e-16
-4.2535338e-16
-4.1601123e-16
0
1.9870942e-16
5.822693e-16
1.8949268e-16
-1.8492083e-16
0
0
0
0
1.6253113e-16
-8.7793438e-29
-4.6152335e-16
1.495626e-16
4.3599427e-16
1.4114973e-16
-2.282078e-28
-2.6588606e-16
-1.2892196e-16
1.2495823e-16
-2.4210713e-16
-1.1720965e-16
3.7779928e-28
1.0971018e-16
2.1211496e-16
-3.0741357e-16
2.812399e-32
9.5502445e-17
-1.3091325e-32
8.8812059e-17
8.5573337e-17
-9.1483746e-29
-2.379363e-16
2.1683084e-32
2.2002676e-16
1.4093477e-16
-3.7540597e-29
-1.2987689e-16
-6.2284354e-17
5.9703665e-17
-1.1439227e-16
-5.4761429e-17
1.7449802e-28
5.0108666e-17
9.5779013e-17
-1.372229e-16
4.8484183e-29
4.1652647e-17
3.9711171e-17
3.7836893e-17
1.9988487e-29
-1.9026378e-29
-6.5213786e-17
-1.7197828e-29
5.8872522e-17
-5.5884244e-17
1.3242837e-28
7.5389192e-17
-4.7617607e-17
2.5032452e-29
4.2661239e-17
-2.0170539e-17
-1.9061241e-17
-3.6002552e-17
1.6989209e-17
4.8070749e-17
0
0
0
-3.7789825e-17
-3.5524701e-17
3.3373144e-17
3.1330963e-17
-1.9596022e-17
2.6108489e-33
-8.6066036e-18
2.6842061e-29
2.2618819e-17
-2.1148736e-17
3.2911626e-29
1.2300652e-17
3.1846204e-30
-2.9709597e-30
-9.9718902e-18
4.6425572e-18
-4.3197821e-18
1.3379443e-29
1.1196191e-17
-1.03956e-17
-3.2151076e-18
6.6185321e-30
-5.5235292e-18
5.1137155e-18
2.3654216e-18
2.1866883e-18
6.0598618e-18
-2.0699093e-30
-1.7197564e-18
-4.7550275e-18
9.7228393e-30
4.0296874e-18
0
-1.1347204e-18
-2.0833294e-18
9.5544259e-19
-8.7561125e-19
2.6701619e-30
1.466891e-18
-2.0109945e-18
1.3587535e-30
6.2005533e-31
5.646338e-31
5.1382176e-31
-4.2063463e-19
1.145216e-18
1.0376539e-18
-3.128351e-19
-5.6472661e-19
0
2.2831166e-19
-2.2679322e-31
4.0449216e-31
-1.794546e-31
-1.4259584e-19
1.2486821e-19
1.0829665e-19
-2.7815063e-19
-6.1025142e-47
1.1967612e-31
-6.8160465e-20
6.5502655e-32
-1.0968135e-19
1.3720293e-19
1.6057332e-19
7.0043362e-20
-7.5337396e-32
-8.9222456e-20
0
0
0
-2.0960906e-19
1.1637234e-19
2.1049896e-19
-2.826885e-19
1.016432e-19
3.3106999e-19
-3.1241607e-19
3.1131543e-31
1.9011544e-19
-3.0744867e-19
-2.032702e-19
0
1.8266096e-19
3.2858617e-31
1.0028556e-19
1.8063168e-19
-7.9703769e-20
0
-1.6108256e-19
-2.2068158e-35
-7.5320678e-32
6.2170579e-20
1.9320435e-19
-1.9453135e-19
9.5056877e-32
1.491587e-19
-1.5799068e-19
2.8492626e-31
9.9992647e-20
-4.370848e-20
5.4394534e-20
-1.3222309e-19
-5.7961404e-20
2.3030975e-31
6.7590645e-20
1.6460527e-19
7.4968786e-20
6.717775e-20
-1.5416699e-19
-8.6650519e-20
0
6.4159092e-20
-4.0264223e-32
1.5165587e-48
-7.8558319e-20
1.5151254e-35
-4.3734195e-20
2.4095726e-47
1.5892015e-19
-1.4799484e-19
-1.5032263e-19
1.1454828e-19
1.1817838e-19
0
-9.8845477e-20
6.3485748e-20
2.2183931e-19
-1.8821657e-19
7.2435685e-32
8.4362995e-20
-5.6028752e-20
0
4.4947875e-20
3.4902893e-20
-4.0009745e-20
7.4455963e-32
-8.0207366e-20
-2.0291787e-35
1.164824e-19
0
-1.2087914e-19
-8.0049254e-20
1.3322398e-19
9.2554412e-20
-1.2794507e-19
-4.2305593e-20
1.9544982e-19
5.3443368e-20
-1.0074203e-19
-9.1766697e-20
4.9936183e-32
4.6251874e-20
4.9803291e-20
5.4944774e-20
-5.6659299e-20
6.0010006e-32
-1.0571067e-19
1.7495546e-31
1.3599989e-19
0
0
-3.1893366e-20
4.2559262e-32
1.3763349e-20
-2.7038636e-20
9.4314822e-21
2.0055035e-32
5.4539555e-32
6.7429112e-20
-2.7862461e-20
1.6695154e-32
-3.3805642e-32
-3.2365752e-20
3.533043e-20
-5.7743597e-36
2.6803184e-32
-6.0643214e-32
-5.6497338e-20
0
5.0361323e-20
-9.3276596e-20
-4.1637402e-20
6.7580921e-20
0
-2.5710203e-20
2.5644394e-20
4.0080485e-20
-3.9098096e-20
3.2152622e-32
2.8000006e-32
-7.542093e-21
2.7503196e-20
-1.8947921e-36
-1.6799033e-20
-2.0903018e-20
2.6488636e-20
2.7791037e-20
-2.1514997e-20
0
1.6729837e-20
-3.4071113e-20
2.5462838e-32
1.4073586e-20
2.7427963e-32
1.9912972e-32
1.6891752e-36
9.1242484e-21
-1.4625537e-20
-1.8987933e-20
0
1.5909658e-20
3.6849172e-20
2.4752434e-36
-1.9421483e-20
-1.7774346e-20
1.6652083e-20
1.9334416e-20
-2.2377164e-20
0
-3.6426256e-20
-3.2359327e-20
4.6255714e-20
1.498022e-20
-1.3136715e-20
2.8256103e-36
8.8087055e-21
1.8049677e-20
6.7501953e-21
-4.6981736e-33
3.1433908e-21
-1.2914445e-32
-2.0563938e-20
8.7893353e-21
9.2293974e-21
9.7317137e-21
-1.0429246e-20
-1.065905e-20
-1.0700424e-20
-2.944382e-36
9.9209204e-21
-9.5659385e-21
2.8548335e-20
1.6973436e-20
-2.0230397e-20
5.0831754e-21
7.5977675e-21
-8.3100027e-21
4.1060209e-21
-2.1276914e-21
-2.6042033e-21
4.9620001e-21
-7.2674084e-22
2.4821016e-34
1.0199981e-21
5.3078391e-22
3.3833792e-22
-1.8415963e-22
2.121634e-21
-2.2672304e-21
-9.382819e-75
2.471483e-21
1.5613229e-21
2.6341458e-34
1.2354442e-21
1.5309843e-21
6.5962253e-22
-1.9674721e-21
-1.0390627e-20
8.9333508e-21
7.3792063e-22
1.8644629e-48
7.9784857e-22
-7.1867635e-21
-3.852144e-21
4.6468155e-21
9.4068296e-21
-4.5012255e-21
4.9868594e-21
-2.01277e-32
-1.3411355e-20
2.062084e-20
7.8569396e-33
-3.4429024e-32
1.9616315e-32
-1.9710776e-20
2.0658331e-20
-1.0154146e-20
-4.3115002e-20
1.2205385e-20
2.5912529e-20
0
2.3237148e-20
-2.9725354e-32
-8.6443462e-36
-1.7814883e-32
-1.5356996e-20
-1.469291e-20
1.5777865e-20
1.6984556e-20
-3.098094e-20
2.8880407e-20
-1.6215183e-32
-2.9725885e-20
3.1580119e-20
4.8960781e-32
-1.4823578e-32
-1.3547081e-20
-2.8737087e-20
1.5173679e-20
-1.5441682e-20
8.3888699e-33
1.3975941e-20
2.2614485e-20
-9.477111e-21
-1.9044971e-20
1.0238167e-20
-1.1041111e-20
1.9144029e-32
-1.1545501e-20
-2.4813404e-32
2.0875128e-20
1.9059392e-20
2.0309353e-32
-3.1217783e-32
3.1999627e-32
-9.6353912e-21
-9.5926089e-21
-9.3811435e-21
8.9828904e-21
0
0
-8.7558578e-21
4.6052166e-33
1.137497e-36
8.8981981e-33
8.0627771e-21
0
-7.3539689e-21
-1.4324558e-20
7.1067721e-21
1.3745695e-20
1.3171261e-20
1.2899659e-20
-1.8905027e-20
-1.9909761e-32
1.6973801e-20
-1.1280928e-20
-1.145749e-20
0
-4.9387765e-21
9.6875635e-21
5.1100621e-21
-1.0851417e-20
-5.5058386e-21
5.8572746e-33
1.5097574e-20
-5.1174766e-21
-1.6661655e-20
1.8299607e-20
6.3919845e-21
-1.9687139e-20
7.6092461e-33
7.2511899e-21
1.5352099e-20
8.9411045e-33
-1.6865701e-20
1.7791091e-20
-9.2903363e-21
-2.8409018e-20
0
1.0526681e-20
2.2237695e-20
-6.2792605e-33
1.0717634e-20
2.1779485e-20
-2.3935282e-20
-2.5396522e-20
0
-1.3346975e-20
-1.3484035e-32
-1.257139e-32
-1.3371646e-32
3.8804352e-20
2.6917955e-20
0
-2.7687104e-20
-3.044914e-32
-1.3371477e-20
-3.8316578e-20
1.2096553e-20
-6.6500351e-33
1.7406869e-36
1.2477067e-20
2.4586571e-20
-1.1580682e-20
-2.1883459e-20
1.080757e-20
0
2.1392429e-20
-1.0261514e-20
-2.8723623e-20
9.2388053e-21
9.2949931e-21
1.8449112e-20
-8.8478408e-21
-2.4717146e-20
7.8325691e-21
-8.5531637e-33
-1.5279031e-20
7.3948984e-21
7.003221e-21
1.3533312e-20
1.9935674e-20
-1.270795e-20
-1.1848476e-20
1.1141779e-20
6.0708494e-33
-1.1042263e-20
1.0832328e-20
5.595318e-33
-9.1956737e-21
0
8.4508302e-21
8.5112977e-21
0
-1.1546588e-20
-3.5774752e-21
-1.0056342e-36
-3.6378874e-21
-3.6398e-21
-3.7686123e-33
6.2162111e-21
6.0590438e-21
-1.051534e-32
-6.599943e-21
6.5683601e-21
1.0605691e-32
-6.3553942e-21
0
0
0
0
7.1852259e-21
4.1980869e-33
-8.3660858e-21
-4.583888e-21
9.6774509e-21
-1.6511145e-32
-1.0141748e-20
1.0613686e-20
6.2551885e-33
-5.9924239e-21
1.2447182e-20
-2.1065488e-32
-1.3140045e-20
1.4073185e-20
1.4846073e-20
-1.5188934e-20
-1.5327038e-20
0
0
0
0
-8.960621e-21
9.1232671e-21
9.0997021e-21
-9.9359614e-33
-3.4915727e-77
-8.1905685e-21
-1.7060588e-20
-8.947823e-21
1.8309591e-20
2.7647817e-20
-9.111098e-21
-1.769304e-20
2.5726319e-20
1.6940089e-20
-2.5491789e-20
-1.6689027e-20
-8.0319826e-21
-8.735881e-33
1.5777923e-20
0
-7.4626379e-21
7.0474498e-21
-1.4312479e-32
-1.764817e-36
-2.1254177e-32
-6.4493795e-21
-6.3330792e-21
1.7103559e-36
1.1302885e-20
1.0675146e-20
-1.7256236e-32
-1.0368528e-20
0
0
0
-4.3298988e-21
-4.2975754e-21
4.341986e-21
4.2907829e-21
-4.0837797e-21
7.6832302e-21
1.1270765e-20
0
-7.8419797e-21
-4.3215238e-33
-3.6774319e-21
-1.0276955e-20
3.3473642e-21
-5.7892835e-33
7.3912797e-21
-2.5182959e-32
-7.2550591e-21
-1.8867281e-33
-4.6564244e-37
3.3595171e-21
-3.5805075e-21
7.522631e-21
3.8611112e-21
-7.738678e-21
7.59684e-21
1.0623479e-36
-4.1460268e-33
-3.8198777e-21
-1.1970915e-20
8.2455033e-21
1.0353524e-50
4.0229261e-21
-6.4677366e-33
-7.8227098e-21
4.1234241e-21
8.7447094e-21
-4.9828716e-33
-1.3387292e-20
1.2454262e-36
4.313594e-21
-4.3640947e-21
9.090156e-21
4.6812155e-21
-9.3995136e-21
9.2670644e-21
5.0201912e-33
-2.5284764e-32
1.054724e-32
-9.7866636e-21
9.8059996e-21
-4.8058425e-21
-9.3127292e-21
4.6251129e-21
-4.7484193e-21
9.8049999e-21
-8.2376895e-33
-1.4569427e-20
0
0
1.3706169e-20
4.6553478e-21
-9.4048597e-21
9.2878071e-21
2.5367625e-36
-1.8631487e-32
-4.5591663e-33
-8.4540461e-21
8.7131339e-21
8.6958838e-21
-4.1987582e-21
-1.1984518e-20
-3.7972623e-21
3.7306949e-21
0
0
-3.8718131e-21
2.0574938e-33
1.0408522e-20
9.2706878e-37
-6.44889e-21
-3.3390053e-21
3.8307173e-33
1.052217e-20
7.7294771e-33
-6.748432e-21
0
-3.1026515e-21
6.2415967e-21
3.2647605e-21
-7.5929836e-33
-3.5053155e-21
-6.9897621e-21
3.4137414e-21
0
0
0
0
-3.701603e-21
2.1151566e-33
1.1623479e-20
-3.8973667e-21
-1.1703021e-20
1.1729521e-20
3.9811275e-21
-8.2592301e-21
-4.2784574e-21
-7.2536676e-33
1.3010261e-20
-2.435059e-36
-1.4339257e-32
-4.4337037e-21
-9.1678719e-21
-4.654444e-21
-5.1518891e-33
4.5969442e-21
4.6094082e-21
4.6982652e-21
4.8130996e-21
-1.0789482e-32
-9.6248575e-21
0
0
-4.5543935e-21
-7.6600559e-33
-6.6587319e-37
6.6845573e-37
4.5846672e-21
8.8153193e-21
8.535112e-21
-8.4686522e-21
-4.7643535e-33
-4.2851314e-21
-1.2405917e-20
0
0
3.710874e-21
3.7304089e-21
0
-3.4963364e-21
1.8103423e-33
3.0855113e-21
-3.0105625e-21
6.004975e-21
-9.7672253e-33
-8.2640422e-21
2.5375156e-21
2.3567777e-21
4.4950597e-21
-2.1748476e-21
-6.2090712e-21
1.9087445e-21
-9.6947853e-34
3.2896023e-21
1.5810507e-21
-2.9605475e-21
2.5837271e-21
2.1426502e-49
-2.0096271e-21
0
0
1.741107e-21
-7.5261026e-34
-1.6940597e-33
-4.2398933e-50
-1.5044895e-21
-5.9787439e-34
4.8778233e-22
6.3702438e-22
2.6698383e-22
-1.5025495e-22
-3.3946353e-34
-2.6170665e-22
-1.0779042e-33
3.3153065e-22
-5.9868254e-22
0
-1.4273125e-22
1.5063177e-34
2.4938971e-22
8.256416e-22
6.0684021e-34
-1.2130456e-21
0
0
-6.7119879e-22
4.5537577e-34
2.9542369e-21
1.2094099e-33
-2.2179981e-21
0
1.2571238e-21
-1.4539139e-21
-1.6630564e-21
-1.8021608e-21
-1.8373589e-21
3.7169718e-21
5.8618657e-21
-2.12975e-21
-4.6891353e-21
7.5382116e-21
-1.3652011e-50
-5.3002405e-21
0
0
0
0
6.5189423e-21
6.6362261e-21
-3.3838206e-21
-1.0434591e-20
-3.985506e-33
3.6857433e-21
-7.4902365e-21
-7.5672267e-21
3.8345201e-21
1.5609399e-20
7.9517263e-21
-1.2031973e-20
-8.0306528e-21
1.2046376e-20
8.913092e-33
-8.0220395e-21
0
0
0
8.0359943e-21
4.405703e-33
-8.591346e-33
3.7155259e-21
-1.0962596e-20
3.7213372e-21
3.7756704e-21
-1.1229619e-20
-7.2134359e-21
3.4228554e-21
6.5976088e-21
6.5832245e-21
-1.1150328e-32
3.6998149e-33
-9.1651974e-37
-6.1626554e-21
0
-2.8624276e-21
-2.872156e-21
2.8626266e-21
2.7931946e-21
-2.6779264e-21
-2.5515992e-21
4.9720633e-21
2.4878674e-21
-2.4744481e-21
2.4002744e-21
-2.269781e-21
-4.2649216e-21
0
0
6.5830533e-21
2.1831756e-21
-4.1878998e-21
-1.9685027e-21
-1.8672076e-21
3.6621351e-21
-2.0612658e-33
-3.7925315e-21
0
1.8676997e-21
5.370449e-21
3.8068656e-33
-9.3705176e-33
3.4209867e-21
-5.218813e-21
-1.7188013e-21
-4.6034127e-37
1.5126339e-21
-2.500301e-33
-2.6299901e-33
5.0034959e-21
-5.061075e-21
8.0118705e-33
-2.3891743e-33
-2.5818094e-21
1.3089471e-21
-1.4329134e-21
3.0597438e-21
1.5603312e-21
-3.0434007e-21
2.8436814e-21
-7.5250813e-37
-9.9348782e-33
-7.3814152e-37
-9.0292107e-33
2.7848536e-21
-4.1021562e-21
-8.4763001e-33
3.5270624e-21
-2.2869942e-21
-2.356347e-21
2.4678842e-21
-4.1701261e-33
-3.6175759e-21
1.229904e-33
3.0649109e-21
-5.6525696e-37
-2.0322927e-21
2.0980825e-21
3.5183157e-33
-3.3839672e-33
1.0330499e-33
-1.694404e-21
1.6129717e-21