/*--------------------------------*- C++ -*----------------------------------*\
  =========                 |
  \\      /  F ield         | OpenFOAM: The Open Source CFD Toolbox
   \\    /   O peration     | Website:  https://openfoam.org
    \\  /    A nd           | Version:  7
     \\/     M anipulation  |
\*---------------------------------------------------------------------------*/
FoamFile
{
    version     2.0;
    format      ascii;
    class       volVectorField;
    location    "0.00097";
    object      U;
}
// * * * * * * * * * * * * * * * * * * * * * * * * * * * * * * * * * * * * * //

dimensions      [0 1 -1 0 0 0 0];

internalField   nonuniform List<vector> 
5000
(
(2.6992518e-12 -2.7021173e-28 0)
(2.9919142e-12 -1.013294e-28 0)
(3.1276775e-12 0 0)
(2.993584e-12 0 0)
(2.9761356e-12 2.026588e-28 0)
(2.9344232e-12 1.7279728e-43 -1.519941e-28)
(2.7855299e-12 3.039882e-28 -6.4798982e-43)
(3.0302949e-12 0 1.0639587e-27)
(3.0702277e-12 0 1.013294e-28)
(2.8359745e-12 -1.1760165e-42 -2.3520329e-42)
(3.0935404e-12 -4.053176e-28 -4.053176e-28)
(3.5008688e-12 5.06647e-29 5.06647e-29)
(3.0518421e-12 -1.013294e-28 8.6398642e-43)
(3.1048006e-12 -1.519941e-28 -1.339179e-42)
(3.0812123e-12 0 1.013294e-28)
(2.9981976e-12 -3.9840239e-42 -7.9680479e-42)
(2.9671045e-12 -1.195306e-68 -5.97653e-69)
(2.5463286e-12 2.026588e-28 -1.7855719e-42)
(2.8140709e-12 0 5.1036094e-42)
(2.6079902e-12 -4.053176e-28 -8.106352e-28)
(2.7050548e-12 2.533235e-28 -2.533235e-28)
(2.8022773e-12 -2.026588e-28 0)
(2.6981188e-12 9.119646e-28 0)
(2.5850534e-12 -2.026588e-28 -2.026588e-28)
(3.0954432e-12 2.5581388e-42 6.592838e-56)
(3.0735167e-12 1.6703738e-42 1.6703738e-42)
(3.1386423e-12 -2.533235e-28 2.533235e-28)
(2.8224294e-12 2.026588e-28 2.026588e-28)
(2.5797382e-12 -1.013294e-28 5.06647e-29)
(2.9675775e-12 -4.391931e-42 2.533235e-28)
(2.4925872e-12 -1.2600693e-55 1.2600693e-55)
(2.6113501e-12 5.06647e-29 -4.3199321e-43)
(2.6391183e-12 3.039882e-28 -1.519941e-28)
(2.4637414e-12 -1.1146234e-27 5.573117e-28)
(2.2692313e-12 5.2703172e-42 3.039882e-28)
(2.4533593e-12 -1.3218992e-41 0)
(2.5810622e-12 -1.4054179e-41 0)
(2.3481363e-12 6.079764e-28 -3.039882e-28)
(2.5812729e-12 -1.013294e-28 -5.06647e-29)
(2.2976388e-12 -1.013294e-28 5.06647e-29)
(1.9986904e-12 3.039882e-28 -2.54876e-42)
(1.8426969e-12 -3.4847452e-42 -5.06647e-29)
(1.8848057e-12 1.013294e-28 -5.06647e-29)
(2.4473761e-12 -1.519941e-28 2.5703596e-42)
(2.2656999e-12 1.519941e-28 -5.06647e-29)
(2.3278565e-12 -5.06647e-28 5.06647e-28)
(2.0232112e-12 -5.573117e-28 -1.9166099e-41)
(1.7217386e-12 -6.9406909e-42 3.4703455e-42)
(2.3635652e-12 3.9214736e-42 -9.6283897e-57)
(2.0427278e-12 0 5.1839185e-42)
(2.3068489e-12 2.533235e-28 2.533235e-28)
(2.0502131e-12 -1.4399774e-44 0)
(1.9542412e-12 2.026588e-28 0)
(2.1445999e-12 -4.053176e-28 0)
(2.0144357e-12 5.3135165e-42 0)
(1.9253096e-12 -2.026588e-28 0)
(1.513708e-12 3.039882e-28 0)
(1.7221483e-12 -8.7478626e-42 0)
(1.8394215e-12 -1.519941e-28 0)
(1.656829e-12 0 0)
(2.3198838e-12 2.026588e-28 0)
(2.671035e-12 -8.6398642e-42 0)
(2.2856626e-12 -4.3199321e-44 0)
(2.2168668e-12 1.519941e-28 -1.519941e-28)
(2.076646e-12 5.6583951e-42 5.6583951e-42)
(2.5717403e-12 -8.8558609e-42 -2.533235e-28)
(2.5344777e-12 -5.06647e-29 8.7118631e-43)
(2.2942022e-12 5.06647e-29 -1.4636499e-56)
(2.5287349e-12 1.013294e-28 -1.013294e-28)
(2.4364732e-12 -1.519941e-28 0)
(2.5048924e-12 -1.519941e-28 0)
(3.1174297e-12 2.533235e-28 2.533235e-28)
(3.0014486e-12 4.559823e-28 4.559823e-28)
(3.1768402e-12 -8.106352e-28 0)
(3.3916478e-12 -4.559823e-28 -4.559823e-28)
(3.5545237e-12 3.039882e-28 -1.0497435e-41)
(2.9824095e-12 0 2.026588e-28)
(2.9814253e-12 -1.519941e-28 1.519941e-28)
(3.068909e-12 2.1599661e-44 -1.519941e-28)
(2.8703693e-12 3.039882e-28 -6.079764e-28)
(2.8309802e-12 5.06647e-29 -1.013294e-28)
(3.2162097e-12 -1.4399774e-44 2.8799547e-44)
(3.7191787e-12 -7.1998869e-44 -7.599705e-28)
(3.35428e-12 1.013294e-28 -2.026588e-28)
(3.1618941e-12 5.06647e-28 -5.2703172e-41)
(3.3248002e-12 1.0583834e-41 6.079764e-28)
(3.4712025e-12 1.519941e-28 4.559823e-28)
(3.4799567e-12 0 -3.546529e-28)
(3.4654854e-12 4.053176e-28 -4.053176e-28)
(3.2032921e-12 3.6791422e-41 3.546529e-28)
(3.2470115e-12 1.7711722e-42 -5.06647e-29)
(3.2991405e-12 4.053176e-28 4.053176e-28)
(3.2650355e-12 4.559823e-28 1.5875751e-41)
(3.4057956e-12 -3.039882e-28 -3.039882e-28)
(3.5251549e-12 -2.1038069e-41 -2.1038069e-41)
(3.2910331e-12 5.06647e-28 -5.06647e-28)
(3.3188379e-12 0 5.06647e-29)
(3.3112989e-12 0 1.2448604e-41)
(3.5259118e-12 3.546529e-28 -2.4695612e-41)
(3.4564961e-12 3.1621903e-41 -9.119646e-28)
(3.598777e-12 -2.026588e-28 -1.013294e-28)
(3.4126205e-12 5.06647e-29 5.06647e-29)
(3.4620776e-12 3.039882e-28 -2.1599661e-44)
(3.5563927e-12 0 -3.039882e-28)
(3.5120332e-12 -1.519941e-28 0)
(3.5529111e-12 -1.519941e-28 1.519941e-28)
(3.6508734e-12 4.559823e-28 1.5875751e-41)
(3.6034693e-12 4.053176e-28 -4.053176e-28)
(3.3922256e-12 0 4.053176e-28)
(3.1857908e-12 0 3.039882e-28)
(3.0721324e-12 5.5232178e-42 1.1046436e-41)
(3.3044562e-12 2.026588e-28 2.026588e-28)
(2.7532261e-12 0 -1.0639587e-27)
(2.6820368e-12 -5.06647e-28 -5.06647e-28)
(2.9753443e-12 -3.5423443e-42 -3.039882e-28)
(3.1351639e-12 -2.026588e-28 2.026588e-28)
(2.8269803e-12 -1.519941e-28 -1.519941e-28)
(3.0489211e-12 1.4399774e-44 -2.8799547e-44)
(3.3924844e-12 5.3135165e-42 1.519941e-28)
(3.6640701e-12 1.4636499e-56 -4.559823e-28)
(3.7840188e-12 -2.026588e-28 7.0846887e-42)
(3.5772834e-12 6.4798982e-44 3.039882e-28)
(3.3601783e-12 1.013294e-28 -2.026588e-28)
(3.5105621e-12 0 -4.559823e-28)
(3.442748e-12 4.053176e-28 4.053176e-28)
(3.2934711e-12 -2.026588e-28 -2.026588e-28)
(3.1760972e-12 -4.053176e-28 4.053176e-28)
(3.2374239e-12 2.026588e-28 2.026588e-28)
(3.2890502e-12 -1.013294e-28 1.013294e-28)
(3.830847e-12 1.013294e-28 1.7495725e-42)
(3.9158636e-12 -5.06647e-29 -5.06647e-29)
(3.9476531e-12 1.5480884e-41 -3.0961767e-41)
(3.9261308e-12 -3.039882e-28 -3.039882e-28)
(3.8761073e-12 -4.053176e-28 -4.053176e-28)
(3.93004e-12 0 -2.026588e-28)
(3.5986295e-12 5.06647e-29 -1.7639723e-42)
(3.7409237e-12 2.026588e-28 -7.0270896e-42)
(3.8613562e-12 -2.026588e-28 7.0558891e-42)
(4.2355992e-12 -1.7567724e-42 1.013294e-28)
(3.9858821e-12 2.533235e-28 2.533235e-28)
(3.7018981e-12 -2.026588e-28 -2.026588e-28)
(3.9004851e-12 4.2256986e-42 8.4513972e-42)
(4.0655134e-12 0 -5.06647e-29)
(4.0716277e-12 -3.039882e-28 3.039882e-28)
(3.8983309e-12 -5.573117e-28 -3.8648993e-41)
(4.157169e-12 5.06647e-28 -1.013294e-27)
(3.7974275e-12 1.013294e-28 -2.8799547e-44)
(3.5624094e-12 -2.3039638e-43 1.1519819e-43)
(3.6960697e-12 -2.533235e-28 -1.3172849e-55)
(3.4053149e-12 1.519941e-28 1.519941e-28)
(3.1947155e-12 -2.026588e-28 -1.4054179e-41)
(3.2289675e-12 3.1751501e-41 6.3503002e-41)
(3.9091157e-12 2.026588e-28 2.026588e-28)
(4.091584e-12 5.06647e-29 5.06647e-29)
(3.8095458e-12 -1.013294e-28 -1.013294e-28)
(3.6536791e-12 2.533235e-28 8.783862e-42)
(3.7039962e-12 -2.533235e-28 -2.533235e-28)
(3.6887577e-12 0 -3.039882e-28)
(3.1449417e-12 0 3.5999434e-44)
(3.3512071e-12 1.519941e-28 1.519941e-28)
(3.5444396e-12 1.519941e-28 0)
(3.1568157e-12 -8.0824405e-42 -8.0824405e-42)
(3.2477766e-12 -7.259229e-42 -5.0238846e-55)
(2.9777554e-12 -1.013294e-28 -2.026588e-28)
(2.8816204e-12 -2.4594814e-41 3.546529e-28)
(2.9100831e-12 4.559823e-28 -1.2959796e-43)
(3.1371874e-12 -1.519941e-28 -1.519941e-28)
(3.3738958e-12 -1.519941e-28 1.519941e-28)
(3.2584578e-12 0 -1.519941e-28)
(2.8736987e-12 -5.06647e-29 -5.06647e-29)
(3.305622e-12 1.519941e-28 -6.3330205e-41)
(3.460353e-12 0 -5.1579577e-54)
(3.4293599e-12 3.546529e-28 -3.546529e-28)
(2.9966664e-12 1.013294e-28 2.026588e-28)
(3.1354531e-12 0 0)
(3.3378845e-12 1.519941e-28 -1.0540634e-41)
(3.2639888e-12 4.2162538e-41 -4.2162538e-41)
(3.4959611e-12 -1.013294e-28 1.013294e-28)
(3.5079752e-12 -3.039882e-28 -3.039882e-28)
(3.5664102e-12 -3.039882e-28 -2.0951671e-41)
(3.3904229e-12 5.06647e-29 5.06647e-29)
(3.2957445e-12 2.4494015e-41 -3.546529e-28)
(3.4107767e-12 -2.0908471e-41 -2.0908471e-41)
(3.1626213e-12 2.1599661e-44 2.1599661e-44)
(2.7656956e-12 -5.06647e-29 -7.0198897e-42)
(2.8994852e-12 1.1318575e-42 2.263715e-42)
(2.9714151e-12 -1.4054179e-41 1.013294e-28)
(2.459499e-12 2.4393217e-41 3.546529e-28)
(2.4122328e-12 -1.0454236e-41 -1.0454236e-41)
(2.6780865e-12 -1.047511e-41 -7.5100672e-55)
(2.4500713e-12 0 -3.1600303e-41)
(2.7773897e-12 0 -6.99829e-42)
(2.9956249e-12 3.039882e-28 3.039882e-28)
(2.743491e-12 1.519941e-28 0)
(2.4002354e-12 0 0)
(2.7618555e-12 0 0)
(3.1395722e-12 -2.2911465e-41 0)
(3.1695262e-12 4.8788331e-57 2.533235e-28)
(3.0171729e-12 5.06647e-29 -1.0562234e-41)
(2.5633654e-12 0 2.533235e-28)
(2.4530051e-12 4.559823e-28 4.559823e-28)
(2.7345824e-12 -7.599705e-28 -7.599705e-28)
(3.0306566e-12 -1.6847735e-40 -6.079764e-28)
(2.5189951e-12 7.093058e-28 7.093058e-28)
(2.4963975e-12 -3.039882e-28 2.1038069e-41)
(2.5146982e-12 -6.3114208e-41 -6.3114208e-41)
(2.8079377e-12 -3.5999434e-44 -2.533235e-28)
(2.9823777e-12 2.1878315e-42 2.1937296e-42)
(3.0634208e-12 -2.026588e-28 -2.026588e-28)
(3.0695871e-12 2.8799547e-44 0)
(2.7347334e-12 -2.1038069e-41 1.519941e-28)
(2.6549439e-12 1.0519035e-41 1.0519035e-41)
(3.1450391e-12 3.039882e-28 3.039882e-28)
(3.322252e-12 0 4.053176e-28)
(3.0038781e-12 -2.026588e-28 -2.8223557e-41)
(2.7503648e-12 3.5063449e-42 5.06647e-29)
(2.8140486e-12 1.4061379e-41 -1.013294e-28)
(2.8461516e-12 -5.06647e-29 -5.06647e-29)
(3.0640035e-12 0 -1.519941e-28)
(3.3484487e-12 7.093058e-28 7.093058e-28)
(3.50557e-12 8.106352e-28 -8.106352e-28)
(3.4431822e-12 0 0)
(3.7282553e-12 0 0)
(3.6564453e-12 0 0)
(3.5166631e-12 3.039882e-28 3.039882e-28)
(4.0035089e-12 -1.7531725e-41 2.533235e-28)
(3.5990355e-12 5.573117e-28 1.1146234e-27)
(3.5983582e-12 0 -3.039882e-28)
(3.5275565e-12 0 2.1124468e-41)
(3.6602656e-12 -3.039882e-28 -3.039882e-28)
(3.512948e-12 -5.06647e-29 -5.06647e-29)
(3.4049177e-12 -2.026588e-28 -4.053176e-28)
(3.6976284e-12 -1.013294e-28 2.8799547e-44)
(3.242276e-12 0 1.4399774e-44)
(3.3797553e-12 -1.519941e-28 -1.519941e-28)
(3.2502798e-12 2.026588e-28 2.026588e-28)
(3.019801e-12 -6.586411e-28 -1.3172822e-27)
(3.1850722e-12 -3.039882e-28 4.3199321e-44)
(3.3225425e-12 0 3.5413758e-55)
(3.3130166e-12 -5.06647e-29 -5.06647e-29)
(2.8016682e-12 1.4068579e-41 2.8137158e-41)
(2.7479544e-12 -1.0540634e-41 -2.1081269e-41)
(2.9739099e-12 2.533235e-28 2.533235e-28)
(3.1009478e-12 1.519941e-28 1.519941e-28)
(2.9227815e-12 3.546529e-28 0)
(2.9132501e-12 0 2.533235e-28)
(2.9316346e-12 -1.013294e-28 -1.013294e-28)
(3.1368667e-12 3.5207447e-41 -2.533235e-28)
(3.0585299e-12 -3.546529e-28 3.546529e-28)
(2.8455367e-12 -2.1081269e-41 0)
(3.0988553e-12 4.053176e-28 2.026588e-28)
(2.8486016e-12 -2.026588e-28 -2.026588e-28)
(3.1213474e-12 2.1081269e-41 -1.519941e-28)
(3.0411081e-12 -5.2767971e-41 -5.2767971e-41)
(2.3080828e-12 -7.0126898e-42 -2.026588e-28)
(2.8220638e-12 2.026588e-28 4.053176e-28)
(2.4288993e-12 -2.5475918e-41 -7.6439551e-41)
(2.2870919e-12 2.026588e-28 4.053176e-28)
(2.3428353e-12 0 0)
(1.6964994e-12 -4.559823e-28 -9.119646e-28)
(1.7807425e-12 -2.533235e-28 -2.533235e-28)
(2.4946261e-12 0 -3.546529e-28)
(2.3535256e-12 -3.039882e-28 -3.039882e-28)
(1.7848398e-12 -2.026588e-28 -2.026588e-28)
(1.9369672e-12 8.106352e-28 8.106352e-28)
(1.9546912e-12 2.026588e-28 4.053176e-28)
(1.8245961e-12 5.06647e-29 5.06647e-29)
(1.7302373e-12 -1.013294e-28 -2.026588e-28)
(2.1147729e-12 -5.9584614e-54 -5.9584614e-54)
(1.683993e-12 1.519941e-28 3.039882e-28)
(1.826372e-12 -2.533235e-28 -2.533235e-28)
(1.9911882e-12 1.7349086e-55 3.4698172e-55)
(2.2158826e-12 3.039882e-28 3.039882e-28)
(2.3973693e-12 -3.546529e-28 -7.093058e-28)
(2.2719539e-12 -1.0562234e-41 -1.519941e-28)
(2.6512153e-12 2.1167667e-41 4.2335335e-41)
(2.3837021e-12 -4.3199321e-44 1.519941e-28)
(2.4719307e-12 -1.0497435e-41 -1.519941e-28)
(2.7319732e-12 1.013294e-28 1.013294e-28)
(2.8758707e-12 0 1.013294e-28)
(2.8320408e-12 0 -8.4555471e-41)
(2.9642973e-12 6.079764e-28 -1.2159528e-27)
(3.1956237e-12 4.559823e-28 9.119646e-28)
(2.740028e-12 0 7.0126898e-42)
(3.0303589e-12 0 -1.013294e-28)
(3.1255127e-12 0 0)
(2.8418817e-12 0 0)
(3.313571e-12 4.053176e-28 4.053176e-28)
(2.7838883e-12 3.1427506e-41 -4.559823e-28)
(2.5020865e-12 -1.4186116e-27 -1.4186116e-27)
(2.5339732e-12 2.1599661e-43 5.06647e-28)
(2.8224959e-12 1.013294e-28 -2.8799547e-44)
(3.3911603e-12 -2.026588e-28 -2.026588e-28)
(3.1578019e-12 3.5171447e-41 -2.533235e-28)
(3.0793448e-12 2.1059669e-41 1.519941e-28)
(3.4451532e-12 2.1599661e-44 0)
(3.2868589e-12 2.026588e-28 2.026588e-28)
(3.5585918e-12 2.026588e-28 2.026588e-28)
(3.2499719e-12 -1.013294e-28 0)
(2.8189798e-12 1.1146234e-27 1.1146234e-27)
(2.9744848e-12 1.6719351e-27 5.573117e-28)
(3.3176377e-12 -1.013294e-28 -2.026588e-28)
(3.6631588e-12 6.079764e-28 -2.1038069e-41)
(3.3356747e-12 0 8.6398642e-44)
(3.1523169e-12 -2.026588e-28 -2.026588e-28)
(3.3470071e-12 -3.546529e-28 -3.546529e-28)
(3.373944e-12 3.039882e-28 3.039882e-28)
(3.3951856e-12 -2.8799547e-44 -1.013294e-28)
(3.2103541e-12 4.3199321e-44 1.013294e-28)
(3.173993e-12 1.4399774e-44 2.8799547e-44)
(3.2580711e-12 -2.533235e-28 -5.06647e-28)
(3.3208041e-12 -6.586411e-28 6.586411e-28)
(3.5366993e-12 5.06647e-28 5.06647e-28)
(3.4299741e-12 5.06647e-28 2.533235e-28)
(3.2524028e-12 -2.533235e-28 3.5135448e-41)
(3.4746715e-12 -4.8788331e-57 -4.559823e-28)
(3.8304127e-12 -3.039882e-28 0)
(3.5887965e-12 -8.4238676e-41 0)
(3.7239716e-12 5.06647e-28 2.533235e-28)
(3.4326426e-12 0 -7.0342895e-42)
(3.3991642e-12 0 -8.4368274e-41)
(3.4293598e-12 6.079764e-28 -4.2248936e-41)
(3.3603594e-12 -5.6274316e-41 1.013294e-28)
(3.2637287e-12 -1.013294e-28 -5.06647e-29)
(3.4717232e-12 0 -2.1599661e-44)
(3.2251088e-12 -5.06647e-29 -5.06647e-29)
(3.528375e-12 1.519941e-28 0)
(3.3927544e-12 -2.026588e-28 0)
(3.5950279e-12 1.4399774e-44 0)
(3.8764731e-12 2.8137158e-41 0)
(4.1644367e-12 -6.4798982e-44 0)
(4.5882178e-12 -5.573117e-28 0)
(4.9548922e-12 1.013294e-27 0)
(5.5632391e-12 1.4692763e-27 1.4692763e-27)
(5.8268363e-12 0 0)
(5.8913163e-12 -1.2159528e-27 -1.2159528e-27)
(6.2998948e-12 1.7585724e-40 0)
(6.6139539e-12 1.3679469e-27 1.3679469e-27)
(6.6691912e-12 -2.4319056e-27 3.373003e-40)
(7.3834104e-12 4.075712e-40 -1.4692763e-27)
(7.813986e-12 2.1279174e-27 0)
(8.373438e-12 6.4715463e-40 0)
(8.9558711e-12 4.2558348e-27 2.1279174e-27)
(1.0032356e-11 -4.559823e-27 3.1654303e-40)
(1.0651623e-11 -2.5838997e-27 -2.5838997e-27)
(1.1174892e-11 2.6852291e-27 0)
(1.2410846e-11 4.0319366e-43 0)
(1.3616524e-11 3.546529e-27 3.546529e-27)
(1.4493698e-11 0 3.7998525e-27)
(1.5890487e-11 0 -4.2051701e-27)
(1.7338409e-11 -4.9651406e-27 -4.9651406e-27)
(1.9014615e-11 7.5189859e-40 0)
(2.0979222e-11 1.175421e-26 5.8771052e-27)
(2.2774938e-11 -8.9278597e-43 -8.9278597e-43)
(2.495627e-11 -2.1583162e-26 -7.1943874e-27)
(2.759328e-11 8.2583461e-27 8.2583461e-27)
(2.9520608e-11 8.9169872e-27 8.9169872e-27)
(3.203699e-11 -1.9455245e-26 -9.7276224e-27)
(3.4985603e-11 1.0740916e-26 -1.0740916e-26)
(3.7381858e-11 -1.1500887e-26 0)
(4.1415659e-11 -2.533235e-26 1.2666175e-26)
(4.561137e-11 1.3730134e-26 1.3730134e-26)
(4.9535585e-11 1.4743428e-26 -1.4743428e-26)
(5.456592e-11 1.6263369e-26 -1.6263369e-26)
(6.0016257e-11 -1.7935304e-26 0)
(6.5259287e-11 1.5612266e-55 1.9657904e-26)
(7.1419506e-11 2.1583162e-26 2.1583162e-26)
(7.8659075e-11 -2.3761744e-26 -2.3761744e-26)
(8.6162183e-11 2.619365e-26 -2.619365e-26)
(9.4258569e-11 -2.8878879e-26 0)
(1.0309476e-10 -8.7467826e-39 0)
(1.1279237e-10 -9.8206457e-42 0)
(1.2272151e-10 -3.8099854e-26 0)
(1.3473732e-10 8.3596755e-26 0)
(1.4795444e-10 -4.5547565e-26 0)
(1.6174061e-10 -1.3871619e-38 0)
(1.7756806e-10 1.5150405e-38 0)
(1.9451824e-10 5.9733681e-26 5.9733681e-26)
(2.1242058e-10 1.3122157e-25 -4.6056185e-54)
(2.32435e-10 -2.1537564e-25 -7.179188e-26)
(2.5462966e-10 -2.1643436e-38 0)
(2.7844563e-10 4.7418801e-38 0)
(3.052724e-10 -2.6043791e-38 0)
(3.3461213e-10 2.0498938e-25 1.0249469e-25)
(3.6580118e-10 -2.2353266e-25 1.550176e-38)
(3.9993723e-10 3.3870572e-38 -1.2210193e-25)
(4.3745995e-10 2.6720563e-25 1.3360281e-25)
(4.7899838e-10 0 -2.0272822e-38)
(5.236429e-10 0 2.2636444e-41)
(5.7264254e-10 -1.7413457e-25 2.4176853e-38)
(6.2629978e-10 2.6400776e-38 -1.9034728e-25)
(6.8453353e-10 2.078266e-25 2.078266e-25)
(7.4842215e-10 2.2657254e-25 -2.2657254e-25)
(8.1866421e-10 -2.4714241e-25 1.373233e-37)
(8.9424337e-10 -8.0967257e-25 2.6989086e-25)
(9.7658951e-10 2.945139e-25 -2.945139e-25)
(1.0676172e-09 3.2156885e-25 0)
(1.1666169e-09 9.9747233e-41 0)
(1.2745216e-09 3.8277181e-25 3.8277181e-25)
(1.3922971e-09 0 5.7990682e-38)
(1.5206552e-09 -9.1115396e-25 -4.5557698e-25)
(1.6597165e-09 -9.9272413e-25 4.9636206e-25)
(1.8126555e-09 5.4079501e-25 5.4079501e-25)
(1.9794255e-09 1.1790689e-24 0)
(2.159947e-09 6.4237773e-25 -6.4237773e-25)
(2.3571483e-09 -1.3988524e-24 -6.9942618e-25)
(2.5730849e-09 -1.5242982e-24 7.6214908e-25)
(2.8079552e-09 1.6608902e-24 2.3048006e-37)
(3.0625083e-09 1.8082231e-24 1.4773107e-53)
(3.3398249e-09 0 1.3661997e-37)
(3.642129e-09 -2.1425088e-24 -1.0712544e-24)
(3.9713285e-09 1.1662507e-24 1.1662507e-24)
(4.3286304e-09 2.5378961e-24 -8.2276642e-53)
(4.7186187e-09 -1.3807144e-24 1.9169846e-37)
(5.1425674e-09 -1.502411e-24 1.502411e-24)
(5.6041025e-09 2.3222515e-40 0)
(6.1055263e-09 -2.4675584e-37 0)
(6.6505705e-09 -1.932453e-24 -1.932453e-24)
(7.2434493e-09 2.1005585e-24 -2.9850731e-40)
(7.8880091e-09 2.2836607e-24 9.5021711e-37)
(8.5893372e-09 -2.4825703e-24 -2.4825703e-24)
(9.3505224e-09 3.7412225e-37 0)
(1.0178219e-08 4.1644146e-40 0)
(1.1077344e-08 4.4156826e-37 3.1836684e-24)
(1.2053149e-08 3.4579671e-24 -9.5873443e-37)
(1.3113447e-08 -3.7549129e-24 -3.7549129e-24)
(1.4265873e-08 1.6981478e-36 0)
(1.5516404e-08 6.145507e-37 0)
(1.6873685e-08 1.3334125e-36 0)
(1.8346509e-08 5.2141069e-24 5.2141069e-24)
(1.9943603e-08 -5.657575e-24 -8.0398977e-40)
(2.1677439e-08 8.5217603e-37 -6.1378257e-24)
(2.3559675e-08 1.8459697e-36 6.6580509e-24)
(2.5600123e-08 1.0261495e-39 -7.220885e-24)
(2.7812287e-08 1.5659547e-23 2.1763976e-36)
(3.0210614e-08 8.4884145e-24 1.6976829e-23)
(3.2811986e-08 -9.2016214e-24 -9.2016214e-24)
(3.5631431e-08 -1.994649e-23 -4.1540574e-36)
(3.8686201e-08 1.5004843e-36 -1.5004843e-36)
(4.1996873e-08 2.341844e-23 1.6257087e-36)
(4.558352e-08 1.2684364e-23 1.2684364e-23)
(4.9467391e-08 -2.7476784e-23 0)
(5.3673921e-08 -1.4877334e-23 0)
(5.8229472e-08 1.6108385e-23 -1.6108385e-23)
(6.3160975e-08 1.7438334e-23 -2.4211391e-36)
(6.8499623e-08 5.2384543e-36 5.2384543e-36)
(7.4277501e-08 -2.042598e-23 7.7553931e-53)
(8.0529369e-08 0 2.2101361e-23)
(8.729376e-08 0 -2.3910242e-23)
(9.4611201e-08 -2.5862455e-23 -2.5862455e-23)
(1.0252527e-07 0 0)
(1.1108361e-07 3.0242773e-23 3.0242773e-23)
(1.2033627e-07 -3.2695603e-23 4.5394591e-36)
(1.30338e-07 -5.0223387e-39 -3.5341567e-23)
(1.411485e-07 1.0600635e-35 0)
(1.5283135e-07 0 0)
(1.6545377e-07 4.4589546e-23 4.4589546e-23)
(1.7909009e-07 -4.8165258e-23 -1.368939e-38)
(1.9381861e-07 -5.2019322e-23 1.9249436e-52)
(2.0972323e-07 1.1234451e-22 5.6172257e-23)
(2.2689609e-07 6.0645798e-23 -6.0645798e-23)
(2.4543539e-07 -6.5464112e-23 9.0704346e-36)
(2.654465e-07 0 -9.809584e-36)
(2.870411e-07 0 2.1160196e-35)
(3.1034243e-07 8.2259308e-23 8.2259308e-23)
(3.3548064e-07 -2.4652615e-35 -8.8735219e-23)
(3.6259437e-07 -9.5704402e-23 2.6575208e-35)
(3.9183462e-07 0 -2.8672207e-35)
(4.2336398e-07 0 3.0913563e-35)
(4.5735556e-07 1.1994928e-22 1.1994928e-22)
(4.9399477e-07 -5.3866857e-35 -1.2928182e-22)
(5.3347943e-07 -1.3931607e-22 3.86853e-35)
(5.7602556e-07 0 -2.0883095e-35)
(6.218635e-07 0 0)
(6.712358e-07 0 1.7415985e-22)
(7.2440851e-07 0 -1.8754846e-22)
(7.8166463e-07 0 2.8036188e-35)
(8.4330606e-07 0 -3.0891604e-38)
(9.096569e-07 0 3.2484539e-35)
(9.8106389e-07 0 -3.4993477e-35)
(1.0579004e-06 -5.4181154e-22 -2.7090577e-22)
(1.1405652e-06 -1.6176531e-34 2.9142913e-22)
(1.2294845e-06 3.1345277e-22 3.1345277e-22)
(1.3251149e-06 -3.3708238e-22 -3.3708238e-22)
(1.4279447e-06 3.6243029e-22 -3.6243029e-22)
(1.5384971e-06 -3.8961636e-22 0)
(1.6573306e-06 1.1640279e-34 4.1876882e-22)
(1.7850428e-06 4.5002322e-22 4.5002322e-22)
(1.9222752e-06 1.3426548e-34 0)
(2.0697109e-06 5.1943224e-22 -5.1943224e-22)
(2.2280791e-06 0 7.7459795e-35)
(2.3981622e-06 0 -8.514088e-38)
(2.5807938e-06 -6.4327789e-22 -8.922132e-35)
(2.7768664e-06 -1.9175546e-34 6.905625e-22)
(2.987332e-06 7.4119143e-22 -7.4119143e-22)
(3.2132057e-06 0 -1.1031921e-34)
(3.4555742e-06 0 2.3697368e-34)
(3.715597e-06 0 9.1548864e-22)
(3.994509e-06 0 9.8191477e-22)
(4.2936293e-06 0 -2.1059486e-21)
(4.6143666e-06 0 1.6043714e-37)
(4.9582223e-06 0 -1.6785897e-34)
(5.3267965e-06 -2.5942826e-21 -1.2971413e-21)
(5.7217959e-06 1.1571571e-33 1.3900254e-21)
(6.1450403e-06 2.9785909e-21 -2.0677386e-34)
(6.5984673e-06 -1.5953701e-21 -1.5953701e-21)
(7.0841433e-06 -2.4282027e-37 0)
(7.60427e-06 -1.8297449e-21 0)
(8.1611904e-06 1.0862902e-33 0)
(8.7574005e-06 4.194098e-21 2.097049e-21)
(9.3955594e-06 2.2444033e-21 2.2444033e-21)
(1.0078495e-05 -7.8189694e-51 -2.4016808e-21)
(1.0809217e-05 -7.7085544e-21 -2.5695181e-21)
(1.1590929e-05 0 0)
(1.2427039e-05 5.8792228e-21 2.9396114e-21)
(1.3321173e-05 0 3.1433422e-21)
(1.4277183e-05 0 -3.3605856e-21)
(1.5299167e-05 -7.1843888e-21 -3.5921944e-21)
(1.6391479e-05 1.0649424e-33 0)
(1.755875e-05 1.2306512e-20 4.1021706e-21)
(1.8805896e-05 -4.3825067e-21 4.3825067e-21)
(2.0138141e-05 -4.6811501e-21 -4.6811501e-21)
(2.1561034e-05 4.9992359e-21 -1.3881883e-33)
(2.3080465e-05 -5.3379647e-21 5.3379647e-21)
(2.470269e-05 5.6986057e-21 0)
(2.6434347e-05 1.6872612e-33 0)
(2.8282481e-05 -6.4910765e-21 0)
(3.0254566e-05 6.9258279e-21 0)
(3.235853e-05 0 -7.3883453e-21)
(3.4602781e-05 7.8803061e-21 2.1859645e-33)
(3.6996236e-05 -8.4034825e-21 8.4034825e-21)
(3.9548343e-05 -1.7919493e-20 -8.9597465e-21)
(4.2269119e-05 9.5510756e-21 -1.3260718e-33)
(4.5169179e-05 1.0179557e-20 1.4147768e-33)
(4.8259765e-05 1.0847394e-20 3.3129847e-50)
(5.1552788e-05 1.1556911e-20 -1.1556911e-20)
(5.506086e-05 -2.4621124e-20 -1.2310562e-20)
(5.8797335e-05 -1.3110934e-20 2.6221868e-20)
(6.2776344e-05 1.3960756e-20 1.938312e-33)
(6.7012846e-05 0 -2.0614543e-33)
(7.1522667e-05 -1.5820413e-20 1.5820413e-20)
(7.6322549e-05 1.6836476e-20 0)
(8.1430198e-05 1.7914461e-20 -1.7914461e-20)
(8.6864334e-05 -5.7173741e-20 -1.9057914e-20)
(9.264475e-05 -5.7612422e-36 2.0270569e-20)
(9.8792363e-05 4.3112716e-20 5.9796449e-33)
(0.00010532928 -2.2919418e-20 -2.2919418e-20)
(0.00011227885 -3.3827136e-33 0)
(0.00011966573 -2.5895001e-20 0)
(0.00012751599 7.8207796e-36 2.7516922e-20)
(0.0001358571 5.8469872e-20 -4.0548255e-33)
(0.00014471811 -3.1054369e-20 -3.1054369e-20)
(0.00015412963 0 0)
(0.000164124 9.7244046e-33 3.5020171e-20)
(0.0001747353 5.2833969e-36 -5.2833969e-36)
(0.00018599948 3.9462598e-20 1.0957978e-32)
(0.00019795446 -4.1878978e-20 5.8085281e-33)
(0.00021064018 1.2338686e-32 -4.4434894e-20)
(0.00022409878 6.5379228e-33 4.713785e-20)
(0.00023837461 7.1048196e-36 -7.1048196e-36)
(0.00025351442 5.3016774e-20 1.4721703e-32)
(0.00026956746 -5.6209663e-20 5.6209663e-20)
(0.00028658554 1.6691035e-49 -5.9583473e-20)
(0.00030462326 1.7534866e-32 -1.7534866e-32)
(0.00032373804 9.5088215e-36 -9.5088215e-36)
(0.00034399032 1.4177581e-19 9.8420802e-33)
(0.00036544368 1.0414167e-32 7.5085229e-20)
(0.000388165 -7.9515813e-20 -7.9515813e-20)
(0.00041222459 0 0)
(0.00043769637 0 4.9483971e-32)
(0.00046465804 9.4329853e-20 1.3083357e-32)
(0.00049319124 4.1534105e-32 4.1534105e-32)
(0.00052338174 -1.0560734e-19 1.5007705e-35)
(0.00055531964 1.1170962e-19 1.1170962e-19)
(0.00058909952 -1.640279e-32 -1.1814163e-19)
(0.0006248207 1.3395517e-48 1.3395517e-48)
(0.00066258742 1.833537e-32 1.833537e-32)
(0.00070250904 -1.3958356e-19 -3.8759576e-32)
(0.00074470031 -1.4750578e-19 2.047971e-32)
(0.00078928159 -2.1615695e-32 -3.1169452e-19)
(0.00083637906 1.6462831e-19 1.6462831e-19)
(0.00088612504 0 1.7387014e-19)
(0.00093865818 0 2.5490317e-32)
(0.00099412377 -1.9382546e-19 -2.6910737e-32)
(0.001052674 2.0458603e-19 -4.0917206e-19)
(0.0011144684 -1.7973198e-31 2.1590157e-19)
(0.0011796737 -2.2779815e-19 2.2779815e-19)
(0.0012484648 2.4030291e-19 6.1705511e-49)
(0.0013210245 0 0)
(0.0013975442 -2.6725116e-19 6.811739e-49)
(0.0014782241 -2.8175466e-19 2.8175466e-19)
(0.0015632734 2.9698645e-19 -2.9698645e-19)
(0.0016529111 3.1297961e-19 7.8877491e-49)
(0.0017473661 0 4.5738219e-32)
(0.0018468773 -3.4738902e-19 4.9366948e-35)
(0.0019516946 -3.6587816e-19 3.6587816e-19)
(0.0020620789 7.7054911e-19 -7.7054911e-19)
(0.0021783028 4.0561826e-19 -1.1263212e-31)
(0.0023006507 -4.2695084e-19 4.2695084e-19)
(0.0024294196 -4.4931544e-19 -6.2319127e-32)
(0.0025649193 -6.5570398e-32 6.5570398e-32)
(0.002707473 -4.9732137e-19 -4.9732137e-19)
(0.0028574178 -1.4524258e-31 5.2305722e-19)
(0.0030151054 1.1000284e-18 -5.3117241e-48)
(0.0031809021 0 2.4093246e-31)
(0.0033551897 0 -1.6886038e-31)
(0.0035383662 0 1.7727406e-31)
(0.0037308461 -6.7111489e-19 1.8635525e-31)
(0.0039330608 -7.0499018e-19 1.6678173e-48)
(0.0041454598 0 0)
(0.0043685106 7.7748349e-19 -7.7748349e-19)
(0.0046026999 1.1309351e-31 0)
(0.0048485339 -8.5673432e-19 0)
(0.0051065391 0 8.9906471e-19)
(0.0053772628 0 2.61934e-31)
(0.005661274 9.8949711e-19 -9.8949711e-19)
(0.005959164 1.4393391e-31 0)
(0.0062715471 -1.5076742e-31 0)
(0.0065990611 1.1407309e-18 2.2814617e-18)
(0.0069423685 -1.1956236e-18 9.9532305e-31)
(0.0073021571 5.2132405e-31 -2.5058005e-18)
(0.0076791403 1.3126503e-18 1.3126503e-18)
(0.0080740586 0 -1.9539447e-34)
(0.0084876799 1.4399435e-18 1.9992182e-31)
(0.0089208006 2.093263e-31 1.5076795e-18)
(0.0093742459 -1.5782752e-18 0)
(0.0098488715 1.6518342e-18 0)
(0.010345564 -1.7284629e-18 0)
(0.01086524 -1.8082708e-18 1.8082708e-18)
(0.011408852 1.8913701e-18 5.2465829e-31)
(0.011977383 0 -1.9778764e-18)
(0.012571852 -2.067908e-18 0)
(0.013193313 -2.1615864e-18 0)
(0.013842854 2.2590364e-18 2.2590364e-18)
(0.014521604 2.3603858e-18 -3.3543099e-34)
(0.015230727 0 -2.4657653e-18)
(0.015971426 2.5753094e-18 0)
(0.016744947 -2.6891552e-18 0)
(0.017552573 -2.8074434e-18 2.8074434e-18)
(0.01839563 2.930318e-18 8.1285815e-31)
(0.019275488 6.1158519e-18 8.4955975e-31)
(0.02019356 -1.7718311e-30 -8.8591554e-31)
(0.021151304 -9.9838417e-18 -3.3279472e-18)
(0.022150221 6.9984495e-48 3.4706712e-18)
(0.023191863 3.6187501e-18 -1.0043406e-30)
(0.024277827 7.5446949e-18 1.0469697e-30)
(0.025409757 -2.1812361e-30 -1.090618e-30)
(0.026589351 -8.1935367e-18 -4.0967684e-18)
(0.027818354 4.2679355e-18 0)
(0.029098562 -4.4453081e-18 0)
(0.030431826 4.6290662e-18 4.6290662e-18)
(0.031820049 4.8193928e-18 -2.3308539e-46)
(0.033265188 -1.0032948e-17 -5.016474e-18)
(0.034769255 0 0)
(0.036334319 0 0)
(0.037962505 1.1300309e-17 5.6501545e-18)
(0.039655996 -8.8520843e-47 -1.7704169e-46)
(0.041417036 -1.2219867e-17 -6.1099337e-18)
(0.043247924 0 0)
(0.045151024 0 0)
(0.047128758 1.3719291e-17 6.8596453e-18)
(0.049183612 -1.044043e-46 -2.0880861e-46)
(0.051318133 -1.4803855e-17 -7.4019274e-18)
(0.053534934 0 0)
(0.055836689 0 0)
(0.058226139 1.6566766e-17 8.2833828e-18)
(0.060706091 8.5962286e-18 -1.2215976e-33)
(0.063279417 -1.7837926e-17 -8.9189632e-18)
(0.065949056 -9.2518145e-18 9.2518145e-18)
(0.068718013 0 -2.6657076e-30)
(0.071589363 1.9897577e-17 2.7639944e-30)
(0.074566249 -5.7276383e-30 -2.8638192e-30)
(0.07765188 -2.1378016e-17 -1.0689008e-17)
(0.080849538 1.1075921e-17 0)
(0.08416257 0 0)
(0.087594398 -1.1884537e-17 0)
(0.091148508 1.2306716e-17 0)
(0.094828461 -1.810623e-33 0)
(0.098637885 -1.3188008e-17 1.3188008e-17)
(0.10258048 1.36476e-17 -3.7877274e-30)
(0.10666002 -1.4120141e-17 -1.4120141e-17)
(0.11088033 -1.460587e-17 0)
(0.11524534 1.5105026e-17 0)
(0.11975902 1.5617848e-17 0)
(0.12442542 -4.4830262e-30 0)
(0.12924867 -1.6685433e-17 0)
(0.13423294 1.7240668e-17 0)
(0.13938251 4.9456238e-30 0)
(0.14470169 -1.8395187e-17 1.8395187e-17)
(0.15019488 1.8994934e-17 -1.0543631e-29)
(0.15586654 -1.9609975e-17 -1.9609975e-17)
(0.16172119 -2.0240535e-17 0)
(0.16776344 2.0886838e-17 0)
(0.17399794 2.1549101e-17 0)
(0.18042942 -6.1721461e-30 0)
(0.18706265 -2.2922373e-17 0)
(0.19390249 2.3633802e-17 0)
(0.20095385 -3.4620534e-33 0)
(0.20822169 -2.5107273e-17 2.5107273e-17)
(0.21571104 2.5869711e-17 -7.1798278e-30)
(0.22342699 -2.6649542e-17 -2.6649542e-17)
(0.23137467 -2.7446953e-17 0)
(0.23955928 2.8262123e-17 0)
(0.24798606 5.8190461e-17 2.9095231e-17)
(0.25666032 -1.6639575e-29 -8.3197874e-30)
(0.2655874 -6.1631859e-17 -3.0815929e-17)
(0.2747727 3.1703843e-17 0)
(0.28422165 -4.6342076e-33 0)
(0.29393974 -6.7071112e-17 0)
(0.3039325 -9.7997025e-33 3.4479638e-17)
(0.31420548 3.5442713e-17 9.8467729e-30)
(0.3247643 0 -3.6424905e-17)
(0.3356146 -3.742633e-17 0)
(0.34676203 0 0)
(0.35821232 3.9487298e-17 0)
(0.36997118 0 0)
(0.38204437 0 0)
(0.39443767 0 0)
(0.40715689 4.3844202e-17 0)
(0.42020784 -5.5221977e-47 4.4982798e-17)
(0.43359635 -4.6141249e-17 -6.5570659e-33)
(0.44732828 0 -4.7319593e-17)
(0.46140947 -4.8517858e-17 0)
(0.4758458 1.3810714e-29 0)
(0.49064313 5.097421e-17 0)
(0.50580733 0 0)
(0.52134427 0 0)
(0.53725981 0 0)
(0.55355981 5.6126084e-17 0)
(0.57025011 -1.5956536e-29 5.7463734e-17)
(0.58733655 -5.8821166e-17 8.3589905e-33)
(0.60482493 0 -6.0198316e-17)
(0.62272106 -6.1595108e-17 0)
(0.64103071 -1.7488074e-29 0)
(0.65975961 6.444727e-17 0)
(0.6789135 0 6.5902436e-17)
(0.69849804 -6.7376839e-17 -3.740884e-29)
(0.7185189 6.887035e-17 -6.887035e-17)
(0.73898168 -3.9107828e-29 0)
(0.75989194 -7.1914133e-17 7.1914133e-17)
(0.78125522 7.3464093e-17 2.0409957e-29)
(0.80307698 0 -7.5032542e-17)
(0.82536266 7.6619297e-17 0)
(0.84811761 2.1721295e-29 0)
(0.87134716 -7.9846948e-17 7.9846948e-17)
(0.89505655 0 8.1487428e-17)
(0.91925097 -8.3145384e-17 -8.3145384e-17)
(0.94393555 8.4820582e-17 -8.4820582e-17)
(0.96911533 4.8045754e-29 0)
(0.9947953 -8.8221722e-17 0)
(1.0209804 4.9940283e-29 0)
(1.0476753 1.302976e-32 0)
(1.074885 -2.5961471e-29 -9.3446347e-17)
(1.102614 1.3531512e-32 1.3531512e-32)
(1.1308668 9.7008087e-17 1.9401617e-16)
(1.1596481 0 9.8811654e-17)