/*--------------------------------*- C++ -*----------------------------------*\
  =========                 |
  \\      /  F ield         | OpenFOAM: The Open Source CFD Toolbox
   \\    /   O peration     | Website:  https://openfoam.org
    \\  /    A nd           | Version:  7
     \\/     M anipulation  |
\*---------------------------------------------------------------------------*/
FoamFile
{
    version     2.0;
    format      ascii;
    class       volScalarField;
    location    "0.00334";
    object      Uz;
}
// * * * * * * * * * * * * * * * * * * * * * * * * * * * * * * * * * * * * * //

dimensions      [0 1 -1 0 0 0 0];

internalField   nonuniform List<scalar> 
5000
(
0
0
0
0
0
-4.7551864e-22
-9.8381158e-37
1.4644217e-21
5.0029039e-22
-1.0397101e-21
-1.0550092e-21
5.2011957e-22
-4.3919202e-36
-4.5615508e-36
1.0438686e-21
-1.0475606e-21
-1.3718188e-52
-4.6132858e-36
-5.237534e-22
1.0478975e-21
5.2411116e-22
0
0
-5.2445638e-22
4.4726407e-36
-4.324338e-36
-5.2473742e-22
5.2481374e-22
5.2488414e-22
-5.2495109e-22
9.1769171e-36
-4.4770422e-36
-5.2512667e-22
5.2518034e-22
5.2523759e-22
0
0
-5.2544263e-22
-5.2552274e-22
5.2560844e-22
-8.8153446e-36
-5.2578948e-22
5.2586958e-22
-8.8938035e-36
-5.2591948e-22
5.2583782e-22
-1.8076903e-35
1.7990446e-35
-1.8047635e-35
8.8732099e-36
5.082903e-22
0
0
0
0
0
0
0
0
0
0
0
0
-5.1025446e-22
-5.0986031e-22
5.0884907e-22
-8.7666153e-36
1.5750719e-52
5.1282863e-22
0
0
-5.070509e-22
-5.052337e-22
0
5.0238655e-22
1.7527114e-35
-5.0932689e-22
-5.080335e-22
5.0827477e-22
1.0116723e-21
-1.0045522e-21
2.8339625e-37
1.4858879e-21
-9.906724e-22
-5.1870533e-35
1.0055822e-21
-1.4998812e-21
4.9558027e-22
4.9835237e-22
-5.0014373e-22
5.0031373e-22
5.0105188e-22
1.7378681e-35
-9.8575618e-22
-3.381236e-35
-4.9176133e-22
-4.9384934e-22
-1.7340595e-35
3.4440868e-35
9.848825e-22
4.8581811e-22
-4.8112944e-22
6.8804417e-38
4.8251238e-22
0
-4.8100136e-22
-1.6687809e-35
4.7483021e-22
-4.7775191e-22
-4.7979415e-22
9.599996e-22
4.8060281e-22
-1.4351056e-21
-4.7555047e-22
1.4268921e-21
-4.7626551e-22
-4.7393235e-22
-2.656379e-37
-4.602039e-22
1.383156e-21
-3.2554809e-35
-9.284645e-22
9.2358479e-22
4.608702e-22
-4.5783832e-22
4.539404e-22
-4.5298246e-22
-9.1230405e-22
4.5739383e-22
1.5797538e-35
4.578927e-22
9.108798e-22
-4.4841907e-22
-4.4277787e-22
-4.4415072e-22
-1.5449674e-35
-1.5322164e-35
1.5350179e-35
8.7766266e-22
4.401162e-22
-4.3795999e-22
-8.6240673e-22
-4.3145114e-22
-4.3625936e-22
3.003025e-35
8.5581054e-22
-1.2240533e-37
1.2196557e-37
1.9114124e-52
4.2712115e-22
-2.9489443e-35
5.8534326e-35
4.2303709e-22
-4.2153301e-22
4.143325e-22
1.4380349e-35
-4.1989326e-22
4.168901e-22
-5.8529391e-38
-4.150091e-22
0
4.0874882e-22
2.8504845e-35
-8.2129884e-22
4.0352597e-22
-1.1483924e-37
-4.094943e-22
4.0697848e-22
-3.9955094e-22
4.0012842e-22
-1.6904747e-34
-1.1189154e-34
3.9599092e-22
-7.9313208e-22
0
-2.7718524e-35
-8.2161885e-35
3.9831911e-22
3.9708068e-22
2.7057914e-35
-3.9599148e-22
3.948094e-22
2.6839243e-35
1.6750939e-37
5.4519346e-35
-7.8296901e-22
3.9002621e-22
3.8451462e-22
-2.6093715e-35
2.6092412e-35
-7.8993084e-35
2.6523778e-35
-3.8968178e-22
0
0
0
0
-3.8157256e-22
8.032336e-35
3.8442622e-22
3.8031141e-22
-3.8408455e-22
-3.8357335e-22
7.5400627e-22
2.6164555e-35
-7.9783409e-35
-3.8230931e-22
-3.78074e-22
3.8204205e-22
0
3.7752476e-22
2.6402188e-35
-3.8117212e-22
-3.7477476e-22
5.2366757e-35
3.8244453e-22
-7.6142836e-22
3.7680241e-22
3.8104938e-22
-3.8042292e-22
3.7644764e-22
0
0
0
3.7903792e-22
-3.8064915e-22
-7.5967739e-22
3.7981573e-22
-2.6327877e-35
3.7713182e-22
3.7800738e-22
-7.658562e-22
1.0923664e-37
-1.0899072e-37
3.8347262e-22
3.8307619e-22
-7.6551262e-22
5.3961016e-38
-7.9103738e-35
3.8540861e-22
-2.1358271e-34
-5.2455175e-35
3.7992642e-22
-3.8675678e-22
0
-3.87272e-22
3.8731836e-22
3.870381e-22
-3.8697593e-22
0
-3.8426736e-22
3.8992225e-22
3.8888071e-22
-1.33801e-34
-7.8010024e-22
-7.8060093e-22
1.1534251e-21
7.7273315e-22
0
-7.8426817e-22
-3.8793763e-22
3.9084046e-22
3.9265771e-22
3.9210013e-22
-7.8475724e-22
-7.8432824e-22
3.9133822e-22
7.8543044e-22
1.1047746e-34
-7.957459e-22
3.9207973e-22
-5.4671424e-35
-4.0136574e-22
8.0037447e-22
-3.967809e-22
5.5951339e-35
4.0196693e-22
-3.988446e-22
4.0381079e-22
-8.0807616e-22
1.6730915e-34
8.1193186e-22
-8.1161762e-22
-2.7852151e-35
4.07597e-22
0
0
4.0973587e-22
-4.0722949e-22
-8.1928601e-22
4.1542933e-22
-1.1798807e-37
4.1499597e-22
4.154054e-22
-4.1390391e-22
0
-4.1728627e-22
-4.1472901e-22
0
8.3818288e-22
4.1525448e-22
-8.4170803e-22
2.9414299e-35
-1.2076106e-37
4.2503612e-22
4.2399636e-22
-4.2246834e-22
4.2404316e-22
-4.3004441e-22
2.4416868e-37
8.5294227e-22
-4.318597e-22
-4.3265157e-22
-4.271133e-22
-5.958523e-35
4.3737417e-22
0
0
-4.3865904e-22
6.0959165e-35
-1.2085421e-34
-6.1075072e-35
4.4217127e-22
-4.4211017e-22
6.2916511e-38
4.4258034e-22
0
0
0
0
0
0
0
-4.5325094e-22
0
4.5028423e-22
0
-4.5837986e-22
-1.265193e-34
4.5144261e-22
0
0
-4.6138965e-22
-6.4121275e-35
4.6141431e-22
0
0
-4.661366e-22
-4.6629413e-22
4.633404e-22
4.6452041e-22
0
-4.709697e-22
6.6262844e-38
4.6865079e-22
-4.6887609e-22
-4.6849371e-22
4.7523597e-22
4.7566352e-22
0
-4.7737298e-22
-4.7813492e-22
4.7207516e-22
4.7431682e-22
0
-4.8120354e-22
-4.7748838e-22
4.8296625e-22
4.8324584e-22
0
0
0
0
0
0
0
0
-4.9153221e-22
-3.0729308e-51
4.9124612e-22
0
0
0
-4.9512436e-22
-6.8573977e-35
4.8760353e-22
-4.8966009e-22
6.9095786e-35
-7.0529119e-38
-6.8356952e-35
4.9743502e-22
-4.9967664e-22
4.9851802e-22
-2.7666645e-34
-4.9264245e-22
4.8808944e-22
0
0
-5.0165254e-22
-6.9553979e-35
4.968567e-22
-5.0202185e-22
-5.0182234e-22
0
5.028138e-22
5.0257094e-22
-4.983818e-22
-1.3972436e-34
1.6641017e-51
-6.8868462e-35
4.9754914e-22
-5.0553157e-22
-7.7103153e-51
-6.9322479e-35
-5.0408655e-22
0
0
5.0501698e-22
7.1488303e-38
-2.1035353e-34
5.0367733e-22
0
0
-5.0427656e-22
1.3847923e-34
5.0393545e-22
0
0
0
-5.0975417e-22
7.2458244e-38
5.1018059e-22
-5.1065981e-22
5.133089e-22
-1.4340356e-34
-1.0370716e-21
5.2225553e-22
2.1887484e-34
7.328727e-35
-7.3564307e-35
-5.3142392e-22
0
0
5.3302317e-22
7.4043565e-35
-1.4809558e-34
-1.1615329e-53
-5.3421885e-22
5.3461726e-22
5.3502551e-22
0
-5.3597703e-22
-7.4494179e-35
5.3721508e-22
0
0
-5.3896e-22
1.5324847e-37
-1.471878e-53
-5.3979053e-22
5.4011736e-22
-7.4845216e-35
7.4947201e-35
-1.4962751e-34
-5.3830104e-22
5.3737583e-22
-1.4892822e-34
1.4871958e-34
-1.4848096e-34
-5.3368858e-22
5.3300913e-22
-1.4788818e-34
7.4051476e-35
0
-5.3046767e-22
5.2994347e-22
-7.3685755e-35
7.5600979e-38
-7.3840748e-35
7.3708894e-35
5.2931425e-22
-5.2996572e-22
-5.3261947e-22
5.3452716e-22
5.3276728e-22
0
-5.2942564e-22
-5.3029226e-22
0
5.3227729e-22
-7.4763367e-35
7.6803078e-38
7.484185e-35
-5.3834443e-22
5.3376297e-22
7.358692e-35
-1.4736465e-34
-5.3169707e-22
-5.3242137e-22
1.0641497e-21
-7.52242e-38
7.3094902e-35
5.3003801e-22
-5.3087053e-22
7.2969108e-35
5.2314645e-22
0
0
0
-5.1647795e-22
-5.1879682e-22
5.203036e-22
5.2136445e-22
0
-5.1608916e-22
-5.142571e-22
5.1090621e-22
5.0345431e-22
0
-5.0749483e-22
-5.0972755e-22
5.0616e-22
1.3849364e-34
-5.0130146e-22
0
0
0
0
5.197426e-22
-1.419919e-34
-5.0503557e-22
5.0137905e-22
6.9294576e-35
-6.9527639e-35
-2.0517029e-53
5.0076162e-22
4.9959914e-22
-9.9416875e-22
-6.8409414e-35
6.8054305e-35
-4.8786953e-22
0
4.8385801e-22
4.9027652e-22
-4.9519775e-22
-1.3723473e-34
4.9754251e-22
0
0
-4.9527445e-22
6.8000054e-35
4.876759e-22
0
-4.9350752e-22
7.0434327e-38
-1.376601e-34
-6.8658345e-35
4.9384338e-22
-4.9243085e-22
6.9856266e-38
-1.3596078e-34
-4.8830323e-22
4.8418798e-22
1.3292894e-34
6.8360589e-38
-6.77133e-35
-4.9274787e-22
4.9367233e-22
0
-2.7268094e-34
-6.7766552e-35
-2.0243055e-34
-6.8815323e-38
-4.8539608e-22
4.894025e-22
-4.5745026e-52
-6.8410033e-35
1.3664689e-34
-6.8192357e-35
9.7995677e-22
-4.8977464e-22
-4.8930188e-22
-6.7252109e-35
6.6349437e-35
9.5879382e-22
-4.8624762e-22
-4.9064512e-22
1.4838768e-52
0
6.9273327e-53
-4.8960837e-22
4.9457466e-22
-1.9562875e-52
-6.9624265e-35
-7.0427151e-38
-4.9136125e-22
9.8992467e-22
1.3833928e-34
-4.9801306e-22
6.8795482e-35
-6.8625814e-35
4.9192657e-22
-4.8252255e-22
6.138966e-52
-2.0429679e-34
1.4133953e-34
-1.4351554e-34
-1.4297015e-34
2.8937007e-52
0
5.0225124e-22
0
0
-4.8543454e-22
-1.36401e-34
4.9507878e-22
0
0
-9.8775096e-22
-4.1034442e-34
9.8613644e-22
-4.882743e-22
6.8729206e-38
-6.8751999e-35
-5.0762413e-22
0
0
0
-4.9042373e-22
-1.371381e-34
4.9885468e-22
0
0
-4.9601397e-22
7.0029578e-38
4.8882721e-22
0
0
-4.7844617e-22
-1.337856e-34
-1.3506511e-34
1.3662047e-34
4.9944236e-22
-5.0216673e-22
1.3829302e-34
-1.3816829e-34
1.3807795e-34
4.9564951e-22
0
0
-4.8984575e-22
2.1728182e-51
4.9630302e-22
0
0
-4.9799119e-22
-7.5912271e-53
4.994458e-22
0
0
-4.9586043e-22
-1.042951e-50
4.7903758e-22
0
0
-4.8745966e-22
6.9625117e-38
4.91572e-22
-4.9291715e-22
1.3631315e-34
-1.3511412e-34
1.3522919e-34
4.9204904e-22
0
0
0
0
0
-5.0384377e-22
1.416693e-34
5.2112575e-22
0
0
0
0
0
0
0
-5.0025866e-22
2.8139984e-34
5.1302244e-22
0
0
0
0
0
0
0
-5.2913168e-22
1.4480279e-34
5.1455964e-22
0
0
-5.07025e-22
1.4153743e-34
5.0887924e-22
0
0
0
-4.9198099e-22
-1.3857293e-34
5.0164774e-22
0
0
0
0
0
0
0
-4.9925668e-22
7.1252403e-38
5.0512137e-22
0
0
0
0
0
0
0
-5.4001534e-22
-7.6209744e-38
5.3423636e-22
0
0
0
-5.3191918e-22
2.9706338e-34
5.4070839e-22
0
-5.4716236e-22
-1.5197746e-34
5.4767452e-22
0
0
-5.5374304e-22
-5.5863571e-22
5.6213106e-22
5.6256913e-22
0
0
0
0
5.5896937e-22
-7.9925786e-38
-1.1422467e-21
-5.829225e-22
1.190943e-21
1.2057762e-21
-6.0399706e-22
-6.0368395e-22
0
0
0
0
-6.0067704e-22
-1.6776009e-34
6.0333475e-22
0
0
0
0
0
0
0
0
0
0
0
0
0
0
-6.4414817e-22
3.6120192e-34
6.6125932e-22
0
0
6.8135573e-22
-1.8857934e-34
9.5314561e-38
-6.5555726e-22
-6.4906475e-22
-3.6432091e-34
1.8562936e-34
6.8236921e-22
0
0
0
0
0
-7.0320587e-22
3.8959427e-34
6.9738298e-22
0
0
0
0
0
0
0
-7.4566213e-22
4.1386893e-34
7.4468742e-22
0
0
0
0
0
0
0
-7.7383562e-22
6.4455906e-34
7.7288009e-22
0
0
0
0
0
0
0
0
-8.0476875e-22
1.1442879e-37
8.0734312e-22
0
0
0
0
-8.2196208e-22
8.4695915e-22
8.5144023e-22
-1.6838668e-21
-2.3287987e-34
8.4237444e-22
0
0
0
0
-8.3244774e-22
2.3228988e-34
1.6850848e-21
-8.4563815e-22
-8.5326578e-22
8.6219125e-22
0
0
0
-8.7405689e-22
-2.4138343e-34
8.6397122e-22
8.744663e-22
-8.9222744e-22
-8.9585057e-22
8.9432136e-22
0
0
-8.9759491e-22
-8.9402447e-22
8.9346004e-22
8.9355717e-22
8.9238543e-22
4.9444921e-34
-8.8641955e-22
0
0
0
-9.0461052e-22
-8.9983158e-22
9.0290486e-22
9.0725951e-22
9.1421309e-22
2.5509421e-34
-9.1927682e-22
0
0
0
-9.2191164e-22
2.5847533e-34
9.3588483e-22
0
0
0
0
0
0
0
-9.1680015e-22
2.5456355e-34
1.8316068e-21
2.5389113e-34
-9.1362012e-22
0
0
-9.1598113e-22
1.3006985e-37
-2.5370769e-34
2.5288552e-34
9.0639555e-22
8.9401101e-22
-2.4585582e-34
-8.8968072e-22
0
0
-9.1519313e-22
7.6398318e-34
2.5432693e-34
-1.293537e-37
9.0783909e-22
-9.0742772e-22
-9.0616519e-22
1.8092093e-21
-5.0010525e-34
-9.0867744e-22
9.2277178e-22
0
-9.2887428e-22
-2.5705144e-34
9.1123568e-22
0
-8.9182206e-22
8.9892843e-22
-1.001149e-33
-8.9925556e-22
8.9739254e-22
0
-8.9739476e-22
0
8.9087375e-22
0
-8.8337232e-22
8.8009232e-22
-4.8625926e-34
-8.7356981e-22
8.7319059e-22
0
-8.7214797e-22
-2.4192693e-34
8.72593e-22
0
-8.7412961e-22
8.6412023e-22
-2.4350189e-37
-8.5530817e-22
8.5284202e-22
0
-8.4746155e-22
-8.4696525e-22
8.4780027e-22
8.4658604e-22
-8.4483833e-22
8.4445909e-22
8.450764e-22
-8.4216639e-22
0
0
0
0
0
0
-8.2103566e-22
-1.9382786e-52
1.6319352e-21
-8.1166105e-22
-8.083306e-22
8.0613117e-22
0
0
-8.146198e-22
-8.0976025e-22
7.970982e-22
7.8793162e-22
0
-7.8168677e-22
-2.1601363e-34
7.7343636e-22
0
0
-7.5978512e-22
-7.4308154e-22
7.3016206e-22
7.2981887e-22
0
-7.3213677e-22
2.0246041e-34
7.2387425e-22
-7.179236e-22
-3.956503e-34
-1.0080934e-37
-7.0815223e-22
7.045341e-22
7.0067089e-22
0
0
-6.7443737e-22
1.8779194e-34
6.7571697e-22
0
-6.6575156e-22
-6.5831241e-22
6.4836338e-22
6.403598e-22
0
0
0
0
0
0
-6.1999533e-22
1.709189e-34
6.0375321e-22
0
0
0
0
0
0
-5.6023825e-22
-2.5817451e-52
5.5232302e-22
5.4137915e-22
1.4531145e-34
-5.175266e-22
0
0
0
0
-4.978889e-22
-1.3364316e-34
4.6790839e-22
-4.7112407e-22
-4.8120342e-22
4.7789159e-22
-2.561585e-34
-3.6792499e-34
-3.6348159e-34
1.2174137e-34
-2.3616095e-34
1.1489386e-34
4.0948751e-22
0
-4.0595714e-22
3.314448e-34
-5.3626187e-38
-3.7053396e-22
3.7015227e-22
3.5303242e-22
-3.3635099e-22
9.1581307e-35
-2.7033937e-34
-1.7665624e-34
-1.7227881e-34
8.3750778e-35
-1.6273257e-34
-2.8113596e-22
2.6625549e-22
2.5792458e-22
-2.5085447e-22
6.6517767e-35
-2.5378457e-34
-6.0810318e-35
5.9233927e-35
5.8172537e-35
5.6894721e-35
-1.9871335e-22
0
1.6041523e-22
-4.0959828e-35
-1.1900883e-51
1.3674815e-22
0
-1.2139395e-22
1.1349101e-22
1.0534157e-22
-9.3684262e-23
0
0
0
0
-3.9890246e-23
5.4330143e-36
-6.825556e-36
1.5034415e-23
1.7248604e-23
-1.9164542e-23
0
0
0
0
4.8360387e-23
9.1844268e-39
-7.9164472e-23
0
0
0
0
0
0
0
1.6693807e-22
1.6560326e-22
-1.5841995e-22
-1.6537622e-22
0
0
0
0
0
0
2.5013074e-22
2.6269589e-22
-2.7573981e-22
-2.9220057e-22
0
0
0
0
0
0
3.643092e-22
3.8170902e-22
-4.0666711e-22
-4.3105569e-22
0
0
0
0
0
0
5.0057555e-22
-2.9122135e-34
-5.2519214e-22
0
0
0
0
0
0
6.0434629e-22
-1.6891981e-34
-6.1662339e-22
0
0
0
0
6.8438448e-22
9.6462621e-38
-6.8438499e-22
6.9872431e-22
-1.3845826e-51
-7.4774911e-22
7.6286357e-22
-4.2716046e-34
-7.7893798e-22
7.9151079e-22
4.4618723e-34
4.5431072e-34
-1.5620441e-50
4.7024369e-34
2.3524667e-34
-8.5696195e-22
8.7025344e-22
8.8080707e-22
-1.7891066e-21
5.078714e-34
1.8409552e-21
0
-9.3972039e-22
2.6473061e-34
2.6446248e-34
8.0435224e-34
8.343862e-34
5.7033277e-34
-8.5771352e-34
5.7417852e-34
-2.896037e-34
-1.044923e-21
0
1.0753204e-21
1.5599172e-37
9.157554e-34
9.0950962e-34
-1.5598275e-37
-6.1619934e-34
3.1333571e-34
1.152106e-21
0
-1.1508093e-21
6.4077334e-34
1.6576513e-37
-1.185238e-21
0
1.2159203e-21
-1.2075494e-21
-1.2107262e-21
1.2226286e-21
0
0
1.2765584e-21
-1.4194455e-33
7.1091447e-34
-7.1676188e-34
3.6445933e-34
-1.3188828e-21
-1.3193376e-21
1.339305e-21
0
0
0
0
1.3717504e-21
3.8179864e-34
1.529738e-33
-1.3851701e-21
-1.4000318e-21
1.4185201e-21
0
0
0
0
1.4282792e-21
1.4434937e-21
-1.461641e-21
-1.4609891e-21
0
0
0
0
0
0
1.4928662e-21
1.4777653e-21
-1.4753517e-21
-1.4828804e-21
0
0
0
0
0
0
1.5224887e-21
-1.2643669e-33
-3.0258983e-21
1.5091726e-21
4.5612645e-21
1.5319245e-21
0
-3.0063539e-21
1.6798997e-33
5.047911e-33
1.5056011e-21
2.9955222e-21
-2.9940721e-21
1.5044151e-21
1.503536e-21
-1.5035084e-21
1.5073393e-21
-2.1185688e-37
-1.4685955e-21
-1.4569797e-21
1.453897e-21
1.4553281e-21
-1.4383594e-21
1.4172097e-21
2.0152755e-37
-1.4179023e-21
0
0
0
-2.7001742e-21
1.3269299e-21
2.5887399e-21
-1.2810734e-21
1.2805954e-21
1.2645451e-21
-2.4905955e-21
-6.0008185e-51
1.2043674e-21
-1.1743413e-21
-2.306886e-21
-1.113138e-21
3.214786e-21
-1.0528891e-21
-2.0801968e-49
2.9620551e-21
-1.8935934e-21
-9.0925588e-22
-8.7762163e-22
-1.6743876e-21
1.58011e-21
7.3822562e-22
6.8107998e-22
-6.3356729e-22
-5.8610554e-22
1.6087143e-21
-4.8794232e-22
-4.2793514e-22
3.6744446e-22
3.0946082e-22
3.3578123e-38
-4.5106383e-22
6.9799798e-23
2.8756834e-36
-1.3619918e-34
-4.9273779e-22
2.4550322e-22
3.4413543e-22
9.1665936e-22
-5.6779023e-22
-1.3380843e-21
1.5589181e-21
-8.9255682e-22
1.0042958e-21
1.1350517e-21
-3.8548241e-21
1.4316124e-21
1.5716437e-21
-3.4451502e-21
-1.8782322e-21
2.0307522e-21
6.599399e-21
-2.3911507e-21
-1.0371431e-20
1.5536085e-33
6.012168e-21
3.2238109e-21
0
7.4011836e-21
8.745279e-33
-1.2565696e-20
4.4370503e-21
-1.0416543e-32
4.9774429e-21
5.2908304e-21
-1.1239351e-20
0
0
0
-7.0013985e-21
4.0928214e-33
1.5541e-20
-8.1925531e-21
-1.7297691e-20
2.7386686e-20
-3.19801e-32
-2.0144433e-20
1.0565247e-20
0
0
0
2.5747759e-20
-1.3484244e-20
-2.8268895e-20
4.4493898e-20
-4.4202886e-36
-3.2576939e-20
0
0
-1.8679958e-20
1.0862497e-32
4.0974708e-20
-2.1432477e-20
-4.4812868e-20
7.0267803e-20
-4.0763826e-32
-5.1185241e-20
2.6757941e-20
-2.7971494e-20
5.8445031e-20
3.0517846e-20
-1.0614765e-31
-3.329489e-20
-6.9541545e-20
1.0890415e-19
-2.1539329e-35
-3.955377e-20
2.2920296e-32
-4.3102627e-20
-4.4980477e-20
2.6049528e-32
1.4686591e-19
-1.4513709e-35
-1.5979892e-19
1.1112813e-19
-5.6385983e-48
-1.2087683e-19
6.301727e-20
-6.5698343e-20
1.3698131e-19
7.1400748e-20
-1.6528494e-31
-7.7586848e-20
-1.6172852e-19
-8.4269489e-20
-8.7809434e-20
2.7448404e-19
0
-9.932644e-20
-5.7437768e-32
5.9833565e-32
-6.2307256e-32
1.1694369e-19
-1.3521561e-31
1.2684999e-19
-4.3995545e-31
-4.1267883e-19
2.8646501e-19
4.4738447e-19
1.5526183e-19
-4.8492905e-19
-3.3655263e-19
5.2551447e-19
-1.8233788e-19
-5.6934786e-19
0
0
2.1394058e-19
2.2263707e-19
0
-2.4106624e-19
-2.5082247e-19
5.2192478e-19
-6.028222e-31
-8.4737897e-19
3.2620869e-31
3.0566802e-19
3.1795392e-19
3.3071463e-19
-3.4397313e-19
-3.5775169e-19
3.7206647e-19
1.1608068e-18
-4.0238157e-19
-1.6736963e-18
4.3508364e-19
9.0477564e-19
4.7036447e-19
0
-5.0842543e-19
0
-5.4947069e-19
5.711793e-19
-1.3182416e-30
6.171308e-19
-2.1362849e-30
-2.0000329e-18
6.928811e-19
7.20084e-19
-7.4832121e-19
-7.7763368e-19
8.0806387e-19
2.5189552e-18
-8.7243866e-19
-3.6258769e-18
1.5685614e-30
9.7844702e-19
2.0329846e-18
1.0559745e-18
-2.1938924e-18
-6.3248761e-31
-1.6819642e-34
1.229355e-18
-2.835007e-30
-1.326139e-18
4.1318117e-18
-1.587868e-30
-2.9706853e-18
0
0
-1.6630707e-18
9.5849786e-31
3.5857479e-18
-1.8614165e-18
-3.8650019e-18
-2.0062197e-18
2.3114883e-30
6.4858521e-18
2.2441618e-18
-2.3294075e-18
4.8355916e-18
-1.42645e-33
-8.6747378e-30
-2.7029479e-18
-5.6101279e-18
8.7327697e-18
-3.354247e-30
-6.2688045e-18
0
0
7.0022737e-18
-8.065007e-30
-4.1824361e-30
-1.1111082e-33
-1.2166278e-17
-8.4135405e-18
7.267598e-30
1.3578154e-17
4.6943774e-18
-4.868762e-18
1.0098826e-17
5.8118721e-30
-1.8084098e-29
-5.6311486e-18
-1.1678178e-17
1.8163343e-17
-6.2774785e-18
-6.5084416e-18
6.7476051e-18
-6.9952474e-18
1.4503313e-17
-8.3451573e-30
-7.7919768e-18
-1.1477416e-33
-1.6742144e-17
1.7351994e-17
-1.4970587e-29
-1.8636791e-17
9.6566305e-18
0
-1.0369246e-17
-5.9625296e-30
3.3400474e-17
-1.1540129e-17
-2.3915099e-17
-1.2385068e-17
-1.2831094e-17
1.3292265e-17
1.376791e-17
1.425932e-17
-1.476766e-17
8.4889265e-30
-8.7879284e-30
1.6397228e-17
-1.8852796e-29
1.7578126e-17
-6.0610082e-29
-5.6520951e-17
3.9007037e-17
-2.6842385e-46
-2.0896953e-17
-2.4007765e-29
1.2428023e-29
6.9493678e-17
-2.3970775e-17
-7.4410521e-17
0
0
2.7469144e-17
2.8416356e-17
5.8788725e-17
-3.0404071e-17
-6.28928e-17
6.5044588e-17
-3.3632719e-17
-1.0433598e-16
3.5961123e-17
3.7181144e-17
3.8439776e-17
3.9738099e-17
-8.2154428e-17
-4.2458247e-17
4.3882348e-17
1.3605206e-16
-4.686446e-17
8.246112e-45
-8.3302464e-29
-1.0338134e-16
1.0679716e-16
1.1031646e-16
-5.6970951e-17
-1.1767619e-16
1.2152202e-16
6.27411e-17
-1.9433931e-16
-2.0063526e-16
6.9038516e-17
1.4252301e-16
7.3548803e-17
-4.2131377e-29
-1.5664523e-16
-8.081199e-17
8.337169e-17
1.7200671e-16
-1.2606222e-32
-1.8297674e-16
1.8868973e-16
-1.6201998e-28
-2.0058687e-16
1.033886e-16
2.1313275e-16
2.1965653e-16
0
-1.1661041e-16
-3.6040079e-16
-1.237468e-16
1.2745142e-16
0
0
0
0
-1.4739284e-16
8.4190377e-29
4.6816373e-16
-1.6053678e-16
-4.9536356e-16
-1.698087e-16
2.9079863e-28
3.5899237e-16
1.8449753e-16
-1.8960466e-16
3.8963604e-16
2.0013794e-16
-6.8468213e-28
-2.1109798e-16
-4.3347628e-16
6.6745431e-16
-6.4897436e-32
-2.3429598e-16
3.4157108e-32
-2.4652669e-16
-2.5279715e-16
2.8771728e-28
7.9692585e-16
-7.7367732e-32
-8.3664491e-16
-5.7128976e-16
1.6227725e-28
5.9889433e-16
3.064803e-16
-3.1359812e-16
6.4159411e-16
3.2807364e-16
-1.1170206e-27
-3.428449e-16
-7.0066239e-16
1.0736363e-15
-4.0584516e-28
-3.7313789e-16
-3.8083916e-16
-3.8858078e-16
-2.1989556e-28
2.2428289e-28
8.2397587e-16
2.3297773e-28
-8.5535975e-16
8.7106243e-16
-2.2150942e-27
-1.353623e-15
9.1803449e-16
-5.1834834e-28
-9.4907756e-16
4.8223398e-16
4.8987406e-16
9.9490033e-16
-5.0495342e-16
-1.5371244e-15
0
0
0
1.6231717e-15
1.643792e-15
-1.6639998e-15
-1.6837668e-15
1.1353773e-15
-1.6312826e-31
5.8004993e-16
-1.9518487e-27
-1.7750369e-15
1.7915892e-15
-3.0104454e-27
-1.2152003e-15
-3.3987895e-28
3.426268e-28
1.2430005e-15
-6.2565e-16
6.2954683e-16
-2.1091556e-27
-1.909676e-15
1.9189865e-15
6.4249102e-16
-1.4321856e-27
1.2946131e-15
-1.2985723e-15
-6.5097596e-16
-6.5237376e-16
-1.9604327e-15
7.263566e-28
6.547959e-16
1.9649849e-15
-4.3621266e-27
-1.9634334e-15
0
6.5277907e-16
1.3029832e-15
-6.4991516e-16
6.4805331e-16
-2.1511742e-27
-1.2869765e-15
1.9223823e-15
-1.4159996e-27
-7.0487054e-28
-7.0064509e-28
-6.9650191e-28
6.2341641e-16
-1.8576106e-15
-1.8442797e-15
6.1009289e-16
1.2104247e-15
0
-5.9483568e-16
6.5410935e-28
-1.295981e-27
6.4151471e-28
5.7186541e-16
-5.6570146e-16
-5.59392e-16
1.6588691e-15
3.3152257e-44
-8.9885061e-28
5.328784e-16
-5.8360438e-28
1.0379145e-15
-1.0237257e-15
-1.0093787e-15
-4.9744516e-16
5.4406027e-28
4.8278048e-16
0
0
0
9.0591591e-16
-4.4544346e-16
-8.7583854e-16
1.291177e-15
-4.228692e-16
-1.2460676e-15
1.2235757e-15
-1.3334582e-27
-7.8586959e-16
1.1565576e-15
7.5628261e-16
0
-7.2703555e-16
-1.1864773e-27
-3.4910016e-16
-6.8395756e-16
3.3492067e-16
0
6.4201574e-16
8.92895e-32
3.4124613e-28
-3.0069247e-16
-8.8223716e-16
8.6264706e-16
-4.6834139e-28
-8.2423297e-16
8.0542145e-16
-1.3105676e-27
-5.124163e-16
2.5021042e-16
-2.4430399e-16
4.7698776e-16
2.3278128e-16
-1.0087469e-27
-2.2164237e-16
-4.3243398e-16
-2.1088783e-16
-2.0565456e-16
4.0103473e-16
1.9547633e-16
0
-1.8568212e-16
1.0045461e-28
8.8236272e-46
1.7170415e-16
-4.7530404e-32
1.6285415e-16
9.7435851e-45
-4.6311667e-16
4.5080148e-16
4.3875434e-16
-2.8464818e-16
-2.7696812e-16
0
2.6212342e-16
-1.2747716e-16
-3.7192644e-16
3.6166647e-16
-1.9522464e-28
-2.2791143e-16
1.1077343e-16
0
-1.0463786e-16
-1.0168208e-16
9.8799164e-17
-1.5984141e-28
1.8649318e-16
5.1485827e-32
-2.6391291e-16
0
2.4887915e-16
1.6110085e-16
-2.3461421e-16
-1.5184174e-16
2.2108917e-16
7.152981e-17
-2.7768204e-16
-6.7367446e-17
1.3073819e-16
1.268491e-16
-6.8311588e-29
-5.9695251e-17
-5.7907849e-17
-5.6169295e-17
5.4478056e-17
-5.8652804e-29
1.0246742e-16
-1.6545346e-28
-1.4450341e-16
0
0
8.7772057e-17
-9.4461999e-29
-4.1230859e-17
1.1988028e-16
-3.872593e-17
-6.2481063e-29
-1.2110764e-28
-1.0570136e-16
3.4136863e-17
-1.8352803e-29
3.5567622e-29
3.103543e-17
-3.0061984e-17
4.137828e-33
-1.56536e-29
3.0316137e-29
2.6448965e-17
0
-2.4800551e-17
4.80266e-17
2.3249849e-17
-4.5019215e-17
0
2.1095911e-17
-2.0421101e-17
-3.9533925e-17
5.7398792e-17
-6.1684984e-29
-5.9690368e-29
1.73454e-17
-5.0359254e-17
2.3085366e-33
1.57198e-17
1.5210438e-17
-1.471654e-17
-1.42381e-17
1.3775021e-17
0
-1.2893512e-17
2.4947982e-17
-2.0099042e-29
-1.1674298e-17
-2.5077222e-29
-2.4250818e-29
-3.0030196e-33
-2.0439023e-17
2.9652421e-17
2.867856e-17
0
-1.788254e-17
-2.5941032e-17
-1.1883478e-33
8.0867078e-18
7.8200859e-18
-7.5621128e-18
-7.3125198e-18
7.071047e-18
0
1.3222939e-17
1.2785774e-17
-1.8544391e-17
-5.9769752e-18
5.7792103e-18
-1.5881949e-33
-5.403026e-18
-1.0448367e-17
-5.0512479e-18
8.1344627e-30
1.8889842e-17
-1.5207664e-29
-1.3245529e-17
4.2691006e-18
4.1279325e-18
3.9915895e-18
-3.8598846e-18
-3.7325519e-18
-3.6093776e-18
-9.9199684e-34
3.3752427e-18
-3.2642278e-18
9.471384e-18
6.1075717e-18
-8.8619384e-18
2.8574145e-18
5.5276093e-18
-5.3460322e-18
2.585136e-18
-2.5003803e-18
-4.8378255e-18
7.0221537e-18
-2.2655965e-18
7.3057839e-30
6.3702264e-18
-4.1117086e-18
-1.9904751e-18
-1.9272202e-18
-3.7321385e-18
1.8070052e-18
1.9872379e-73
3.3900321e-18
1.6419966e-18
-1.7661202e-30
-1.5416064e-18
-2.9882168e-18
2.8966545e-18
-1.4042048e-18
-4.0850535e-18
3.9621343e-18
1.2812331e-18
-1.9430702e-46
1.2065652e-18
-3.5138482e-18
-1.1373076e-18
1.1045962e-18
2.1462132e-18
-1.0427994e-18
1.0136363e-18
-3.2824272e-30
-1.917179e-18
2.7978968e-18
1.0081733e-30
-3.9246132e-30
1.9106335e-30
-1.6769836e-18
1.634434e-18
-7.9678802e-19
-3.1087322e-18
7.5837592e-19
1.4806661e-18
0
1.4128418e-18
-1.5331692e-30
-3.8387105e-34
-7.3354753e-31
-6.4682901e-19
-6.3347704e-19
6.2070096e-19
6.085132e-19
-1.1938306e-18
1.1717482e-18
-6.3869953e-31
-1.1304177e-18
1.1109819e-18
1.8190308e-30
-5.9649252e-31
-5.2889417e-19
-1.0418956e-18
5.1345874e-19
-5.0641361e-19
2.7742856e-31
4.9362018e-19
9.7571338e-19
-4.8249493e-19
-9.5501471e-19
4.7285939e-19
-4.6851531e-19
7.7353718e-31
-4.60623e-19
-1.0150257e-30
9.0737552e-19
9.0113833e-19
9.9387216e-31
-1.4823174e-30
1.474305e-30
-4.4046817e-19
-4.385349e-19
-4.3683094e-19
4.3535003e-19
0
0
-4.321756e-19
2.3952345e-31
6.1254593e-35
4.7819137e-31
4.3059882e-19
0
-4.307604e-19
-8.6214754e-19
4.3153408e-19
8.6427393e-19
8.6575815e-19
8.6751267e-19
-1.304294e-18
-1.4517478e-30
1.3114815e-18
-8.7708175e-19
-8.8007716e-19
0
-4.4337249e-19
8.9040552e-19
4.4713772e-19
-8.983491e-19
-4.5131068e-19
5.0350185e-31
1.3676085e-18
-4.5828724e-19
-1.3823812e-18
1.39016e-18
4.6606377e-19
-1.4064677e-18
5.2354828e-31
4.745767e-19
9.5513524e-19
5.3343764e-31
-9.6753393e-19
9.7394269e-19
-4.9024303e-19
-1.4807404e-18
0
5.0044345e-19
1.0079325e-18
-2.8187174e-31
5.1118593e-19
1.029759e-18
-1.0372539e-18
-1.0448533e-18
0
-5.3017676e-19
-5.9295956e-31
-5.9747054e-31
-6.0187899e-31
1.6387295e-18
1.1007405e-18
0
-1.1175001e-18
-1.249871e-30
-5.6728793e-19
-1.7148362e-18
5.759703e-19
-3.2206152e-31
8.310205e-35
5.8922306e-19
1.1873828e-18
-5.981837e-19
-1.2054033e-18
6.0724841e-19
0
1.2328903e-18
-6.2110332e-19
-1.8774142e-18
6.3054938e-19
6.3533548e-19
1.2803195e-18
-6.450174e-19
-1.9497078e-18
6.5480941e-19
-7.3230952e-31
-1.3293366e-18
6.6961736e-19
6.7458334e-19
1.3591426e-18
2.0537573e-18
-1.3792593e-18
-1.3894066e-18
1.3996103e-18
7.8238133e-31
-1.4201586e-18
1.4304799e-18
7.9975902e-31
-1.4511332e-18
0
1.4717523e-18
1.4820722e-18
0
-2.254184e-18
-7.5659433e-19
-2.1651872e-34
-7.670382e-19
-7.7229351e-19
-8.6301131e-31
1.565806e-18
1.5765262e-18
-2.6432491e-30
-1.5981827e-18
1.6091096e-18
2.6978249e-30
-1.6311271e-18
0
0
0
0
1.686742e-18
9.4268464e-31
-1.7089618e-18
-8.60022e-19
1.7311237e-18
-2.9016793e-30
-1.7533266e-18
1.764467e-18
9.8586703e-31
-8.9342242e-19
1.7980832e-18
-3.0134964e-30
-1.8206435e-18
1.8319541e-18
1.8432795e-18
-1.8546208e-18
-1.8659811e-18
0
0
0
0
-9.6151961e-19
9.6724084e-19
9.7297195e-19
-1.0865247e-30
-2.6423405e-74
-9.9025785e-19
-1.9921021e-18
-1.0018532e-18
2.0153149e-18
3.0403729e-18
-1.0192495e-18
-2.0500622e-18
3.0924063e-18
2.0731244e-18
-3.1269354e-18
-2.0961061e-18
-1.0537898e-18
-1.176236e-30
2.130538e-18
0
-1.0767692e-18
1.0825192e-18
-2.4162748e-30
-3.1093375e-34
-3.6623121e-30
-1.1054764e-18
-1.111225e-18
3.174662e-34
2.2455125e-18
2.2570743e-18
-3.7774901e-30
-2.2802124e-18
0
0
0
-1.1630645e-18
-1.1687503e-18
1.1744197e-18
1.1800766e-18
-1.1857244e-18
2.3827317e-18
3.5910081e-18
0
-2.4165319e-18
-1.3472607e-30
-1.2195165e-18
-3.6754056e-18
1.2307476e-18
-2.0588081e-30
2.4838943e-18
-8.310407e-30
-2.5062099e-18
-6.9865588e-31
-1.7965621e-34
1.2697584e-18
-1.2752878e-18
2.5616126e-18
1.2863138e-18
-2.5836205e-18
2.5945911e-18
3.7026939e-34
-1.4527085e-30
-1.3136836e-18
-3.9573689e-18
2.6491e-18
-5.2088354e-49
1.3353658e-18
-2.2330417e-30
-2.6922566e-18
1.351489e-18
2.7136715e-18
-1.5118266e-30
-4.1024587e-18
3.9017025e-34
1.3780779e-18
-1.383351e-18
2.7772172e-18
1.3938505e-18
-2.7981528e-18
2.8085721e-18
1.5643358e-30
-7.8528194e-30
3.1528273e-30
-2.8499189e-18
2.8601707e-18
-1.4351937e-18
-2.8805693e-18
1.4453579e-18
-1.4504131e-18
2.9109001e-18
-2.4324285e-30
-4.3964064e-18
0
0
4.441069e-18
1.4852807e-18
-2.9803713e-18
2.9901431e-18
8.5261624e-34
-6.6821631e-30
-1.6759001e-30
-3.0288425e-18
3.0384196e-18
3.0479578e-18
-1.5287285e-18
-4.6003752e-18
-1.5381687e-18
1.5428594e-18
0
0
-1.5568159e-18
8.6671286e-31
4.6980871e-18
4.4639446e-34
-3.1503553e-18
-1.5797305e-18
1.7583309e-30
4.766397e-18
3.5376472e-30
-3.1956483e-18
0
-1.6068092e-18
3.2225741e-18
1.6157535e-18
-3.5978038e-30
-1.6246317e-18
-3.2580959e-18
1.6334672e-18
0
0
0
0
-1.6547936e-18
9.2102338e-31
4.9909016e-18
-1.667663e-18
-5.0142367e-18
5.0246714e-18
1.6781438e-18
-3.3625933e-18
-1.6844596e-18
-2.8101292e-30
5.0729764e-18
-9.6316649e-34
-5.655435e-30
-1.7015725e-18
-3.410523e-18
-1.7090062e-18
-1.9009573e-30
1.7164817e-18
1.7200759e-18
1.7236482e-18
1.7273916e-18
-3.844307e-30
-3.4709013e-18
0
0
-1.7458116e-18
-2.9123399e-30
-2.4903286e-34
2.4952779e-34
1.759377e-18
3.5255877e-18
3.5322786e-18
-3.5388564e-18
-1.9689846e-30
-1.7760045e-18
-5.3380015e-18
0
0
1.7894478e-18
1.7928091e-18
0
-1.7994516e-18
1.0006243e-30
1.8058785e-18
-1.8090933e-18
3.6245686e-18
-6.0457955e-30
-5.4547128e-18
1.8212769e-18
1.8246465e-18
3.6566657e-18
-1.8316561e-18
-5.5032014e-18
1.8369222e-18
-1.0212197e-30
3.6834178e-18
1.8442577e-18
-3.6936669e-18
3.6991564e-18
-4.3958368e-48
-3.7105445e-18
0
0
3.7273174e-18
-2.0699659e-30
-6.2274851e-30
-4.187473e-48
-5.625657e-18
-2.0846712e-30
1.8801227e-18
3.7662213e-18
3.7717199e-18
-3.7761414e-18
-4.1967086e-30
-1.8923183e-18
-6.3100295e-30
1.8963198e-18
-3.7974097e-18
0
-1.9049641e-18
2.1171712e-30
1.9094071e-18
3.8219744e-18
2.1226039e-30
-3.8282226e-18
0
0
-1.9200678e-18
1.0670346e-30
5.7736482e-18
2.1390402e-30
-3.8581824e-18
0
1.9338689e-18
-1.936131e-18
-1.9381771e-18
-1.9401239e-18
-1.942047e-18
3.8879308e-18
5.8376175e-18
-1.9477743e-18
-3.8993583e-18
5.8547804e-18
-7.3499675e-49
-3.9107554e-18
0
0
0
0
3.9294155e-18
3.9324729e-18
-1.9676647e-18
-5.907184e-18
-2.188634e-30
1.9719074e-18
-3.9468053e-18
-3.9497848e-18
1.9764056e-18
7.9120577e-18
3.9593306e-18
-5.9436886e-18
-3.9653759e-18
5.9523623e-18
4.4079603e-30
-3.9739493e-18
0
0
0
3.9843408e-18
2.2129774e-30
-4.4292595e-30
1.9958631e-18
-5.9913016e-18
1.9983737e-18
1.9996776e-18
-6.0028432e-18
-4.0042891e-18
2.003319e-18
4.0090184e-18
4.0114191e-18
-6.684944e-30
2.2297279e-30
-5.7100113e-34
-4.020151e-18
0
-2.0121917e-18
-2.0132694e-18
2.0143667e-18
2.015485e-18
-2.0166003e-18
-2.0176493e-18
4.0372064e-18
2.0195033e-18
-2.0203751e-18
2.0212611e-18
-2.0221696e-18
-4.0460679e-18
0
0
6.0762309e-18
2.0261839e-18
-4.0539111e-18
-2.0277293e-18
-2.0284915e-18
4.0584722e-18
-2.2547212e-30
-4.0613664e-18
0
2.0321747e-18
6.0988975e-18
4.5150385e-30
-1.1294805e-29
4.0708768e-18
-6.1087289e-18
-2.0370163e-18