/*--------------------------------*- C++ -*----------------------------------*\
  =========                 |
  \\      /  F ield         | OpenFOAM: The Open Source CFD Toolbox
   \\    /   O peration     | Website:  https://openfoam.org
    \\  /    A nd           | Version:  7
     \\/     M anipulation  |
\*---------------------------------------------------------------------------*/
FoamFile
{
    version     2.0;
    format      ascii;
    class       volScalarField;
    location    "0.00026";
    object      rho;
}
// * * * * * * * * * * * * * * * * * * * * * * * * * * * * * * * * * * * * * //

dimensions      [1 -3 0 0 0 0 0];

internalField   nonuniform List<scalar> 
5000
(
1.3781881
1.3782649
1.3783837
1.378475
1.3785939
1.3786838
1.3788021
1.3788975
1.3790081
1.3791103
1.3792164
1.3793209
1.379426
1.3795308
1.3796357
1.3797406
1.3798454
1.3799503
1.3800551
1.3801599
1.3802647
1.3803695
1.3804743
1.380579
1.3806838
1.3807885
1.3808932
1.3809979
1.3811026
1.3812072
1.3813119
1.3814165
1.3815211
1.3816257
1.3817303
1.3818348
1.3819394
1.3820439
1.3821484
1.3822529
1.3823573
1.3824618
1.3825662
1.3826707
1.3827751
1.3828795
1.3829838
1.3830882
1.3831925
1.3832969
1.3834012
1.3835055
1.3836098
1.383714
1.3838183
1.3839225
1.3840267
1.3841309
1.3842351
1.3843393
1.3844435
1.3845476
1.3846517
1.3847558
1.3848599
1.384964
1.3850681
1.3851721
1.3852762
1.3853802
1.3854842
1.3855882
1.3856921
1.3857961
1.3859
1.3860039
1.3861078
1.3862117
1.3863156
1.3864194
1.3865233
1.3866271
1.3867309
1.3868347
1.3869384
1.3870422
1.3871459
1.3872496
1.3873533
1.387457
1.3875607
1.3876643
1.387768
1.3878716
1.3879752
1.3880788
1.3881824
1.3882859
1.3883894
1.388493
1.3885965
1.3886999
1.3888034
1.3889069
1.3890103
1.3891137
1.3892171
1.3893205
1.3894239
1.3895272
1.3896306
1.3897339
1.3898372
1.3899405
1.3900438
1.390147
1.3902503
1.3903535
1.3904567
1.3905599
1.3906631
1.3907662
1.3908693
1.3909725
1.3910756
1.3911787
1.3912817
1.3913848
1.3914878
1.3915909
1.3916939
1.3917969
1.3918998
1.3920028
1.3921058
1.3922087
1.3923116
1.3924145
1.3925174
1.3926202
1.3927231
1.3928259
1.3929287
1.3930315
1.3931343
1.3932371
1.3933398
1.3934425
1.3935452
1.3936479
1.3937506
1.3938533
1.3939559
1.3940586
1.3941612
1.3942638
1.3943664
1.3944689
1.3945715
1.394674
1.3947766
1.3948791
1.3949815
1.395084
1.3951865
1.3952889
1.3953913
1.3954937
1.3955961
1.3956985
1.3958009
1.3959032
1.3960055
1.3961078
1.3962101
1.3963124
1.3964146
1.3965169
1.3966191
1.3967213
1.3968235
1.3969257
1.3970279
1.39713
1.3972321
1.3973342
1.3974363
1.3975384
1.3976405
1.3977425
1.3978446
1.3979466
1.3980486
1.3981506
1.3982525
1.3983545
1.3984564
1.3985583
1.3986602
1.3987621
1.398864
1.3989658
1.3990677
1.3991695
1.3992713
1.3993731
1.3994749
1.3995766
1.3996784
1.3997801
1.3998818
1.3999835
1.4000852
1.4001868
1.4002885
1.4003901
1.4004917
1.4005933
1.4006949
1.4007964
1.400898
1.4009995
1.401101
1.4012025
1.401304
1.4014054
1.4015069
1.4016083
1.4017097
1.4018111
1.4019125
1.4020139
1.4021152
1.4022166
1.4023179
1.4024192
1.4025204
1.4026217
1.402723
1.4028242
1.4029254
1.4030266
1.4031278
1.403229
1.4033301
1.4034313
1.4035324
1.4036335
1.4037346
1.4038356
1.4039367
1.4040377
1.4041388
1.4042398
1.4043408
1.4044417
1.4045427
1.4046436
1.4047445
1.4048455
1.4049463
1.4050472
1.4051481
1.4052489
1.4053497
1.4054506
1.4055513
1.4056521
1.4057529
1.4058536
1.4059543
1.4060551
1.4061558
1.4062564
1.4063571
1.4064577
1.4065584
1.406659
1.4067596
1.4068602
1.4069607
1.4070613
1.4071618
1.4072623
1.4073628
1.4074633
1.4075637
1.4076642
1.4077646
1.407865
1.4079654
1.4080658
1.4081662
1.4082665
1.4083669
1.4084672
1.4085675
1.4086678
1.408768
1.4088683
1.4089685
1.4090687
1.409169
1.4092691
1.4093693
1.4094695
1.4095696
1.4096697
1.4097698
1.4098699
1.40997
1.4100701
1.4101701
1.4102702
1.4103702
1.4104702
1.4105702
1.4106701
1.4107701
1.41087
1.4109699
1.4110699
1.4111698
1.4112696
1.4113695
1.4114694
1.4115692
1.411669
1.4117688
1.4118686
1.4119684
1.4120682
1.412168
1.4122677
1.4123674
1.4124672
1.4125669
1.4126666
1.4127663
1.4128659
1.4129656
1.4130652
1.4131649
1.4132645
1.4133641
1.4134637
1.4135633
1.4136629
1.4137624
1.413862
1.4139615
1.414061
1.4141605
1.41426
1.4143595
1.4144589
1.4145583
1.4146578
1.4147571
1.4148565
1.4149558
1.4150551
1.4151544
1.4152537
1.4153529
1.415452
1.4155512
1.4156503
1.4157493
1.4158483
1.4159472
1.416046
1.4161448
1.4162435
1.4163422
1.4164407
1.4165392
1.4166375
1.4167358
1.4168339
1.4169319
1.4170297
1.4171274
1.417225
1.4173223
1.4174195
1.4175165
1.4176133
1.4177099
1.4178062
1.4179023
1.4179981
1.4180937
1.4181889
1.4182838
1.4183784
1.4184727
1.4185665
1.41866
1.4187531
1.4188457
1.4189379
1.4190296
1.4191208
1.4192115
1.4193017
1.4193913
1.4194803
1.4195687
1.4196564
1.4197435
1.41983
1.4199157
1.4200007
1.4200849
1.4201683
1.420251
1.4203328
1.4204138
1.4204939
1.420573
1.4206513
1.4207287
1.420805
1.4208804
1.4209548
1.4210281
1.4211005
1.4211717
1.4212419
1.4213109
1.4213789
1.4214457
1.4215114
1.4215759
1.4216393
1.4217014
1.4217624
1.4218222
1.4218808
1.4219382
1.4219943
1.4220492
1.4221029
1.4221554
1.4222067
1.4222567
1.4223055
1.422353
1.4223994
1.4224445
1.4224884
1.4225311
1.4225727
1.422613
1.4226522
1.4226902
1.422727
1.4227627
1.4227973
1.4228308
1.4228632
1.4228945
1.4229247
1.4229539
1.4229821
1.4230093
1.4230355
1.4230607
1.423085
1.4231084
1.4231308
1.4231524
1.4231731
1.423193
1.423212
1.4232303
1.4232478
1.4232645
1.4232805
1.4232958
1.4233104
1.4233244
1.4233377
1.4233503
1.4233624
1.4233739
1.4233849
1.4233953
1.4234052
1.4234146
1.4234235
1.423432
1.42344
1.4234476
1.4234548
1.4234616
1.423468
1.4234741
1.4234798
1.4234852
1.4234903
1.4234952
1.4234997
1.423504
1.423508
1.4235117
1.4235153
1.4235186
1.4235217
1.4235247
1.4235274
1.42353
1.4235324
1.4235346
1.4235367
1.4235387
1.4235405
1.4235422
1.4235438
1.4235453
1.4235467
1.423548
1.4235492
1.4235503
1.4235513
1.4235523
1.4235532
1.423554
1.4235548
1.4235555
1.4235562
1.4235568
1.4235573
1.4235579
1.4235583
1.4235588
1.4235592
1.4235596
1.4235599
1.4235602
1.4235605
1.4235608
1.423561
1.4235613
1.4235615
1.4235617
1.4235618
1.423562
1.4235622
1.4235623
1.4235624
1.4235625
1.4235626
1.4235627
1.4235628
1.4235629
1.423563
1.423563
1.4235631
1.4235631
1.4235632
1.4235632
1.4235633
1.4235633
1.4235634
1.4235634
1.4235634
1.4235634
1.4235635
1.4235635
1.4235635
1.4235635
1.4235635
1.4235635
1.4235636
1.4235636
1.4235636
1.4235636
1.4235636
1.4235636
1.4235636
1.4235636
1.4235636
1.4235636
1.4235636
1.4235636
1.4235636
1.4235636
1.4235636
1.4235636
1.4235636
1.4235636
1.4235636
1.4235637
1.4235637
1.4235637
1.4235637
1.4235637
1.4235637
1.4235637
1.4235637
1.4235637
1.4235637
1.4235637
1.4235637
1.4235637
1.4235637
1.4235637
1.4235637
1.4235637
1.4235637
1.4235637
1.4235637
1.4235637
1.4235637
1.4235637
1.4235637
1.4235637
1.4235637
1.4235637
1.4235637
1.4235637
1.4235637
1.4235637
1.4235637
1.4235637
1.4235637
1.4235637
1.4235637
1.4235637
1.4235637
1.4235637
1.4235637
1.4235637
1.4235637
1.4235637
1.4235637
1.4235637
1.4235637
1.4235637
1.4235637
1.4235637
1.4235637
1.4235637
1.4235637
1.4235637
1.4235637
1.4235637
1.4235637
1.4235637
1.4235637
1.4235637
1.4235637
1.4235637
1.4235637
1.4235637
1.4235637
1.4235637
1.4235637
1.4235637
1.4235637
1.4235637
1.4235637
1.4235637
1.4235637
1.4235637
1.4235637
1.4235637
1.4235637
1.4235637
1.4235637
1.4235637
1.4235637
1.4235637
1.4235637
1.4235637
1.4235637
1.4235637
1.4235637
1.4235637
1.4235637
1.4235637
1.4235637
1.4235637
1.4235637
1.4235637
1.4235637
1.4235637
1.4235637
1.4235637
1.4235637
1.4235637
1.4235637
1.4235637
1.4235637
1.4235637
1.4235637
1.4235637
1.4235637
1.4235637
1.4235637
1.4235637
1.4235637
1.4235637
1.4235637
1.4235637
1.4235637
1.4235637
1.4235637
1.4235637
1.4235637
1.4235637
1.4235637
1.4235637
1.4235637
1.4235637
1.4235637
1.4235637
1.4235637
1.4235637
1.4235637
1.4235637
1.4235637
1.4235637
1.4235637
1.4235637
1.4235637
1.4235637
1.4235637
1.4235637
1.4235637
1.4235637
1.4235637
1.4235637
1.4235637
1.4235637
1.4235637
1.4235637
1.4235637
1.4235637
1.4235637
1.4235637
1.4235637
1.4235637
1.4235637
1.4235637
1.4235637
1.4235637
1.4235637
1.4235637
1.4235637
1.4235637
1.4235637
1.4235637
1.4235637
1.4235637
1.4235637
1.4235637
1.4235637
1.4235637
1.4235637
1.4235637
1.4235637
1.4235637
1.4235637
1.4235637
1.4235637
1.4235637
1.4235637
1.4235637
1.4235637
1.4235637
1.4235637
1.4235637
1.4235637
1.4235637
1.4235637
1.4235637
1.4235637
1.4235637
1.4235637
1.4235637
1.4235637
1.4235637
1.4235637
1.4235637
1.4235637
1.4235637
1.4235637
1.4235637
1.4235637
1.4235637
1.4235637
1.4235637
1.4235637
1.4235637
1.4235637
1.4235637
1.4235637
1.4235637
1.4235637
1.4235637
1.4235637
1.4235637
1.4235637
1.4235637
1.4235637
1.4235637
1.4235637
1.4235637
1.4235637
1.4235637
1.4235637
1.4235637
1.4235637
1.4235637
1.4235637
1.4235637
1.4235637
1.4235637
1.4235637
1.4235637
1.4235637
1.4235637
1.4235637
1.4235637
1.4235637
1.4235637
1.4235637
1.4235637
1.4235637
1.4235637
1.4235637
1.4235637
1.4235637
1.4235637
1.4235637
1.4235637
1.4235637
1.4235637
1.4235637
1.4235637
1.4235637
1.4235637
1.4235637
1.4235637
1.4235637
1.4235637
1.4235637
1.4235637
1.4235637
1.4235637
1.4235637
1.4235637
1.4235637
1.4235637
1.4235637
1.4235637
1.4235637
1.4235637
1.4235637
1.4235637
1.4235637
1.4235637
1.4235637
1.4235637
1.4235637
1.4235637
1.4235637
1.4235637
1.4235637
1.4235637
1.4235637
1.4235637
1.4235637
1.4235637
1.4235637
1.4235637
1.4235637
1.4235637
1.4235637
1.4235637
1.4235637
1.4235637
1.4235637
1.4235637
1.4235637
1.4235637
1.4235637
1.4235637
1.4235637
1.4235637
1.4235637
1.4235637
1.4235637
1.4235637
1.4235637
1.4235637
1.4235637
1.4235637
1.4235637
1.4235637
1.4235637
1.4235637
1.4235637
1.4235637
1.4235637
1.4235637
1.4235637
1.4235637
1.4235637
1.4235637
1.4235637
1.4235637
1.4235637
1.4235637
1.4235637
1.4235637
1.4235637
1.4235637
1.4235637
1.4235637
1.4235637
1.4235637
1.4235637
1.4235637
1.4235637
1.4235637
1.4235637
1.4235637
1.4235637
1.4235637
1.4235637
1.4235637
1.4235637
1.4235637
1.4235637
1.4235637
1.4235637
1.4235637
1.4235637
1.4235637
1.4235637
1.4235637
1.4235637
1.4235637
1.4235637
1.4235637
1.4235637
1.4235637
1.4235637
1.4235637
1.4235637
1.4235637
1.4235637
1.4235637
1.4235637
1.4235637
1.4235637
1.4235637
1.4235637
1.4235637
1.4235637
1.4235637
1.4235637
1.4235637
1.4235637
1.4235637
1.4235637
1.4235637
1.4235637
1.4235637
1.4235637
1.4235637
1.4235637
1.4235637
1.4235637
1.4235637
1.4235637
1.4235637
1.4235637
1.4235637
1.4235637
1.4235637
1.4235637
1.4235637
1.4235637
1.4235637
1.4235637
1.4235637
1.4235637
1.4235637
1.4235637
1.4235637
1.4235637
1.4235637
1.4235637
1.4235637
1.4235637
1.4235637
1.4235637
1.4235637
1.4235637
1.4235637
1.4235637
1.4235637
1.4235637
1.4235637
1.4235637
1.4235637
1.4235637
1.4235637
1.4235637
1.4235637
1.4235637
1.4235637
1.4235637
1.4235637
1.4235637
1.4235637
1.4235637
1.4235637
1.4235637
1.4235637
1.4235637
1.4235637
1.4235637
1.4235637
1.4235637
1.4235637
1.4235637
1.4235637
1.4235637
1.4235637
1.4235637
1.4235637
1.4235637
1.4235637
1.4235637
1.4235637
1.4235637
1.4235637
1.4235637
1.4235637
1.4235637
1.4235637
1.4235637
1.4235637
1.4235637
1.4235637
1.4235637
1.4235637
1.4235637
1.4235637
1.4235637
1.4235637
1.4235637
1.4235637
1.4235637
1.4235637
1.4235637
1.4235637
1.4235637
1.4235637
1.4235637
1.4235637
1.4235637
1.4235637
1.4235637
1.4235637
1.4235637
1.4235637
1.4235637
1.4235637
1.4235637
1.4235637
1.4235637
1.4235637
1.4235637
1.4235637
1.4235637
1.4235637
1.4235637
1.4235637
1.4235637
1.4235637
1.4235637
1.4235637
1.4235637
1.4235637
1.4235637
1.4235637
1.4235637
1.4235637
1.4235637
1.4235637
1.4235637
1.4235637
1.4235637
1.4235637
1.4235637
1.4235637
1.4235637
1.4235637
1.4235637
1.4235637
1.4235637
1.4235637
1.4235637
1.4235637
1.4235637
1.4235637
1.4235637
1.4235637
1.4235637
1.4235637
1.4235637
1.4235637
1.4235637
1.4235637
1.4235637
1.4235637
1.4235637
1.4235637
1.4235637
1.4235637
1.4235637
1.4235637
1.4235637
1.4235637
1.4235637
1.4235637
1.4235637
1.4235637
1.4235637
1.4235637
1.4235637
1.4235637
1.4235637
1.4235637
1.4235637
1.4235637
1.4235637
1.4235637
1.4235637
1.4235637
1.4235637
1.4235637
1.4235637
1.4235637
1.4235637
1.4235637
1.4235637
1.4235637
1.4235637
1.4235637
1.4235637
1.4235637
1.4235637
1.4235637
1.4235637
1.4235637
1.4235637
1.4235637
1.4235637
1.4235637
1.4235637
1.4235637
1.4235637
1.4235637
1.4235637
1.4235637
1.4235637
1.4235637
1.4235637
1.4235637
1.4235637
1.4235637
1.4235637
1.4235637
1.4235637
1.4235637
1.4235637
1.4235637
1.4235637
1.4235637
1.4235637
1.4235637
1.4235637
1.4235637
1.4235637
1.4235637
1.4235637
1.4235637
1.4235637
1.4235637
1.4235637
1.4235637
1.4235637
1.4235637
1.4235637
1.4235637
1.4235637
1.4235637
1.4235637
1.4235637
1.4235637
1.4235637
1.4235637
1.4235637
1.4235637
1.4235637
1.4235637
1.4235637
1.4235637
1.4235637
1.4235637
1.4235637
1.4235637
1.4235637
1.4235637
1.4235637
1.4235637
1.4235637
1.4235637
1.4235637
1.4235637
1.4235637
1.4235637
1.4235637
1.4235637
1.4235637
1.4235637
1.4235637
1.4235637
1.4235637
1.4235637
1.4235637
1.4235637
1.4235637
1.4235637
1.4235637
1.4235637
1.4235637
1.4235637
1.4235637
1.4235637
1.4235637
1.4235637
1.4235637
1.4235637
1.4235637
1.4235637
1.4235637
1.4235637
1.4235637
1.4235637
1.4235637
1.4235637
1.4235637
1.4235637
1.4235637
1.4235637
1.4235637
1.4235637
1.4235637
1.4235637
1.4235637
1.4235637
1.4235637
1.4235637
1.4235637
1.4235637
1.4235637
1.4235637
1.4235637
1.4235637
1.4235637
1.4235637
1.4235637
1.4235637
1.4235637
1.4235637
1.4235637
1.4235637
1.4235637
1.4235637
1.4235637
1.4235637
1.4235637
1.4235637
1.4235637
1.4235637
1.4235637
1.4235637
1.4235637
1.4235637
1.4235637
1.4235637
1.4235637
1.4235637
1.4235637
1.4235637
1.4235637
1.4235637
1.4235637
1.4235637
1.4235637
1.4235637
1.4235637
1.4235637
1.4235637
1.4235637
1.4235637
1.4235637
1.4235637
1.4235637
1.4235637
1.4235637
1.4235637
1.4235637
1.4235637
1.4235637
1.4235637
1.4235637
1.4235637
1.4235637
1.4235637
1.4235637
1.4235637
1.4235637
1.4235637
1.4235637
1.4235637
1.4235637
1.4235637
1.4235637
1.4235637
1.4235637
1.4235637
1.4235637
1.4235637
1.4235637
1.4235637
1.4235637
1.4235637
1.4235637
1.4235637
1.4235637
1.4235637
1.4235637
1.4235637
1.4235637
1.4235637
1.4235637
1.4235637
1.4235637
1.4235637
1.4235637
1.4235637
1.4235637
1.4235637
1.4235637
1.4235637
1.4235637
1.4235637
1.4235637
1.4235637
1.4235637
1.4235637
1.4235637
1.4235637
1.4235637
1.4235637
1.4235637
1.4235637
1.4235637
1.4235637
1.4235637
1.4235637
1.4235637
1.4235637
1.4235637
1.4235637
1.4235637
1.4235637
1.4235637
1.4235637
1.4235637
1.4235637
1.4235637
1.4235637
1.4235637
1.4235637
1.4235637
1.4235637
1.4235637
1.4235637
1.4235637
1.4235637
1.4235637
1.4235637
1.4235637
1.4235637
1.4235637
1.4235637
1.4235637
1.4235637
1.4235637
1.4235637
1.4235637
1.4235637
1.4235637
1.4235637
1.4235637
1.4235637
1.4235637
1.4235637
1.4235637
1.4235637
1.4235637
1.4235637
1.4235637
1.4235637
1.4235637
1.4235637
1.4235637
1.4235637
1.4235637
1.4235637
1.4235637
1.4235637
1.4235637
1.4235637
1.4235637
1.4235637
1.4235637
1.4235637
1.4235637
1.4235637
1.4235637
1.4235637
1.4235637
1.4235637
1.4235637
1.4235637
1.4235637
1.4235637
1.4235637
1.4235637
1.4235637
1.4235637
1.4235637
1.4235637
1.4235637
1.4235637
1.4235637
1.4235637
1.4235637
1.4235637
1.4235637
1.4235637
1.4235637
1.4235637
1.4235637
1.4235637
1.4235637
1.4235637
1.4235637
1.4235637
1.4235637
1.4235637
1.4235637
1.4235637
1.4235637
1.4235637
1.4235637
1.4235637
1.4235637
1.4235637
1.4235637
1.4235637
1.4235637
1.4235637
1.4235637
1.4235637
1.4235637
1.4235637
1.4235637
1.4235637
1.4235637
1.4235637
1.4235637
1.4235637
1.4235637
1.4235637
1.4235637
1.4235637
1.4235637
1.4235637
1.4235637
1.4235637
1.4235637
1.4235637
1.4235637
1.4235637
1.4235637
1.4235637
1.4235637
1.4235637
1.4235637
1.4235637
1.4235637
1.4235637
1.4235637
1.4235637
1.4235637
1.4235637
1.4235637
1.4235637
1.4235637
1.4235637
1.4235637
1.4235637
1.4235637
1.4235637
1.4235637
1.4235637
1.4235637
1.4235637
1.4235637
1.4235637
1.4235637
1.4235637
1.4235637
1.4235637
1.4235637
1.4235637
1.4235637
1.4235637
1.4235637
1.4235637
1.4235637
1.4235637
1.4235637
1.4235637
1.4235637
1.4235637
1.4235637
1.4235637
1.4235637
1.4235637
1.4235637
1.4235637
1.4235637
1.4235637
1.4235637
1.4235637
1.4235637
1.4235637
1.4235637
1.4235637
1.4235637
1.4235637
1.4235637
1.4235637
1.4235637
1.4235637
1.4235637
1.4235637
1.4235637
1.4235637
1.4235637
1.4235637
1.4235637
1.4235637
1.4235637
1.4235637
1.4235637
1.4235637
1.4235637
1.4235637
1.4235637
1.4235637
1.4235637
1.4235637
1.4235637
1.4235637
1.4235637
1.4235637
1.4235637
1.4235637
1.4235637
1.4235637
1.4235637
1.4235637
1.4235637
1.4235637
1.4235637
1.4235637
1.4235637
1.4235637
1.4235637
1.4235637
1.4235637
1.4235637
1.4235637
1.4235637
1.4235637
1.4235637
1.4235637
1.4235637
1.4235637
1.4235637
1.4235637
1.4235637
1.4235637
1.4235637
1.4235637
1.4235637
1.4235637
1.4235637
1.4235637
1.4235637
1.4235637
1.4235637
1.4235637
1.4235637
1.4235637
1.4235637
1.4235637
1.4235637
1.4235637
1.4235637
1.4235637
1.4235637
1.4235637
1.4235637
1.4235637
1.4235637
1.4235637
1.4235637
1.4235637
1.4235637
1.4235637
1.4235637
1.4235637
1.4235637
1.4235637
1.4235637
1.4235637
1.4235637
1.4235637
1.4235637
1.4235637
1.4235637
1.4235637
1.4235637
1.4235637
1.4235637
1.4235637
1.4235637
1.4235637
1.4235637
1.4235637
1.4235637
1.4235637
1.4235637
1.4235637
1.4235637
1.4235637
1.4235637
1.4235637
1.4235637
1.4235637
1.4235637
1.4235637
1.4235637
1.4235637
1.4235637
1.4235637
1.4235637
1.4235637
1.4235637
1.4235637
1.4235637
1.4235637
1.4235637
1.4235637
1.4235637
1.4235637
1.4235637
1.4235637
1.4235637
1.4235637
1.4235637
1.4235637
1.4235637
1.4235637
1.4235637
1.4235637
1.4235637
1.4235637
1.4235637
1.4235637
1.4235637
1.4235637
1.4235637
1.4235637
1.4235637
1.4235637
1.4235637
1.4235637
1.4235637
1.4235637
1.4235637
1.4235637
1.4235637
1.4235637
1.4235637
1.4235637
1.4235637
1.4235637
1.4235637
1.4235637
1.4235637
1.4235637
1.4235637
1.4235637
1.4235637
1.4235637
1.4235637
1.4235637
1.4235637
1.4235637
1.4235637
1.4235637
1.4235637
1.4235637
1.4235637
1.4235637
1.4235637
1.4235637
1.4235637
1.4235637
1.4235637
1.4235637
1.4235637
1.4235637
1.4235637
1.4235637
1.4235637
1.4235637
1.4235637
1.4235637
1.4235637
1.4235637
1.4235637
1.4235637
1.4235637
1.4235637
1.4235637
1.4235637
1.4235637
1.4235637
1.4235637
1.4235637
1.4235637
1.4235637
1.4235637
1.4235637
1.4235637
1.4235637
1.4235637
1.4235637
1.4235637
1.4235637
1.4235637
1.4235637
1.4235637
1.4235637
1.4235637
1.4235637
1.4235637
1.4235637
1.4235637
1.4235637
1.4235637
1.4235637
1.4235637
1.4235637
1.4235637
1.4235637
1.4235637
1.4235637
1.4235637
1.4235637
1.4235637
1.4235637
1.4235637
1.4235637
1.4235637
1.4235637
1.4235637
1.4235637
1.4235637
1.4235637
1.4235637
1.4235637
1.4235637
1.4235637
1.4235637
1.4235637
1.4235637
1.4235637
1.4235637
1.4235637
1.4235637
1.4235637
1.4235637
1.4235637
1.4235637
1.4235637
1.4235637
1.4235637
1.4235637
1.4235637
1.4235637
1.4235637
1.4235637
1.4235637
1.4235637
1.4235637
1.4235637
1.4235637
1.4235637
1.4235637
1.4235637
1.4235637
1.4235637
1.4235637
1.4235637
1.4235637
1.4235637
1.4235637
1.4235637
1.4235637
1.4235637
1.4235637
1.4235637
1.4235637
1.4235637
1.4235637
1.4235637
1.4235637
1.4235637
1.4235637
1.4235637
1.4235637
1.4235637
1.4235637
1.4235637
1.4235637
1.4235637
1.4235637
1.4235637
1.4235637
1.4235637
1.4235637
1.4235636
1.4235636
1.4235636
1.4235636
1.4235636
1.4235636
1.4235636
1.4235636
1.4235636
1.4235636
1.4235636
1.4235636
1.4235636
1.4235636
1.4235636
1.4235636
1.4235636
1.4235635
1.4235635
1.4235635
1.4235635
1.4235635
1.4235634
1.4235634
1.4235634
1.4235634
1.4235633
1.4235633
1.4235632
1.4235632
1.4235631
1.423563
1.423563
1.4235629
1.4235628
1.4235627
1.4235626
1.4235624
1.4235623
1.4235621
1.423562
1.4235618
1.4235616
1.4235613
1.4235611
1.4235608
1.4235604
1.4235601
1.4235597
1.4235592
1.4235588
1.4235582
1.4235576
1.423557
1.4235563
1.4235555
1.4235546
1.4235536
1.4235526
1.4235514
1.4235502
1.4235488
1.4235472
1.4235456
1.4235437
1.4235417
1.4235395
1.4235371
1.4235345
1.4235316
1.4235285
1.4235251
1.4235213
1.4235173
1.4235129
1.4235081
1.4235028
1.4234972
1.423491
1.4234843
1.4234771
1.4234692
1.4234607
1.4234515
1.4234415
1.4234308
1.4234191
1.4234066
1.423393
1.4233784
1.4233627
1.4233458
1.4233275
1.4233079
1.4232869
1.4232643
1.42324
1.423214
1.4231861
1.4231562
1.4231243
1.4230901
1.4230536
1.4230147
1.4229731
1.4229287
1.4228814
1.4228311
1.4227775
1.4227205
1.42266
1.4225957
1.4225275
1.4224552
1.4223785
1.4222974
1.4222115
1.4221207
1.4220247
1.4219234
1.4218165
1.4217038
1.421585
1.42146
1.4213284
1.4211901
1.4210448
1.4208922
1.4207321
1.4205643
1.4203885
1.4202044
1.4200119
1.4198106
1.4196003
1.4193807
1.4191517
1.418913
1.4186642
1.4184053
1.4181359
1.4178558
1.4175649
1.4172629
1.4169495
1.4166246
1.416288
1.4159396
1.415579
1.4152062
1.414821
1.4144232
1.4140127
1.4135895
1.4131533
1.412704
1.4122416
1.411766
1.4112772
1.410775
1.4102594
1.4097305
1.4091881
1.4086324
1.4080633
1.4074808
1.406885
1.406276
1.4056539
1.4050187
1.4043705
1.4037095
1.4030359
1.4023497
1.4016511
1.4009404
1.4002177
1.3994833
1.3987373
1.39798
1.3972118
1.3964327
1.3956433
1.3948436
1.3940342
1.3932152
1.3923871
1.3915501
1.3907047
1.3898512
1.3889901
1.3881217
1.3872464
1.3863647
1.385477
1.3845838
1.3836855
1.3827825
1.3818754
1.3809646
1.3800506
1.379134
1.3782151
1.3772946
1.3763729
1.3754506
1.3745282
1.3736062
1.3726852
1.3717657
1.3708482
1.3699333
1.3690215
1.3681134
1.3672096
1.3663105
1.3654167
1.3645287
1.3636471
1.3627725
1.3619053
1.361046
1.3601952
1.3593534
1.358521
1.3576987
1.3568867
1.3560857
1.3552961
1.3545182
1.3537526
1.3529996
1.3522597
1.3515332
1.3508205
1.3501218
1.3494376
1.3487681
1.3481137
1.3474745
1.3468508
1.3462427
1.3456506
1.3450745
1.3445145
1.3439709
1.3434435
1.3429326
1.3424381
1.3419599
1.3414982
1.3410528
1.3406236
1.3402106
1.3398136
1.3394324
1.3390668
1.3387167
1.3383818
1.3380618
1.3377566
1.3374657
1.3371889
1.3369258
1.3366761
1.3364395
1.3362156
1.3360039
1.3358042
1.335616
1.3354388
1.3352724
1.3351162
1.3349698
1.334833
1.3347051
1.3345859
1.3344748
1.3343716
1.3342758
1.3341869
1.3341048
1.3340288
1.3339588
1.3338943
1.333835
1.3337806
1.3337307
1.3336851
1.3336434
1.3336054
1.3335708
1.3335394
1.3335109
1.3334851
1.3334617
1.3334407
1.3334217
1.3334046
1.3333893
1.3333755
1.3333632
1.3333522
1.3333424
1.3333337
1.3333259
1.3333191
1.333313
1.3333076
1.3333028
1.3332986
1.3332949
1.3332917
1.3332888
1.3332863
1.3332841
1.3332822
1.3332805
1.3332791
1.3332778
1.3332767
1.3332758
1.333275
1.3332742
1.3332736
1.3332731
1.3332726
1.3332722
1.3332718
1.3332714
1.3332711
1.3332709
1.3332706
1.3332703
1.3332701
1.3332698
1.3332695
1.3332692
1.3332689
1.3332686
1.3332683
1.333268
1.3332677
1.3332674
1.333267
1.3332667
1.3332664
1.3332662
1.3332659
1.3332656
1.3332653
1.3332651
1.3332649
1.3332646
1.3332644
1.3332642
1.3332641
1.3332639
1.3332636
1.3332634
1.3332633
1.3332631
1.3332628
1.3332626
1.3332624
1.3332622
1.3332619
1.3332616
1.3332613
1.3332611
1.333261
1.3332608
1.3332606
1.3332604
1.3332602
1.3332598
1.3332596
1.3332594
1.3332592
1.333259
1.3332588
1.3332586
1.3332583
1.3332581
1.3332579
1.3332577
1.3332576
1.3332574
1.3332572
1.333257
1.3332568
1.3332566
1.3332565
1.3332563
1.3332562
1.3332561
1.3332559
1.3332556
1.3332553
1.3332552
1.333255
1.3332547
1.3332545
1.3332542
1.3332539
1.3332537
1.3332534
1.3332531
1.3332529
1.3332527
1.3332526
1.3332524
1.3332522
1.333252
1.3332519
1.3332518
1.3332516
1.3332515
1.3332513
1.3332512
1.3332511
1.333251
1.3332508
1.3332505
1.3332503
1.3332502
1.33325
1.3332498
1.3332496
1.3332494
1.3332493
1.3332492
1.333249
1.3332486
1.3332484
1.3332482
1.333248
1.3332479
1.3332477
1.3332475
1.3332473
1.3332471
1.333247
1.3332469
1.3332468
1.3332467
1.3332466
1.3332465
1.3332463
1.3332461
1.333246
1.3332458
1.3332456
1.3332453
1.3332451
1.3332449
1.3332447
1.3332446
1.3332444
1.3332443
1.3332441
1.333244
1.3332437
1.3332435
1.3332434
1.3332432
1.3332431
1.3332429
1.3332427
1.3332425
1.3332423
1.3332421
1.3332419
1.3332418
1.3332416
1.3332415
1.3332413
1.3332411
1.3332409
1.3332407
1.3332404
1.3332402
1.33324
1.3332398
1.3332396
1.3332394
1.3332391
1.3332389
1.3332387
1.3332384
1.3332381
1.3332379
1.3332377
1.3332376
1.3332374
1.3332372
1.3332369
1.3332366
1.3332363
1.3332361
1.3332359
1.3332358
1.3332356
1.3332353
1.333235
1.3332347
1.3332345
1.3332344
1.3332341
1.3332339
1.3332336
1.3332333
1.3332331
1.3332328
1.3332324
1.3332322
1.3332319
1.3332317
1.3332315
1.3332312
1.3332309
1.3332307
1.3332304
1.3332301
1.3332298
1.3332295
1.3332291
1.3332287
1.3332284
1.333228
1.3332278
1.3332276
1.3332273
1.3332269
1.3332265
1.3332262
1.3332258
1.3332255
1.333225
1.3332246
1.3332243
1.333224
1.3332236
1.3332233
1.3332229
1.3332226
1.3332221
1.3332217
1.3332213
1.3332208
1.3332204
1.33322
1.3332196
1.3332192
1.3332187
1.3332181
1.3332177
1.3332172
1.3332166
1.333216
1.3332155
1.333215
1.3332145
1.333214
1.3332135
1.333213
1.3332125
1.333212
1.3332114
1.3332109
1.3332103
1.3332098
1.3332092
1.3332086
1.333208
1.3332075
1.3332071
1.3332066
1.3332061
1.3332056
1.333205
1.3332045
1.3332041
1.3332038
1.3332036
1.3332034
1.3332032
1.333203
1.3332028
1.3332025
1.3332024
1.3332023
1.3332023
1.3332023
1.3332023
1.3332024
1.3332025
1.3332027
1.333203
1.3332032
1.3332035
1.3332038
1.3332041
1.3332043
1.3332045
1.3332047
1.3332048
1.3332048
1.3332048
1.3332048
1.3332047
1.3332043
1.3332035
1.3332027
1.3332017
1.3332006
1.3331995
1.3331982
1.3331968
1.3331952
1.3331936
1.3331922
1.3331909
1.3331898
1.3331887
1.3331876
1.3331864
1.3331851
1.3331837
1.3331823
1.3331809
1.3331796
1.3331784
1.3331775
1.333177
1.3331768
1.3331767
1.3331768
1.3331771
1.3331773
1.3331774
1.3331773
1.3331768
1.3331753
1.3331741
1.3331735
1.3331734
1.3331733
1.3331726
1.3331698
1.3331594
1.333125
1.3330175
1.3326989
1.3317832
1.3292672
1.322493
1.3116437
1.3007329
1.2909653
1.2829632
1.2768722
1.2725212
1.2695847
1.2677038
1.2665576
1.2658929
1.2655273
1.2653384
1.2652485
1.2652113
1.2652
1.2651992
1.2652025
1.2652111
1.2652185
1.2652246
1.2652302
1.2652361
1.2652425
1.2652495
1.2652568
1.2652643
1.2652716
1.2652785
1.2652848
1.2652903
1.2652951
1.2652991
1.2653023
1.2653049
1.2653069
1.2653086
1.2653101
1.2653117
1.2653132
1.2653148
1.2653165
1.2653181
1.2653198
1.2653213
1.2653229
1.2653244
1.2653258
1.2653272
1.2653285
1.2653298
1.265331
1.2653322
1.2653335
1.2653348
1.2653363
1.265338
1.2653397
1.2653416
1.2653436
1.2653457
1.265348
1.2653504
1.2653528
1.2653553
1.2653577
1.26536
1.2653623
1.2653645
1.2653666
1.2653687
1.2653705
1.2653723
1.2653739
1.2653754
1.2653768
1.2653781
1.2653794
1.2653806
1.2653818
1.265383
1.265384
1.2653849
1.2653858
1.2653866
1.2653874
1.2653881
1.2653889
1.2653897
1.2653904
1.2653911
1.2653918
1.2653925
1.2653931
1.2653938
1.2653944
1.2653951
1.2653957
1.2653963
1.2653968
1.2653974
1.2653979
1.2653984
1.2653989
1.2653995
1.2654
1.2654005
1.2654009
1.2654014
1.2654019
1.2654024
1.2654028
1.2654033
1.2654037
1.2654042
1.2654047
1.2654051
1.2654055
1.2654059
1.2654063
1.2654066
1.265407
1.2654074
1.2654078
1.2654082
1.2654086
1.2654089
1.2654092
1.2654095
1.2654098
1.2654102
1.2654105
1.2654109
1.2654112
1.2654116
1.265412
1.2654123
1.2654126
1.2654129
1.2654133
1.2654136
1.2654139
1.2654142
1.2654145
1.2654147
1.265415
1.2654153
1.2654156
1.2654159
1.2654162
1.2654165
1.2654167
1.265417
1.2654172
1.2654175
1.2654177
1.265418
1.2654182
1.2654184
1.2654187
1.2654189
1.2654192
1.2654194
1.2654196
1.2654198
1.26542
1.2654203
1.2654205
1.2654207
1.2654209
1.2654211
1.2654213
1.2654214
1.2654216
1.2654219
1.2654221
1.2654223
1.2654224
1.2654226
1.2654227
1.2654229
1.265423
1.2654232
1.2654234
1.2654236
1.2654237
1.2654239
1.265424
1.2654241
1.2654243
1.2654245
1.2654247
1.2654248
1.265425
1.2654251
1.2654252
1.2654253
1.2654254
1.2654255
1.2654257
1.2654258
1.265426
1.2654261
1.2654262
1.2654263
1.2654265
1.2654266
1.2654267
1.2654268
1.2654269
1.265427
1.2654271
1.2654272
1.2654274
1.2654275
1.2654276
1.2654277
1.2654278
1.265428
1.2654281
1.2654281
1.2654282
1.2654283
1.2654284
1.2654285
1.2654287
1.2654288
1.2654289
1.265429
1.265429
1.2654291
1.2654292
1.2654293
1.2654294
1.2654295
1.2654296
1.2654296
1.2654297
1.2654298
1.2654299
1.26543
1.2654301
1.2654302
1.2654303
1.2654304
1.2654305
1.2654306
1.2654306
1.2654307
1.2654308
1.2654308
1.2654309
1.265431
1.2654311
1.2654312
1.2654313
1.2654314
1.2654315
1.2654316
1.2654317
1.2654317
1.2654317
1.2654318
1.2654318
1.2654319
1.265432
1.2654321
1.2654322
1.2654322
1.2654323
1.2654323
1.2654324
1.2654325
1.2654326
1.2654327
1.2654328
1.2654328
1.2654329
1.265433
1.2654331
1.2654332
1.2654333
1.2654333
1.2654334
1.2654336
1.2654337
1.2654339
1.265434
1.2654341
1.2654343
1.2654344
1.2654345
1.2654347
1.2654349
1.2654351
1.2654352
1.2654354
1.2654355
1.2654357
1.2654358
1.265436
1.2654362
1.2654364
1.2654366
1.2654368
1.265437
1.2654372
1.2654375
1.2654377
1.2654379
1.2654382
1.2654384
1.2654387
1.265439
1.2654392
1.2654394
1.2654395
1.2654397
1.2654399
1.2654401
1.2654401
1.2654402
1.2654403
1.2654403
1.2654403
1.2654403
1.2654401
1.2654399
1.2654396
1.2654392
1.2654387
1.2654382
1.2654376
1.2654368
1.265436
1.265435
1.2654339
1.2654326
1.2654311
1.2654295
1.2654275
1.2654254
1.2654229
1.2654201
1.265417
1.2654134
1.2654094
1.2654048
1.2653997
1.265394
1.2653876
1.2653804
1.2653724
1.2653635
1.2653535
1.2653424
1.26533
1.2653163
1.2653011
1.2652842
1.2652656
1.2652449
1.2652222
1.2651971
1.2651695
1.2651391
1.2651058
1.2650692
1.2650292
1.2649853
1.2649374
1.2648851
1.2648281
1.2647659
1.2646984
1.2646249
1.2645453
1.2644589
1.2643653
1.2642642
1.2641549
1.264037
1.2639099
1.263773
1.2636259
1.2634678
1.2632982
1.2631165
1.2629219
1.2627139
1.2624918
1.2622547
1.2620022
1.2617333
1.2614475
1.261144
1.2608221
1.260481
1.26012
1.2597385
1.2593357
1.2589109
1.2584635
1.2579928
1.2574982
1.2569792
1.2564352
1.2558656
1.2552701
1.2546482
1.2539996
1.253324
1.2526212
1.251891
1.2511334
1.2503484
1.2495361
1.2486967
1.2478305
1.2469378
1.2460191
1.245075
1.2441062