/*--------------------------------*- C++ -*----------------------------------*\
  =========                 |
  \\      /  F ield         | OpenFOAM: The Open Source CFD Toolbox
   \\    /   O peration     | Website:  https://openfoam.org
    \\  /    A nd           | Version:  7
     \\/     M anipulation  |
\*---------------------------------------------------------------------------*/
FoamFile
{
    version     2.0;
    format      ascii;
    class       volScalarField;
    location    "0.00141";
    object      Uz;
}
// * * * * * * * * * * * * * * * * * * * * * * * * * * * * * * * * * * * * * //

dimensions      [0 1 -1 0 0 0 0];

internalField   nonuniform List<scalar> 
5000
(
0
0
0
0
0
3.3127925e-17
7.1264767e-32
-1.0114901e-16
-3.3990605e-17
6.8517805e-17
6.9047226e-17
-3.4785728e-17
2.9881976e-31
3.1105772e-31
-7.112247e-17
7.163318e-17
-9.5468012e-47
3.2000893e-31
3.6569036e-17
-7.363102e-17
-3.7059422e-17
0
0
3.7773642e-17
-3.2404808e-31
3.1512319e-31
3.8455843e-17
-3.8674803e-17
-3.8890461e-17
3.9102676e-17
-6.8715671e-31
3.3696904e-31
3.972617e-17
-3.9930934e-17
-4.0134481e-17
0
0
4.0736902e-17
4.0933574e-17
-4.1127378e-17
6.9285256e-31
4.150502e-17
-4.1688314e-17
7.0802081e-31
4.2043026e-17
-4.2214508e-17
1.4575345e-30
-1.4571327e-30
1.4687057e-30
-7.3096991e-31
-4.3018928e-17
0
0
0
0
0
0
0
0
0
0
0
0
4.4757319e-17
4.4871414e-17
-4.4983082e-17
7.7536835e-31
-4.816096e-48
-4.5303628e-17
0
0
4.5601936e-17
4.5695959e-17
0
-4.587514e-17
-1.5871092e-30
4.6041615e-17
4.6119877e-17
-4.6194737e-17
-9.2532542e-17
9.2668947e-17
-2.6375059e-32
-1.3938418e-16
9.3040738e-17
4.845047e-30
-9.3259892e-17
1.4004243e-16
-4.6729248e-17
-4.6775286e-17
4.6819052e-17
-4.686053e-17
-4.6899821e-17
-1.6341811e-30
9.3943279e-17
3.2530085e-30
4.7034412e-17
4.7062418e-17
1.6528327e-30
-3.2805222e-30
-9.4264714e-17
-4.7150748e-17
4.7166766e-17
-6.7047291e-33
-4.7191426e-17
0
4.720575e-17
1.6436653e-30
-4.7210238e-17
4.7208811e-17
4.7204842e-17
-9.4396627e-17
-4.7189205e-17
1.4153245e-16
4.7163198e-17
-1.4143898e-16
4.7126905e-17
4.7104844e-17
2.6761907e-32
4.7052567e-17
-1.410682e-16
3.2854282e-30
9.3910209e-17
-9.3834671e-17
-4.6876894e-17
4.6833596e-17
-4.6787508e-17
4.6738494e-17
9.3373103e-17
-4.6631465e-17
-1.6082828e-30
-4.6511553e-17
-9.2893225e-17
4.6378264e-17
4.6306529e-17
4.6231274e-17
1.6068736e-30
1.5974594e-30
-1.6010165e-30
-9.1789699e-17
-4.5801931e-17
4.5705505e-17
9.1211416e-17
4.5502562e-17
4.5396214e-17
-3.140581e-30
-9.0347776e-17
1.2806248e-32
-1.2772451e-32
-5.5825688e-47
-4.4692331e-17
3.0905021e-30
-6.1881207e-30
-4.4299867e-17
4.416307e-17
-4.4023252e-17
-1.5215333e-30
4.3734693e-17
-4.358589e-17
6.1723338e-33
4.3278833e-17
0
-4.2958843e-17
-2.9616315e-30
8.5251342e-17
-4.245407e-17
1.2016451e-32
4.2100721e-17
-4.1918862e-17
4.1733466e-17
-4.1544615e-17
1.7229923e-29
1.1416613e-29
-4.0956872e-17
8.1507422e-17
0
2.7972926e-30
8.3473498e-30
-3.9904765e-17
-3.9683265e-17
-2.7195461e-30
3.9228749e-17
-3.8995759e-17
-2.6658577e-30
-1.6421286e-32
-5.3030152e-30
7.6049769e-17
-3.7772287e-17
-3.7515715e-17
2.5624202e-30
-2.5494605e-30
7.6344881e-30
-2.5172598e-30
3.6170415e-17
0
0
0
0
3.4721941e-17
-7.175652e-30
-3.4114109e-17
-3.3804173e-17
3.3490267e-17
3.3172416e-17
-6.5701446e-17
-2.2509689e-30
6.68455e-30
3.1863051e-17
3.1526496e-17
-3.1186391e-17
0
-3.0495643e-17
-2.0862401e-30
2.9790831e-17
2.943322e-17
-4.0487815e-30
-2.8707844e-17
5.6680284e-17
-2.7969132e-17
-2.7594859e-17
2.7217369e-17
-2.6836688e-17
0
0
0
-2.5281735e-17
2.4885017e-17
4.8970476e-17
-2.4082436e-17
1.6453135e-30
-2.3267772e-17
-2.2855936e-17
4.4882329e-17
-6.2594589e-33
6.1399437e-33
-2.1179645e-17
-2.0753439e-17
4.064886e-17
-2.8269208e-33
4.053765e-30
-1.9021257e-17
1.0319519e-29
2.5159197e-30
-1.7694991e-17
1.7248011e-17
0
1.6347021e-17
-1.5893125e-17
-1.5437051e-17
1.4978865e-17
0
1.4056421e-17
-1.3592353e-17
-1.3126565e-17
4.3949076e-30
2.438069e-17
2.344016e-17
-3.3745361e-17
-2.15511e-17
0
1.9653003e-17
9.3507131e-18
-8.8742894e-18
-8.3973358e-18
-7.9199347e-18
1.4884358e-17
1.39284e-17
-6.4861717e-18
-1.2016574e-17
-1.5341994e-30
1.0107216e-17
-4.577036e-18
5.6881224e-31
3.6258694e-18
-6.303102e-18
2.6783513e-18
-3.0725178e-31
-1.7352911e-18
1.2669412e-18
-7.8075997e-19
5.845587e-19
7.2439703e-32
1.2727589e-18
-2.1993272e-18
-1.0796816e-31
2.01815e-18
0
0
3.3797125e-18
-3.8287169e-18
-8.5501802e-18
4.7186521e-18
-1.4663816e-33
5.5973287e-18
6.0324349e-18
-6.4644814e-18
0
-7.3187181e-18
-7.7406642e-18
0
1.7148668e-17
8.9859651e-18
-1.8787737e-17
6.7807997e-31
-2.8984185e-33
1.0593991e-17
1.0986162e-17
-1.1374345e-17
1.1758403e-17
-1.2138232e-17
7.1132856e-33
2.5770445e-17
-1.3252401e-17
-1.3615213e-17
-1.3973497e-17
-1.9871581e-30
1.4676548e-17
0
0
-1.5697904e-17
2.2254668e-30
-4.5392317e-30
-2.3178157e-30
1.6994192e-17
-1.7306638e-17
2.5031435e-33
1.7917112e-17
0
0
0
0
0
0
0
-2.0162398e-17
0
2.0673966e-17
0
-2.1165232e-17
-5.9371832e-30
2.1636277e-17
0
0
-2.2304953e-17
-3.1263786e-30
2.2725728e-17
0
0
-2.3319781e-17
-2.3508158e-17
2.3691753e-17
2.3870594e-17
0
-2.4214249e-17
3.4644893e-33
2.4539572e-17
-2.4695511e-17
-2.4847079e-17
2.4994355e-17
2.5137413e-17
0
-2.5411181e-17
-2.5542019e-17
2.5668895e-17
2.5791881e-17
0
-2.6026594e-17
-2.6138536e-17
2.6246991e-17
2.6352023e-17
0
0
0
0
0
0
0
0
-2.7155573e-17
5.8311504e-47
2.7303123e-17
0
0
0
-2.7568647e-17
-3.8321284e-30
2.7687797e-17
-2.7744186e-17
3.8595523e-30
-3.9578573e-33
-3.8738308e-30
2.7949927e-17
-2.7996601e-17
2.8041488e-17
-1.560508e-29
-2.8126133e-17
2.8165958e-17
0
0
-2.8275833e-17
-3.9304792e-30
2.8341514e-17
-2.8372192e-17
-2.840147e-17
0
2.8455974e-17
2.8481286e-17
-2.8505359e-17
-7.9176647e-30
-4.4870955e-48
-3.9667116e-30
2.8589711e-17
-2.8607961e-17
1.4580344e-47
-3.9765716e-30
-2.8656621e-17
0
0
2.8696683e-17
4.0796942e-33
-1.1949844e-29
2.8729153e-17
0
0
-2.8754977e-17
7.9744465e-30
2.8768946e-17
0
0
0
-2.8790342e-17
4.0919485e-33
2.8798292e-17
-2.8801661e-17
2.8804669e-17
-8.0074163e-30
-5.76195e-17
2.8811891e-17
1.2001526e-29
4.0007419e-30
-4.0009451e-30
-2.8818204e-17
0
0
2.8821108e-17
4.0016247e-30
-7.9993213e-30
-1.3189747e-49
-2.8823307e-17
2.8823614e-17
2.8823868e-17
0
-2.8824243e-17
-4.0019744e-30
2.8824395e-17
0
0
-2.8824132e-17
8.1922537e-33
-9.7140334e-50
-2.8823362e-17
2.8822981e-17
-3.9935285e-30
4.0016452e-30
-7.9990211e-30
-2.8820646e-17
2.8819851e-17
-8.0024531e-30
8.0062758e-30
-8.0059749e-30
-2.8815709e-17
2.88144e-17
-8.0007876e-30
4.0083656e-30
0
-2.8807903e-17
2.8805968e-17
-3.9991358e-30
4.0929691e-33
-3.9985065e-30
4.0022551e-30
2.8794292e-17
-2.8791562e-17
-2.878871e-17
2.8785732e-17
2.8782621e-17
0
-2.8776011e-17
-2.8772538e-17
0
2.8765317e-17
-3.9932581e-30
4.0867193e-33
3.9880923e-30
-2.8749778e-17
2.8745694e-17
3.9863954e-30
-7.9798002e-30
-2.8733169e-17
-2.872891e-17
5.7449228e-17
-4.0813996e-33
3.9828472e-30
2.8711679e-17
-2.8707404e-17
3.9851468e-30
2.8698911e-17
0
0
0
-2.8682327e-17
-2.8678361e-17
2.8674466e-17
2.8670632e-17
0
-2.8663165e-17
-2.8659575e-17
2.8656106e-17
2.8652754e-17
0
-2.8646347e-17
-2.8643278e-17
2.8640312e-17
7.9520526e-30
-2.8634725e-17
0
0
0
0
2.8622496e-17
-7.9391568e-30
-2.8618208e-17
2.8616173e-17
3.9727963e-30
-3.9765948e-30
-1.9849821e-50
2.8608552e-17
2.8606748e-17
-5.7209938e-17
-3.9712705e-30
3.9669627e-30
-2.8599705e-17
0
2.8596189e-17
2.8594401e-17
-2.8592584e-17
-7.9309512e-30
2.8588838e-17
0
0
-2.8582876e-17
3.9640965e-30
2.8578644e-17
0
-2.8574167e-17
4.060301e-33
-7.9331598e-30
-3.9621769e-30
2.856441e-17
-2.8561811e-17
4.0584999e-33
-7.929556e-30
-2.8553683e-17
2.8550875e-17
7.9272168e-30
4.0565049e-33
-3.9627964e-30
-2.8539195e-17
2.8536201e-17
0
-1.5840477e-29
-3.9566597e-30
-1.1868718e-29
-4.053092e-33
-2.8518065e-17
2.8515051e-17
1.3889036e-49
-3.9582082e-30
7.9156089e-30
-3.9574054e-30
5.7001003e-17
-2.8497698e-17
-2.8494938e-17
-3.9558622e-30
3.9554931e-30
5.6973934e-17
-2.8484428e-17
-2.8481957e-17
6.1548192e-51
0
2.0159744e-52
-2.8472712e-17
2.847054e-17
-7.5019854e-51
-3.9482279e-30
-4.0450324e-33
-2.8462443e-17
5.6921079e-17
7.9024064e-30
-2.8456835e-17
3.9466547e-30
-3.9464094e-30
2.8451523e-17
-2.8449798e-17
1.0264919e-49
-1.1852533e-29
7.9025636e-30
-7.894006e-30
-7.8975714e-30
-2.3955423e-50
0
2.8435988e-17
0
0
-2.843047e-17
-7.894042e-30
2.8426578e-17
0
0
-5.6840678e-17
-2.3657295e-29
5.6831705e-17
-2.8413506e-17
4.0374589e-33
-3.9442526e-30
-2.8406051e-17
0
0
0
-2.8395052e-17
-7.8758527e-30
2.8389072e-17
0
0
-2.8379497e-17
4.0324946e-33
2.8372744e-17
0
0
-2.8362054e-17
-7.8664905e-30
-7.877534e-30
7.8724394e-30
2.8346844e-17
-2.834287e-17
7.865104e-30
-7.8639714e-30
7.8588003e-30
2.8326458e-17
0
0
-2.8313619e-17
-2.621845e-48
2.8304841e-17
0
0
-2.8291463e-17
-1.7902803e-48
2.828238e-17
0
0
-2.8268629e-17
-1.8467473e-48
2.8259412e-17
0
0
-2.8245548e-17
4.0132787e-33
2.8236338e-17
-2.8231748e-17
7.8421368e-30
-7.8408737e-30
7.8356085e-30
2.8213625e-17
0
0
0
0
0
-2.8187415e-17
7.8219091e-30
2.8179036e-17
0
0
0
0
0
0
0
-2.8147978e-17
1.562228e-29
2.8140893e-17
0
0
0
0
0
0
0
-2.8115681e-17
7.8023894e-30
2.8110137e-17
0
0
-2.8102361e-17
7.8067741e-30
2.8097483e-17
0
0
0
-2.808845e-17
-7.8030006e-30
2.8084203e-17
0
0
0
0
0
0
0
-2.8068404e-17
3.9884869e-33
2.8064563e-17
0
0
0
0
0
0
0
-2.8048702e-17
-3.9856617e-33
2.8044461e-17
0
0
0
-2.8035431e-17
1.556446e-29
2.8030636e-17
0
-2.8025644e-17
-7.7854275e-30
2.8020406e-17
0
0
-2.8012116e-17
-2.800925e-17
2.8006324e-17
2.800333e-17
0
0
0
0
2.79875e-17
-3.9767886e-33
-5.5961536e-17
-2.7977323e-17
5.5947655e-17
5.5940556e-17
-2.796667e-17
-2.7963009e-17
0
0
0
0
-2.7944014e-17
-7.7623735e-30
2.7936098e-17
0
0
0
0
0
0
0
0
0
0
0
0
0
0
-2.7872235e-17
1.5476639e-29
2.7863249e-17
0
0
2.7849674e-17
-7.7320324e-30
3.9563766e-33
-2.7835934e-17
-2.7831338e-17
-1.5449907e-29
7.7296043e-30
2.7817504e-17
0
0
0
0
0
-2.7789579e-17
1.5426687e-29
2.7780246e-17
0
0
0
0
0
0
0
-2.7742682e-17
1.5396682e-29
2.7733256e-17
0
0
0
0
0
0
0
-2.7695591e-17
2.3059759e-29
2.7686205e-17
0
0
0
0
0
0
0
0
-2.7644564e-17
3.9278846e-33
2.7635521e-17
0
0
0
0
-2.7613361e-17
2.7609034e-17
2.7604747e-17
-5.5200991e-17
-7.6629382e-30
2.7592104e-17
0
0
0
0
-2.7571964e-17
7.6511929e-30
5.5128538e-17
-2.7560501e-17
-2.7556792e-17
2.7553146e-17
0
0
0
-2.7539206e-17
-7.6383382e-30
2.7532607e-17
2.7529407e-17
-2.7526275e-17
-2.7523211e-17
2.7520218e-17
0
0
-2.7511604e-17
-2.7508843e-17
2.750616e-17
2.7503559e-17
2.7501014e-17
1.5271561e-29
-2.7495964e-17
0
0
0
-2.7486793e-17
-2.7484342e-17
2.7481868e-17
2.7479685e-17
2.7477992e-17
7.6257412e-30
-2.7474078e-17
0
0
0
-2.7465213e-17
7.6226286e-30
2.7464281e-17
0
0
0
0
0
0
0
-2.7445253e-17
7.6162225e-30
5.4877517e-17
7.6185427e-30
-2.7435398e-17
0
0
-2.7429907e-17
3.8975643e-33
-7.6150931e-30
7.6105465e-30
2.7419266e-17
2.7416794e-17
-7.6124324e-30
-2.7412241e-17
0
0
-2.7404477e-17
2.281843e-29
7.603998e-30
-3.8931171e-33
2.7392996e-17
-2.7390649e-17
-2.7387863e-17
5.476885e-17
-1.5190564e-29
-2.737726e-17
2.7374533e-17
0
-2.7369144e-17
-7.6025944e-30
2.7361081e-17
0
-2.7354781e-17
2.7351004e-17
-3.0367492e-29
-2.7344345e-17
2.7341522e-17
0
-2.733256e-17
0
2.7323639e-17
0
-2.7317712e-17
2.7313782e-17
-1.5150992e-29
-2.7305006e-17
2.7301188e-17
0
-2.7294215e-17
-7.5778961e-30
2.7285476e-17
0
-2.7276916e-17
2.7273137e-17
-7.7504263e-33
-2.7265236e-17
2.7260458e-17
0
-2.7250675e-17
-2.724666e-17
2.7243452e-17
2.7239941e-17
-2.7234773e-17
2.7228581e-17
2.7223087e-17
-2.7219206e-17
0
0
0
0
0
0
-2.7188876e-17
-2.2618493e-50
5.4363745e-17
-2.7176211e-17
-2.7170545e-17
2.7165889e-17
0
0
-2.7154332e-17
-2.7149594e-17
2.7144652e-17
2.7140108e-17
0
-2.7132385e-17
-7.5369634e-30
2.7124151e-17
0
0
-2.7109343e-17
-2.7106769e-17
2.710409e-17
2.7099832e-17
0
-2.708946e-17
7.5210263e-30
2.7081557e-17
-2.707779e-17
-1.5035656e-29
-3.8468318e-33
-2.7066113e-17
2.7063378e-17
2.7060365e-17
0
0
-2.7047443e-17
7.5058142e-30
2.7041042e-17
0
-2.7033272e-17
-2.7029738e-17
2.7026997e-17
2.7024246e-17
0
0
0
0
0
0
-2.7001145e-17
7.4931998e-30
2.6996794e-17
0
0
0
0
0
0
-2.6975761e-17
-3.4410426e-50
2.6971533e-17
2.6970424e-17
7.4808623e-30
-2.6964614e-17
0
0
0
0
-2.6951736e-17
-7.4795561e-30
2.6948059e-17
-2.6946402e-17
-2.6944017e-17
2.6941234e-17
-1.4953024e-29
-2.2431605e-29
-2.2422078e-29
7.4822499e-30
-1.4955553e-29
7.4734783e-30
2.6926708e-17
0
-2.6921895e-17
2.2412856e-29
-3.8250251e-33
-2.6914385e-17
2.6912257e-17
2.690955e-17
-2.6907071e-17
7.4672641e-30
-2.2393538e-29
-1.4937069e-29
-1.4923642e-29
7.4608051e-30
-1.4927731e-29
-2.6890953e-17
2.6888886e-17
2.6886813e-17
-2.6884602e-17
7.4570279e-30
-2.9840725e-29
-7.4594871e-30
7.4625859e-30
7.454206e-30
7.4572731e-30
-2.6866666e-17
0
2.6861209e-17
-7.4542359e-30
-1.6458027e-49
2.6852795e-17
0
-2.6846898e-17
2.6843887e-17
2.684094e-17
-2.6838051e-17
0
0
0
0
-2.6823032e-17
7.4436811e-30
-1.4888686e-29
2.6811225e-17
2.6807319e-17
-2.680403e-17
0
0
0
0
-2.6787533e-17
-3.8062253e-33
2.678028e-17
0
0
0
0
0
0
0
-2.6749036e-17
-2.6744872e-17
2.6741385e-17
2.6738195e-17
0
0
0
0
0
0
-2.6706787e-17
-2.6702585e-17
2.6698242e-17
2.6693831e-17
0
0
0
0
0
0
-2.6661931e-17
-2.665736e-17
2.6652496e-17
2.664735e-17
0
0
0
0
0
0
-2.6612895e-17
1.4773484e-29
2.660403e-17
0
0
0
0
0
0
-2.6571138e-17
7.3765742e-30
2.6559265e-17
0
0
0
0
-2.6535925e-17
-3.7703166e-33
2.6526538e-17
-2.6521796e-17
-1.3533238e-49
2.6512342e-17
-2.650764e-17
1.4718682e-29
2.6498273e-17
-2.6493626e-17
-1.4707179e-29
-1.4704631e-29
-2.0370492e-48
-1.4695801e-29
-7.342886e-30
2.6466331e-17
-2.646195e-17
-2.6457631e-17
5.2906786e-17
-1.4673837e-29
-5.2890513e-17
0
2.6436848e-17
-7.3397922e-30
-7.3424104e-30
-2.1997739e-29
-2.1998471e-29
-1.4656115e-29
2.1992284e-29
-1.4655688e-29
7.3362272e-30
2.640274e-17
0
-2.6395942e-17
-3.750615e-33
-2.1968372e-29
-2.196944e-29
3.7492451e-33
1.4642859e-29
-7.3243499e-30
-2.6373993e-17
0
2.6368289e-17
-1.4634889e-29
-3.7463943e-33
2.6360305e-17
0
-2.6355202e-17
2.635253e-17
2.6349791e-17
-2.6347412e-17
0
0
-2.6340549e-17
2.9242234e-29
-1.4610518e-29
1.4620729e-29
-7.3154802e-30
2.6329716e-17
2.6327842e-17
-2.6325946e-17
0
0
0
0
-2.6317062e-17
-7.3071125e-30
-2.9210719e-29
2.6310347e-17
2.6308773e-17
-2.6307288e-17
0
0
0
0
-2.6299327e-17
-2.629757e-17
2.6295996e-17
2.6294935e-17
0
0
0
0
0
0
-2.6282012e-17
-2.6280259e-17
2.6278478e-17
2.6276596e-17
0
0
0
0
0
0
-2.6261439e-17
2.1867967e-29
5.2516046e-17
-2.6256123e-17
-7.8762086e-17
-2.6251881e-17
0
5.2494497e-17
-2.9143254e-29
-8.7393432e-29
-2.6241054e-17
-5.2475986e-17
5.2468663e-17
-2.6231628e-17
-2.622951e-17
2.6227348e-17
-2.6224988e-17
3.7264328e-33
2.6219829e-17
2.621715e-17
-2.6214392e-17
-2.6211597e-17
2.6208916e-17
-2.6206536e-17
-3.7237518e-33
2.6199867e-17
0
0
0
5.2375947e-17
-2.6185214e-17
-5.2365635e-17
2.6179262e-17
-2.6174773e-17
-2.6171375e-17
5.2337092e-17
4.8549282e-49
-2.6162747e-17
2.6160164e-17
5.2313001e-17
2.6151838e-17
-7.8444688e-17
2.6145237e-17
7.138505e-48
-7.8417012e-17
5.2271575e-17
2.6132288e-17
2.6128383e-17
5.2249339e-17
-5.2242392e-17
-2.6117701e-17
-2.611415e-17
2.6110709e-17
2.6107698e-17
-7.8311308e-17
2.6098969e-17
2.6095119e-17
-2.6091826e-17
-2.6088486e-17
-3.7069077e-33
7.8245172e-17
-2.6077886e-17
4.3410819e-29
-4.3419117e-29
-7.8198105e-17
2.6062515e-17
2.6058866e-17
5.2110429e-17
-2.6051556e-17
-5.2095038e-17
5.2086643e-17
-2.6039442e-17
2.603571e-17
2.6031898e-17
-7.8084341e-17
2.6024754e-17
2.6020586e-17
-5.2031078e-17
-2.6011374e-17
2.6007821e-17
7.8012714e-17
-2.600049e-17
-1.0398679e-16
1.4427944e-29
5.1976899e-17
2.5984308e-17
0
5.1953026e-17
5.7659656e-29
-7.790608e-17
2.5965072e-17
-5.7641227e-29
2.5956319e-17
2.5952255e-17
-5.1897161e-17
0
0
0
-2.5932919e-17
1.4396169e-29
5.1850455e-17
-2.5921724e-17
-5.1835697e-17
7.7740914e-17
-8.6291166e-29
-5.1812162e-17
2.5902363e-17
0
0
0
5.1773564e-17
-2.5882932e-17
-5.1757719e-17
7.7624542e-17
-7.3529769e-33
-5.1734317e-17
0
0
-2.5855084e-17
1.4352989e-29
5.169424e-17
-2.584323e-17
-5.1678367e-17
7.7505059e-17
-4.3007229e-29
-5.1654408e-17
2.5823485e-17
-2.5819575e-17
5.1630891e-17
2.5811503e-17
-8.5944166e-29
-2.5804116e-17
-5.1600329e-17
7.7387214e-17
-1.4660844e-32
-2.578789e-17
1.4312255e-29
-2.5780355e-17
-2.5775851e-17
1.4305235e-29
7.7303692e-17
-7.3226297e-33
-7.7280722e-17
5.1511774e-17
5.7657208e-48
-5.1495477e-17
2.5743821e-17
-2.5739754e-17
5.147097e-17
2.5731265e-17
-5.7129407e-29
-2.5722945e-17
-5.1437253e-17
-2.5714384e-17
-2.5710124e-17
7.7117156e-17
0
-2.5696938e-17
-1.4261257e-29
1.4258694e-29
-1.4252495e-29
2.5678724e-17
-2.8502258e-29
2.5669573e-17
-8.5475561e-29
-7.6979605e-17
5.130942e-17
7.6948591e-17
2.5644565e-17
-7.6919614e-17
-5.1270567e-17
7.689139e-17
-2.5625057e-17
-7.6856797e-17
0
0
2.5601404e-17
2.5597869e-17
0
-2.5590501e-17
-2.5583286e-17
5.1145816e-17
-5.6753218e-29
-7.6655264e-17
2.8364268e-29
2.5554325e-17
2.5557162e-17
2.5558516e-17
-2.5552012e-17
-2.5519293e-17
2.5473571e-17
7.6450724e-17
-2.5549624e-17
-1.0239832e-16
2.5613669e-17
5.1218806e-17
2.560261e-17
0
-2.5590467e-17
0
-2.557986e-17
2.557466e-17
-5.6771905e-29
2.5564152e-17
-8.5122571e-29
-7.6660475e-17
2.5548142e-17
2.55428e-17
-2.5537481e-17
-2.5532194e-17
2.5526949e-17
7.6565251e-17
-2.5516603e-17
-1.0204604e-16
4.2481344e-29
2.5501495e-17
5.0993144e-17
2.5491706e-17
-5.097379e-17
-1.4144524e-29
-3.6205616e-33
2.5472788e-17
-5.6547123e-29
-2.5463641e-17
7.6377419e-17
-2.8258567e-29
-5.0900545e-17
0
0
-2.5437285e-17
1.4117265e-29
5.0857626e-17
-2.5424628e-17
-5.0840949e-17
-2.5416351e-17
2.8204243e-29
7.622456e-17
2.5404143e-17
-2.5400123e-17
5.079225e-17
-1.4433765e-32
-8.4561466e-29
-2.5384252e-17
-5.0760662e-17
7.6129277e-17
-2.8174582e-29
-5.073732e-17
0
0
5.0714217e-17
-5.6291989e-29
-2.8134551e-29
-7.2036683e-33
-7.6025564e-17
-5.0676127e-17
4.2194552e-29
7.5991512e-17
2.5326735e-17
-2.5322974e-17
5.0638438e-17
2.8096824e-29
-8.4292397e-29
-2.5307989e-17
-5.0608512e-17
7.590158e-17
-2.5296801e-17
-2.529308e-17
2.5289363e-17
-2.5285649e-17
5.0563879e-17
-2.8062681e-29
-2.527453e-17
-3.5912007e-33
-5.053426e-17
5.052687e-17
-4.2056052e-29
-5.0512111e-17
2.5252369e-17
0
-2.5245e-17
-1.4007264e-29
7.5712943e-17
-2.5233975e-17
-5.0460604e-17
-2.522663e-17
-2.5222962e-17
2.52193e-17
2.521564e-17
2.5211977e-17
-2.5208315e-17
1.3990501e-29
-1.3984893e-29
2.5197356e-17
-2.7976e-29
2.5190051e-17
-8.3882212e-29
-7.5548295e-17
5.0358251e-17
7.4504565e-49
-2.5171844e-17
-2.7936961e-29
1.397183e-29
7.5482859e-17
-2.5157324e-17
-7.546108e-17
0
0
2.5142823e-17
2.5139204e-17
5.0271169e-17
-2.5131965e-17
-5.0256698e-17
5.0249473e-17
-2.5121125e-17
-7.5352543e-17
2.5113905e-17
2.5110298e-17
2.5106696e-17
2.5103097e-17
-5.0198998e-17
-2.5095901e-17
2.5092306e-17
7.5266143e-17
-2.5085123e-17
-9.8701988e-48
-4.1753362e-29
-5.0148714e-17
5.0141551e-17
5.0134389e-17
-2.5063613e-17
-5.0120069e-17
5.0112918e-17
2.5052886e-17
-7.5147945e-17
-7.5137237e-17
2.5042178e-17
5.0077223e-17
2.5035048e-17
-1.3894378e-29
-5.0055859e-17
-2.5024372e-17
2.5020816e-17
5.003453e-17
-3.5546629e-33
-5.0020339e-17
5.0013248e-17
-4.164294e-29
-4.9999095e-17
2.4996013e-17
4.998496e-17
4.9977905e-17
0
-2.4981912e-17
-7.4935182e-17
-2.4974881e-17
2.4971373e-17
0
0
0
0
-2.4953889e-17
1.3849372e-29
7.4840787e-17
-2.4943457e-17
-7.4819973e-17
-2.4936533e-17
4.1526351e-29
4.9859273e-17
2.4926201e-17
-2.4922774e-17
4.9838715e-17
2.4915951e-17
-8.2977243e-29
-2.4909166e-17
-4.9811575e-17
7.4707245e-17
-7.0767346e-33
-2.489568e-17
3.5374105e-33
-2.4888943e-17
-2.4885572e-17
2.7623022e-29
7.4636479e-17
-7.0700311e-33
-7.4616322e-17
-4.9737536e-17
1.3795144e-29
4.9724279e-17
2.4858844e-17
-2.4855548e-17
4.9704504e-17
2.4848956e-17
-8.2740313e-29
-2.4842378e-17
-4.9678243e-17
7.4507647e-17
-2.757506e-29
-2.4829384e-17
-2.4826138e-17
-2.4822911e-17
-1.3769765e-29
1.3771513e-29
4.9626586e-17
1.3767966e-29
-4.9613851e-17
4.9607521e-17
-1.2390302e-28
-7.4392359e-17
4.9588623e-17
-2.752902e-29
-4.9576101e-17
2.4784932e-17
2.4781819e-17
4.955742e-17
-2.4775607e-17
-7.4317539e-17
0
0
0
7.4280748e-17
7.4271612e-17
-7.4262497e-17
-7.4253405e-17
4.9496226e-17
-7.0329808e-33
2.4742103e-17
-8.2406591e-29
-7.4208387e-17
7.4199443e-17
-1.2356524e-28
-4.9454449e-17
-1.3720342e-29
1.3725737e-29
4.943682e-17
-2.4715486e-17
2.4712574e-17
-8.2308503e-29
-7.4120302e-17
7.411164e-17
2.4701006e-17
-5.4837376e-29
4.9390551e-17
-4.9384837e-17
-2.4689574e-17
-2.468674e-17
-7.4051745e-17
2.7399769e-29
2.4678287e-17
7.4026448e-17
-1.6434259e-28
-7.4009709e-17
0
2.4664361e-17
4.9323192e-17
-2.4658843e-17
2.4656105e-17
-8.2106989e-29
-4.9301305e-17
7.3943773e-17
-5.4712835e-29
-2.7370923e-29
-2.735393e-29
-2.7350955e-29
2.463445e-17
-7.3895321e-17
-7.3887304e-17
2.4626437e-17
4.9247568e-17
0
-2.4618516e-17
2.7320381e-29
-5.4648921e-29
2.7321549e-29
2.4608026e-17
-2.4605428e-17
-2.4602839e-17
7.3800758e-17
5.0212633e-48
-4.096341e-29
2.4592513e-17
-2.728461e-29
4.9174807e-17
-4.91697e-17
-4.9164592e-17
-2.4579749e-17
2.7280953e-29
2.4574696e-17
0
0
0
4.9129254e-17
-2.456213e-17
-4.911928e-17
7.3671443e-17
-2.4554651e-17
-7.3656484e-17
7.3649058e-17
-8.175344e-29
-4.9089517e-17
7.3626872e-17
4.9079643e-17
0
-4.9069824e-17
-8.1697331e-29
-2.4530021e-17
-4.905514e-17
2.4525126e-17
0
4.9040541e-17
6.9683903e-33
2.7215832e-29
-2.4512983e-17
-7.3531701e-17
7.3524483e-17
-4.0828559e-29
-7.3510008e-17
7.3502744e-17
-1.2240764e-28
-4.8992187e-17
2.4493701e-17
-2.449131e-17
4.8977826e-17
2.448651e-17
-1.087243e-28
-2.4481702e-17
-4.8958621e-17
-2.4476927e-17
-2.4474543e-17
4.8944304e-17
2.4469755e-17
0
-2.4464971e-17
1.3582073e-29
1.4975762e-49
2.4457828e-17
-6.9506525e-33
2.4453037e-17
1.812949e-48
-7.33448e-17
7.3337666e-17
7.3330507e-17
-4.8882211e-17
-4.8877411e-17
0
4.8867854e-17
-2.4431544e-17
-7.3287458e-17
7.3280253e-17
-4.0679044e-29
-4.8843887e-17
2.4419548e-17
0
-2.4414745e-17
-2.4412331e-17
2.4409913e-17
-4.0644049e-29
4.8810176e-17
1.3871315e-32
-7.3200767e-17
0
7.3186167e-17
4.8785906e-17
-7.3171561e-17
-4.8776174e-17
7.315694e-17
2.4383197e-17
-9.7522954e-17
-2.4378277e-17
4.875163e-17
4.8746705e-17
-2.7055386e-29
-2.436841e-17
-2.4365926e-17
-2.4363436e-17
2.4360942e-17
-2.7041577e-29
4.8711891e-17
-8.1108047e-29
-7.3052757e-17
0
0
4.8686669e-17
-5.4050881e-29
-2.4338247e-17
7.3007073e-17
-2.4333129e-17
-4.0509017e-29
-8.1023289e-29
-7.2976209e-17
2.4322811e-17
-1.349611e-29
2.6996241e-29
2.4314997e-17
-2.4312376e-17
3.4546226e-33
-1.3492291e-29
2.6978192e-29
2.4301807e-17
0
-2.4296469e-17
4.8587586e-17
2.4291113e-17
-4.8576846e-17
0
2.4282997e-17
-2.4280265e-17
-4.8555056e-17
7.2824371e-17
-8.0850782e-29
-8.0827816e-29
2.4266529e-17
-7.2791249e-17
3.4476897e-33
2.425816e-17
2.4255353e-17
-2.4252539e-17
-2.4249716e-17
2.4246884e-17
0
-2.4241192e-17
4.8476665e-17
-4.0364456e-29
-2.4232579e-17
-5.3804157e-29
-5.3783945e-29
-6.8848405e-33
-4.8441924e-17
7.2654108e-17
7.2645301e-17
0
-4.8418402e-17
-7.2618713e-17
-3.4394907e-33
2.420028e-17
2.4197288e-17
-2.4194288e-17
-2.4191281e-17
2.4188265e-17
0
4.8364398e-17
4.8358308e-17
-7.252831e-17
-2.4173045e-17
2.4169977e-17
-6.8686451e-33
-2.4163806e-17
-4.832142e-17
-2.415761e-17
4.0229621e-29
9.6605554e-17
-8.0424718e-29
-7.2435368e-17
2.4141978e-17
2.413883e-17
2.4135677e-17
-2.4132517e-17
-2.4129347e-17
-2.4126167e-17
-6.8561632e-33
2.4119787e-17
-2.411659e-17
7.2340164e-17
4.8220356e-17
-7.2320877e-17
2.4103732e-17
4.8201003e-17
-4.8194535e-17
2.4094029e-17
-2.4090783e-17
-4.8175056e-17
7.2252792e-17
-2.4080996e-17
8.0203496e-29
7.2223372e-17
-4.8142364e-17
-2.4067899e-17
-2.4064606e-17
-4.8122614e-17
2.4058004e-17
-1.160977e-73
4.8102791e-17
2.4048087e-17
-2.6693351e-29
-2.4041451e-17
-4.8076247e-17
4.8069584e-17
-2.4031459e-17
-7.2084373e-17
7.2074359e-17
2.4021444e-17
-9.4232515e-48
2.4014745e-17
-7.2034178e-17
-2.4008039e-17
2.4004682e-17
4.8002643e-17
-2.3997956e-17
2.3994588e-17
-7.9901694e-29
-4.7975694e-17
7.195342e-17
2.6636292e-29
-1.0648926e-28
5.3223494e-29
-4.7941907e-17
4.7935144e-17
-2.3964186e-17
-9.5843177e-17
2.39574e-17
4.7908016e-17
0
4.7894448e-17
-5.3162574e-29
-1.3608558e-32
-2.6573738e-29
-2.3933628e-17
-2.393023e-17
2.3926831e-17
2.3923429e-17
-4.7840047e-17
4.7833235e-17
-2.65473e-29
-4.7819613e-17
4.7812799e-17
7.9607855e-29
-2.6532167e-29
-2.3896175e-17
-4.7785541e-17
2.3889365e-17
-2.3885956e-17
1.3256626e-29
2.3879129e-17
4.7751441e-17
-2.3872316e-17
-4.7737825e-17
2.3865506e-17
-2.3862096e-17
3.9736926e-29
-2.3855269e-17
-5.2971936e-29
4.7696908e-17
4.7690102e-17
5.292893e-29
-7.9398995e-29
7.9387647e-29
-2.3831428e-17
-2.382802e-17
-2.3824616e-17
2.3821214e-17
0
0
-2.381101e-17
1.3215032e-29
3.3827815e-33
2.6422514e-29
2.3797409e-17
0
-2.3790616e-17
-4.7574441e-17
2.3783826e-17
4.7560861e-17
4.7554071e-17
4.7547285e-17
-7.1310754e-17
-7.9154486e-29
7.1290416e-17
-4.7520162e-17
-4.7513382e-17
0
-2.3749919e-17
4.749307e-17
2.374315e-17
-4.7479528e-17
-2.3736378e-17
2.6347232e-29
7.1188844e-17
-2.3726235e-17
-7.1168565e-17
7.1158427e-17
2.3716098e-17
-7.1138163e-17
2.6317606e-29
2.3705967e-17
4.7405181e-17
2.6302995e-29
-4.7391687e-17
4.7384945e-17
-2.36891e-17
-7.105718e-17
0
2.3678985e-17
4.7351236e-17
-1.3146627e-29
2.3668884e-17
4.7331027e-17
-4.7324288e-17
-4.7317555e-17
0
-2.3652054e-17
-2.6253642e-29
-2.6253268e-29
-2.6246171e-29
7.0915793e-17
4.7270473e-17
0
-4.7257044e-17
-5.2448331e-29
-2.3621805e-17
-7.0855331e-17
2.3615084e-17
-1.3102948e-29
3.3549517e-33
2.3605021e-17
4.7203334e-17
-2.3598312e-17
-4.7189913e-17
2.3591603e-17
0
4.7169805e-17
-2.3581551e-17
-7.0734593e-17
2.3574845e-17
2.3571495e-17
4.7136299e-17
-2.3564807e-17
-7.0684391e-17
2.3558116e-17
-2.6146022e-29
-4.7102828e-17
2.3548066e-17
2.3544723e-17
4.7082765e-17
7.061413e-17
-4.7069407e-17
-4.7062721e-17
4.7056031e-17
2.6109274e-29
-4.7042658e-17
4.7035979e-17
2.6104837e-29
-4.7022632e-17
0
4.7009285e-17
4.7002606e-17
0
-7.0483876e-17
-2.3491291e-17
-6.6756792e-33
-2.3484626e-17
-2.3481294e-17
-2.6057429e-29
4.6949247e-17
4.694258e-17
-7.8159004e-29
-4.6929264e-17
4.6922609e-17
7.8125754e-29
-4.6909289e-17
0
0
0
0
4.6876018e-17
2.6022723e-29
-4.686272e-17
-2.3428034e-17
4.6849417e-17
-7.8017203e-29
-4.6836125e-17
4.6829482e-17
2.5996889e-29
-2.3408101e-17
4.6809562e-17
-7.7950835e-29
-4.679628e-17
4.6789641e-17
4.6783005e-17
-4.6776372e-17
-4.676974e-17
0
0
0
0
-2.336829e-17
2.3364975e-17
2.3361663e-17
-2.593132e-29
-1.1214212e-73
-2.3351727e-17
-4.6696826e-17
-2.33451e-17
4.6683578e-17
7.0015441e-17
-2.3335172e-17
-4.6663726e-17
6.998566e-17
4.6650488e-17
-6.9965811e-17
-4.6637261e-17
-2.3315323e-17
-2.5879878e-29
4.6617409e-17
0
-2.3302093e-17
2.3298792e-17
-5.172307e-29
-6.6200376e-33
-7.7555965e-29
-2.328557e-17
-2.3282264e-17
6.6162785e-33
4.6551318e-17
4.6544718e-17
-7.7489958e-29
-4.653151e-17
0
0
0
-2.325254e-17
-2.3249237e-17
2.3245935e-17
2.3242634e-17
-2.3239332e-17
4.6472059e-17
6.9698175e-17
0
-4.6452229e-17
-2.5774248e-29
-2.3219506e-17
-6.9648607e-17
2.3212898e-17
-3.864926e-29
4.6412567e-17
-1.5456616e-28
-4.6399332e-17
-1.2875741e-29
-3.2959304e-33
2.3189738e-17
-2.3186425e-17
4.636622e-17
2.3179795e-17
-4.6352959e-17
4.6346329e-17
6.5852669e-33
-2.5724951e-29
-2.3163204e-17
-6.9479635e-17
4.6313104e-17
1.8355969e-49
2.31499e-17
-3.8550894e-29
-4.628647e-17
2.3139896e-17
4.6273108e-17
-2.5674806e-29
-6.9389607e-17
6.5729534e-33
2.3123174e-17
-2.3119817e-17
4.6232909e-17
2.3113089e-17
-4.6219442e-17
4.6212702e-17
2.564125e-29
-1.2822689e-28
5.1287169e-29
-4.6185626e-17
4.6178822e-17
-2.3086005e-17
-4.6165189e-17
2.3079179e-17
-2.3075754e-17
4.6144635e-17
-3.8421486e-29
-6.9196249e-17
0
0
6.9165024e-17
2.3051517e-17
-4.6096024e-17
4.6088986e-17
1.3097271e-32
-1.0230015e-28
-2.5571095e-29
-4.6060606e-17
4.605344e-17
4.6046237e-17
-2.3019499e-17
-6.9047589e-17
-2.3012211e-17
2.3008541e-17
0
0
-2.2997407e-17
1.2763223e-29
6.896961e-17
6.5330333e-33
-4.5964478e-17
-2.2978383e-17
2.5498654e-29
6.891175e-17
5.0992921e-29
-4.5925334e-17
0
-2.2954621e-17
4.5901085e-17
2.2946426e-17
-5.0945337e-29
-2.2938079e-17
-4.5867694e-17
2.2929571e-17
0
0
0
0
-2.2907466e-17
1.2712845e-29
6.8694783e-17
-2.289357e-17
-6.8666449e-17
6.8651997e-17
2.2879117e-17
-4.5748335e-17
-2.2869149e-17
-3.8070618e-29
6.8576665e-17
-1.299079e-32
-7.6101778e-29
-2.2842894e-17
-4.5674789e-17
-2.2831805e-17
-2.5333976e-29
2.2820339e-17
2.2814456e-17
2.2808468e-17
2.2802375e-17
-5.0614434e-29
-4.5579717e-17
0
0
-2.2770177e-17
-3.7902949e-29
-3.2338806e-33
3.2328737e-33
2.2742097e-17
4.5469439e-17
4.5454374e-17
-4.5438993e-17
-2.5226288e-29
-2.270363e-17
-6.8086336e-17
0
0
2.2669801e-17
2.2660873e-17
0
-2.2642421e-17
1.2562971e-29
2.2623133e-17
-2.2613158e-17
4.5205908e-17
-7.5243381e-29
-6.7745524e-17
2.2570921e-17
2.2559749e-17
4.5096631e-17
-2.2536614e-17
-6.7573918e-17
2.2512386e-17
-1.2492323e-29
4.4974034e-17
2.2473884e-17
-4.4920883e-17
4.4893363e-17
1.9904384e-47
-4.4836372e-17
0
0
4.4745781e-17
-2.4794335e-29
-7.441805e-29
2.3789472e-47
-6.6922133e-17
-2.4748494e-29
2.2272289e-17
4.4508259e-17
4.4471097e-17
-4.4433076e-17
-4.9284286e-29
-2.2177196e-17
-7.3804996e-29
2.2136034e-17
-4.4229494e-17
0
-2.2070713e-17
2.4470307e-29
2.2024675e-17
4.4001765e-17
2.4391078e-29
-4.3903407e-17
0
0
-2.18738e-17
1.2126575e-29
6.5457009e-17
2.4191009e-29
-4.3523658e-17
0
2.1702198e-17
-2.1671437e-17
-2.1640034e-17
-2.160798e-17
-2.1575265e-17
4.308376e-17
6.4523443e-17
-2.147306e-17
-4.2875214e-17
6.4204337e-17
1.3881653e-47
-4.265392e-17
0
0
0
0
4.2255435e-17
4.2171128e-17
-2.1042621e-17
-6.2996637e-17
-2.3274404e-29
2.0908971e-17
-4.1725576e-17
-4.1631551e-17
2.0767924e-17
8.2876901e-17
4.1339344e-17
-6.1857772e-17
-4.1135947e-17
6.1547442e-17
4.5427757e-29
-4.0817679e-17
0
0
0
4.0368146e-17
2.2342465e-29
-4.4558729e-29
2.0005842e-17
-5.9833687e-17
1.9882338e-17
1.9819164e-17
-5.926511e-17
-3.9379906e-17
1.9623908e-17
3.9113795e-17
3.8977833e-17
-6.4688367e-29
2.1486975e-29
-5.4794563e-33
-3.8414467e-17
0
-1.9060502e-17
-1.8985655e-17
1.8909818e-17
1.8832991e-17
-1.8755174e-17
-1.8676367e-17
3.7193139e-17
1.8515779e-17
-1.8433997e-17
1.8351223e-17
-1.826746e-17
-3.636542e-17
0
0
5.3767664e-17
1.7833873e-17
-3.5488431e-17
-1.7653584e-17
-1.7561984e-17
3.4938837e-17
-1.9299758e-29
-3.4562818e-17
0
1.7089593e-17
5.0976816e-17
3.7505047e-29