/*--------------------------------*- C++ -*----------------------------------*\
  =========                 |
  \\      /  F ield         | OpenFOAM: The Open Source CFD Toolbox
   \\    /   O peration     | Website:  https://openfoam.org
    \\  /    A nd           | Version:  7
     \\/     M anipulation  |
\*---------------------------------------------------------------------------*/
FoamFile
{
    version     2.0;
    format      ascii;
    class       volScalarField;
    location    "0.00348";
    object      Uy;
}
// * * * * * * * * * * * * * * * * * * * * * * * * * * * * * * * * * * * * * //

dimensions      [0 1 -1 0 0 0 0];

internalField   nonuniform List<scalar> 
5000
(
1.5948047e-17
1.5193542e-17
0
0
-8.1015945e-18
9.2028997e-33
8.0890701e-18
0
0
-8.0734627e-18
-1.6138343e-17
8.065174e-18
8.0615739e-18
-8.0581213e-18
0
-8.051652e-18
-2.329441e-48
8.0452415e-18
0
8.0386003e-18
-8.0351949e-18
-8.0316162e-18
1.6056064e-17
-8.0242818e-18
-8.0205389e-18
-6.6075595e-32
8.0127864e-18
8.0087885e-18
-1.6009653e-17
1.3871071e-31
-1.3977687e-31
7.9925104e-18
1.597676e-17
-1.5968264e-17
1.3835005e-31
-6.9364349e-31
-2.7640319e-31
1.5934025e-17
-1.592543e-17
-1.5916635e-17
1.5907972e-17
-5.467749e-31
-1.5890401e-17
7.9407509e-18
2.380912e-17
-7.9319068e-18
-7.9275148e-18
-5.4269881e-31
-1.5837267e-17
0
7.9097356e-18
1.1234025e-33
-7.900827e-18
1.5792659e-17
-2.7589099e-31
-1.5774825e-17
7.8829927e-18
-2.7206307e-31
-7.8740722e-18
0
7.8651516e-18
2.6809579e-31
2.2328753e-33
7.8517326e-18
-7.8473135e-18
2.7417466e-31
7.8383982e-18
-7.8339024e-18
-7.8294869e-18
7.8249937e-18
7.820581e-18
-7.816091e-18
-7.8116815e-18
1.561439e-17
7.8027891e-18
-7.7983064e-18
0
7.7894246e-18
-1.1063186e-33
-7.7805492e-18
7.7761525e-18
-2.208844e-33
2.2075949e-33
7.7628117e-18
7.7584176e-18
2.6996599e-31
-7.749552e-18
0
-7.7406858e-18
-8.0254893e-31
-2.7029435e-31
7.7273462e-18
7.7229506e-18
-1.5436957e-17
-5.3386749e-31
7.7096116e-18
0
0
-7.6963555e-18
-5.3342454e-31
1.5374998e-17
-7.6830351e-18
-1.5357299e-17
0
7.6698073e-18
7.6653514e-18
-7.6609733e-18
-7.6565215e-18
0
0
7.6433282e-18
7.6388835e-18
0
-7.6300732e-18
2.6658483e-31
7.6212668e-18
-7.616902e-18
2.1635921e-33
-2.6596927e-31
-1.9208531e-49
1.5198594e-17
-3.2378834e-33
-7.5904968e-18
0
-7.5816989e-18
7.5772643e-18
7.5729049e-18
-1.5136946e-17
-7.564116e-18
1.5119374e-17
7.5553332e-18
-7.5509074e-18
-7.5465565e-18
-7.5421337e-18
0
7.5333651e-18
7.5290189e-18
-7.5246007e-18
-2.6076102e-31
7.51584e-18
-7.5114973e-18
-7.5070827e-18
0
7.4983291e-18
7.4939899e-18
-7.4895794e-18
7.4852422e-18
-4.2523618e-33
-7.476499e-18
7.4720934e-18
-7.4677611e-18
5.1969744e-31
7.4590291e-18
-7.4546298e-18
7.4503039e-18
7.4459083e-18
-7.4415859e-18
0
0
-7.4284857e-18
-7.4241691e-18
7.4197826e-18
7.4154679e-18
-7.4110832e-18
-5.1365186e-31
7.4023864e-18
-7.3980741e-18
-7.3936919e-18
0
7.3849993e-18
7.3806888e-18
0
-7.3719995e-18
-7.3676211e-18
0
7.3589377e-18
1.5301087e-30
-7.35026e-18
7.3459583e-18
7.3415887e-18
-7.3372899e-18
-5.0644653e-31
5.0406688e-31
3.1225208e-33
7.3199678e-18
-7.3156058e-18
-1.0140642e-30
5.0257633e-31
-5.0228143e-31
7.298314e-18
0
0
-7.2854008e-18
-7.2810535e-18
0
0
7.2681517e-18
1.8912046e-49
-7.2595335e-18
0
7.2509231e-18
-7.2465891e-18
-2.006933e-30
1.4475991e-17
-7.233733e-18
-1.5009731e-30
-1.0267545e-33
-7.2208125e-18
7.2165484e-18
-1.0249176e-33
-9.9767992e-31
4.985413e-31
-7.1993961e-18
0
7.1908142e-18
4.9735702e-31
1.9933622e-30
7.177961e-18
0
-7.1694112e-18
-7.165203e-18
0
0
0
7.1481043e-18
4.9439768e-31
-7.139521e-18
0
0
7.1267176e-18
7.1224862e-18
-7.1182025e-18
-7.1139729e-18
0
7.1054635e-18
7.1011918e-18
-7.096958e-18
-7.0926927e-18
0
7.0841986e-18
-1.9659639e-30
-4.9069322e-31
7.0714684e-18
-7.0672291e-18
-7.062984e-18
0
7.0545026e-18
-9.7986345e-31
7.0460281e-18
9.7668502e-31
-1.4075116e-17
7.0333587e-18
-9.749219e-31
-2.438844e-30
-4.8587897e-31
-7.0164882e-18
7.0122115e-18
7.0080258e-18
0
-6.9995951e-18
-6.9953516e-18
0
6.986935e-18
6.9827602e-18
-1.3957048e-17
-6.9743514e-18
6.9701174e-18
6.965947e-18
1.9311511e-30
-6.9575467e-18
6.9533172e-18
-4.8191649e-31
-6.9449247e-18
6.9407619e-18
-4.8202757e-31
4.8272368e-31
-1.9691015e-33
-4.7820465e-31
6.9197884e-18
0
0
-6.9072732e-18
-6.9030633e-18
0
0
0
0
6.8822179e-18
4.7405111e-31
-1.3747757e-17
2.9287212e-33
6.8655463e-18
6.861353e-18
-9.5205708e-31
-9.4952769e-31
-9.7328807e-34
-6.8447205e-18
-6.8405971e-18
-6.8364153e-18
1.366459e-17
2.048435e-17
-6.8239996e-18
-1.3639648e-17
0
6.8115375e-18
6.8074262e-18
-6.8032571e-18
1.9324344e-33
-2.8968758e-33
1.9300841e-33
6.7867188e-18
6.7826194e-18
-6.7784633e-18
-1.3548737e-17
6.7702178e-18
1.9341976e-49
6.7619823e-18
1.8726922e-30
-1.3507512e-17
0
0
1.3482918e-17
-3.7416417e-30
-1.3466497e-17
0
6.725043e-18
6.7209129e-18
-6.7168421e-18
9.5393414e-34
-9.3142888e-31
9.5277004e-34
6.7004592e-18
-6.6963397e-18
-6.6922804e-18
0
6.6841121e-18
-9.2745203e-31
-6.6759551e-18
1.3343705e-17
-1.8496229e-30
-6.6637123e-18
-1.8492592e-30
-1.3311166e-17
1.3303102e-17
6.647465e-18
-6.6434384e-18
-9.4350951e-34
-6.6353371e-18
0
0
6.6231803e-18
-9.1806554e-31
-1.3230221e-17
9.3949501e-34
1.9821159e-17
-6.6030568e-18
-6.5990073e-18
1.3190033e-17
-6.5909726e-18
6.5869873e-18
1.3165898e-17
-6.5789696e-18
-6.5749376e-18
-6.5709643e-18
6.5669389e-18
3.7573748e-49
-6.5589537e-18
6.5549938e-18
-6.5509821e-18
6.5470288e-18
1.8131482e-30
1.8585174e-33
6.5350783e-18
-1.3062275e-17
6.5271453e-18
1.8113659e-30
-1.8084062e-30
-6.5152971e-18
-1.3022636e-17
1.9522189e-17
1.804023e-30
-3.6058741e-30
1.7999909e-30
-1.2983271e-17
1.2975354e-17
-1.7985727e-30
-1.2959648e-17
0
0
6.4680987e-18
-8.9656596e-31
-6.4602828e-18
-6.456354e-18
6.4524828e-18
1.9345686e-17
-6.444699e-18
-6.4407866e-18
-1.8294859e-33
-6.4330271e-18
0
1.2850567e-17
1.2842888e-17
-6.417555e-18
-1.2827445e-17
-6.4098412e-18
1.2812032e-17
1.2804283e-17
-1.2796647e-17
-1.2788912e-17
0
1.2773569e-17
-6.3829807e-18
-1.2758256e-17
6.3753316e-18
6.3714867e-18
-9.0490431e-34
8.835588e-31
6.3600802e-18
-6.3562512e-18
-6.352478e-18
6.3486568e-18
-8.8002332e-31
-9.0112127e-34
-8.7897306e-31
-6.3335122e-18
6.3297608e-18
-2.6348905e-30
-8.7777699e-31
-1.7536032e-30
-6.314689e-18
6.3109048e-18
-8.7568856e-31
-1.7476411e-30
-8.9523792e-34
-1.2591815e-17
-6.2921925e-18
6.2884302e-18
1.2569444e-17
-8.7204965e-31
-1.2554528e-17
-6.2735143e-18
1.2539636e-17
6.2660738e-18
-6.2623827e-18
-6.258644e-18
-1.7359885e-30
6.2512247e-18
0
0
6.2401395e-18
0
-6.2327445e-18
6.2290252e-18
8.8467654e-34
-1.7267421e-30
0
-6.2142656e-18
6.2106041e-18
6.2068944e-18
-1.2406471e-17
-6.1995284e-18
6.195872e-18
0
0
-6.1848133e-18
1.7172643e-30
6.1774649e-18
0
0
-6.1664771e-18
2.5677995e-30
6.1591406e-18
0
0
0
0
0
0
0
0
1.2252235e-17
3.3984386e-30
-6.1187831e-18
6.1151393e-18
-6.111447e-18
6.1078022e-18
-1.6967245e-30
-6.1004628e-18
-1.6929513e-30
-6.0931214e-18
0
0
6.0820804e-18
1.687859e-30
-6.0747302e-18
0
0
0
0
0
0
0
1.2090534e-17
-5.0294624e-30
-1.2075771e-17
6.0342159e-18
8.569853e-34
6.0268251e-18
-3.3398566e-30
-1.2038855e-17
-6.015703e-18
-1.7510865e-49
1.8024885e-17
0
-1.200176e-17
0
0
1.1979532e-17
-1.6604992e-30
-1.7946994e-17
5.9785879e-18
5.9748878e-18
-5.9711394e-18
5.9674339e-18
-5.9636799e-18
-1.6532708e-30
5.9562092e-18
-5.9524926e-18
0
-5.9450073e-18
5.9412393e-18
1.187503e-17
-5.9337446e-18
-5.9300183e-18
-5.9262461e-18
-5.9225181e-18
1.1837489e-17
5.9150147e-18
-5.9112392e-18
0
5.9037298e-18
-5.8999959e-18
-5.8962166e-18
1.7677443e-17
1.6736694e-33
-1.1769929e-17
5.8811845e-18
8.1602535e-31
5.8736703e-18
-1.6683362e-33
-1.1732317e-17
5.8624256e-18
0
-1.6257941e-30
-8.3149749e-34
-5.8474146e-18
5.843644e-18
-1.6216295e-30
-8.0946276e-31
-8.2883942e-34
-5.8286829e-18
5.8249746e-18
1.6655149e-49
-1.6154111e-30
-8.2618828e-34
-1.1620172e-17
-8.0532851e-31
5.8026545e-18
0
0
-5.7915053e-18
-2.4082786e-30
5.7841108e-18
-5.7804487e-18
8.0204438e-31
6.9571469e-49
-8.0102641e-31
5.7657921e-18
5.7621204e-18
7.9869045e-31
-5.7548314e-18
0
0
5.7439504e-18
-5.7403325e-18
4.7757052e-30
5.7331389e-18
-5.7295587e-18
0
5.7225354e-18
5.7189523e-18
-5.7154191e-18
-5.7119391e-18
0
5.7049103e-18
5.7014138e-18
-1.1395801e-17
-5.6944747e-18
5.6910523e-18
5.6876879e-18
7.8839686e-31
5.6808898e-18
1.5765258e-30
-1.1348295e-17
0
0
0
5.6609227e-18
5.6576546e-18
0
-5.6511945e-18
-7.82563e-31
5.6448191e-18
0
0
-5.6354192e-18
-7.8119329e-31
7.7996843e-31
-5.6262372e-18
5.623223e-18
-2.3385469e-30
-5.617276e-18
0
-5.6114343e-18
-7.7869244e-31
5.6057029e-18
-5.6028819e-18
5.6000839e-18
5.5973205e-18
-5.5945762e-18
0
5.5891817e-18
5.5865329e-18
-5.5839082e-18
-5.5813205e-18
0
-5.5762317e-18
5.5737314e-18
5.571269e-18
-5.5688343e-18
-1.1132871e-17
3.0900605e-30
1.6685188e-17
1.0297267e-49
-5.5571537e-18
-1.1109831e-17
3.0805985e-30
1.1101082e-17
-5.5484046e-18
5.5463034e-18
-5.5442363e-18
-5.5422054e-18
1.1080417e-17
0
0
-1.1068875e-17
-6.474086e-49
1.1061543e-17
0
0
-1.1051097e-17
-5.8112144e-49
1.1044503e-17
0
0
-1.103517e-17
-5.5161016e-18
1.1029315e-17
5.5132469e-18
0
-1.1021075e-17
3.0596114e-30
1.1015943e-17
-5.5067437e-18
0
5.5043912e-18
-5.503266e-18
7.819065e-34
5.5011213e-18
-5.5001014e-18
5.4991126e-18
5.4981602e-18
-5.4972383e-18
-5.4963519e-18
1.5259896e-30
5.4946726e-18
-5.4938783e-18
-1.5253294e-30
5.4923836e-18
-5.4916821e-18
5.4910072e-18
5.4903633e-18
-5.4897446e-18
-5.4891554e-18
1.5240721e-30
5.4880516e-18
-5.4875355e-18
7.7975614e-34
5.4865773e-18
-5.4861336e-18
5.4857089e-18
5.4853073e-18
-5.4849223e-18
-1.0969116e-17
3.0472698e-30
1.0967756e-17
-5.4835603e-18
7.7921818e-34
1.0965944e-17
1.5582769e-33
-5.4824361e-18
0
5.4819418e-18
0
-5.481479e-18
0
0
0
-5.480619e-18
-3.3459691e-51
5.4802055e-18
0
5.4797887e-18
-1.5215696e-30
-5.479359e-18
0
0
0
-5.4784365e-18
1.521184e-30
5.4779283e-18
0
5.4773736e-18
1.520097e-30
-5.476763e-18
0
5.4760925e-18
-5.4757355e-18
3.0423528e-30
5.4749675e-18
-5.4745532e-18
0
-5.4736595e-18
-1.5197925e-30
5.4726677e-18
0
5.4715766e-18
-5.4709956e-18
-3.0380349e-30
5.4697532e-18
-3.0365365e-30
-7.7710552e-34
1.5190384e-30
-7.7689358e-34
-5.4661041e-18
0
5.4644122e-18
-1.5163345e-30
-1.5160774e-30
4.0423231e-50
-1.5163122e-30
0
-1.0917084e-17
-1.5154197e-30
5.456273e-18
-5.4550772e-18
1.5136476e-30
5.4525658e-18
5.4512539e-18
1.5133311e-30
-1.5129465e-30
5.4471006e-18
-5.4456327e-18
-5.4441191e-18
0
-5.4409421e-18
1.51038e-30
5.4375759e-18
0
0
0
-1.0860771e-17
6.0295424e-30
1.085313e-17
0
0
0
0
0
0
0
-1.08186e-17
3.0043529e-30
1.0809219e-17
5.4022103e-18
-5.3997657e-18
-5.397264e-18
1.4987656e-30
2.9914664e-30
5.3893514e-18
-5.3866021e-18
5.3838197e-18
5.3810182e-18
-5.3782065e-18
-5.3753864e-18
2.9821742e-30
5.369688e-18
5.3667791e-18
-1.4878983e-30
-5.3607641e-18
-5.3576442e-18
5.354456e-18
5.3512156e-18
-5.347944e-18
5.344662e-18
0
-5.3381195e-18
-5.334861e-18
1.4789629e-30
5.3283064e-18
-5.3249709e-18
5.3215733e-18
5.318104e-18
-5.314562e-18
5.3109546e-18
1.4737304e-30
-5.3036026e-18
-5.2998936e-18
-7.5263312e-34
1.0584976e-17
2.9364425e-30
-5.285149e-18
-5.2815012e-18
0
5.2741914e-18
0
0
0
5.2590482e-18
5.2550907e-18
-5.251071e-18
-5.2470062e-18
0
5.2388292e-18
-1.4543327e-30
-5.2307261e-18
0
0
5.2188697e-18
-2.8947075e-30
-5.2110843e-18
0
0
5.1992481e-18
-2.8837292e-30
-5.1910786e-18
0
5.1826427e-18
-1.4379226e-30
1.4359834e-30
-1.4355101e-30
-5.1653046e-18
0
-5.1566817e-18
2.8592588e-30
5.1482277e-18
0
5.1399443e-18
-5.1358487e-18
-5.1317727e-18
1.0255421e-17
1.4241941e-30
-1.023923e-17
1.4204945e-30
5.1115469e-18
0
0
5.0993904e-18
-1.414134e-30
-5.091128e-18
0
5.0826913e-18
-5.0784203e-18
-5.0741269e-18
5.0698188e-18
0
-5.0611673e-18
5.0568176e-18
2.8044916e-30
-2.8020531e-30
5.0436452e-18
-4.1964537e-30
5.0348392e-18
-5.030472e-18
1.3949448e-30
-2.7889298e-30
-1.0035111e-17
1.3906596e-30
5.0089513e-18
0
0
0
-9.9827041e-18
-4.9869589e-18
9.9652467e-18
4.9783606e-18
0
0
4.9659335e-18
1.9160477e-49
-4.9577301e-18
0
-9.8989349e-18
-4.94533e-18
9.8824088e-18
4.9370961e-18
0
-9.8578139e-18
-1.3997119e-33
1.4761984e-17
-1.363814e-30
-9.8245687e-18
4.9080548e-18
2.7874957e-33
-4.8995751e-18
1.3600356e-30
2.7135558e-30
4.886907e-18
0
4.8784407e-18
-2.7062361e-30
-9.7398568e-18
4.8656882e-18
-8.0941003e-30
-4.8573344e-18
9.7064671e-18
-6.8910816e-34
-4.8451086e-18
0
0
0
-4.8284506e-18
4.8241822e-18
9.6398583e-18
-4.8157286e-18
-1.3360874e-30
-1.3336003e-30
-4.8036102e-18
0
4.7958066e-18
-6.8096998e-34
-9.5759151e-18
4.7839669e-18
2.6518643e-30
-4.7758448e-18
-4.7717286e-18
2.6490825e-30
9.5268423e-18
0
4.7550302e-18
4.7508082e-18
0
-4.7423512e-18
-4.7381436e-18
4.7339685e-18
0
-4.7257384e-18
0
0
4.7135641e-18
-3.9218535e-30
-4.7053797e-18
0
0
4.6929371e-18
4.6887961e-18
-4.6846817e-18
-4.6805979e-18
4.6765392e-18
4.6724914e-18
-9.3368718e-18
-4.6643555e-18
1.294718e-30
4.6560865e-18
-2.5808396e-30
-2.5785152e-30
4.6435372e-18
-4.6393832e-18
4.6352638e-18
-4.6311778e-18
-3.9453154e-33
4.6230587e-18
-9.2379841e-18
-4.6149014e-18
-4.6107798e-18
9.2132563e-18
9.2049044e-18
-4.598259e-18
4.594053e-18
-4.589834e-18
2.5466593e-30
9.1626925e-18
-4.5770787e-18
1.2691279e-30
-1.269245e-30
-4.5643291e-18
0
0
4.5519678e-18
4.5479265e-18
0
-4.5398256e-18
-4.5357137e-18
0
-4.5273e-18
1.2559501e-30
4.518695e-18
-4.5143815e-18
1.2510825e-30
4.5058637e-18
0
4.4975822e-18
2.4948831e-30
-4.4894716e-18
4.4853968e-18
-1.2424434e-30
-4.4769978e-18
-4.4726328e-18
-1.2400885e-30
4.4636721e-18
0
-4.4547599e-18
4.4504559e-18
-1.2637116e-33
2.4670491e-30
4.4382947e-18
-4.4343487e-18
0
-8.8523518e-18
9.8179298e-30
4.4174766e-18
2.4495537e-30
8.817096e-18
-8.8083389e-18
-8.7998179e-18
8.7915288e-18
8.78339e-18
4.3876367e-18
0
-4.3793148e-18
-8.7499972e-18
6.2110015e-34
-4.3661844e-18
4.361802e-18
4.3575053e-18
-4.3533137e-18
8.6984206e-18
-8.6902918e-18
-7.2300754e-30
8.6737247e-18
-8.6650614e-18
2.4023955e-30
-4.3234457e-18
4.3187894e-18
4.3141642e-18
-4.3096535e-18
-1.1942771e-30
-8.6023413e-18
8.5943806e-18
8.5866291e-18
-8.5789359e-18
-1.189411e-30
-4.2815949e-18
2.3755545e-30
4.2733161e-18
1.1848279e-30
8.0756116e-49
4.2605277e-18
8.5126161e-18
-4.2521376e-18
-1.751404e-48
-4.2438552e-18
-7.0624061e-30
4.2353652e-18
-8.4619176e-18
2.3459992e-30
8.4437265e-18
2.1777314e-49
-4.2126834e-18
0
0
-4.1996571e-18
4.1956477e-18
8.3835918e-18
0
0
0
-4.1768507e-18
-4.1729251e-18
0
4.1646215e-18
-4.1602496e-18
-6.9214856e-30
8.3024735e-18
0
0
0
-4.133762e-18
-4.1297276e-18
4.1257966e-18
-4.1219065e-18
-2.2869717e-30
8.2280639e-18
0
0
-8.2034141e-18
1.1645779e-33
4.0932633e-18
-4.0890337e-18
4.0848231e-18
-4.080648e-18
2.2639386e-30
8.1449154e-18
0
0
-4.0606348e-18
-4.0567891e-18
0
0
4.0453481e-18
4.0415388e-18
0
-4.0338299e-18
-4.0298838e-18
4.0258546e-18
-4.0217461e-18
-4.0175821e-18
4.013399e-18
4.0092338e-18
-2.2242803e-30
-4.0010443e-18
3.9970166e-18
1.1082103e-30
-3.9889773e-18
0
-3.9808224e-18
2.2079397e-30
3.972591e-18
-3.9684873e-18
2.2011054e-30
3.9603201e-18
0
-3.9522406e-18
1.0963657e-30
5.6054578e-34
-3.9408041e-18
3.9371928e-18
3.9335602e-18
0
-7.8519252e-18
4.3561865e-30
3.9178175e-18
5.5616223e-34
7.8190162e-18
-7.8109559e-18
-7.8031722e-18
7.795654e-18
3.8941683e-18
0
-7.7740125e-18
6.4656983e-30
7.7596393e-18
0
-7.7445628e-18
-2.1482915e-30
3.8641258e-18
1.0718019e-30
7.7110333e-18
-7.7024856e-18
-9.6089525e-30
7.6864405e-18
-7.6791162e-18
2.1287802e-30
7.665519e-18
3.8294484e-18
-7.6521349e-18
-3.8225407e-18
7.6376651e-18
-7.6298703e-18
-9.518408e-30
7.6134077e-18
-7.6050917e-18
1.0547721e-30
-3.7947076e-18
4.2066041e-30
1.1363469e-17
-2.1007424e-30
-7.5626988e-18
3.7779503e-18
7.5487274e-18
-3.7705901e-18
2.0913213e-30
-3.7626612e-18
-4.1748182e-30
3.7547359e-18
-7.5019114e-18
3.1206304e-30
-4.1568599e-30
2.0752789e-30
3.7374415e-18
0
3.7310206e-18
3.727698e-18
0
0
0
0
0
-3.7062012e-18
-3.702694e-18
0
3.6959317e-18
-3.6926379e-18
-6.1457444e-30
7.3722368e-18
0
0
0
-3.6728598e-18
-3.6694322e-18
3.6659457e-18
3.6624056e-18
-7.3176596e-18
-6.0899337e-30
7.303365e-18
0
-7.289409e-18
-6.0656585e-30
3.6379194e-18
-3.6345488e-18
3.63116e-18
-3.6277263e-18
-2.0117236e-30
7.2413426e-18
0
0
-3.6097168e-18
-3.6060347e-18
0
-3.5987149e-18
-1.0217838e-33
-3.5914581e-18
3.5878288e-18
1.0752542e-17
0
7.1535826e-18
7.1460945e-18
0
-1.0696493e-17
-7.123434e-18
7.1158952e-18
-3.5541966e-18
-3.5504659e-18
1.0640257e-17
3.5430483e-18
5.0297108e-34
3.5356298e-18
-3.5318955e-18
-3.528135e-18
-3.5243462e-18
-1.8132286e-49
-3.5166996e-18
-3.5128587e-18
3.5090176e-18
0
7.0026934e-18
6.9950212e-18
0
-3.4898017e-18
-6.9718347e-18
-1.932287e-30
-3.4780965e-18
-6.9483633e-18
6.9405694e-18
6.932841e-18
3.4625984e-18
3.4588202e-18
0
-3.4513661e-18
-1.0342986e-17
3.4439511e-18
1.9180818e-47
-1.0309358e-17
6.8652994e-18
3.4288105e-18
3.4249423e-18
6.8421138e-18
-6.8343354e-18
-3.413288e-18
3.4094282e-18
3.4055952e-18
3.4017911e-18
-1.0194045e-17
-3.3942629e-18
1.0171592e-17
3.386814e-18
-3.3831084e-18
-6.7588198e-18
3.3757136e-18
-3.3720143e-18
5.6080405e-30
-5.6037574e-30
-1.0082544e-17
3.3570948e-18
3.3533289e-18
6.6991113e-18
3.3457819e-18
-6.6840286e-18
-9.487901e-34
-3.3345174e-18
3.3307922e-18
9.9812451e-18
-9.9701506e-18
-3.3196948e-18
9.9480395e-18
0
-9.9259991e-18
-3.3050016e-18
9.9040324e-18
-3.2976946e-18
-6.5881058e-18
-1.8264314e-30
3.648362e-30
3.2831481e-18
0
6.55172e-18
6.5444112e-18
-3.268547e-18
-3.2648888e-18
-6.5224724e-18
3.2575942e-18
3.2539661e-18
-6.5007055e-18
0
6.486323e-18
6.479154e-18
-3.2359972e-18
-6.4648481e-18
1.7922633e-30
3.2253143e-18
-6.4435727e-18
3.218278e-18
-1.07067e-29
-6.4226023e-18
3.2078184e-18
0
6.4016764e-18
0
-7.0922196e-30
-3.1903625e-18
-6.3737883e-18
9.5503449e-18
-9.0381882e-34
-6.3532834e-18
0
6.3399234e-18
3.1666652e-18
-6.3267796e-18
3.5086706e-30
3.1568693e-18
-6.3072199e-18
3.1503461e-18
-5.239707e-30
-6.28761e-18
3.1405291e-18
-3.1372495e-18
6.2679312e-18
9.3920349e-18
0
-9.372336e-18
-6.2416972e-18
9.3528257e-18
6.2287887e-18
-3.1112035e-18
-6.2160578e-18
3.104863e-18
3.1017004e-18
-6.1970809e-18
3.095386e-18
6.1844811e-18
-3.0891052e-18
4.3854367e-34
-6.165698e-18
-6.1594314e-18
9.2297207e-18
-3.0734236e-18
-5.1135722e-30
9.2013528e-18
0
-9.1824637e-18
-6.1153471e-18
3.054523e-18
3.0513694e-18
3.048214e-18
0
3.0419027e-18
-1.6867336e-30
-6.0711493e-18
1.6827754e-30
3.0291825e-18
0
3.0227122e-18
-6.0389203e-18
-9.0486094e-18
6.0258816e-18
9.029011e-18
3.0063898e-18
-3.0031021e-18
-5.9996289e-18
2.9965368e-18
-2.9932765e-18
-2.9900351e-18
5.9736106e-18
-5.9671428e-18
-2.9803128e-18
8.9310327e-18
5.947313e-18
-2.9702543e-18
-8.9004641e-18
6.5796046e-30
-6.5719907e-30
-2.956545e-18
-3.2784576e-30
-2.949783e-18
2.9463823e-18
2.9429269e-18
2.9393956e-18
-2.9357929e-18
-2.9321541e-18
8.7856057e-18
-2.924989e-18
-5.8430813e-18
8.754545e-18
8.2845673e-34
-2.9115519e-18
5.816314e-18
2.9046534e-18
0
-2.8973597e-18
-2.8936697e-18
-5.780072e-18
2.8865e-18
-9.6019183e-30
-8.6390921e-18
2.8763477e-18
2.8729655e-18
2.8695268e-18
-2.8660295e-18
-2.8624841e-18
8.5767281e-18
-2.8553215e-18
-5.7034529e-18
-4.7435785e-30
-2.8444957e-18
5.6817096e-18
8.5116328e-18
1.5724538e-30
-1.5708723e-30
-4.0167157e-34
-2.823101e-18
-5.6395324e-18
-2.8164569e-18
8.4393336e-18
-3.119174e-30
-5.6122873e-18
0
0
2.7949798e-18
-1.5493363e-30
1.5468815e-30
2.7838732e-18
-5.5606219e-18
-2.7767983e-18
-3.0780074e-30
2.7698269e-18
8.2990179e-18
2.7628457e-18
0
0
0
-8.2464841e-18
-5.4905531e-18
8.2250488e-18
-3.0404242e-30
-5.468745e-18
0
0
5.4466849e-18
-6.0386251e-30
-3.0145821e-30
5.4252768e-18
-2.7091444e-18
-5.4113494e-18
-5.4044509e-18
2.6987882e-18
8.0860472e-18
2.6918967e-18
0
0
0
-8.0332573e-18
-5.3482252e-18
8.0113466e-18
-5.9210683e-30
-2.6631342e-18
3.779406e-34
-2.6559515e-18
5.304858e-18
-2.9407315e-30
-2.6454845e-18
5.2840652e-18
0
-1.463066e-30
-5.2633114e-18
-5.2563793e-18
7.8741606e-18
5.2424851e-18
-2.6177503e-18
-1.45073e-30
2.6107122e-18
-7.82153e-18
-5.2072867e-18
2.6001215e-18
2.5966148e-18
-2.5931242e-18
-2.5896489e-18
2.5861916e-18
2.5827574e-18
-1.4317366e-30
1.4294976e-30
2.572629e-18
0
2.5659498e-18
-5.1251831e-18
-7.677637e-18
5.1116343e-18
5.1048358e-18
2.5490282e-18
-2.8257058e-30
-5.0846251e-18
2.5389892e-18
-2.5356831e-18
-2.5323888e-18
5.0582057e-18
-5.0516505e-18
-2.5225592e-18
2.5193103e-18
5.0321684e-18
2.5128834e-18
-5.0194086e-18
1.3906058e-30
-2.5033648e-18
-2.5001758e-18
7.4908916e-18
-2.493735e-18
-2.4905062e-18
7.4618993e-18
-3.5301661e-34
-7.4430364e-18
-2.477923e-18
7.4245207e-18
-2.4717363e-18
-1.628245e-47
-4.1047875e-30
-4.924477e-18
4.9181546e-18
4.9119179e-18
-2.452889e-18
2.7197161e-30
4.8936938e-18
-2.4438188e-18
-7.3222489e-18
-2.4376316e-18
2.4344754e-18
0
2.4281571e-18
4.850103e-18
-3.44187e-34
-7.2570027e-18
-2.4160278e-18
4.8260765e-18
-3.4248106e-34
-4.8137722e-18
4.8074265e-18
-3.9980672e-30
-4.7945833e-18
7.1823289e-18
4.781943e-18
0
0
-2.3817041e-18
-7.1357767e-18
-2.3754496e-18
7.116855e-18
-2.6300801e-30
-4.7319279e-18
4.7256616e-18
4.719414e-18
-2.3565694e-18
-4.7067797e-18
2.3501496e-18
2.3468477e-18
-7.0305e-18
-2.3401327e-18
-3.8919233e-30
1.2945721e-30
2.3301326e-18
-2.3268505e-18
4.647161e-18
6.9609465e-18
0
-6.9414195e-18
-4.6211398e-18
6.9220315e-18
-6.5486973e-34
-2.3008715e-18
4.5951657e-18
-2.2942412e-18
-2.2908498e-18
-2.539389e-30
2.2839896e-18
4.5611328e-18
-2.2771689e-18
-4.5475982e-18
-4.5409005e-18
2.5174828e-30
2.2637748e-18
-2.2604371e-18
4.514202e-18
6.7613141e-18
0
-6.7413991e-18
-4.487622e-18
6.7214163e-18
-2.4841651e-30
-2.2337155e-18
2.2303027e-18
2.2268817e-18
-1.2335602e-30
-4.4401228e-18
1.2304203e-30
4.4265678e-18
-2.4530024e-30
-2.4492232e-30
-4.4061382e-18
-6.5989292e-18
4.392442e-18
-2.4349791e-30
-7.2911561e-30
2.1860473e-18
2.1826733e-18
4.3585779e-18
-6.5276598e-18
-2.1724673e-18
4.3380807e-18
-4.331238e-18
-1.2290763e-33
6.4764816e-18
2.1554518e-18
-2.1520738e-18
-6.4460398e-18
7.145317e-30
4.2836616e-18
2.1383938e-18
-4.2699381e-18
-6.3946992e-18
6.3845541e-18
2.1248118e-18
2.3545075e-30
2.1180275e-18
-4.229198e-18
1.1718512e-30
-2.1077122e-18
2.1042906e-18
-6.9981438e-30
-6.2925867e-18
6.2824894e-18
6.2723405e-18
0
0
0
-2.077034e-18
-6.2208773e-18
-2.0702541e-18
-2.2945769e-30
-2.0635472e-18
6.1804884e-18
2.0567415e-18
-2.0532925e-18
-2.0498395e-18
-2.0464113e-18
4.0860568e-18
-2.0396908e-18
2.03637e-18
-6.7709045e-30
-4.0592788e-18
6.0786347e-18
4.0455243e-18
0
-4.0318573e-18
-2.2342875e-30
2.0093087e-18
-6.0180621e-18
-2.0026906e-18
1.9993049e-18
0
0
1.9890404e-18
3.9714136e-18
-4.4016358e-30
-3.9584438e-18
-1.9759662e-18
1.9726461e-18
-1.9692641e-18
1.9658501e-18
1.7465401e-47
-3.2629375e-30
5.867619e-18
0
0
-3.8926144e-18
-3.8859899e-18
-1.9396215e-18
2.1492387e-30
5.7986832e-18
-2.142756e-30
-3.8530402e-18
0
3.8406279e-18
1.9170881e-18
-3.8275328e-18
1.9103941e-18
1.9070452e-18
-5.7113745e-18
1.9006755e-18
-6.3200923e-30
-3.7892945e-18
5.6745498e-18
3.7765033e-18
0
0
0
-5.6254039e-18
-3.7442941e-18
5.6075833e-18
3.7322956e-18
0
-3.7193009e-18
2.0607604e-30
1.8529614e-18
-3.6995176e-18
1.8467241e-18
-1.8438071e-18
-1.8408633e-18
5.513317e-18
-3.6690074e-18
-3.6622165e-18
1.8277004e-18
-1.8244059e-18
3.6426215e-18
5.4551926e-18
0
-5.4373661e-18
-3.6184078e-18
1.8058008e-18
1.8023565e-18
-1.9971692e-30
1.795831e-18
-5.9719526e-30
-1.7898783e-18
-9.920783e-31
-6.3269352e-49
1.7802405e-18
0
1.7733933e-18
-3.540219e-18
-5.3009778e-18
5.2919268e-18
5.2827149e-18
0
-3.5086082e-18
-3.5016656e-18
3.4947443e-18
-1.7440201e-18
-1.740829e-18
5.2132309e-18
-3.4692395e-18
-3.4627265e-18
1.7279698e-18
3.4489793e-18
1.7210061e-18
-5.1527869e-18
-1.714297e-18
-2.849368e-30
3.4158516e-18
9.6900346e-34
-5.1040016e-18
3.3957084e-18
5.082878e-18
1.690734e-18
-5.0618067e-18
-3.3679194e-18
5.0423463e-18
-3.7252583e-30
-3.3485669e-18
-1.6708071e-18
9.2543328e-31
3.3272213e-18
-1.8429382e-30
1.6566643e-18
1.6533347e-18
-4.9499702e-18
-1.6465549e-18
-1.8240114e-30
3.2789245e-18
-5.4483687e-30
-4.8973671e-18
3.2581194e-18
-1.8056722e-30
-1.8023038e-30
-3.5944319e-30
-1.6150549e-18
4.8341289e-18
-1.607705e-18
-2.6707278e-30
-5.330669e-30
-4.7914611e-18
1.5937235e-18
3.1803972e-18
-1.7613017e-30
1.5827699e-18
1.5789564e-18
-3.1503925e-18
-3.143112e-18
1.7405309e-30
4.6935498e-18
-1.7323695e-30
-1.5570897e-18
3.1064003e-18
-1.5492931e-18
-1.5454507e-18
8.5532987e-31
-8.5372349e-31
1.5342814e-18
-3.0608005e-18
1.5263981e-18
-5.0709276e-30
-5.0565798e-30
4.5429322e-18
-3.0208432e-18
4.2819066e-34
3.0052908e-18
-1.4986251e-18
-4.4834544e-18
-1.4902349e-18
4.4577848e-18
-1.644842e-30
-1.4774196e-18
2.946595e-18
-2.9383992e-18
-7.3198931e-30
1.460608e-18
-1.4560572e-18
1.4514151e-18
-2.8935665e-18
1.4422313e-18
4.3132862e-18
0
0
-2.8476282e-18
-4.0326262e-34
2.8276908e-18
-1.4088627e-18
-4.2118399e-18
-1.3990584e-18
4.1822312e-18
3.9475789e-34
1.5360362e-30
2.7563873e-18
-4.1180372e-18
-6.8301198e-30
1.3615717e-18
-1.3560429e-18
-1.3504879e-18
1.4936977e-30
1.338914e-18
-2.6656313e-18
2.6531181e-18
-4.3969567e-30
-2.6277514e-18
3.9226124e-18
2.6023211e-18
-1.2946197e-18
-3.8635823e-18
-1.2809133e-18
1.2738186e-18
0
-1.2593373e-18
1.2520218e-18
3.7338593e-18
6.8664984e-31
-2.4584717e-18
1.2212204e-18
1.2130085e-18
-2.4092587e-18
1.1961319e-18
-1.1875758e-18
-2.3578733e-18
3.5102844e-18
-3.8665997e-30
2.5572393e-30
2.2839568e-18
-2.2642618e-18
-1.1220892e-18
-1.1118853e-18
-1.223836e-30
1.0910855e-18
-2.1607446e-18
2.1386954e-18
3.1740219e-18
0
-1.0344836e-18
5.6750926e-31
2.8711216e-34
-2.9933827e-18
-9.8508593e-19
2.9160441e-18
-9.5860481e-19
-7.2241696e-47
2.7924747e-18
-9.1648903e-19
-2.7055815e-18
-8.8693753e-19
1.743457e-18
-8.5624619e-19
8.4047387e-19
-2.7455095e-30
-1.6157501e-18
2.3729517e-18
8.5935532e-31
-3.3576004e-30
1.4759558e-18
-1.4392122e-18
-7.7813801e-31
6.8193227e-19
-1.3251331e-18
-6.4280562e-19
0
0
1.1618554e-18
-1.2420709e-30
-3.0552201e-34
-5.7189584e-31
-4.9246476e-19
-4.6942839e-19
4.4598364e-19
4.2207568e-19
-7.9541104e-19
7.4577329e-19
-3.8592839e-31
-6.4397402e-19
5.9190197e-19
8.9751271e-31
-2.6926789e-31
2.1513546e-19
-3.7449897e-19
1.589083e-19
-2.8894903e-31
-2.0195444e-19
0
8.1367022e-20
9.729339e-21
4.1573211e-20
5.1730004e-20
-8.3315036e-20
1.9214285e-31
1.4784529e-19
0
0
-4.9598731e-19
-5.6449217e-19
0
7.036052e-19
3.8702848e-19
-4.226309e-19
4.5867348e-19
-4.95147e-19
0
1.1384869e-18
0
0
-6.8238719e-19
8.000084e-31
7.5922904e-19
0
-8.3740032e-19
-4.8674973e-31
9.1662433e-19
0
-1.9929951e-18
-2.0733913e-18
1.0771208e-18
1.2407198e-30
-1.1585751e-18
2.3990987e-18
2.4812919e-18
-2.5636789e-18
-3.7604697e-34
-3.0297234e-30
-3.9951594e-34
2.8940269e-18
-1.4884267e-18
1.6984046e-30
-1.5713437e-18
1.6127476e-18
4.9621142e-18
-5.0856449e-18
-1.7363198e-18
1.7773469e-18
2.0182821e-30
1.8590168e-18
-3.799202e-18
-3.8799773e-18
3.960336e-18
6.7273526e-30
2.0598267e-18
2.0992561e-18
-4.2767734e-18
2.1772032e-18
-2.4594436e-30
1.2516973e-30
-2.2916376e-18
-4.6580595e-18
4.7319538e-18
4.8049082e-18
0
-2.474063e-18
-2.785573e-30
5.0876098e-18
2.8618653e-30
-7.8343392e-18
-5.288798e-18
0
5.4169672e-18
6.0820048e-30
2.7701243e-18
2.7999769e-18
-8.4874391e-18
1.5857842e-30
5.7707226e-18
-2.9124016e-18
-5.8774274e-18
2.964277e-18
5.9781497e-18
3.0130908e-18
0
-6.1174322e-18
3.0802937e-18
9.3030877e-18
-3.1209192e-18
-3.1399627e-18
-6.3163036e-18
-3.1754726e-18
6.3838207e-18
3.2074512e-18
3.2220821e-18
-3.5922221e-30
-3.2485838e-18
-3.2604613e-18
-6.5428535e-18
-3.2814711e-18
0
0
0
6.6243393e-18
6.6349929e-18
-6.6437748e-18
-3.6916178e-30
-3.6943645e-30
3.695111e-30
7.3943886e-30
-6.6591874e-18
0
6.6522499e-18
3.3229903e-18
-3.3189443e-18
3.3139895e-18
3.3081287e-18
0
0
-6.5703756e-18
1.0909861e-29
7.2504772e-30
-6.5088642e-18
6.4849723e-18
6.4594284e-18
0
-6.4035336e-18
3.5367095e-30
6.3413271e-18
-6.3079418e-18
-3.4829305e-30
6.236776e-18
0
-6.1599384e-18
-3.0597404e-18
6.0777074e-18
-3.0173258e-18
-6.6519033e-30
5.9448516e-18
-5.898185e-18
-5.8503834e-18
0
0
0
5.648672e-18
5.5958347e-18
-5.5421017e-18
0
5.4321597e-18
0
2.6595822e-18
-5.2615831e-18
-2.6016913e-18
2.5722989e-18
-5.0852619e-18
-2.5127087e-18
4.9651064e-18
2.4521854e-18
2.6887171e-30
-2.3908962e-18
5.2399536e-30
-1.3238873e-33
-4.5957782e-18
0
2.2354064e-18
4.4081627e-18
2.1727264e-18
0
0
0
2.0473853e-18
-4.0323223e-18
-1.985017e-18
1.9539698e-18
1.9230365e-18
-1.8922334e-18
-1.8615764e-18
3.6621625e-18
0
-3.5412716e-18
-3.4814282e-18
0
0
3.3046292e-18
1.8021602e-30
1.5946451e-18
1.5662247e-18
-1.5380951e-18
1.5102668e-18
-1.4827494e-18
-2.9111045e-18
-1.4286842e-18
0
2.7519352e-18
1.4984707e-30
-1.3246607e-18
1.2995529e-18
1.2748169e-18
2.5009162e-18
-2.4529627e-18
-1.2028911e-18
3.3528847e-34
-1.1568859e-18
2.2689555e-18
-1.1124697e-18
1.0908641e-18
4.8542722e-47
-1.0488677e-18
2.0569592e-18
-2.0169991e-18
-1.9778557e-18
0
9.5100957e-19
1.8653242e-18
-5.0773982e-31
-8.9718589e-19
-8.8005435e-19
1.7266497e-18
1.6939907e-18
-8.3106353e-19
-1.6310537e-18
-1.6007653e-18
7.8562787e-19
1.5425187e-18
-7.5727364e-19
7.4366712e-19
-1.216135e-30
-7.1757665e-19
1.4101694e-18
-1.385912e-18
-7.5602665e-31
3.7179277e-30
-1.3174105e-18
1.2959694e-18
2.8313514e-30
-6.2755974e-19
1.2356911e-18
-6.0845692e-19
1.7035653e-34
-2.6227828e-30
-5.8219342e-19
1.1481118e-18
-1.2571771e-30
3.1002813e-31
-5.5142286e-19
1.5474321e-34
1.0755297e-18
-1.0626983e-18
-2.9854279e-34
2.306089e-30
-1.0273857e-18
1.0166409e-18
1.1172476e-30
-9.9662749e-19
4.9366899e-19
4.8925652e-19
4.8507146e-19
-4.8110904e-19
5.2994725e-31
9.476669e-19
0
0
-9.2894599e-19
-1.3123685e-34
9.1842975e-19
-4.5686741e-19
5.0465903e-31
-4.5271406e-19
-1.0011334e-30
8.9850607e-19
0
4.4644917e-19
-8.9056661e-19
-4.4426946e-19
9.8461671e-31
-4.4268162e-19
8.841993e-19
-4.4165384e-19
4.8982968e-31
8.8231291e-19
0
0
-4.4134612e-19
2.4514687e-31
-4.420577e-19
4.4257919e-19
1.3296211e-18
-1.3318149e-18
-4.4477019e-19
8.9139968e-19
-4.4672435e-19
-7.4569332e-31
-4.4904616e-19
2.5598737e-34
1.5045382e-30
-4.5316902e-19
9.0940737e-19
4.5631434e-19
0
4.5975366e-19
-4.6157772e-19
-4.6346874e-19
-4.6542508e-19
1.0378702e-30
-5.2111246e-31
5.2348729e-31
9.4771957e-19
-4.7610271e-19
-7.9656675e-31
9.6147092e-19
-6.8656988e-35
-4.8557794e-19
-9.7614276e-19
-9.8120983e-19
9.8635415e-19
5.5068362e-31
4.9844295e-19
5.0113468e-19
-1.0077233e-18
1.0132443e-18
5.0941537e-19
-1.536721e-18
-1.030191e-18