/*--------------------------------*- C++ -*----------------------------------*\
  =========                 |
  \\      /  F ield         | OpenFOAM: The Open Source CFD Toolbox
   \\    /   O peration     | Website:  https://openfoam.org
    \\  /    A nd           | Version:  7
     \\/     M anipulation  |
\*---------------------------------------------------------------------------*/
FoamFile
{
    version     2.0;
    format      ascii;
    class       volScalarField;
    location    "0.00198";
    object      mag(U);
}
// * * * * * * * * * * * * * * * * * * * * * * * * * * * * * * * * * * * * * //

dimensions      [0 1 -1 0 0 0 0];

internalField   nonuniform List<scalar> 
5000
(
57.737077
57.68755
57.663415
57.635562
57.608649
57.581363
57.554124
57.526713
57.499312
57.471805
57.444303
57.416737
57.389173
57.36157
57.333966
57.306341
57.278711
57.251074
57.223432
57.195791
57.168151
57.140517
57.112888
57.085267
57.057648
57.030036
57.002418
56.974801
56.947173
56.919542
56.891901
56.864255
56.836605
56.808953
56.781301
56.753652
56.726006
56.698364
56.670726
56.643093
56.615466
56.587843
56.560226
56.532614
56.505006
56.477405
56.449808
56.422216
56.39463
56.367049
56.339472
56.311902
56.284336
56.256776
56.229221
56.201672
56.174127
56.146589
56.119055
56.091527
56.064003
56.036485
56.008972
55.981465
55.953962
55.926465
55.898973
55.871487
55.844006
55.81653
55.789059
55.761594
55.734133
55.706679
55.679229
55.651785
55.624345
55.596912
55.569483
55.542059
55.51464
55.487227
55.459818
55.432415
55.405016
55.377623
55.350235
55.322853
55.295476
55.268104
55.240737
55.213376
55.186019
55.158668
55.131321
55.10398
55.076643
55.049312
55.021985
54.994663
54.967347
54.940036
54.912731
54.885431
54.858136
54.830847
54.803563
54.776285
54.749011
54.721742
54.694479
54.66722
54.639967
54.612718
54.585475
54.558237
54.531004
54.503776
54.476553
54.449335
54.422122
54.394913
54.36771
54.340512
54.313318
54.28613
54.258948
54.23177
54.204597
54.17743
54.150267
54.12311
54.095957
54.06881
54.041668
54.014531
53.987399
53.960273
53.933151
53.906034
53.878922
53.851816
53.824714
53.797618
53.770526
53.74344
53.716358
53.689282
53.66221
53.635143
53.608082
53.581025
53.553974
53.526928
53.499889
53.472855
53.445826
53.418804
53.391787
53.364776
53.337771
53.310772
53.283779
53.256791
53.22981
53.202834
53.175864
53.148899
53.121939
53.094984
53.068032
53.041084
53.014139
52.987196
52.960256
52.933318
52.906383
52.879451
52.85252
52.825592
52.798666
52.771741
52.744818
52.717896
52.690976
52.664059
52.637144
52.610231
52.583322
52.556417
52.529514
52.502616
52.47572
52.448829
52.421941
52.395057
52.368177
52.341302
52.314431
52.287564
52.260703
52.233846
52.206994
52.180147
52.153304
52.126466
52.099633
52.072804
52.04598
52.019161
51.992347
51.965538
51.938735
51.911936
51.885142
51.858353
51.831568
51.804788
51.778013
51.751242
51.724476
51.697715
51.670959
51.644208
51.617462
51.590721
51.563985
51.537254
51.510527
51.483805
51.457088
51.430376
51.403668
51.376965
51.350267
51.323573
51.296884
51.270201
51.243522
51.216848
51.190179
51.163514
51.136855
51.1102
51.08355
51.056904
51.030264
51.003628
50.976997
50.95037
50.923749
50.897132
50.87052
50.843913
50.81731
50.790713
50.76412
50.737532
50.710949
50.684371
50.657797
50.631228
50.604664
50.578104
50.55155
50.525
50.498454
50.471914
50.445378
50.418846
50.392319
50.365797
50.33928
50.312768
50.28626
50.259757
50.233259
50.206765
50.180276
50.153792
50.127313
50.100839
50.074369
50.047904
50.021444
49.994989
49.968539
49.942093
49.915652
49.889216
49.862786
49.83636
49.809939
49.783523
49.757111
49.730705
49.704304
49.677907
49.651515
49.625129
49.598747
49.57237
49.545997
49.519629
49.493265
49.466906
49.440551
49.4142
49.387854
49.361512
49.335173
49.308839
49.282508
49.25618
49.229856
49.203535
49.177218
49.150903
49.124591
49.098281
49.071974
49.04567
49.019369
48.99307
48.966775
48.940483
48.914194
48.887908
48.861624
48.835343
48.809064
48.782788
48.756515
48.730245
48.703979
48.677716
48.651456
48.625201
48.598948
48.5727
48.546455
48.520215
48.493978
48.467745
48.441517
48.415293
48.389072
48.362856
48.336644
48.310436
48.284233
48.258034
48.231839
48.205648
48.179462
48.15328
48.127103
48.100929
48.07476
48.048596
48.022435
47.99628
47.970128
47.943982
47.91784
47.891702
47.865569
47.83944
47.813316
47.787196
47.76108
47.734969
47.708862
47.682759
47.656661
47.630567
47.604478
47.578393
47.552312
47.526236
47.500164
47.474097
47.448034
47.421975
47.395921
47.369872
47.343826
47.317785
47.291749
47.265716
47.239688
47.213664
47.187645
47.16163
47.135619
47.109613
47.083611
47.057614
47.031621
47.005632
46.979647
46.953667
46.927692
46.90172
46.875753
46.84979
46.823831
46.797877
46.771926
46.74598
46.720039
46.694101
46.668168
46.642239
46.616314
46.590393
46.564477
46.538566
46.512658
46.486755
46.460856
46.434961
46.409071
46.383184
46.357302
46.331424
46.30555
46.27968
46.253815
46.227954
46.202097
46.176245
46.150397
46.124553
46.098713
46.072877
46.047045
46.021218
45.995395
45.969576
45.943761
45.91795
45.892144
45.866342
45.840545
45.814752
45.788963
45.763178
45.737398
45.711622
45.68585
45.660082
45.634319
45.608559
45.582804
45.557053
45.531307
45.505564
45.479826
45.454092
45.428362
45.402635
45.376913
45.351194
45.325479
45.299768
45.274061
45.248357
45.222657
45.19696
45.171267
45.145577
45.11989
45.094206
45.068525
45.042848
45.017173
44.991502
44.965833
44.940168
44.914505
44.888846
44.863189
44.837535
44.811884
44.786237
44.760592
44.73495
44.709312
44.683676
44.658044
44.632415
44.606789
44.581167
44.555549
44.529934
44.504324
44.478717
44.453114
44.427515
44.401921
44.376331
44.350745
44.325164
44.299587
44.274015
44.248448
44.222886
44.197329
44.171777
44.146231
44.12069
44.095155
44.069626
44.044102
44.018584
43.993073
43.967567
43.942068
43.916575
43.891089
43.86561
43.840137
43.814671
43.789212
43.76376
43.738315
43.712878
43.687448
43.662026
43.636612
43.611206
43.585808
43.560417
43.535036
43.509663
43.484298
43.458943
43.433596
43.408258
43.38293
43.357611
43.332302
43.307002
43.281712
43.256432
43.231163
43.205903
43.180654
43.155416
43.130188
43.104971
43.079765
43.054571
43.029388
43.004217
42.979057
42.95391
42.928774
42.903651
42.87854
42.853441
42.828355
42.803283
42.778223
42.753177
42.728144
42.703125
42.678119
42.653128
42.62815
42.603187
42.578237
42.553303
42.528382
42.503477
42.478586
42.453711
42.42885
42.404006
42.379176
42.354363
42.329566
42.304784
42.280019
42.25527
42.230537
42.205821
42.181121
42.156438
42.131771
42.107122
42.08249
42.057875
42.033277
42.008697
41.984134
41.959589
41.935062
41.910552
41.88606
41.861587
41.837131
41.812694
41.788276
41.763876
41.739495
41.715132
41.690788
41.666463
41.642157
41.61787
41.593602
41.569353
41.545124
41.520914
41.496723
41.472552
41.448401
41.424269
41.400157
41.376064
41.351992
41.327939
41.303906
41.279893
41.255899
41.231926
41.207973
41.18404
41.160126
41.136233
41.112359
41.088506
41.064672
41.040858
41.017063
40.993289
40.969534
40.945799
40.922083
40.898387
40.874711
40.851053
40.827415
40.803796
40.780196
40.756616
40.733054
40.70951
40.685985
40.662479
40.638991
40.615522
40.592071
40.568637
40.545222
40.521824
40.498444
40.475081
40.451736
40.428408
40.405098
40.381804
40.358527
40.335267
40.312024
40.288796
40.265585
40.24239
40.219211
40.196048
40.1729
40.149768
40.126651
40.10355
40.080463
40.057392
40.034335
40.011293
39.988265
39.965252
39.942253
39.919269
39.896298
39.873341
39.850398
39.827468
39.804551
39.781648
39.758757
39.73588
39.713016
39.690164
39.667324
39.644497
39.621682
39.598879
39.576088
39.553309
39.530541
39.507784
39.485039
39.462305
39.439582
39.41687
39.394168
39.371477
39.348796
39.326126
39.303465
39.280815
39.258174
39.235542
39.212921
39.190308
39.167705
39.14511
39.122525
39.099948
39.077379
39.054819
39.032267
39.009723
38.987187
38.964659
38.942138
38.919625
38.897119
38.87462
38.852127
38.829642
38.807164
38.784691
38.762226
38.739766
38.717312
38.694865
38.672422
38.649986
38.627555
38.605129
38.582709
38.560293
38.537882
38.515476
38.493074
38.470677
38.448285
38.425896
38.403511
38.38113
38.358753
38.336379
38.314009
38.291643
38.26928
38.246919
38.224562
38.202208
38.179856
38.157507
38.135161
38.112817
38.090475
38.068135
38.045797
38.023461
38.001126
37.978794
37.956463
37.934133
37.911804
37.889476
37.867149
37.844823
37.822497
37.800171
37.777846
37.75552
37.733195
37.710869
37.688542
37.666215
37.643887
37.621558
37.599227
37.576895
37.554561
37.532224
37.509886
37.487544
37.4652
37.442853
37.420503
37.398149
37.375791
37.353428
37.331062
37.30869
37.286314
37.263932
37.241545
37.219152
37.196752
37.174347
37.151934
37.129514
37.107088
37.084653
37.062211
37.03976
37.017301
36.994833
36.972356
36.949869
36.927373
36.904867
36.882351
36.859824
36.837286
36.814738
36.792178
36.769606
36.747022
36.724426
36.701818
36.679197
36.656564
36.633918
36.611258
36.588583
36.565894
36.543191
36.520476
36.497746
36.475003
36.452243
36.429465
36.406669
36.38386
36.361038
36.338203
36.315353
36.292486
36.269594
36.246677
36.223746
36.200809
36.177864
36.154902
36.131918
36.108904
36.085858
36.062791
36.039725
36.016659
35.993583
35.970476
35.947339
35.924169
35.900965
35.877749
35.854534
35.831316
35.808085
35.784827
35.761546
35.73823
35.714883
35.691518
35.668127
35.644722
35.621307
35.597871
35.574424
35.550958
35.527481
35.503997
35.480489
35.456954
35.433375
35.409754
35.386093
35.362406
35.338697
35.314976
35.291249
35.267516
35.243769
35.220001
35.196214
35.172406
35.148577
35.124736
35.100873
35.076987
35.053079
35.029146
35.005195
34.981231
34.957259
34.933272
34.909257
34.885217
34.861153
34.837065
34.81296
34.788844
34.764712
34.740561
34.716389
34.692199
34.667988
34.643753
34.619495
34.595211
34.570906
34.546588
34.522262
34.497934
34.473583
34.449197
34.424784
34.400351
34.375902
34.351451
34.326991
34.302506
34.277985
34.253447
34.228901
34.204354
34.179809
34.155263
34.130694
34.106084
34.081462
34.056827
34.032188
34.007549
33.982904
33.958236
33.93354
33.908833
33.884106
33.859367
33.834621
33.809861
33.785097
33.760323
33.735547
33.710766
33.685968
33.661146
33.636309
33.61146
33.586605
33.561747
33.536888
33.512026
33.48715
33.462253
33.437343
33.41242
33.387495
33.362571
33.33765
33.312733
33.287816
33.262884
33.237927
33.21296
33.187984
33.163009
33.138039
33.113074
33.088113
33.063153
33.038188
33.013209
32.988217
32.963201
32.93817
32.913129
32.888088
32.863052
32.838026
32.813007
32.787994
32.762982
32.737965
32.712938
32.687901
32.662847
32.637789
32.612732
32.587681
32.562641
32.537609
32.512581
32.487541
32.462469
32.437389
32.412309
32.387238
32.362183
32.337145
32.312119
32.287096
32.262064
32.237011
32.211944
32.186859
32.161778
32.136707
32.111654
32.086619
32.061597
32.036579
32.011547
31.986494
31.961436
31.936361
31.911287
31.886219
31.861164
31.836126
31.811106
31.786095
31.761084
31.736042
31.710982
31.685924
31.660874
31.635843
31.610832
31.585837
31.560848
31.535849
31.510825
31.48579
31.460742
31.4357
31.410668
31.385654
31.360656
31.335669
31.310685
31.285693
31.260692
31.235691
31.210687
31.185684
31.160679
31.135672
31.110667
31.08567
31.060686
31.035716
31.010756
30.985798
30.960825
30.935841
30.91086
30.885887
30.860927
30.83598
30.811042
30.786105
30.761151
30.73618
30.711207
30.686239
30.661286
30.636353
30.611437
30.586531
30.561623
30.536693
30.51176
30.486823
30.461884
30.436947
30.412004
30.387057
30.362113
30.337177
30.312258
30.287358
30.262476
30.237604
30.212735
30.18785
30.162951
30.138047
30.113149
30.088263
30.063397
30.038546
30.013704
29.988855
29.96398
29.939106
29.914228
29.889352
29.864476
29.839595
29.814707
29.789824
29.764953
29.7401
29.715267
29.690447
29.665632
29.640808
29.615977
29.591146
29.566314
29.541483
29.516654
29.491833
29.467023
29.442227
29.417445
29.392668
29.36788
29.343055
29.318214
29.29336
29.268514
29.243683
29.218877
29.194099
29.169342
29.144597
29.119853
29.095088
29.070308
29.045509
29.020702
28.995894
28.97109
28.946297
28.921518
28.896756
28.872008
28.847271
28.822541
28.797815
28.773093
28.748375
28.723663
28.698955
28.67425
28.649542
28.624826
28.600111
28.575397
28.550686
28.52598
28.50128
28.476586
28.451897
28.427212
28.402529
28.377845
28.353158
28.328471
28.303786
28.279107
28.254433
28.229763
28.205094
28.180421
28.15575
28.131085
28.10643
28.081786
28.057148
28.032506
28.007843
27.983183
27.95853
27.933894
27.909274
27.884663
27.86005
27.835406
27.810759
27.786118
27.761489
27.736877
27.712277
27.687682
27.663082
27.638472
27.613864
27.589258
27.564653
27.540042
27.515412
27.490783
27.46616
27.441555
27.416973
27.392411
27.36786
27.34331
27.318742
27.294176
27.269612
27.245052
27.220496
27.195924
27.171329
27.146737
27.122155
27.097594
27.073057
27.048536
27.02402
26.999491
26.974952
26.950419
26.925892
26.901368
26.876841
26.852281
26.827715
26.803158
26.77862
26.754108
26.72962
26.705142
26.680663
26.656162
26.631664
26.607166
26.582672
26.558177
26.533661
26.509128
26.484601
26.460087
26.435598
26.411136
26.386694
26.36226
26.337812
26.313338
26.288866
26.264394
26.239928
26.215464
26.190991
26.16649
26.141995
26.117515
26.093069
26.068661
26.044279
26.0199
25.995462
25.970986
25.946514
25.922054
25.89762
25.873211
25.848813
25.82441
25.799963
25.775514
25.75107
25.726644
25.702241
25.677858
25.65348
25.629074
25.604641
25.580214
25.5558
25.531408
25.507035
25.482671
25.458291
25.433879
25.409472
25.385075
25.360699
25.336347
25.312009
25.287674
25.263304
25.238911
25.214519
25.190136
25.165774
25.141431
25.117099
25.09276
25.068383
25.04401
25.019646
24.995303
24.970982
24.946673
24.922364
24.898016
24.873658
24.849304
24.824967
24.800654
24.776365
24.752086
24.727789
24.703444
24.679102
24.654768
24.630452
24.606155
24.581866
24.557571
24.533254
24.508943
24.48464
24.460353
24.436078
24.41181
24.38754
24.363256
24.338973
24.314691
24.290412
24.266135
24.241859
24.217586
24.193316
24.169051
24.144789
24.12053
24.096272
24.072015
24.047762
24.023512
23.999264
23.975018
23.950775
23.926536
23.902303
23.878075
23.853847
23.829614
23.805383
23.781158
23.756942
23.732729
23.708512
23.684287
23.660069
23.635861
23.611663
23.58747
23.563267
23.539056
23.514853
23.490659
23.466474
23.442291
23.418105
23.393919
23.369737
23.34556
23.321385
23.29721
23.273037
23.248865
23.224695
23.200528
23.176363
23.1522
23.12804
23.103885
23.079736
23.055591
23.031449
23.007309
22.983172
22.959038
22.934908
22.910784
22.886664
22.862547
22.838432
22.814315
22.790198
22.766081
22.741966
22.717853
22.693743
22.669637
22.645535
22.621437
22.597341
22.573247
22.549155
22.525065
22.500978
22.476893
22.45281
22.428728
22.404647
22.380569
22.356494
22.332421
22.30835
22.284282
22.260215
22.236149
22.212084
22.188022
22.163962
22.139906
22.115853
22.091803
22.067753
22.043703
22.019653
21.995604
21.971557
21.947513
21.923471
21.899431
21.875391
21.851353
21.827317
21.803283
21.779253
21.755226
21.731203
21.707185
21.68317
21.659159
21.635151
21.611145
21.587141
21.563138
21.539137
21.515137
21.491139
21.467141
21.443145
21.41915
21.395157
21.371165
21.347175
21.323185
21.299197
21.275211
21.251227
21.227246
21.203265
21.179283
21.155303
21.131325
21.107352
21.083381
21.05941
21.035434
21.011459
20.987488
20.963523
20.939564
20.915605
20.891635
20.86766
20.84369
20.819728
20.795777
20.771831
20.747882
20.723911
20.699938
20.675967
20.652002
20.628041
20.604083
20.580125
20.55617
20.53222
20.50828
20.484346
20.460415
20.436476
20.412518
20.388557
20.364584
20.340609
20.316637
20.292673
20.26872
20.244774
20.22083
20.196879
20.172915
20.148952
20.124992
20.101039
20.077089
20.05314
20.029177
20.005195
19.98121
19.95722
19.933231
19.909242
19.885252
19.861264
19.837278
19.813295
19.789313
19.765332
19.741338
19.717327
19.693315
19.669304
19.645295
19.621288
19.597279
19.573253
19.549207
19.525155
19.501092
19.477028
19.452962
19.428896
19.404827
19.380755
19.356677
19.33259
19.308494
19.284389
19.260274
19.236151
19.212019
19.187877
19.163724
19.139559
19.115381
19.091191
19.066989
19.042774
19.018548
18.994312
18.970065
18.945808
18.921539
18.897253
18.872948
18.848626
18.824291
18.79994
18.775576
18.751196
18.726795
18.702371
18.677925
18.653458
18.628972
18.604468
18.579944
18.5554
18.530836
18.50625
18.48164
18.457006
18.432346
18.407661
18.382949
18.358211
18.333445
18.308651
18.283828
18.258976
18.234093
18.209179
18.184234
18.159257
18.134246
18.109202
18.084122
18.059008
18.033857
18.008669
17.983444
17.95818
17.932877
17.907534
17.88215
17.856723
17.831253
17.805742
17.780188
17.754591
17.728948
17.703257
17.677519
17.651735
17.625905
17.600023
17.574083
17.548089
17.522047
17.49596
17.469829
17.443639
17.417377
17.391055
17.364681
17.338255
17.311785
17.285267
17.258693
17.23205
17.205339
17.178561
17.151714
17.124806
17.097832
17.070787
17.043672
17.01649
16.989247
16.961946
16.934579
16.907125
16.879589
16.851984
16.824312
16.796581
16.768794
16.740929
16.712975
16.684936
16.656817
16.628612
16.600333
16.571971
16.543525
16.515002
16.486398
16.457721
16.428965
16.400124
16.371194
16.342181
16.313082
16.283899
16.254637
16.225295
16.195867
16.166343
16.136724
16.107016
16.077216
16.047328
16.017356
15.987299
15.957155
15.926914
15.896576
15.866143
15.835617
15.804998
15.774291
15.743495
15.712611
15.681628
15.650546
15.619368
15.588093
15.556723
15.525261
15.493709
15.462066
15.430325
15.398484
15.366545
15.334508
15.302374
15.270146
15.237827
15.205415
15.172907
15.140299
15.107593
15.074789
15.041887
15.00889
14.9758
14.942619
14.909345
14.875971
14.8425
14.808932
14.775266
14.741504
14.707652
14.673709
14.639675
14.605545
14.571319
14.536999
14.502581
14.468069
14.433467
14.398777
14.364
14.329131
14.294167
14.259114
14.223965
14.188722
14.153392
14.117977
14.082479
14.046896
14.01122
13.975458
13.939605
13.903658
13.867627
13.831517
13.795328
13.759059
13.722702
13.686262
13.649737
13.61312
13.576422
13.539649
13.502803
13.465884
13.428882
13.391801
13.354641
13.317391
13.280062
13.242665
13.205202
13.167672
13.130065
13.092381
13.054627
13.016786
12.978867
12.940886
12.902847
12.864748
12.826579
12.788336
12.750031
12.711643
12.673176
12.634654
12.596083
12.557461
12.518775
12.480017
12.441206
12.402316
12.363346
12.324328
12.28527
12.246169
12.207014
12.167785
12.128513
12.089169
12.049741
12.01027
11.970772
11.931238
11.891659
11.852007
11.812318
11.772568
11.732727
11.692847
11.652951
11.613029
11.573076
11.533046
11.492985
11.452873
11.412665
11.372416
11.332166
11.291903
11.251623
11.211262
11.170864
11.130432
11.089907
11.049337
11.008774
10.968206
10.927633
10.88698
10.84629
10.805578
10.764783
10.723937
10.6831
10.64227
10.601441
10.560539
10.519595
10.47864
10.43762
10.396535
10.35546
10.3144
10.273351
10.232262
10.19111
10.149916
10.108658
10.067402
10.026174
9.9849623
9.9437023
9.9023774
9.861039
9.8197022
9.7783054
9.7368675
9.6954315
9.654025
9.6126368
9.5712184
9.5297363
9.4882265
9.4466974
9.4051331
9.3635898
9.3220535
9.2804945
9.2389182
9.1973118
9.1557055
9.1140636
9.0724203
9.0307618
8.9891058
8.9474563
8.9057829
8.8641012
8.8224016
8.7806476
8.7388859
8.6971608
8.6554655
8.6137761
8.5720117
8.5302258
8.4884286
8.446599
8.404801
8.363023
8.3212503
8.279438
8.2376058
8.1957792
8.1539228
8.1120742
8.0702277
8.02838
7.9865413
7.9446865
7.9028279
7.8609618
7.8190681
7.7771406
7.7352559
7.6934144
7.6515898
7.6097012
7.5677832
7.5258639
7.4839036
7.4419792
7.4000983
7.3582386
7.3163334
7.2743898
7.2324599
7.1905141
7.1485724
7.1066409
7.0647163
7.0227975
6.9808661
6.938937
6.8969976
6.8550517
6.8130675
6.7711123
6.7292046
6.6873243
6.6454076
6.6034313
6.5614705
6.5194681
6.4774898
6.435562
6.393667
6.3517545
6.3097651
6.2677986
6.2258226
6.1838478
6.1418872
6.0999367
6.0579913
6.0160432
5.9740894
5.9321283
5.8901655
5.848177
5.8061901
5.7642545
5.7223566
5.6804512
5.6384504
5.5964717
5.5544824
5.5124932
5.4705329
5.4285991
5.3866701
5.344693
5.3027232
5.2607562
5.2187869
5.1768064
5.1348146
5.0928659
5.0509614
5.0090656
4.9670665
4.9250725
4.8830909
4.8411166
4.7991402
4.7571633
4.7152075
4.6732838
4.631371
4.5893909
4.5473949
4.5054148
4.46344
4.4214725
4.3795112
4.3375408
4.295567
4.2536106
4.2116886
4.169784
4.1278232
4.0858158
4.0438322
4.0018531
3.9598796
3.9179103
3.8759424
3.8339775
3.7920115
3.7500473
3.7080842
3.6661228
3.6241509
3.5821835
3.5402357
3.4983032
3.4563593
3.4143782
3.3724092
3.3304161
3.2884344
3.2464807
3.2045478
3.1626012
3.1206042
3.0786319
3.0366667
2.9947087
2.9527501
2.9107717
2.868816
2.8268758
2.7849095
2.742906
2.7009601
2.6590642
2.6171659
2.5751441
2.5331596
2.4911877
2.4492091
2.4072351
2.3653029
2.3234159
2.2815085
2.239459
2.1974731
2.155512
2.1135461
2.0715919
2.029679
1.9877807
1.945833
1.9038867
1.8618613
1.8199066
1.7779982
1.7360018
1.6940326
1.6521327
1.6102454
1.5682071
1.5262425
1.4843266
1.4423554
1.4003766
1.3584219
1.316526
1.2746745
1.2326561
1.1906592
1.1487538
1.1068952
1.0649347
1.022977
0.98104643
0.93914077
0.89720738
0.85521319
0.81332512
0.77136515
0.7293908
0.68747022
0.64555299
0.60367572
0.56172594
0.51980814
0.47787921
0.43591171
0.39400049
0.35208132
0.31015318
0.26823074
0.22630174
0.18435949
0.14244088
0.10051443
0.058598936
0.016613688
0.025403737
0.067364418
0.10930596
0.15124051
0.19317093
0.23509837
0.27702345
0.31894666
0.36086848
0.40278931
0.44470935
0.48662843
0.52854623
0.57046238
0.61237675
0.65428942
0.69620066
0.73811075
0.78001991
0.8219283
0.86383601
0.90574309
0.9476496
0.98955562
1.0314612
1.0733664
1.1152711
1.1571752
1.1990788
1.2409816
1.2828837
1.3247851
1.3666858
1.4085859
1.4504855
1.4923846
1.5342833
1.5761816
1.6180796
1.6599775
1.7018753
1.743773
1.7856706
1.827568
1.8694653
1.9113624
1.9532593
1.9951562
2.037053
2.0789497
2.1208464
2.1627431
2.2046397
2.2465365
2.2884334
2.3303305
2.3722279
2.4141256
2.4560236
2.4979219
2.5398206
2.5817196
2.6236189
2.6655186
2.7074188
2.7493193
2.7912204
2.8331218
2.8750237
2.9169261
2.9588291
3.0007327
3.0426369
3.0845419
3.1264475
3.1683538
3.2102608
3.2521685
3.2940769
3.3359861
3.3778962
3.419807
3.4617187
3.5036311
3.5455444
3.5874585
3.6293735
3.6712894
3.7132061
3.7551238
3.7970424
3.838962
3.8808826
3.9228041
3.9647266
4.0066499
4.048574
4.0904992
4.1324253
4.1743525
4.2162806
4.2582097
4.3001398
4.3420707
4.3840026
4.4259354
4.4678693
4.5098041
4.55174
4.5936769
4.6356147
4.6775535
4.7194933
4.761434
4.8033756
4.8453183
4.8872619
4.9292064
4.971152
5.0130984
5.0550457
5.096994
5.1389431
5.1808931
5.2228441
5.2647958
5.3067484
5.3487019
5.3906561
5.4326112
5.4745671
5.5165237
5.5584812
5.6004393
5.6423982
5.6843578
5.7263181
5.7682792
5.8102409
5.8522033
5.8941664
5.93613
5.9780943
6.0200592
6.0620247
6.1039909
6.1459576
6.1879248
6.2298925
6.2718608
6.3138296
6.3557989
6.3977688
6.4397391
6.4817098
6.5236809
6.5656524
6.6076243
6.6495967
6.6915695
6.7335427
6.7755161
6.8174899
6.8594639
6.9014383
6.943413
6.9853881
7.0273634
7.0693389
7.1113146
7.1532905
7.1952667
7.2372431
7.2792198
7.3211967
7.3631737
7.4051509
7.4471281
7.4891056
7.5310832
7.573061
7.6150389
7.6570169
7.6989949
7.7409731
7.7829513
7.8249295
7.8669079
7.9088863
7.9508646
7.992843
8.0348215
8.0767999
8.1187783
8.1607567
8.202735
8.2447133
8.2866915
8.3286697
8.3706478
8.412626
8.454604
8.4965819
8.5385597
8.5805375
8.6225151
8.6644927
8.7064702
8.7484476
8.7904248
8.8324019
8.8743788
8.9163557
8.9583324
9.0003089
9.0422853
9.0842615
9.1262375
9.1682133
9.2101889
9.2521643
9.2941396
9.3361145
9.3780893
9.4200638
9.462038
9.504012
9.5459858
9.5879594
9.6299326
9.6719056
9.7138782
9.7558506
9.7978228
9.8397946
9.8817662
9.9237374
9.9657083
10.007679
10.049649
10.091619
10.133589
10.175558
10.217527
10.259495
10.301464
10.343431
10.385399
10.427366
10.469332
10.511299
10.553264
10.59523
10.637194
10.679159
10.721123
10.763086
10.805049
10.847012
10.888974
10.930935
10.972896
11.014857
11.056817
11.098776
11.140735
11.182693
11.224651
11.266608
11.308564
11.35052
11.392475
11.43443
11.476383
11.518337
11.56029
11.602242
11.644193
11.686144
11.728094
11.770044
11.811993
11.853942
11.89589
11.937837
11.979784
12.02173
12.063676
12.105622
12.147567
12.189511
12.231455
12.273399
12.315343
12.357286
12.399228
12.441171
12.483113
12.525055
12.566996
12.608938
12.650878
12.692819
12.734759
12.776699
12.818639
12.860578
12.902517
12.944455
12.986393
13.028331
13.070268
13.112204
13.154139
13.196074
13.238008
13.279941
13.321874
13.363805
13.405735
13.447665
13.489593
13.53152
13.573446
13.615371
13.657294
13.699217
13.741138
13.783057
13.824976
13.866893
13.908809
13.950724
13.992637
14.034549
14.07646
14.11837
14.160279
14.202187
14.244094
14.285999
14.327904
14.369808
14.411711
14.453614
14.495516
14.537417
14.579317
14.621217
14.663116
14.705014
14.746913
14.788809
14.830705
14.872599
14.914491
14.956384
14.998279
15.040177
15.082078
15.123978
15.16587
15.207761
15.249653
15.291546
15.333439
15.375331
15.417223
15.459116
15.501008
15.542902
15.584795
15.626687
15.668578
15.710469
15.752359
15.794249
15.836137
15.878022
15.919907
15.961792
16.003677
16.045563
16.087449
16.129332
16.171214
16.213095
16.254977
16.296858
16.338739
16.380618
16.422497
16.464375
16.506252
16.548129
16.590005
16.631881
16.673755
16.715629
16.757503
16.799375
16.841248
16.883119
16.92499
16.96686
17.008729
17.050598
17.092467
17.134334
17.176201
17.218068
17.259934
17.301799
17.343664
17.385528
17.427392
17.469255
17.511118
17.55298
17.594841
17.636702
17.678563
17.720423
17.762283
17.804142
17.846001
17.887859
17.929717
17.971574
18.013431
18.055288
18.097144
18.139
18.180856
18.222711
18.264566
18.30642
18.348274
18.390128
18.431982
18.473835
18.515688
18.557541
18.599393
18.641245
18.683097
18.724948
18.7668
18.808651
18.850501
18.892352
18.934202
18.976052
19.017902
19.059751
19.1016
19.143449
19.185298
19.227146
19.268995
19.310843
19.352691
19.394538
19.436386
19.478233
19.52008
19.561927
19.603774
19.64562
19.687467
19.729313
19.771159
19.813005
19.854851
19.896697
19.938543
19.980388
20.022234
20.064079
20.105924
20.147769
20.189613
20.231458
20.273301
20.315144
20.356985
20.398825
20.440662
20.482497
20.524329
20.566157
20.607979
20.649798
20.691612
20.733423
20.775236
20.817054
20.858883
20.900726
20.94259
20.984477
21.026387
21.068314
21.110252
21.152181
21.194107
21.235982
21.277817
21.319599
21.361353
21.403117
21.44491
21.486748
21.528632
21.570547
21.612476
21.654382
21.696258
21.738048
21.779822
21.821616
21.86345
21.905328
21.947233
21.989148
22.031028
22.072833
22.114638
22.156463
22.198319
22.2402
22.282091
22.323965
22.365798
22.407631
22.449476
22.491336
22.533206
22.57508
22.616936
22.658786
22.700638
22.742497
22.78436
22.826225
22.868088
22.909947
22.951807
22.993668
23.035532
23.077397
23.119262
23.161126
23.202991
23.244856
23.286722
23.328589
23.370456
23.412324
23.454192
23.496061
23.53793
23.5798
23.621671
23.663542
23.705413
23.747283
23.789154
23.831024
23.872892
23.91476
23.956622
23.998485
24.040337
24.08219
24.124027
24.165861
24.207679
24.249489
24.291284
24.33307
24.374843
24.416607
24.458361
24.500104
24.541836
24.583553
24.625255
24.666937
24.708604
24.750257
24.79191
24.833571
24.875246
24.91694
24.958653
25.000382
25.042118
25.083858
25.125593
25.167317
25.20903
25.250744
25.292463
25.334193
25.375936
25.417691
25.459458
25.501235
25.543023
25.584823
25.626637
25.668464
25.710301
25.752143
25.793987
25.835829
25.87767
25.919513
25.961362
26.003223
26.045098
26.086987
26.128887
26.170794
26.2127
26.254597
26.29648
26.338348
26.380201
26.422047
26.463896
26.505759
26.547644
26.589554
26.631488
26.673436
26.715383
26.757314
26.799216
26.84108
26.882909
26.924714
26.966517
27.008344
27.050221
27.092158
27.134145
27.176161
27.21818
27.260184
27.302171
27.34415
27.386153
27.428321
27.47163
27.516556
27.555923
27.594407
27.637402
27.680959
27.723139
27.765605
27.808341
27.850913
27.893394
27.935878
27.978333
28.020755
28.063154
28.105525
28.147862
28.190155
28.2324
28.274594
28.316741
28.358847
28.40092
28.442972
28.48501
28.527043
28.569075
28.611107
28.653139
28.69517
28.737197
28.779219
28.821235
28.863246
28.905253
28.947257
28.989262
29.031268
29.073279
29.11529
29.157299
29.199312
29.241345
29.283378
29.325396
29.367417
29.40944
29.451464
29.493488
29.535513
29.577541
29.61957
29.661601
29.703635
29.74567
29.787707
29.829745
29.871784
29.913824
29.955865
29.997907
30.039951
30.081996
30.124043
30.166091
30.208141
30.250192
30.292245
30.334299
30.376354
30.418411
30.460468
30.502527
30.544588
30.58665
30.628713
30.670778
30.712844
30.754911
30.79698
30.83905
30.881122
30.923195
30.965269
31.007345
31.049422
31.0915
31.13358
31.175661
31.217744
31.259827
31.301913
31.343999
31.386087
31.428176
31.470267
31.512359
31.554452
31.596547
31.638642
31.68074
31.722838
31.764938
31.807039
31.849142
31.891246
31.933351
31.975457
32.017565
32.059674
32.101784
32.143896
32.186009
32.228123
32.270238
32.312355
32.354473
32.396593
32.438713
32.480835
32.522959
32.565083
32.607209
32.649335
32.691463
32.733593
32.775723
32.817855
32.859988
32.902123
32.944258
32.986395
33.028533
33.070672
33.112812
33.154954
33.197097
33.239241
33.281386
33.323532
33.365679
33.407828
33.449978
33.492129
33.534281
33.576434
33.618589
33.660744
33.702901
33.745059
33.787218
33.829378
33.871539
33.913701
33.955865
33.998029
34.040194
34.082361
34.124529
34.166698
34.208868
34.251038
34.29321
34.335383
34.377557
34.419732
34.461908
34.504086
34.546264
34.588443
34.630623
34.672804
34.714986
34.757169
34.799353
34.841538
34.883723
34.92591
34.968098
35.010286
35.052476
35.094666
35.136858
35.17905
35.221243
35.263437
35.305631
35.347827
35.390023
35.43222
35.474418
35.516617
35.558817
35.601017
35.643218
35.685419
35.727622
35.769825
35.812029
35.854233
35.896438
35.938644
35.98085
36.023057
36.065264
36.107472
36.149681
36.19189
36.2341
36.27631
36.31852
36.360731
36.402942
36.445154
36.487366
36.529579
36.571792
36.614005
36.656218
36.698432
36.740646
36.78286
36.825075
36.867289
36.909504
36.951719
36.993934
37.036149
37.078364
37.12058
37.162795
37.20501
37.247226