/*--------------------------------*- C++ -*----------------------------------*\
  =========                 |
  \\      /  F ield         | OpenFOAM: The Open Source CFD Toolbox
   \\    /   O peration     | Website:  https://openfoam.org
    \\  /    A nd           | Version:  7
     \\/     M anipulation  |
\*---------------------------------------------------------------------------*/
FoamFile
{
    version     2.0;
    format      ascii;
    class       volScalarField;
    location    "0.00198";
    object      rho;
}
// * * * * * * * * * * * * * * * * * * * * * * * * * * * * * * * * * * * * * //

dimensions      [1 -3 0 0 0 0 0];

internalField   nonuniform List<scalar> 
5000
(
1.0468556
1.0469198
1.0470192
1.0470985
1.047198
1.0472778
1.0473774
1.0474572
1.0475569
1.0476368
1.0477365
1.0478164
1.0479161
1.047996
1.0480958
1.0481756
1.0482754
1.0483552
1.048455
1.0485347
1.0486345
1.0487142
1.0488139
1.0488936
1.0489933
1.0490729
1.0491726
1.0492522
1.049352
1.0494316
1.0495314
1.0496111
1.049711
1.0497907
1.0498906
1.0499703
1.0500702
1.0501499
1.0502498
1.0503294
1.0504293
1.0505089
1.0506088
1.0506883
1.0507882
1.0508678
1.0509676
1.0510471
1.051147
1.0512264
1.0513263
1.0514057
1.0515056
1.051585
1.0516848
1.0517642
1.051864
1.0519433
1.0520431
1.0521224
1.0522222
1.0523015
1.0524013
1.0524805
1.0525803
1.0526595
1.0527592
1.0528384
1.0529382
1.0530172
1.0531171
1.0531961
1.0532959
1.053375
1.0534746
1.0535537
1.0536535
1.0537322
1.0538323
1.0539109
1.0540108
1.0540898
1.0541892
1.0542685
1.0543678
1.0544468
1.0545467
1.0546249
1.0547254
1.0548034
1.0549035
1.0549825
1.0550808
1.0551622
1.0552577
1.0553419
1.0554347
1.0555214
1.0556119
1.0557004
1.0557896
1.0558791
1.0559675
1.0560573
1.0561456
1.0562354
1.0563237
1.0564135
1.0565018
1.0565914
1.0566798
1.0567694
1.0568578
1.0569473
1.0570357
1.0571252
1.0572136
1.057303
1.0573915
1.0574808
1.0575692
1.0576586
1.057747
1.0578363
1.0579247
1.058014
1.0581024
1.0581917
1.05828
1.0583693
1.0584575
1.0585468
1.0586351
1.0587243
1.0588126
1.0589018
1.05899
1.0590792
1.0591674
1.0592566
1.0593448
1.059434
1.0595221
1.0596113
1.0596994
1.0597885
1.0598767
1.0599656
1.0600539
1.0601428
1.0602312
1.0603198
1.0604083
1.0604969
1.0605854
1.0606739
1.0607625
1.0608508
1.0609394
1.0610277
1.0611164
1.0612046
1.0612932
1.0613814
1.06147
1.0615582
1.0616467
1.0617349
1.0618234
1.0619116
1.0620001
1.0620882
1.0621768
1.0622649
1.0623534
1.0624415
1.06253
1.0626181
1.0627066
1.0627947
1.0628832
1.0629713
1.0630598
1.0631479
1.0632364
1.0633245
1.063413
1.0635011
1.0635896
1.0636777
1.0637662
1.0638543
1.0639428
1.0640308
1.0641193
1.0642074
1.0642958
1.0643838
1.0644723
1.0645603
1.0646487
1.0647367
1.0648251
1.0649131
1.0650014
1.0650894
1.0651777
1.0652657
1.065354
1.0654419
1.0655302
1.0656181
1.0657064
1.0657943
1.0658826
1.0659704
1.0660587
1.0661465
1.0662347
1.0663226
1.0664108
1.0664986
1.0665868
1.0666745
1.0667627
1.0668505
1.0669386
1.0670264
1.0671145
1.0672022
1.0672903
1.067378
1.0674661
1.0675538
1.0676418
1.0677295
1.0678176
1.0679052
1.0679932
1.0680808
1.0681688
1.0682564
1.0683444
1.068432
1.06852
1.0686075
1.0686955
1.068783
1.0688709
1.0689585
1.0690464
1.0691339
1.0692218
1.0693092
1.0693971
1.0694846
1.0695724
1.0696599
1.0697477
1.0698351
1.0699229
1.0700103
1.0700981
1.0701855
1.0702732
1.0703606
1.0704484
1.0705357
1.0706234
1.0707107
1.0707985
1.0708857
1.0709734
1.0710607
1.0711484
1.0712356
1.0713233
1.0714105
1.0714982
1.0715854
1.071673
1.0717602
1.0718478
1.071935
1.0720226
1.0721097
1.0721973
1.0722844
1.0723719
1.072459
1.0725466
1.0726336
1.0727211
1.0728082
1.0728957
1.0729827
1.0730702
1.0731572
1.0732447
1.0733316
1.0734191
1.073506
1.0735934
1.0736804
1.0737678
1.0738547
1.0739421
1.074029
1.0741164
1.0742032
1.0742906
1.0743775
1.0744648
1.0745517
1.074639
1.0747259
1.0748131
1.0749
1.0749872
1.0750742
1.0751614
1.0752483
1.0753355
1.0754225
1.0755096
1.0755966
1.0756836
1.0757707
1.0758577
1.0759447
1.0760318
1.0761188
1.0762058
1.0762928
1.0763798
1.0764668
1.0765538
1.0766408
1.0767278
1.0768148
1.0769018
1.0769887
1.0770757
1.0771626
1.0772496
1.0773365
1.0774234
1.0775103
1.0775973
1.0776842
1.077771
1.0778579
1.0779448
1.0780317
1.0781185
1.0782054
1.0782922
1.078379
1.0784659
1.0785527
1.0786395
1.0787263
1.0788131
1.0788998
1.0789866
1.0790734
1.0791601
1.0792469
1.0793336
1.0794203
1.079507
1.0795937
1.0796804
1.0797671
1.0798538
1.0799404
1.0800271
1.0801137
1.0802004
1.080287
1.0803736
1.0804602
1.0805469
1.0806334
1.08072
1.0808066
1.0808932
1.0809797
1.0810663
1.0811528
1.0812394
1.0813259
1.0814124
1.0814989
1.0815854
1.0816719
1.0817584
1.0818448
1.0819313
1.0820177
1.0821042
1.0821906
1.082277
1.0823635
1.0824499
1.0825363
1.0826227
1.082709
1.0827954
1.0828818
1.0829681
1.0830545
1.0831408
1.0832271
1.0833135
1.0833998
1.0834861
1.0835724
1.0836587
1.0837449
1.0838312
1.0839175
1.0840037
1.08409
1.0841762
1.0842624
1.0843486
1.0844348
1.084521
1.0846072
1.0846934
1.0847796
1.0848657
1.0849519
1.0850381
1.0851242
1.0852103
1.0852964
1.0853826
1.0854687
1.0855548
1.0856408
1.0857269
1.085813
1.085899
1.0859851
1.0860711
1.0861572
1.0862432
1.0863292
1.0864152
1.0865012
1.0865872
1.0866732
1.0867592
1.0868451
1.0869311
1.087017
1.087103
1.0871889
1.0872748
1.0873607
1.0874466
1.0875325
1.0876184
1.0877043
1.0877902
1.087876
1.0879619
1.0880478
1.0881336
1.0882195
1.0883053
1.0883911
1.088477
1.0885628
1.0886486
1.0887344
1.0888202
1.0889061
1.0889919
1.0890777
1.0891634
1.0892492
1.089335
1.0894208
1.0895066
1.0895924
1.0896781
1.0897639
1.0898496
1.0899354
1.0900211
1.0901069
1.0901926
1.0902783
1.090364
1.0904497
1.0905355
1.0906211
1.0907068
1.0907925
1.0908782
1.0909638
1.0910495
1.0911351
1.0912207
1.0913063
1.0913919
1.0914775
1.0915631
1.0916487
1.0917342
1.0918198
1.0919053
1.0919908
1.0920763
1.0921618
1.0922472
1.0923327
1.0924181
1.0925035
1.0925889
1.0926743
1.0927596
1.092845
1.0929303
1.0930156
1.0931009
1.0931861
1.0932714
1.0933566
1.0934418
1.093527
1.0936121
1.0936972
1.0937823
1.0938674
1.0939525
1.0940375
1.0941225
1.0942075
1.0942924
1.0943774
1.0944623
1.0945471
1.094632
1.0947168
1.0948016
1.0948863
1.094971
1.0950557
1.0951404
1.095225
1.0953096
1.0953941
1.0954786
1.0955631
1.0956476
1.095732
1.0958164
1.0959007
1.095985
1.0960693
1.0961535
1.0962377
1.0963219
1.096406
1.09649
1.096574
1.096658
1.096742
1.0968259
1.0969097
1.0969935
1.0970773
1.097161
1.0972447
1.0973283
1.0974119
1.0974954
1.0975789
1.0976623
1.0977457
1.0978291
1.0979124
1.0979956
1.0980788
1.0981619
1.098245
1.0983281
1.098411
1.098494
1.0985769
1.0986597
1.0987425
1.0988252
1.0989078
1.0989904
1.099073
1.0991555
1.0992379
1.0993203
1.0994027
1.0994849
1.0995671
1.0996493
1.0997314
1.0998134
1.0998954
1.0999773
1.1000592
1.100141
1.1002227
1.1003044
1.1003861
1.1004676
1.1005491
1.1006306
1.1007119
1.1007933
1.1008745
1.1009557
1.1010368
1.1011179
1.1011989
1.1012798
1.1013607
1.1014415
1.1015223
1.101603
1.1016836
1.1017642
1.1018447
1.1019252
1.1020055
1.1020859
1.1021661
1.1022463
1.1023264
1.1024065
1.1024865
1.1025665
1.1026464
1.1027262
1.102806
1.1028857
1.1029653
1.1030449
1.1031245
1.1032039
1.1032833
1.1033627
1.103442
1.1035213
1.1036004
1.1036796
1.1037587
1.1038377
1.1039166
1.1039956
1.1040744
1.1041532
1.104232
1.1043107
1.1043893
1.1044679
1.1045465
1.104625
1.1047034
1.1047818
1.1048602
1.1049385
1.1050167
1.1050949
1.1051731
1.1052512
1.1053292
1.1054073
1.1054852
1.1055632
1.105641
1.1057189
1.1057967
1.1058744
1.1059521
1.1060298
1.1061074
1.106185
1.1062626
1.1063401
1.1064175
1.106495
1.1065724
1.1066497
1.106727
1.1068043
1.1068815
1.1069588
1.1070359
1.1071131
1.1071902
1.1072672
1.1073443
1.1074213
1.1074982
1.1075752
1.1076521
1.1077289
1.1078058
1.1078826
1.1079594
1.1080361
1.1081129
1.1081896
1.1082662
1.1083429
1.1084195
1.1084961
1.1085727
1.1086492
1.1087257
1.1088022
1.1088787
1.1089552
1.1090316
1.109108
1.1091844
1.1092608
1.1093371
1.1094134
1.1094898
1.109566
1.1096423
1.1097186
1.1097948
1.109871
1.1099472
1.1100234
1.1100996
1.1101758
1.1102519
1.1103281
1.1104042
1.1104803
1.1105564
1.1106325
1.1107086
1.1107846
1.1108607
1.1109367
1.1110128
1.1110888
1.1111648
1.1112408
1.1113168
1.1113929
1.1114688
1.1115448
1.1116208
1.1116968
1.1117728
1.1118487
1.1119247
1.1120007
1.1120766
1.1121526
1.1122285
1.1123045
1.1123804
1.1124564
1.1125323
1.1126083
1.1126842
1.1127602
1.1128361
1.1129121
1.1129881
1.113064
1.11314
1.113216
1.1132919
1.1133679
1.1134439
1.1135199
1.1135959
1.1136719
1.1137479
1.113824
1.1139
1.1139761
1.1140522
1.1141282
1.1142043
1.1142805
1.1143566
1.1144327
1.1145089
1.1145851
1.1146613
1.1147375
1.1148138
1.1148901
1.1149664
1.1150427
1.115119
1.1151954
1.1152718
1.1153482
1.1154247
1.1155012
1.1155777
1.1156543
1.1157309
1.1158075
1.1158842
1.1159609
1.1160376
1.1161144
1.1161912
1.1162681
1.116345
1.1164219
1.1164989
1.116576
1.1166531
1.1167302
1.1168074
1.1168846
1.1169619
1.1170392
1.1171166
1.117194
1.1172715
1.117349
1.1174266
1.1175042
1.1175819
1.1176597
1.1177375
1.1178154
1.1178933
1.1179713
1.1180493
1.1181274
1.1182056
1.1182838
1.1183621
1.1184405
1.1185189
1.1185974
1.1186759
1.1187545
1.1188332
1.1189119
1.1189908
1.1190696
1.1191486
1.1192276
1.1193067
1.1193858
1.119465
1.1195443
1.1196237
1.1197031
1.1197826
1.1198622
1.1199418
1.1200216
1.1201014
1.1201812
1.1202612
1.1203412
1.1204213
1.1205014
1.1205816
1.1206619
1.1207423
1.1208228
1.1209033
1.1209839
1.1210645
1.1211453
1.1212261
1.1213071
1.1213881
1.1214691
1.1215503
1.1216315
1.1217128
1.1217941
1.1218755
1.121957
1.1220386
1.1221203
1.122202
1.1222838
1.1223657
1.1224476
1.1225297
1.1226118
1.122694
1.1227762
1.1228585
1.1229409
1.1230234
1.1231059
1.1231885
1.1232712
1.123354
1.1234368
1.1235197
1.1236026
1.1236857
1.1237688
1.123852
1.1239352
1.1240185
1.1241019
1.1241854
1.1242689
1.1243524
1.1244361
1.1245198
1.1246036
1.1246874
1.1247713
1.1248553
1.1249393
1.1250234
1.1251075
1.1251917
1.1252759
1.1253602
1.1254446
1.125529
1.1256135
1.125698
1.1257826
1.1258672
1.1259519
1.1260366
1.1261213
1.1262062
1.126291
1.126376
1.1264609
1.1265459
1.126631
1.1267161
1.1268012
1.1268864
1.1269716
1.1270569
1.1271421
1.1272275
1.1273129
1.1273983
1.1274837
1.1275692
1.1276547
1.1277402
1.1278258
1.1279115
1.1279971
1.1280828
1.1281685
1.1282542
1.12834
1.1284257
1.1285116
1.1285974
1.1286833
1.1287691
1.1288551
1.128941
1.129027
1.1291129
1.1291989
1.129285
1.129371
1.1294571
1.1295432
1.1296293
1.1297154
1.1298015
1.1298877
1.1299739
1.1300601
1.1301463
1.1302325
1.1303187
1.130405
1.1304912
1.1305775
1.1306638
1.1307501
1.1308364
1.1309227
1.131009
1.1310954
1.1311817
1.1312681
1.1313545
1.1314408
1.1315272
1.1316136
1.1317
1.1317864
1.1318728
1.1319592
1.1320456
1.132132
1.1322184
1.1323049
1.1323913
1.1324777
1.1325642
1.1326506
1.132737
1.1328235
1.1329099
1.1329964
1.1330828
1.1331693
1.1332557
1.1333422
1.1334286
1.1335151
1.1336015
1.133688
1.1337744
1.1338609
1.1339473
1.1340338
1.1341203
1.1342067
1.1342931
1.1343796
1.134466
1.1345525
1.1346389
1.1347254
1.1348118
1.1348983
1.1349847
1.1350711
1.1351576
1.135244
1.1353304
1.1354168
1.1355033
1.1355897
1.1356762
1.1357626
1.135849
1.1359354
1.1360219
1.1361083
1.1361947
1.1362811
1.1363675
1.1364539
1.1365403
1.1366267
1.1367131
1.1367995
1.1368858
1.1369722
1.1370586
1.137145
1.1372313
1.1373177
1.1374041
1.1374905
1.1375768
1.1376632
1.1377495
1.1378358
1.1379221
1.1380085
1.1380948
1.1381812
1.1382675
1.1383538
1.1384401
1.1385265
1.1386128
1.1386991
1.1387854
1.1388717
1.138958
1.1390442
1.1391305
1.1392168
1.1393031
1.1393894
1.1394756
1.1395619
1.1396482
1.1397344
1.1398206
1.1399069
1.1399931
1.1400794
1.1401656
1.1402519
1.1403381
1.1404243
1.1405106
1.1405968
1.140683
1.1407692
1.1408554
1.1409416
1.1410278
1.141114
1.1412002
1.1412864
1.1413726
1.1414588
1.1415449
1.1416311
1.1417172
1.1418034
1.1418896
1.1419757
1.1420619
1.142148
1.1422342
1.1423203
1.1424065
1.1424926
1.1425787
1.1426649
1.142751
1.1428371
1.1429232
1.1430093
1.1430954
1.1431815
1.1432676
1.1433537
1.1434398
1.1435258
1.1436119
1.143698
1.143784
1.1438701
1.1439561
1.1440422
1.1441282
1.1442142
1.1443002
1.1443862
1.1444722
1.1445582
1.1446442
1.1447302
1.1448162
1.1449022
1.1449882
1.1450741
1.1451601
1.1452461
1.145332
1.145418
1.1455039
1.1455899
1.1456758
1.1457617
1.1458476
1.1459336
1.1460195
1.1461054
1.1461913
1.1462772
1.1463631
1.146449
1.1465349
1.1466207
1.1467066
1.1467925
1.1468784
1.1469642
1.1470501
1.1471359
1.1472218
1.1473077
1.1473935
1.1474794
1.1475652
1.147651
1.1477369
1.1478227
1.1479085
1.1479944
1.1480802
1.148166
1.1482518
1.1483376
1.1484234
1.1485093
1.1485951
1.1486809
1.1487667
1.1488524
1.1489382
1.149024
1.1491098
1.1491956
1.1492813
1.1493671
1.1494529
1.1495386
1.1496244
1.1497102
1.1497959
1.1498817
1.1499674
1.1500531
1.1501389
1.1502246
1.1503103
1.150396
1.1504817
1.1505675
1.1506532
1.1507389
1.1508246
1.1509103
1.150996
1.1510817
1.1511674
1.1512531
1.1513387
1.1514244
1.1515101
1.1515957
1.1516814
1.1517671
1.1518527
1.1519384
1.1520241
1.1521097
1.1521953
1.152281
1.1523666
1.1524522
1.1525378
1.1526234
1.1527091
1.1527947
1.1528803
1.1529659
1.1530515
1.1531371
1.1532227
1.1533083
1.1533939
1.1534795
1.1535651
1.1536506
1.1537362
1.1538218
1.1539074
1.153993
1.1540785
1.1541641
1.1542496
1.1543352
1.1544207
1.1545063
1.1545918
1.1546774
1.1547629
1.1548484
1.154934
1.1550195
1.155105
1.1551905
1.1552761
1.1553616
1.1554471
1.1555326
1.1556181
1.1557036
1.1557891
1.1558746
1.1559601
1.1560456
1.156131
1.1562165
1.156302
1.1563874
1.1564729
1.1565584
1.1566439
1.1567293
1.1568147
1.1569002
1.1569856
1.1570711
1.1571565
1.157242
1.1573274
1.1574128
1.1574983
1.1575837
1.1576691
1.1577545
1.15784
1.1579253
1.1580108
1.1580961
1.1581816
1.1582669
1.1583524
1.1584377
1.1585231
1.1586085
1.1586939
1.1587793
1.1588646
1.15895
1.1590354
1.1591207
1.1592061
1.1592914
1.1593768
1.1594621
1.1595475
1.1596328
1.1597182
1.1598035
1.1598888
1.1599742
1.1600595
1.1601448
1.1602302
1.1603155
1.1604008
1.1604861
1.1605714
1.1606567
1.160742
1.1608273
1.1609126
1.1609979
1.1610832
1.1611685
1.1612537
1.161339
1.1614243
1.1615095
1.1615948
1.1616801
1.1617653
1.1618506
1.1619358
1.162021
1.1621063
1.1621915
1.1622767
1.1623619
1.1624472
1.1625324
1.1626176
1.1627028
1.162788
1.1628732
1.1629583
1.1630435
1.1631287
1.1632139
1.163299
1.1633842
1.1634694
1.1635545
1.1636397
1.1637248
1.16381
1.1638951
1.1639802
1.1640654
1.1641505
1.1642356
1.1643207
1.1644058
1.1644909
1.164576
1.1646611
1.1647462
1.1648313
1.1649163
1.1650014
1.1650865
1.1651715
1.1652566
1.1653417
1.1654267
1.1655118
1.1655968
1.1656819
1.1657669
1.1658519
1.165937
1.166022
1.166107
1.166192
1.1662771
1.1663621
1.1664471
1.1665321
1.1666171
1.1667021
1.1667871
1.1668721
1.1669571
1.1670421
1.167127
1.167212
1.167297
1.167382
1.167467
1.1675519
1.1676369
1.1677219
1.1678068
1.1678918
1.1679767
1.1680617
1.1681466
1.1682316
1.1683165
1.1684015
1.1684864
1.1685713
1.1686563
1.1687412
1.1688261
1.168911
1.1689959
1.1690809
1.1691658
1.1692507
1.1693356
1.1694205
1.1695054
1.1695903
1.1696751
1.16976
1.1698449
1.1699298
1.1700147
1.1700995
1.1701844
1.1702693
1.1703541
1.170439
1.1705238
1.1706087
1.1706935
1.1707784
1.1708632
1.170948
1.1710328
1.1711177
1.1712025
1.1712873
1.1713721
1.1714569
1.1715417
1.1716265
1.1717113
1.171796
1.1718808
1.1719656
1.1720504
1.1721351
1.1722199
1.1723046
1.1723893
1.1724741
1.1725588
1.1726435
1.1727282
1.1728129
1.1728976
1.1729823
1.173067
1.1731516
1.1732363
1.1733209
1.1734056
1.1734902
1.1735748
1.1736594
1.173744
1.1738286
1.1739131
1.1739977
1.1740822
1.1741668
1.1742513
1.1743358
1.1744202
1.1745047
1.1745892
1.1746736
1.174758
1.1748424
1.1749268
1.1750111
1.1750955
1.1751798
1.1752641
1.1753484
1.1754326
1.1755168
1.175601
1.1756852
1.1757693
1.1758535
1.1759375
1.1760216
1.1761056
1.1761896
1.1762736
1.1763575
1.1764415
1.1765253
1.1766092
1.176693
1.1767767
1.1768604
1.1769441
1.1770278
1.1771114
1.1771949
1.1772784
1.1773619
1.1774453
1.1775287
1.177612
1.1776953
1.1777785
1.1778616
1.1779447
1.1780278
1.1781108
1.1781937
1.1782766
1.1783594
1.1784422
1.1785248
1.1786074
1.17869
1.1787725
1.1788549
1.1789372
1.1790195
1.1791016
1.1791837
1.1792658
1.1793477
1.1794295
1.1795113
1.179593
1.1796746
1.1797561
1.1798375
1.1799188
1.18
1.1800811
1.1801621
1.180243
1.1803238
1.1804045
1.1804851
1.1805655
1.1806459
1.1807261
1.1808062
1.1808862
1.1809661
1.1810458
1.1811254
1.1812049
1.1812842
1.1813634
1.1814425
1.1815214
1.1816002
1.1816788
1.1817573
1.1818356
1.1819138
1.1819918
1.1820696
1.1821473
1.1822248
1.1823022
1.1823794
1.1824564
1.1825332
1.1826099
1.1826863
1.1827626
1.1828387
1.1829146
1.1829903
1.1830658
1.1831411
1.1832162
1.1832911
1.1833658
1.1834403
1.1835145
1.1835885
1.1836623
1.1837359
1.1838093
1.1838824
1.1839553
1.184028
1.1841004
1.1841725
1.1842445
1.1843161
1.1843876
1.1844587
1.1845297
1.1846003
1.1846707
1.1847408
1.1848107
1.1848802
1.1849495
1.1850185
1.1850873
1.1851557
1.1852239
1.1852918
1.1853594
1.1854267
1.1854937
1.1855604
1.1856268
1.1856929
1.1857586
1.1858241
1.1858893
1.1859541
1.1860186
1.1860828
1.1861467
1.1862102
1.1862735
1.1863364
1.1863989
1.1864612
1.1865231
1.1865847
1.1866459
1.1867068
1.1867673
1.1868275
1.1868874
1.1869469
1.187006
1.1870648
1.1871233
1.1871814
1.1872391
1.1872965
1.1873535
1.1874102
1.1874665
1.1875224
1.187578
1.1876333
1.1876881
1.1877426
1.1877967
1.1878505
1.1879039
1.1879569
1.1880096
1.1880619
1.1881138
1.1881654
1.1882165
1.1882674
1.1883178
1.1883679
1.1884176
1.188467
1.1885159
1.1885645
1.1886128
1.1886606
1.1887081
1.1887552
1.188802
1.1888484
1.1888944
1.1889401
1.1889854
1.1890304
1.1890749
1.1891191
1.189163
1.1892065
1.1892496
1.1892924
1.1893348
1.1893769
1.1894186
1.1894599
1.189501
1.1895416
1.1895819
1.1896219
1.1896615
1.1897008
1.1897397
1.1897783
1.1898166
1.1898545
1.1898921
1.1899293
1.1899663
1.1900028
1.1900391
1.190075
1.1901107
1.190146
1.190181
1.1902156
1.19025
1.190284
1.1903177
1.1903512
1.1903843
1.1904171
1.1904496
1.1904818
1.1905137
1.1905454
1.1905767
1.1906078
1.1906385
1.190669
1.1906992
1.1907292
1.1907588
1.1907882
1.1908173
1.1908461
1.1908747
1.190903
1.1909311
1.1909589
1.1909864
1.1910137
1.1910408
1.1910676
1.1910941
1.1911205
1.1911465
1.1911724
1.191198
1.1912234
1.1912485
1.1912735
1.1912982
1.1913227
1.1913469
1.191371
1.1913949
1.1914185
1.191442
1.1914652
1.1914882
1.1915111
1.1915337
1.1915562
1.1915784
1.1916005
1.1916224
1.1916441
1.1916656
1.191687
1.1917081
1.1917291
1.19175
1.1917706
1.1917911
1.1918115
1.1918316
1.1918516
1.1918715
1.1918912
1.1919108
1.1919302
1.1919494
1.1919686
1.1919875
1.1920064
1.1920251
1.1920436
1.192062
1.1920803
1.1920985
1.1921165
1.1921344
1.1921522
1.1921699
1.1921874
1.1922049
1.1922222
1.1922394
1.1922564
1.1922734
1.1922903
1.1923071
1.1923237
1.1923403
1.1923567
1.1923731
1.1923893
1.1924055
1.1924215
1.1924375
1.1924534
1.1924691
1.1924848
1.1925004
1.1925159
1.1925314
1.1925467
1.192562
1.1925772
1.1925923
1.1926073
1.1926223
1.1926371
1.1926519
1.1926667
1.1926813
1.1926959
1.1927104
1.1927249
1.1927393
1.1927536
1.1927678
1.192782
1.1927962
1.1928102
1.1928242
1.1928382
1.192852
1.1928658
1.1928796
1.1928933
1.192907
1.1929206
1.1929341
1.1929476
1.1929611
1.1929745
1.1929878
1.1930011
1.1930144
1.1930276
1.1930407
1.1930538
1.1930669
1.1930799
1.1930929
1.1931058
1.1931187
1.1931315
1.1931443
1.1931571
1.1931698
1.1931824
1.1931951
1.1932077
1.1932203
1.1932328
1.1932453
1.1932577
1.1932701
1.1932825
1.1932949
1.1933072
1.1933195
1.1933317
1.1933439
1.1933561
1.1933682
1.1933803
1.1933924
1.1934044
1.1934165
1.1934284
1.1934404
1.1934523
1.1934642
1.1934761
1.1934879
1.1934998
1.1935115
1.1935233
1.193535
1.1935467
1.1935584
1.19357
1.1935817
1.1935933
1.1936048
1.1936164
1.1936279
1.1936394
1.1936509
1.1936623
1.1936738
1.1936852
1.1936966
1.1937079
1.1937192
1.1937305
1.1937418
1.1937531
1.1937643
1.1937756
1.1937868
1.1937979
1.1938091
1.1938202
1.1938313
1.1938424
1.1938535
1.1938645
1.1938756
1.1938866
1.1938975
1.1939085
1.1939195
1.1939304
1.1939413
1.1939522
1.193963
1.1939739
1.1939847
1.1939955
1.1940063
1.1940171
1.1940278
1.1940385
1.1940493
1.1940599
1.1940706
1.1940813
1.1940919
1.1941025
1.1941131
1.1941237
1.1941342
1.1941448
1.1941553
1.1941658
1.1941763
1.1941867
1.1941972
1.1942076
1.194218
1.1942284
1.1942388
1.1942491
1.1942594
1.1942698
1.19428
1.1942903
1.1943006
1.1943108
1.194321
1.1943312
1.1943414
1.1943515
1.1943617
1.1943718
1.1943819
1.1943919
1.194402
1.194412
1.1944221
1.1944321
1.194442
1.194452
1.1944619
1.1944718
1.1944817
1.1944916
1.1945015
1.1945113
1.1945211
1.1945309
1.1945407
1.1945504
1.1945601
1.1945699
1.1945795
1.1945892
1.1945989
1.1946085
1.1946181
1.1946277
1.1946372
1.1946468
1.1946563
1.1946658
1.1946752
1.1946847
1.1946941
1.1947035
1.1947129
1.1947223
1.1947316
1.1947409
1.1947502
1.1947594
1.1947687
1.1947779
1.1947871
1.1947963
1.1948054
1.1948145
1.1948237
1.1948327
1.1948418
1.1948508
1.1948598
1.1948688
1.1948778
1.1948867
1.1948956
1.1949045
1.1949134
1.1949222
1.194931
1.1949398
1.1949486
1.1949573
1.194966
1.1949747
1.1949834
1.194992
1.1950007
1.1950092
1.1950178
1.1950263
1.1950348
1.1950433
1.1950518
1.1950602
1.1950686
1.195077
1.1950854
1.1950938
1.1951021
1.1951104
1.1951186
1.1951269
1.1951351
1.1951433
1.1951514
1.1951596
1.1951677
1.1951758
1.1951839
1.1951919
1.1951999
1.1952079
1.1952158
1.1952237
1.1952316
1.1952395
1.1952474
1.1952552
1.195263
1.1952708
1.1952786
1.1952863
1.195294
1.1953017
1.1953093
1.195317
1.1953246
1.1953322
1.1953397
1.1953473
1.1953548
1.1953622
1.1953697
1.1953771
1.1953845
1.1953919
1.1953993
1.1954066
1.1954139
1.1954212
1.1954285
1.1954357
1.195443
1.1954501
1.1954573
1.1954645
1.1954716
1.1954787
1.1954858
1.1954928
1.1954999
1.1955069
1.1955139
1.1955208
1.1955278
1.1955347
1.1955416
1.1955485
1.1955553
1.1955621
1.195569
1.1955757
1.1955825
1.1955892
1.195596
1.1956027
1.1956093
1.195616
1.1956226
1.1956292
1.1956358
1.1956424
1.1956489
1.1956555
1.195662
1.1956685
1.1956749
1.1956814
1.1956878
1.1956942
1.1957006
1.195707
1.1957133
1.1957196
1.1957259
1.1957322
1.1957385
1.1957447
1.1957509
1.1957571
1.1957633
1.1957695
1.1957756
1.1957817
1.1957878
1.1957939
1.1957999
1.195806
1.195812
1.195818
1.195824
1.1958299
1.1958359
1.1958418
1.1958477
1.1958536
1.1958594
1.1958652
1.1958711
1.1958768
1.1958826
1.1958884
1.1958941
1.1958998
1.1959055
1.1959112
1.1959168
1.1959224
1.195928
1.1959336
1.1959392
1.1959447
1.1959503
1.1959558
1.1959613
1.1959668
1.1959722
1.1959776
1.195983
1.1959884
1.1959938
1.1959991
1.1960044
1.1960097
1.1960149
1.1960202
1.1960254
1.1960306
1.1960358
1.1960409
1.1960461
1.1960512
1.1960563
1.1960614
1.1960664
1.1960715
1.1960765
1.1960815
1.1960864
1.1960914
1.1960963
1.1961012
1.1961061
1.1961109
1.1961157
1.1961205
1.1961253
1.1961301
1.1961348
1.1961395
1.1961442
1.1961488
1.1961535
1.1961581
1.1961627
1.1961673
1.1961718
1.1961763
1.1961808
1.1961853
1.1961898
1.1961942
1.1961986
1.196203
1.1962074
1.1962117
1.196216
1.1962203
1.1962246
1.1962288
1.196233
1.1962372
1.1962414
1.1962455
1.1962496
1.1962537
1.1962578
1.1962619
1.1962659
1.1962699
1.1962738
1.1962778
1.1962817
1.1962856
1.1962895
1.1962934
1.1962972
1.196301
1.1963048
1.1963085
1.1963123
1.196316
1.1963197
1.1963233
1.1963269
1.1963306
1.1963341
1.1963377
1.1963412
1.1963447
1.1963482
1.1963517
1.1963551
1.1963585
1.1963619
1.1963653
1.1963686
1.196372
1.1963753
1.1963785
1.1963818
1.196385
1.1963882
1.1963913
1.1963945
1.1963976
1.1964007
1.1964038
1.1964068
1.1964099
1.1964129
1.1964158
1.1964188
1.1964217
1.1964246
1.1964275
1.1964303
1.1964331
1.1964359
1.1964387
1.1964415
1.1964442
1.1964469
1.1964496
1.1964522
1.1964549
1.1964575
1.1964601
1.1964627
1.1964652
1.1964677
1.1964702
1.1964727
1.1964751
1.1964775
1.1964799
1.1964823
1.1964846
1.1964869
1.1964892
1.1964915
1.1964938
1.196496
1.1964982
1.1965004
1.1965025
1.1965046
1.1965067
1.1965088
1.1965109
1.1965129
1.1965149
1.1965169
1.1965189
1.1965208
1.1965227
1.1965246
1.1965265
1.1965283
1.1965302
1.196532
1.1965337
1.1965355
1.1965372
1.1965389
1.1965406
1.1965423
1.196544
1.1965456
1.1965472
1.1965488
1.1965503
1.1965519
1.1965534
1.1965549
1.1965563
1.1965578
1.1965592
1.1965606
1.196562
1.1965634
1.1965647
1.1965661
1.1965674
1.1965686
1.1965699
1.1965711
1.1965723
1.1965735
1.1965747
1.1965759
1.196577
1.1965781
1.1965792
1.1965802
1.1965812
1.1965822
1.1965832
1.1965842
1.1965851
1.196586
1.1965869
1.1965878
1.1965886
1.1965895
1.1965902
1.196591
1.1965918
1.1965925
1.1965932
1.1965938
1.1965945
1.1965951
1.1965957
1.1965963
1.1965968
1.1965973
1.1965979
1.1965983
1.1965988
1.1965992
1.1965997
1.1966001
1.1966004
1.1966008
1.1966011
1.1966014
1.1966017
1.196602
1.1966023
1.1966025
1.1966027
1.1966029
1.196603
1.1966032
1.1966033
1.1966034
1.1966035
1.1966036
1.1966036
1.1966036
1.1966036
1.1966036
1.1966036
1.1966035
1.1966034
1.1966033
1.1966032
1.1966031
1.1966029
1.1966027
1.1966025
1.1966023
1.196602
1.1966017
1.1966014
1.1966011
1.1966008
1.1966004
1.1966
1.1965996
1.1965992
1.1965987
1.1965982
1.1965977
1.1965972
1.1965966
1.196596
1.1965954
1.1965948
1.1965942
1.1965935
1.1965928
1.1965921
1.1965914
1.1965906
1.1965898
1.196589
1.1965882
1.1965874
1.1965865
1.1965857
1.1965848
1.1965838
1.1965829
1.1965819
1.1965809
1.1965799
1.1965788
1.1965777
1.1965766
1.1965755
1.1965744
1.1965732
1.196572
1.1965708
1.1965696
1.1965684
1.1965671
1.1965658
1.1965644
1.1965631
1.1965617
1.1965603
1.1965589
1.1965574
1.196556
1.1965545
1.1965529
1.1965514
1.1965499
1.1965483
1.1965467
1.196545
1.1965434
1.1965417
1.19654
1.1965383
1.1965365
1.1965348
1.196533
1.1965311
1.1965293
1.1965274
1.1965255
1.1965236
1.1965217
1.1965197
1.1965177
1.1965157
1.1965137
1.1965117
1.1965096
1.1965075
1.1965053
1.1965032
1.196501
1.1964988
1.1964966
1.1964943
1.1964921
1.1964898
1.1964874
1.1964851
1.1964827
1.1964803
1.1964779
1.1964754
1.196473
1.1964705
1.1964679
1.1964654
1.1964628
1.1964602
1.1964576
1.196455
1.1964523
1.1964496
1.1964469
1.1964442
1.1964414
1.1964387
1.1964359
1.196433
1.1964302
1.1964273
1.1964244
1.1964214
1.1964185
1.1964155
1.1964124
1.1964094
1.1964063
1.1964033
1.1964001
1.196397
1.1963938
1.1963906
1.1963874
1.1963841
1.1963808
1.1963775
1.1963742
1.1963709
1.1963675
1.1963641
1.1963607
1.1963572
1.1963538
1.1963502
1.1963467
1.1963431
1.1963395
1.1963359
1.1963323
1.1963286
1.1963249
1.1963212
1.1963174
1.1963136
1.1963098
1.196306
1.1963022
1.1962983
1.1962944
1.1962904
1.1962865
1.1962824
1.1962785
1.1962744
1.1962704
1.1962663
1.1962622
1.196258
1.1962538
1.1962497
1.1962454
1.1962411
1.1962368
1.1962324
1.1962282
1.1962237
1.1962193
1.1962149
1.1962104
1.1962059
1.1962014
1.1961968
1.1961922
1.1961876
1.1961829
1.1961783
1.1961737
1.1961689
1.1961642
1.1961594
1.1961546
1.1961498
1.196145
1.1961401
1.1961352
1.1961303
1.1961253
1.1961203
1.1961154
1.1961104
1.1961054
1.1961004
1.1960954
1.1960903
1.1960852
1.1960801
1.1960751
1.1960701
1.196065
1.1960599
1.196055
1.19605
1.1960449
1.1960399
1.1960349
1.1960298
1.1960247
1.1960196
1.1960147
1.1960098
1.1960048
1.1959998
1.1959948
1.19599
1.195985
1.1959799
1.1959747
1.1959696
1.1959646
1.1959596
1.1959544
1.1959492
1.1959441
1.195939
1.1959339
1.1959285
1.1959228
1.1959171
1.1959114
1.1959058
1.1958999
1.1958936
1.1958872
1.1958807
1.1958745
1.1958685
1.1958623
1.1958557
1.1958488
1.1958417
1.1958348
1.1958281
1.1958217
1.1958151
1.195808
1.1958005
1.1957929
1.1957858
1.1957794
1.1957734
1.1957674
1.1957611
1.1957541
1.1957467
1.1957391
1.1957318
1.1957251
1.195719
1.1957136
1.1957085
1.1957033
1.1956978
1.1956918
1.195685
1.1956774
1.195669
1.19566
1.1956506
1.1956407
1.1956292
1.1956128
1.1955826
1.1955135
1.1953342
1.1948414
1.1934549
1.190281
1.1865024
1.1824811
1.178314
1.1740986
1.1699247
1.165872
1.1620074
1.1583838
1.1550391
1.1519971
1.1492684
1.1468524
1.1447394
1.1429129
1.1413518
1.1400322
1.1389287
1.138016
1.1372689
1.1366637
1.1361781
1.1357919
1.1354872
1.1352486
1.1350629
1.1349193
1.134809
1.1347247
1.1346608
1.1346125
1.1345763
1.1345491
1.1345287
1.1345131
1.1345008
1.1344905
1.1344812
1.1344724
1.1344656
1.1344622
1.1344588
1.134455
1.1344508
1.1344464
1.1344417
1.1344369
1.1344319
1.1344267
1.1344214
1.134416
1.1344105
1.1344049
1.1343992
1.1343934
1.1343876
1.1343817
1.1343757
1.1343698
1.1343638
1.1343578
1.1343518
1.1343459
1.13434
1.1343341
1.1343282
1.1343224
1.1343167
1.134311
1.1343053
1.1342996
1.134294
1.1342883
1.1342827
1.134277
1.1342713
1.1342656
1.1342599
1.1342541
1.1342482
1.1342423
1.1342363
1.1342303
1.1342242
1.134218
1.1342117
1.1342053
1.1341989
1.1341924
1.1341858
1.1341791
1.1341724
1.1341656
1.1341587
1.1341518
1.1341448
1.1341377
1.1341306
1.1341235
1.1341163
1.134109
1.1341017
1.1340944
1.134087
1.1340796
1.1340721
1.1340647
1.1340571
1.1340496
1.134042
1.1340344
1.1340267
1.134019
1.1340113
1.1340035
1.1339957
1.1339879
1.1339801
1.1339722
1.1339643
1.1339563
1.1339484
1.1339404
1.1339324
1.1339244
1.1339163
1.1339082
1.1339001
1.1338919
1.1338838
1.1338756
1.1338674
1.1338591
1.1338508
1.1338425
1.1338342
1.1338258
1.1338174
1.133809
1.1338006
1.1337921
1.1337836
1.1337751
1.1337666
1.133758
1.1337495
1.1337409
1.1337322
1.1337236
1.1337149
1.1337062
1.1336975
1.1336887
1.13368
1.1336712
1.1336623
1.1336535
1.1336446
1.1336357
1.1336268
1.1336179
1.1336089
1.1335999
1.1335909
1.1335818
1.1335728
1.1335637
1.1335546
1.1335454
1.1335363
1.1335271
1.1335179
1.1335086
1.1334994
1.1334901
1.1334808
1.1334715
1.1334621
1.1334527
1.1334434
1.1334339
1.1334245
1.133415
1.1334055
1.133396
1.1333865
1.133377
1.1333674
1.1333578
1.1333481
1.1333385
1.1333288
1.1333191
1.1333094
1.1332997
1.1332899
1.1332801
1.1332703
1.1332605
1.1332507
1.1332408
1.1332309
1.133221
1.133211
1.1332011
1.1331911
1.1331811
1.133171
1.133161
1.1331509
1.1331408
1.1331307
1.1331206
1.1331104
1.1331003
1.1330901
1.1330798
1.1330696
1.1330593
1.133049
1.1330387
1.1330284
1.1330181
1.1330077
1.1329973
1.1329869
1.1329764
1.132966
1.1329555
1.132945
1.1329345
1.132924
1.1329134
1.1329028
1.1328922
1.1328816
1.132871
1.1328603