/*--------------------------------*- C++ -*----------------------------------*\
  =========                 |
  \\      /  F ield         | OpenFOAM: The Open Source CFD Toolbox
   \\    /   O peration     | Website:  https://openfoam.org
    \\  /    A nd           | Version:  7
     \\/     M anipulation  |
\*---------------------------------------------------------------------------*/
FoamFile
{
    version     2.0;
    format      ascii;
    class       volScalarField;
    location    "0.00198";
    object      T;
}
// * * * * * * * * * * * * * * * * * * * * * * * * * * * * * * * * * * * * * //

dimensions      [0 0 0 1 0 0 0];

internalField   nonuniform List<scalar> 
5000
(
259.01623
259.03042
259.0367
259.04808
259.05451
259.06586
259.07231
259.08367
259.09012
259.10149
259.10794
259.11931
259.12576
259.13713
259.14357
259.15495
259.16139
259.17277
259.1792
259.19058
259.197
259.20838
259.2148
259.22616
259.23257
259.24394
259.25034
259.26171
259.26812
259.27949
259.2859
259.29728
259.30369
259.31508
259.32148
259.33287
259.33927
259.35066
259.35706
259.36845
259.37484
259.38623
259.39261
259.40401
259.41038
259.42177
259.42814
259.43953
259.4459
259.45729
259.46364
259.47504
259.48139
259.49278
259.49913
259.51052
259.51685
259.52825
259.53458
259.54597
259.5523
259.5637
259.57001
259.58141
259.58772
259.59911
259.60543
259.61681
259.62311
259.63452
259.64079
259.6522
259.65849
259.66986
259.67617
259.68755
259.69381
259.70525
259.71145
259.72291
259.72915
259.74051
259.74685
259.75813
259.76448
259.77584
259.78204
259.79357
259.79961
259.81119
259.81733
259.82864
259.83521
259.84594
259.85317
259.8632
259.87112
259.88051
259.88897
259.89792
259.90671
259.91541
259.92437
259.93297
259.94197
259.95055
259.95954
259.96814
259.9771
259.98573
259.99466
260.0033
260.01221
260.02086
260.02976
260.03842
260.04731
260.05596
260.06486
260.07351
260.08239
260.09104
260.09993
260.10857
260.11745
260.12609
260.13497
260.14361
260.15249
260.16112
260.17
260.17863
260.1875
260.19613
260.20499
260.21362
260.22248
260.23111
260.23997
260.24858
260.25745
260.26606
260.27493
260.28353
260.29239
260.301
260.30983
260.31847
260.32727
260.33594
260.34471
260.3534
260.36213
260.37085
260.37956
260.3883
260.39698
260.40573
260.4144
260.42315
260.43182
260.44056
260.44922
260.45797
260.46662
260.47537
260.48402
260.49276
260.50141
260.51015
260.51879
260.52753
260.53617
260.54491
260.55354
260.56228
260.57092
260.57965
260.58829
260.59702
260.60566
260.61439
260.62303
260.63176
260.64039
260.64912
260.65776
260.66649
260.67512
260.68385
260.69247
260.7012
260.70983
260.71855
260.72718
260.7359
260.74452
260.75324
260.76186
260.77058
260.77919
260.78791
260.79652
260.80524
260.81385
260.82256
260.83116
260.83987
260.84848
260.85718
260.86578
260.87448
260.88308
260.89178
260.90038
260.90907
260.91767
260.92636
260.93495
260.94364
260.95223
260.96091
260.9695
260.97818
260.98677
260.99545
261.00403
261.0127
261.02128
261.02996
261.03853
261.0472
261.05578
261.06444
261.07301
261.08168
261.09025
261.09891
261.10747
261.11613
261.12469
261.13335
261.14191
261.15056
261.15912
261.16777
261.17633
261.18497
261.19352
261.20217
261.21072
261.21936
261.2279
261.23655
261.24509
261.25372
261.26226
261.2709
261.27943
261.28807
261.2966
261.30523
261.31376
261.32239
261.33091
261.33954
261.34806
261.35669
261.36521
261.37383
261.38234
261.39096
261.39948
261.40809
261.4166
261.42522
261.43372
261.44233
261.45084
261.45945
261.46795
261.47655
261.48505
261.49366
261.50215
261.51075
261.51925
261.52784
261.53633
261.54493
261.55341
261.56201
261.57049
261.57908
261.58756
261.59615
261.60462
261.61321
261.62168
261.63027
261.63873
261.64732
261.65578
261.66436
261.67282
261.6814
261.68986
261.69844
261.70689
261.71547
261.72392
261.73249
261.74094
261.74951
261.75797
261.76652
261.77499
261.78353
261.792
261.80054
261.80902
261.81754
261.82603
261.83454
261.84303
261.85154
261.86003
261.86854
261.87703
261.88553
261.89403
261.90252
261.91102
261.91951
261.928
261.9365
261.94499
261.95348
261.96197
261.97045
261.97894
261.98743
261.99591
262.0044
262.01288
262.02136
262.02984
262.03832
262.0468
262.05527
262.06375
262.07222
262.08069
262.08916
262.09764
262.1061
262.11457
262.12304
262.1315
262.13997
262.14843
262.15689
262.16535
262.17381
262.18226
262.19072
262.19918
262.20763
262.21608
262.22453
262.23298
262.24143
262.24988
262.25832
262.26677
262.27521
262.28365
262.29209
262.30053
262.30897
262.3174
262.32584
262.33427
262.34271
262.35114
262.35957
262.368
262.37642
262.38485
262.39328
262.4017
262.41012
262.41854
262.42696
262.43538
262.4438
262.45222
262.46063
262.46905
262.47746
262.48587
262.49428
262.50269
262.51109
262.5195
262.52791
262.53631
262.54471
262.55311
262.56151
262.56991
262.57831
262.58671
262.5951
262.60349
262.61189
262.62028
262.62867
262.63706
262.64544
262.65383
262.66222
262.6706
262.67898
262.68736
262.69574
262.70412
262.7125
262.72088
262.72925
262.73763
262.746
262.75437
262.76274
262.77111
262.77948
262.78784
262.79621
262.80457
262.81294
262.8213
262.82966
262.83802
262.84638
262.85473
262.86309
262.87144
262.87979
262.88815
262.8965
262.90485
262.91319
262.92154
262.92989
262.93823
262.94657
262.95491
262.96325
262.97159
262.97993
262.98827
262.9966
263.00494
263.01327
263.02161
263.02994
263.03827
263.0466
263.05493
263.06325
263.07158
263.0799
263.08823
263.09655
263.10488
263.1132
263.12152
263.12984
263.13816
263.14648
263.15479
263.16311
263.17143
263.17974
263.18806
263.19637
263.20468
263.213
263.22131
263.22962
263.23793
263.24624
263.25454
263.26285
263.27115
263.27946
263.28776
263.29606
263.30437
263.31267
263.32096
263.32926
263.33756
263.34585
263.35414
263.36244
263.37073
263.37902
263.3873
263.39559
263.40387
263.41216
263.42044
263.42872
263.43699
263.44527
263.45354
263.46181
263.47008
263.47835
263.48662
263.49488
263.50314
263.5114
263.51966
263.52792
263.53617
263.54442
263.55267
263.56092
263.56916
263.5774
263.58564
263.59388
263.60211
263.61034
263.61857
263.6268
263.63502
263.64324
263.65146
263.65967
263.66788
263.67609
263.6843
263.6925
263.7007
263.70889
263.71709
263.72527
263.73346
263.74164
263.74982
263.758
263.76617
263.77434
263.7825
263.79066
263.79882
263.80697
263.81512
263.82327
263.83141
263.83954
263.84768
263.85581
263.86393
263.87205
263.88017
263.88828
263.89638
263.90449
263.91258
263.92068
263.92877
263.93685
263.94493
263.95301
263.96108
263.96914
263.9772
263.98525
263.99331
264.00135
264.00939
264.01742
264.02545
264.03348
264.0415
264.04951
264.05752
264.06552
264.07352
264.08151
264.0895
264.09748
264.10545
264.11342
264.12139
264.12935
264.1373
264.14525
264.15319
264.16112
264.16905
264.17698
264.18489
264.1928
264.20071
264.20861
264.2165
264.22439
264.23227
264.24015
264.24802
264.25588
264.26374
264.27159
264.27943
264.28727
264.2951
264.30293
264.31075
264.31856
264.32637
264.33417
264.34196
264.34975
264.35753
264.3653
264.37307
264.38083
264.38859
264.39634
264.40408
264.41182
264.41955
264.42727
264.43499
264.4427
264.45041
264.4581
264.4658
264.47348
264.48116
264.48884
264.49651
264.50417
264.51182
264.51947
264.52712
264.53476
264.54239
264.55002
264.55764
264.56525
264.57286
264.58047
264.58806
264.59566
264.60324
264.61082
264.6184
264.62597
264.63354
264.6411
264.64865
264.6562
264.66374
264.67128
264.67882
264.68635
264.69387
264.70139
264.7089
264.71641
264.72392
264.73142
264.73891
264.7464
264.75389
264.76137
264.76885
264.77632
264.78379
264.79125
264.79871
264.80616
264.81362
264.82106
264.8285
264.83594
264.84338
264.85081
264.85823
264.86566
264.87307
264.88049
264.8879
264.89531
264.90271
264.91011
264.91751
264.9249
264.93229
264.93968
264.94706
264.95444
264.96181
264.96919
264.97655
264.98392
264.99128
264.99865
265.006
265.01336
265.02071
265.02806
265.0354
265.04275
265.05009
265.05743
265.06476
265.07209
265.07942
265.08675
265.09408
265.1014
265.10872
265.11604
265.12336
265.13067
265.13799
265.1453
265.15261
265.15991
265.16722
265.17452
265.18182
265.18912
265.19642
265.20371
265.21101
265.2183
265.22559
265.23288
265.24017
265.24746
265.25475
265.26203
265.26932
265.2766
265.28388
265.29116
265.29844
265.30572
265.31299
265.32027
265.32755
265.33482
265.3421
265.34937
265.35664
265.36391
265.37118
265.37845
265.38572
265.39299
265.40026
265.40753
265.4148
265.42207
265.42933
265.4366
265.44387
265.45113
265.4584
265.46567
265.47293
265.4802
265.48747
265.49474
265.502
265.50927
265.51654
265.52381
265.53108
265.53835
265.54562
265.55289
265.56016
265.56743
265.57471
265.58198
265.58926
265.59654
265.60382
265.6111
265.61838
265.62566
265.63295
265.64024
265.64753
265.65482
265.66211
265.66941
265.67671
265.684
265.69131
265.69861
265.70592
265.71323
265.72055
265.72786
265.73518
265.74251
265.74983
265.75716
265.76449
265.77183
265.77917
265.78651
265.79386
265.80121
265.80857
265.81593
265.82329
265.83066
265.83803
265.84541
265.85279
265.86017
265.86756
265.87496
265.88236
265.88976
265.89717
265.90458
265.912
265.91943
265.92686
265.93429
265.94173
265.94918
265.95663
265.96409
265.97155
265.97902
265.98649
265.99397
266.00146
266.00895
266.01644
266.02395
266.03146
266.03897
266.04649
266.05402
266.06155
266.06909
266.07664
266.08419
266.09175
266.09932
266.10689
266.11447
266.12205
266.12964
266.13724
266.14484
266.15245
266.16007
266.1677
266.17533
266.18297
266.19061
266.19826
266.20592
266.21358
266.22125
266.22893
266.23661
266.2443
266.25201
266.25971
266.26743
266.27515
266.28287
266.29061
266.29835
266.30609
266.31385
266.32161
266.32938
266.33715
266.34493
266.35272
266.36051
266.36831
266.37612
266.38394
266.39175
266.39958
266.40742
266.41526
266.42311
266.43096
266.43882
266.44669
266.45456
266.46244
266.47033
266.47822
266.48612
266.49403
266.50193
266.50986
266.51778
266.52571
266.53365
266.54158
266.54954
266.55749
266.56545
266.57341
266.58138
266.58936
266.59734
266.60533
266.61332
266.62132
266.62932
266.63733
266.64535
266.65336
266.66138
266.66941
266.67744
266.68548
266.69352
266.70157
266.70961
266.71767
266.72573
266.73379
266.74186
266.74992
266.758
266.76608
266.77416
266.78225
266.79033
266.79843
266.80652
266.81462
266.82272
266.83083
266.83894
266.84705
266.85517
266.86328
266.87141
266.87953
266.88765
266.89578
266.90391
266.91205
266.92018
266.92832
266.93646
266.9446
266.95275
266.96089
266.96904
266.97719
266.98534
266.9935
267.00165
267.00981
267.01796
267.02613
267.03429
267.04245
267.05062
267.05878
267.06695
267.07512
267.08329
267.09146
267.09963
267.10781
267.11598
267.12416
267.13233
267.14051
267.14869
267.15686
267.16504
267.17322
267.1814
267.18958
267.19776
267.20594
267.21412
267.22231
267.23049
267.23867
267.24686
267.25503
267.26322
267.2714
267.27958
267.28777
267.29595
267.30414
267.31232
267.3205
267.32869
267.33687
267.34505
267.35323
267.36142
267.3696
267.37778
267.38596
267.39415
267.40233
267.41051
267.41869
267.42687
267.43505
267.44323
267.45141
267.45959
267.46777
267.47595
267.48412
267.4923
267.50047
267.50865
267.51683
267.525
267.53318
267.54135
267.54953
267.5577
267.56588
267.57404
267.58222
267.59039
267.59856
267.60673
267.6149
267.62307
267.63124
267.63941
267.64758
267.65574
267.66391
267.67208
267.68024
267.68841
267.69657
267.70473
267.7129
267.72106
267.72922
267.73738
267.74554
267.7537
267.76186
267.77002
267.77818
267.78634
267.79449
267.80265
267.8108
267.81896
267.82711
267.83526
267.84341
267.85157
267.85972
267.86787
267.87602
267.88417
267.89232
267.90046
267.90861
267.91676
267.9249
267.93304
267.94119
267.94933
267.95747
267.96561
267.97376
267.98189
267.99003
267.99817
268.00631
268.01444
268.02258
268.03071
268.03885
268.04698
268.05512
268.06325
268.07138
268.07951
268.08765
268.09578
268.1039
268.11203
268.12016
268.12829
268.13641
268.14454
268.15266
268.16079
268.16891
268.17703
268.18515
268.19328
268.20139
268.20951
268.21763
268.22575
268.23387
268.24199
268.2501
268.25822
268.26634
268.27445
268.28256
268.29067
268.29878
268.30689
268.315
268.32311
268.33122
268.33932
268.34743
268.35554
268.36364
268.37174
268.37985
268.38795
268.39605
268.40415
268.41224
268.42034
268.42844
268.43654
268.44463
268.45272
268.46082
268.46891
268.477
268.48509
268.49318
268.50127
268.50936
268.51744
268.52553
268.53361
268.54169
268.54978
268.55786
268.56594
268.57402
268.5821
268.59018
268.59826
268.60633
268.61441
268.62249
268.63056
268.63864
268.64671
268.65478
268.66285
268.67092
268.67899
268.68706
268.69513
268.7032
268.71126
268.71933
268.7274
268.73546
268.74353
268.75159
268.75965
268.76772
268.77578
268.78383
268.7919
268.79995
268.80801
268.81607
268.82413
268.83219
268.84024
268.8483
268.85635
268.86441
268.87246
268.88051
268.88856
268.89661
268.90466
268.91271
268.92076
268.92881
268.93685
268.9449
268.95295
268.96099
268.96904
268.97708
268.98512
268.99317
269.0012
269.00925
269.01729
269.02532
269.03336
269.0414
269.04944
269.05748
269.06551
269.07355
269.08158
269.08962
269.09765
269.10568
269.11371
269.12174
269.12977
269.1378
269.14583
269.15386
269.16189
269.16992
269.17794
269.18597
269.19399
269.20201
269.21004
269.21806
269.22608
269.2341
269.24212
269.25014
269.25816
269.26618
269.2742
269.28222
269.29024
269.29825
269.30627
269.31428
269.32229
269.33031
269.33832
269.34633
269.35435
269.36236
269.37037
269.37838
269.38638
269.39439
269.4024
269.41041
269.41842
269.42642
269.43443
269.44243
269.45043
269.45844
269.46644
269.47445
269.48245
269.49045
269.49845
269.50644
269.51445
269.52244
269.53045
269.53844
269.54643
269.55443
269.56242
269.57043
269.57841
269.58641
269.5944
269.60239
269.61039
269.61837
269.62637
269.63435
269.64235
269.65033
269.65832
269.66631
269.67429
269.68228
269.69026
269.69825
269.70622
269.71422
269.72219
269.73018
269.73815
269.74614
269.75411
269.76209
269.77007
269.77805
269.78603
269.794
269.80198
269.80995
269.81793
269.8259
269.83387
269.84185
269.84981
269.8578
269.86575
269.87374
269.8817
269.88967
269.89764
269.9056
269.91358
269.92154
269.9295
269.93747
269.94543
269.9534
269.96136
269.96932
269.97728
269.98525
269.9932
270.00116
270.00912
270.01708
270.02504
270.03299
270.04095
270.04891
270.05686
270.06481
270.07277
270.08072
270.08867
270.09662
270.10457
270.11252
270.12047
270.12841
270.13636
270.14431
270.15225
270.1602
270.16814
270.17609
270.18403
270.19197
270.19991
270.20785
270.21579
270.22373
270.23167
270.2396
270.24754
270.25548
270.26341
270.27134
270.27928
270.28721
270.29514
270.30307
270.311
270.31893
270.32686
270.33479
270.34272
270.35064
270.35857
270.36649
270.37442
270.38234
270.39027
270.39819
270.40611
270.41403
270.42195
270.42987
270.43779
270.44571
270.45363
270.46154
270.46946
270.47738
270.48529
270.49321
270.50112
270.50903
270.51695
270.52486
270.53277
270.54068
270.54859
270.5565
270.56441
270.57232
270.58023
270.58813
270.59604
270.60394
270.61185
270.61976
270.62766
270.63556
270.64347
270.65137
270.65927
270.66717
270.67507
270.68297
270.69087
270.69877
270.70667
270.71457
270.72246
270.73036
270.73825
270.74615
270.75404
270.76193
270.76983
270.77772
270.78561
270.7935
270.80139
270.80928
270.81717
270.82505
270.83294
270.84083
270.84871
270.8566
270.86448
270.87236
270.88025
270.88813
270.89601
270.90389
270.91177
270.91965
270.92752
270.9354
270.94328
270.95115
270.95902
270.9669
270.97477
270.98264
270.99051
270.99838
271.00625
271.01412
271.02198
271.02985
271.03771
271.04558
271.05344
271.0613
271.06916
271.07702
271.08488
271.09274
271.10059
271.10845
271.1163
271.12415
271.132
271.13985
271.1477
271.15554
271.16339
271.17123
271.17907
271.18691
271.19475
271.20259
271.21042
271.21826
271.22609
271.23392
271.24174
271.24957
271.25739
271.26522
271.27304
271.28085
271.28867
271.29648
271.30429
271.3121
271.31991
271.32771
271.33551
271.34331
271.3511
271.3589
271.36669
271.37447
271.38226
271.39004
271.39781
271.40559
271.41336
271.42113
271.42889
271.43665
271.44441
271.45216
271.45991
271.46766
271.4754
271.48313
271.49087
271.49859
271.50632
271.51404
271.52175
271.52946
271.53717
271.54487
271.55256
271.56025
271.56793
271.57561
271.58329
271.59095
271.59861
271.60627
271.61392
271.62156
271.6292
271.63683
271.64445
271.65207
271.65968
271.66728
271.67488
271.68247
271.69005
271.69762
271.70518
271.71274
271.72029
271.72783
271.73536
271.74288
271.75039
271.7579
271.76539
271.77288
271.78036
271.78782
271.79528
271.80272
271.81016
271.81759
271.825
271.8324
271.83979
271.84717
271.85454
271.8619
271.86924
271.87658
271.88389
271.8912
271.89849
271.90578
271.91304
271.9203
271.92754
271.93476
271.94197
271.94917
271.95635
271.96351
271.97067
271.9778
271.98492
271.99202
271.99911
272.00617
272.01322
272.02026
272.02727
272.03427
272.04125
272.04822
272.05516
272.06208
272.06899
272.07588
272.08274
272.08959
272.09642
272.10322
272.11
272.11677
272.12351
272.13023
272.13692
272.1436
272.15026
272.15689
272.1635
272.17008
272.17664
272.18318
272.18969
272.19618
272.20264
272.20908
272.21549
272.22188
272.22824
272.23458
272.24088
272.24716
272.25342
272.25964
272.26584
272.27202
272.27816
272.28428
272.29037
272.29644
272.30247
272.30847
272.31445
272.3204
272.32631
272.3322
272.33805
272.34388
272.34967
272.35543
272.36117
272.36687
272.37254
272.37818
272.38379
272.38937
272.39491
272.40042
272.4059
272.41135
272.41676
272.42215
272.4275
272.43282
272.4381
272.44336
272.44858
272.45376
272.45891
272.46403
272.46911
272.47417
272.47919
272.48417
272.48912
272.49404
272.49892
272.50377
272.50859
272.51337
272.51811
272.52282
272.5275
272.53214
272.53675
272.54133
272.54587
272.55038
272.55485
272.55929
272.5637
272.56808
272.57242
272.57672
272.58099
272.58523
272.58943
272.5936
272.59774
272.60184
272.60591
272.60995
272.61395
272.61792
272.62186
272.62576
272.62963
272.63347
272.63728
272.64105
272.6448
272.64851
272.65218
272.65583
272.65944
272.66302
272.66657
272.67009
272.67358
272.67704
272.68047
272.68387
272.68724
272.69058
272.69388
272.69716
272.70041
272.70362
272.70681
272.70997
272.71311
272.71621
272.71928
272.72233
272.72535
272.72835
272.73131
272.73425
272.73716
272.74004
272.74289
272.74572
272.74853
272.75131
272.75406
272.75679
272.7595
272.76218
272.76483
272.76746
272.77006
272.77264
272.7752
272.77773
272.78025
272.78273
272.7852
272.78764
272.79007
272.79247
272.79485
272.7972
272.79954
272.80185
272.80415
272.80642
272.80868
272.81091
272.81312
272.81532
272.81749
272.81965
272.82178
272.8239
272.826
272.82809
272.83015
272.8322
272.83423
272.83625
272.83824
272.84022
272.84219
272.84414
272.84607
272.84799
272.84989
272.85177
272.85364
272.8555
272.85734
272.85917
272.86098
272.86278
272.86457
272.86634
272.8681
272.86984
272.87158
272.8733
272.875
272.8767
272.87838
272.88005
272.88171
272.88336
272.885
272.88662
272.88824
272.88984
272.89144
272.89302
272.89459
272.89615
272.89771
272.89925
272.90078
272.9023
272.90382
272.90532
272.90682
272.9083
272.90978
272.91125
272.91271
272.91416
272.91561
272.91704
272.91847
272.91989
272.9213
272.92271
272.92411
272.9255
272.92688
272.92826
272.92963
272.93099
272.93234
272.93369
272.93503
272.93637
272.9377
272.93902
272.94034
272.94165
272.94296
272.94426
272.94555
272.94684
272.94813
272.94941
272.95068
272.95195
272.95321
272.95447
272.95572
272.95697
272.95821
272.95945
272.96068
272.96191
272.96313
272.96435
272.96557
272.96678
272.96798
272.96919
272.97038
272.97158
272.97277
272.97395
272.97514
272.97632
272.97749
272.97866
272.97983
272.98099
272.98215
272.98331
272.98446
272.98561
272.98676
272.9879
272.98904
272.99018
272.99131
272.99244
272.99357
272.99469
272.99581
272.99693
272.99805
272.99916
273.00027
273.00138
273.00249
273.00359
273.00469
273.00578
273.00687
273.00796
273.00905
273.01014
273.01122
273.0123
273.01338
273.01446
273.01553
273.0166
273.01767
273.01874
273.0198
273.02086
273.02192
273.02298
273.02403
273.02508
273.02613
273.02718
273.02823
273.02927
273.03031
273.03135
273.03239
273.03343
273.03446
273.03549
273.03652
273.03755
273.03857
273.0396
273.04062
273.04164
273.04266
273.04368
273.04469
273.0457
273.04671
273.04772
273.04873
273.04974
273.05074
273.05174
273.05274
273.05374
273.05473
273.05573
273.05672
273.05771
273.0587
273.05969
273.06067
273.06166
273.06264
273.06362
273.0646
273.06558
273.06655
273.06752
273.06849
273.06946
273.07043
273.0714
273.07236
273.07333
273.07429
273.07525
273.0762
273.07716
273.07811
273.07907
273.08002
273.08096
273.08191
273.08286
273.0838
273.08474
273.08568
273.08662
273.08756
273.08849
273.08943
273.09036
273.09129
273.09222
273.09314
273.09407
273.09499
273.09591
273.09683
273.09774
273.09866
273.09957
273.10048
273.10139
273.1023
273.10321
273.10411
273.10501
273.10591
273.10681
273.1077
273.1086
273.10949
273.11038
273.11127
273.11216
273.11304
273.11392
273.1148
273.11568
273.11655
273.11743
273.1183
273.11917
273.12004
273.1209
273.12177
273.12263
273.12349
273.12435
273.1252
273.12606
273.12691
273.12776
273.12861
273.12945
273.1303
273.13114
273.13198
273.13281
273.13365
273.13448
273.13531
273.13613
273.13696
273.13778
273.1386
273.13942
273.14024
273.14105
273.14186
273.14267
273.14348
273.14428
273.14509
273.14589
273.14669
273.14748
273.14828
273.14907
273.14986
273.15065
273.15144
273.15222
273.153
273.15378
273.15456
273.15533
273.1561
273.15687
273.15764
273.1584
273.15916
273.15992
273.16068
273.16143
273.16218
273.16293
273.16368
273.16443
273.16518
273.16592
273.16666
273.16739
273.16813
273.16886
273.16959
273.17032
273.17104
273.17176
273.17248
273.1732
273.17392
273.17463
273.17534
273.17605
273.17676
273.17746
273.17816
273.17886
273.17956
273.18026
273.18095
273.18164
273.18233
273.18302
273.1837
273.18438
273.18506
273.18574
273.18642
273.18709
273.18776
273.18843
273.1891
273.18977
273.19043
273.19109
273.19175
273.19241
273.19306
273.19371
273.19436
273.19501
273.19566
273.1963
273.19694
273.19758
273.19822
273.19886
273.19949
273.20012
273.20075
273.20138
273.20201
273.20263
273.20325
273.20388
273.20449
273.20511
273.20573
273.20634
273.20695
273.20756
273.20817
273.20877
273.20937
273.20997
273.21057
273.21117
273.21177
273.21236
273.21295
273.21354
273.21413
273.21472
273.2153
273.21588
273.21646
273.21704
273.21762
273.21819
273.21877
273.21934
273.21991
273.22048
273.22104
273.22161
273.22217
273.22273
273.22329
273.22384
273.2244
273.22495
273.2255
273.22605
273.2266
273.22715
273.22769
273.22823
273.22877
273.22931
273.22985
273.23039
273.23092
273.23145
273.23198
273.23251
273.23304
273.23356
273.23408
273.2346
273.23512
273.23563
273.23615
273.23666
273.23717
273.23767
273.23818
273.23868
273.23919
273.23969
273.24019
273.24068
273.24118
273.24168
273.24217
273.24266
273.24315
273.24364
273.24412
273.2446
273.24508
273.24556
273.24603
273.24651
273.24698
273.24744
273.24791
273.24837
273.24884
273.2493
273.24976
273.25021
273.25067
273.25112
273.25157
273.25202
273.25247
273.25292
273.25336
273.2538
273.25424
273.25468
273.25511
273.25555
273.25598
273.2564
273.25683
273.25725
273.25767
273.25809
273.25851
273.25892
273.25934
273.25975
273.26016
273.26056
273.26097
273.26137
273.26177
273.26217
273.26257
273.26296
273.26335
273.26375
273.26413
273.26452
273.2649
273.26529
273.26566
273.26604
273.26641
273.26679
273.26716
273.26752
273.26789
273.26825
273.26862
273.26897
273.26933
273.26969
273.27004
273.27039
273.27074
273.27108
273.27143
273.27177
273.27211
273.27244
273.27278
273.27311
273.27344
273.27377
273.2741
273.27442
273.27474
273.27506
273.27538
273.2757
273.27601
273.27632
273.27663
273.27694
273.27724
273.27754
273.27784
273.27814
273.27843
273.27872
273.27901
273.2793
273.27959
273.27988
273.28016
273.28044
273.28072
273.281
273.28128
273.28155
273.28182
273.28209
273.28235
273.28262
273.28288
273.28313
273.28339
273.28364
273.28389
273.28414
273.28439
273.28464
273.28488
273.28512
273.28536
273.2856
273.28584
273.28607
273.2863
273.28653
273.28675
273.28698
273.2872
273.28742
273.28764
273.28786
273.28807
273.28829
273.2885
273.2887
273.28891
273.28911
273.28931
273.28951
273.28971
273.2899
273.2901
273.29029
273.29048
273.29066
273.29085
273.29103
273.29121
273.29139
273.29157
273.29174
273.29191
273.29208
273.29225
273.29242
273.29259
273.29275
273.29291
273.29307
273.29323
273.29339
273.29354
273.29369
273.29384
273.29399
273.29414
273.29428
273.29442
273.29457
273.2947
273.29484
273.29498
273.29511
273.29524
273.29537
273.2955
273.29562
273.29575
273.29587
273.29599
273.29611
273.29622
273.29633
273.29644
273.29655
273.29666
273.29676
273.29687
273.29697
273.29706
273.29716
273.29725
273.29735
273.29744
273.29752
273.29761
273.29769
273.29778
273.29786
273.29794
273.29801
273.29809
273.29816
273.29823
273.2983
273.29836
273.29843
273.29849
273.29855
273.29861
273.29867
273.29872
273.29877
273.29882
273.29887
273.29892
273.29896
273.29901
273.29905
273.29909
273.29913
273.29917
273.29921
273.29924
273.29927
273.2993
273.29933
273.29936
273.29938
273.2994
273.29942
273.29944
273.29946
273.29947
273.29949
273.2995
273.29951
273.29951
273.29952
273.29952
273.29953
273.29953
273.29953
273.29952
273.29952
273.29951
273.2995
273.29949
273.29948
273.29947
273.29945
273.29944
273.29942
273.2994
273.29938
273.29936
273.29933
273.2993
273.29927
273.29924
273.29921
273.29917
273.29914
273.29909
273.29905
273.299
273.29896
273.29891
273.29885
273.2988
273.29875
273.29869
273.29863
273.29857
273.29851
273.29845
273.29838
273.29832
273.29825
273.29818
273.2981
273.29803
273.29795
273.29787
273.29779
273.29771
273.29763
273.29754
273.29746
273.29737
273.29728
273.29719
273.29709
273.297
273.2969
273.2968
273.2967
273.29659
273.29648
273.29638
273.29626
273.29615
273.29604
273.29592
273.2958
273.29569
273.29556
273.29544
273.29532
273.29519
273.29506
273.29493
273.2948
273.29467
273.29453
273.29439
273.29425
273.29411
273.29397
273.29382
273.29368
273.29353
273.29338
273.29323
273.29307
273.29292
273.29276
273.2926
273.29244
273.29228
273.29212
273.29195
273.29179
273.29162
273.29145
273.29128
273.2911
273.29092
273.29075
273.29057
273.29039
273.2902
273.29002
273.28983
273.28964
273.28945
273.28925
273.28905
273.28886
273.28866
273.28846
273.28826
273.28806
273.28786
273.28765
273.28745
273.28724
273.28703
273.28682
273.2866
273.28639
273.28617
273.28594
273.28572
273.2855
273.28527
273.28504
273.28482
273.28459
273.28436
273.28413
273.2839
273.28366
273.28343
273.28319
273.28295
273.28271
273.28246
273.28222
273.28198
273.28173
273.28149
273.28124
273.28099
273.28074
273.28048
273.28023
273.27997
273.27972
273.27946
273.2792
273.27894
273.27867
273.27841
273.27813
273.27788
273.27759
273.27733
273.27705
273.27678
273.27652
273.27622
273.27597
273.27568
273.2754
273.27514
273.27485
273.27458
273.2743
273.27401
273.27374
273.27345
273.27316
273.27289
273.2726
273.27231
273.27203
273.27173
273.27143
273.27115
273.27084
273.27054
273.27025
273.26995
273.26964
273.26934
273.26904
273.26873
273.26842
273.26812
273.26779
273.26746
273.26715
273.26682
273.26648
273.26615
273.26582
273.26547
273.2651
273.26475
273.26439
273.26401
273.26362
273.26322
273.26284
273.26243
273.26201
273.26159
273.26119
273.26077
273.26031
273.25984
273.25938
273.25893
273.25845
273.25794
273.25744
273.25698
273.25651
273.25601
273.25548
273.25495
273.25445
273.25396
273.25345
273.2529
273.25236
273.25189
273.25147
273.25105
273.2506
273.25014
273.24971
273.24935
273.24904
273.24872
273.24836
273.24795
273.24758
273.24728
273.24706
273.24686
273.2466
273.24625
273.24585
273.24547
273.24519
273.24502
273.24486
273.24461
273.24422
273.24373
273.24322
273.24278
273.24245
273.2422
273.24194
273.24159
273.2411
273.24047
273.23973
273.23895
273.23822
273.23758
273.23707
273.23669
273.23643
273.23628
273.2362
273.23618
273.23627
273.23675
273.23836
273.24319
273.25701
273.29621
273.4073
273.72346
274.44944
275.32184
276.25633
277.23123
278.22453
279.21504
280.18343
281.11302
281.99015
282.80447
283.54903
284.22004
284.8166
285.34016
285.79401
286.18275
286.51184
286.78722
287.01501
287.20129
287.35194
287.47247
287.56794
287.64282
287.70101
287.7458
287.77993
287.80563
287.82471
287.83863
287.84855
287.85542
287.85998
287.86283
287.86443
287.86519
287.86543
287.86543
287.86529
287.86463
287.86312
287.86159
287.86015
287.85879
287.8575
287.85625
287.85505
287.85389
287.85275
287.85164
287.85055
287.84948
287.84843
287.8474
287.84637
287.84536
287.84435
287.84334
287.84234
287.84133
287.84032
287.83929
287.83825
287.8372
287.83614
287.83505
287.83395
287.83283
287.83169
287.83054
287.82937
287.82819
287.82701
287.82581
287.82462
287.82342
287.82222
287.82102
287.81983
287.81865
287.81747
287.81631
287.81515
287.81401
287.81287
287.81175
287.81065
287.80955
287.80847
287.8074
287.80635
287.8053
287.80426
287.80324
287.80222
287.80121
287.80021
287.79921
287.79822
287.79723
287.79625
287.79527
287.7943
287.79333
287.79236
287.79139
287.79042
287.78946
287.7885
287.78754
287.78658
287.78562
287.78467
287.78371
287.78275
287.7818
287.78084
287.77989
287.77893
287.77798
287.77702
287.77606
287.77511
287.77415
287.77319
287.77223
287.77127
287.77031
287.76935
287.76839
287.76742
287.76646
287.7655
287.76453
287.76357
287.7626
287.76164
287.76067
287.7597
287.75873
287.75776
287.75679
287.75582
287.75485
287.75387
287.7529
287.75192
287.75094
287.74996
287.74897
287.74799
287.747
287.74601
287.74502
287.74404
287.74304
287.74205
287.74106
287.74006
287.73907
287.73807
287.73707
287.73607
287.73507
287.73407
287.73306
287.73205
287.73105
287.73004
287.72903
287.72801
287.727
287.72598
287.72497
287.72395
287.72293
287.7219
287.72088
287.71985
287.71883
287.7178
287.71676
287.71573
287.7147
287.71366
287.71262
287.71158
287.71054
287.7095
287.70845
287.70741
287.70636
287.70531
287.70426
287.7032
287.70215
287.70109
287.70003
287.69897
287.69791
287.69685
287.69578
287.69472
287.69365
287.69258
287.6915
287.69043
287.68935
287.68827
287.68719
287.68611
287.68503
287.68394
287.68286
287.68177
287.68068
287.67958
287.67849
287.67739
287.6763
287.6752
287.6741
287.67299
287.67189
287.67078
287.66968
287.66857
287.66746
287.66634
287.66523
287.66411
287.663
287.66188
287.66075
287.65963
287.65851
287.65738
287.65625