/*--------------------------------*- C++ -*----------------------------------*\
  =========                 |
  \\      /  F ield         | OpenFOAM: The Open Source CFD Toolbox
   \\    /   O peration     | Website:  https://openfoam.org
    \\  /    A nd           | Version:  7
     \\/     M anipulation  |
\*---------------------------------------------------------------------------*/
FoamFile
{
    version     2.0;
    format      ascii;
    class       surfaceScalarField;
    location    "0.0035";
    object      phi;
}
// * * * * * * * * * * * * * * * * * * * * * * * * * * * * * * * * * * * * * //

dimensions      [1 0 -1 0 0 0 0];

internalField   nonuniform List<scalar> 
4999
(
0.0037567516
0.003756739
0.0037567274
0.0037567158
0.003756704
0.0037566921
0.00375668
0.0037566679
0.0037566556
0.0037566433
0.0037566309
0.0037566185
0.0037566061
0.0037565937
0.0037565813
0.0037565688
0.0037565564
0.003756544
0.0037565316
0.0037565191
0.0037565067
0.0037564943
0.0037564818
0.0037564694
0.003756457
0.0037564446
0.0037564322
0.0037564197
0.0037564073
0.0037563949
0.0037563825
0.0037563701
0.0037563577
0.0037563453
0.0037563328
0.0037563204
0.003756308
0.0037562956
0.0037562832
0.0037562708
0.0037562584
0.003756246
0.0037562336
0.0037562212
0.0037562088
0.0037561963
0.0037561839
0.0037561715
0.0037561591
0.0037561467
0.0037561343
0.0037561219
0.0037561095
0.0037560971
0.0037560847
0.0037560723
0.0037560599
0.0037560475
0.0037560351
0.0037560227
0.0037560103
0.0037559979
0.0037559854
0.003755973
0.0037559606
0.0037559482
0.0037559358
0.0037559233
0.0037559109
0.0037558985
0.003755886
0.0037558736
0.0037558611
0.0037558487
0.0037558363
0.0037558238
0.0037558114
0.0037557989
0.0037557864
0.003755774
0.0037557615
0.0037557491
0.0037557366
0.0037557241
0.0037557116
0.0037556991
0.0037556867
0.0037556742
0.0037556617
0.0037556492
0.0037556366
0.0037556241
0.0037556116
0.0037555991
0.0037555866
0.003755574
0.0037555615
0.003755549
0.0037555364
0.0037555239
0.0037555113
0.0037554988
0.0037554862
0.0037554737
0.0037554611
0.0037554485
0.003755436
0.0037554234
0.0037554108
0.0037553982
0.0037553856
0.003755373
0.0037553604
0.0037553478
0.0037553352
0.0037553226
0.0037553099
0.0037552973
0.0037552847
0.003755272
0.0037552594
0.0037552467
0.0037552341
0.0037552214
0.0037552088
0.0037551961
0.0037551834
0.0037551708
0.0037551581
0.0037551454
0.0037551327
0.00375512
0.0037551073
0.0037550946
0.0037550819
0.0037550692
0.0037550565
0.0037550438
0.0037550311
0.0037550184
0.0037550056
0.0037549929
0.0037549802
0.0037549675
0.0037549547
0.003754942
0.0037549293
0.0037549165
0.0037549038
0.003754891
0.0037548783
0.0037548655
0.0037548528
0.00375484
0.0037548272
0.0037548145
0.0037548017
0.0037547889
0.0037547761
0.0037547634
0.0037547506
0.0037547378
0.003754725
0.0037547122
0.0037546994
0.0037546866
0.0037546738
0.003754661
0.0037546483
0.0037546355
0.0037546227
0.0037546099
0.0037545971
0.0037545843
0.0037545715
0.0037545587
0.0037545459
0.0037545331
0.0037545203
0.0037545075
0.0037544946
0.0037544818
0.003754469
0.0037544562
0.0037544434
0.0037544306
0.0037544178
0.003754405
0.0037543922
0.0037543794
0.0037543666
0.0037543538
0.003754341
0.0037543282
0.0037543154
0.0037543026
0.0037542899
0.0037542771
0.0037542643
0.0037542515
0.0037542388
0.003754226
0.0037542132
0.0037542005
0.0037541877
0.003754175
0.0037541622
0.0037541495
0.0037541368
0.003754124
0.0037541113
0.0037540986
0.0037540859
0.0037540732
0.0037540605
0.0037540478
0.0037540352
0.0037540225
0.0037540098
0.0037539972
0.0037539845
0.0037539719
0.0037539593
0.0037539466
0.003753934
0.0037539214
0.0037539088
0.0037538962
0.0037538836
0.0037538711
0.0037538585
0.0037538459
0.0037538334
0.0037538208
0.0037538083
0.0037537958
0.0037537833
0.0037537708
0.0037537583
0.0037537458
0.0037537333
0.0037537209
0.0037537085
0.003753696
0.0037536836
0.0037536712
0.0037536588
0.0037536464
0.0037536341
0.0037536217
0.0037536093
0.003753597
0.0037535847
0.0037535724
0.0037535601
0.0037535478
0.0037535355
0.0037535232
0.003753511
0.0037534987
0.0037534865
0.0037534743
0.0037534621
0.0037534499
0.0037534378
0.0037534256
0.0037534135
0.0037534014
0.0037533893
0.0037533772
0.0037533651
0.003753353
0.0037533409
0.0037533289
0.0037533169
0.0037533049
0.0037532929
0.0037532809
0.0037532689
0.0037532569
0.003753245
0.0037532331
0.0037532212
0.0037532092
0.0037531974
0.0037531855
0.0037531736
0.0037531618
0.0037531499
0.0037531381
0.0037531263
0.0037531145
0.0037531028
0.003753091
0.0037530792
0.0037530675
0.0037530558
0.0037530441
0.0037530324
0.0037530207
0.0037530091
0.0037529974
0.0037529858
0.0037529741
0.0037529625
0.0037529509
0.0037529393
0.0037529277
0.0037529161
0.0037529045
0.003752893
0.0037528814
0.0037528699
0.0037528583
0.0037528468
0.0037528353
0.0037528238
0.0037528123
0.0037528008
0.0037527893
0.0037527778
0.0037527663
0.0037527549
0.0037527434
0.003752732
0.0037527205
0.0037527091
0.0037526976
0.0037526862
0.0037526748
0.0037526634
0.003752652
0.0037526406
0.0037526292
0.0037526178
0.0037526064
0.003752595
0.0037525837
0.0037525723
0.003752561
0.0037525496
0.0037525383
0.0037525269
0.0037525156
0.0037525043
0.003752493
0.0037524817
0.0037524703
0.003752459
0.0037524477
0.0037524364
0.0037524251
0.0037524138
0.0037524025
0.0037523912
0.0037523799
0.0037523687
0.0037523574
0.0037523461
0.0037523348
0.0037523235
0.0037523122
0.003752301
0.0037522897
0.0037522784
0.0037522671
0.0037522558
0.0037522445
0.0037522333
0.003752222
0.0037522107
0.0037521994
0.0037521881
0.0037521768
0.0037521655
0.0037521542
0.0037521429
0.0037521316
0.0037521203
0.003752109
0.0037520977
0.0037520864
0.0037520751
0.0037520638
0.0037520525
0.0037520412
0.0037520298
0.0037520185
0.0037520072
0.0037519959
0.0037519845
0.0037519732
0.0037519619
0.0037519505
0.0037519392
0.0037519279
0.0037519166
0.0037519052
0.0037518938
0.0037518824
0.003751871
0.0037518596
0.0037518483
0.0037518369
0.0037518255
0.0037518141
0.0037518027
0.0037517913
0.0037517799
0.0037517685
0.0037517571
0.0037517457
0.0037517342
0.0037517228
0.0037517114
0.0037517
0.0037516885
0.0037516771
0.0037516657
0.0037516542
0.0037516427
0.0037516313
0.0037516198
0.0037516084
0.0037515969
0.0037515854
0.0037515739
0.0037515624
0.003751551
0.0037515395
0.003751528
0.0037515165
0.0037515049
0.0037514934
0.0037514819
0.0037514704
0.0037514589
0.0037514474
0.0037514358
0.0037514243
0.0037514128
0.0037514012
0.0037513897
0.0037513781
0.0037513666
0.003751355
0.0037513435
0.0037513319
0.0037513204
0.0037513088
0.0037512973
0.0037512857
0.0037512741
0.0037512625
0.003751251
0.0037512394
0.0037512278
0.0037512162
0.0037512046
0.0037511931
0.0037511815
0.0037511699
0.0037511583
0.0037511467
0.0037511351
0.0037511235
0.0037511118
0.0037511002
0.0037510886
0.003751077
0.0037510654
0.0037510538
0.0037510421
0.0037510305
0.0037510189
0.0037510072
0.0037509956
0.0037509839
0.0037509723
0.0037509606
0.003750949
0.0037509374
0.0037509257
0.0037509141
0.0037509024
0.0037508907
0.0037508791
0.0037508674
0.0037508558
0.0037508441
0.0037508324
0.0037508207
0.0037508091
0.0037507974
0.0037507857
0.003750774
0.0037507623
0.0037507507
0.003750739
0.0037507274
0.0037507157
0.0037507041
0.0037506924
0.0037506808
0.0037506691
0.0037506575
0.0037506458
0.0037506342
0.0037506226
0.0037506109
0.0037505993
0.0037505877
0.003750576
0.0037505644
0.0037505528
0.0037505412
0.0037505296
0.003750518
0.0037505064
0.0037504948
0.0037504832
0.0037504717
0.0037504601
0.0037504485
0.003750437
0.0037504254
0.0037504138
0.0037504023
0.0037503907
0.0037503791
0.0037503676
0.0037503561
0.0037503445
0.003750333
0.0037503215
0.00375031
0.0037502984
0.0037502869
0.0037502754
0.0037502639
0.0037502524
0.0037502409
0.0037502295
0.003750218
0.0037502065
0.0037501951
0.0037501836
0.0037501722
0.0037501607
0.0037501493
0.0037501379
0.0037501265
0.0037501151
0.0037501037
0.0037500924
0.003750081
0.0037500696
0.0037500583
0.003750047
0.0037500356
0.0037500243
0.003750013
0.0037500017
0.0037499905
0.0037499792
0.003749968
0.0037499567
0.0037499455
0.0037499343
0.0037499231
0.0037499119
0.0037499007
0.0037498896
0.0037498784
0.0037498673
0.0037498562
0.0037498451
0.003749834
0.003749823
0.0037498119
0.0037498009
0.0037497899
0.0037497789
0.0037497679
0.003749757
0.003749746
0.0037497351
0.0037497242
0.0037497133
0.0037497024
0.0037496916
0.0037496808
0.00374967
0.0037496592
0.0037496484
0.0037496377
0.003749627
0.0037496163
0.0037496056
0.0037495949
0.0037495842
0.0037495736
0.003749563
0.0037495524
0.0037495419
0.0037495314
0.0037495209
0.0037495104
0.0037494999
0.0037494895
0.0037494791
0.0037494687
0.0037494583
0.003749448
0.0037494377
0.0037494274
0.0037494172
0.0037494069
0.0037493967
0.0037493866
0.0037493764
0.0037493663
0.0037493562
0.0037493462
0.0037493361
0.0037493261
0.0037493161
0.0037493062
0.0037492963
0.0037492864
0.0037492766
0.0037492667
0.003749257
0.0037492472
0.0037492375
0.0037492277
0.0037492181
0.0037492084
0.0037491988
0.0037491892
0.0037491797
0.0037491702
0.0037491607
0.0037491512
0.0037491418
0.0037491324
0.0037491231
0.0037491138
0.0037491045
0.0037490952
0.003749086
0.0037490769
0.0037490677
0.0037490586
0.0037490496
0.0037490405
0.0037490315
0.0037490225
0.0037490136
0.0037490047
0.0037489959
0.003748987
0.0037489783
0.0037489695
0.0037489608
0.0037489522
0.0037489435
0.003748935
0.0037489264
0.0037489179
0.0037489094
0.003748901
0.0037488926
0.0037488842
0.0037488759
0.0037488676
0.0037488594
0.0037488512
0.0037488431
0.003748835
0.0037488269
0.0037488189
0.0037488109
0.003748803
0.0037487951
0.0037487872
0.0037487794
0.0037487716
0.0037487639
0.0037487562
0.0037487486
0.003748741
0.0037487334
0.0037487259
0.0037487185
0.003748711
0.0037487037
0.0037486963
0.003748689
0.0037486818
0.0037486746
0.0037486674
0.0037486603
0.0037486533
0.0037486463
0.0037486393
0.0037486324
0.0037486256
0.0037486188
0.0037486121
0.0037486054
0.0037485987
0.0037485922
0.0037485856
0.0037485792
0.0037485727
0.0037485664
0.0037485601
0.0037485538
0.0037485476
0.0037485415
0.0037485354
0.0037485294
0.0037485234
0.0037485175
0.0037485117
0.0037485059
0.0037485002
0.0037484945
0.0037484889
0.0037484834
0.0037484779
0.0037484725
0.0037484672
0.0037484619
0.0037484567
0.0037484515
0.0037484465
0.0037484414
0.0037484365
0.0037484317
0.0037484269
0.0037484222
0.0037484175
0.0037484129
0.0037484084
0.0037484039
0.0037483996
0.0037483952
0.003748391
0.0037483868
0.0037483826
0.0037483785
0.0037483745
0.0037483706
0.0037483667
0.003748363
0.0037483593
0.0037483558
0.0037483523
0.0037483489
0.0037483456
0.0037483424
0.0037483393
0.0037483362
0.0037483333
0.0037483304
0.0037483276
0.0037483249
0.0037483222
0.0037483197
0.0037483172
0.0037483148
0.0037483126
0.0037483104
0.0037483083
0.0037483063
0.0037483044
0.0037483026
0.0037483009
0.0037482992
0.0037482977
0.0037482963
0.003748295
0.0037482937
0.0037482926
0.0037482915
0.0037482905
0.0037482897
0.003748289
0.0037482885
0.0037482881
0.0037482878
0.0037482876
0.0037482875
0.0037482875
0.0037482876
0.0037482878
0.0037482882
0.0037482886
0.0037482892
0.0037482899
0.0037482908
0.0037482917
0.0037482928
0.0037482939
0.0037482952
0.0037482966
0.0037482981
0.0037482997
0.0037483015
0.0037483035
0.0037483056
0.0037483078
0.0037483102
0.0037483127
0.0037483153
0.0037483181
0.003748321
0.0037483241
0.0037483272
0.0037483306
0.0037483341
0.0037483377
0.0037483414
0.0037483454
0.0037483494
0.0037483536
0.003748358
0.0037483625
0.0037483671
0.0037483719
0.0037483769
0.003748382
0.0037483872
0.0037483926
0.0037483981
0.0037484038
0.0037484096
0.0037484156
0.0037484218
0.003748428
0.0037484345
0.0037484411
0.0037484478
0.0037484547
0.0037484617
0.0037484689
0.0037484763
0.0037484838
0.0037484915
0.0037484993
0.0037485073
0.0037485155
0.0037485238
0.0037485323
0.0037485409
0.0037485497
0.0037485586
0.0037485677
0.003748577
0.0037485864
0.003748596
0.0037486057
0.0037486157
0.0037486258
0.003748636
0.0037486465
0.0037486571
0.0037486679
0.0037486788
0.0037486899
0.0037487012
0.0037487126
0.0037487243
0.0037487361
0.003748748
0.0037487602
0.0037487725
0.003748785
0.0037487976
0.0037488105
0.0037488235
0.0037488367
0.00374885
0.0037488636
0.0037488773
0.0037488912
0.0037489053
0.0037489196
0.0037489341
0.0037489487
0.0037489635
0.0037489785
0.0037489937
0.003749009
0.0037490245
0.0037490402
0.003749056
0.003749072
0.0037490882
0.0037491045
0.003749121
0.0037491376
0.0037491544
0.0037491714
0.0037491886
0.003749206
0.0037492235
0.0037492412
0.0037492591
0.0037492771
0.0037492954
0.0037493138
0.0037493323
0.003749351
0.0037493699
0.003749389
0.0037494082
0.0037494276
0.0037494471
0.0037494668
0.0037494867
0.0037495067
0.0037495269
0.0037495472
0.0037495677
0.0037495884
0.0037496092
0.0037496301
0.0037496512
0.0037496725
0.0037496939
0.0037497154
0.0037497371
0.003749759
0.003749781
0.0037498031
0.0037498254
0.0037498479
0.0037498705
0.0037498932
0.003749916
0.003749939
0.0037499621
0.0037499853
0.0037500086
0.003750032
0.0037500556
0.0037500792
0.0037501029
0.0037501269
0.003750151
0.003750175
0.0037501992
0.0037502234
0.0037502478
0.0037502724
0.003750297
0.0037503217
0.0037503464
0.0037503713
0.0037503961
0.0037504211
0.0037504461
0.0037504711
0.0037504963
0.0037505214
0.0037505466
0.0037505719
0.0037505972
0.0037506225
0.0037506479
0.0037506733
0.0037506987
0.0037507241
0.0037507495
0.0037507749
0.0037508003
0.0037508257
0.0037508511
0.0037508764
0.0037509018
0.003750927
0.0037509523
0.0037509774
0.0037510025
0.0037510275
0.0037510524
0.0037510773
0.0037511019
0.0037511265
0.0037511509
0.0037511752
0.0037511993
0.0037512233
0.0037512471
0.0037512706
0.003751294
0.0037513171
0.00375134
0.0037513626
0.003751385
0.003751407
0.0037514288
0.0037514502
0.0037514713
0.0037514921
0.0037515125
0.0037515324
0.003751552
0.0037515711
0.0037515897
0.0037516078
0.0037516254
0.0037516424
0.0037516589
0.0037516747
0.0037516898
0.0037517043
0.0037517181
0.0037517311
0.0037517433
0.0037517546
0.0037517651
0.0037517746
0.0037517831
0.0037517906
0.003751797
0.0037518023
0.0037518064
0.0037518093
0.0037518109
0.0037518112
0.0037518101
0.0037518076
0.0037518035
0.0037517979
0.0037517906
0.0037517815
0.0037517707
0.0037517579
0.0037517432
0.0037517264
0.0037517074
0.0037516862
0.0037516626
0.0037516365
0.0037516079
0.0037515766
0.0037515426
0.0037515057
0.0037514657
0.0037514226
0.0037513761
0.0037513263
0.0037512728
0.0037512155
0.0037511542
0.0037510889
0.0037510194
0.0037509455
0.003750867
0.0037507837
0.0037506955
0.0037506021
0.0037505032
0.0037503987
0.0037502883
0.0037501717
0.0037500487
0.0037499191
0.0037497826
0.0037496388
0.0037494876
0.0037493285
0.0037491612
0.0037489855
0.0037488009
0.0037486071
0.0037484038
0.0037481905
0.0037479667
0.0037477322
0.0037474864
0.0037472288
0.0037469591
0.0037466766
0.0037463808
0.0037460713
0.0037457473
0.0037454085
0.003745054
0.0037446834
0.003744296
0.003743891
0.0037434677
0.0037430255
0.0037425635
0.003742081
0.0037415771
0.003741051
0.0037405017
0.0037399284
0.00373933
0.0037387056
0.0037380541
0.0037373744
0.0037366653
0.0037359258
0.0037351546
0.0037343503
0.0037335118
0.0037326376
0.0037317263
0.0037307764
0.0037297864
0.0037287547
0.0037276797
0.0037265595
0.0037253924
0.0037241767
0.0037229102
0.0037215911
0.0037202173
0.0037187865
0.0037172966
0.0037157452
0.00371413
0.0037124483
0.0037106976
0.0037088752
0.0037069783
0.0037050039
0.003702949
0.0037008106
0.0036985852
0.0036962696
0.0036938602
0.0036913534
0.0036887454
0.0036860322
0.0036832098
0.003680274
0.0036772203
0.0036740442
0.003670741
0.0036673057
0.0036637333
0.0036600186
0.0036561559
0.0036521397
0.0036479641
0.0036436228
0.0036391097
0.0036344181
0.0036295411
0.0036244718
0.0036192028
0.0036137264
0.0036080348
0.0036021197
0.0035959728
0.0035895851
0.0035829476
0.0035760508
0.0035688849
0.0035614396
0.0035537046
0.0035456688
0.0035373209
0.0035286491
0.0035196414
0.0035102849
0.0035005668
0.0034904734
0.0034799907
0.003469104
0.0034577984
0.0034460582
0.0034338671
0.0034212085
0.0034080648
0.0033944181
0.0033802498
0.0033655404
0.0033502699
0.0033344176
0.003317962
0.0033008808
0.0032831509
0.0032647485
0.0032456488
0.0032258263
0.0032052543
0.0031839054
0.0031617512
0.0031387621
0.0031149078
0.0030901567
0.003064476
0.003037832
0.0030101895
0.0029815124
0.0029517632
0.002920903
0.0028888916
0.0028556874
0.0028212475
0.0027855272
0.0027484804
0.0027100596
0.0026702153
0.0026288965
0.0025860504
0.0025416225
0.0024955561
0.002447793
0.0023982726
0.0023469324
0.0022937079
0.0022385321
0.0021813359
0.0021220479
0.0020605943
0.0019968985
0.0019308816
0.001862462
0.0017915553
0.0017180743
0.0016419288
0.0015630256
0.0014812685
0.0013965579
0.001308791
0.0012178616
0.0011236598
0.0010260723
0.00092498194
0.00082026756
0.00071180419
0.00059946265
0.00048310957
0.00036260718
0.00023781318
0.00010858057
-2.5242472e-05
-0.00016381288
-0.00030729327
-0.00045585468
-0.00060968321
-0.0007689406
-0.0009338064
-0.001104461
-0.001281109
-0.0014639491
-0.0016531862
-0.0018490342
-0.0020517135
-0.0022614505
-0.0024784789
-0.0027030397
-0.0029353812
-0.0031757597
-0.003424439
-0.0036816914
-0.0039477974
-0.0042230459
-0.004507735
-0.0048021713
-0.005106671
-0.0054215596
-0.0057471721
-0.0060838536
-0.0064319593
-0.0067918546
-0.0071639158
-0.0075485299
-0.0079460953
-0.0083570217
-0.0087817305
-0.0092206552
-0.0096742417
-0.010142948
-0.010627246
-0.011127618
-0.011644564
-0.012178594
-0.012730234
-0.013300022
-0.013888513
-0.014496276
-0.015123895
-0.015771968
-0.016441111
-0.017131954
-0.017845145
-0.018581347
-0.01934124
-0.020125522
-0.020934907
-0.021770128
-0.022631935
-0.023521095
-0.024438395
-0.025384639
-0.02636065
-0.02736727
-0.028405359
-0.029475799
-0.030579487
-0.031717342
-0.032890302
-0.034099325
-0.035345386
-0.036629483
-0.037952632
-0.039315868
-0.040720246
-0.042166841
-0.043656747
-0.045191077
-0.046770962
-0.048397554
-0.05007202
-0.051795549
-0.053569344
-0.055394628
-0.057272639
-0.059204632
-0.061191878
-0.063235661
-0.065337282
-0.067498053
-0.069719299
-0.072002358
-0.074348577
-0.076759315
-0.079235935
-0.081779811
-0.084392321
-0.087074848
-0.089828778
-0.092655498
-0.095556395
-0.098532853
-0.10158625
-0.10471797
-0.10792937
-0.11122181
-0.11459663
-0.11805517
-0.12159874
-0.12522862
-0.1289461
-0.13275241
-0.13664878
-0.14063639
-0.1447164
-0.14888993
-0.15315805
-0.15752179
-0.16198216
-0.16654009
-0.17119646
-0.17595212
-0.18080783
-0.18576431
-0.19082219
-0.19598206
-0.20124441
-0.20660967
-0.21207819
-0.21765023
-0.22332597
-0.22910549
-0.23498878
-0.24097576
-0.24706621
-0.25325984
-0.25955624
-0.2659549
-0.27245519
-0.27905639
-0.28575766
-0.29255803
-0.29945643
-0.30645166
-0.31354241
-0.32072726
-0.32800465
-0.33537292
-0.34283027
-0.35037479
-0.35800445
-0.36571712
-0.37351053
-0.38138229
-0.38932993
-0.39735084
-0.40544232
-0.41360156
-0.42182564
-0.43011156
-0.4384562
-0.44685639
-0.45530883
-0.46381018
-0.47235699
-0.48094577
-0.48957295
-0.49823491
-0.50692796
-0.51564838
-0.5243924
-0.53315624
-0.54193605
-0.55072799
-0.55952818
-0.56833275
-0.57713783
-0.58593955
-0.59473407
-0.60351753
-0.61228615
-0.62103613
-0.62976374
-0.63846527
-0.64713709
-0.65577561
-0.66437728
-0.67293865
-0.68145631
-0.68992696
-0.69834736
-0.70671434
-0.71502485
-0.72327591
-0.73146465
-0.73958828
-0.74764413
-0.75562962
-0.76354228
-0.77137977
-0.77913981
-0.78682028
-0.79441915
-0.80193449
-0.80936451
-0.8167075
-0.82396191
-0.83112625
-0.83819917
-0.84517943
-0.85206589
-0.85885752
-0.86555341
-0.87215274
-0.8786548
-0.88505898
-0.89136476
-0.89757174
-0.90367959
-0.90968807
-0.91559706
-0.9214065
-0.92711642
-0.93272693
-0.93823822
-0.94365056
-0.94896427
-0.95417978
-0.95929754
-0.96431809
-0.96924204
-0.97407002
-0.97880275
-0.98344098
-0.98798551
-0.99243721
-0.99679696
-1.0010657
-1.0052444
-1.009334
-1.0133357
-1.0172504
-1.0210793
-1.0248235
-1.028484
-1.0320622
-1.0355591
-1.038976
-1.042314
-1.0455744
-1.0487584
-1.0518673
-1.0549022
-1.0578645
-1.0607554
-1.0635762
-1.066328
-1.0690122
-1.07163
-1.0741827
-1.0766715
-1.0790976
-1.0814623
-1.0837668
-1.0860123
-1.0882
-1.0903311
-1.0924068
-1.0944283
-1.0963967
-1.0983132
-1.1001789
-1.1019949
-1.1037624
-1.1054824
-1.107156
-1.1087843
-1.1103683
-1.1119091
-1.1134076
-1.1148649
-1.116282
-1.1176598
-1.1189992
-1.1203013
-1.1215668
-1.1227968
-1.1239921
-1.1251535
-1.126282
-1.1273784
-1.1284434
-1.1294779
-1.1304826
-1.1314584
-1.132406
-1.1333261
-1.1342194
-1.1350867
-1.1359287
-1.1367459
-1.1375391
-1.138309
-1.1390561
-1.1397811
-1.1404846
-1.1411671
-1.1418293
-1.1424717
-1.1430948
-1.1436992
-1.1442854
-1.1448539
-1.1454053
-1.1459399
-1.1464584
-1.146961
-1.1474483
-1.1479208
-1.1483787
-1.1488227
-1.149253
-1.1496701
-1.1500743
-1.150466
-1.1508456
-1.1512134
-1.1515699
-1.1519152
-1.1522498
-1.1525739
-1.1528879
-1.1531921
-1.1534868
-1.1537722
-1.1540486
-1.1543163
-1.1545756
-1.1548267
-1.1550699
-1.1553053
-1.1555333
-1.1557541
-1.1559678
-1.1561748
-1.1563751
-1.1565691
-1.1567569
-1.1569387
-1.1571146
-1.1572849
-1.1574498
-1.1576094
-1.1577638
-1.1579133
-1.1580579
-1.1581979
-1.1583334
-1.1584646
-1.1585914
-1.1587142
-1.1588331
-1.158948
-1.1590593
-1.159167
-1.1592711
-1.1593719
-1.1594694
-1.1595638
-1.1596551
-1.1597434
-1.1598289
-1.1599116
-1.1599916
-1.1600691
-1.160144
-1.1602164
-1.1602866
-1.1603544
-1.1604201
-1.1604836
-1.160545
-1.1606045
-1.1606621
-1.1607178
-1.1607717
-1.1608238
-1.1608743
-1.1609232
-1.1609704
-1.1610162
-1.1610605
-1.1611034
-1.1611449
-1.1611851
-1.161224
-1.1612616
-1.1612981
-1.1613334
-1.1613677
-1.1614008
-1.1614329
-1.161464
-1.1614941
-1.1615233
-1.1615516
-1.161579
-1.1616056
-1.1616314
-1.1616564
-1.1616806
-1.1617041
-1.1617269
-1.1617491
-1.1617705
-1.1617914
-1.1618116
-1.1618313
-1.1618504
-1.1618689
-1.161887
-1.1619045
-1.1619215
-1.1619381
-1.1619542
-1.1619699
-1.1619852
-1.162
-1.1620145
-1.1620286
-1.1620424
-1.1620558
-1.1620689
-1.1620817
-1.1620942
-1.1621063
-1.1621182
-1.1621299
-1.1621412
-1.1621524
-1.1621632
-1.1621739
-1.1621843
-1.1621946
-1.1622046
-1.1622145
-1.1622242
-1.1622337
-1.162243
-1.1622522
-1.1622612
-1.1622701
-1.1622788
-1.1622875
-1.162296
-1.1623044
-1.1623126
-1.1623208
-1.1623289
-1.1623369
-1.1623448
-1.1623526
-1.1623603
-1.162368
-1.1623756
-1.1623832
-1.1623907
-1.1623981
-1.1624055
-1.1624128
-1.1624201
-1.1624274
-1.1624346
-1.1624418
-1.162449
-1.1624561
-1.1624633
-1.1624704
-1.1624775
-1.1624846
-1.1624916
-1.1624987
-1.1625058
-1.1625129
-1.1625199
-1.162527
-1.1625341
-1.1625412
-1.1625483
-1.1625554
-1.1625625
-1.1625697
-1.1625769
-1.162584
-1.1625912
-1.1625985
-1.1626057
-1.162613
-1.1626203
-1.1626277
-1.1626351
-1.1626425
-1.1626499
-1.1626574
-1.1626649
-1.1626724
-1.16268
-1.1626877
-1.1626953
-1.162703
-1.1627108
-1.1627186
-1.1627265
-1.1627343
-1.1627423
-1.1627503
-1.1627583
-1.1627664
-1.1627746
-1.1627827
-1.162791
-1.1627993
-1.1628076
-1.1628161
-1.1628245
-1.162833
-1.1628416
-1.1628503
-1.162859
-1.1628677
-1.1628765
-1.1628854
-1.1628943
-1.1629033
-1.1629124
-1.1629215
-1.1629307
-1.16294
-1.1629493
-1.1629587
-1.1629681
-1.1629777
-1.1629872
-1.1629969
-1.1630066
-1.1630164
-1.1630262
-1.1630362
-1.1630462
-1.1630562
-1.1630663
-1.1630765
-1.1630868
-1.1630972
-1.1631076
-1.1631181
-1.1631286
-1.1631393
-1.16315
-1.1631607
-1.1631716
-1.1631825
-1.1631935
-1.1632046
-1.1632157
-1.163227
-1.1632383
-1.1632496
-1.1632611
-1.1632726
-1.1632842
-1.1632959
-1.1633076
-1.1633194
-1.1633314
-1.1633433
-1.1633554
-1.1633675
-1.1633797
-1.163392
-1.1634044
-1.1634169
-1.1634294
-1.163442
-1.1634547
-1.1634674
-1.1634803
-1.1634932
-1.1635062
-1.1635193
-1.1635324
-1.1635457
-1.163559
-1.1635724
-1.1635859
-1.1635994
-1.163613
-1.1636268
-1.1636406
-1.1636544
-1.1636684
-1.1636824
-1.1636966
-1.1637108
-1.163725
-1.1637394
-1.1637538
-1.1637684
-1.163783
-1.1637976
-1.1638124
-1.1638272
-1.1638422
-1.1638572
-1.1638723
-1.1638874
-1.1639027
-1.163918
-1.1639334
-1.1639489
-1.1639645
-1.1639801
-1.1639959
-1.1640117
-1.1640276
-1.1640435
-1.1640596
-1.1640757
-1.164092
-1.1641083
-1.1641246
-1.1641411
-1.1641576
-1.1641742
-1.1641909
-1.1642077
-1.1642246
-1.1642415
-1.1642585
-1.1642756
-1.1642928
-1.1643101
-1.1643274
-1.1643448
-1.1643623
-1.1643799
-1.1643976
-1.1644153
-1.1644331
-1.164451
-1.164469
-1.164487
-1.1645051
-1.1645233
-1.1645416
-1.16456
-1.1645784
-1.1645969
-1.1646155
-1.1646342
-1.1646529
-1.1646718
-1.1646907
-1.1647096
-1.1647287
-1.1647478
-1.164767
-1.1647863
-1.1648056
-1.164825
-1.1648445
-1.1648641
-1.1648838
-1.1649035
-1.1649233
-1.1649432
-1.1649631
-1.1649831
-1.1650032
-1.1650234
-1.1650436
-1.1650639
-1.1650843
-1.1651047
-1.1651253
-1.1651459
-1.1651665
-1.1651872
-1.1652081
-1.1652289
-1.1652499
-1.1652709
-1.165292
-1.1653131
-1.1653343
-1.1653556
-1.165377
-1.1653984
-1.1654199
-1.1654415
-1.1654631
-1.1654848
-1.1655065
-1.1655284
-1.1655503
-1.1655722
-1.1655942
-1.1656163
-1.1656385
-1.1656607
-1.165683
-1.1657053
-1.1657277
-1.1657502
-1.1657727
-1.1657953
-1.165818
-1.1658407
-1.1658635
-1.1658863
-1.1659092
-1.1659322
-1.1659552
-1.1659783
-1.1660014
-1.1660246
-1.1660479
-1.1660712
-1.1660946
-1.166118
-1.1661415
-1.1661651
-1.1661887
-1.1662123
-1.1662361
-1.1662598
-1.1662837
-1.1663076
-1.1663315
-1.1663555
-1.1663795
-1.1664036
-1.1664278
-1.166452
-1.1664763
-1.1665006
-1.166525
-1.1665494
-1.1665739
-1.1665984
-1.166623
-1.1666476
-1.1666723
-1.166697
-1.1667218
-1.1667466
-1.1667715
-1.1667964
-1.1668214
-1.1668464
-1.1668714
-1.1668966
-1.1669217
-1.1669469
-1.1669722
-1.1669975
-1.1670228
-1.1670482
-1.1670736
-1.1670991
-1.1671246
-1.1671502
-1.1671758
-1.1672014
-1.1672271
-1.1672529
-1.1672786
-1.1673044
-1.1673303
-1.1673562
-1.1673821
-1.1674081
-1.1674341
-1.1674602
-1.1674863
-1.1675124
-1.1675386
-1.1675648
-1.1675911
-1.1676174
-1.1676437
-1.1676701
-1.1676965
-1.1677229
-1.1677494
-1.1677759
-1.1678024
-1.167829
-1.1678556
-1.1678822
-1.1679089
-1.1679356
-1.1679624
-1.1679892
-1.168016
-1.1680428
-1.1680697
-1.1680966
-1.1681235
-1.1681505
-1.1681775
-1.1682045
-1.1682316
-1.1682587
-1.1682858
-1.168313
-1.1683401
-1.1683674
-1.1683946
-1.1684218
-1.1684491
-1.1684765
-1.1685038
-1.1685312
-1.1685586
-1.168586
-1.1686134
-1.1686409
-1.1686684
-1.1686959
-1.1687235
-1.168751
-1.1687786
-1.1688063
-1.1688339
-1.1688616
-1.1688892
-1.168917
-1.1689447
-1.1689724
-1.1690002
-1.169028
-1.1690558
-1.1690837
-1.1691115
-1.1691394
-1.1691673
-1.1691952
-1.1692231
-1.1692511
-1.169279
-1.169307
-1.169335
-1.169363
-1.1693911
-1.1694191
-1.1694472
-1.1694753
-1.1695034
-1.1695315
-1.1695596
-1.1695878
-1.1696159
-1.1696441
-1.1696723
-1.1697004
-1.1697286
-1.1697569
-1.1697851
-1.1698133
-1.1698416
-1.1698698
-1.1698981
-1.1699264
-1.1699547
-1.169983
-1.1700113
-1.1700396
-1.1700679
-1.1700962
-1.1701246
-1.1701529
-1.1701813
-1.1702096
-1.170238
-1.1702663
-1.1702947
-1.170323
-1.1703514
-1.1703798
-1.1704081
-1.1704365
-1.1704649
-1.1704933
-1.1705216
-1.17055
-1.1705784
-1.1706067
-1.1706351
-1.1706635
-1.1706918
-1.1707202
-1.1707485
-1.1707769
-1.1708052
-1.1708336
-1.1708619
-1.1708902
-1.1709186
-1.1709469
-1.1709752
-1.1710035
-1.1710318
-1.1710601
-1.1710883
-1.1711166
-1.1711449
-1.1711731
-1.1712014
-1.1712296
-1.1712578
-1.171286
-1.1713142
-1.1713424
-1.1713706
-1.1713987
-1.1714269
-1.171455
-1.1714832
-1.1715113
-1.1715394
-1.1715675
-1.1715955
-1.1716236
-1.1716516
-1.1716797
-1.1717077
-1.1717357
-1.1717637
-1.1717916
-1.1718196
-1.1718475
-1.1718755
-1.1719034
-1.1719313
-1.1719592
-1.171987
-1.1720149
-1.1720427
-1.1720705
-1.1720983
-1.1721261
-1.1721538
-1.1721816
-1.1722093
-1.172237
-1.1722647
-1.1722924
-1.17232
-1.1723477
-1.1723753
-1.1724029
-1.1724305
-1.172458
-1.1724856
-1.1725131
-1.1725406
-1.172568
-1.1725955
-1.1726229
-1.1726503
-1.1726777
-1.1727051
-1.1727324
-1.1727598
-1.1727871
-1.1728143
-1.1728416
-1.1728688
-1.172896
-1.1729232
-1.1729504
-1.1729775
-1.1730046
-1.1730317
-1.1730587
-1.1730858
-1.1731128
-1.1731397
-1.1731667
-1.1731936
-1.1732205
-1.1732474
-1.1732742
-1.173301
-1.1733278
-1.1733545
-1.1733812
-1.1734079
-1.1734346
-1.1734612
-1.1734878
-1.1735144
-1.1735409
-1.1735674
-1.1735938
-1.1736203
-1.1736467
-1.173673
-1.1736993
-1.1737256
-1.1737519
-1.1737781
-1.1738043
-1.1738304
-1.1738565
-1.1738826
-1.1739086
-1.1739346
-1.1739606
-1.1739865
-1.1740124
-1.1740382
-1.174064
-1.1740898
-1.1741155
-1.1741412
-1.1741668
-1.1741924
-1.1742179
-1.1742434
-1.1742689
-1.1742943
-1.1743197
-1.174345
-1.1743703
-1.1743955
-1.1744207
-1.1744459
-1.174471
-1.174496
-1.174521
-1.174546
-1.1745709
-1.1745958
-1.1746206
-1.1746453
-1.17467
-1.1746947
-1.1747193
-1.1747439
-1.1747684
-1.1747928
-1.1748172
-1.1748416
-1.1748659
-1.1748901
-1.1749143
-1.1749384
-1.1749625
-1.1749865
-1.1750105
-1.1750344
-1.1750582
-1.175082
-1.1751058
-1.1751295
-1.1751531
-1.1751767
-1.1752002
-1.1752236
-1.175247
-1.1752703
-1.1752936
-1.1753168
-1.1753399
-1.175363
-1.175386
-1.175409
-1.1754319
-1.1754547
-1.1754775
-1.1755002
-1.1755229
-1.1755454
-1.1755679
-1.1755904
-1.1756128
-1.1756351
-1.1756573
-1.1756795
-1.1757016
-1.1757236
-1.1757456
-1.1757675
-1.1757894
-1.1758111
-1.1758328
-1.1758544
-1.175876
-1.1758975
-1.1759189
-1.1759402
-1.1759615
-1.1759827
-1.1760038
-1.1760249
-1.1760458
-1.1760667
-1.1760876
-1.1761083
-1.176129
-1.1761496
-1.1761701
-1.1761905
-1.1762109
-1.1762312
-1.1762514
-1.1762715
-1.1762916
-1.1763116
-1.1763315
-1.1763513
-1.176371
-1.1763907
-1.1764103
-1.1764298
-1.1764492
-1.1764685
-1.1764878
-1.1765069
-1.176526
-1.176545
-1.176564
-1.1765828
-1.1766016
-1.1766202
-1.1766388
-1.1766573
-1.1766757
-1.1766941
-1.1767123
-1.1767305
-1.1767486
-1.1767666
-1.1767845
-1.1768023
-1.17682
-1.1768377
-1.1768552
-1.1768727
-1.1768901
-1.1769074
-1.1769246
-1.1769417
-1.1769588
-1.1769757
-1.1769926
-1.1770094
-1.1770261
-1.1770427
-1.1770592
-1.1770756
-1.1770919
-1.1771082
-1.1771243
-1.1771404
-1.1771564
-1.1771723
-1.1771881
-1.1772038
-1.1772195
-1.177235
-1.1772505
-1.1772658
-1.1772811
-1.1772963
-1.1773114
-1.1773264
-1.1773413
-1.1773562
-1.1773709
-1.1773856
-1.1774002