/*--------------------------------*- C++ -*----------------------------------*\
  =========                 |
  \\      /  F ield         | OpenFOAM: The Open Source CFD Toolbox
   \\    /   O peration     | Website:  https://openfoam.org
    \\  /    A nd           | Version:  7
     \\/     M anipulation  |
\*---------------------------------------------------------------------------*/
FoamFile
{
    version     2.0;
    format      ascii;
    class       volScalarField;
    location    "0.0035";
    object      T;
}
// * * * * * * * * * * * * * * * * * * * * * * * * * * * * * * * * * * * * * //

dimensions      [0 0 0 1 0 0 0];

internalField   nonuniform List<scalar> 
5000
(
277.93657
277.93657
277.93654
277.93647
277.93641
277.93637
277.93633
277.93631
277.93629
277.93628
277.93627
277.93627
277.93626
277.93626
277.93626
277.93626
277.93626
277.93626
277.93626
277.93626
277.93626
277.93626
277.93626
277.93626
277.93626
277.93626
277.93626
277.93626
277.93626
277.93626
277.93626
277.93626
277.93626
277.93626
277.93626
277.93626
277.93627
277.93627
277.93627
277.93627
277.93627
277.93627
277.93627
277.93627
277.93627
277.93627
277.93627
277.93627
277.93627
277.93627
277.93627
277.93627
277.93627
277.93628
277.93628
277.93628
277.93628
277.93628
277.93628
277.93628
277.93628
277.93628
277.93628
277.93628
277.93628
277.93628
277.93628
277.93629
277.93629
277.93629
277.93629
277.93629
277.93629
277.93629
277.93629
277.93629
277.93629
277.93629
277.93629
277.9363
277.9363
277.9363
277.9363
277.9363
277.9363
277.9363
277.9363
277.9363
277.9363
277.9363
277.9363
277.9363
277.93631
277.93631
277.93631
277.93631
277.93631
277.93631
277.93631
277.93631
277.93631
277.93631
277.93631
277.93632
277.93632
277.93632
277.93632
277.93632
277.93632
277.93632
277.93632
277.93632
277.93632
277.93632
277.93632
277.93633
277.93633
277.93633
277.93633
277.93633
277.93633
277.93633
277.93633
277.93633
277.93633
277.93633
277.93633
277.93634
277.93634
277.93634
277.93634
277.93634
277.93634
277.93634
277.93634
277.93634
277.93634
277.93634
277.93634
277.93634
277.93635
277.93635
277.93635
277.93635
277.93635
277.93635
277.93635
277.93635
277.93635
277.93635
277.93635
277.93635
277.93635
277.93635
277.93635
277.93636
277.93636
277.93636
277.93636
277.93636
277.93636
277.93636
277.93636
277.93636
277.93636
277.93636
277.93636
277.93636
277.93636
277.93636
277.93636
277.93636
277.93636
277.93637
277.93637
277.93637
277.93637
277.93637
277.93637
277.93637
277.93637
277.93637
277.93637
277.93637
277.93637
277.93637
277.93637
277.93637
277.93637
277.93637
277.93637
277.93637
277.93638
277.93638
277.93638
277.93638
277.93638
277.93638
277.93638
277.93638
277.93638
277.93638
277.93638
277.93638
277.93638
277.93638
277.93638
277.93638
277.93638
277.93638
277.93638
277.93638
277.93638
277.93638
277.93638
277.93638
277.93638
277.93638
277.93638
277.93638
277.93638
277.93638
277.93638
277.93638
277.93639
277.93639
277.93639
277.93639
277.93639
277.93639
277.93639
277.93639
277.93639
277.93639
277.93639
277.93639
277.93639
277.93639
277.93639
277.93639
277.93639
277.93639
277.93639
277.93639
277.93639
277.93639
277.93639
277.93639
277.93639
277.93639
277.93639
277.93639
277.93639
277.93639
277.93639
277.93639
277.93639
277.93639
277.93639
277.93639
277.93639
277.93639
277.93639
277.93639
277.93639
277.93639
277.93639
277.93639
277.93639
277.93639
277.93639
277.93639
277.93639
277.93639
277.93639
277.93639
277.93639
277.9364
277.9364
277.9364
277.9364
277.9364
277.9364
277.9364
277.9364
277.9364
277.9364
277.9364
277.9364
277.9364
277.9364
277.9364
277.9364
277.9364
277.9364
277.9364
277.9364
277.9364
277.9364
277.9364
277.9364
277.9364
277.9364
277.9364
277.9364
277.9364
277.9364
277.9364
277.9364
277.9364
277.9364
277.9364
277.9364
277.9364
277.9364
277.9364
277.9364
277.9364
277.9364
277.9364
277.9364
277.9364
277.9364
277.9364
277.9364
277.9364
277.9364
277.9364
277.9364
277.9364
277.9364
277.9364
277.9364
277.9364
277.9364
277.9364
277.9364
277.9364
277.9364
277.9364
277.9364
277.9364
277.9364
277.9364
277.9364
277.93641
277.93641
277.93641
277.93641
277.93641
277.93641
277.93641
277.93641
277.93641
277.93641
277.93641
277.93641
277.93641
277.93641
277.93641
277.93641
277.93641
277.93641
277.93641
277.93641
277.93641
277.93641
277.93641
277.93641
277.93641
277.93641
277.93641
277.93641
277.93641
277.93641
277.93641
277.93641
277.93641
277.93641
277.93641
277.93641
277.93641
277.93641
277.93641
277.93641
277.93641
277.93641
277.93641
277.93641
277.93641
277.93641
277.93641
277.93641
277.93641
277.93641
277.93641
277.93641
277.93641
277.93641
277.93641
277.93641
277.93642
277.93642
277.93642
277.93642
277.93642
277.93642
277.93642
277.93642
277.93642
277.93642
277.93642
277.93642
277.93642
277.93642
277.93642
277.93642
277.93642
277.93642
277.93642
277.93642
277.93642
277.93642
277.93642
277.93642
277.93642
277.93642
277.93642
277.93642
277.93642
277.93642
277.93642
277.93642
277.93642
277.93642
277.93642
277.93642
277.93642
277.93642
277.93642
277.93642
277.93642
277.93642
277.93643
277.93643
277.93643
277.93643
277.93643
277.93643
277.93643
277.93643
277.93643
277.93643
277.93643
277.93643
277.93643
277.93643
277.93643
277.93643
277.93643
277.93643
277.93643
277.93643
277.93643
277.93643
277.93643
277.93643
277.93643
277.93643
277.93643
277.93643
277.93643
277.93643
277.93643
277.93643
277.93643
277.93643
277.93643
277.93644
277.93644
277.93644
277.93644
277.93644
277.93644
277.93644
277.93644
277.93644
277.93644
277.93644
277.93644
277.93644
277.93644
277.93644
277.93644
277.93644
277.93644
277.93644
277.93644
277.93644
277.93644
277.93644
277.93644
277.93644
277.93644
277.93644
277.93644
277.93644
277.93645
277.93645
277.93645
277.93645
277.93645
277.93645
277.93645
277.93645
277.93645
277.93645
277.93645
277.93645
277.93645
277.93645
277.93645
277.93645
277.93645
277.93645
277.93645
277.93645
277.93645
277.93645
277.93645
277.93645
277.93645
277.93645
277.93645
277.93645
277.93645
277.93645
277.93646
277.93646
277.93646
277.93646
277.93646
277.93646
277.93646
277.93646
277.93646
277.93646
277.93646
277.93646
277.93646
277.93646
277.93646
277.93646
277.93646
277.93646
277.93646
277.93646
277.93646
277.93646
277.93646
277.93646
277.93646
277.93647
277.93647
277.93647
277.93647
277.93647
277.93647
277.93647
277.93647
277.93647
277.93647
277.93647
277.93647
277.93647
277.93647
277.93647
277.93647
277.93647
277.93647
277.93647
277.93647
277.93647
277.93647
277.93647
277.93647
277.93647
277.93648
277.93648
277.93648
277.93648
277.93648
277.93648
277.93648
277.93648
277.93648
277.93648
277.93648
277.93648
277.93648
277.93648
277.93648
277.93648
277.93648
277.93648
277.93648
277.93648
277.93648
277.93648
277.93648
277.93648
277.93648
277.93648
277.93648
277.93649
277.93649
277.93649
277.93649
277.93649
277.93649
277.93649
277.93649
277.93649
277.93649
277.93649
277.93649
277.93649
277.93649
277.93649
277.93649
277.93649
277.93649
277.93649
277.93649
277.93649
277.93649
277.93649
277.93649
277.93649
277.9365
277.9365
277.9365
277.9365
277.9365
277.9365
277.9365
277.9365
277.9365
277.9365
277.9365
277.9365
277.9365
277.9365
277.9365
277.9365
277.9365
277.9365
277.9365
277.9365
277.9365
277.9365
277.9365
277.93651
277.93651
277.93651
277.93651
277.93651
277.93651
277.93651
277.93651
277.93651
277.93651
277.93651
277.93651
277.93651
277.93651
277.93651
277.93651
277.93651
277.93651
277.93651
277.93651
277.93651
277.93651
277.93651
277.93651
277.93651
277.93651
277.93651
277.93651
277.93652
277.93652
277.93652
277.93652
277.93652
277.93652
277.93652
277.93652
277.93652
277.93652
277.93652
277.93652
277.93652
277.93652
277.93652
277.93652
277.93652
277.93652
277.93652
277.93652
277.93652
277.93652
277.93652
277.93652
277.93653
277.93653
277.93653
277.93653
277.93653
277.93653
277.93653
277.93653
277.93653
277.93653
277.93653
277.93653
277.93653
277.93653
277.93653
277.93653
277.93653
277.93653
277.93653
277.93653
277.93653
277.93653
277.93653
277.93654
277.93654
277.93654
277.93654
277.93654
277.93654
277.93654
277.93654
277.93654
277.93654
277.93654
277.93654
277.93654
277.93654
277.93654
277.93654
277.93654
277.93654
277.93654
277.93654
277.93655
277.93655
277.93655
277.93655
277.93655
277.93655
277.93655
277.93655
277.93655
277.93655
277.93655
277.93655
277.93655
277.93655
277.93655
277.93655
277.93655
277.93655
277.93655
277.93655
277.93655
277.93655
277.93655
277.93656
277.93656
277.93656
277.93656
277.93656
277.93656
277.93656
277.93656
277.93656
277.93656
277.93656
277.93656
277.93656
277.93656
277.93656
277.93656
277.93656
277.93656
277.93656
277.93656
277.93656
277.93656
277.93657
277.93657
277.93657
277.93657
277.93657
277.93657
277.93657
277.93657
277.93657
277.93657
277.93657
277.93657
277.93657
277.93657
277.93657
277.93657
277.93657
277.93657
277.93657
277.93657
277.93657
277.93657
277.93657
277.93657
277.93657
277.93658
277.93658
277.93658
277.93658
277.93658
277.93658
277.93658
277.93658
277.93658
277.93658
277.93658
277.93658
277.93658
277.93658
277.93658
277.93658
277.93658
277.93658
277.93658
277.93658
277.93659
277.93659
277.93659
277.93659
277.93659
277.93659
277.93659
277.93659
277.93659
277.93659
277.93659
277.93659
277.93659
277.93659
277.93659
277.93659
277.93659
277.93659
277.93659
277.93659
277.93659
277.93659
277.93659
277.9366
277.9366
277.9366
277.9366
277.9366
277.9366
277.9366
277.9366
277.9366
277.9366
277.9366
277.9366
277.9366
277.9366
277.9366
277.93661
277.93661
277.93661
277.93661
277.93661
277.93661
277.93661
277.93661
277.93661
277.93661
277.93661
277.93661
277.93661
277.93661
277.93661
277.93661
277.93661
277.93661
277.93661
277.93661
277.93661
277.93661
277.93661
277.93661
277.93661
277.93661
277.93661
277.93661
277.93661
277.93661
277.93661
277.93662
277.93662
277.93662
277.93662
277.93662
277.93662
277.93662
277.93662
277.93662
277.93662
277.93662
277.93662
277.93662
277.93662
277.93662
277.93662
277.93662
277.93662
277.93662
277.93663
277.93663
277.93663
277.93663
277.93663
277.93663
277.93663
277.93663
277.93663
277.93663
277.93663
277.93663
277.93663
277.93663
277.93663
277.93663
277.93663
277.93663
277.93663
277.93663
277.93663
277.93663
277.93663
277.93664
277.93664
277.93664
277.93664
277.93664
277.93664
277.93664
277.93664
277.93664
277.93664
277.93664
277.93664
277.93664
277.93664
277.93664
277.93664
277.93664
277.93664
277.93664
277.93664
277.93664
277.93664
277.93665
277.93665
277.93665
277.93665
277.93665
277.93665
277.93665
277.93665
277.93665
277.93665
277.93665
277.93665
277.93665
277.93665
277.93665
277.93665
277.93665
277.93665
277.93665
277.93665
277.93665
277.93666
277.93666
277.93666
277.93666
277.93666
277.93666
277.93666
277.93666
277.93666
277.93666
277.93666
277.93666
277.93666
277.93666
277.93666
277.93666
277.93666
277.93666
277.93666
277.93666
277.93666
277.93667
277.93667
277.93667
277.93667
277.93667
277.93667
277.93667
277.93667
277.93667
277.93667
277.93667
277.93667
277.93668
277.93668
277.93668
277.93668
277.93668
277.93668
277.93668
277.93668
277.93668
277.93668
277.93668
277.93668
277.93668
277.93669
277.93669
277.93669
277.93669
277.93669
277.93669
277.93669
277.93669
277.93669
277.93669
277.9367
277.9367
277.9367
277.9367
277.9367
277.9367
277.9367
277.9367
277.9367
277.93671
277.93671
277.93671
277.93671
277.93671
277.93671
277.93672
277.93672
277.93672
277.93672
277.93672
277.93673
277.93673
277.93673
277.93673
277.93673
277.93673
277.93674
277.93674
277.93674
277.93674
277.93675
277.93675
277.93675
277.93676
277.93676
277.93676
277.93677
277.93677
277.93677
277.93678
277.93678
277.93678
277.93679
277.93679
277.9368
277.9368
277.9368
277.93681
277.93681
277.93682
277.93682
277.93683
277.93683
277.93684
277.93685
277.93685
277.93686
277.93687
277.93687
277.93688
277.93689
277.9369
277.9369
277.93691
277.93692
277.93693
277.93694
277.93695
277.93696
277.93697
277.93698
277.93699
277.93701
277.93702
277.93703
277.93704
277.93706
277.93707
277.93709
277.9371
277.93712
277.93713
277.93715
277.93717
277.93719
277.9372
277.93722
277.93725
277.93727
277.93729
277.93731
277.93734
277.93736
277.93739
277.93742
277.93744
277.93747
277.9375
277.93754
277.93757
277.9376
277.93764
277.93767
277.93771
277.93775
277.93779
277.93783
277.93788
277.93792
277.93797
277.93802
277.93807
277.93812
277.93818
277.93824
277.9383
277.93836
277.93842
277.93849
277.93856
277.93863
277.9387
277.93878
277.93886
277.93894
277.93903
277.93912
277.93921
277.93931
277.93941
277.93951
277.93962
277.93973
277.93985
277.93997
277.9401
277.94023
277.94036
277.9405
277.94064
277.94079
277.94095
277.94111
277.94128
277.94145
277.94164
277.94182
277.94202
277.94222
277.94243
277.94265
277.94287
277.9431
277.94335
277.9436
277.94386
277.94413
277.94441
277.9447
277.945
277.94531
277.94563
277.94597
277.94631
277.94667
277.94705
277.94743
277.94783
277.94825
277.94868
277.94913
277.94959
277.95007
277.95057
277.95108
277.95161
277.95217
277.95274
277.95333
277.95395
277.95458
277.95524
277.95592
277.95663
277.95736
277.95812
277.95891
277.95972
277.96056
277.96143
277.96234
277.96327
277.96424
277.96524
277.96628
277.96735
277.96847
277.96962
277.97081
277.97204
277.97332
277.97464
277.976
277.97742
277.97888
277.9804
277.98196
277.98358
277.98526
277.98699
277.98879
277.99064
277.99256
277.99455
277.9966
277.99872
278.00091
278.00318
278.00552
278.00795
278.01045
278.01304
278.01572
278.01849
278.02135
278.0243
278.02736
278.03051
278.03377
278.03714
278.04062
278.04421
278.04792
278.05176
278.05572
278.0598
278.06402
278.06838
278.07288
278.07753
278.08232
278.08727
278.09238
278.09765
278.10309
278.1087
278.11449
278.12047
278.12663
278.13298
278.13954
278.1463
278.15327
278.16045
278.16786
278.17549
278.18336
278.19147
278.19983
278.20844
278.21732
278.22645
278.23587
278.24556
278.25554
278.26582
278.2764
278.28729
278.2985
278.31004
278.32191
278.33412
278.34668
278.3596
278.37288
278.38654
278.40058
278.41502
278.42985
278.44509
278.46075
278.47684
278.49335
278.51032
278.52773
278.54561
278.56395
278.58277
278.60208
278.62189
278.6422
278.66303
278.68437
278.70625
278.72866
278.75162
278.77513
278.79921
278.82386
278.84908
278.87489
278.90129
278.92828
278.95589
278.9841
279.01293
279.04239
279.07247
279.10318
279.13453
279.16653
279.19916
279.23245
279.26638
279.30097
279.33621
279.37211
279.40866
279.44587
279.48373
279.52225
279.56142
279.60123
279.64169
279.68279
279.72453
279.7669
279.80989
279.8535
279.89772
279.94254
279.98796
280.03395
280.08052
280.12765
280.17532
280.22353
280.27226
280.3215
280.37123
280.42143
280.47209
280.5232
280.57472
280.62666
280.67898
280.73166
280.78469
280.83805
280.8917
280.94564
280.99984
281.05428
281.10893
281.16377
281.21878
281.27393
281.3292
281.38457
281.44
281.49548
281.55099
281.60649
281.66196
281.71738
281.77272
281.82797
281.88309
281.93806
281.99287
282.04748
282.10187
282.15602
282.20992
282.26353
282.31685
282.36984
282.42248
282.47477
282.52668
282.57818
282.62928
282.67994
282.73015
282.7799
282.82918
282.87796
282.92623
282.97399
283.02122
283.0679
283.11404
283.15961
283.20462
283.24904
283.29288
283.33613
283.37878
283.42082
283.46225
283.50307
283.54327
283.58285
283.62181
283.66014
283.69785
283.73493
283.77138
283.80721
283.84241
283.87698
283.91094
283.94427
283.97698
284.00908
284.04057
284.07145
284.10173
284.13141
284.1605
284.18899
284.21691
284.24424
284.27101
284.29721
284.32285
284.34794
284.37248
284.39649
284.41996
284.44291
284.46534
284.48726
284.50868
284.52961
284.55005
284.57001
284.5895
284.60853
284.6271
284.64522
284.66291
284.68016
284.69699
284.7134
284.72941
284.74501
284.76022
284.77505
284.7895
284.80358
284.8173
284.83066
284.84368
284.85636
284.8687
284.88072
284.89242
284.90381
284.9149
284.92569
284.93619
284.9464
284.95634
284.96601
284.97541
284.98455
284.99344
285.00209
285.01049
285.01867
285.02661
285.03433
285.04183
285.04912
285.05621
285.06309
285.06977
285.07627
285.08258
285.08871
285.09466
285.10044
285.10605
285.11149
285.11678
285.12192
285.1269
285.13174
285.13643
285.14099
285.14541
285.1497
285.15386
285.1579
285.16182
285.16562
285.1693
285.17288
285.17635
285.17971
285.18297
285.18613
285.1892
285.19217
285.19505
285.19784
285.20055
285.20317
285.20572
285.20818
285.21057
285.21289
285.21513
285.21731
285.21941
285.22146
285.22343
285.22535
285.22721
285.229
285.23075
285.23243
285.23407
285.23565
285.23718
285.23867
285.2401
285.2415
285.24284
285.24415
285.24541
285.24664
285.24782
285.24897
285.25008
285.25115
285.25219
285.2532
285.25417
285.25512
285.25603
285.25692
285.25777
285.2586
285.2594
285.26018
285.26093
285.26166
285.26236
285.26304
285.2637
285.26433
285.26495
285.26555
285.26613
285.26668
285.26722
285.26775
285.26826
285.26875
285.26922
285.26968
285.27012
285.27056
285.27097
285.27137
285.27176
285.27214
285.27251
285.27286
285.2732
285.27353
285.27385
285.27416
285.27446
285.27475
285.27503
285.27531
285.27557
285.27583
285.27607
285.27631
285.27655
285.27677
285.27699
285.2772
285.2774
285.2776
285.27779
285.27798
285.27816
285.27833
285.2785
285.27867
285.27883
285.27898
285.27913
285.27928
285.27942
285.27956
285.27969
285.27982
285.27994
285.28006
285.28018
285.2803
285.28041
285.28052
285.28063
285.28073
285.28083
285.28093
285.28102
285.28112
285.28121
285.2813
285.28138
285.28147
285.28155
285.28163
285.2817
285.28178
285.28186
285.28193
285.282
285.28207
285.28214
285.28221
285.28227
285.28234
285.2824
285.28246
285.28253
285.28259
285.28265
285.2827
285.28276
285.28282
285.28287
285.28293
285.28298
285.28303
285.28309
285.28314
285.28319
285.28324
285.28329
285.28334
285.28339
285.28344
285.28349
285.28353
285.28358
285.28363
285.28368
285.28372
285.28377
285.28381
285.28386
285.28391
285.28395
285.284
285.28404
285.28409
285.28414
285.28418
285.28423
285.28427
285.28432
285.28436
285.28441
285.28445
285.2845
285.28454
285.28459
285.28463
285.28468
285.28473
285.28477
285.28482
285.28486
285.28491
285.28495
285.285
285.28505
285.28509
285.28514
285.28519
285.28523
285.28528
285.28533
285.28538
285.28542
285.28547
285.28552
285.28557
285.28562
285.28567
285.28572
285.28577
285.28582
285.28587
285.28592
285.28597
285.28602
285.28607
285.28613
285.28618
285.28623
285.28628
285.28634
285.28639
285.28645
285.2865
285.28655
285.28661
285.28667
285.28672
285.28678
285.28683
285.28689
285.28695
285.28701
285.28706
285.28712
285.28718
285.28724
285.2873
285.28736
285.28742
285.28748
285.28754
285.2876
285.28767
285.28773
285.28779
285.28785
285.28792
285.28798
285.28805
285.28811
285.28818
285.28824
285.28831
285.28837
285.28844
285.28851
285.28858
285.28864
285.28871
285.28878
285.28885
285.28892
285.28899
285.28906
285.28913
285.28921
285.28928
285.28935
285.28943
285.2895
285.28957
285.28965
285.28972
285.2898
285.28988
285.28995
285.29003
285.29011
285.29018
285.29026
285.29034
285.29042
285.2905
285.29058
285.29066
285.29074
285.29082
285.29091
285.29099
285.29107
285.29115
285.29124
285.29132
285.29141
285.29149
285.29158
285.29166
285.29175
285.29184
285.29193
285.29202
285.2921
285.29219
285.29228
285.29237
285.29246
285.29255
285.29265
285.29274
285.29283
285.29292
285.29302
285.29311
285.29321
285.2933
285.2934
285.29349
285.29359
285.29368
285.29378
285.29388
285.29398
285.29408
285.29418
285.29428
285.29438
285.29448
285.29458
285.29468
285.29478
285.29488
285.29499
285.29509
285.29519
285.2953
285.2954
285.29551
285.29561
285.29572
285.29582
285.29593
285.29604
285.29615
285.29625
285.29636
285.29647
285.29658
285.29669
285.2968
285.29691
285.29703
285.29714
285.29725
285.29736
285.29748
285.29759
285.2977
285.29782
285.29793
285.29805
285.29817
285.29828
285.2984
285.29852
285.29863
285.29875
285.29887
285.29899
285.29911
285.29923
285.29935
285.29947
285.29959
285.29971
285.29984
285.29996
285.30008
285.3002
285.30033
285.30045
285.30058
285.3007
285.30083
285.30095
285.30108
285.30121
285.30133
285.30146
285.30159
285.30172
285.30184
285.30197
285.3021
285.30223
285.30236
285.30249
285.30262
285.30275
285.30289
285.30302
285.30315
285.30328
285.30342
285.30355
285.30368
285.30382
285.30395
285.30409
285.30422
285.30436
285.3045
285.30463
285.30477
285.30491
285.30504
285.30518
285.30532
285.30546
285.3056
285.30574
285.30588
285.30602
285.30616
285.3063
285.30644
285.30658
285.30672
285.30686
285.30701
285.30715
285.30729
285.30744
285.30758
285.30772
285.30787
285.30801
285.30816
285.3083
285.30845
285.30859
285.30874
285.30889
285.30903
285.30918
285.30933
285.30947
285.30962
285.30977
285.30992
285.31007
285.31022
285.31037
285.31051
285.31066
285.31081
285.31096
285.31112
285.31127
285.31142
285.31157
285.31172
285.31187
285.31203
285.31218
285.31233
285.31248
285.31264
285.31279
285.31294
285.3131
285.31325
285.3134
285.31356
285.31371
285.31387
285.31402
285.31418
285.31433
285.31449
285.31464
285.3148
285.31495
285.31511
285.31527
285.31542
285.31558
285.31574
285.31589
285.31605
285.31621
285.31637
285.31652
285.31668
285.31684
285.317
285.31715
285.31731
285.31747
285.31763
285.31779
285.31794
285.3181
285.31826
285.31842
285.31858
285.31874
285.31889
285.31905
285.31921
285.31937
285.31953
285.31969
285.31985
285.32001
285.32016
285.32032
285.32048
285.32064
285.3208
285.32096
285.32112
285.32127
285.32143
285.32159
285.32175
285.32191
285.32206
285.32222
285.32238
285.32254
285.32269
285.32285
285.32301
285.32317
285.32332
285.32348
285.32364
285.32379
285.32395
285.32411
285.32426
285.32442
285.32457
285.32473
285.32488
285.32504
285.32519
285.32535
285.3255
285.32566
285.32581
285.32596
285.32612
285.32627
285.32643
285.32658
285.32673
285.32689
285.32704
285.32719
285.32734
285.3275
285.32765
285.3278
285.32796
285.32811
285.32826
285.32841
285.32857
285.32872
285.32887
285.32902
285.32918
285.32933
285.32948
285.32964
285.32979
285.32994
285.3301
285.33025
285.33041
285.33056
285.33072
285.33087
285.33103
285.33119
285.33134
285.3315
285.33166
285.33182
285.33198
285.33214
285.33231
285.33247
285.33263
285.3328
285.33296
285.33313
285.33329
285.33346
285.33363
285.3338
285.33397
285.33415
285.33432
285.33449
285.33467
285.33484
285.33502
285.3352
285.33538
285.33556
285.33574
285.33592
285.33611
285.33629
285.33648
285.33667
285.33686
285.33705
285.33724
285.33743
285.33762
285.33781
285.33801
285.3382
285.3384
285.3386
285.3388
285.339
285.33919
285.3394
285.3396
285.3398
285.34
285.34021
285.34041
285.34061
285.34082
285.34103
285.34123
285.34144
285.34164
285.34185
285.34206
285.34227
285.34247
285.34268
285.34289
285.3431
285.34331
285.34351
285.34372
285.34393
285.34414
285.34434
285.34455
285.34476
285.34497
285.34517
285.34538
285.34559
285.34579
285.346
285.34621
285.34641
285.34662
285.34682
285.34703
285.34723
285.34743
285.34764
285.34784
285.34804
285.34825
285.34845
285.34865
285.34885
285.34905
285.34925
285.34944
285.34964
285.34984
285.35004
285.35023
285.35043
285.35062
285.35082
285.35101
285.35121
285.3514
285.35159
285.35178
285.35197
285.35216
285.35235
285.35254
285.35273
285.35292
285.35311
285.3533
285.35348
285.35367
285.35385
285.35404
285.35422
285.35441
285.35459
285.35477
285.35495
285.35513
285.35532
285.3555
285.35568
285.35586
285.35603
285.35621
285.35639
285.35657
285.35674
285.35692
285.3571
285.35727
285.35745
285.35762
285.35779
285.35797
285.35814
285.35831
285.35848
285.35865
285.35883
285.359
285.35917
285.35933
285.3595
285.35967
285.35984
285.36001
285.36017
285.36034
285.36051
285.36067
285.36084
285.361
285.36117
285.36133
285.3615
285.36166
285.36182
285.36199
285.36215
285.36231
285.36248
285.36264
285.3628
285.36296
285.36312
285.36328
285.36344
285.3636
285.36376
285.36392
285.36408
285.36423
285.36439
285.36455
285.36471
285.36487
285.36502
285.36518
285.36534
285.36549
285.36565
285.36581
285.36596
285.36612
285.36627
285.36643
285.36658
285.36674
285.36689
285.36705
285.3672
285.36735
285.36751
285.36766
285.36781
285.36797
285.36812
285.36827
285.36843
285.36858
285.36873
285.36888
285.36904
285.36919
285.36934
285.36949
285.36964
285.36979
285.36995
285.3701
285.37025
285.3704
285.37055
285.3707
285.37085
285.37101
285.37116
285.37131
285.37146
285.37161
285.37176
285.37191
285.37206
285.37222
285.37237
285.37252
285.37267
285.37282
285.37297
285.37312
285.37328
285.37343
285.37358
285.37373
285.37388
285.37403
285.37418
285.37433
285.37448
285.37463
285.37478
285.37493
285.37508
285.37523
285.37538
285.37553
285.37567
285.37582
285.37597
285.37612
285.37627
285.37641
285.37656
285.3767
285.37685
285.37699
285.37714
285.37728
285.37742
285.37756
285.3777
285.37784
285.37798
285.37812
285.37826
285.37839
285.37853
285.37866
285.37879
285.37893
285.37906
285.37919
285.37932
285.37944
285.37957
285.3797
285.37982
285.37994
285.38006
285.38018
285.3803
285.38041
285.38053
285.38064
285.38076
285.38087
285.38098
285.38108
285.38119
285.38129
285.38139
285.3815
285.3816
285.38169
285.38179
285.38189
285.38198
285.38207
285.38217
285.38226
285.38235
285.38244
285.38252
285.38261
285.38269
285.38278
285.38286
285.38294
285.38302
285.3831
285.38318
285.38326
285.38334
285.38341
285.38349
285.38356
285.38363
285.3837
285.38378
285.38385
285.38392
285.38399
285.38406
285.38413
285.38419
285.38426
285.38433
285.3844
285.38446
285.38453
285.38459
285.38465
285.38472
285.38478
285.38484
285.3849
285.38496
285.38502
285.38508
285.38514
285.3852
285.38525
285.38531
285.38537
285.38542
285.38547
285.38553
285.38558
285.38563
285.38568
285.38573
285.38578
285.38583
285.38588
285.38592
285.38597
285.38601
285.38606
285.3861
285.38615
285.38619
285.38623
285.38627
285.38631
285.38635
285.38639
285.38642
285.38646
285.3865
285.38653
285.38657
285.3866
285.38664
285.38667
285.3867
285.38674
285.38677
285.3868
285.38684
285.38687
285.3869
285.38693
285.38696
285.38699
285.38702
285.38705
285.38707
285.3871
285.38713
285.38716
285.38719
285.38722
285.38725
285.38728
285.38731
285.38734
285.38737
285.3874
285.38743
285.38746
285.38749
285.38752
285.38755
285.38758
285.38761
285.38764
285.38767
285.38771
285.38774
285.38777
285.3878
285.38783
285.38786
285.3879
285.38793
285.38797
285.388
285.38804
285.38807
285.38811
285.38815
285.38818
285.38822
285.38826
285.3883
285.38834
285.38838
285.38842
285.38846
285.3885
285.38855
285.38859
285.38863
285.38868
285.38872
285.38877
285.38881
285.38886
285.38891
285.38895
285.389
285.38905
285.3891
285.38915
285.3892
285.38925
285.3893
285.38935
285.3894
285.38945
285.3895
285.38956
285.38961
285.38967
285.38972
285.38977
285.38983
285.38988
285.38994
285.39
285.39006
285.39012
285.39018
285.39024
285.3903
285.39036
285.39042
285.39048
285.39054
285.39061
285.39068
285.39074
285.39081
285.39087
285.39094
285.39101
285.39108
285.39114
285.39122
285.39129
285.39136
285.39143
285.39151
285.39158
285.39166
285.39173
285.39181
285.39189
285.39197
285.39205
285.39213
285.39221
285.39229
285.39238
285.39247
285.39255
285.39264
285.39272
285.39281
285.3929
285.39299
285.39309
285.39318
285.39327
285.39337
285.39347
285.39357
285.39367
285.39377
285.39387
285.39397
285.39408
285.39418
285.39429
285.39441
285.39452
285.39463
285.39474
285.39486
285.39497
285.39509
285.39521
285.39532
285.39544
285.39556
285.39568
285.3958
285.39593
285.39605
285.39617
285.3963
285.39642
285.39654
285.39666
285.39677
285.39689
285.397
285.39711
285.39722
285.39732
285.39742
285.39751
285.3976
285.39768
285.39776
285.39782
285.39789
285.39794
285.39799
285.39803
285.39807
285.3981
285.39813
285.39814
285.39816
285.39817
285.39817
285.39818
285.39818
285.39818
285.39818
285.39819
285.39819
285.3982
285.39821
285.39823
285.39826
285.3983
285.39836
285.39843
285.39852
285.39863
285.39876
285.3989
285.39907
285.39926
285.39946
285.39967
285.3999
285.40013
285.40037
285.40062
285.40087
285.40113
285.40138
285.40163
285.40188
285.40211
285.40234
285.40255
285.40276
285.40297
285.40319
285.40344
285.4038
285.40437
285.40534
285.40703
285.40998
285.41508
285.42372
285.43799
285.46099
285.49705
285.55205
285.63358
285.75088
285.91455
286.13582
286.42537
286.79194
287.24071
287.77202
288.38073
289.05659
289.78556
290.55192
291.34035
292.13742
292.9318
293.71355
294.473
295.2003
295.88599
296.52248
297.10527
297.63302
298.10639
298.52669
298.8953
299.21427
299.48707
299.71848
299.91345
300.07615
300.21012
300.31904
300.40702
300.47786
300.53437
300.57862
300.61282
300.63929
300.65977
300.67524
300.68655
300.69483
300.70105
300.70556
300.70854
300.71055
300.71209
300.71291
300.71322
300.71332
300.71333
300.71326
300.71304
300.71278
300.71246
300.7121
300.71173
300.71137
300.71102
300.71067
300.71036
300.71004
300.70971
300.70941
300.70907
300.70876
300.70842
300.70805
300.70772
300.70737
300.70698
300.70662
300.70625
300.70586
300.7055
300.70512
300.70475
300.7044
300.70403
300.7037
300.70335
300.70305
300.70274
300.70246
300.70219
300.70195
300.70171
300.70151
300.70131
300.70114
300.70097
300.70084
300.70071
300.70061
300.70052
300.70044
300.70038
300.70033
300.7003
300.70028
300.70027
300.70027
300.70028
300.7003
300.70034
300.70038
300.70044
300.7005
300.70057
300.70065
300.70074
300.70083
300.70094
300.70105
300.70117
300.70131
300.70144
300.70159
300.70175
300.70191
300.70208
300.70226
300.70245
300.70264
300.70285
300.70306
300.70328
300.70351
300.70375
300.70399
300.70425
300.70451
300.70479
300.70507
300.70536
300.70566
300.70597
300.70629
300.70662
300.70696
300.70731
300.70767
300.70804
300.70842
300.70881
300.70921
300.70962
300.71005
300.71048
300.71092
300.71138
300.71185
300.71233
300.71282
300.71332
300.71383
300.71436
300.71489
300.71544
300.71601
300.71658
300.71717
300.71777
300.71839
300.71902
300.71966
300.72031
300.72098
300.72167
300.72237
300.72308
300.7238
300.72455
300.7253
300.72607
300.72686
300.72766
300.72848
300.72932
300.73017
300.73103
300.73192
300.73282
300.73373
300.73467
300.73562
300.73659
300.73757
300.73858
300.7396
300.74064
300.7417
300.74278
300.74388
300.74499
300.74613
300.74729
300.74846
300.74966
300.75087
300.75211
300.75336
300.75464
300.75594
300.75726
300.7586
300.75997
300.76135
300.76276
300.76419
300.76564
300.76712
300.76861
300.77013
300.77168
300.77325
300.77484
300.77646