-1.25 	300 	0.0944396558010711 	101286.4743378612
-1.247497497497497 	299.9633660058664 	0.09340168518374599 	101286.9070696178
-1.244994994994995 	299.9679273014582 	0.09215841915410986 	101287.3504483197
-1.242492492492492 	299.9685277207465 	0.09125023362390208 	101287.8007284606
-1.23998998998999 	299.9689167763704 	0.09002803638045251 	101288.2577083307
-1.237487487487487 	299.9693084107207 	0.08891849859445475 	101288.7215777355
-1.234984984984985 	299.9697064883194 	0.08775725186902411 	101289.1920992415
-1.232482482482482 	299.9701100771482 	0.0865901885443332 	101289.6691162405
-1.22997997997998 	299.9705191668367 	0.08540381144711247 	101290.1526343639
-1.227477477477477 	299.9709336277015 	0.08420258029249439 	101290.6425021767
-1.224974974974975 	299.9713534350722 	0.08298721141760636 	101291.1386953921
-1.222472472472472 	299.9717786019064 	0.08175586844860598 	101291.6412169842
-1.21996996996997 	299.9722089567938 	0.08050801156950541 	101292.149870587
-1.217467467467467 	299.9726445383745 	0.07924495311287248 	101292.664713565
-1.214964964964965 	299.9730851318814 	0.07797053604139963 	101293.1854816123
-1.212462462462462 	299.9735307830644 	0.07668073173622841 	101293.7122221198
-1.20995995995996 	299.9739811957636 	0.07537596639228748 	101294.2445925883
-1.207457457457457 	299.9744362706746 	0.07405669231284379 	101294.7824778409
-1.204954954954955 	299.9748961948778 	0.07272237154231581 	101295.3260948095
-1.202452452452452 	299.9753604556208 	0.07137792048541082 	101295.8748402999
-1.19994994994995 	299.9758293748788 	0.07002050012776206 	101296.4290970543
-1.197447447447447 	299.9763028486133 	0.06864913365141764 	101296.9887405079
-1.194944944944945 	299.9767803426 	0.06726398447009536 	101297.5531374858
-1.192442442442442 	299.977262595907 	0.06586511179321461 	101298.1231577596
-1.18993993993994 	299.9777490816983 	0.06445743639726602 	101298.698181147
-1.187437437437437 	299.9782391652242 	0.06303865722319561 	101299.2774608099
-1.184934934934935 	299.9787338728761 	0.06160634565122387 	101299.8622072826
-1.182432432432432 	299.9792323478134 	0.06016244665732385 	101300.4514076665
-1.17992992992993 	299.9797337391004 	0.0587081259480646 	101301.0440602423
-1.177427427427427 	299.9802396006872 	0.05724278147422521 	101301.6420031954
-1.174924924924925 	299.9807494772971 	0.05576643582502726 	101302.2446918764
-1.172422422422422 	299.9812617820095 	0.05428148981532966 	101302.8502489394
-1.16991991991992 	299.9817779397665 	0.0527853586744013 	101303.460363611
-1.167417417417417 	299.9822987499297 	0.05127712047149953 	101304.0759834253
-1.164914914914915 	299.9828219771177 	0.04976202803474038 	101304.6944668582
-1.162412412412412 	299.9833471268925 	0.04824042445505192 	101305.3152267696
-1.15990990990991 	299.9838763110962 	0.04670792911198381 	101305.9407534171
-1.157407407407407 	299.9844096249053 	0.04516378444321931 	101306.5711567364
-1.154904904904904 	299.9849449349152 	0.04361283573349076 	101307.2039193751
-1.152402402402403 	299.9854816516531 	0.04205701759821163 	101307.8383520668
-1.1498998998999 	299.9860211128023 	0.04049333119040053 	101308.4760387329
-1.147397397397397 	299.9865642134132 	0.03891984703828184 	101309.1180346231
-1.144894894894895 	299.9871107584039 	0.03733654429357364 	101309.7641036932
-1.142392392392392 	299.9876599819854 	0.03574627397480956 	101310.4133352292
-1.13988988988989 	299.9882104884856 	0.03415225309810321 	101311.0640784428
-1.137387387387387 	299.9887610698149 	0.0325569551551968 	101311.7149076567
-1.134884884884885 	299.9893126250462 	0.03095791335785944 	101312.3668904277
-1.132382382382382 	299.9898680150412 	0.02934778048245144 	101313.0234109911
-1.12987987987988 	299.9904288736552 	0.02772434650606041 	101313.6863995558
-1.127377377377377 	299.9909931951606 	0.02609078621418014 	101314.3534849686
-1.124874874874875 	299.9915569411193 	0.02445757121345113 	101315.019893276
-1.122372372372372 	299.9921178107456 	0.02283291843999503 	101315.6829069183
-1.11986986986987 	299.9926770895067 	0.02121174151581472 	101316.3440469183
-1.117367367367367 	299.9932381577972 	0.01958598833974727 	101317.0073077106
-1.114864864864865 	299.9938036767873 	0.01794657940571839 	101317.6758349491
-1.112362362362362 	299.9943740290165 	0.01629346877688568 	101318.3500786964
-1.10985985985986 	299.9949477231741 	0.0146338470383805 	101319.0282756992
-1.107357357357357 	299.9955226226815 	0.01296945928149482 	101319.7078998192
-1.104854854854855 	299.9960970820165 	0.01130556253020217 	101320.3870049513
-1.102352352352353 	299.9966703880344 	0.009643572862076805 	101321.0647500743
-1.09984984984985 	299.9972425219699 	0.007984682201023012 	101321.7411126743
-1.097347347347347 	299.9978139153704 	0.006330877453689637 	101322.4166034807
-1.094844844844845 	299.9983851640098 	0.004676644793516912 	101323.0919270686
-1.092342342342342 	299.9989566976531 	0.003021028593014192 	101323.7675902073
-1.08983983983984 	299.9995286429048 	0.00136329722598222 	101324.4437433662
-1.087337337337337 	300.0001010349914 	0.0008535093556828911 	101325.1204282129
-1.084834834834835 	300.0006738509594 	0.001954897880680853 	101325.7976175107
-1.082332332332332 	300.0012469267012 	0.003613984714995792 	101326.4751163527
-1.07982982982983 	300.0018200304243 	0.00527383968572176 	101327.1526506105
-1.077327327327327 	300.0023929317765 	0.006933658239651598 	101327.829949139
-1.074824824824825 	300.002965433103 	0.008593770021787999 	101328.5067779753
-1.072322322322323 	300.0035373763692 	0.01025113595931637 	101329.182950293
-1.06981981981982 	300.0041086429121 	0.01190436932271401 	101329.8583252263
-1.067317317317317 	300.0046791423366 	0.01355609881708613 	101330.5327959853
-1.064814814814815 	300.0052487938927 	0.01520655828469623 	101331.2062677414
-1.062312312312312 	300.0058175118668 	0.01685561524958933 	101331.8786390066
-1.05980980980981 	300.0063851980462 	0.0185009691475828 	101332.5497934992
-1.057307307307307 	300.0069517402396 	0.02014060033503432 	101333.2195980279
-1.054804804804805 	300.0075170145561 	0.02177703952246247 	101333.8879063539
-1.052302302302302 	300.0080808929366 	0.0234107028801834 	101334.5545674663
-1.0497997997998 	300.0086432528009 	0.02504053272672918 	101335.2194363674
-1.047297297297297 	300.0092039823193 	0.02666527090535896 	101335.8823806927
-1.044794794794795 	300.0097629790253 	0.02828377020923099 	101336.5432786177
-1.042292292292292 	300.0103201461777 	0.02989710936695941 	101337.2020166645
-1.03978978978979 	300.0108753969642 	0.03150589714687257 	101337.8584925959
-1.037287287287287 	300.0114286552397 	0.03310908430447236 	101338.5126150498
-1.034784784784785 	300.0119798444694 	0.03470611174048512 	101339.1642936807
-1.032282282282283 	300.0125288749459 	0.03629638580910387 	101339.8134228788
-1.02977977977978 	300.0130756341044 	0.03787976076114286 	101340.459870202
-1.027277277277277 	300.0136199913615 	0.0394566632499265 	101341.1034804843
-1.024774774774775 	300.0141618127672 	0.04102612850702668 	101341.7440938552
-1.022272272272272 	300.0147009759107 	0.04258834988902992 	101342.3815673755
-1.01976976976977 	300.0152373840895 	0.04414247766843554 	101343.0157876496
-1.017267267267267 	300.0157709630323 	0.04568786808157264 	101343.6466655163
-1.014764764764765 	300.0163016446808 	0.04722534829422508 	101344.2741182186
-1.012262262262262 	300.0168293490946 	0.04875359794151739 	101344.8980518966
-1.00975975975976 	300.017353976683 	0.05027427154437082 	101345.5183535482
-1.007257257257257 	300.0178754200991 	0.05178556651084552 	101346.1348948138
-1.004754754754755 	300.0183935702233 	0.05328583856291054 	101346.7475426967
-1.002252252252252 	300.0189083201981 	0.05477697170236315 	101347.3561685872
-0.9997497497497498 	300.0194195644903 	0.05625694517446745 	101347.9606507157
-0.9972472472472473 	300.0199272002018 	0.05772869642540224 	101348.5608751334
-0.9947447447447449 	300.0204311443235 	0.05919000013260504 	101349.1567414808
-0.9922422422422421 	300.0209313341187 	0.0606375186198193 	101349.7481671157
-0.9897397397397399 	300.0214277111994 	0.06207505991496468 	101350.3350779388
-0.9872372372372376 	300.0219201971062 	0.06350130567925875 	101350.9173860321
-0.9847347347347346 	300.0224086798297 	0.06491756259795557 	101351.4949718002
-0.9822322322322323 	300.0228930358811 	0.06632149663083696 	101352.067691636
-0.9797297297297296 	300.0233731557267 	0.06771020471528978 	101352.6354059294
-0.9772272272272275 	300.0238489519294 	0.06908761200298164 	101353.1979979107
-0.9747247247247248 	300.0243203408428 	0.0704529341894318 	101353.7553667378
-0.9722222222222224 	300.0247872249495 	0.07180594647694878 	101354.3074107499
-0.9697197197197196 	300.025249507584 	0.07314595492938748 	101354.8540294422
-0.9672172172172175 	300.025707118614 	0.07447151658784962 	101355.3951424218
-0.9647147147147147 	300.0261600198947 	0.07578357319659544 	101355.9306919404
-0.9622122122122124 	300.0266081729322 	0.07708173455872352 	101356.4606154328
-0.9597097097097099 	300.0270515038332 	0.07836602880882845 	101356.9848190046
-0.9572072072072073 	300.0274899023239 	0.07963606926867628 	101357.5031808499
-0.9547047047047047 	300.0279232449433 	0.08089079573346461 	101358.015572742
-0.9522022022022023 	300.0283514161477 	0.08213028579070861 	101358.5218724614
-0.9496996996996998 	300.0287743165529 	0.08335483078768786 	101359.021961468
-0.9471971971971973 	300.0291918620131 	0.08456454925708781 	101359.5157258941
-0.9446946946946947 	300.0296039907709 	0.08575964710933981 	101360.0030739118
-0.9421921921921923 	300.03001066664 	0.08693854056824339 	101360.4839505438
-0.93968968968969 	300.0304118598543 	0.08810009234891251 	101360.9583242938
-0.9371871871871872 	300.0308075208962 	0.08924568602059019 	101361.426152654
-0.9346846846846848 	300.0311975679572 	0.09037539049342293 	101361.8873554563
-0.9321821821821823 	300.0315818930737 	0.09148975481903152 	101362.3418153772
-0.9296796796796799 	300.0319603851847 	0.09258676540268103 	101362.7894022989
-0.9271771771771771 	300.0323329521044 	0.09366440022294054 	101363.2299993441
-0.9246746746746748 	300.0326995262475 	0.09472541565017506 	101363.6635141509
-0.9221721721721724 	300.0330600622498 	0.095770208003191 	101364.0898789994
-0.9196696696696698 	300.0334145278771 	0.09679837818254461 	101364.5090444652
-0.9171671671671672 	300.03376288995 	0.09780863212043533 	101364.9209680906
-0.9146646646646649 	300.0341051035556 	0.09879905360641346 	101365.3256003935
-0.9121621621621623 	300.0344411015088 	0.0997712492091995 	101365.722869776
-0.9096596596596597 	300.0347707931551 	0.1007259531846312 	101366.11267661
-0.9071571571571573 	300.0350940799939 	0.1016620521303002 	101366.4949103207
-0.9046546546546547 	300.0354108791695 	0.1025798409625657 	101366.8694769008
-0.9021521521521524 	300.0357211320259 	0.1034782559379666 	101367.2363092501
-0.8996496496496498 	300.036024795305 	0.1043572125376188 	101367.5953579019
-0.8971471471471473 	300.0363218306991 	0.1052178888992358 	101367.9465773827
-0.894644644644645 	300.0366121943603 	0.1060589606586723 	101368.2899155988
-0.892142142142142 	300.0368958335163 	0.1068821266755401 	101368.6253108681
-0.8896396396396397 	300.0371726939054 	0.1076847549492616 	101368.9526945233
-0.8871371371371374 	300.037442714962 	0.1084655724991856 	101369.271994143
-0.8846346346346349 	300.0377058388884 	0.1092273744704233 	101369.5831395093
-0.8821321321321324 	300.0379620177015 	0.1099683653278975 	101369.886072826
-0.8796296296296297 	300.0382112163389 	0.1106915266511435 	101370.1807557687
-0.8771271271271271 	300.0384534091513 	0.1113940104453672 	101370.4671576498
-0.8746246246246248 	300.0386885566009 	0.112073676778661 	101370.7452299572
-0.8721221221221224 	300.0389166033137 	0.112734140753345 	101371.014905617
-0.8696196196196196 	300.0391374930384 	0.1133735886741691 	101371.2761150196
-0.8671171171171175 	300.0393511640693 	0.1139937321926948 	101371.5287862799
-0.8646146146146148 	300.0395575608419 	0.1145922470472228 	101371.7728550084
-0.8621121121121121 	300.0397566520468 	0.1151673915453727 	101372.0082860882
-0.8596096096096097 	300.0399484247162 	0.1157224330331443 	101372.2350650888
-0.857107107107107 	300.0401328668682 	0.1162564683240652 	101372.4531781491
-0.8546046046046049 	300.0403099679988 	0.116769919571912 	101372.6626113738
-0.8521021021021022 	300.0404797113861 	0.1172619491860422 	101372.8633415861
-0.8495995995995997 	300.0406420525193 	0.117731774280432 	101373.0553151478
-0.8470970970970974 	300.0407969297264 	0.118180293007176 	101373.2384587455
-0.8445945945945946 	300.0409442877031 	0.1186069720123051 	101373.4127088982
-0.8420920920920922 	300.0410840772996 	0.1190121129571055 	101373.5780106041
-0.8395895895895897 	300.0412162523832 	0.1193951374554491 	101373.7343105318
-0.8370870870870872 	300.041340794548 	0.1197556386788435 	101373.8815866456
-0.8345845845845846 	300.0414577223213 	0.1200940948283747 	101374.0198598495
-0.8320820820820823 	300.041567052134 	0.120410558886256 	101374.1491485432
-0.8295795795795798 	300.0416687790596 	0.1207054129972102 	101374.2694448104
-0.8270770770770772 	300.0417628995399 	0.1209783680511958 	101374.3807426733
-0.8245745745745746 	300.0418494047499 	0.1212289310534283 	101374.4830317398
-0.8220720720720721 	300.0419282446657 	0.1214568612722417 	101374.5762536821
-0.8195695695695699 	300.04199934684 	0.1216623812318855 	101374.6603249327
-0.817067067067067 	300.0420626749459 	0.121845790260812 	101374.7352033226
-0.8145645645645651 	300.0421182224543 	0.1220072259695063 	101374.8008813094
-0.8120620620620621 	300.0421659746142 	0.1221458794827957 	101374.8573419425
-0.8095595595595597 	300.0422059295198 	0.1222609957305106 	101374.9045834261
-0.8070570570570572 	300.0422381253355 	0.1223537949824643 	101374.9426511745
-0.8045545545545546 	300.0422625941355 	0.1224246668924664 	101374.9715820752
-0.8020520520520523 	300.0422793180468 	0.1224745600593042 	101374.9913540381
-0.7995495495495494 	300.0422882760371 	0.1225015442880139 	101375.0019406077
-0.7970470470470474 	300.042289488695 	0.1225036179431399 	101375.0033632565
-0.7945445445445446 	300.0422829592191 	0.1224836867178598 	101374.9956290267
-0.7920420420420423 	300.0422686386055 	0.12244209759271 	101374.9786817622
-0.7895395395395397 	300.0422464889463 	0.1223785287133594 	101374.9524759477
-0.7870370370370371 	300.0422165330415 	0.1222924963255851 	101374.9170386395
-0.7845345345345348 	300.0421787992946 	0.1221823139058549 	101374.8724030526
-0.7820320320320323 	300.0421332738575 	0.1220496314616208 	101374.8185530887
-0.7795295295295296 	300.0420799678351 	0.1218955667962444 	101374.7555019793
-0.7770270270270272 	300.0420189628338 	0.1217188645069969 	101374.6833459659
-0.7745245245245247 	300.0419503169357 	0.1215212960884831 	101374.6021537643
-0.7720220220220222 	300.0418739758983 	0.1213002591258256 	101374.5118608323
-0.7695195195195199 	300.0417898554999 	0.1210550688374998 	101374.4123681976
-0.767017017017017 	300.0416979806534 	0.1207889347910561 	101374.3037054917
-0.7645145145145147 	300.0415984527631 	0.1205003798903392 	101374.1859922291
-0.7620120120120122 	300.041491300351 	0.1201918881387686 	101374.0592632652
-0.7595095095095097 	300.0413764748437 	0.1198600282335868 	101373.923459489
-0.7570070070070072 	300.0412539904456 	0.1195043060644771 	101373.7785986695
-0.7545045045045048 	300.0411239666422 	0.1191277579008103 	101373.6248218954
-0.7520020020020022 	300.0409864768532 	0.1187280934856413 	101373.4622154618
-0.7494994994994997 	300.0408414504599 	0.1183087219015365 	101373.2906964525
-0.7469969969969972 	300.040688805519 	0.1178668712518146 	101373.1101676461
-0.7444944944944945 	300.0405285954919 	0.117401467653034 	101372.9206935709
-0.7419919919919924 	300.0403609396295 	0.1169158105786326 	101372.7224148132
-0.7394894894894897 	300.0401858713503 	0.1164086707116304 	101372.5153703172
-0.7369869869869872 	300.0400033691435 	0.1158808519936024 	101372.2995342767
-0.7344844844844846 	300.0398134699627 	0.1153312938251183 	101372.0749503582
-0.7319819819819822 	300.0396162640251 	0.1147598153704281 	101371.8417262852
-0.7294794794794797 	300.0394118338538 	0.1141676310073224 	101371.5999600128
-0.7269769769769773 	300.039200222603 	0.1135542175391804 	101371.3497020752
-0.7244744744744747 	300.0389814138353 	0.1129201701353385 	101371.0909332874
-0.721971971971972 	300.0387553809684 	0.1122650093314133 	101370.8236212904
-0.7194694694694695 	300.0385221536429 	0.1115888486070348 	101370.5478012118
-0.7169669669669674 	300.0382817881181 	0.110892389311023 	101370.2635400474
-0.7144644644644647 	300.0380343440495 	0.1101756594052563 	101369.9709086307
-0.711961961961962 	300.0377798885094 	0.1094391687660201 	101369.6699877674
-0.7094594594594597 	300.0375184411772 	0.1086824318359033 	101369.3608007002
-0.7069569569569573 	300.0372500199811 	0.1079052834286387 	101369.0433668893
-0.7044544544544545 	300.0369747422128 	0.1071078779048218 	101368.7178233838
-0.7019519519519523 	300.0366927725477 	0.1062906787451619 	101368.3843656539
-0.6994494494494495 	300.0364042091155 	0.1054544114421176 	101368.043111602
-0.6969469469469471 	300.0361089745443 	0.1045988203860922 	101367.6939708939
-0.6944444444444446 	300.035806887966 	0.1037235339768224 	101367.3367304846
-0.6919419419419421 	300.0354979508377 	0.102828343026022 	101366.9713899411
-0.6894394394394396 	300.0351824307102 	0.1019143552605776 	101366.598265219
-0.6869369369369374 	300.0348606524967 	0.1009826720490252 	101366.2177399919
-0.6844344344344344 	300.0345326769869 	0.1000334283254074 	101365.8298854623
-0.6819319319319321 	300.0341982594036 	0.09906526126673304 	101365.4344129166
-0.6794294294294296 	300.0338571971063 	0.09807664815517103 	101365.0310844367
-0.6769269269269272 	300.0335096751882 	0.09706932272616002 	101364.6201210141
-0.6744244244244245 	300.0331561995607 	0.09604506158064385 	101364.202121382
-0.6719219219219222 	300.0327970933125 	0.09500585213778473 	101363.7774665737
-0.6694194194194195 	300.032432157662 	0.09394954198616044 	101363.3459164182
-0.6669169169169172 	300.0320608567229 	0.09287260957428783 	101362.906836737
-0.6644144144144146 	300.0316829631213 	0.09177746686474371 	101362.4599624864
-0.661911911911912 	300.0312989388819 	0.09066608000927616 	101362.0058393423
-0.6594094094094097 	300.0309096290484 	0.08953917039240882 	101361.5454685229
-0.656906906906907 	300.0305154806773 	0.08839819975226716 	101361.0793807634
-0.6544044044044046 	300.0301161149848 	0.08724016000244353 	101360.6071252127
-0.6519019019019021 	300.0297106611346 	0.08606375399885245 	101360.1276734802
-0.6493993993993996 	300.0292986637818 	0.08487024361129133 	101359.640487641
-0.6468968968968971 	300.0288806237598 	0.0836593731406317 	101359.1461570404
-0.6443943943943946 	300.0284576954581 	0.08243665439328421 	101358.6460479751
-0.6418918918918921 	300.0280307118582 	0.08120024845193238 	101358.1411431134
-0.6393893893893897 	300.0275994992601 	0.07994897259776085 	101357.6312359874
-0.6368868868868871 	300.0271630110692 	0.07868419453019944 	101357.1150901829
-0.6343843843843846 	300.0267202701621 	0.07740119865531726 	101356.5915516511
-0.6318818818818821 	300.0262712426568 	0.07610255551931032 	101356.0605819141
-0.6293793793793795 	300.0258169918604 	0.07478741928817119 	101355.523439453
-0.6268768768768773 	300.025358935617 	0.07345963227878791 	101354.981804296
-0.6243743743743745 	300.0248976893754 	0.0721236445817568 	101354.4365497632
-0.6218718718718721 	300.0244330358066 	0.07077610996330565 	101353.8871362412
-0.6193693693693696 	300.0239636944644 	0.06941624040148416 	101353.3320403176
-0.6168668668668671 	300.0234883493321 	0.06803931400277048 	101352.7699381112
-0.6143643643643645 	300.0230069502938 	0.06664476362170454 	101352.2007169965
-0.6118618618618621 	300.0225205691593 	0.0652364296658018 	101351.625606269
-0.6093593593593596 	300.0220307638625 	0.06381773131379855 	101351.0464478014
-0.6068568568568571 	300.0215386180603 	0.06239231214629367 	101350.4645223695
-0.6043543543543546 	300.0210441135625 	0.06095933077025207 	101349.8798070638
-0.6018518518518521 	300.0205462447744 	0.05951621257752869 	101349.2911136407
-0.5993493493493496 	300.0200436843852 	0.0580599331666668 	101348.6968756192
-0.5968468468468471 	300.0195356297467 	0.05658809845729805 	101348.0961468156
-0.5943443443443446 	300.0190223083744 	0.05510178820451332 	101347.4891962697
-0.591841841841842 	300.018504821821 	0.05360334061442774 	101346.8773264996
-0.5893393393393397 	300.0179845865865 	0.0520966347137668 	101346.2622124846
-0.5868368368368371 	300.0174626613787 	0.05058461771286451 	101345.6451041475
-0.5843343343343346 	300.0169392539786 	0.04906787621988266 	101345.0262459009
-0.5818318318318321 	300.0164137262555 	0.04754520965330372 	101344.4048817968
-0.5793293293293297 	300.0158850370717 	0.04601340195922313 	101343.7797799553
-0.5768268268268271 	300.0153522627066 	0.04446994373997036 	101343.1498488899
-0.5743243243243245 	300.0148149972011 	0.04291347947527649 	101342.5146096061
-0.5718218218218221 	300.0142735443631 	0.04134500488933657 	101341.874421814
-0.5693193193193196 	300.0137287623473 	0.03976725374518603 	101341.2303007853
-0.5668168168168171 	300.0131816723638 	0.03818280680739141 	101340.5834547284
-0.5643143143143147 	300.0126331056438 	0.03659397146808584 	101339.9348661877
-0.5618118118118121 	300.0120835219567 	0.03500146431351614 	101339.2850778692
-0.5593093093093094 	300.0115329342402 	0.03340589970077776 	101338.6341073867
-0.5568068068068072 	300.0109809828293 	0.03180674043644053 	101337.9815282575
-0.5543043043043046 	300.0104271266397 	0.03020258004504219 	101337.3266999539
-0.551801801801802 	300.0098708998354 	0.02859164131205853 	101336.6690719488
-0.5492992992992995 	300.0093120401573 	0.02697197415669419 	101336.0083333468
-0.5467967967967969 	300.0087504999235 	0.02534493832192236 	101335.3444290033
-0.5442942942942947 	300.0081864466974 	0.02371155389104451 	101334.6775570372
-0.5417917917917919 	300.007620347709 	0.02207325686992205 	101334.0082701728
-0.5392892892892895 	300.0070527202762 	0.02042982338540093 	101333.3371797188
-0.536786786786787 	300.0064837552819 	0.01878006107500221 	101332.6645105554
-0.5342842842842846 	300.0059138207056 	0.01712791624653069 	101331.990699381
-0.531781781781782 	300.0053432854599 	0.01547550716325973 	101331.3161811324
-0.5292792792792794 	300.0047720808637 	0.01382110451856751 	101330.6408746787
-0.526776776776777 	300.0042005051296 	0.01216705519239029 	101329.9651332675
-0.5242742742742745 	300.0036284059556 	0.01050972254793444 	101329.2887751596
-0.521771771771772 	300.0030558306442 	0.0088490351007915 	101328.6118583927
-0.5192692692692695 	300.0024829447726 	0.007189320217491346 	101327.9345779047
-0.516766766766767 	300.0019095990667 	0.005527876711874876 	101327.2567563679
-0.5142642642642645 	300.0013357811703 	0.003867597978268042 	101326.5783808205
-0.511761761761762 	300.0007616593775 	0.002204574901031099 	101325.8996484174
-0.5092592592592596 	300.0001872992373 	0.0005391125715311144 	101325.220638533
-0.506756756756757 	299.9996127692663 	0.001205917556741174 	101324.5414311256
-0.5042542542542544 	299.9990382050935 	0.002789259167514287 	101323.8621859006
-0.5017517517517521 	299.9984637529029 	0.004452391628986562 	101323.1830769555
-0.4992492492492494 	299.9978895329548 	0.006115873832919819 	101322.5042455202
-0.496746746746747 	299.9973156484841 	0.007778938880389446 	101321.825815113
-0.4942442442442445 	299.9967422151973 	0.00944025510141377 	101321.147921413
-0.4917417417417421 	299.9961693548944 	0.01110045848450227 	101320.4707076403
-0.4892392392392395 	299.9955971698636 	0.01275797080182409 	101319.7942955785
-0.486736736736737 	299.9950257386128 	0.01441365248225075 	101319.118777896
-0.4842342342342345 	299.9944551412072 	0.01606686276378368 	101318.4442503681
-0.481731731731732 	299.9938854954657 	0.01771673721982491 	101317.770850577
-0.4792292292292296 	299.9933169523609 	0.01936341213317222 	101317.0987572553
-0.4767267267267268 	299.9927496649022 	0.0210060757327306 	101316.4281516476
-0.4742242242242246 	299.992183761394 	0.02264526242885541 	101315.7591847494
-0.471721721721722 	299.9916193439456 	0.02428046924728647 	101315.091979407
-0.4692192192192195 	299.9910565107202 	0.02591126837923208 	101314.4266499479
-0.4667167167167169 	299.9904953527764 	0.02753748805226613 	101313.7633035304
-0.4642142142142145 	299.9899359422722 	0.02915832474858769 	101313.1020247676
-0.461711711711712 	299.9893783365088 	0.03077393536190004 	101312.4428827447
-0.4592092092092094 	299.9888226138848 	0.03238374803387462 	101311.785971313
-0.456706706706707 	299.9882688984203 	0.03398761864977833 	101311.131436456
-0.4542042042042045 	299.9877173382141 	0.03558522931084761 	101310.479452534
-0.451701701701702 	299.9871680693725 	0.03717593549178829 	101309.8301783135
-0.4491991991991995 	299.9866212027921 	0.03875992060464446 	101309.1837460449
-0.4466966966966969 	299.9860768413974 	0.04033679686556336 	101308.5402791467
-0.4441941941941945 	299.9855350813424 	0.04190676276609127 	101307.8998915617
-0.441691691691692 	299.9849959963482 	0.04346915475112451 	101307.2626702449
-0.4391891891891895 	299.9844596525924 	0.0450230916301716 	101306.6286907626
-0.436686686686687 	299.9839261411171 	0.04656846791273919 	101305.998059946
-0.4341841841841846 	299.9833955820129 	0.04810489856138692 	101305.3709213626
-0.431681681681682 	299.9828680946437 	0.04963305083123466 	101304.7474180643
-0.4291791791791794 	299.9823437833701 	0.05115211080656089 	101304.1276749179
-0.426676676676677 	299.9818227515862 	0.05266135037088934 	101303.5118114072
-0.4241741741741744 	299.9813050969544 	0.05416053626867535 	101302.8999401217
-0.421671671671672 	299.9807908983958 	0.05564961421164862 	101302.2921535455
-0.4191691691691694 	299.9802802286574 	0.05712997712274455 	101301.6885397938
-0.4166666666666669 	299.9797731795142 	0.05859977819156729 	101301.0892114723
-0.4141641641641645 	299.9792698618244 	0.06005786219099749 	101300.4943002987
-0.411661661661662 	299.9787703868165 	0.06150357564160212 	101299.903934381
-0.4091591591591594 	299.9782748575296 	0.06293671750628062 	101299.3182325494
-0.406656656656657 	299.9777833637801 	0.06436154661865885 	101298.7372983617
-0.4041541541541545 	299.9772959736321 	0.06577527723023671 	101298.1612149909
-0.401651651651652 	299.9768127553496 	0.06717508668441771 	101297.5900677326
-0.3991491491491494 	299.9763337961662 	0.06856282976002835 	101297.0239615499
-0.396646646646647 	299.9758591928148 	0.06993547759739022 	101296.4630108121
-0.3941441441441444 	299.9753890572086 	0.07129772604116336 	101295.9073402228
-0.3916416416416419 	299.9749235074174 	0.07264879246269981 	101295.3570878008
-0.3891391391391395 	299.9744626467037 	0.07398390549286175 	101294.8123737288
-0.3866366366366368 	299.9740065415127 	0.07530531367142453 	101294.2732824609
-0.3841341341341344 	299.9735552447431 	0.07661125646645478 	101293.7398822965
-0.381631631631632 	299.9731088080509 	0.07790448439886272 	101293.2122356724
-0.3791291291291294 	299.972667293531 	0.07918388445230197 	101292.690411665
-0.3766266266266269 	299.9722307886819 	0.08044824197729555 	101292.1745063709
-0.3741241241241244 	299.9717993939253 	0.08169877891254443 	101291.6646345468
-0.371621621621622 	299.9713732124511 	0.08293308860416702 	101291.1609206716
-0.3691191191191194 	299.9709523528467 	0.08415262923872577 	101290.6634986804
-0.366616616616617 	299.970536909959 	0.08535655537452452 	101290.172488915
-0.3641141141141143 	299.9701269628184 	0.08654407867739482 	101289.6879856662
-0.3616116116116119 	299.9697225806659 	0.08771563547303397 	101289.2100655366
-0.3591091091091095 	299.969323818056 	0.08887033656304665 	101288.7387848572
-0.356606606606607 	299.9689307188973 	0.09000917721209305 	101288.2741888115
-0.3541041041041044 	299.9685433256091 	0.0911316853927166 	101287.8163284122
-0.3516016016016019 	299.9681616856236 	0.09223745147486881 	101287.3652664384
-0.3490990990990994 	299.9677858670749 	0.09332641913137449 	101286.9210937121
-0.346596596596597 	299.9674159686585 	0.0943977548942927 	101286.4839320883
-0.3440940940940944 	299.9670521028771 	0.09545185904813391 	101286.0539115847
-0.3415915915915919 	299.9666943800567 	0.09648814231902338 	101285.6311540865
-0.3390890890890895 	299.9663428919289 	0.09750645047481582 	101285.2157569596
-0.3365865865865869 	299.9659976994092 	0.09850663500063153 	101284.8077875592
-0.3340840840840844 	299.9656588402145 	0.09948816501664261 	101284.4072941119
-0.3315815815815819 	299.9653263345351 	0.1004515214781885 	101284.0143090905
-0.3290790790790794 	299.9650001937124 	0.1013963340703237 	101283.6288574157
-0.3265765765765769 	299.9646804435715 	0.1023228051994272 	101283.2509748011
-0.3240740740740744 	299.964367141864 	0.1032305727610194 	101282.8807273278
-0.3215715715715718 	299.9640603841123 	0.1041189813949876 	101282.5182189442
-0.3190690690690695 	299.9637602814761 	0.1049882465407367 	101282.1635690546
-0.3165665665665668 	299.9634669294417 	0.1058378444984466 	101281.8168818227
-0.3140640640640644 	299.9631803902697 	0.1066682358863713 	101281.4782305147
-0.311561561561562 	299.962900703504 	0.1074788759266102 	101281.1476709269
-0.3090590590590593 	299.962627906771 	0.1082691493149859 	101280.8252580861
-0.3065565565565568 	299.9623620269775 	0.1090393742008569 	101280.5110346819
-0.3040540540540545 	299.962103078634 	0.1097891582747278 	101280.2050222228
-0.3015515515515518 	299.9618510772915 	0.1105195967303536 	101279.9072344963
-0.2990490490490494 	299.961606065881 	0.1112297935596708 	101279.6177140704
-0.2965465465465469 	299.9613681304247 	0.1119188330068703 	101279.336549519
-0.2940440440440444 	299.9611373631617 	0.1125868132940503 	101279.0638414987
-0.2915415415415418 	299.9609138221433 	0.1132332563578074 	101278.7996557348