/*--------------------------------*- C++ -*----------------------------------*\
  =========                 |
  \\      /  F ield         | OpenFOAM: The Open Source CFD Toolbox
   \\    /   O peration     | Website:  https://openfoam.org
    \\  /    A nd           | Version:  7
     \\/     M anipulation  |
\*---------------------------------------------------------------------------*/
FoamFile
{
    version     2.0;
    format      ascii;
    class       volScalarField;
    location    "0.00188";
    object      rho;
}
// * * * * * * * * * * * * * * * * * * * * * * * * * * * * * * * * * * * * * //

dimensions      [1 -3 0 0 0 0 0];

internalField   nonuniform List<scalar> 
5000
(
1.3374769
1.3374768
1.3374768
1.3374768
1.3374768
1.3374767
1.3374767
1.3374767
1.3374766
1.3374766
1.3374766
1.3374765
1.3374765
1.3374764
1.3374763
1.3374761
1.3374759
1.3374756
1.337475
1.3374739
1.3374714
1.3374675
1.3374626
1.3374559
1.3374459
1.3374308
1.3374096
1.3373818
1.3373478
1.337308
1.3372621
1.337209
1.3371474
1.3370758
1.3369944
1.3369045
1.3368094
1.3367132
1.3366206
1.3365356
1.3364611
1.3363988
1.3363486
1.3363098
1.3362808
1.3362597
1.3362448
1.3362343
1.336227
1.3362219
1.3362185
1.3362161
1.3362144
1.3362132
1.3362123
1.3362117
1.3362113
1.336211
1.3362108
1.3362107
1.3362106
1.3362105
1.3362105
1.3362104
1.3362104
1.3362104
1.3362103
1.3362103
1.3362103
1.3362103
1.3362103
1.3362103
1.3362103
1.3362103
1.3362103
1.3362103
1.3362102
1.3362102
1.3362102
1.3362102
1.3362102
1.3362102
1.3362102
1.3362102
1.3362102
1.3362102
1.3362102
1.3362102
1.3362102
1.3362102
1.3362102
1.3362101
1.3362101
1.3362101
1.3362101
1.3362101
1.3362101
1.3362101
1.3362101
1.3362101
1.3362101
1.3362101
1.3362101
1.3362101
1.3362101
1.3362101
1.3362101
1.3362101
1.3362101
1.3362101
1.3362101
1.33621
1.33621
1.33621
1.33621
1.33621
1.33621
1.33621
1.33621
1.33621
1.33621
1.33621
1.33621
1.33621
1.33621
1.33621
1.33621
1.33621
1.33621
1.33621
1.33621
1.33621
1.33621
1.33621
1.33621
1.33621
1.33621
1.33621
1.33621
1.33621
1.33621
1.33621
1.33621
1.33621
1.33621
1.33621
1.33621
1.33621
1.33621
1.33621
1.33621
1.3362099
1.3362099
1.3362099
1.3362099
1.3362099
1.3362099
1.3362099
1.3362099
1.3362099
1.3362099
1.3362099
1.3362099
1.3362099
1.3362099
1.3362099
1.3362099
1.3362099
1.3362099
1.3362099
1.3362099
1.3362099
1.3362099
1.33621
1.33621
1.33621
1.33621
1.33621
1.33621
1.33621
1.33621
1.33621
1.33621
1.33621
1.33621
1.33621
1.33621
1.33621
1.33621
1.33621
1.33621
1.33621
1.33621
1.33621
1.33621
1.33621
1.33621
1.33621
1.33621
1.33621
1.33621
1.33621
1.33621
1.33621
1.33621
1.33621
1.33621
1.33621
1.33621
1.33621
1.33621
1.3362101
1.3362101
1.3362101
1.3362101
1.3362101
1.3362101
1.3362101
1.3362101
1.3362101
1.3362101
1.3362101
1.3362101
1.3362101
1.3362101
1.3362101
1.3362101
1.3362101
1.3362101
1.3362101
1.3362101
1.3362101
1.3362101
1.33621
1.33621
1.33621
1.33621
1.33621
1.33621
1.33621
1.33621
1.33621
1.33621
1.33621
1.33621
1.33621
1.33621
1.33621
1.33621
1.33621
1.33621
1.33621
1.33621
1.3362099
1.3362099
1.3362099
1.3362099
1.3362099
1.3362099
1.3362099
1.3362098
1.3362098
1.3362098
1.3362098
1.3362098
1.3362097
1.3362097
1.3362097
1.3362097
1.3362096
1.3362096
1.3362096
1.3362096
1.3362095
1.3362095
1.3362095
1.3362094
1.3362094
1.3362094
1.3362093
1.3362093
1.3362092
1.3362092
1.3362091
1.3362091
1.336209
1.3362089
1.3362089
1.3362088
1.3362088
1.3362087
1.3362087
1.3362086
1.3362085
1.3362084
1.3362084
1.3362083
1.3362082
1.3362082
1.3362081
1.336208
1.3362079
1.3362077
1.3362076
1.3362076
1.3362075
1.3362074
1.3362072
1.3362071
1.3362069
1.3362068
1.3362067
1.3362065
1.3362064
1.3362062
1.3362061
1.3362059
1.3362057
1.3362056
1.3362054
1.3362053
1.3362051
1.3362049
1.3362047
1.3362045
1.3362043
1.3362041
1.3362039
1.3362037
1.3362035
1.3362033
1.3362031
1.3362029
1.3362026
1.3362024
1.3362022
1.3362019
1.3362016
1.3362013
1.3362011
1.3362008
1.3362004
1.3362001
1.3361998
1.3361995
1.3361991
1.3361988
1.3361984
1.336198
1.3361976
1.3361972
1.3361968
1.3361963
1.3361959
1.3361954
1.3361949
1.3361944
1.3361939
1.3361934
1.3361928
1.3361923
1.3361917
1.3361911
1.3361905
1.3361898
1.3361892
1.3361885
1.3361878
1.3361871
1.3361864
1.3361856
1.3361848
1.336184
1.3361832
1.3361824
1.3361815
1.3361807
1.3361798
1.3361788
1.3361779
1.3361769
1.3361759
1.3361749
1.3361738
1.3361728
1.3361717
1.3361705
1.3361694
1.3361682
1.336167
1.3361658
1.3361645
1.3361632
1.3361619
1.3361606
1.3361592
1.3361578
1.3361563
1.3361549
1.3361534
1.3361519
1.3361503
1.3361487
1.3361471
1.3361454
1.3361437
1.336142
1.3361403
1.3361385
1.3361366
1.3361348
1.3361329
1.336131
1.336129
1.336127
1.3361249
1.3361229
1.3361208
1.3361186
1.3361164
1.3361142
1.3361119
1.3361096
1.3361073
1.3361049
1.3361024
1.3361
1.3360975
1.3360949
1.3360923
1.3360897
1.336087
1.3360842
1.3360815
1.3360787
1.3360758
1.3360729
1.33607
1.336067
1.3360639
1.3360609
1.3360578
1.3360546
1.3360514
1.3360481
1.3360448
1.3360415
1.3360381
1.3360346
1.3360311
1.3360276
1.336024
1.3360204
1.3360167
1.336013
1.3360092
1.3360054
1.3360015
1.3359976
1.3359936
1.3359896
1.3359855
1.3359814
1.3359772
1.335973
1.3359687
1.3359644
1.33596
1.3359556
1.3359511
1.3359466
1.335942
1.3359374
1.3359327
1.335928
1.3359232
1.3359184
1.3359135
1.3359086
1.3359036
1.3358986
1.3358935
1.3358884
1.3358832
1.335878
1.3358727
1.3358674
1.335862
1.3358566
1.3358512
1.3358456
1.3358401
1.3358344
1.3358288
1.335823
1.3358173
1.3358114
1.3358056
1.3357997
1.3357937
1.3357877
1.3357817
1.3357756
1.3357694
1.3357632
1.335757
1.3357507
1.3357444
1.335738
1.3357316
1.3357251
1.3357186
1.335712
1.3357054
1.3356988
1.3356921
1.3356853
1.3356786
1.3356718
1.3356649
1.335658
1.335651
1.3356441
1.335637
1.33563
1.3356229
1.3356157
1.3356085
1.3356013
1.3355941
1.3355868
1.3355794
1.3355721
1.3355647
1.3355572
1.3355497
1.3355422
1.3355347
1.3355271
1.3355195
1.3355118
1.3355041
1.3354964
1.3354886
1.3354809
1.335473
1.3354652
1.3354573
1.3354494
1.3354415
1.3354335
1.3354255
1.3354175
1.3354095
1.3354014
1.3353933
1.3353852
1.335377
1.3353688
1.3353606
1.3353524
1.3353441
1.3353359
1.3353276
1.3353193
1.3353109
1.3353026
1.3352942
1.3352858
1.3352773
1.3352689
1.3352604
1.335252
1.3352435
1.3352349
1.3352264
1.3352179
1.3352093
1.3352007
1.3351921
1.3351835
1.3351749
1.3351663
1.3351576
1.335149
1.3351403
1.3351316
1.3351229
1.3351142
1.3351055
1.3350968
1.3350881
1.3350794
1.3350706
1.3350619
1.3350531
1.3350444
1.3350356
1.3350268
1.335018
1.3350093
1.3350005
1.3349917
1.3349829
1.3349742
1.3349654
1.3349566
1.3349478
1.334939
1.3349302
1.3349215
1.3349127
1.3349039
1.3348951
1.3348864
1.3348776
1.3348688
1.3348601
1.3348513
1.3348426
1.3348339
1.3348252
1.3348164
1.3348077
1.334799
1.3347903
1.3347817
1.334773
1.3347643
1.3347557
1.3347471
1.3347384
1.3347298
1.3347212
1.3347127
1.3347041
1.3346955
1.334687
1.3346785
1.33467
1.3346615
1.334653
1.3346446
1.3346361
1.3346277
1.3346193
1.3346109
1.3346026
1.3345942
1.3345859
1.3345776
1.3345693
1.3345611
1.3345528
1.3345446
1.3345364
1.3345283
1.3345201
1.334512
1.3345039
1.3344958
1.3344878
1.3344798
1.3344718
1.3344638
1.3344558
1.3344479
1.33444
1.3344322
1.3344243
1.3344165
1.3344087
1.334401
1.3343932
1.3343856
1.3343779
1.3343702
1.3343626
1.334355
1.3343475
1.33434
1.3343325
1.334325
1.3343176
1.3343102
1.3343028
1.3342955
1.3342882
1.3342809
1.3342737
1.3342664
1.3342593
1.3342521
1.334245
1.3342379
1.3342309
1.3342239
1.3342169
1.3342099
1.334203
1.3341961
1.3341893
1.3341824
1.3341757
1.3341689
1.3341622
1.3341555
1.3341489
1.3341422
1.3341357
1.3341291
1.3341226
1.3341161
1.3341097
1.3341033
1.3340969
1.3340905
1.3340842
1.3340779
1.3340717
1.3340655
1.3340593
1.3340532
1.3340471
1.334041
1.3340349
1.3340289
1.334023
1.334017
1.3340111
1.3340053
1.3339994
1.3339936
1.3339878
1.3339821
1.3339764
1.3339707
1.3339651
1.3339595
1.3339539
1.3339484
1.3339428
1.3339374
1.3339319
1.3339265
1.3339211
1.3339158
1.3339105
1.3339052
1.3338999
1.3338947
1.3338895
1.3338844
1.3338793
1.3338742
1.3338691
1.3338641
1.3338591
1.3338541
1.3338492
1.3338442
1.3338394
1.3338345
1.3338297
1.3338249
1.3338201
1.3338154
1.3338107
1.333806
1.3338014
1.3337968
1.3337922
1.3337876
1.3337831
1.3337786
1.3337741
1.3337697
1.3337652
1.3337608
1.3337565
1.3337521
1.3337478
1.3337436
1.3337393
1.3337351
1.3337309
1.3337267
1.3337225
1.3337184
1.3337143
1.3337102
1.3337062
1.3337022
1.3336982
1.3336942
1.3336903
1.3336863
1.3336824
1.3336786
1.3336747
1.3336709
1.3336671
1.3336633
1.3336596
1.3336559
1.3336522
1.3336485
1.3336449
1.3336412
1.3336376
1.3336341
1.3336305
1.333627
1.3336235
1.33362
1.3336165
1.3336131
1.3336096
1.3336062
1.3336029
1.3335995
1.3335962
1.3335929
1.3335896
1.3335864
1.3335831
1.3335799
1.3335767
1.3335736
1.3335704
1.3335673
1.3335642
1.3335611
1.333558
1.333555
1.333552
1.333549
1.333546
1.3335431
1.3335401
1.3335372
1.3335344
1.3335315
1.3335286
1.3335258
1.333523
1.3335202
1.3335175
1.3335148
1.333512
1.3335093
1.3335067
1.333504
1.3335014
1.3334988
1.3334962
1.3334936
1.3334911
1.3334886
1.3334861
1.3334836
1.3334811
1.3334787
1.3334762
1.3334738
1.3334715
1.3334691
1.3334668
1.3334644
1.3334621
1.3334599
1.3334576
1.3334554
1.3334532
1.333451
1.3334488
1.3334466
1.3334445
1.3334424
1.3334403
1.3334382
1.3334362
1.3334341
1.3334321
1.3334301
1.3334282
1.3334262
1.3334243
1.3334223
1.3334204
1.3334186
1.3334167
1.3334149
1.3334131
1.3334113
1.3334095
1.3334077
1.333406
1.3334043
1.3334026
1.3334009
1.3333992
1.3333976
1.333396
1.3333944
1.3333928
1.3333912
1.3333896
1.3333881
1.3333866
1.3333851
1.3333836
1.3333822
1.3333807
1.3333793
1.3333779
1.3333765
1.3333751
1.3333738
1.3333725
1.3333711
1.3333698
1.3333686
1.3333673
1.3333661
1.3333648
1.3333636
1.3333624
1.3333612
1.3333601
1.3333589
1.3333578
1.3333567
1.3333555
1.3333545
1.3333534
1.3333523
1.3333513
1.3333503
1.3333493
1.3333483
1.3333473
1.3333463
1.3333454
1.3333445
1.3333435
1.3333426
1.3333418
1.3333409
1.33334
1.3333392
1.3333383
1.3333375
1.3333367
1.3333359
1.3333351
1.3333343
1.3333336
1.3333329
1.3333321
1.3333314
1.3333307
1.33333
1.3333293
1.3333287
1.333328
1.3333273
1.3333267
1.3333261
1.3333255
1.3333249
1.3333243
1.3333237
1.3333231
1.3333226
1.333322
1.3333215
1.333321
1.3333204
1.3333199
1.3333194
1.3333189
1.3333185
1.333318
1.3333175
1.3333171
1.3333166
1.3333162
1.3333158
1.3333154
1.333315
1.3333146
1.3333142
1.3333138
1.3333134
1.333313
1.3333127
1.3333123
1.333312
1.3333117
1.3333113
1.333311
1.3333107
1.3333104
1.3333101
1.3333098
1.3333095
1.3333092
1.3333089
1.3333086
1.3333084
1.3333081
1.3333079
1.3333076
1.3333074
1.3333071
1.3333069
1.3333067
1.3333064
1.3333062
1.333306
1.3333058
1.3333056
1.3333054
1.3333052
1.333305
1.3333049
1.3333047
1.3333045
1.3333043
1.3333042
1.333304
1.3333039
1.3333037
1.3333035
1.3333034
1.3333033
1.3333031
1.333303
1.3333029
1.3333027
1.3333026
1.3333025
1.3333024
1.3333022
1.3333021
1.333302
1.3333019
1.3333018
1.3333017
1.3333016
1.3333015
1.3333014
1.3333013
1.3333012
1.3333012
1.3333011
1.333301
1.3333009
1.3333008
1.3333008
1.3333007
1.3333006
1.3333005
1.3333005
1.3333004
1.3333004
1.3333003
1.3333002
1.3333002
1.3333001
1.3333001
1.3333
1.3333
1.3332999
1.3332999
1.3332998
1.3332998
1.3332998
1.3332997
1.3332997
1.3332996
1.3332996
1.3332996
1.3332995
1.3332995
1.3332995
1.3332994
1.3332994
1.3332994
1.3332993
1.3332993
1.3332993
1.3332993
1.3332992
1.3332992
1.3332992
1.3332992
1.3332991
1.3332991
1.3332991
1.3332991
1.3332991
1.333299
1.333299
1.333299
1.333299
1.333299
1.333299
1.3332989
1.3332989
1.3332989
1.3332989
1.3332989
1.3332989
1.3332988
1.3332988
1.3332988
1.3332988
1.3332988
1.3332988
1.3332988
1.3332988
1.3332988
1.3332988
1.3332988
1.3332987
1.3332987
1.3332987
1.3332987
1.3332987
1.3332987
1.3332987
1.3332987
1.3332987
1.3332987
1.3332987
1.3332986
1.3332986
1.3332986
1.3332986
1.3332986
1.3332986
1.3332986
1.3332986
1.3332986
1.3332986
1.3332986
1.3332986
1.3332986
1.3332986
1.3332986
1.3332986
1.3332986
1.3332986
1.3332986
1.3332985
1.3332985
1.3332985
1.3332985
1.3332985
1.3332985
1.3332985
1.3332985
1.3332985
1.3332985
1.3332985
1.3332985
1.3332985
1.3332985
1.3332985
1.3332985
1.3332985
1.3332985
1.3332985
1.3332985
1.3332984
1.3332984
1.3332984
1.3332984
1.3332984
1.3332984
1.3332984
1.3332984
1.3332984
1.3332984
1.3332984
1.3332984
1.3332984
1.3332984
1.3332984
1.3332984
1.3332984
1.3332984
1.3332984
1.3332984
1.3332984
1.3332984
1.3332983
1.3332983
1.3332983
1.3332983
1.3332983
1.3332983
1.3332983
1.3332983
1.3332983
1.3332983
1.3332983
1.3332983
1.3332983
1.3332983
1.3332983
1.3332983
1.3332983
1.3332983
1.3332983
1.3332982
1.3332982
1.3332982
1.3332982
1.3332982
1.3332982
1.3332982
1.3332982
1.3332982
1.3332982
1.3332982
1.3332982
1.3332982
1.3332982
1.3332982
1.3332982
1.3332982
1.3332981
1.3332981
1.3332981
1.3332981
1.3332981
1.3332981
1.3332981
1.3332981
1.3332981
1.3332981
1.3332981
1.3332981
1.3332981
1.3332981
1.333298
1.333298
1.333298
1.333298
1.333298
1.333298
1.333298
1.333298
1.333298
1.333298
1.333298
1.333298
1.333298
1.3332979
1.3332979
1.3332979
1.3332979
1.3332979
1.3332979
1.3332979
1.3332979
1.3332979
1.3332979
1.3332979
1.3332979
1.3332978
1.3332978
1.3332978
1.3332978
1.3332978
1.3332978
1.3332978
1.3332978
1.3332978
1.3332978
1.3332978
1.3332978
1.3332978
1.3332977
1.3332977
1.3332977
1.3332977
1.3332977
1.3332977
1.3332977
1.3332977
1.3332977
1.3332977
1.3332977
1.3332977
1.3332976
1.3332976
1.3332976
1.3332976
1.3332976
1.3332976
1.3332976
1.3332976
1.3332976
1.3332976
1.3332976
1.3332976
1.3332976
1.3332976
1.3332976
1.3332975
1.3332975
1.3332975
1.3332975
1.3332975
1.3332975
1.3332975
1.3332975
1.3332975
1.3332975
1.3332975
1.3332975
1.3332975
1.3332974
1.3332974
1.3332974
1.3332974
1.3332974
1.3332974
1.3332974
1.3332974
1.3332974
1.3332974
1.3332974
1.3332974
1.3332974
1.3332974
1.3332974
1.3332973
1.3332973
1.3332973
1.3332973
1.3332973
1.3332973
1.3332973
1.3332973
1.3332973
1.3332973
1.3332973
1.3332973
1.3332973
1.3332973
1.3332973
1.3332973
1.3332972
1.3332972
1.3332972
1.3332972
1.3332972
1.3332972
1.3332972
1.3332972
1.3332972
1.3332972
1.3332972
1.3332972
1.3332972
1.3332972
1.3332972
1.3332972
1.3332971
1.3332971
1.3332971
1.3332971
1.3332971
1.3332971
1.3332971
1.3332971
1.3332971
1.3332971
1.3332971
1.3332971
1.3332971
1.3332971
1.3332971
1.3332971
1.3332971
1.333297
1.333297
1.333297
1.333297
1.333297
1.333297
1.333297
1.333297
1.333297
1.333297
1.333297
1.333297
1.333297
1.333297
1.3332969
1.3332969
1.3332969
1.3332969
1.3332969
1.3332969
1.3332969
1.3332969
1.3332969
1.3332969
1.3332969
1.3332969
1.3332969
1.3332969
1.3332968
1.3332968
1.3332968
1.3332968
1.3332968
1.3332968
1.3332968
1.3332968
1.3332968
1.3332968
1.3332968
1.3332968
1.3332968
1.3332968
1.3332967
1.3332967
1.3332967
1.3332967
1.3332967
1.3332967
1.3332967
1.3332967
1.3332967
1.3332967
1.3332967
1.3332967
1.3332967
1.3332966
1.3332966
1.3332966
1.3332966
1.3332966
1.3332966
1.3332966
1.3332966
1.3332966
1.3332966
1.3332965
1.3332965
1.3332965
1.3332965
1.3332965
1.3332965
1.3332965
1.3332965
1.3332965
1.3332965
1.3332965
1.3332965
1.3332965
1.3332964
1.3332964
1.3332964
1.3332964
1.3332964
1.3332964
1.3332964
1.3332964
1.3332964
1.3332964
1.3332964
1.3332964
1.3332963
1.3332963
1.3332963
1.3332963
1.3332963
1.3332963
1.3332963
1.3332963
1.3332963
1.3332963
1.3332963
1.3332962
1.3332962
1.3332962
1.3332962
1.3332962
1.3332962
1.3332962
1.3332962
1.3332962
1.3332962
1.3332962
1.3332962
1.3332961
1.3332961
1.3332961
1.3332961
1.3332961
1.3332961
1.3332961
1.3332961
1.3332961
1.3332961
1.3332961
1.3332961
1.333296
1.333296
1.333296
1.333296
1.333296
1.333296
1.333296
1.333296
1.333296
1.333296
1.333296
1.3332959
1.3332959
1.3332959
1.3332959
1.3332959
1.3332959
1.3332959
1.3332959
1.3332959
1.3332959
1.3332959
1.3332959
1.3332958
1.3332958
1.3332958
1.3332958
1.3332958
1.3332958
1.3332958
1.3332958
1.3332958
1.3332957
1.3332957
1.3332957
1.3332957
1.3332957
1.3332957
1.3332957
1.3332957
1.3332957
1.3332957
1.3332957
1.3332957
1.3332956
1.3332956
1.3332956
1.3332956
1.3332956
1.3332956
1.3332956
1.3332956
1.3332956
1.3332955
1.3332955
1.3332955
1.3332955
1.3332955
1.3332955
1.3332955
1.3332955
1.3332955
1.3332955
1.3332955
1.3332954
1.3332954
1.3332954
1.3332954
1.3332954
1.3332954
1.3332954
1.3332954
1.3332954
1.3332954
1.3332953
1.3332953
1.3332953
1.3332953
1.3332953
1.3332953
1.3332953
1.3332953
1.3332953
1.3332953
1.3332952
1.3332952
1.3332952
1.3332952
1.3332952
1.3332952
1.3332952
1.3332952
1.3332951
1.3332951
1.3332951
1.3332951
1.3332951
1.3332951
1.3332951
1.3332951
1.3332951
1.333295
1.333295
1.333295
1.333295
1.333295
1.333295
1.333295
1.333295
1.333295
1.333295
1.3332949
1.3332949
1.3332949
1.3332949
1.3332949
1.3332949
1.3332949
1.3332949
1.3332949
1.3332948
1.3332948
1.3332948
1.3332948
1.3332948
1.3332948
1.3332948
1.3332948
1.3332948
1.3332947
1.3332947
1.3332947
1.3332947
1.3332947
1.3332947
1.3332947
1.3332947
1.3332946
1.3332946
1.3332946
1.3332946
1.3332946
1.3332946
1.3332946
1.3332946
1.3332946
1.3332945
1.3332945
1.3332945
1.3332945
1.3332945
1.3332945
1.3332945
1.3332945
1.3332945
1.3332944
1.3332944
1.3332944
1.3332944
1.3332944
1.3332944
1.3332944
1.3332944
1.3332943
1.3332943
1.3332943
1.3332943
1.3332943
1.3332943
1.3332943
1.3332943
1.3332943
1.3332942
1.3332942
1.3332942
1.3332942
1.3332942
1.3332942
1.3332942
1.3332942
1.3332942
1.3332941
1.3332941
1.3332941
1.3332941
1.3332941
1.3332941
1.3332941
1.3332941
1.333294
1.333294
1.333294
1.333294
1.333294
1.333294
1.333294
1.333294
1.3332939
1.3332939
1.3332939
1.3332939
1.3332939
1.3332939
1.3332939
1.3332939
1.3332939
1.3332938
1.3332938
1.3332938
1.3332938
1.3332938
1.3332938
1.3332938
1.3332938
1.3332938
1.3332937
1.3332937
1.3332937
1.3332937
1.3332937
1.3332937
1.3332937
1.3332936
1.3332936
1.3332936
1.3332936
1.3332936
1.3332936
1.3332936
1.3332936
1.3332936
1.3332935
1.3332935
1.3332935
1.3332935
1.3332935
1.3332935
1.3332935
1.3332934
1.3332934
1.3332934
1.3332934
1.3332934
1.3332934
1.3332934
1.3332934
1.3332933
1.3332933
1.3332933
1.3332933
1.3332933
1.3332933
1.3332933
1.3332932
1.3332932
1.3332932
1.3332932
1.3332932
1.3332932
1.3332932
1.3332931
1.3332931
1.3332931
1.3332931
1.3332931
1.3332931
1.3332931
1.333293
1.333293
1.333293
1.333293
1.333293
1.333293
1.333293
1.3332929
1.3332929
1.3332929
1.3332929
1.3332929
1.3332929
1.3332928
1.3332928
1.3332928
1.3332928
1.3332928
1.3332928
1.3332927
1.3332927
1.3332927
1.3332927
1.3332927
1.3332927
1.3332927
1.3332926
1.3332926
1.3332926
1.3332926
1.3332926
1.3332926
1.3332925
1.3332925
1.3332925
1.3332925
1.3332925
1.3332925
1.3332924
1.3332924
1.3332924
1.3332924
1.3332924
1.3332924
1.3332924
1.3332923
1.3332923
1.3332923
1.3332923
1.3332923
1.3332923
1.3332922
1.3332922
1.3332922
1.3332922
1.3332922
1.3332922
1.3332921
1.3332921
1.3332921
1.3332921
1.3332921
1.3332921
1.333292
1.333292
1.333292
1.333292
1.333292
1.333292
1.3332919
1.3332919
1.3332919
1.3332919
1.3332919
1.3332919
1.3332919
1.3332918
1.3332918
1.3332918
1.3332918
1.3332918
1.3332918
1.3332917
1.3332917
1.3332917
1.3332917
1.3332917
1.3332917
1.3332916
1.3332916
1.3332916
1.3332916
1.3332916
1.3332916
1.3332915
1.3332915
1.3332915
1.3332915
1.3332915
1.3332915
1.3332914
1.3332914
1.3332914
1.3332914
1.3332914
1.3332914
1.3332914
1.3332913
1.3332913
1.3332913
1.3332913
1.3332913
1.3332913
1.3332912
1.3332912
1.3332912
1.3332912
1.3332912
1.3332912
1.3332911
1.3332911
1.3332911
1.3332911
1.3332911
1.333291
1.333291
1.333291
1.333291
1.333291
1.333291
1.3332909
1.3332909
1.3332909
1.3332909
1.3332909
1.3332909
1.3332908
1.3332908
1.3332908
1.3332908
1.3332908
1.3332908
1.3332907
1.3332907
1.3332907
1.3332907
1.3332907
1.3332906
1.3332906
1.3332906
1.3332906
1.3332906
1.3332905
1.3332905
1.3332905
1.3332905
1.3332905
1.3332905
1.3332904
1.3332904
1.3332904
1.3332904
1.3332904
1.3332903
1.3332903
1.3332903
1.3332903
1.3332903
1.3332902
1.3332902
1.3332902
1.3332902
1.3332902
1.3332901
1.3332901
1.3332901
1.3332901
1.3332901
1.33329
1.33329
1.33329
1.33329
1.33329
1.3332899
1.3332899
1.3332899
1.3332899
1.3332899
1.3332898
1.3332898
1.3332898
1.3332898
1.3332897
1.3332897
1.3332897
1.3332897
1.3332897
1.3332896
1.3332896
1.3332896
1.3332896
1.3332896
1.3332895
1.3332895
1.3332895
1.3332895
1.3332895
1.3332894
1.3332894
1.3332894
1.3332894
1.3332893
1.3332893
1.3332893
1.3332893
1.3332892
1.3332892
1.3332892
1.3332892
1.3332892
1.3332891
1.3332891
1.3332891
1.3332891
1.333289
1.333289
1.333289
1.333289
1.333289
1.3332889
1.3332889
1.3332889
1.3332889
1.3332888
1.3332888
1.3332888
1.3332888
1.3332888
1.3332887
1.3332887
1.3332887
1.3332887
1.3332886
1.3332886
1.3332886
1.3332886
1.3332885
1.3332885
1.3332885
1.3332885
1.3332884
1.3332884
1.3332884
1.3332884
1.3332884
1.3332883
1.3332883
1.3332883
1.3332883
1.3332882
1.3332882
1.3332882
1.3332882
1.3332881
1.3332881
1.3332881
1.3332881
1.333288
1.333288
1.333288
1.333288
1.3332879
1.3332879
1.3332879
1.3332879
1.3332878
1.3332878
1.3332878
1.3332878
1.3332877
1.3332877
1.3332877
1.3332877
1.3332876
1.3332876
1.3332876
1.3332876
1.3332875
1.3332875
1.3332875
1.3332875
1.3332874
1.3332874
1.3332874
1.3332874
1.3332873
1.3332873
1.3332873
1.3332872
1.3332872
1.3332872
1.3332872
1.3332871
1.3332871
1.3332871
1.3332871
1.333287
1.333287
1.333287
1.333287
1.3332869
1.3332869
1.3332869
1.3332868
1.3332868
1.3332868
1.3332868
1.3332867
1.3332867
1.3332867
1.3332867
1.3332866
1.3332866
1.3332866
1.3332865
1.3332865
1.3332865
1.3332865
1.3332864
1.3332864
1.3332864
1.3332863
1.3332863
1.3332863
1.3332862
1.3332862
1.3332862
1.3332862
1.3332861
1.3332861
1.3332861
1.333286
1.333286
1.333286
1.333286
1.3332859
1.3332859
1.3332859
1.3332858
1.3332858
1.3332858
1.3332857
1.3332857
1.3332857
1.3332856
1.3332856
1.3332856
1.3332855
1.3332855
1.3332855
1.3332855
1.3332854
1.3332854
1.3332854
1.3332853
1.3332853
1.3332853
1.3332852
1.3332852
1.3332852
1.3332851
1.3332851
1.3332851
1.333285
1.333285
1.333285
1.333285
1.3332849
1.3332849
1.3332849
1.3332848
1.3332848
1.3332848
1.3332847
1.3332847
1.3332847
1.3332846
1.3332846
1.3332846
1.3332845
1.3332845
1.3332845
1.3332844
1.3332844
1.3332843
1.3332843
1.3332843
1.3332842
1.3332842
1.3332842
1.3332841
1.3332841
1.3332841
1.333284
1.333284
1.333284
1.3332839
1.3332839
1.3332839
1.3332838
1.3332838
1.3332837
1.3332837
1.3332837
1.3332836
1.3332836
1.3332836
1.3332835
1.3332835
1.3332834
1.3332834
1.3332834
1.3332833
1.3332833
1.3332832
1.3332832
1.3332832
1.3332831
1.3332831
1.3332831
1.333283
1.333283
1.3332829
1.3332829
1.3332829
1.3332828
1.3332828
1.3332827
1.3332827
1.3332827
1.3332826
1.3332826
1.3332825
1.3332825
1.3332825
1.3332824
1.3332824
1.3332823
1.3332823
1.3332822
1.3332822
1.3332822
1.3332821
1.3332821
1.333282
1.333282
1.3332819
1.3332819
1.3332819
1.3332818
1.3332818
1.3332817
1.3332817
1.3332816
1.3332816
1.3332815
1.3332815
1.3332815
1.3332814
1.3332814
1.3332813
1.3332813
1.3332812
1.3332812
1.3332812
1.3332811
1.3332811
1.333281
1.333281
1.3332809
1.3332809
1.3332808
1.3332808
1.3332807
1.3332807
1.3332806
1.3332806
1.3332805
1.3332805
1.3332804
1.3332804
1.3332804
1.3332803
1.3332803
1.3332802
1.3332802
1.3332801
1.3332801
1.33328
1.33328
1.3332799
1.3332799
1.3332798
1.3332798
1.3332797
1.3332797
1.3332796
1.3332796
1.3332795
1.3332795
1.3332794
1.3332794
1.3332793
1.3332793
1.3332792
1.3332792
1.3332791
1.3332791
1.333279
1.333279
1.3332789
1.3332788
1.3332788
1.3332787
1.3332787
1.3332786
1.3332786
1.3332785
1.3332784
1.3332784
1.3332783
1.3332783
1.3332782
1.3332782
1.3332781
1.3332781
1.333278
1.333278
1.3332779
1.3332779
1.3332778
1.3332777
1.3332777
1.3332776
1.3332776
1.3332775
1.3332774
1.3332774
1.3332773
1.3332773
1.3332772
1.3332771
1.3332771
1.333277
1.333277
1.3332769
1.3332768
1.3332768
1.3332767
1.3332766
1.3332766
1.3332765
1.3332765
1.3332764
1.3332763
1.3332763
1.3332762
1.3332761
1.3332761
1.333276
1.3332759
1.3332759
1.3332758
1.3332757
1.3332757
1.3332756
1.3332755
1.3332755
1.3332754
1.3332753
1.3332753
1.3332752
1.3332751
1.3332751
1.333275
1.3332749
1.3332749
1.3332748
1.3332747
1.3332746
1.3332746
1.3332745
1.3332744
1.3332744
1.3332743
1.3332742
1.3332741
1.3332741
1.333274
1.3332739
1.3332738
1.3332738
1.3332737
1.3332736
1.3332735
1.3332735
1.3332734
1.3332733
1.3332732
1.3332731
1.3332731
1.333273
1.3332729
1.3332728
1.3332727
1.3332727
1.3332726
1.3332725
1.3332724
1.3332723
1.3332722
1.3332722
1.3332721
1.333272
1.3332719
1.3332718
1.3332717
1.3332717
1.3332716
1.3332715
1.3332714
1.3332713
1.3332712
1.3332711
1.333271
1.333271
1.3332709
1.3332708
1.3332707
1.3332706
1.3332705
1.3332704
1.3332703
1.3332702
1.3332701
1.33327
1.3332699
1.3332698
1.3332697
1.3332696
1.3332695
1.3332694
1.3332693
1.3332692
1.3332691
1.333269
1.3332689
1.3332688
1.3332687
1.3332686
1.3332685
1.3332684
1.3332683
1.3332682
1.3332681
1.333268
1.3332679
1.3332678
1.3332677
1.3332676
1.3332675
1.3332673
1.3332672
1.3332671
1.333267
1.3332669
1.3332668
1.3332666
1.3332665
1.3332664
1.3332663
1.3332662
1.3332661
1.3332659
1.3332658
1.3332657
1.3332656
1.3332655
1.3332653
1.3332652
1.3332651
1.333265
1.3332648
1.3332647
1.3332646
1.3332644
1.3332643
1.3332642
1.333264
1.3332639
1.3332638
1.3332636
1.3332635
1.3332633
1.3332632
1.3332631
1.3332629
1.3332628
1.3332626
1.3332625
1.3332623
1.3332622
1.3332621
1.3332619
1.3332618
1.3332616
1.3332615
1.3332613
1.3332612
1.333261
1.3332609
1.3332607
1.3332606
1.3332604
1.3332603
1.3332601
1.3332599
1.3332598
1.3332596
1.3332594
1.3332593
1.3332591
1.3332589
1.3332587
1.3332586
1.3332584
1.3332582
1.333258
1.3332578
1.3332577
1.3332575
1.3332573
1.3332571
1.3332569
1.3332567
1.3332565
1.3332563
1.3332561
1.3332559
1.3332557
1.3332555
1.3332553
1.3332551
1.3332549
1.3332547
1.3332545
1.3332543
1.3332541
1.3332539
1.3332536
1.3332534
1.3332532
1.333253
1.3332528
1.3332525
1.3332523
1.3332521
1.3332518
1.3332516
1.3332513
1.3332511
1.3332508
1.3332506
1.3332503
1.3332501
1.3332498
1.3332495
1.3332493
1.333249
1.3332487
1.3332484
1.3332482
1.3332479
1.3332476
1.3332473
1.333247
1.3332468
1.3332465
1.3332462
1.3332459
1.3332456
1.3332453
1.333245
1.3332447
1.3332443
1.333244
1.3332437
1.3332433
1.333243
1.3332426
1.3332423
1.3332419
1.3332416
1.3332412
1.3332408
1.3332404
1.3332401
1.3332397
1.3332393
1.3332389
1.3332385
1.3332381
1.3332377
1.3332373
1.3332368
1.3332364
1.333236
1.3332355
1.3332351
1.3332346
1.3332342
1.3332337
1.3332332
1.3332327
1.3332322
1.3332317
1.3332312
1.3332307
1.3332302
1.3332297
1.3332292
1.3332287
1.3332281
1.3332276
1.3332271
1.3332265
1.333226
1.3332254
1.3332249
1.3332243
1.3332238
1.3332233
1.3332227
1.3332222
1.3332217
1.3332212
1.3332207
1.3332202
1.3332198
1.3332193
1.3332189
1.3332186
1.3332182
1.3332179
1.3332176
1.3332174
1.3332172
1.333217
1.3332169
1.3332168
1.3332168
1.3332167
1.3332167
1.3332167
1.3332167
1.3332168
1.3332169
1.333217
1.3332171
1.3332173
1.3332174
1.3332174
1.3332175
1.3332175
1.3332175
1.3332175
1.3332174
1.3332173
1.333217
1.3332166
1.333216
1.3332153
1.3332145
1.3332136
1.3332127
1.3332117
1.3332106
1.3332095
1.3332083
1.3332071
1.3332058
1.3332045
1.3332033
1.333202
1.3332008
1.3331996
1.3331985
1.3331974
1.3331964
1.3331955
1.3331947
1.3331939
1.3331933
1.3331928
1.3331925
1.3331922
1.3331921
1.333192
1.3331918
1.3331914
1.3331905
1.3331886
1.333184
1.333173
1.3331458
1.3330787
1.3329119
1.3325008
1.3314781
1.3294737
1.3268744
1.3237437
1.3201527
1.3161925
1.3119692
1.3075955
1.3031829
1.2988353
1.2946434
1.2906817
1.2870065
1.2836561
1.2806515
1.2779988
1.2756912
1.273712
1.2720375
1.2706393
1.2694865
1.2685477
1.2677924
1.267192
1.2667201
1.2663536
1.2660724
1.265859
1.2656993
1.2655811
1.265495
1.2654331
1.2653896
1.2653595
1.2653393
1.2653263
1.2653183
1.2653139
1.2653118
1.2653112
1.2653112
1.2653119
1.2653139
1.2653165
1.2653191
1.2653214
1.2653236
1.2653257
1.2653276
1.2653295
1.2653312
1.2653329
1.2653344
1.265336
1.2653375
1.265339
1.2653404
1.2653419
1.2653435
1.2653451
1.2653467
1.2653484
1.2653501
1.265352
1.2653539
1.2653558
1.2653578
1.2653599
1.2653619
1.2653641
1.2653662
1.2653683
1.2653704
1.2653724
1.2653744
1.2653764
1.2653783
1.2653802
1.265382
1.2653837
1.2653853
1.2653869
1.2653883
1.2653898
1.2653911
1.2653924
1.2653936
1.2653947
1.2653958
1.2653969
1.2653979
1.2653988
1.2653997
1.2654006
1.2654014
1.2654022
1.265403
1.2654037
1.2654045
1.2654052
1.2654058
1.2654065
1.2654071
1.2654078
1.2654084
1.265409
1.2654095
1.2654101
1.2654107
1.2654112
1.2654117
1.2654123
1.2654128
1.2654133
1.2654138
1.2654142
1.2654147
1.2654152
1.2654157
1.2654161
1.2654166
1.265417
1.2654174
1.2654178
1.2654183
1.2654187
1.2654191
1.2654195
1.2654199
1.2654203
1.2654206
1.265421
1.2654214
1.2654218
1.2654221
1.2654225
1.2654228
1.2654232
1.2654235
1.2654239
1.2654242
1.2654245
1.2654249
1.2654252
1.2654255
1.2654258
1.2654261
1.2654264
1.2654267
1.265427
1.2654273
1.2654276
1.2654279
1.2654281
1.2654284
1.2654287
1.265429
1.2654292
1.2654295
1.2654298
1.26543
1.2654303
1.2654305
1.2654308
1.265431
1.2654313
1.2654315
1.2654318
1.265432
1.2654323
1.2654325
1.2654327
1.265433
1.2654332
1.2654334
1.2654336
1.2654338
1.2654341
1.2654343
1.2654345
1.2654347
1.2654349
1.2654351
1.2654353
1.2654355
1.2654357
1.2654359
1.2654361
1.2654363
1.2654365
1.2654367
1.2654369
1.2654371
1.2654373
1.2654375
1.2654377
1.2654379
1.265438
1.2654382
1.2654384
1.2654386
1.2654387
1.2654389
1.2654391
1.2654392
1.2654394
1.2654396
1.2654397
1.2654399
1.2654401
1.2654402
1.2654404
1.2654406
1.2654407
1.2654409
1.265441
1.2654412
1.2654413
1.2654415
1.2654416
1.2654418
1.2654419
1.2654421
1.2654422
1.2654424
1.2654425
1.2654427
1.2654428
1.2654429
1.2654431
1.2654432
1.2654434
1.2654435
1.2654436
1.2654438
1.2654439
1.265444
1.2654442
1.2654443
1.2654444
1.2654446
1.2654447
1.2654448
1.265445
1.2654451
1.2654452
1.2654453
1.2654454
1.2654456
1.2654457
1.2654458
1.2654459
1.265446
1.2654461
1.2654463
1.2654464
1.2654465
1.2654466
1.2654467
1.2654468
1.265447
1.2654471
1.2654472
1.2654473
1.2654474
1.2654475
1.2654476
1.2654477
1.2654478
1.265448
1.2654481
1.2654482
1.2654483
1.2654484
1.2654485
1.2654486
1.2654487
1.2654488
1.2654489