/*--------------------------------*- C++ -*----------------------------------*\
| =========                 |                                                 |
| \\      /  F ield         | OpenFOAM: The Open Source CFD Toolbox           |
|  \\    /   O peration     | Version:  4.x                                   |
|   \\  /    A nd           | Web:      www.OpenFOAM.org                      |
|    \\/     M anipulation  |                                                 |
\*---------------------------------------------------------------------------*/
FoamFile
{
    version     2.0;
    format      ascii;
    class       surfaceScalarField;
    location    "0.79";
    object      phi;
}
// * * * * * * * * * * * * * * * * * * * * * * * * * * * * * * * * * * * * * //

dimensions      [1 0 -1 0 0 0 0];

internalField   nonuniform List<scalar> 
18092
(
3.589588321e-10
2.802061844e-08
1.459716272e-07
-1.78980011e-14
2.802301446e-08
1.459470739e-07
-3.589950469e-10
2.802301444e-08
1.459470744e-07
-7.401303022e-10
2.802061919e-08
1.459716282e-07
-1.172203205e-09
2.801629661e-08
1.46026888e-07
-1.700310451e-09
2.801049652e-08
1.461287217e-07
-2.400606747e-09
2.800640752e-08
1.463049994e-07
2.800067965e-08
1.466175327e-07
-3.407709425e-09
3.562923775e-10
2.235834953e-08
1.796535464e-07
-1.844752193e-14
2.236499198e-08
1.796254419e-07
-3.563293044e-10
2.236499194e-08
1.796254425e-07
-7.364981835e-10
2.235834908e-08
1.796535477e-07
-1.172008845e-09
2.234558779e-08
1.797173269e-07
-1.715167089e-09
2.232839855e-08
1.798363624e-07
-2.454266924e-09
2.231037952e-08
1.800462333e-07
2.229628566e-08
1.804290164e-07
-3.567785367e-09
3.896302456e-10
1.36456354e-08
1.827397333e-07
-1.818439593e-14
1.365051314e-08
1.827152361e-07
-3.896670104e-10
1.365051318e-08
1.827152367e-07
-8.055787034e-10
1.364563515e-08
1.827397346e-07
-1.280818134e-09
1.36370502e-08
1.827948854e-07
-1.867556635e-09
1.362812991e-08
1.828981151e-07
-2.653319141e-09
1.362430345e-08
1.830829465e-07
1.363459668e-08
1.834262536e-07
-3.806776654e-09
4.066498231e-10
8.409012768e-09
1.792796178e-07
-1.822157615e-14
8.409924903e-09
1.792583655e-07
-4.066866938e-10
8.409924929e-09
1.792583662e-07
-8.385738634e-10
8.409012496e-09
1.792796195e-07
-1.32792988e-09
8.408539235e-09
1.793289767e-07
-1.925725498e-09
8.411996244e-09
1.794250394e-07
-2.717306158e-09
8.424855897e-09
1.796021392e-07
8.456165125e-09
1.799362355e-07
-3.863998943e-09
4.135132139e-10
5.405619693e-09
1.770517211e-07
-1.821981134e-14
5.404891152e-09
1.77029675e-07
-4.135498878e-10
5.404891066e-09
1.770296759e-07
-8.507691058e-10
5.405619086e-09
1.770517236e-07
-1.342398957e-09
5.40836755e-09
1.771029133e-07
-1.937671897e-09
5.416208589e-09
1.772021734e-07
-2.719575069e-09
5.433689164e-09
1.773841848e-07
5.467710255e-09
1.777251965e-07
-3.845200488e-09
4.134918088e-10
1.757607601e-07
3.691433742e-09
-1.83545677e-14
1.757395006e-07
3.690009161e-09
-4.135287011e-10
1.757395015e-07
3.690008967e-09
-8.489955118e-10
1.757607627e-07
3.691433291e-09
-1.335540391e-09
1.758106278e-07
3.69539605e-09
-1.921084668e-09
1.759086472e-07
3.704219002e-09
-2.687616921e-09
1.760903126e-07
3.721025224e-09
1.764336241e-07
3.750088368e-09
-3.792500608e-09
8.875788454e-10
2.825556753e-08
1.186399238e-07
-1.47077235e-14
2.826561524e-08
1.185690495e-07
-8.876083118e-10
2.826561497e-08
1.185690508e-07
-1.81147644e-09
2.825556706e-08
1.186399271e-07
-2.81369951e-09
2.823414445e-08
1.187949636e-07
-3.948744881e-09
2.819774145e-08
1.190660212e-07
-5.296417418e-09
2.814513606e-08
1.195075301e-07
2.806393802e-08
1.202325166e-07
-6.975346606e-09
1.323387875e-09
3.074939788e-08
1.785392553e-07
-1.109313671e-14
3.075900213e-08
1.784554496e-07
-1.323409841e-09
3.0759002e-08
1.78455451e-07
-2.702954504e-09
3.074939755e-08
1.785392584e-07
-4.20457897e-09
3.07288914e-08
1.787241995e-07
-5.914805768e-09
3.069348734e-08
1.790508366e-07
-7.95150481e-09
3.063684488e-08
1.795912153e-07
3.054940142e-08
1.804952744e-07
-1.050323588e-08
1.214368128e-09
2.434098622e-08
1.904130604e-07
-1.33138784e-14
2.434641867e-08
1.903421975e-07
-1.214394698e-09
2.434641879e-08
1.903421991e-07
-2.479314935e-09
2.434098622e-08
1.904130638e-07
-3.857791059e-09
2.433059662e-08
1.905716533e-07
-5.439549544e-09
2.431414076e-08
1.908592164e-07
-7.353152422e-09
2.42845951e-08
1.913487951e-07
2.423262509e-08
1.921924637e-07
-9.802590317e-09
1.205332767e-09
1.775705101e-08
1.87116339e-07
-1.386387508e-14
1.775788955e-08
1.870522384e-07
-1.205360448e-09
1.775788959e-08
1.870522402e-07
-2.458150614e-09
1.77570509e-08
1.871163436e-07
-3.817483437e-09
1.775650207e-08
1.872624029e-07
-5.369254012e-09
1.775710547e-08
1.875338447e-07
-7.243835055e-09
1.775516649e-08
1.880061493e-07
1.774460336e-08
1.888326482e-07
-9.652224448e-09
1.206350488e-09
1.288842057e-08
1.831753194e-07
-1.425133447e-14
1.28863638e-08
1.831075622e-07
-1.206378877e-09
1.288636366e-08
1.831075646e-07
-2.461350434e-09
1.288841998e-08
1.831753254e-07
-3.824276537e-09
1.289373675e-08
1.833286051e-07
-5.379917025e-09
1.290391498e-08
1.836110065e-07
-7.256578093e-09
1.291783612e-08
1.840981806e-07
1.293164564e-08
1.84947143e-07
-9.665560755e-09
1.209008369e-09
1.803119748e-07
9.594206033e-09
-1.446318541e-14
1.802436779e-07
9.591204837e-09
-1.209037317e-09
1.802436806e-07
9.591204654e-09
-2.466042853e-09
1.803119817e-07
9.594205419e-09
-3.829679639e-09
1.804669737e-07
9.601028611e-09
-5.384003397e-09
1.807536766e-07
9.613212672e-09
-7.257925412e-09
1.812511624e-07
9.630914386e-09
1.821236519e-07
9.651549721e-09
-9.667849018e-09
1.181635028e-09
2.503727733e-08
9.482002601e-08
-1.076401452e-14
2.505281785e-08
9.469787644e-08
-1.181656662e-09
2.505281774e-08
9.469787915e-08
-2.399040013e-09
2.503727716e-08
9.482003363e-08
-3.693152051e-09
2.500556263e-08
9.50835125e-08
-5.115616542e-09
2.495637221e-08
9.553211164e-08
-6.744110781e-09
2.489562602e-08
9.624039482e-08
2.481585504e-08
9.734495051e-08
-8.672404728e-09
1.708951109e-09
3.302745355e-08
1.723224997e-07
-5.058640332e-15
3.306361176e-08
1.721536102e-07
-1.70896094e-09
3.30636118e-08
1.721536128e-07
-3.482385517e-09
3.302745367e-08
1.723225063e-07
-5.395134881e-09
3.29567054e-08
1.726858045e-07
-7.538617495e-09
3.285920289e-08
1.732914849e-07
-1.004585036e-08
3.276456239e-08
1.742295064e-07
3.268235986e-08
1.757025745e-07
-1.31196617e-08
1.821467652e-09
3.019314779e-08
1.951587974e-07
-6.211967769e-15
3.023376276e-08
1.949935191e-07
-1.821479702e-09
3.023376299e-08
1.949935215e-07
-3.732913759e-09
3.01931483e-08
1.951588031e-07
-5.826269838e-09
3.011730037e-08
1.955044134e-07
-8.194093342e-09
3.002130904e-08
1.960649316e-07
-1.096086921e-08
2.994557729e-08
1.969345533e-07
2.990291972e-08
1.98363549e-07
-1.435251736e-08
1.867376402e-09
2.423657099e-08
1.950166558e-07
-6.004822206e-15
2.425346683e-08
1.948999144e-07
-1.867388096e-09
2.425346701e-08
1.948999175e-07
-3.811131011e-09
2.423657093e-08
1.950166633e-07
-5.916216442e-09
2.420613559e-08
1.952786526e-07
-8.283307623e-09
2.417044777e-08
1.957517967e-07
-1.105316022e-08
2.414788802e-08
1.96573691e-07
2.414677681e-08
1.979839589e-07
-1.444832773e-08
1.899646523e-09
1.859679465e-08
1.907817134e-07
-6.109137295e-15
1.860165532e-08
1.906590222e-07
-1.899658363e-09
1.860165514e-08
1.906590261e-07
-3.866280172e-09
1.85967936e-08
1.907817228e-07
-5.977739218e-09
1.858966339e-08
1.910565356e-07
-8.333714084e-09
1.858577591e-08
1.915516534e-07
-1.107878143e-08
1.859391737e-08
1.923972198e-07
1.861758564e-08
1.93829892e-07
-1.443233697e-08
1.920993361e-09
1.865613898e-07
1.43293209e-08
-5.793009502e-15
1.864376356e-07
1.432869189e-08
-1.921004773e-09
1.864376398e-07
1.432869133e-08
-3.902951194e-09
1.865614001e-07
1.432931929e-08
-6.018594928e-09
1.868399191e-07
1.433236085e-08
-8.365250843e-09
1.87344778e-07
1.434133101e-08
-1.109058936e-08
1.882104221e-07
1.435999841e-08
1.896786473e-07
1.438749904e-08
-1.44154946e-08
2.646483155e-09
1.841127515e-08
7.807855276e-08
1.307398588e-09
1.839141458e-08
7.776769491e-08
-5.865289038e-15
1.838016998e-08
7.762511184e-08
-1.307410426e-09
1.838016975e-08
7.762511534e-08
-2.64649357e-09
1.839141367e-08
7.776770462e-08
-4.052822231e-09
1.8411274e-08
7.80785682e-08
-5.566682333e-09
1.843307599e-08
7.861289561e-08
-7.231912528e-09
1.844716346e-08
7.94584601e-08
1.846310608e-08
8.073495177e-08
-9.085022223e-09
4.272297702e-09
2.966605642e-08
1.637385025e-07
2.104082913e-09
2.958857634e-08
1.632935497e-07
6.90169306e-16
2.95473171e-08
1.630905451e-07
-2.104081445e-09
2.954731683e-08
1.630905485e-07
-4.272294578e-09
2.958857549e-08
1.632935583e-07
-6.579786253e-09
2.966605445e-08
1.63738515e-07
-9.136935995e-09
2.97682807e-08
1.645134272e-07
-1.205296996e-08
2.981218323e-08
1.65780516e-07
2.980500893e-08
1.677674008e-07
-1.545970396e-08
4.984582353e-09
3.089567546e-08
1.968716553e-07
2.477206252e-09
3.084613914e-08
1.964086069e-07
1.382265557e-15
3.082391444e-08
1.961941253e-07
-2.477203547e-09
3.082391452e-08
1.961941281e-07
-4.984579281e-09
3.084613917e-08
1.96408614e-07
-7.581453067e-09
3.08956745e-08
1.968716648e-07
-1.04078818e-08
3.098528919e-08
1.97674348e-07
-1.366717052e-08
3.10404572e-08
1.989655637e-07
3.105499744e-08
2.009995507e-07
-1.755316407e-08
5.082956167e-09
2.731566389e-08
2.015617474e-07
2.511270008e-09
2.732260602e-08
2.011118704e-07
2.322853717e-16
2.733042021e-08
2.009046761e-07
-2.511269731e-09
2.733042052e-08
2.009046797e-07
-5.082955297e-09
2.732260623e-08
2.011118795e-07
-7.786053494e-09
2.731566358e-08
2.015617589e-07
-1.071265659e-08
2.732635254e-08
2.023373334e-07
-1.402921686e-08
2.73484812e-08
2.03582225e-07
2.738428146e-08
2.055690367e-07
-1.794357937e-08
5.097157706e-09
2.238616922e-08
1.987076783e-07
2.515735671e-09
2.238884295e-08
1.982968938e-07
-6.067079774e-16
2.239325865e-08
1.981119175e-07
-2.515737064e-09
2.239325878e-08
1.981119215e-07
-5.097158303e-09
2.238884298e-08
1.982969041e-07
-7.818822238e-09
2.238616925e-08
1.987076911e-07
-1.077446616e-08
2.239632481e-08
1.994373231e-07
-1.410327051e-08
2.242204403e-08
2.00652461e-07
2.246533272e-08
2.026402147e-07
-1.799464311e-08
5.142241356e-09
1.940966645e-07
1.785905227e-08
2.541456446e-09
1.936928514e-07
1.785816192e-08
-1.600986221e-15
1.935125888e-07
1.785976079e-08
-2.541460027e-09
1.935125929e-07
1.785976069e-08
-5.142244013e-09
1.936928618e-07
1.78581621e-08
-7.871888094e-09
1.940966773e-07
1.7859053e-08
-1.082188396e-08
1.948216206e-07
1.786947722e-08
-1.412624377e-08
1.960434129e-07
1.789341363e-08
1.98059917e-07
1.792982816e-08
-1.79720068e-08
2.752754978e-09
1.284226349e-08
6.663877985e-08
1.371825895e-09
1.284174869e-08
6.630687539e-08
-1.15378003e-15
1.284330573e-08
6.615363432e-08
-1.371828451e-09
1.284330541e-08
6.61536383e-08
-2.752757187e-09
1.284174789e-08
6.630688704e-08
-4.155247155e-09
1.28422613e-08
6.663879824e-08
-5.595992875e-09
1.285207113e-08
6.720157172e-08
-7.095078707e-09
1.288659026e-08
6.807095707e-08
1.296398258e-08
6.932772388e-08
-8.651832191e-09
4.932494033e-09
2.512258342e-08
1.540493304e-07
2.44360453e-09
2.514652142e-08
1.534776652e-07
5.42890918e-15
2.516188918e-08
1.532155604e-07
-2.443593829e-09
2.51618885e-08
1.532155642e-07
-4.932483381e-09
2.514651946e-08
1.534776755e-07
-7.523633671e-09
2.512258053e-08
1.54049345e-07
-1.028855961e-08
2.509732207e-08
1.550331009e-07
-1.331646146e-08
2.51059009e-08
1.565891056e-07
2.518938877e-08
1.589089857e-07
-1.668345423e-08
5.681604413e-09
2.954728909e-08
1.954574719e-07
2.810004942e-09
2.955614718e-08
1.948705785e-07
6.853054721e-15
2.956233698e-08
1.946036737e-07
-2.809991735e-09
2.95623369e-08
1.946036766e-07
-5.681593274e-09
2.95561467e-08
1.948705862e-07
-8.69212175e-09
2.954728883e-08
1.954574822e-07
-1.193473871e-08
2.953410712e-08
1.964801765e-07
-1.551748737e-08
2.953916311e-08
1.981150469e-07
2.960875218e-08
2.005884716e-07
-1.952577346e-08
5.997233619e-09
2.816042233e-08
2.060827325e-07
2.974251482e-09
2.817152971e-08
2.055194674e-07
1.409518863e-15
2.818050782e-08
2.052607533e-07
-2.974249205e-09
2.818050872e-08
2.052607565e-07
-5.997232803e-09
2.817153161e-08
2.055194749e-07
-9.131357061e-09
2.816042511e-08
2.060827425e-07
-1.247204999e-08
2.815649158e-08
2.070556375e-07
-1.613755342e-08
2.817220888e-08
2.086146795e-07
2.823539914e-08
2.110275347e-07
-2.022269946e-08
6.084364633e-09
2.451128668e-08
2.055318609e-07
3.017633042e-09
2.452378799e-08
2.050113643e-07
-2.335059891e-15
2.453387215e-08
2.04776187e-07
-3.017638883e-09
2.453387357e-08
2.047761899e-07
-6.084371307e-09
2.452379197e-08
2.050113715e-07
-9.259422426e-09
2.451129299e-08
2.055318691e-07
-1.262425834e-08
2.450784287e-08
2.064508034e-07
-1.628444552e-08
2.452426662e-08
2.079605879e-07
2.457390508e-08
2.103503786e-07
-2.03331162e-08
6.162592094e-09
2.015540878e-07
2.024933017e-08
3.060419954e-09
2.010584409e-07
2.026036798e-08
-6.042730162e-15
2.0083781e-07
2.026907457e-08
-3.060432801e-09
2.008378122e-07
2.026907634e-08
-6.162605131e-09
2.01058447e-07
2.026037384e-08
-9.358073287e-09
2.015540937e-07
2.024933989e-08
-1.271890454e-08
2.024449006e-07
2.02453902e-08
-1.634326776e-08
2.039359678e-07
2.025607211e-08
2.063300692e-07
2.028429387e-08
-2.032381006e-08
2.779512957e-09
9.022039466e-09
5.897290095e-08
1.396975211e-09
9.035853651e-09
5.86535587e-08
2.43470441e-15
9.046053741e-09
5.850455248e-08
-1.396970278e-09
9.046054042e-09
5.850455666e-08
-2.779509407e-09
9.035853784e-09
5.865357121e-08
-4.135671278e-09
9.022037721e-09
5.89729208e-08
-5.4584203e-09
9.020487216e-09
5.950383365e-08
-6.746013558e-09
9.061293607e-09
6.029725849e-08
9.171545306e-09
6.13837078e-08
-7.973540719e-09
5.405597344e-09
2.07360208e-08
1.450855623e-07
2.694465825e-09
2.079441949e-08
1.444302284e-07
1.323295967e-14
2.082958353e-08
1.441264803e-07
-2.694440492e-09
2.082958321e-08
1.441264846e-07
-5.405575537e-09
2.079441822e-08
1.4443024e-07
-8.155795343e-09
2.073601811e-08
1.450855791e-07
-1.097540089e-08
2.068282707e-08
1.461903635e-07
-1.39123713e-08
2.071105358e-08
1.478763139e-07
2.088067887e-08
1.502521432e-07
-1.696466399e-08
6.348135346e-09
2.717545052e-08
1.923183526e-07
3.148915322e-09
2.722393324e-08
1.916402825e-07
1.327308119e-14
2.725138808e-08
1.913307682e-07
-3.148890109e-09
2.725138836e-08
1.91330771e-07
-6.348113937e-09
2.722393301e-08
1.916402899e-07
-9.648431366e-09
2.717544953e-08
1.923183628e-07
-1.310027421e-08
2.712323809e-08
1.93491603e-07
-1.675777059e-08
2.713378714e-08
1.953498052e-07
2.72738384e-08
1.980606157e-07
-2.062307723e-08
6.732453248e-09
2.784362708e-08
2.088880862e-07
3.346465835e-09
2.788394482e-08
2.082454398e-07
4.253553339e-15
2.79080595e-08
2.079505419e-07
-3.346458779e-09
2.790806052e-08
2.079505443e-07
-6.732448056e-09
2.788394651e-08
2.08245445e-07
-1.020598327e-08
2.784362826e-08
2.088880916e-07
-1.383598607e-08
2.780575665e-08
2.100031141e-07
-1.768973257e-08
2.7809521e-08
2.117926859e-07
2.790587243e-08
2.144761999e-07
-2.177043582e-08
6.924341728e-09
2.564708414e-08
2.112689605e-07
3.448176209e-09
2.569189527e-08
2.106795768e-07
-2.31204073e-15
2.571858962e-08
2.104138345e-07
-3.448182516e-09
2.571859078e-08
2.104138356e-07
-6.924349572e-09
2.569189844e-08
2.106795794e-07
-1.046491029e-08
2.56470878e-08
2.112689619e-07
-1.412395392e-08
2.560220939e-08
2.12313386e-07
-1.79619222e-08
2.558455683e-08
2.140235133e-07
2.56240019e-08
2.166432538e-07
-2.197293202e-08
7.050553415e-09
2.086904306e-07
2.208436845e-08
3.517473743e-09
2.081499568e-07
2.213345922e-08
-5.081389846e-15
2.079118586e-07
2.216201918e-08
-3.517485418e-09
2.079118586e-07
2.216202008e-08
-7.050567958e-09
2.081499575e-07
2.213346335e-08
-1.062420024e-08
2.086904305e-07
2.208437523e-08
-1.428019018e-08
2.096730921e-07
2.202999993e-08
-1.806967943e-08
2.113215704e-07
2.198843673e-08
2.138938612e-07
2.197261079e-08
-2.198208528e-08
4.097234165e-09
6.566602396e-09
5.415103926e-08
2.788754584e-09
6.56349783e-09
5.371787812e-08
1.412116722e-09
6.573526972e-09
5.345666316e-08
4.723098381e-16
6.581511912e-09
5.333515117e-08
-1.412115795e-09
6.581512808e-09
5.333515563e-08
-2.788755149e-09
6.573527809e-09
5.345667576e-08
-4.097237139e-09
6.563496952e-09
5.37178984e-08
-5.311072543e-09
6.566600162e-09
5.415106491e-08
-6.408515141e-09
6.609154991e-09
5.478554548e-08
6.717969352e-09
5.560830431e-08
-7.351080706e-09
8.579753693e-09
1.717954415e-08
1.383781459e-07
5.744750157e-09
1.720096999e-08
1.372830833e-07
2.880679234e-09
1.724150355e-08
1.366263124e-07
1.561258671e-14
1.726774942e-08
1.363208973e-07
-2.880650785e-09
1.72677483e-08
1.36320903e-07
-5.744727167e-09
1.724150016e-08
1.366263286e-07
-8.579736865e-09
1.720096407e-08
1.372831087e-07
-1.138049401e-08
1.7179535e-08
1.383781778e-07
-1.41398368e-08
1.723983122e-08
1.400049751e-07
1.744348592e-08
1.421775083e-07
-1.67907231e-08
1.045145452e-08
2.474888981e-08
1.894951484e-07
6.937357551e-09
2.48061385e-08
1.882272745e-07
3.459627709e-09
2.487336974e-08
1.874861376e-07
3.099274993e-14
2.491559872e-08
1.871425078e-07
-3.459569231e-09
2.491559672e-08
1.871425133e-07
-6.937306087e-09
2.487336406e-08
1.874861517e-07
-1.045141399e-08
2.480612794e-08
1.882272957e-07
-1.402433698e-08
2.474887511e-08
1.894951763e-07
-1.765858751e-08
2.477401036e-08
1.914498689e-07
2.495705219e-08
1.941704723e-07
-2.12820165e-08
1.120341837e-08
2.722936062e-08
2.113597707e-07
7.43533874e-09
2.730886483e-08
2.10153433e-07
3.701344738e-09
2.739509488e-08
2.094577034e-07
3.461440368e-14
2.74589257e-08
2.091085215e-07
-3.701281788e-09
2.745892137e-08
2.091085301e-07
-7.435285045e-09
2.73950861e-08
2.094577168e-07
-1.120337549e-08
2.730885029e-08
2.101534482e-07
-1.504052993e-08
2.722934148e-08
2.11359791e-07
-1.895560116e-08
2.721020839e-08
2.132715497e-07
2.73193545e-08
2.160149837e-07
-2.285669445e-08
1.159012103e-08
2.633999972e-08
2.170951613e-07
7.721939813e-09
2.644755708e-08
2.159984406e-07
3.859403976e-09
2.654420675e-08
2.153929975e-07
3.079129692e-14
2.660399803e-08
2.151281321e-07
-3.859347197e-09
2.660399369e-08
2.151281343e-07
-7.721892847e-09
2.654419612e-08
2.153930049e-07
-1.159008494e-08
2.644754061e-08
2.159984529e-07
-1.548252211e-08
2.633997817e-08
2.170951761e-07
-1.939597659e-08
2.626451863e-08
2.188826489e-07
2.626660957e-08
2.215495083e-07
-2.324949286e-08
1.182342794e-08
2.162884724e-07
2.362610925e-08
7.901427796e-09
2.153031085e-07
2.375687434e-08
3.957854119e-09
2.147758776e-07
2.386185837e-08
2.812853644e-14
2.14551887e-07
2.392179183e-08
-3.957802063e-09
2.145518888e-07
2.392178644e-08
-7.901385635e-09
2.147758842e-07
2.386184458e-08
-1.182339724e-08
2.153031199e-07
2.375685431e-08
-1.572490475e-08
2.162884853e-07
2.362608436e-08
-1.959081686e-08
2.179530171e-07
2.349897731e-08
2.205065232e-07
2.34034921e-08
-2.334036663e-08
6.186820205e-09
5.232565726e-09
5.10645618e-08
5.255306568e-09
5.143518351e-09
5.057349931e-08
4.129669033e-09
5.12129898e-09
5.015536792e-08
2.846559871e-09
5.133046581e-09
4.986793084e-08
1.451703088e-09
5.152534197e-09
4.969897174e-08
-9.250062665e-15
5.163309263e-09
4.962354318e-08
-1.451721536e-09
5.163311489e-09
4.962354613e-08
-2.846578626e-09
5.152538489e-09
4.969898086e-08
-4.129688588e-09
5.133048831e-09
4.98679458e-08
-5.255321657e-09
5.121301455e-09
5.015538754e-08
-6.186823513e-09
5.143522078e-09
5.057352101e-08
5.232569415e-09
5.106458178e-08
-6.875673264e-09
1.420938407e-08
1.499444515e-08
1.345693925e-07
1.169219576e-08
1.480747988e-08
1.328581423e-07
8.959760024e-09
1.476647439e-08
1.314653781e-07
6.067159475e-09
1.480625199e-08
1.305024483e-07
3.061495457e-09
1.486131706e-08
1.299231655e-07
-9.057068588e-15
1.488845186e-08
1.296572324e-07
-3.061516836e-09
1.488845268e-08
1.296572389e-07
-6.067184902e-09
1.486131694e-08
1.299231867e-07
-8.959785637e-09
1.480624965e-08
1.305024842e-07
-1.169221615e-08
1.476647098e-08
1.314654241e-07
-1.420939277e-08
1.480747443e-08
1.328581899e-07
1.499443853e-08
1.345694313e-07
-1.636319335e-08
1.838807538e-08
2.310047297e-08
1.892585015e-07
1.48809369e-08
2.295203685e-08
1.868123982e-07
1.124557522e-08
2.296472637e-08
1.849322392e-07
7.534620799e-09
2.306739501e-08
1.836770614e-07
3.774084196e-09
2.316493977e-08
1.82943028e-07
2.612194718e-14
2.318675133e-08
1.826182425e-07
-3.774037786e-09
2.318675526e-08
1.826182496e-07
-7.534583891e-09
2.316493725e-08
1.829430539e-07
-1.124554634e-08
2.306738129e-08
1.836771072e-07
-1.488091673e-08
2.29647057e-08
1.849322973e-07
-1.838805545e-08
2.295201095e-08
1.868124598e-07
2.310044527e-08
1.892585496e-07
-2.158214852e-08
2.015824065e-08
2.68575879e-08
2.158199771e-07
1.626957298e-08
2.683987107e-08
2.132723459e-07
1.226706152e-08
2.694522207e-08
2.113817735e-07
8.212377038e-09
2.712011181e-08
2.101553826e-07
4.129714111e-09
2.726638306e-08
2.094389077e-07
4.559808059e-14
2.73259024e-08
2.090990241e-07
-4.129621636e-09
2.732589905e-08
2.090990368e-07
-8.212291197e-09
2.726636611e-08
2.094389393e-07
-1.226699137e-08
2.712008215e-08
2.101554302e-07
-1.626952143e-08
2.694518077e-08
2.113818318e-07
-2.015820071e-08
2.683982139e-08
2.132724099e-07
2.685753699e-08
2.158200269e-07
-2.372034129e-08
2.090544841e-08
2.249383068e-07
1.696207912e-08
2.225189688e-07
1.284376979e-08
2.735698336e-08
2.208016954e-07
8.626693498e-09
2.758984453e-08
2.197457715e-07
4.33807439e-09
2.777815475e-08
2.191698346e-07
6.761401218e-14
2.78780314e-08
2.189139988e-07
-4.337946172e-09
2.787802282e-08
2.189140096e-07
-8.626583009e-09
2.777812756e-08
2.191698642e-07
-1.284368185e-08
2.758980068e-08
2.197458184e-07
-1.696201357e-08
2.735692434e-08
2.208017563e-07
-2.090539892e-08
2.714681744e-08
2.225190349e-07
2.701232922e-08
2.24938363e-07
-2.444904783e-08
1.325397648e-08
2.222181512e-07
2.556838088e-08
8.946332715e-09
2.213538222e-07
2.584676683e-08
4.50867395e-09
2.209215241e-07
2.60701603e-08
7.073152384e-14
2.207477764e-07
2.619073627e-08
-4.508540444e-09
2.207477868e-07
2.61907238e-08
-8.9462198e-09
2.209215548e-07
2.607012381e-08
-1.325389006e-08
2.213538741e-07
2.584670937e-08
-1.73950044e-08
2.222182168e-07
2.556830568e-08
-2.129617993e-08
2.237284438e-07
2.527256826e-08
2.259631996e-07
2.499788631e-08
-2.473841166e-08
6.129872249e-09
4.381200164e-09
4.715180174e-08
5.34053709e-09
4.335330971e-09
4.702748966e-08
4.27463503e-09
4.354294123e-09
4.686696294e-08
2.983915463e-09
4.397769181e-09
4.676086659e-08
1.533670712e-09
4.440695597e-09
4.670850391e-08
-1.831511303e-14
4.467395754e-09
4.668982273e-08
-1.5337072e-09
4.467398492e-09
4.66898227e-08
-2.983951063e-09
4.440702526e-09
4.67085042e-08
-4.274668673e-09
4.397777173e-09
4.676086766e-08
-5.34056343e-09
4.354303912e-09
4.686696468e-08
-6.129884553e-09
4.335342507e-09
4.702749099e-08
4.381211321e-09
4.715180021e-08
-6.598321387e-09
1.421439704e-08
1.332274794e-08
1.272387369e-07
1.199116419e-08
1.321088707e-08
1.262057694e-07
9.361454362e-09
1.324957464e-08
1.25199759e-07
6.421010931e-09
1.335530212e-08
1.244853104e-07
3.266348763e-09
1.346291712e-08
1.240555595e-07
-5.545646078e-14
1.3532125e-08
1.238588598e-07
-3.266460974e-09
1.353212721e-08
1.238588643e-07
-6.421121848e-09
1.34629253e-08
1.240555754e-07
-9.361554841e-09
1.335531551e-08
1.244853403e-07
-1.199124387e-08
1.324959231e-08
1.251997998e-07
-1.421444703e-08
1.321090674e-08
1.262058126e-07
1.332276492e-08
1.272387684e-07
-1.582535236e-08
1.896785185e-08
2.175728127e-08
1.834190908e-07
1.569072893e-08
2.170078476e-08
1.815995697e-07
1.205650281e-08
2.182159547e-08
1.799943886e-07
8.179522817e-09
2.20187824e-08
1.788905039e-07
4.138424566e-09
2.221347943e-08
1.782335056e-07
-3.158492414e-14
2.235816388e-08
1.779305995e-07
-4.138488468e-09
2.235816365e-08
1.779306118e-07
-8.179587498e-09
2.221348401e-08
1.782335447e-07
-1.205656272e-08
2.201879015e-08
1.788905718e-07
-1.569077619e-08
2.182160196e-08
1.799944782e-07
-1.89678788e-08
2.170078921e-08
1.815996639e-07
2.175728161e-08
1.834191639e-07
-2.156302347e-08
2.133326759e-08
2.659366117e-08
2.140282651e-07
1.755774439e-08
2.676219987e-08
2.119864213e-07
1.343746918e-08
2.703080535e-08
2.102927951e-07
9.097849962e-09
2.733161927e-08
2.091821188e-07
4.597469635e-09
2.759895938e-08
2.085537643e-07
5.613843001e-15
2.776953175e-08
2.082850766e-07
-4.597457981e-09
2.77695273e-08
2.082850936e-07
-9.097839019e-09
2.759894998e-08
2.085538167e-07
-1.343746031e-08
2.733160615e-08
2.091822073e-07
-1.755773624e-08
2.70307834e-08
2.102929076e-07
-2.133325722e-08
2.676216894e-08
2.119865384e-07
2.659362941e-08
2.140283537e-07
-2.437794189e-08
2.254940193e-08
2.267394954e-07
1.860703847e-08
2.24915968e-07
1.42658956e-08
2.871667773e-08
2.234569299e-07
9.65893768e-09
2.910918711e-08
2.225751295e-07
4.874076157e-09
2.942815368e-08
2.221254704e-07
4.851648751e-14
2.961278433e-08
2.21944742e-07
-4.873986301e-09
2.961277637e-08
2.219447616e-07
-9.658863585e-09
2.942813222e-08
2.221255297e-07
-1.426583887e-08
2.910915228e-08
2.225752264e-07
-1.860699554e-08
2.871662814e-08
2.234570555e-07
-2.254936828e-08
2.83074721e-08
2.249160999e-07
2.794661671e-08
2.267396003e-07
-2.570359688e-08
1.497225782e-08
2.275367684e-07
2.782375468e-08
1.018598494e-08
2.269616883e-07
2.828757063e-08
5.154096683e-09
2.267381043e-07
2.864344048e-08
6.30326221e-14
2.266766576e-07
2.883791385e-08
-5.153978671e-09
2.266766784e-07
2.883790226e-08
-1.018588644e-08
2.26738167e-07
2.864340793e-08
-1.497218293e-08
2.269617914e-07
2.828751828e-08
-1.939792278e-08
2.275369029e-07
2.782368065e-08
-2.331718883e-08
2.286525667e-07
2.730262025e-08
2.301321458e-07
2.675997525e-08
-2.629949054e-08
6.314341183e-09
3.927516048e-09
4.350742389e-08
5.633359173e-09
3.972750411e-09
4.373570826e-08
4.587208959e-09
4.064180275e-09
4.384891976e-08
3.239763018e-09
4.167442572e-09
4.394085664e-08
1.676740337e-09
4.253151333e-09
4.401836032e-08
-1.808122791e-14
4.302944794e-09
4.406362398e-08
-1.676775592e-09
4.302946815e-09
4.406361963e-08
-3.239796612e-09
4.253158187e-09
4.401834774e-08
-4.587240647e-09
4.167453224e-09
4.394083715e-08
-5.633384117e-09
4.064195431e-09
4.384889532e-08
-6.314354918e-09
3.972769116e-09
4.373567952e-08
3.927535663e-09
4.350739122e-08
-6.597493131e-09
1.431284116e-08
1.227026625e-08
1.199913831e-07
1.241921313e-08
1.236514917e-08
1.197069421e-07
9.889966546e-09
1.258249646e-08
1.192106361e-07
6.877500482e-09
1.283499744e-08
1.188301695e-07
3.527375647e-09
1.305127364e-08
1.186075083e-07
-9.179466062e-14
1.317970322e-08
1.185095106e-07
-3.527556915e-09
1.317970572e-08
1.185095076e-07
-6.877672772e-09
1.30512871e-08
1.186075017e-07
-9.890119318e-09
1.283502547e-08
1.188301647e-07
-1.241933551e-08
1.25825395e-08
1.192106353e-07
-1.431292476e-08
1.236520247e-08
1.197069404e-07
1.227031902e-08
1.199913704e-07
-1.540833602e-08
1.946690462e-08
2.092221639e-08
1.76711196e-07
1.653010856e-08
2.114669889e-08
1.757547392e-07
1.294586291e-08
2.153128883e-08
1.746297645e-07
8.896820121e-09
2.195606161e-08
1.738184019e-07
4.533601055e-09
2.231288981e-08
1.733350226e-07
-1.126300058e-13
2.253157194e-08
1.731123546e-07
-4.533820232e-09
2.253157426e-08
1.731123653e-07
-8.897024859e-09
2.23129086e-08
1.733350553e-07
-1.294604163e-08
2.195609867e-08
1.738184607e-07
-1.653025001e-08
2.153134239e-08
1.746298462e-07
-1.946700122e-08
2.114676487e-08
1.757548274e-07
2.092228116e-08
1.767112641e-07
-2.141108549e-08
2.251061135e-08
2.685293621e-08
2.105433615e-07
1.897009199e-08
2.732007806e-08
2.093534822e-07
1.47612212e-08
2.793462957e-08
2.080982325e-07
1.008799512e-08
2.855026892e-08
2.072610449e-07
5.116105804e-09
2.903486414e-08
2.068035854e-07
-7.768550113e-14
2.930995435e-08
2.066227846e-07
-5.116260384e-09
2.930995867e-08
2.066228043e-07
-1.008814349e-08
2.903488424e-08
2.068036523e-07
-1.476135046e-08
2.855030336e-08
2.072611607e-07
-1.897018932e-08
2.793467592e-08
2.080983862e-07
-2.251067459e-08
2.732012991e-08
2.093536425e-07
2.685298139e-08
2.105434951e-07
-2.495653002e-08
2.436810404e-08
2.26684499e-07
2.059071745e-08
2.258319818e-07
1.605351804e-08
3.103443191e-08
2.248942409e-07
1.099672266e-08
3.183637748e-08
2.243457326e-07
5.587784544e-09
3.2458754e-08
2.241104382e-07
-4.243681532e-14
3.280263151e-08
2.240398132e-07
-5.587870508e-09
3.280263341e-08
2.24039842e-07
-1.099680624e-08
3.245876425e-08
2.241105293e-07
-1.60535909e-08
3.183639809e-08
2.243458846e-07
-2.05907702e-08
3.103445994e-08
2.248944358e-07
-2.436813098e-08
3.018140112e-08
2.258321814e-07
2.938154909e-08
2.266846714e-07
-2.684177752e-08
1.715710638e-08
2.320494609e-07
3.122243169e-08
1.180913781e-08
2.319661681e-07
3.217980365e-08
6.018199215e-09
2.320820626e-07
3.290567668e-08
-1.715184528e-14
2.321997096e-07
3.329773942e-08
-6.018235746e-09
2.32199742e-07
3.329773845e-08
-1.180917841e-08
2.320821632e-07
3.290567753e-08
-1.715714663e-08
2.319663331e-07
3.217980912e-08
-2.185789428e-08
2.320496712e-07
3.122243551e-08
-2.564511389e-08
2.324587836e-07
3.016240756e-08
2.328235054e-07
2.911336224e-08
-2.806828561e-08
6.816290556e-09
3.758359401e-09
3.988176279e-08
6.195471694e-09
3.933785078e-09
4.042273032e-08
5.11493046e-09
4.131382641e-09
4.079806881e-08
3.645946289e-09
4.319925301e-09
4.108990572e-08
1.896863679e-09
4.464484649e-09
4.130294735e-08
-5.29339193e-15
4.543703135e-09
4.141678074e-08
-1.896873752e-09
4.543704792e-09
4.141677154e-08
-3.645956693e-09
4.464491151e-09
4.130292122e-08
-5.114942428e-09
4.319935803e-09
4.10898653e-08
-6.195482541e-09
4.13139805e-09
4.079801825e-08
-6.816296278e-09
3.93380473e-09
4.042267324e-08
3.758380639e-09
3.988170102e-08
-6.94900085e-09
1.474792128e-08
1.183144856e-08
1.125703766e-07
1.312713948e-08
1.225014442e-08
1.130113154e-07
1.065569517e-08
1.274298206e-08
1.130704372e-07
7.508033593e-09
1.32193778e-08
1.130783354e-07
3.880202345e-09
1.359318585e-08
1.131065907e-07
-8.914540759e-14
1.38004366e-08
1.131330136e-07
-3.880377028e-09
1.380044095e-08
1.131329979e-07
-7.508197258e-09
1.359320372e-08
1.131065475e-07
-1.065584051e-08
1.321941472e-08
1.130782746e-07
-1.312725776e-08
1.27430377e-08
1.130703683e-07
-1.474800681e-08
1.225021372e-08
1.130112419e-07
1.183152101e-08
1.125702952e-07
-1.540010975e-08
2.002740827e-08
2.075381798e-08
1.6910768e-07
1.748629754e-08
2.144737303e-08
1.690985455e-07
1.396652691e-08
2.225623482e-08
1.686362046e-07
9.730400712e-09
2.302675178e-08
1.682470724e-07