/*--------------------------------*- C++ -*----------------------------------*\
  =========                 |
  \\      /  F ield         | OpenFOAM: The Open Source CFD Toolbox
   \\    /   O peration     | Website:  https://openfoam.org
    \\  /    A nd           | Version:  7
     \\/     M anipulation  |
\*---------------------------------------------------------------------------*/
FoamFile
{
    version     2.0;
    format      ascii;
    class       volVectorField;
    location    "0.00325";
    object      U;
}
// * * * * * * * * * * * * * * * * * * * * * * * * * * * * * * * * * * * * * //

dimensions      [0 1 -1 0 0 0 0];

internalField   nonuniform List<vector> 
5000
(
(-89.666705 1.6409907e-17 0)
(-89.591936 1.566784e-17 0)
(-89.549534 0 0)
(-89.505025 0 0)
(-89.461145 -8.3493048e-18 0)
(-89.41725 9.4841887e-33 -8.3423806e-18)
(-89.373373 8.3364414e-18 -1.7770194e-32)
(-89.329506 0 2.4992834e-17)
(-89.285644 0 8.3261919e-18)
(-89.241786 -8.3219661e-18 -1.6643932e-17)
(-89.197928 -1.6636709e-17 -1.6636709e-17)
(-89.154067 8.3150671e-18 8.3150671e-18)
(-89.110202 8.31215e-18 -7.0873654e-32)
(-89.06633 -8.3093093e-18 -7.321108e-32)
(-89.022452 0 1.6613253e-17)
(-88.978568 -8.3038589e-18 -1.6607718e-17)
(-88.934677 -2.0182046e-48 -1.0091023e-48)
(-88.89078 8.2982346e-18 -7.3113504e-32)
(-88.846879 0 -8.2953128e-18)
(-88.802972 8.2921764e-18 1.6584353e-17)
(-88.759061 -8.2889895e-18 8.2889895e-18)
(-88.715147 -8.2855782e-18 0)
(-88.671231 1.6564253e-17 0)
(-88.627312 -8.278471e-18 -8.278471e-18)
(-88.583393 -8.2747958e-18 7.0555153e-32)
(-88.539472 -6.8171576e-32 -6.8171576e-32)
(-88.495551 8.2671027e-18 -8.2671027e-18)
(-88.45163 8.2631042e-18 8.2631042e-18)
(-88.40771 -1.6518274e-17 8.2591368e-18)
(-88.36379 1.4311948e-31 -8.2550309e-18)
(-88.319871 -1.4422148e-31 1.4422148e-31)
(-88.275954 8.246765e-18 -7.0316147e-32)
(-88.232038 1.6485226e-17 -8.2426131e-18)
(-88.188123 -1.6476679e-17 8.2383396e-18)
(-88.14421 1.4275695e-31 8.2341206e-18)
(-88.100299 -7.1574825e-31 0)
(-88.056391 -2.8521562e-31 0)
(-88.012484 1.6442285e-17 -8.2211426e-18)
(-87.96858 -1.6433671e-17 -8.2168354e-18)
(-87.924679 -1.6424857e-17 8.2124283e-18)
(-87.88078 1.641619e-17 -1.3763997e-31)
(-87.836884 -5.6425256e-31 -8.2036662e-18)
(-87.79299 -1.639863e-17 8.1993148e-18)
(-87.749099 8.1948719e-18 -1.385828e-31)
(-87.705211 2.4571527e-17 -8.1905089e-18)
(-87.661326 -8.186057e-18 8.186057e-18)
(-87.617443 -8.181687e-18 -2.8137041e-31)
(-87.573564 -5.6011016e-31 2.8005508e-31)
(-87.529687 -1.6345713e-17 -2.8106672e-31)
(-87.485814 0 1.3929589e-31)
(-87.441943 8.1640221e-18 8.1640221e-18)
(-87.398075 1.1595436e-33 0)
(-87.354211 -8.1551883e-18 0)
(-87.310349 1.6301461e-17 0)
(-87.266491 -2.847861e-31 0)
(-87.222635 -1.6283806e-17 0)
(-87.178782 8.1375336e-18 0)
(-87.134933 -2.8085467e-31 0)
(-87.091087 -8.1287177e-18 0)
(-87.047243 0 0)
(-87.003403 8.1199122e-18 0)
(-86.959566 2.7678671e-31 0)
(-86.915731 2.3053185e-33 0)
(-86.8719 8.1066844e-18 -8.1066844e-18)
(-86.828072 -8.1023365e-18 -8.1023365e-18)
(-86.784247 2.8309238e-31 8.0979085e-18)
(-86.740425 8.0935663e-18 -1.3916996e-31)
(-86.696606 -8.089144e-18 -1.8925555e-49)
(-86.652791 -8.0848073e-18 8.0848073e-18)
(-86.608978 8.0803908e-18 0)
(-86.565168 8.0760601e-18 0)
(-86.521362 -8.0716503e-18 -8.0716503e-18)
(-86.477558 -8.0673267e-18 -8.0673267e-18)
(-86.433758 1.612585e-17 0)
(-86.38996 8.0586097e-18 8.0586097e-18)
(-86.346166 -8.0542169e-18 2.7813125e-31)
(-86.302374 0 -8.0499108e-18)
(-86.258586 8.0455271e-18 -8.0455271e-18)
(-86.214801 -1.1427275e-33 8.0412296e-18)
(-86.171018 -8.036854e-18 1.6073708e-17)
(-86.127239 8.0325637e-18 -1.6065127e-17)
(-86.083463 -2.2817502e-33 4.5635004e-33)
(-86.03969 2.2805325e-33 2.4071731e-17)
(-85.99592 8.0195471e-18 -1.6039094e-17)
(-85.952152 8.0152677e-18 -8.3377585e-31)
(-85.908388 2.7891258e-31 1.6021819e-17)
(-85.864627 -8.0066347e-18 -2.4019904e-17)
(-85.820869 0 8.0022809e-18)
(-85.777114 -7.9980099e-18 7.9980099e-18)
(-85.733362 -8.2925614e-31 -7.9936594e-18)
(-85.689613 -2.7929873e-31 7.9893907e-18)
(-85.645867 7.9850419e-18 7.9850419e-18)
(-85.602124 7.9807743e-18 2.7786338e-31)
(-85.558384 -1.5952854e-17 -1.5952854e-17)
(-85.514647 -5.5172825e-31 -5.5172825e-31)
(-85.470913 7.9678162e-18 -7.9678162e-18)
(-85.427183 0 -7.9635541e-18)
(-85.383455 0 -2.7937491e-31)
(-85.339731 -7.9549598e-18 5.5392922e-31)
(-85.29601 -5.5136785e-31 1.5901255e-17)
(-85.252292 1.5892759e-17 7.9463796e-18)
(-85.208576 -7.9420555e-18 -7.9420555e-18)
(-85.164864 -1.5875628e-17 1.1280312e-33)
(-85.121156 0 7.9334943e-18)
(-85.07745 7.9292585e-18 0)
(-85.033747 7.9249468e-18 -7.9249468e-18)
(-84.990047 -7.9207162e-18 -2.7577236e-31)
(-84.946351 -7.9164119e-18 7.9164119e-18)
(-84.902657 0 -7.9121958e-18)
(-84.858966 0 -7.907903e-18)
(-84.815279 7.9036889e-18 1.5807378e-17)
(-84.771594 7.8994075e-18 7.8994075e-18)
(-84.727913 0 -2.3685648e-17)
(-84.684234 -7.8909304e-18 -7.8909304e-18)
(-84.640559 2.7570928e-31 2.3660141e-17)
(-84.596886 7.8824477e-18 -7.8824477e-18)
(-84.553217 -7.8782694e-18 -7.8782694e-18)
(-84.50955 2.2379145e-33 -4.4758289e-33)
(-84.465887 -2.7511554e-31 -7.8697296e-18)
(-84.422226 -1.7754887e-49 2.3596547e-17)
(-84.378569 1.572275e-17 -5.4964694e-31)
(-84.334914 -3.3496457e-33 -1.5714024e-17)
(-84.291263 -7.8528066e-18 1.5705613e-17)
(-84.247615 0 7.848677e-18)
(-84.20397 -7.8445037e-18 -7.8445037e-18)
(-84.160327 7.8401561e-18 7.8401561e-18)
(-84.116688 7.8359278e-18 -7.8359278e-18)
(-84.073052 -1.566334e-17 -1.566334e-17)
(-84.029419 -7.8275266e-18 7.8275266e-18)
(-83.985789 1.5646594e-17 2.7015703e-31)
(-83.942162 7.8191249e-18 7.8191249e-18)
(-83.898538 -7.8148751e-18 1.562975e-17)
(-83.854917 -7.8107058e-18 -7.8107058e-18)
(-83.811299 -7.8064702e-18 -7.8064702e-18)
(-83.767685 0 -7.802306e-18)
(-83.724073 7.7980783e-18 -2.7150253e-31)
(-83.680464 7.7939162e-18 -2.7025003e-31)
(-83.636858 -7.7896968e-18 2.7121071e-31)
(-83.593255 -2.6995943e-31 1.557107e-17)
(-83.549656 7.7813226e-18 7.7813226e-18)
(-83.506059 -7.7771596e-18 -7.7771596e-18)
(-83.462465 -7.772953e-18 -1.5545906e-17)
(-83.418874 0 -7.7687876e-18)
(-83.375287 7.7645874e-18 -7.7645874e-18)
(-83.331702 7.7604198e-18 5.3817713e-31)
(-83.28812 -7.7562271e-18 1.5512454e-17)
(-83.244541 7.7520579e-18 -2.2032674e-33)
(-83.200966 -4.4041568e-33 2.2020784e-33)
(-83.157393 -7.7437039e-18 1.6807037e-48)
(-83.113823 7.7395303e-18 7.7395303e-18)
(-83.070257 -7.7353577e-18 -5.364391e-31)
(-83.026693 5.3834774e-31 1.0766955e-30)
(-82.983133 7.7270185e-18 7.7270185e-18)
(-82.939575 -7.7228645e-18 -7.7228645e-18)
(-82.89602 7.7186856e-18 7.7186856e-18)
(-82.852469 7.714544e-18 2.6749785e-31)
(-82.80892 -7.7103607e-18 -7.7103607e-18)
(-82.765375 0 7.706228e-18)
(-82.721832 0 -1.0945266e-33)
(-82.678292 -7.6979271e-18 -7.6979271e-18)
(-82.634755 -7.6937386e-18 0)
(-82.591222 7.6896289e-18 7.6896289e-18)
(-82.547691 7.6854644e-18 5.3188688e-31)
(-82.504163 -7.6813624e-18 -1.5362725e-17)
(-82.460638 -5.3240342e-31 7.677164e-18)
(-82.417116 7.6730445e-18 -2.1808104e-33)
(-82.373597 -7.6688632e-18 -7.6688632e-18)
(-82.330081 -7.6647574e-18 7.6647574e-18)
(-82.286568 0 -7.6605757e-18)
(-82.243058 7.6564679e-18 7.6564679e-18)
(-82.199551 7.6522861e-18 -3.1884188e-30)
(-82.156047 0 -2.1215732e-30)
(-82.112546 -7.6439966e-18 7.6439966e-18)
(-82.069048 -7.6398889e-18 -1.5279778e-17)
(-82.025553 0 0)
(-81.982061 7.6316016e-18 -5.2924372e-31)
(-81.938571 1.5868618e-30 -1.5868618e-30)
(-81.895085 -7.6233187e-18 7.6233187e-18)
(-81.851602 7.6191425e-18 7.6191425e-18)
(-81.808122 7.6150412e-18 5.2484878e-31)
(-81.764645 -7.6108679e-18 -7.6108679e-18)
(-81.721171 -5.2535963e-31 7.606769e-18)
(-81.677699 5.2291078e-31 5.2291078e-31)
(-81.634231 3.2394359e-33 3.2394359e-33)
(-81.590766 7.594332e-18 1.052239e-30)
(-81.547304 -7.5902364e-18 -1.5180473e-17)
(-81.503844 -1.0521721e-30 7.5860686e-18)
(-81.460388 5.2149226e-31 7.5819742e-18)
(-81.416934 -5.212057e-31 -5.212057e-31)
(-81.373484 7.5737149e-18 5.2200046e-31)
(-81.330036 0 -1.5737459e-30)
(-81.286592 0 5.2250655e-31)
(-81.24315 -7.5612959e-18 -7.5612959e-18)
(-81.199711 -7.5572061e-18 0)
(-81.156275 0 0)
(-81.112843 0 0)
(-81.069413 7.5447971e-18 0)
(-81.025986 1.9183402e-49 -7.5407101e-18)
(-80.982562 -7.5365518e-18 1.5711694e-30)
(-80.93914 0 7.5324657e-18)
(-80.895722 7.5283082e-18 7.5283082e-18)
(-80.852307 -7.5242225e-18 -7.5242225e-18)
(-80.808894 -2.0838979e-30 -7.5200654e-18)
(-80.765485 1.503196e-17 1.503196e-17)
(-80.722078 -7.5118232e-18 5.1986972e-31)
(-80.678675 -1.558761e-30 -1.558761e-30)
(-80.635274 -1.0663232e-33 -7.5035822e-18)
(-80.591876 -7.4994979e-18 -7.4994979e-18)
(-80.548481 7.495343e-18 7.495343e-18)
(-80.505089 -1.064572e-33 0)
(-80.4617 -1.0363182e-30 7.4871055e-18)
(-80.418314 5.1787652e-31 5.1787652e-31)
(-80.37493 -7.4788695e-18 -7.4788695e-18)
(-80.33155 0 -7.4747871e-18)
(-80.288172 7.4706344e-18 1.0404082e-30)
(-80.244798 5.1673666e-31 7.4665523e-18)
(-80.201426 2.0710995e-30 -1.49248e-17)
(-80.158057 7.4583177e-18 7.4583177e-18)
(-80.114691 0 7.4541653e-18)
(-80.071328 -7.450083e-18 -7.450083e-18)
(-80.027967 -7.4459308e-18 7.4459308e-18)
(-79.98461 0 0)
(-79.941255 0 0)
(-79.897904 0 0)
(-79.854555 7.4294672e-18 7.4294672e-18)
(-79.811209 5.1388781e-31 -7.425388e-18)
(-79.767866 -7.4212398e-18 -1.484248e-17)
(-79.724526 0 7.4171617e-18)
(-79.681188 0 -5.1513838e-31)
(-79.637854 7.408937e-18 7.408937e-18)
(-79.594522 7.4047904e-18 7.4047904e-18)
(-79.551193 -7.4007136e-18 -1.4801427e-17)
(-79.507867 -7.3965682e-18 2.1022311e-33)
(-79.464544 0 -2.1010728e-33)
(-79.421223 7.3883488e-18 7.3883488e-18)
(-79.377906 7.3842745e-18 7.3842745e-18)
(-79.334591 -7.3801317e-18 -1.4760263e-17)
(-79.291279 -7.376058e-18 1.0482009e-33)
(-79.24797 0 -1.5357995e-30)
(-79.204664 7.3678413e-18 7.3678413e-18)
(-79.16136 -2.0447525e-30 -4.089505e-30)
(-79.11806 -5.1038233e-31 -1.0207647e-30)
(-79.074762 7.3554807e-18 7.3554807e-18)
(-79.031467 -7.3514064e-18 -7.3514064e-18)
(-78.988174 -7.3472646e-18 0)
(-78.944885 0 -7.3431919e-18)
(-78.901598 7.3390523e-18 7.3390523e-18)
(-78.858314 -1.0194317e-30 7.3349822e-18)
(-78.815033 7.3308457e-18 -7.3308457e-18)
(-78.771755 1.0162091e-30 0)
(-78.728479 -1.4645292e-17 -7.3226459e-18)
(-78.685207 7.3185824e-18 7.3185824e-18)
(-78.641937 -1.0144996e-30 7.3144532e-18)
(-78.59867 -2.5379579e-30 -2.5379579e-30)
(-78.555405 -5.0564389e-31 -1.4612536e-17)
(-78.512143 -7.3022122e-18 -1.4604424e-17)
(-78.468884 7.2980911e-18 2.1894273e-17)
(-78.425628 7.2940395e-18 1.4588079e-17)
(-78.382374 0 0)
(-78.339123 -7.2858764e-18 -1.4571753e-17)
(-78.295875 -7.2817657e-18 -7.2817657e-18)
(-78.25263 0 7.277725e-18)
(-78.209387 7.2736208e-18 7.2736208e-18)
(-78.166146 7.2695868e-18 7.2695868e-18)
(-78.122909 -1.4530979e-17 -1.4530979e-17)
(-78.079674 -7.2614618e-18 -1.4522924e-17)
(-78.036442 7.2573707e-18 7.2573707e-18)
(-77.993212 7.253349e-18 1.4506698e-17)
(-77.949985 2.0109159e-30 2.0109159e-30)
(-77.90676 -7.2452472e-18 -1.4490494e-17)
(-77.863538 7.2411673e-18 7.2411673e-18)
(-77.820319 -5.0188937e-31 -1.0037787e-30)
(-77.777102 -7.2330834e-18 -7.2330834e-18)
(-77.733888 7.2290802e-18 1.445816e-17)
(-77.690677 -5.0207413e-31 -7.2250155e-18)
(-77.647468 5.0282278e-31 1.0056456e-30)
(-77.604262 -2.0511858e-33 7.2169683e-18)
(-77.561058 -4.9816314e-31 -7.2129866e-18)
(-77.517856 7.2089458e-18 7.2089458e-18)
(-77.474658 0 -1.4409955e-17)
(-77.431461 0 3.0044576e-30)
(-77.388267 -7.196996e-18 1.4393992e-17)
(-77.345076 -7.1929829e-18 -1.4385966e-17)
(-77.301887 0 -4.9753104e-31)
(-77.258701 0 7.1850423e-18)
(-77.215517 0 0)
(-77.172335 0 0)
(-77.129156 7.1732129e-18 7.1732129e-18)
(-77.085979 4.9412298e-31 -7.1692399e-18)
(-77.042804 -1.4330678e-17 -1.4330678e-17)
(-76.999632 3.0530802e-33 7.1613807e-18)
(-76.956462 7.1574952e-18 -2.0342825e-33)
(-76.913295 7.1535534e-18 7.1535534e-18)
(-76.87013 -9.9266261e-31 7.1496849e-18)
(-76.826967 -9.9008685e-31 -7.1457609e-18)
(-76.783806 -1.0149265e-33 0)
(-76.740648 -7.1380048e-18 -7.1380048e-18)
(-76.697492 -7.1341728e-18 -7.1341728e-18)
(-76.654338 -7.1302856e-18 0)
(-76.611186 1.4252944e-17 1.4252944e-17)
(-76.568036 2.1367809e-17 7.1226031e-18)
(-76.524889 -7.1188075e-18 -1.4237615e-17)
(-76.481744 -1.4229915e-17 4.9240388e-31)
(-76.438601 0 -2.0211192e-33)
(-76.39546 7.1073506e-18 7.1073506e-18)
(-76.352321 7.1035943e-18 7.1035943e-18)
(-76.309184 -7.0997853e-18 -7.0997853e-18)
(-76.266049 2.016819e-33 7.0960512e-18)
(-76.222916 -3.0236146e-33 -7.0922654e-18)
(-76.179785 2.0146887e-33 4.0293774e-33)
(-76.136656 7.0847955e-18 1.4169591e-17)
(-76.09353 7.0811123e-18 -7.0811123e-18)
(-76.050405 -7.0773801e-18 -7.0773801e-18)
(-76.007282 -1.4147452e-17 -7.073726e-18)
(-75.96416 7.0700243e-18 -9.8059782e-31)
(-75.921041 1.7014466e-49 7.0664017e-18)
(-75.877924 7.0627328e-18 0)
(-75.834808 1.9561711e-30 0)
(-75.791694 -1.4111019e-17 -7.0555094e-18)
(-75.748582 0 9.7909387e-31)
(-75.705471 0 -1.9561868e-30)
(-75.662362 1.4089678e-17 -9.7910694e-31)
(-75.619255 -3.9104449e-30 7.0412768e-18)
(-75.576149 -1.4075591e-17 -7.0377954e-18)
(-75.533045 0 9.9962988e-34)
(-75.489942 7.0308257e-18 7.0308257e-18)
(-75.446841 7.0273382e-18 0)
(-75.403741 -7.0239324e-18 0)
(-75.360643 9.9767086e-34 0)
(-75.317547 -9.7425724e-31 0)
(-75.274451 9.9670872e-34 0)
(-75.231357 7.0103928e-18 0)
(-75.188265 -7.0070327e-18 0)
(-75.145173 -7.0037584e-18 -7.0037584e-18)
(-75.102083 0 0)
(-75.058994 6.9972226e-18 6.9972226e-18)
(-75.015907 -9.7104211e-31 0)
(-74.97282 -6.9907909e-18 -6.9907909e-18)
(-74.929734 1.3975169e-17 -1.9383272e-30)
(-74.88665 -1.9374626e-30 6.9844678e-18)
(-74.843566 -6.9813174e-18 0)
(-74.800484 -1.9377231e-30 0)
(-74.757402 -1.3950328e-17 -6.9751639e-18)
(-74.714321 1.3944323e-17 -9.6801523e-31)
(-74.671241 6.969127e-18 6.969127e-18)
(-74.628162 -6.9661838e-18 0)
(-74.585083 -9.8953161e-34 0)
(-74.542005 -6.9603275e-18 -6.9603275e-18)
(-74.498928 0 -6.9574155e-18)
(-74.455851 0 6.9545961e-18)
(-74.412774 6.9517483e-18 6.9517483e-18)
(-74.369698 -9.6381124e-31 0)
(-74.326623 -1.3892427e-17 -6.9462136e-18)
(-74.283547 9.8673481e-34 9.8673481e-34)
(-74.240472 2.0822459e-17 6.9408198e-18)
(-74.197397 -6.9382073e-18 -6.9382073e-18)
(-74.154323 -6.9355738e-18 -6.9355738e-18)
(-74.111248 1.386607e-17 6.9330351e-18)
(-74.068173 -6.9304656e-18 6.9304656e-18)
(-74.025099 6.9279894e-18 0)
(-73.982024 1.3850972e-17 -6.9254861e-18)
(-73.938949 -6.9230771e-18 -6.9230771e-18)
(-73.895874 -6.9206418e-18 6.9206418e-18)
(-73.852799 -6.9183017e-18 6.9183017e-18)
(-73.809723 6.9159367e-18 0)
(-73.766647 2.0955963e-49 -6.9136681e-18)
(-73.723571 -6.9113764e-18 -6.9113764e-18)
(-73.680494 6.9091814e-18 6.9091814e-18)
(-73.637417 -6.9069636e-18 6.9069636e-18)
(-73.594339 6.9048442e-18 0)
(-73.55126 1.9128194e-30 0)
(-73.508181 1.9612865e-33 0)
(-73.465101 6.8986055e-18 0)
(-73.422021 -1.3793292e-17 0)
(-73.378938 6.8946658e-18 0)
(-73.335856 1.913989e-30 0)
(-73.292772 -1.9115023e-30 0)
(-73.249687 -6.8890789e-18 -6.8890789e-18)
(-73.206601 -1.3774511e-17 -1.1010159e-48)
(-73.163514 2.0656596e-17 6.8855321e-18)
(-73.120425 1.9095346e-30 0)
(-73.077336 -3.8181573e-30 0)
(-73.034245 1.9066617e-30 0)
(-72.991152 -1.3757836e-17 -6.8789179e-18)
(-72.948058 1.375467e-17 -9.5387219e-31)
(-72.904963 -1.9073329e-30 6.8758516e-18)
(-72.861865 -1.3748698e-17 -6.8743489e-18)
(-72.818766 0 9.5424011e-31)
(-72.775665 0 -9.7650208e-34)
(-72.732563 6.8701986e-18 -9.5385872e-31)
(-72.689458 -9.5269599e-31 6.8688546e-18)
(-72.646352 -6.8676094e-18 -6.8676094e-18)
(-72.603243 -6.8663439e-18 6.8663439e-18)
(-72.560133 6.8651768e-18 -3.8145972e-30)
(-72.51702 2.0591968e-17 -6.8639893e-18)
(-72.473906 -6.8628998e-18 6.8628998e-18)
(-72.430788 -6.8617893e-18 0)
(-72.387669 -1.9499499e-33 0)
(-72.344547 -6.8597418e-18 -6.8597418e-18)
(-72.301423 0 -9.5227666e-31)
(-72.258296 1.3715686e-17 6.8578432e-18)
(-72.215167 1.3713956e-17 -6.8569779e-18)
(-72.172035 -6.8560889e-18 -6.8560889e-18)
(-72.128901 -1.3710588e-17 0)
(-72.085763 -6.8544738e-18 6.8544738e-18)
(-72.042624 1.3707493e-17 6.8537463e-18)
(-71.99948 1.3705985e-17 -6.8529925e-18)
(-71.956335 -1.370466e-17 -1.9017819e-30)
(-71.913186 -1.3703279e-17 5.8534172e-50)
(-71.870035 0 -9.5119857e-31)
(-71.82688 1.3700818e-17 6.8504089e-18)
(-71.783722 -6.8498672e-18 -6.8498672e-18)
(-71.740561 -1.3698589e-17 -1.4477428e-49)
(-71.697398 6.8488085e-18 -9.5088892e-31)
(-71.65423 6.8482898e-18 -6.8482898e-18)
(-71.61106 -9.7313885e-34 0)
(-71.567886 9.5069163e-31 0)
(-71.52471 6.8470019e-18 6.8470019e-18)
(-71.481529 -6.8465798e-18 9.7295751e-34)
(-71.438346 -6.8462383e-18 -2.8486775e-30)
(-71.395158 6.845858e-18 6.845858e-18)
(-71.351968 -9.4946451e-31 0)
(-71.308774 -9.7276317e-34 0)
(-71.265576 -9.4937965e-31 -6.8449441e-18)
(-71.222375 -6.8446316e-18 1.8976999e-30)
(-71.179171 6.8443915e-18 6.8443915e-18)
(-71.135962 -2.8507073e-30 0)
(-71.092751 -9.5020554e-31 0)
(-71.049535 -1.8993642e-30 0)
(-71.006316 -6.8434177e-18 -6.8434177e-18)
(-70.963093 6.843164e-18 9.7247209e-34)
(-70.919867 -9.500789e-31 6.8429743e-18)
(-70.876636 -1.8971726e-30 -6.8427295e-18)
(-70.833403 -9.7238431e-34 6.8425462e-18)
(-70.790165 -1.368461e-17 -1.9019167e-30)
(-70.746924 -6.842123e-18 -1.3684246e-17)
(-70.703679 6.8418803e-18 6.8418803e-18)
(-70.66043 1.3683387e-17 2.8497033e-30)
(-70.617178 -9.4986637e-31 9.4986637e-31)
(-70.573922 -1.3682493e-17 -9.4983902e-31)
(-70.530662 -6.8409833e-18 -6.8409833e-18)
(-70.487399 1.3681541e-17 0)
(-70.444132 6.8404883e-18 0)
(-70.400861 -6.8402539e-18 6.8402539e-18)
(-70.357586 -6.8399481e-18 9.4965874e-31)
(-70.314309 -1.8982732e-30 -1.8982732e-30)
(-70.271027 6.8393534e-18 -1.31197e-51)
(-70.227742 0 -6.8390624e-18)
(-70.184453 0 6.8386954e-18)
(-70.14116 6.8383693e-18 6.8383693e-18)
(-70.097864 0 0)
(-70.054565 -6.8375991e-18 -6.8375991e-18)
(-70.011262 6.8371525e-18 -9.492706e-31)
(-69.967956 9.7155944e-34 6.8367418e-18)
(-69.924646 -1.8973185e-30 0)
(-69.881333 0 0)
(-69.838017 -6.8352415e-18 -6.8352415e-18)
(-69.794697 6.8347265e-18 1.9425461e-33)
(-69.751374 6.8341239e-18 1.1990234e-50)
(-69.708048 -1.36671e-17 -6.8335501e-18)
(-69.664718 -6.8328866e-18 6.8328866e-18)
(-69.621386 6.8322499e-18 -9.4664808e-31)
(-69.578051 0 9.4848878e-31)
(-69.534712 0 -1.8958114e-30)
(-69.491371 -6.8300201e-18 -6.8300201e-18)
(-69.448026 1.897316e-30 6.8292451e-18)
(-69.404679 6.8283743e-18 -1.8961037e-30)
(-69.361329 0 1.8968378e-30)
(-69.317976 0 -1.8965745e-30)
(-69.27462 -6.8256471e-18 -6.8256471e-18)
(-69.231262 2.843561e-30 6.8246187e-18)
(-69.187901 6.8236076e-18 -1.8947801e-30)
(-69.144538 0 9.4917476e-31)
(-69.101172 0 0)
(-69.057803 0 -6.8202023e-18)
(-69.014433 0 6.8190185e-18)
(-68.971059 0 -9.4657409e-31)
(-68.927684 0 9.6867653e-34)
(-68.884307 0 -9.4620513e-31)
(-68.840927 0 9.4698297e-31)
(-68.797546 1.3624444e-17 6.8122222e-18)
(-68.754162 3.7804844e-30 -6.8107512e-18)
(-68.710777 -6.8091715e-18 -6.8091715e-18)
(-68.66739 6.8076e-18 6.8076e-18)
(-68.624001 -6.80592e-18 6.80592e-18)
(-68.58061 6.8042485e-18 0)
(-68.537218 -1.8908438e-30 -6.8024695e-18)
(-68.493824 -6.8006992e-18 -6.8006992e-18)
(-68.450429 -1.8878974e-30 0)
(-68.407032 -6.7969519e-18 6.7969519e-18)
(-68.363634 0 -9.4341451e-31)
(-68.320235 0 9.6534368e-34)
(-68.276835 6.7909198e-18 9.4188659e-31)
(-68.233434 1.8851263e-30 -6.7888418e-18)
(-68.190031 -6.7866522e-18 6.7866522e-18)
(-68.146628 0 9.4099161e-31)
(-68.103224 0 -1.8832736e-30)
(-68.059819 0 -6.7798772e-18)
(-68.016413 0 -6.7774758e-18)
(-67.973007 0 1.3550162e-17)
(-67.9296 0 -9.624412e-34)
(-67.886193 0 9.3899674e-31)
(-67.842785 1.3534967e-17 6.7674835e-18)
(-67.799377 -5.6315797e-30 -6.7648889e-18)
(-67.755968 -1.3524376e-17 9.3886254e-31)
(-67.71256 6.7594937e-18 6.7594937e-18)
(-67.669151 9.6018068e-34 0)
(-67.625742 6.7538367e-18 0)
(-67.582334 -3.7434328e-30 0)
(-67.538926 -1.3496012e-17 -6.748006e-18)
(-67.495517 -6.7449487e-18 -6.7449487e-18)
(-67.452109 -1.438056e-49 6.7418944e-18)
(-67.408701 2.0216371e-17 6.7387902e-18)
(-67.365294 0 0)
(-67.321887 -1.3464958e-17 -6.7324789e-18)
(-67.278481 0 -6.72926e-18)
(-67.235075 0 6.7260481e-18)
(-67.19167 1.3445514e-17 6.7227568e-18)
(-67.148265 -1.863887e-30 0)
(-67.104862 -2.0147478e-17 -6.715826e-18)
(-67.061459 6.7123813e-18 -6.7123813e-18)
(-67.018057 6.7089668e-18 6.7089668e-18)
(-66.974656 -6.7054113e-18 1.8619593e-30)
(-66.931257 6.7018364e-18 -6.7018364e-18)
(-66.887858 -6.698168e-18 0)
(-66.84446 -1.8570337e-30 0)
(-66.801064 6.6908071e-18 0)
(-66.757669 -6.6870883e-18 0)
(-66.714275 0 6.6832903e-18)
(-66.670882 -6.679482e-18 -1.8528608e-30)
(-66.627492 6.6756127e-18 -6.6756127e-18)
(-66.584102 1.334346e-17 6.6717301e-18)
(-66.540714 -6.6677971e-18 9.2575729e-31)
(-66.497328 -6.6638422e-18 -9.2615517e-31)
(-66.453943 -6.6598445e-18 1.8287692e-49)
(-66.41056 -6.6558205e-18 6.6558205e-18)
(-66.367179 1.3303524e-17 6.6517618e-18)
(-66.3238 6.647674e-18 -1.3295348e-17)
(-66.280422 -6.6435569e-18 -9.2239178e-31)
(-66.237047 0 9.208723e-31)
(-66.193673 6.6352349e-18 -6.6352349e-18)
(-66.150301 -6.631029e-18 0)
(-66.106931 -6.6268008e-18 6.6268008e-18)
(-66.063563 1.9867621e-17 6.6225402e-18)
(-66.020197 1.8810225e-33 -6.6182594e-18)
(-65.976834 -1.3227893e-17 -1.8346816e-30)
(-65.933472 6.6096151e-18 6.6096151e-18)
(-65.890113 9.1707357e-31 0)
(-65.846755 6.6008727e-18 0)
(-65.803401 -1.8748275e-33 -6.5964627e-18)
(-65.760048 -1.3184075e-17 9.1430205e-31)
(-65.716698 6.5875836e-18 6.5875836e-18)
(-65.67335 0 0)
(-65.630004 -1.8267523e-30 -6.5786217e-18)
(-65.586661 -9.3423805e-34 9.3423805e-34)
(-65.54332 -6.569584e-18 -1.8242428e-30)
(-65.499982 6.5650426e-18 -9.105579e-31)
(-65.456646 -1.8217138e-30 6.5604767e-18)
(-65.413313 -9.0929013e-31 -6.5559021e-18)
(-65.369982 -9.3099635e-34 9.3099635e-34)
(-65.326654 -6.5466985e-18 -1.8178879e-30)
(-65.283328 6.5420709e-18 -6.5420709e-18)
(-65.240005 2.1452357e-49 6.5374351e-18)
(-65.196684 -1.8140227e-30 1.8140227e-30)
(-65.153366 -9.2770089e-34 9.2770089e-34)
(-65.110051 -1.3046864e-17 -9.0571361e-31)
(-65.066738 -9.0413588e-31 -6.5187404e-18)
(-65.023428 6.5140325e-18 6.5140325e-18)
(-64.980121 0 0)
(-64.936816 0 -3.6114629e-30)
(-64.893514 -6.4998438e-18 -9.0151496e-31)
(-64.850215 -2.7025672e-30 -2.7025672e-30)
(-64.806919 6.4903287e-18 -9.2233118e-34)
(-64.763625 -6.4855561e-18 -6.4855561e-18)
(-64.720335 8.9979104e-31 6.4807744e-18)
(-64.677047 8.8599513e-49 8.8599513e-49)
(-64.633761 -8.9845967e-31 -8.9845967e-31)
(-64.590479 6.4663793e-18 1.7955849e-30)
(-64.5472 6.461565e-18 -8.9712401e-31)
(-64.503923 8.955373e-31 1.2913491e-17)
(-64.46065 -6.4519175e-18 -6.4519175e-18)
(-64.417379 0 -6.4470856e-18)
(-64.374111 0 -8.9444171e-31)
(-64.330846 6.4374024e-18 8.9376927e-31)
(-64.287583 -6.4325514e-18 1.2865103e-17)
(-64.244324 5.3508777e-30 -6.427698e-18)
(-64.201068 6.4228372e-18 -6.4228372e-18)
(-64.157814 -6.4179745e-18 2.2527205e-49)
(-64.114563 0 0)
(-64.071316 6.4082341e-18 2.2568946e-49)
(-64.028071 6.4033568e-18 -6.4033568e-18)
(-63.984829 -6.3984787e-18 6.3984787e-18)
(-63.94159 -6.3935943e-18 2.2563249e-49)
(-63.898354 0 -8.8610088e-31)
(-63.855121 6.383819e-18 -9.0719524e-34)
(-63.811891 6.3789282e-18 -6.3789282e-18)
(-63.768663 -1.2748064e-17 1.2748064e-17)
(-63.725439 -6.3691358e-18 1.7685823e-30)
(-63.682218 6.3642344e-18 -6.3642344e-18)
(-63.638999 6.3593339e-18 8.8202652e-31)
(-63.595784 8.8134617e-31 -8.8134617e-31)
(-63.552571 6.3495245e-18 6.3495245e-18)
(-63.509362 1.7617736e-30 -6.3446161e-18)
(-63.466155 -1.2679419e-17 -9.1029934e-49)
(-63.422951 0 -2.6394714e-30)
(-63.379751 0 1.7585839e-30)
(-63.336553 0 -1.7554213e-30)
(-63.293358 6.3200657e-18 -1.7549565e-30)
(-63.250166 6.315151e-18 2.2725371e-49)
(-63.206977 0 0)
(-63.163791 -6.3053223e-18 6.3053223e-18)
(-63.120608 -8.7295833e-31 0)
(-63.077428 6.295491e-18 0)
(-63.034251 0 -6.2905762e-18)
(-62.991077 0 -1.7454022e-30)
(-62.947906 -6.2807433e-18 6.2807433e-18)
(-62.904738 -8.704441e-31 0)
(-62.861572 8.6887134e-31 0)
(-62.81841 -6.2659946e-18 -1.2531989e-17)
(-62.775251 6.2610813e-18 -5.2121741e-30)
(-62.732094 -2.603152e-30 1.2512332e-17)
(-62.688941 -6.251254e-18 -6.251254e-18)
(-62.64579 0 8.8765827e-34)
(-62.602643 -6.2414288e-18 -8.665603e-31)
(-62.559498 -8.6587812e-31 -6.2365155e-18)
(-62.516356 6.2316052e-18 0)
(-62.473217 -6.2266923e-18 0)
(-62.430082 6.2217824e-18 0)
(-62.386949 6.2168701e-18 -6.2168701e-18)
(-62.343819 -6.211961e-18 -1.7231724e-30)
(-62.300692 0 6.2070497e-18)
(-62.257568 6.2021421e-18 0)
(-62.214447 6.1972328e-18 0)
(-62.171329 -6.1923276e-18 -6.1923276e-18)
(-62.128213 -6.1874211e-18 8.7928543e-34)
(-62.085101 0 6.1825191e-18)
(-62.041992 -6.177616e-18 0)
(-61.998885 6.1727174e-18 0)
(-61.955782 6.1678177e-18 -6.1678177e-18)
(-61.912681 -6.1629223e-18 -1.7095693e-30)
(-61.869583 -1.2316051e-17 -1.7108363e-30)
(-61.826488 3.4172051e-30 1.7086025e-30)
(-61.783396 1.8444715e-17 6.1482383e-18)
(-61.740307 2.2729992e-49 -6.1433476e-18)
(-61.697221 -6.1384549e-18 1.7036545e-30)
(-61.654138 -1.2267132e-17 -1.7022975e-30)
(-61.611057 3.4001383e-30 1.7000691e-30)
(-61.56798 1.2247574e-17 6.1237871e-18)
(-61.524905 -6.1188975e-18 0)
(-61.481834 6.1140115e-18 0)
(-61.438765 -6.1091238e-18 -6.1091238e-18)
(-61.395699 -6.1042401e-18 -5.676797e-48)
(-61.352636 1.219871e-17 6.0993549e-18)
(-61.309576 0 0)
(-61.266519 0 0)
(-61.223465 -1.2169429e-17 -6.0847144e-18)
(-61.180413 -1.8088491e-48 -3.6176981e-48)
(-61.137365 1.2149925e-17 6.0749625e-18)
(-61.094319 0 0)
(-61.051276 0 0)
(-61.008237 -1.2120697e-17 -6.0603486e-18)
(-60.9652 -1.8105065e-48 -3.621013e-48)
(-60.922165 1.2101234e-17 6.0506171e-18)
(-60.879134 0 0)
(-60.836106 0 0)
(-60.79308 -1.2072071e-17 -6.0360353e-18)
(-60.750057 -6.0311763e-18 8.570817e-34)
(-60.707037 1.2052644e-17 6.0263219e-18)
(-60.66402 6.0214662e-18 -6.0214662e-18)
(-60.621006 0 1.6715493e-30)
(-60.577994 -1.2023525e-17 -1.6702011e-30)
(-60.534985 3.3360009e-30 1.6680004e-30)
(-60.491979 1.2004128e-17 6.0020638e-18)
(-60.448976 -5.997218e-18 0)
(-60.405976 0 0)
(-60.362979 5.9875278e-18 0)
(-60.319984 -5.9826835e-18 0)
(-60.276992 8.4950264e-34 0)
(-60.234003 5.9730018e-18 -5.9730018e-18)
(-60.191017 -5.9681643e-18 1.6563923e-30)
(-60.148034 5.9633253e-18 5.9633253e-18)
(-60.105053 5.9584906e-18 0)
(-60.062075 -5.9536546e-18 0)
(-60.0191 -5.9488233e-18 0)
(-59.976128 1.650528e-30 0)
(-59.933159 5.9391633e-18 0)
(-59.890192 -5.9343344e-18 0)
(-59.847228 -1.646507e-30 0)
(-59.804267 5.9246842e-18 -5.9246842e-18)
(-59.761309 -5.9198633e-18 3.2859739e-30)
(-59.718354 5.9150408e-18 5.9150408e-18)
(-59.675401 5.9102235e-18 0)
(-59.632451 -5.9054047e-18 0)
(-59.589504 -5.900591e-18 0)
(-59.54656 1.6371395e-30 0)
(-59.503618 5.8909642e-18 0)
(-59.46068 -5.8861513e-18 0)
(-59.417744 8.3578908e-34 0)
(-59.37481 5.8765333e-18 -5.8765333e-18)
(-59.33188 -5.8717288e-18 1.6296278e-30)
(-59.288952 5.866924e-18 5.866924e-18)
(-59.246027 5.8621237e-18 0)
(-59.203105 -5.8573228e-18 0)
(-59.160185 -1.1705051e-17 -5.8525253e-18)
(-59.117269 3.2492568e-30 1.6246284e-30)
(-59.074355 1.1685862e-17 5.8429311e-18)
(-59.031443 -5.8381354e-18 0)
(-58.988535 8.2896793e-34 0)
(-58.945629 1.1657104e-17 0)
(-58.902726 1.6552135e-33 -5.8237647e-18)
(-58.859826 -5.8189785e-18 -1.6166415e-30)
(-58.816928 0 5.8141945e-18)
(-58.774033 5.809411e-18 0)
(-58.731141 0 0)
(-58.688252 -5.7998483e-18 0)
(-58.645365 0 0)
(-58.602481 0 0)
(-58.5596 0 0)
(-58.516721 -5.7807514e-18 0)
(-58.473846 -2.2204645e-49 -5.7759829e-18)
(-58.430972 5.7712149e-18 8.2013896e-34)
(-58.388102 0 5.7664473e-18)
(-58.345234 5.7616802e-18 0)
(-58.302369 -1.5985806e-30 0)
(-58.259507 -5.7521515e-18 0)
(-58.216647 0 0)
(-58.173791 0 0)
(-58.130936 0 0)
(-58.088085 -5.7331303e-18 0)
(-58.045236 1.5906569e-30 -5.7283792e-18)
(-58.00239 5.7236282e-18 -8.1337649e-34)
(-57.959546 0 5.7188777e-18)
(-57.916706 5.7141289e-18 0)
(-57.873868 1.5845707e-30 0)
(-57.831032 -5.7046412e-18 0)
(-57.7882 0 -5.6999034e-18)
(-57.74537 5.6951689e-18 3.1620608e-30)
(-57.702542 -5.6904364e-18 5.6904364e-18)
(-57.659718 3.15923e-30 0)
(-57.616896 5.6809728e-18 -5.6809728e-18)
(-57.574076 -5.6762415e-18 -1.576986e-30)
(-57.53126 0 5.6715118e-18)
(-57.488446 -5.6667851e-18 0)
(-57.445634 -1.5722421e-30 0)
(-57.402826 5.6573448e-18 -5.6573448e-18)
(-57.36002 0 -5.6526311e-18)
(-57.317216 5.6479202e-18 5.6479202e-18)
(-57.274416 -5.6432104e-18 5.6432104e-18)
(-57.231618 -3.1313987e-30 0)
(-57.188822 5.6337895e-18 0)
(-57.146029 -3.1253662e-30 0)
(-57.103239 -7.9927083e-34 0)
(-57.060452 1.5612668e-30 5.6196616e-18)
(-57.017667 -7.9793377e-34 -7.9793377e-34)
(-56.974885 -5.6102638e-18 -1.1220528e-17)
(-56.932106 0 -5.6055736e-18)
(-56.889329 5.6008877e-18 1.1201775e-17)
(-56.846555 -1.5531592e-30 1.1192408e-17)
(-56.803783 -1.5518592e-30 -5.5915197e-18)
(-56.761014 2.1860901e-49 -5.5868338e-18)
(-56.718248 -1.550051e-30 0)
(-56.675485 0 0)
(-56.632724 -1.1145552e-17 0)
(-56.589966 -1.5461505e-30 0)
(-56.54721 5.5634327e-18 -5.5634327e-18)
(-56.504457 -5.5587749e-18 -1.5443511e-30)
(-56.461707 1.5414802e-30 5.5541233e-18)
(-56.418959 5.5494735e-18 0)
(-56.376214 5.5448205e-18 0)
(-56.333472 1.5383926e-30 0)
(-56.290732 -1.5370972e-30 0)
(-56.247994 5.5308292e-18 0)
(-56.20526 -5.5261663e-18 0)
(-56.162528 -5.5215136e-18 0)
(-56.1198 0 0)
(-56.077073 -5.5122502e-18 0)
(-56.034349 1.5293606e-30 0)
(-55.991628 5.5030223e-18 0)
(-55.948909 0 0)
(-55.906193 0 0)
(-55.863479 0 0)
(-55.820769 -1.0969006e-17 -5.484503e-18)
(-55.778061 6.0865955e-30 3.0432978e-30)
(-55.735356 1.0950464e-17 5.475232e-18)
(-55.692653 0 0)
(-55.649954 0 0)
(-55.607257 0 5.4614446e-18)
(-55.564562 0 -1.5152668e-30)
(-55.52187 0 7.7482074e-34)
(-55.47918 0 -5.4477463e-18)
(-55.436492 0 -5.4431621e-18)
(-55.393808 -1.0877124e-17 -3.0195879e-30)
(-55.351126 3.0193435e-30 1.5096718e-30)
(-55.308447 1.0858666e-17 5.4293332e-18)
(-55.265771 5.4247258e-18 0)
(-55.223098 -5.4201388e-18 0)
(-55.180428 -5.4155804e-18 0)
(-55.13776 1.5033106e-30 0)
(-55.095095 2.9995095e-30 0)
(-55.052432 5.4020594e-18 -5.4020594e-18)
(-55.009771 -5.3975628e-18 2.9968245e-30)
(-54.967112 5.3930428e-18 5.3930428e-18)