/*--------------------------------*- C++ -*----------------------------------*\
| =========                 |                                                 |
| \\      /  F ield         | OpenFOAM: The Open Source CFD Toolbox           |
|  \\    /   O peration     | Version:  4.x                                   |
|   \\  /    A nd           | Web:      www.OpenFOAM.org                      |
|    \\/     M anipulation  |                                                 |
\*---------------------------------------------------------------------------*/
FoamFile
{
    version     2.0;
    format      ascii;
    class       volScalarField;
    location    "0.36";
    object      T;
}
// * * * * * * * * * * * * * * * * * * * * * * * * * * * * * * * * * * * * * //

dimensions      [0 0 0 1 0 0 0];

internalField   nonuniform List<scalar> 
6398
(
299.9999965
299.9999953
299.9999948
299.9999951
299.9999957
299.999997
299.9999956
299.9999954
299.9999945
299.9999951
299.999997
299.9999995
299.999995
299.9999943
299.9999936
299.9999944
299.9999964
299.9999986
299.9999949
299.999994
299.9999936
299.9999945
299.9999966
299.9999984
299.9999948
299.9999943
299.9999943
299.9999955
299.9999973
299.9999986
299.999995
299.9999953
299.9999955
299.9999972
299.9999986
299.9999995
299.999992
299.999989
299.9999899
299.9999933
299.9999971
300.0000012
299.9999883
299.9999828
299.9999854
299.9999913
299.9999979
300.0000037
299.9999874
299.999982
299.9999845
299.9999907
299.9999973
300.0000023
299.9999873
299.9999824
299.999985
299.9999911
299.9999972
300.0000014
299.9999888
299.9999854
299.9999875
299.9999931
299.999998
300.000001
299.9999917
299.9999905
299.9999923
299.9999969
300.0000003
300.0000019
299.9999921
299.9999895
299.9999936
300.0000032
300.0000152
300.0000263
299.9999875
299.9999821
299.9999878
300.0000007
300.0000171
300.0000322
299.9999872
299.9999813
299.9999863
299.9999994
300.0000154
300.0000292
299.9999888
299.9999831
299.9999885
300.0000013
300.0000168
300.0000285
299.9999929
299.9999887
299.9999931
300.0000054
300.000019
300.0000278
299.9999998
299.9999983
300.000002
300.0000132
300.0000243
300.000029
300.0000003
300.0000064
300.0000219
300.0000497
300.00008
300.0001041
300.0000013
300.0000033
300.0000203
300.0000581
300.0001077
300.0001516
300.0000035
300.0000025
300.0000168
300.0000542
300.0001033
300.0001455
300.0000113
300.0000101
300.0000244
300.0000611
300.000109
300.0001455
300.0000228
300.000027
300.0000391
300.0000751
300.0001179
300.0001444
300.0000414
300.0000545
300.0000652
300.0000976
300.0001315
300.000144
300.0000183
300.000051
300.0000844
300.0001272
300.0001643
300.0001908
300.0000429
300.0000863
300.0001342
300.0002198
300.0003132
300.0003809
300.0000543
300.0000922
300.0001368
300.0002306
300.000338
300.0004175
300.0000706
300.0001163
300.0001593
300.00025
300.0003516
300.0004209
300.0000891
300.0001589
300.0002018
300.0002848
300.0003691
300.0004155
300.0001145
300.0002184
300.0002652
300.0003335
300.000389
300.0004015
300.0000408
300.0001073
300.0001542
300.0001959
300.0002236
300.0002397
300.0000985
300.0002207
300.0003061
300.0004059
300.0004956
300.000553
300.0001243
300.0002571
300.0003476
300.000464
300.0005771
300.0006535
300.0001419
300.0002903
300.0003814
300.0004938
300.0006009
300.0006699
300.0001575
300.0003373
300.0004354
300.0005376
300.0006214
300.0006633
300.0001752
300.0003933
300.0005029
300.0005868
300.0006315
300.0006317
300.0000614
300.0001593
300.0002135
300.0002448
300.0002561
300.0002572
300.0001537
300.0003584
300.0004721
300.0005587
300.0006135
300.000636
300.0001908
300.0004262
300.0005538
300.0006635
300.0007451
300.0007888
300.0002066
300.000459
300.0005922
300.0007043
300.0007862
300.0008271
300.0002134
300.0004914
300.0006373
300.0007447
300.0008065
300.0008225
300.0002127
300.0005165
300.0006773
300.00077
300.0007983
300.00078
300.0000763
300.0001978
300.000256
300.0002767
300.0002727
300.0002674
300.0001954
300.0004694
300.0006007
300.0006636
300.0006758
300.0006661
300.0002455
300.0005712
300.0007284
300.0008184
300.0008525
300.0008563
300.0002617
300.0006045
300.0007736
300.0008747
300.000915
300.0009198
300.0002563
300.0006099
300.0007937
300.0008984
300.0009304
300.0009243
300.0002316
300.000586
300.0007836
300.0008828
300.0008962
300.0008621
300.0000845
300.0002194
300.0002777
300.0002899
300.0002748
300.0002581
300.0002205
300.0005396
300.0006812
300.0007213
300.0006989
300.0006611
300.0002827
300.0006772
300.0008567
300.0009228
300.000914
300.0008815
300.0002991
300.0007144
300.0009114
300.0009971
300.0010033
300.0009832
300.0002817
300.0006906
300.000901
300.0010005
300.0010143
300.0009991
300.000235
300.0006096
300.000828
300.0009362
300.0009489
300.0009134
300.0000879
300.0002271
300.0002853
300.0002932
300.0002713
300.0002399
300.0002305
300.000572
300.0007207
300.000744
300.000699
300.000637
300.0002984
300.0007367
300.0009313
300.0009771
300.0009407
300.0008852
300.0003143
300.0007773
300.0009939
300.0010683
300.0010606
300.001033
300.0002892
300.0007295
300.0009557
300.001055
300.0010756
300.0010742
300.0002301
300.0006062
300.0008288
300.0009468
300.0009867
300.0009794
300.0000862
300.0002223
300.0002835
300.0002911
300.000264
300.0002271
300.0002247
300.0005716
300.0007261
300.0007441
300.0006884
300.0006097
300.0002938
300.0007453
300.0009512
300.0009896
300.0009428
300.0008765
300.0003087
300.0007861
300.0010167
300.0010888
300.0010803
300.0010531
300.0002803
300.000728
300.0009625
300.0010666
300.0011046
300.0011321
300.0002143
300.0005822
300.0008074
300.0009383
300.0010111
300.0010613
300.0000768
300.0002071
300.0002745
300.0002846
300.0002573
300.0002194
300.0002039
300.0005472
300.0007123
300.0007325
300.0006714
300.0005827
300.0002697
300.0007219
300.0009399
300.0009805
300.0009304
300.00085
300.0002808
300.00076
300.0010035
300.0010792
300.0010726
300.001045
300.0002504
300.0006942
300.0009407
300.0010521
300.0011004
300.0011419
300.0001866
300.0005295
300.0007577
300.0009078
300.0010101
300.0011014
300.000069
300.0001927
300.0002612
300.0002759
300.0002528
300.0002124
300.0001827
300.0004977
300.0006713
300.0007048
300.0006508
300.000555
300.0002333
300.0006496
300.0008844
300.0009378
300.0008894
300.0007955
300.0002366
300.0006743
300.000934
300.0010218
300.0010224
300.0009914
300.0002104
300.0006066
300.0008604
300.0009849
300.0010527
300.0011011
300.0001638
300.000465
300.0006816
300.0008378
300.000975
300.0010839
300.0000668
300.0001828
300.0002491
300.0002718
300.0002549
300.0002142
300.0001682
300.0004538
300.0006252
300.0006812
300.0006422
300.0005482
300.0002057
300.0005716
300.0008004
300.0008798
300.0008481
300.0007555
300.0002061
300.0005818
300.000827
300.00093
300.0009339
300.0008901
300.0001885
300.00053
300.0007615
300.0008852
300.0009388
300.0009667
300.0001612
300.0004342
300.0006258
300.0007623
300.0008744
300.0009772
299.9999956
299.9999968
299.9999971
299.9999985
299.9999994
299.9999998
299.9999963
299.9999984
299.9999981
299.999999
299.9999997
300.0000001
299.9999977
299.9999997
299.9999991
300
300.0000005
300.0000011
299.9999988
299.9999998
299.9999998
300.0000009
300.0000015
300.0000014
299.9999981
299.9999995
300.0000003
300.0000015
300.0000016
300.0000008
299.9999975
300.0000004
300.0000013
300.0000019
300.0000014
300.0000003
299.9999984
300.0000025
300.0000024
300.000002
300.0000008
299.9999998
300.0000002
300.0000039
300.0000023
300.0000008
299.9999994
299.9999986
300.0000009
300.0000029
300.0000006
299.9999984
299.9999967
299.9999964
300.0000001
299.9999998
299.9999972
299.999995
299.9999936
299.9999935
299.999998
299.9999956
299.9999934
299.9999918
299.999991
299.9999912
299.9999958
299.9999919
299.9999903
299.9999893
299.9999889
299.9999893
299.9999959
299.9999951
299.999997
299.9999999
300.0000019
300.0000026
299.999998
299.9999982
299.9999992
300.0000011
300.0000024
300.0000027
299.9999994
300.0000003
300.0000004
300.0000019
300.0000026
300.0000022
299.9999998
300.0000005
300.0000008
300.0000019
300.0000018
300.0000002
299.9999989
300.0000002
300.0000012
300.0000013
300.0000005
299.9999979
299.9999993
300.0000024
300.000003
300.0000018
299.9999995
299.9999961
300.000002
300.0000066
300.0000054
300.0000024
299.9999981
299.9999936
300.0000054
300.000009
300.0000061
300.0000017
299.9999948
299.9999881
300.0000062
300.0000071
300.0000031
299.999998
299.999991
299.9999847
300.0000033
300.0000013
299.999997
299.999992
299.9999865
299.9999824
299.9999987
299.9999936
299.9999895
299.9999855
299.9999823
299.9999805
299.9999934
299.9999848
299.9999816
299.9999794
299.9999778
299.9999779
300.0000084
300.0000076
300.000011
300.00002
300.000027
300.0000275
300.0000124
300.0000134
300.0000149
300.0000204
300.0000234
300.0000206
300.0000138
300.0000154
300.0000144
300.0000156
300.0000147
300.0000076
300.0000127
300.0000134
300.0000104
300.0000081
300.0000027
299.9999888
300.0000098
300.0000099
300.0000064
300.0000011
299.9999898
299.9999768
300.0000089
300.0000101
300.0000064
299.9999984
299.9999852
299.9999723
300.0000129
300.0000166
300.0000121
300.000004
299.9999897
299.9999757
300.0000202
300.000025
300.000019
300.0000104
299.9999975
299.999985
300.0000257
300.0000291
300.0000218
300.0000129
300.0000003
299.9999882
300.000026
300.0000263
300.0000185
300.0000107
300.0000001
299.9999897
300.0000212
300.0000177
300.0000105
300.0000051
299.9999978
299.9999903
300.0000133
300.0000058
299.9999999
299.9999974
299.9999934
299.9999895
300.0000605
300.0000823
300.0000905
300.0001142
300.000134
300.0001316
300.0000683
300.0000977
300.0000991
300.0001095
300.0001131
300.0000952
300.0000666
300.0000965
300.0000887
300.0000832
300.0000691
300.0000376
300.0000567
300.0000798
300.0000646
300.0000456
300.0000186
299.999984
300.0000423
300.0000571
300.0000393
300.0000138
299.9999805
299.9999438
300.0000339
300.0000464
300.0000293
300.0000044
299.9999712
299.9999435
300.0000414
300.0000608
300.0000449
300.0000223
299.9999946
299.9999723
300.000062
300.0000944
300.0000788
300.0000574
300.0000262
299.9999983
300.000083
300.0001276
300.0001123
300.0000907
300.0000547
300.0000175
300.0000938
300.000143
300.0001283
300.0001087
300.0000738
300.0000323
300.0000923
300.0001376
300.0001245
300.0001099
300.0000819
300.0000449
300.0000827
300.0001189
300.0001075
300.0000986
300.0000798
300.0000546
300.0001334
300.0002663
300.0003138
300.0003572
300.0003761
300.0003538
300.0001345
300.0002782
300.000316
300.0003284
300.0003086
300.0002496
300.0001209
300.0002525
300.0002697
300.0002475
300.0001898
300.0001121
300.0000955
300.0001959
300.0001909
300.0001429
300.0000662
299.9999976
300.0000671
300.000135
300.0001174
300.0000571
299.9999892
299.9999401
300.0000525
300.0001071
300.0000888
300.0000329
299.9999781
299.9999446
300.0000647
300.0001374
300.0001303
300.0000864
300.0000286
299.999993
300.0000968
300.0002099
300.0002222
300.0001883
300.0001207
300.0000558
300.0001292
300.0002836
300.0003125
300.0002824
300.0002054
300.0001133
300.000148
300.0003253
300.0003629
300.0003372
300.0002617
300.0001582
300.0001512
300.0003309
300.0003709
300.0003525
300.0002902
300.0001956
300.0001443
300.0003134
300.000351
300.0003399
300.0002963
300.0002292
300.0001798
300.0004229
300.0005349
300.0005896
300.000591
300.0005452
300.0001658
300.0004072
300.0005048
300.0005211
300.0004759
300.0003885
300.0001389
300.0003471
300.0004115
300.0003868
300.0003023
300.000202
300.0001046
300.0002592
300.0002865
300.0002329
300.0001312
300.00004
300.000072
300.0001758
300.0001779
300.0001135
300.0000206
299.9999635
300.0000571
300.0001396
300.0001401
300.0000865
300.0000138
299.9999802
300.0000713
300.0001785
300.0002029
300.0001698
300.0001106
300.000072
300.0001048
300.0002688
300.0003288
300.0003106
300.0002481
300.0001837
300.0001379
300.0003589
300.0004481
300.0004365
300.0003632
300.0002648
300.0001587
300.0004134
300.0005174
300.000512
300.0004377
300.0003186
300.0001652
300.0004285
300.0005361
300.0005394
300.0004786
300.0003636
300.0001616
300.0004179
300.0005225
300.0005354
300.000497
300.0004155
300.000195
300.0005048
300.0006683
300.0007366
300.0007264
300.0006651
300.0001644
300.0004493
300.0005932
300.0006247
300.0005759
300.0004833
300.0001294
300.0003648
300.0004666
300.0004597
300.0003823
300.0002847
300.0000944
300.000268
300.0003253
300.0002917
300.0002033
300.0001215
300.0000665
300.0001847
300.000211
300.0001681
300.0000919
300.0000421
300.0000569
300.0001519
300.0001732
300.0001431
300.0000924
300.0000752
300.0000719
300.0001921
300.0002399
300.0002326
300.0001996
300.0001881
300.0001015
300.0002795
300.0003684
300.0003798
300.0003457
300.0003106
300.0001294
300.0003657
300.000488
300.0005097
300.0004661
300.000395
300.0001474
300.0004203
300.0005598
300.0005888
300.000543
300.0004466
300.0001544
300.000439
300.0005845
300.0006234
300.0005896
300.0004944
300.0001529
300.0004337
300.0005798
300.0006318
300.0006237
300.0005616
300.0001895
300.0005193
300.0007144
300.0007989
300.0007891
300.0007245
300.0001415
300.0004328
300.0006
300.0006514
300.0006168
300.0005313
300.0001005
300.0003352
300.0004614
300.0004764
300.000425
300.0003385
300.0000746
300.0002447
300.0003233
300.0003159
300.0002585
300.0001874
300.0000614
300.0001777
300.0002202
300.0002063
300.0001575
300.0001184
300.0000614
300.0001574
300.0001909
300.0001856
300.0001581
300.0001542
300.0000789
300.000199
300.0002558
300.0002705
300.0002594
300.0002679
300.000106
300.0002781
300.0003761
300.0004098
300.0004003
300.0003918
300.0001275
300.0003473
300.0004819
300.0005302
300.0005152
300.0004744
300.0001373
300.0003884
300.0005446
300.0006018
300.0005872
300.0005231
300.0001397
300.0004047
300.0005695
300.0006384
300.0006372
300.0005742
300.0001391
300.0004055
300.0005727
300.0006595
300.0006878
300.0006539
300.0001705
300.0004914
300.0007021
300.0008017
300.0008069
300.0007545
300.0001067
300.0003571
300.0005497
300.0006323
300.0006196
300.000553
300.0000667
300.0002505
300.0003999
300.0004565
300.0004324
300.0003635
300.0000544
300.0001898
300.0002874
300.0003123
300.0002824
300.0002205
300.0000574
300.0001624
300.0002165
300.0002241
300.0001944
300.0001571
300.0000704
300.0001667
300.0002059
300.0002135
300.000198
300.0001987
300.0000953
300.0002158
300.0002757
300.0003002
300.0002999
300.0003205
300.0001225
300.0002894
300.0003881
300.0004347
300.0004399
300.0004482
300.0001381
300.0003474
300.0004798
300.0005434
300.0005473
300.000526
300.0001411
300.0003725
300.0005239
300.0006047
300.0006117
300.0005692
300.0001397
300.0003797
300.0005425
300.0006406
300.0006632
300.0006209
300.0001412
300.0003869
300.0005584
300.0006736
300.0007281
300.0007132
300.0001489
300.0004307
300.0006388
300.0007665
300.0008104
300.0007893
300.0000765
300.0002638
300.0004386
300.0005629
300.0006091
300.0005745
300.0000379
300.0001618
300.0002959
300.0003948
300.0004277
300.0003823
300.0000333
300.0001322
300.0002249
300.0002851
300.0002886
300.0002394
300.0000484
300.0001462
300.0002053
300.0002289
300.0002138
300.0001772
300.000077
300.0001912
300.0002377
300.0002509
300.0002382
300.0002346
300.0001193
300.0002697
300.0003297
300.0003605
300.0003685
300.0003935
300.0001563
300.0003482
300.0004399
300.0004952
300.0005195
300.0005453
300.000169
300.000388
300.0005118
300.0005856
300.0006142
300.0006189
300.0001622
300.0003934
300.0005388
300.0006285
300.0006622
300.0006484
300.0001559
300.0003926
300.0005514
300.0006614
300.000714
300.0006978
300.0001629
300.0004071
300.0005771
300.0007131
300.0008015
300.0007986
300.0001287
300.000374
300.0005689
300.0007201
300.000819
300.000865
300.0000562
300.0001928
300.0003495
300.0005036
300.0006108
300.0006243
300.0000181
300.0000927
300.0002132
300.0003449
300.0004326
300.0004197
300.000013
300.0000759
300.0001664
300.0002551
300.0002999
300.0002682
300.0000317
300.0001158
300.0001856
300.0002314
300.0002363
300.0002041
300.0000735
300.0002027
300.0002732
300.0003017
300.0002952
300.000284
300.0001329
300.0003361
300.0004294
300.0004673
300.0004725
300.0004891
300.0001842
300.0004496
300.0005725
300.0006327
300.000652
300.000673
300.0002012
300.0004881
300.0006291
300.0007092
300.0007425
300.0007507
300.0001922
300.000469
300.0006222
300.0007234
300.0007737
300.0007711
300.0001865
300.0004576
300.0006218
300.0007477
300.00082
300.0008134
300.0002015
300.0004916
300.0006719
300.0008241
300.0009162
300.0009086
300.0001119
300.0003253
300.0005106
300.0006815
300.0008287
300.0009469
300.0000482
300.0001537
300.0002962
300.0004745
300.0006387
300.000732
300.0000113
300.0000574
300.0001659
300.0003275
300.0004701
300.0005204
300.0000014
300.0000354
300.0001218
300.0002425
300.000337
300.0003447
300.0000152
300.000077
300.0001558
300.0002305
300.0002749
300.0002643
300.0000604
300.000193
300.0002801
300.0003303
300.0003489
300.0003477
300.0001275
300.0003544
300.0004834
300.0005369
300.0005494
300.0005647
300.0001841
300.000492
300.0006596
300.0007282
300.0007437
300.0007589
300.0002048
300.0005393
300.0007234
300.0008075
300.0008334
300.0008405
300.0002013
300.0005269
300.0007134
300.0008161
300.0008599
300.0008618
300.0002033
300.0005266
300.0007183
300.0008415
300.0009038
300.0009007
300.000223
300.0005737
300.000782
300.000923
300.0009966
300.000983
300.0001094
300.0002999
300.0004683
300.0006411
300.000818
300.0009664
300.000057
300.0001523
300.0002824
300.0004652
300.0006665
300.0008218
300.0000219
300.0000604
300.0001601
300.000331
300.0005308
300.0006634
300.0000061
300.0000302
300.0001089
300.0002447
300.0004004
300.0004854
300.0000101
300.0000543
300.0001303
300.0002269
300.0003211
300.0003617
300.0000436
300.0001637
300.0002663
300.0003298
300.0003756
300.000401
300.0001055
300.0003363
300.000481
300.0005446
300.000568
300.0005885
300.0001611
300.0004789
300.0006646
300.0007414
300.0007609
300.0007771
300.0001861
300.0005321
300.0007332
300.0008227
300.0008502
300.0008601
300.0001922
300.0005312
300.0007321
300.0008357
300.0008792
300.0008859
300.0002022
300.0005441
300.0007472
300.0008655
300.0009231
300.0009218
300.0002187
300.0005872
300.0008062
300.0009389
300.0010041
300.0009899
300.0001261
300.0003113
300.0004627
300.0006116
300.0007688
300.000925
300.0000902
300.0001955
300.0003057
300.0004713
300.0006645
300.0008325
300.0000584
300.0001137
300.0001949
300.0003571
300.000566
300.0007364
300.0000325
300.0000631
300.000129
300.0002625
300.0004444
300.0005879
300.0000196
300.000058
300.0001228
300.0002197
300.0003422
300.0004338
300.0000317
300.0001195
300.0002156
300.0002976
300.0003678
300.0004212
300.000069
300.0002562
300.0004121
300.0004949
300.0005383
300.0005755
300.0001118
300.0003856
300.0005873
300.0006809
300.0007166
300.0007501
300.0001439
300.0004548
300.0006675
300.0007681
300.0008077
300.0008295
300.0001689
300.0004896
300.0006927
300.0007983
300.0008466
300.0008613
300.0001867
300.0005165
300.0007175
300.0008301
300.0008846
300.0008858
300.0001878
300.0005321
300.0007474
300.0008702
300.000926
300.000915
299.9999938
299.9999888
299.9999879
299.9999873
299.9999872
299.9999878
299.9999922
299.9999866
299.9999861
299.999986
299.9999861
299.9999871
299.9999911
299.9999855
299.9999852
299.9999853
299.9999861
299.9999875
299.9999906
299.9999853
299.9999851
299.9999856
299.9999871
299.9999889
299.9999907
299.999986
299.9999859
299.9999866
299.9999884
299.9999903
299.9999924
299.9999896
299.9999895
299.9999904
299.9999919
299.9999933
299.9999877
299.9999766
299.9999744
299.9999737
299.9999737
299.9999756
299.9999828
299.9999699
299.9999683
299.9999691
299.9999712
299.9999752
299.999979
299.9999651
299.9999644
299.9999671
299.9999716
299.9999767
299.9999768
299.9999637
299.9999638
299.999968
299.9999738
299.9999787
299.9999773
299.9999666
299.9999674
299.9999722
299.9999778
299.9999821
299.9999841
299.9999792
299.9999806
299.9999842
299.9999876
299.99999
300.0000048
299.9999939
299.9999892
299.9999889
299.999988
299.9999888
299.9999964
299.9999825
299.9999789
299.9999803
299.9999829
299.9999884
299.9999884
299.9999727
299.9999709
299.999975
299.9999811
299.9999889
299.9999828
299.9999683
299.9999685
299.9999748
299.999983
299.9999914
299.9999814
299.9999709
299.999973
299.9999808
299.9999898
299.9999977
299.9999867
299.9999841
299.9999878
299.999994
300.0000005
300.0000058
300.0000699
300.0000951
300.000084
300.0000783
300.0000689
300.0000615
300.0000537
300.0000652
300.000054
300.0000514
300.0000531
300.0000632
300.0000347
300.0000338
300.000026
300.0000307
300.0000434
300.0000643
300.0000184
300.0000149
300.0000139
300.0000255
300.000046
300.0000711
300.0000085
300.0000124
300.000019
300.0000366
300.0000612
300.0000858
300
300.0000135
300.0000262
300.000042
300.0000593
300.0000719
300.0001316
300.0002829
300.0003131
300.0003064
300.0002843
300.0002588
300.0001131
300.0002385
300.0002584
300.000258
300.0002614
300.0002785
300.0000906
300.0001868
300.0002017
300.0002161
300.0002479
300.000293
300.0000691
300.0001465
300.0001691
300.000201
300.0002525
300.0003055
300.0000478
300.0001203
300.0001589
300.0002044
300.0002595
300.0003015
300.0000134
300.0000565
300.0000906
300.0001228
300.0001513
300.0001661
300.0001512
300.0003908
300.000488
300.0005104
300.0005023
300.000474
300.0001353
300.00035
300.0004395
300.0004761
300.0005047
300.0005265
300.0001164
300.000304
300.0003922
300.0004507
300.0005131
300.0005638
300.0000962
300.0002619
300.0003562
300.0004354
300.000517
300.0005731
300.0000681
300.0002061
300.0003038
300.0003901
300.0004675
300.0005088
300.000019
300.0000818
300.0001373
300.0001864
300.000224
300.0002391
300.0001454
300.0004137
300.0005584
300.0006259
300.0006567
300.000646
300.0001348
300.0003851
300.000529
300.0006168
300.0006868
300.0007235
300.0001222
300.0003532
300.0005019
300.0006127
300.0007106
300.0007696
300.0001053
300.0003162
300.0004704
300.0005981
300.0007078
300.0007668
300.0000757
300.0002454
300.0003872
300.0005093
300.0006053
300.0006472
300.0000231
300.0000956
300.0001641
300.0002239
300.0002664
300.0002808
300.0001385
300.0003993
300.0005682
300.0006753
300.0007458
300.0007606
300.0001378
300.0003917
300.0005622
300.00069
300.0007955
300.0008504
300.0001327
300.0003762
300.0005536
300.0007003
300.0008249
300.0008944
300.0001194
300.000346
300.0005279
300.0006853
300.0008129
300.0008751
300.0000893
300.0002722
300.0004325
300.0005729
300.0006775
300.0007172
300.000033
300.0001118
300.0001842
300.0002469
300.0002888
300.0002991
300.0001483
300.0003999
300.0005771
300.0007122
300.0008113
300.0008398
300.0001579
300.0004108
300.0005938
300.0007473
300.0008788
300.0009374
300.0001619
300.0004125
300.0006001
300.0007657
300.0009091
300.0009749
300.0001514
300.0003891
300.0005785
300.0007492
300.0008845
300.0009361
300.0001179
300.0003145
300.0004792
300.000625
300.0007265
300.000752
300.0000493
300.0001367
300.0002087
300.0002689
300.0003051
300.0003075
300.0001848
300.0004431
300.0006239
300.0007905
300.0009142
300.000933
300.0002101
300.0004897
300.0006784
300.0008615
300.0009952
300.0010246
300.0002198
300.0005127
300.0007078
300.0008893
300.0010184
300.0010461
300.0002008
300.0004861
300.0006833
300.0008538
300.0009665
300.0009807
300.0001502
300.0003832
300.0005533
300.0006904
300.0007709
300.0007703
300.0000604
300.0001566
300.0002293
300.0002852
300.0003138
300.0003087
300.0002328
300.0005668
300.0007672
300.0009366
300.001037
300.0010287
300.0002582
300.0006302
300.000846
300.0010132
300.0011092
300.0010976
300.0002567
300.0006348
300.0008569
300.0010194
300.0011086
300.0010941
300.0002197
300.0005596
300.0007779
300.0009345
300.001017
300.0010013
300.0001526
300.0004041
300.0005837
300.0007151
300.0007821
300.0007701
300.0000563
300.0001516
300.0002256
300.0002809
300.000308
300.0003018
300.0002487
300.0006439
300.000875
300.0010264
300.0011009
300.0010767
300.0002611
300.0006821
300.000927
300.0010803
300.0011509
300.0011214
300.0002449
300.0006522
300.0008994
300.0010546
300.0011266
300.0011001
300.0001954
300.0005455
300.0007791
300.0009364
300.0010145
300.0009959
300.0001224
300.0003659
300.0005542
300.0006911
300.0007622
300.0007542
300.0000385
300.00012
300.0001933
300.0002522
300.000285
300.0002858
300.0002288
300.0006321
300.0008747
300.0010205
300.001087
300.0010621
300.0002192
300.0006383
300.0008986
300.0010511
300.0011169
300.0010899
300.0001806
300.000571
300.0008365
300.0009986
300.0010739
300.0010576
300.0001219
300.0004278
300.0006795
300.0008525
300.0009458
300.0009477
300.0000615
300.000241
300.000427
300.0005811
300.0006787
300.0007014
300.0000157
300.0000659
300.0001291
300.0001925
300.0002397
300.0002592
300.0001637
300.0005093
300.00075
300.0008854
300.0009424
300.0009289
300.0001218
300.0004357
300.0006907
300.0008447
300.0009178
300.0009184
300.0000747
300.0003223
300.0005691
300.0007469
300.0008573
300.0008969
300.0000324
300.0001956
300.0004087
300.0006036
300.0007495
300.0008241
300.0000039
300.0000858
300.000231
300.0003966
300.0005384
300.000621
299.9999962
300.000014
300.0000615
300.0001271
300.0001895
300.000231
299.9999981
299.9999993
300.0000018
300.0000145
300.0000012
300.0000031
300.000007
300.0000172
300.0000004
300.0000018
300.0000041
300.0000109
299.9999995
300.0000003
300.0000011
300.0000042
299.999999
299.9999991
299.9999991
300.0000011
299.9999992
299.9999988
299.9999988
300.0000013
300.0000049
300.000008
300.0000141
300.0000313
300.0000083
300.0000131
300.0000193
300.0000319
300.0000061
300.0000091
300.0000118
300.0000198
300.0000032
300.0000039
300.0000039
300.0000073
300.0000015
300.0000009
299.9999999
300.0000035
300.0000014
300.0000001
299.9999999
300.0000063
300.0000339
300.0000371
300.0000425
300.0000522
300.0000408
300.0000453
300.00005
300.0000568
300.000036
300.000037
300.0000372
300.0000417
300.0000315
300.0000281
300.0000247
300.0000257
300.0000273
300.0000211
300.0000164
300.0000206
300.0000248
300.0000162
300.0000127
300.0000229
300.0001156
300.0001153
300.0001176
300.0001696
300.0001656
300.0001612
300.0001601
300.0001518
300.0001408
300.0001517
300.000136
300.0001205
300.0001396
300.0001151
300.0000964
300.0001264
300.0000922
300.0000714
300.000202
300.0002028
300.000208
300.0004052
300.0003979
300.0003914
300.0004422
300.0004252
300.0004049
300.0004337
300.0004052
300.0003722
300.0004069
300.0003574
300.0003066
300.0003657
300.0002926
300.0002256
300.0002464
300.0002521
300.0002725
300.0005736
300.0005764
300.0005939
300.0006785
300.0006681
300.0006676
300.0006818
300.0006512
300.0006283
300.0006506
300.0005895
300.0005297
300.0005853
300.0004926
300.0003968
300.0002633
300.0002753
300.000648
300.0006585
300.0008052
300.000803
300.0008307
300.0008108
300.0008016
300.0007471
300.0007204
300.0006248
300.0008076
300.0007287
300.0008789
300.0008124
300.0009718
300.0009091
300.0010862
300.0010176
300.0011568
300.0010984
300.001148
300.0010998
299.9999995
299.9999992
299.9999996
300.0000039
300.0000001
300.0000001
300.0000007
300.0000066
300.0000009
300.0000006
300.0000012
300.0000077
300.0000006
300.0000002
300.0000014
300.0000084
299.9999999
299.9999997
300.0000008
300.0000082
299.9999996
299.9999992
299.9999996
300.0000056
299.999999
299.9999983
299.9999978
300.0000026
299.9999978
299.9999967
299.999996
300.0000008
299.9999959
299.9999947
299.9999944
299.9999962
300.0000007
300.0000073
300.0000141
300.0000166
300.0000139
300.0000091
300.000011
299.9999936
299.9999932
299.9999938
299.9999953
299.9999972
299.9999998
300.0000015
300.0000019
300.0000007
299.999999
299.999998
300.0000014
299.9999916
299.9999919
299.9999929
299.9999939
299.9999944
299.9999955
299.9999961
299.9999964
299.9999961
299.9999948
299.9999941
299.9999949
299.9999896
299.99999
299.9999909
299.9999917
299.9999916
299.9999918
299.9999924
299.9999926
299.9999922
299.9999917
299.9999918
299.9999925
300.0000014
299.9999999
300.0000008
300.0000123
300.000001
299.9999986
300.0000007
300.0000174
299.9999994
299.9999978
300.0000002
300.0000192
299.9999972
299.9999959
299.9999993
300.0000188
299.999995
299.9999944
299.9999988
300.0000179
299.9999933
299.9999929
299.9999976
300.0000144
299.99999
299.999989
299.9999967
300.000012
299.9999843
299.9999846
299.9999935
300.0000074
299.9999808
299.9999821
299.9999898
299.9999968
300.0000088
300.0000212
300.0000281
300.0000229
300.000013
300.0000016
299.9999966
299.9999795
299.9999808
299.9999874
299.999994
299.9999989
300.0000028
300.0000038
299.9999996
299.9999933
299.9999858
299.9999805
299.9999827
299.999979
299.9999798
299.9999849
299.9999895
299.9999927
299.9999948
299.9999948
299.9999922
299.9999885
299.9999849
299.9999826
299.9999831
299.9999781
299.9999792
299.9999829
299.999986
299.9999873
299.9999879
299.9999875
299.999986
299.9999849
299.9999858
299.9999873
299.9999889
300.0000199
300.0000095
300.000007
300.0000226
300.0000097
299.9999985
299.9999956
300.0000162
299.9999932
299.9999808
299.9999858
300.0000114
299.9999752
299.9999698
299.9999807
300.0000139
299.9999659
299.9999667
299.9999862
300.0000261
299.9999652
299.9999714
299.9999975
300.0000355
299.9999703
299.9999792
300.0000021
300.0000392
299.9999777
299.9999822
299.9999998
300.0000306
299.9999802
299.9999815
299.999994
300.0000109
300.0000376
300.000049
300.00004
300.0000113
299.9999843
299.9999571
299.9999357
299.999981
299.9999802
299.9999906
300.0000055
300.0000188
300.000024
300.0000175
300.0000021
299.999984
299.9999642
299.9999496
299.9999516
299.9999829
299.999981
299.9999893
300.0000022
300.0000129
300.0000169
300.0000124
300.0000046
299.9999995
299.9999971
299.9999946
299.9999941
299.9999857
299.9999857
299.9999935
300.0000041
300.0000107
300.0000116
300.0000074
300.0000037
300.000006
300.0000132
300.0000181
300.0000184
300.0001004
300.0000609
300.0000401
300.0000545
300.0000182
300.0000011
300.0000009
299.9999738
299.9999597
299.9999888
299.9999511
299.9999417
299.9999557
300.0000026
299.9999275
299.999942
299.9999852
300.0000523
299.9999399
299.9999653
300.0000172
300.0001017
299.9999673
299.999987
300.0000394
300.0001297
299.999985
299.9999968
300.0000416
300.0001194
299.9999936
299.9999972
300.0000303
300.0000825
300.0001459
300.0001468
300.0000898
300.0000128
299.9999324
299.9998744
299.9998465
300.0000004
299.9999962
300.0000239
300.0000703
300.0001112
300.0001188
300.0000837