/*--------------------------------*- C++ -*----------------------------------*\
  =========                 |
  \\      /  F ield         | OpenFOAM: The Open Source CFD Toolbox
   \\    /   O peration     | Website:  https://openfoam.org
    \\  /    A nd           | Version:  7
     \\/     M anipulation  |
\*---------------------------------------------------------------------------*/
FoamFile
{
    version     2.0;
    format      ascii;
    class       volScalarField;
    location    "0.00012";
    object      Uy;
}
// * * * * * * * * * * * * * * * * * * * * * * * * * * * * * * * * * * * * * //

dimensions      [0 1 -1 0 0 0 0];

internalField   nonuniform List<scalar> 
5000
(
0
-2.026588e-28
0
0
-2.026588e-28
2.8799547e-43
5.06647e-29
0
0
5.06647e-29
-1.3470734e-42
1.013294e-28
1.519941e-28
-4.4864183e-43
0
1.013294e-28
1.7180877e-69
-1.013294e-28
0
-2.533235e-28
1.013294e-28
-1.013294e-28
3.039882e-28
-1.013294e-28
-1.013294e-28
-1.6703738e-42
1.519941e-28
-4.2764235e-43
1.013294e-28
-2.6351586e-42
3.5423443e-42
9.3486169e-43
3.039882e-28
3.039882e-28
-5.2703172e-42
1.7625323e-41
1.0540634e-41
-6.079764e-28
1.013294e-28
-1.4488191e-42
-1.013294e-28
-3.4847452e-42
2.026588e-28
-5.06647e-29
0
1.519941e-28
-5.06647e-29
-1.0411036e-41
2.6578006e-42
0
1.519941e-28
1.4399774e-44
4.869958e-43
1.013294e-28
-1.0627033e-41
-5.06647e-28
-5.06647e-29
6.99829e-42
1.519941e-28
0
3.5280494e-43
-1.7279728e-42
-1.4399774e-44
-1.013294e-28
1.519941e-28
3.5423443e-42
1.013294e-28
1.013294e-28
-5.06647e-29
3.039882e-28
3.039882e-28
-5.06647e-29
1.519941e-28
-4.053176e-28
-5.06647e-29
-2.0297173e-42
0
-2.533235e-28
3.5999434e-44
1.013294e-28
1.013294e-28
-8.6398642e-44
1.0079842e-43
1.519941e-28
-1.013294e-28
-8.8198614e-42
2.533235e-28
0
5.06647e-29
-6.6544939e-57
1.7711722e-42
-1.519941e-28
-3.039882e-28
7.093058e-28
1.0519035e-41
5.06647e-29
0
0
-1.519941e-28
-3.5135448e-42
-1.013294e-28
5.06647e-29
5.06647e-28
0
-3.546529e-28
-2.533235e-28
1.013294e-28
-5.06647e-29
0
0
5.06647e-29
5.06647e-29
0
2.533235e-28
-1.0627033e-41
-2.533235e-28
3.039882e-28
-7.1998869e-44
1.7711722e-42
-4.8788331e-57
1.013294e-28
-6.4798982e-44
-2.533235e-28
0
1.519941e-28
-2.026588e-28
5.06647e-29
-4.053176e-28
-2.533235e-28
4.053176e-28
1.013294e-28
-1.519941e-28
-2.026588e-28
-1.519941e-28
0
2.533235e-28
1.519941e-28
1.5069606e-42
7.0270896e-42
1.0545887e-41
-1.519941e-28
-5.06647e-29
0
-3.7600849e-42
5.06647e-29
1.013294e-28
2.0423535e-43
2.8799547e-44
1.013294e-28
4.4902447e-43
-1.0691059e-43
-3.5279446e-42
-2.026588e-28
1.519941e-28
-1.013294e-28
-3.9204508e-42
-1.519941e-28
0
0
-3.039882e-28
-4.559823e-28
2.533235e-28
1.013294e-28
-5.06647e-29
3.5135448e-42
-2.533235e-28
1.519941e-28
5.06647e-29
0
-5.06647e-29
5.06647e-29
0
1.519941e-28
2.026588e-28
0
5.06647e-29
-1.0540634e-41
-9.621953e-44
-1.013294e-28
1.519941e-28
-2.533235e-28
-6.99829e-42
-3.4847452e-42
-2.1599661e-44
1.519941e-28
-9.9947453e-42
2.8108358e-41
-1.7423726e-41
6.9694905e-42
-1.519941e-28
0
0
2.533235e-28
5.06647e-29
0
0
5.06647e-29
4.9918161e-70
1.013294e-28
0
-1.519941e-28
-1.013294e-28
-5.6159118e-41
1.013294e-28
5.06647e-29
-2.1038069e-41
-1.4399774e-44
-5.06647e-29
1.013294e-28
-1.4399774e-44
-1.402538e-41
3.5063449e-42
-1.013294e-28
0
2.533235e-28
2.6329146e-55
3.8656388e-54
3.039882e-28
0
-6.4146353e-44
3.2073177e-43
0
0
0
-5.06647e-29
-3.2243823e-55
-1.013294e-28
0
0
1.519941e-28
3.546529e-28
-1.519941e-28
5.06647e-29
0
1.519941e-28
2.026588e-28
-2.026588e-28
-2.026588e-28
0
3.039882e-28
-9.8480053e-41
-2.4594814e-41
2.533235e-28
-1.519941e-28
-3.039882e-28
0
3.039882e-28
7.0414894e-42
-2.533235e-28
-2.1081269e-41
-1.5011692e-42
1.013294e-28
1.4054179e-41
7.0357295e-41
1.402538e-41
1.013294e-28
5.06647e-29
5.06647e-29
0
7.006999e-42
1.519941e-28
0
-7.0305916e-42
5.06647e-29
-2.026588e-28
-1.013294e-28
9.621953e-44
-5.06647e-29
-5.6216717e-41
3.039882e-28
-3.546529e-28
2.8108358e-41
4.053176e-28
-5.06647e-28
3.1686702e-41
-1.4111778e-41
-1.4399774e-44
-6.99829e-42
-5.06647e-29
0
0
-1.013294e-28
-5.06647e-29
0
0
0
0
1.013294e-28
-6.9838903e-42
1.3966069e-41
4.3199321e-44
1.519941e-28
1.519941e-28
-7.0342895e-42
2.1059669e-41
1.4399774e-44
-1.519941e-28
-1.519941e-28
-5.06647e-29
-1.013294e-28
1.519941e-28
-2.533235e-28
-6.079764e-28
0
3.039882e-28
3.039882e-28
-2.533235e-28
-2.8799547e-44
6.4798982e-44
1.4399774e-44
5.06647e-29
0
5.06647e-29
2.026588e-28
-1.519941e-28
-9.7576662e-57
-5.06647e-29
-5.6159118e-41
4.053176e-28
0
0
-1.013294e-28
0
3.039882e-28
0
5.06647e-29
1.519941e-28
6.9878274e-42
-4.7675116e-60
-7.0342895e-42
-1.4399774e-44
-2.026588e-28
5.06647e-29
-1.013294e-28
0
-1.013294e-28
2.8137158e-41
3.039882e-28
-4.053176e-28
1.4054179e-41
1.519941e-28
4.2205737e-41
2.026588e-28
-1.013294e-28
1.013294e-28
-2.026588e-28
-2.8799547e-44
-5.06647e-29
0
0
-1.519941e-28
1.4054179e-41
-3.039882e-28
1.4399774e-44
1.519941e-28
-5.06647e-29
2.026588e-28
-6.079764e-28
1.519941e-28
-1.013294e-28
-4.053176e-28
2.533235e-28
2.026588e-28
3.546529e-28
-2.026588e-28
5.8545997e-56
3.039882e-28
-6.5874653e-42
1.013294e-28
-2.026588e-28
-2.8079559e-41
-5.5533026e-59
3.039882e-28
-8.106352e-28
3.039882e-28
7.0342895e-41
-5.6216717e-41
-1.013294e-28
-2.026588e-28
7.599705e-28
2.8108358e-41
5.6216717e-41
-4.2119338e-41
2.026588e-28
-1.013294e-28
-1.4054179e-41
-5.06647e-28
0
0
-1.519941e-28
2.1081269e-41
5.06647e-29
-1.013294e-28
1.519941e-28
9.119646e-28
-3.039882e-28
-3.039882e-28
-7.1998869e-44
5.06647e-29
0
-4.053176e-28
-6.079764e-28
2.533235e-28
2.026588e-28
-1.519941e-28
5.06647e-28
3.039882e-28
-4.053176e-28
-5.06647e-28
0
1.3954273e-41
-5.06647e-29
-5.06647e-28
1.519941e-28
1.519941e-28
-3.5999434e-44
2.1102868e-41
2.026588e-28
-2.533235e-28
-1.013294e-28
-1.519941e-28
3.5135448e-41
4.3199321e-44
4.9189627e-41
3.039882e-28
-1.519941e-28
2.1102868e-41
1.4068579e-41
2.8122758e-41
1.519941e-28
-2.533235e-28
3.5171447e-41
1.4046979e-41
8.7810685e-56
-1.4084776e-41
-5.06647e-29
1.013294e-28
1.013294e-28
-7.0342895e-42
-1.013294e-28
1.013294e-28
-1.013294e-28
-5.06647e-29
5.06647e-29
5.06647e-29
4.2184137e-41
-2.026588e-28
0
0
5.06647e-29
0
-5.06647e-29
0
9.115745e-60
6.527785e-56
0
1.013294e-28
-1.519941e-28
-1.519941e-28
1.013294e-28
-5.06647e-29
-5.06647e-29
0
0
5.06647e-29
1.4075779e-41
-2.8338398e-41
0
0
2.1097673e-41
-4.2220137e-41
1.013294e-28
0
0
0
0
0
0
0
0
-1.013294e-28
4.74748e-56
5.06647e-29
1.013294e-28
-1.013294e-28
6.9509613e-42
2.0953367e-54
-6.3629531e-42
1.4068579e-41
1.013294e-28
0
0
-5.06647e-29
-1.4068579e-41
2.026588e-28
0
0
0
0
0
0
0
-2.026588e-28
4.2176937e-41
-2.026588e-28
2.026588e-28
2.1599661e-44
-5.06647e-29
2.8093959e-41
3.039882e-28
1.013294e-28
-4.8788331e-57
4.559823e-28
0
1.013294e-28
0
0
-1.013294e-28
1.4054179e-41
-2.5658541e-43
1.7807781e-56
1.013294e-28
-2.026588e-28
2.026588e-28
-1.387833e-41
5.6216717e-41
-2.026588e-28
1.519941e-28
0
-5.06647e-29
-5.06647e-29
-3.039882e-28
1.013294e-28
-1.013294e-28
-2.026588e-28
-2.026588e-28
2.026588e-28
8.5528471e-44
-5.06647e-29
0
5.06647e-29
6.4146353e-43
-1.0691059e-44
1.519941e-28
1.94982e-56
2.8079602e-41
1.013294e-28
1.4068579e-41
1.519941e-28
-2.8799547e-44
-2.026588e-28
3.039882e-28
0
-4.2205737e-41
-3.5999434e-44
-1.013294e-28
7.0246935e-42
-2.8137158e-41
-2.1081269e-41
1.5192908e-59
-1.013294e-28
2.533235e-28
-5.0877052e-72
-5.6274316e-41
-2.8799547e-44
-4.053176e-28
-2.1081269e-41
5.06647e-29
0
0
1.519941e-28
2.1081269e-41
5.06647e-29
-5.06647e-29
7.0342895e-42
-6.5888737e-71
-1.4068579e-41
1.4253622e-41
-1.519941e-28
-2.8108358e-41
2.026588e-28
0
0
-7.1161201e-42
2.533235e-28
-2.9523856e-40
-2.533235e-28
5.06647e-29
0
1.013294e-28
-8.5528471e-44
-1.013294e-28
-2.533235e-28
0
2.026588e-28
7.2112344e-42
3.039882e-28
2.026588e-28
-1.519941e-28
-1.519941e-28
-2.8108358e-41
-5.06647e-29
1.4068579e-41
8.5528471e-44
0
0
0
-1.519941e-28
-5.06647e-29
0
2.026588e-28
1.4039779e-41
5.06647e-29
0
0
-1.013294e-28
-3.5135448e-41
2.1059669e-41
-1.519941e-28
3.039882e-28
-1.2648761e-40
-2.026588e-28
0
1.013294e-28
2.1102868e-41
1.1796295e-44
-1.4061183e-41
-1.013294e-28
-1.519941e-28
1.013294e-28
0
5.06647e-29
1.519941e-28
5.06647e-29
2.533235e-28
0
-1.519941e-28
1.519941e-28
-1.6036588e-43
1.519941e-28
4.053176e-28
2.8137158e-41
6.079764e-28
4.8788331e-57
-5.06647e-29
-1.013294e-28
2.8108358e-41
-1.7105694e-43
1.013294e-28
-1.013294e-28
5.06647e-29
1.519941e-28
-2.026588e-28
0
0
4.053176e-28
1.0900329e-68
-1.013294e-28
0
0
8.5528471e-44
7.806133e-56
4.053176e-28
0
0
-3.039882e-28
-1.013294e-28
-2.8122366e-41
1.013294e-28
0
-8.106352e-28
1.6882295e-40
5.06647e-28
-1.519941e-28
0
1.519941e-28
1.013294e-28
-4.3199321e-44
-3.039882e-28
1.519941e-28
-1.3898376e-43
-2.026588e-28
2.533235e-28
1.519941e-28
-7.0342895e-41
-2.026588e-28
5.06647e-29
1.4068579e-41
-1.013294e-28
-2.8250659e-41
2.5658541e-43
1.013294e-28
-2.026588e-28
-5.06647e-29
-2.8137158e-41
-1.013294e-28
5.06647e-29
-1.4399774e-44
1.013294e-28
-3.039882e-28
1.013294e-28
-1.013294e-28
1.013294e-28
-5.6705554e-41
-7.6699869e-54
2.8157755e-41
-2.026588e-28
2.1599661e-44
-1.013294e-28
-4.3199321e-44
3.039882e-28
0
5.06647e-29
0
-8.5528471e-44
0
0
0
-1.519941e-28
-4.8788331e-57
1.519941e-28
0
-1.7105694e-43
2.8137158e-41
1.013294e-28
0
0
0
-5.5839578e-41
4.2205737e-41
1.013294e-28
0
-5.06647e-29
2.8122758e-41
-1.519941e-28
0
1.013294e-28
-1.013294e-28
1.1260623e-40
2.026588e-28
-2.026588e-28
0
-1.417768e-41
-1.4068579e-41
-5.06647e-29
0
-2.026588e-28
2.026588e-28
2.2509726e-40
-3.039882e-28
-5.6259916e-41
-2.8799547e-44
-3.9421195e-54
1.4399774e-44
5.06647e-29
0
-2.533235e-28
5.6245516e-41
7.0306895e-41
-4.8788331e-57
5.6274316e-41
0
-1.013294e-28
-4.1071062e-54
-5.06647e-29
-1.013294e-28
2.8122758e-41
-6.4146353e-44
-5.06647e-29
-1.4068579e-41
2.8137158e-41
-1.013294e-28
5.06647e-29
5.06647e-29
0
-5.06647e-29
1.4068579e-41
5.06647e-29
0
0
0
1.013294e-28
5.6274316e-41
-2.8157755e-41
0
0
0
0
0
0
0
-4.053176e-28
1.1260623e-40
1.013294e-28
5.0727268e-43
-1.013294e-28
-5.06647e-29
-5.0493631e-56
-2.8108358e-41
1.013294e-28
-1.519941e-28
-5.06647e-29
-1.013294e-28
5.06647e-29
1.013294e-28
3.1267897e-53
2.533235e-28
2.026588e-28
-4.2162538e-41
-1.013294e-28
5.06647e-29
1.4055285e-41
3.039882e-28
-4.559823e-28
3.546529e-28
0
3.039882e-28
3.039882e-28
-4.2162538e-41
-2.8140061e-41
-1.013294e-28
0
-1.519941e-28
2.026588e-28
-2.533235e-28
-5.6274316e-41
5.06647e-29
1.013294e-28
1.4399774e-44
2.026588e-28
3.1252608e-53
1.519941e-28
1.013294e-28
0
1.7105694e-43
0
0
0
1.519941e-28
-2.811057e-41
2.026588e-28
4.053176e-28
0
-2.533235e-28
5.6303115e-41
1.519941e-28
0
0
5.06647e-29
-8.4368274e-41
-2.026588e-28
0
0
3.039882e-28
-1.1249103e-40
-1.013294e-28
0
-1.519941e-28
5.6274316e-41
-2.8122758e-41
4.2205737e-41
3.039882e-28
0
-1.519941e-28
1.1246223e-40
-7.3732176e-44
0
-5.06647e-29
-1.013294e-28
-2.533235e-28
2.026588e-28
-2.8165957e-41
-2.026588e-28
8.4411474e-41
2.026588e-28
0
0
1.013294e-28
-5.6245516e-41
-3.546529e-28
0
-5.06647e-29
-1.013294e-28
-5.06647e-29
-1.013294e-28
0
-1.013294e-28
2.026588e-28
1.1249103e-40
-5.6245516e-41
1.013294e-28
-3.5131022e-53
-1.519941e-28
2.026588e-28
7.8347773e-54
-1.4068579e-40
-2.026588e-28
-8.4325075e-41
-4.559823e-28
0
0
0
5.5363645e-41
3.039882e-28
-8.106352e-28
-4.053176e-28
0
0
-4.053176e-28
1.9515332e-56
3.546529e-28
0
4.053176e-28
1.519941e-28
-2.026588e-28
5.06647e-29
0
-1.013294e-28
1.4399774e-44
-4.559823e-28
-8.116237e-54
-3.2736318e-43
-2.026588e-28
-5.7599095e-44
5.06647e-29
-2.8151558e-41
5.6216717e-41
3.039882e-28
0
3.039882e-28
-1.1251983e-40
1.013294e-28
-5.06647e-29
7.0219129e-53
1.519941e-28
-4.053176e-28
2.1599661e-44
5.06647e-29
0
0
0
-5.06647e-29
1.519941e-28
2.026588e-28
-1.519941e-28
-2.8137158e-41
-3.2985311e-69
-1.013294e-28
0
5.06647e-29
1.4399774e-44
2.811057e-41
2.533235e-28
1.4054179e-40
-1.013294e-28
-1.013294e-28
8.4454673e-41
4.053176e-28
0
-1.3529609e-43
1.519941e-28
0
-5.06647e-29
5.06647e-29
-1.013294e-28
0
1.519941e-28
0
0
-1.013294e-28
-3.5136386e-53
-2.026588e-28
0
0
-5.06647e-29
-1.013294e-28
4.053176e-28
2.533235e-28
1.0683922e-55
1.013294e-28
-4.053176e-28
-3.039882e-28
8.4454673e-41
2.026588e-28
-1.4054179e-40
-1.6865015e-40
3.039882e-28
-5.06647e-29
-1.519941e-28
-5.06647e-29
1.4952179e-58
-3.039882e-28
7.093058e-28
2.026588e-28
2.026588e-28
-3.039882e-28
7.26992e-43
-1.013294e-28
-5.06647e-29
2.026588e-28
-2.8137158e-41
0
-1.7105694e-43
2.8122758e-41
-1.4075779e-41
1.013294e-28
0
0
5.06647e-29
1.519941e-28
0
-1.013294e-28
1.7694442e-44
0
5.06647e-29
-1.4068579e-41
-1.519941e-28
1.013294e-28
-4.2162538e-41
-5.06647e-29
0
5.06647e-29
8.4389874e-41
-2.026588e-28
1.519941e-28
-2.8093959e-41
4.7040659e-43
0
-1.4061379e-41
1.013294e-28
0
-2.026588e-28
1.519941e-28
2.8799547e-44
-8.4411474e-41
-5.06647e-29
1.013294e-28
0
2.026588e-28
-1.1249103e-40
-2.026588e-28
-2.2498207e-40
-7.093058e-28
5.06647e-28
7.093058e-28
-8.106352e-28
-3.039882e-28
-1.013294e-28
0
0
-2.026588e-28
2.1599661e-44
-1.013294e-28
1.013294e-28
-5.06647e-29
-1.013294e-28
5.06647e-28
8.4343507e-41
2.5314802e-40
-2.026588e-28
1.013294e-28
-2.8122758e-41
0
5.06647e-29
1.519941e-28
-5.06647e-29
5.6216717e-41
4.053176e-28
-2.7994074e-41
1.013294e-28
3.039882e-28
7.0306895e-41
1.519941e-28
-1.1254863e-40
-2.533235e-28
7.8855706e-54
5.8545997e-56
-5.06647e-29
2.026588e-28
-1.519941e-28
-1.3172849e-55
1.519941e-28
2.5319122e-40
-1.519941e-28
5.456053e-44
8.4368274e-41
1.013294e-28
4.8788331e-57
1.519941e-28
0
0
2.533235e-28
-2.533235e-28
-5.06647e-28
0
0
0
-5.06647e-29
5.06647e-29
0
1.013294e-28
-2.026588e-28
-1.6876535e-40
-2.8039048e-41
0
0
0
-2.533235e-28
-1.519941e-28
1.519941e-28
-1.519941e-28
-2.8137158e-41
3.039882e-28
0
0
-1.013294e-28
2.8799547e-44
-5.06647e-29
-2.8122366e-41
2.026588e-28
-2.026588e-28
1.1254863e-40
4.053176e-28
0
0
-2.026588e-28
-2.026588e-28
0
0
2.533235e-28
1.013294e-28
0
1.013294e-28
5.06647e-29
-5.06647e-29
-1.013294e-28
-3.039882e-28
3.039882e-28
2.026588e-28
-5.6274316e-41
-1.013294e-28
-1.4164406e-41
-4.2184137e-41
2.533235e-28
0
4.559823e-28
-1.4064979e-40
5.06647e-29
-5.06647e-29
5.6259916e-41
1.519941e-28
0
5.06647e-29
-1.4068579e-41
7.1998869e-45
1.4478135e-41
-5.06647e-29
-5.06647e-29
0
2.026588e-28
1.1254863e-40
1.013294e-28
7.1998869e-45
1.013294e-28
2.026588e-28
4.053176e-28
-1.013294e-28
5.06647e-29
0
-4.053176e-28
2.5306162e-40
1.7105694e-43
0
-1.013294e-28
8.4411474e-41
-3.039882e-28
-8.4411474e-41
-5.06647e-28
6.079764e-28
1.0123617e-39
-6.079764e-28
6.079764e-28
-2.8115558e-40
-5.06647e-28
-5.06647e-29
4.053176e-28
5.06647e-29
2.026588e-28
-1.013294e-28
-2.5309042e-40
1.0263416e-42
1.013294e-28
-3.8593026e-56
-5.06647e-29
-3.1198965e-53
3.039882e-28
-8.4368274e-41
1.013294e-28
1.3804598e-41
-1.013294e-28
5.6303714e-41
5.6259916e-41
-1.013294e-28
-1.6882295e-40
5.06647e-29
1.013294e-28
8.4382674e-41
-3.9376901e-40
2.2486687e-40
2.026588e-28
0
-5.06647e-29
-1.519941e-28
0
0
0
0
0
5.06647e-29
2.026588e-28
0
-3.039882e-28
2.533235e-28
8.4397074e-41
2.026588e-28
0
0
0
5.5593506e-43
5.06647e-29
5.06647e-29
-2.026588e-28
1.013294e-28
-4.2205737e-40
4.053176e-28
0
2.026588e-28
8.4397074e-41
2.026588e-28
-3.546529e-28
3.546529e-28
-2.533235e-28
-5.6245516e-41
0
0
0
1.519941e-28
-5.06647e-29
0
-1.519941e-28
-4.3199321e-44
5.06647e-29
-5.06647e-29
1.519941e-28
0
4.053176e-28
5.06647e-28
0
-4.559823e-28
0
2.026588e-28
-1.519941e-28
-5.06647e-29
1.519941e-28
1.013294e-28
2.1599661e-44
0
1.519941e-28
1.519941e-28
1.519941e-28
-9.7576662e-57
2.533235e-28
2.533235e-28
-2.026588e-28
0
-1.124467e-40
5.06647e-28
0
-2.533235e-28
-5.06647e-28
-1.4057779e-40
-1.013294e-28
2.026588e-28
-3.039882e-28
-3.039882e-28
-3.039882e-28
-3.039882e-28
0
-2.8143749e-41
-1.519941e-28
2.026588e-28
-2.9235515e-67
-3.039882e-28
-1.013294e-28
-1.013294e-28
-5.06647e-29
-1.013294e-28
-1.013294e-28
-1.013294e-28
2.1382118e-44
-5.06647e-29
-5.06647e-29
3.039882e-28
2.026588e-28
-9.119646e-28
-2.533235e-28
1.519941e-28
4.053176e-28
-1.013294e-28
-1.0691059e-43
2.5306162e-40
-4.2191337e-40
-4.559823e-28
1.013294e-28
-1.013294e-28
-4.053176e-28
1.519941e-28
-4.053176e-28
-2.8799547e-44
-1.519941e-28
2.026588e-28
7.599705e-28
-1.0639587e-27
-3.039882e-28
4.559823e-28
0
3.039882e-28
1.013294e-28
-1.519941e-28
1.519941e-28
1.013294e-28
-2.8122758e-41
-1.6871495e-40
-2.533235e-28
0
-2.026588e-28
-2.026588e-28
1.519941e-28
2.026588e-28
3.039882e-28
-1.519941e-28
-1.013294e-28
2.026588e-28
0
3.039882e-28
-5.622114e-41
1.519941e-28
2.026588e-28
4.6131893e-68
-5.06647e-29
3.039882e-28
-2.533235e-28
6.749462e-40
5.06647e-28
-2.026588e-28
0
-1.013294e-28
0
2.2501086e-40
-2.7796753e-43
1.013294e-28
-1.519941e-28
2.8799547e-44
4.053176e-28
0
1.013294e-28
-1.519941e-28
1.013294e-28
-5.6252716e-41
-2.533235e-28
2.026588e-28
5.06647e-29
-1.6870775e-40
-2.026588e-28
1.013294e-28
-1.519941e-28
1.013294e-28
-3.039882e-28
0
8.4367099e-41
-2.026588e-28
7.599705e-28
3.039882e-28
-1.013294e-28
-5.6608229e-41
-1.9243906e-43
1.519941e-28
-1.013294e-28
-5.06647e-29
-3.039882e-28
5.06647e-29
5.7599095e-44
-5.06647e-28
2.026588e-28
-3.039882e-28
-1.013294e-28
-3.375307e-40
3.039882e-28
0
3.039882e-28
3.039882e-28
-1.013294e-28
-1.013294e-28
-5.06647e-29
0
2.533235e-28
-1.9685931e-40
-1.013294e-28
-5.6231116e-41
1.013294e-28
0
5.06647e-29
6.4146353e-43
1.519941e-28
-4.053176e-28
-6.079764e-28
-5.6357542e-41
-5.06647e-29
3.039882e-28
-4.053176e-28
3.546529e-28
-9.7324765e-44
2.026588e-28
-1.013294e-28
-1.519941e-28
7.599705e-28
6.079764e-28
-1.519941e-28
0
2.2498207e-40
-3.374731e-40
1.013294e-28
2.8122758e-40
5.06647e-29
2.026588e-28
1.519941e-28
-5.06647e-29
5.06647e-29
0
-4.559823e-28
3.546529e-28
6.079764e-28
-6.079764e-28
-5.7599095e-44
2.026588e-28
-2.026588e-28
5.06647e-29
0
-1.013294e-28
-2.533235e-28
-9.119646e-28
3.546529e-28
-6.749462e-40
-3.039882e-28
-2.785509e-41
5.06647e-29
1.013294e-28
1.013294e-28
2.533235e-28
-1.0639587e-27
2.533235e-28
2.026588e-28
2.5314802e-40
1.013294e-28
-2.026588e-28
-4.559823e-28
-2.8115558e-41
5.6245516e-41
-7.8039896e-56
-1.013294e-28
0
-1.013294e-28
6.079764e-28
-2.2498207e-40
-4.053176e-28
0
0
-2.7796753e-43
-2.8122758e-41
2.8115558e-41
1.519941e-28
2.2495534e-40
1.519941e-28
1.6869335e-40
-1.519941e-28
1.6875779e-40
1.013294e-28
0
0
0
-7.599705e-28
-2.026588e-28
1.519941e-28
-1.6877975e-40
-1.013294e-28
0
0
-2.026588e-28
-1.2541491e-52
-1.1246223e-40
5.06647e-28
-2.533235e-28
-2.4478912e-43
-1.013294e-28
1.013294e-28
-6.7353671e-43
-1.013294e-28
0
0
0
-3.039882e-28
3.039882e-28
-1.519941e-28
2.5013324e-52
-5.6395513e-41
1.4399774e-44
-2.7796753e-43
1.013294e-28
-1.1249103e-40
-1.013294e-28
-2.026588e-28
0
8.4389874e-41
1.013294e-28
2.026588e-28
-4.559823e-28
-5.06647e-28
3.546529e-28
1.4057779e-40
-2.026588e-28
1.0639587e-27
5.06647e-28
-5.06647e-29
1.519941e-28
-2.533235e-28
-1.013294e-28
3.039882e-28
4.053176e-28
-5.6245516e-41
-2.8115558e-41
-5.06647e-29
0
-5.06647e-29
-3.039882e-28
-9.119646e-28
6.079764e-28
3.039882e-28
-1.013294e-28
1.1247663e-40
-3.039882e-28
2.533235e-28
-5.06647e-29
-1.013294e-28
-1.1237813e-40
1.013294e-28
-1.013294e-28
1.013294e-28
2.026588e-28
-5.06647e-29
4.053176e-28
3.1104064e-53
-2.026588e-28
-5.06647e-29
4.559823e-28
-3.039882e-28
-2.026588e-28
7.599705e-28
-1.4399774e-44
4.559823e-28
3.039882e-28
-1.0639587e-27
3.546529e-28
1.5807419e-54
2.5306162e-40
2.026588e-28
1.013294e-28
-1.0809022e-42
-2.6095858e-41
5.6245516e-41
-1.013294e-28
1.013294e-28
3.039882e-28
1.519941e-28
-5.06647e-29
0
5.06647e-29
-1.013294e-28
7.1998869e-45
1.519941e-28
-2.7871679e-41
4.053176e-28
-1.4399774e-44
-5.6232937e-41
4.053176e-28
-2.5314802e-40
3.039882e-28
-9.119646e-28
-4.053176e-28
0
0
2.4478912e-43
-4.559823e-28
-2.026588e-28
4.559823e-28
-2.2498207e-40
-8.106352e-28
7.093058e-28
2.026588e-28
-5.3455294e-44
0
-1.013294e-28
-2.026588e-28
4.559823e-28
-2.8555907e-41
1.4081629e-52
-8.4325075e-41
-1.519941e-28
5.06647e-29
-2.026588e-28
-9.119646e-28
0
4.559823e-28
4.053176e-28
-1.519941e-28
1.4399774e-44
1.013294e-28
-2.026588e-28
1.013294e-28
-5.06647e-29
-1.6873655e-40
-5.06647e-29
-1.013294e-28
-1.519941e-28
-2.026588e-28
-1.013294e-28
-3.7989564e-55
1.0691059e-43
1.013294e-28
-3.039882e-28
1.519941e-28
0
4.559823e-28
-1.1272467e-40
4.559823e-28
-1.1251983e-40
-1.519941e-28
1.519941e-28
1.013294e-28
-1.1243343e-40
-4.053176e-28
5.6245516e-41
5.6126026e-41
1.1247663e-40
1.1247663e-40
-1.687342e-40
-1.519941e-28
2.026588e-28
-1.1251983e-40
0
-5.06647e-29
-1.013294e-28
-4.053176e-28
4.559823e-28
1.013294e-28
-3.039882e-28
-5.6244733e-41
-3.5624424e-59
-1.519941e-28
-1.7105694e-43
5.06647e-29
3.039882e-28
-1.6875095e-40
1.013294e-28
5.06647e-29
1.013294e-28
-1.519941e-28
4.559823e-28
5.06647e-29
0
1.2829271e-43
-1.013294e-28
5.6245516e-41
-1.519941e-28
1.519941e-28
-1.6876535e-40
1.519941e-28
-1.519941e-28
-1.9243906e-43
0
0
0
5.06647e-29
1.519941e-28
2.026588e-28
1.1249103e-40
-5.06647e-29
4.559823e-28
1.013294e-28
-1.519941e-28
2.5295383e-40
2.026588e-28
-1.013294e-28
5.06647e-29
-1.013294e-28
5.0620965e-40
2.026588e-28
1.519941e-28
-2.026588e-28
0
-1.013294e-28
-2.2498207e-40
5.06647e-29
1.519941e-28
5.06647e-29
-5.06647e-29
0
0
-5.06647e-29
3.039882e-28
-2.2498207e-40
-1.013294e-28
-1.013294e-28
5.06647e-29
2.8180615e-41
2.8186513e-41
5.2691398e-55
1.6876535e-40
-4.559823e-28
0
0
1.013294e-28
-3.8487812e-43
-1.013294e-28
5.6238316e-41
-1.519941e-28
0
1.7105694e-43
0
-3.039882e-28
-1.519941e-28
2.026588e-28
-2.533235e-28
-3.546529e-28
4.559823e-28
5.1317082e-43
-1.6873655e-40
-4.053176e-28
6.079764e-28
2.2557026e-40
0
0
0
-3.039882e-28
-2.026588e-28
-1.519941e-28
2.026588e-28
0
-2.026588e-28
1.1249103e-40
2.026588e-28
-3.039882e-28
5.06647e-29
-1.013294e-28
-2.533235e-28
4.559823e-28
4.2764235e-44
4.053176e-28
-3.546529e-28
2.026588e-28
1.013294e-28
4.559823e-28
0
1.519941e-28
-5.6244733e-41
5.06647e-29
-5.06647e-29
5.6245516e-41
-5.06647e-29
3.375307e-40
5.06647e-29
-5.6259916e-41
-3.9030665e-56
-1.013294e-28
0
1.013294e-28
1.013294e-28
9.119646e-28
-3.039882e-28
4.559823e-28
0
-3.039882e-28
-1.013294e-28
3.039882e-28
-2.026588e-28
-1.519941e-28
4.559823e-28
-2.026588e-28
2.026588e-28
-1.519941e-28
-1.013294e-28
0
-2.5658541e-43
-1.013294e-28
-8.4368274e-41
5.5700594e-41
2.8799547e-44
-1.519941e-28
3.039882e-28
7.599705e-28
1.013294e-28
2.3592589e-44
-1.013294e-28
1.9243906e-43
-4.273279e-55
3.039882e-28
2.026588e-28
-5.6245516e-41
-5.6589057e-41
-1.1249103e-40
2.026588e-28
1.519941e-28
3.039882e-28
3.039882e-28
2.2498207e-40
-7.0560988e-43
7.12122e-55
1.519941e-28
-1.013294e-28
-1.8999644e-55
1.1257743e-40
-2.5045001e-52
-3.039882e-28
1.0639587e-27
-2.026588e-28
-3.374155e-40
-6.749462e-40
1.519941e-28
-1.519941e-28
-1.013294e-28
5.6245516e-41
5.06647e-29
3.039882e-28
-6.079764e-28
-3.039882e-28
1.6871495e-40
3.039882e-28
0
-1.013294e-28
2.026588e-28
-5.06647e-29
-1.013294e-28
1.5689019e-53
8.4368274e-41
-1.519941e-28
2.026588e-28
-5.06647e-29
3.375307e-40
3.374731e-40
-1.519941e-28
2.026588e-28
-4.3199321e-44
-2.026588e-28
2.026588e-28
1.2159528e-27
3.546529e-28
-3.039882e-28
-5.6245516e-41
5.06647e-29
-2.026588e-28
-5.6330261e-41
-1.0125921e-39
1.519941e-28
1.013294e-28
-1.013294e-28
-2.026588e-28
2.026588e-28
4.559823e-28
0
0
-1.013294e-28
-2.8799547e-44
4.053176e-28
-5.06647e-29
1.519941e-28
-5.06647e-29
1.519941e-28
-1.4399774e-44
-1.1249103e-40
-1.1224468e-40
-3.039882e-28
-4.2223744e-52
-1.013294e-28
-5.06647e-29
-1.013294e-28
-5.6274316e-41
-1.013294e-28
2.026588e-28
-4.053176e-28
1.6873655e-40
2.2461323e-40
-3.039882e-28
1.013294e-28
-5.06647e-29
-1.519941e-28
-1.013294e-28
1.013294e-28
0
-2.026588e-28
1.519941e-28
6.079764e-28
1.6873655e-40
-2.026588e-28
-1.7105694e-43
0
1.013294e-28
2.8238863e-41
-1.519941e-28
-1.013294e-28
8.4518985e-41
2.8178363e-52
-4.5002173e-40
-3.039882e-28
-2.026588e-28
-1.013294e-28
5.06647e-29
5.6288716e-41
1.013294e-28
-2.026588e-28
-1.0691059e-43
-4.559823e-28
0
1.519941e-28
3.1507816e-53
5.7599095e-44
-4.559823e-28
2.8021354e-41
-3.039882e-28
1.519941e-28
1.053828e-54
-1.519941e-28
2.026588e-28
7.599705e-28
1.013294e-28
0
5.06647e-29
5.06647e-29
-3.374731e-40
1.013294e-28
-3.039882e-28
1.1254863e-40
-1.3500652e-39
6.079764e-28
-2.026588e-28
3.1342998e-53
5.06647e-29
1.6036588e-42
2.026588e-28
0
0
3.039882e-28
-1.1249103e-40
6.2441976e-55
6.4012603e-53
2.533235e-28
4.053176e-28
-3.546529e-28
-1.013294e-28
-1.013294e-28
1.013294e-28
1.6873655e-40
2.026588e-28
2.026588e-28
5.0620965e-40
-2.2498207e-40
1.519941e-28
5.6256529e-41
-5.06647e-29
-1.1249103e-40
-2.026588e-28
0
2.026588e-28
1.013294e-28
1.1303582e-40
1.013294e-28
-2.8128265e-41
-8.4382674e-41
-1.013294e-28
0
0
1.6889346e-40
-1.1248947e-40
0
1.7105694e-43
-5.06647e-29
5.06647e-29
-1.2829271e-43
-1.519941e-28
0
2.026588e-28
0
0
-5.06647e-29
5.6245516e-41
1.519941e-28
0
-1.519941e-28
-1.1249103e-40
2.533235e-28
0
-2.026588e-28
-1.013294e-28
1.013294e-28
1.1247663e-40
-1.013294e-28
3.039882e-28
3.039882e-28
-2.026588e-28
-1.4399774e-44
2.2501086e-40
4.3199321e-44
-2.026588e-28
2.533235e-28
-2.8122758e-40
1.519941e-28
-2.026588e-28
-7.599705e-28
7.599705e-28
1.519941e-28
-1.013294e-28
-5.6238316e-41
5.06647e-29
-2.026588e-28
-2.026588e-28
1.013294e-28
7.1206123e-56
-5.06647e-29
2.80855e-41
-2.026588e-28
5.06647e-29
0
2.8137158e-41
-1.013294e-28
-3.039882e-28
1.013294e-28
-1.013294e-28
0
-1.013294e-28
-5.6245516e-41
3.039882e-28
1.1249103e-40
1.519941e-28
2.026588e-28
0
-2.026588e-28
-1.1247663e-40
1.013294e-28
5.06647e-29
2.8865859e-43
5.6231116e-41
3.039882e-28
-5.06647e-29
1.0691059e-43
1.013294e-28
5.06647e-28
2.533235e-28
0
-2.026588e-28
-1.013294e-28
-6.079764e-28
1.013294e-28
-1.013294e-28
-1.68746e-40
5.06647e-29
1.013294e-28
2.026588e-28
2.533235e-28
-1.1249103e-40
-1.013294e-28
-2.533235e-28
-4.053176e-28
-5.06647e-29
0
0
0
1.013294e-28
2.026588e-28
-2.026588e-28
-4.4996413e-40
-6.749462e-40
7.3100451e-40
1.5750761e-39
-1.4186116e-27
0
2.4319056e-27
1.7225998e-27
-2.2292468e-27
2.3305762e-27
2.9892173e-27
0
0
-1.3071493e-26
2.6154165e-38
2.1148314e-38
-2.360975e-26
2.9892173e-26
3.7593207e-26
0
-5.6744464e-26
3.8911933e-38
8.6940625e-26
-1.0740916e-25
-7.341919e-38
1.63039e-25
0
-2.4704108e-25
-1.5229809e-25
3.7441213e-25
-2.2981508e-25
-6.2662294e-37
6.9248512e-25
-8.4914037e-25
-1.0407543e-24
0
0
0
2.3337174e-24
2.8508013e-24
-3.4806649e-24
0
5.1794523e-24
0
3.8435255e-24
-9.3554395e-24
-5.6889365e-24
6.9140596e-24
-1.679474e-23
-1.0192471e-23
2.4725691e-23
1.4984845e-23
2.0152648e-35
-2.1970443e-23
5.9005034e-35
-1.8259719e-38
-7.7603019e-23
0
5.6492204e-23
1.3618357e-22
8.2014445e-23
0
0
0
1.7136124e-22
-4.1129178e-22
-2.4660658e-22
2.955047e-22
3.5383218e-22
-4.2335226e-22
-5.0614618e-22
1.2093373e-21
0
-1.7219673e-21
-2.0523757e-21
0
0
3.458601e-21
2.280919e-33
2.4391323e-21
2.893291e-21
-3.4292218e-21
4.0610987e-21
-4.8054468e-21
-1.1363027e-20
-6.7116939e-21
0
1.8685405e-20
1.2218318e-32
-1.2960937e-20
1.5246101e-20
1.7918635e-20
4.2082585e-20
-4.9372915e-20
-2.8937536e-20
9.6322649e-36
-3.9655761e-20
9.271995e-20
-5.4148488e-20
6.3187782e-20
-2.6004674e-47
-8.5807848e-20
1.9970952e-19
-2.3218461e-19
-2.6968591e-19
0
1.8139999e-19
4.2019004e-19
-1.3493529e-31
-2.8100003e-19
-3.2449846e-19
7.4871912e-19
8.629035e-19
-4.9675188e-19
-1.1427144e-18
-1.3129969e-18
7.5355399e-19
1.7281304e-18
-9.897533e-19
1.1325371e-18
-2.1553571e-30
-1.4781734e-18
3.372067e-18
-3.8421008e-18
-2.4266708e-30
1.379876e-29
-5.6460219e-18
6.4048302e-18
1.6113856e-29
-4.1072131e-18
9.2869823e-18
-5.2437932e-18
1.6811117e-33
-2.9592786e-29
-7.4995118e-18
1.6859369e-17
-2.1012955e-29
5.8892582e-30
-1.1886158e-17
3.7790927e-33
2.9712083e-17
-3.3156216e-17
-1.0502902e-32
9.1332261e-29
-4.573189e-17
5.0778217e-17
6.2512282e-29
-6.2363691e-17
3.448978e-17
3.8099132e-17
4.2031234e-17
-4.6308212e-17
5.6565498e-29
1.1197786e-16
0
0
-1.4737652e-16
-2.2889457e-32
1.7579557e-16
-9.5801711e-17
1.1572833e-28
-1.1333416e-16
-2.731242e-28
2.6665936e-16
0
1.5597409e-16
-3.3668585e-16
-1.8143506e-16
4.3360857e-28
-2.0985497e-16
4.5042057e-16
-2.4134349e-16
2.8663662e-28
5.5194022e-16
0
0
-3.3382799e-16
1.9687025e-28
-3.7627762e-16
3.9862569e-16
1.2650861e-15
-1.3363831e-15
-4.6989278e-16
9.8991271e-16
-5.2061322e-16
-9.1050316e-28
-5.7353123e-16
3.41455e-31
2.0925489e-27
-6.5615021e-16
1.3686423e-15
7.1269947e-16
0
7.6979376e-16
-7.9835966e-16
-8.2683323e-16
-8.5513266e-16
1.9609145e-27
-1.0109464e-27
1.0412073e-27
1.9297622e-15
-9.9101533e-16
-1.692474e-27
2.0821794e-15
-1.5132403e-31
-1.0876335e-15
-2.218712e-15
-2.259854e-15
2.2985188e-15
1.2965084e-27
1.1838699e-15
1.1989846e-15
-2.4250697e-15
2.4488938e-15
1.2346509e-15
-3.7292433e-15
-2.4993538e-15
1.2543828e-15
2.5142972e-15
1.257912e-15
-1.2565488e-15
-2.5060913e-15
2.4949176e-15
3.7193116e-15
-1.2299792e-15
-1.21809e-15
-2.408235e-15
-1.1880866e-15
2.3400657e-15
1.1500023e-15
1.128052e-15
-2.2085006e-15
-1.0786763e-15
2.102841e-15
-2.0451679e-15
-4.9152283e-44
-2.7302616e-31
-1.855513e-15
1.7876232e-15
2.8613883e-27
9.1304239e-28
2.6216173e-27
-5.764394e-44
2.13998e-15
7.5080212e-28
-6.3916503e-16
-1.2046595e-15
-1.1317507e-15
1.0599163e-15
1.098444e-27
4.6032245e-16
1.4219309e-27
-3.9450325e-16
7.2662663e-16
0
-3.048358e-16
3.0819907e-28
-2.5200954e-16
-4.5565668e-16
4.1033111e-16
3.6805188e-16
0
-2.9254041e-16
2.8782526e-28
2.2869656e-16
-2.0092539e-16
-9.7564372e-29
7.6545522e-17
3.6853743e-29
1.628691e-32
-4.9250631e-17
4.2138443e-17
3.5890459e-17
-3.0430537e-17
2.8524544e-29
-2.1580508e-17
6.0124413e-29
-1.6688086e-29
-2.4927288e-17
2.0580249e-17
1.6921869e-17
0
-1.1310103e-17
1.0213012e-29
7.4612448e-18
-6.0373925e-18
-4.8776147e-18
1.9690707e-18
3.1816609e-18
7.1511631e-31
1.4877967e-34
4.7603519e-31
2.0202935e-34
5.9779407e-19
-1.0266486e-18
-9.0791331e-19
8.4721148e-19
4.5747691e-31
-7.9247496e-19
7.4006556e-19
7.4553522e-19
0
-8.7181813e-19
1.175976e-34
-4.229927e-31
-4.2016229e-31
8.5714238e-31
-7.6875469e-19
7.3817285e-19
7.182186e-47
-6.8324124e-19
1.0841831e-18
7.3427144e-19
-3.3685621e-19
0
-7.4233713e-19
1.2601389e-30
-3.6673313e-31
-6.0849573e-19
0
0
9.546072e-19
2.6914957e-19
-2.8097595e-19
3.1159811e-19
-2.9085573e-19
2.3318349e-19
4.9590792e-31
-2.6695125e-19
-2.7589494e-19
-2.0775929e-19
1.850509e-19
0
0
4.2375603e-19
-1.4800381e-19
-6.3912106e-19
0