/*--------------------------------*- C++ -*----------------------------------*\
  =========                 |
  \\      /  F ield         | OpenFOAM: The Open Source CFD Toolbox
   \\    /   O peration     | Website:  https://openfoam.org
    \\  /    A nd           | Version:  7
     \\/     M anipulation  |
\*---------------------------------------------------------------------------*/
FoamFile
{
    version     2.0;
    format      ascii;
    class       volVectorField;
    location    "0.00149";
    object      U;
}
// * * * * * * * * * * * * * * * * * * * * * * * * * * * * * * * * * * * * * //

dimensions      [0 1 -1 0 0 0 0];

internalField   nonuniform List<vector> 
5000
(
(0.11201475 -3.0007382e-18 0)
(0.33472075 -7.6779074e-18 0)
(0.43172854 0 0)
(0.56405464 0 0)
(0.69612471 6.1727348e-18 0)
(0.82555362 -8.1164237e-33 7.1392818e-18)
(0.95533356 -8.1327969e-18 1.7336099e-32)
(1.0851711 0 -2.7380307e-17)
(1.2149419 0 -1.0119166e-17)
(1.3446685 1.111134e-17 2.222268e-17)
(1.4743456 2.4206169e-17 2.4206169e-17)
(1.6039672 -1.3094244e-17 -1.3094244e-17)
(1.7335281 -1.4084771e-17 1.2009398e-31)
(1.8630234 1.5074619e-17 1.328184e-31)
(1.9924479 0 -3.2127476e-17)
(2.1217966 1.7052077e-17 3.4104154e-17)
(2.2510644 -7.6019702e-46 -3.8009851e-46)
(2.3802464 -1.9026213e-17 1.6763483e-31)
(2.5093373 0 2.0011907e-17)
(2.6383323 -2.0996614e-17 -4.1993227e-17)
(2.7672262 2.1980281e-17 -2.1980281e-17)
(2.896014 2.2962854e-17 0)
(3.0246906 -4.7888559e-17 0)
(3.153251 2.49245e-17 2.49245e-17)
(3.2816903 2.5903461e-17 -2.208662e-31)
(3.4100032 2.2156202e-31 2.2156202e-31)
(3.5381849 -2.7857373e-17 2.7857373e-17)
(3.6662304 -2.8832207e-17 -2.8832207e-17)
(3.7941345 5.9611094e-17 -2.9805547e-17)
(3.9218923 -5.3359409e-31 3.0777333e-17)
(4.0494988 5.5492574e-31 -5.5492574e-31)
(4.1769489 -3.2715993e-17 2.7895333e-31)
(4.3042378 -6.7365481e-17 3.3682741e-17)
(4.4313603 6.9295362e-17 -3.4647681e-17)
(4.5583116 -6.1739219e-31 -3.5610749e-17)
(4.6850866 3.1806718e-30 0)
(4.8116805 1.301368e-30 0)
(4.9380881 -7.6976074e-17 3.8488037e-17)
(5.0643046 7.8885863e-17 3.9442931e-17)
(5.190325 8.0791212e-17 -4.0395606e-17)
(5.3161444 -8.2691977e-17 6.9332297e-31)
(5.4417578 2.9090043e-30 4.2294005e-17)
(5.5671603 8.6479158e-17 -4.3239579e-17)
(5.6923471 -4.4182635e-17 7.4716888e-31)
(5.8173132 -1.3536928e-16 4.5123095e-17)
(5.9420536 4.6060878e-17 -4.6060878e-17)
(6.0665636 4.6995906e-17 1.6162018e-30)
(6.1908383 3.2828981e-30 -1.6414491e-30)
(6.3148727 9.7714724e-17 1.6802178e-30)
(6.438662 0 -8.4896139e-31)
(6.5622014 -5.070679e-17 -5.070679e-17)
(6.685486 -7.3366062e-33 0)
(6.808511 5.2543493e-17 0)
(6.9312716 -1.069137e-16 0)
(7.053763 1.9005912e-30 0)
(7.1759804 1.1054622e-16 0)
(7.297919 -5.6175828e-17 0)
(7.419574 1.9709288e-30 0)
(7.5409408 5.796995e-17 0)
(7.6620145 0 0)
(7.7827905 -5.974833e-17 0)
(7.9032639 -2.0678964e-30 0)
(8.0234303 -1.7482237e-32 0)
(8.1432847 -6.2384592e-17 6.2384592e-17)
(8.2628226 6.3254577e-17 6.3254577e-17)
(8.3820394 -2.2415519e-30 -6.4119997e-17)
(8.5009303 -6.4980742e-17 1.1173526e-30)
(8.6194909 6.58367e-17 -4.091057e-47)
(8.7377164 6.6687758e-17 -6.6687758e-17)
(8.8556023 -6.7533802e-17 0)
(8.973144 -6.8374715e-17 0)
(9.090337 6.9210379e-17 6.9210379e-17)
(9.2071767 7.0040675e-17 7.0040675e-17)
(9.3236587 -1.4173096e-16 0)
(9.4397784 -7.1684679e-17 -7.1684679e-17)
(9.5555314 7.2498142e-17 -2.5035332e-30)
(9.6709132 0 7.3305745e-17)
(9.7859193 -7.4107362e-17 7.4107362e-17)
(9.9005455 1.0644337e-32 -7.4902866e-17)
(10.014787 7.5692128e-17 -1.5138426e-16)
(10.12864 -7.6475016e-17 1.5295003e-16)
(10.2421 2.1956168e-32 -4.3912337e-32)
(10.355162 -2.2174943e-32 -2.3406344e-16)
(10.467823 -7.878412e-17 1.5756824e-16)
(10.580078 -7.9540187e-17 8.2740452e-30)
(10.691922 -2.7953968e-30 -1.6057842e-16)
(10.803352 8.1031052e-17 2.4309316e-16)
(10.914363 0 -8.1765573e-17)
(11.024951 8.2492633e-17 -8.2492633e-17)
(11.135113 8.6323592e-30 8.3212092e-17)
(11.244843 2.9338675e-30 -8.3923809e-17)
(11.354137 -8.4627639e-17 -8.4627639e-17)
(11.462993 -8.532344e-17 -2.9706716e-30)
(11.571405 1.7202213e-16 1.7202213e-16)
(11.67937 5.9995688e-30 5.9995688e-30)
(11.786884 -8.7361216e-17 8.7361216e-17)
(11.893942 0 8.8023447e-17)
(12.000541 0 3.1126318e-30)
(12.106677 8.9321483e-17 -6.2197396e-30)
(12.212345 6.2384249e-30 -1.7991398e-16)
(12.317544 -1.811666e-16 -9.0583298e-17)
(12.422267 9.1200252e-17 9.1200252e-17)
(12.526512 1.8361541e-16 -1.3046659e-32)
(12.630275 0 -9.2405504e-17)
(12.733552 -9.2993503e-17 0)
(12.83634 -9.3571552e-17 9.3571552e-17)
(12.938635 9.41395e-17 3.2776168e-30)
(13.040433 9.4697199e-17 -9.4697199e-17)
(13.141731 0 9.5244499e-17)
(13.242525 0 9.5781251e-17)
(13.342812 -9.6307306e-17 -1.9261461e-16)
(13.442588 -9.6822516e-17 -9.6822516e-17)
(13.54185 0 2.919802e-16)
(13.640595 9.781981e-17 9.781981e-17)
(13.738818 -3.4364964e-30 -2.949048e-16)
(13.836518 -9.8771959e-17 9.8771959e-17)
(13.93369 9.9230741e-17 9.9230741e-17)
(14.030332 -2.8330135e-32 5.6660271e-32)
(14.12644 3.4998206e-30 1.00113e-16)
(14.222011 -1.9651233e-47 -3.0160858e-16)
(14.317043 -2.0189449e-16 7.0579693e-30)
(14.411531 4.3206402e-32 2.0269202e-16)
(14.505473 1.0173235e-16 -2.0346471e-16)
(14.598867 0 -1.0210614e-16)
(14.691708 1.0246724e-16 1.0246724e-16)
(14.783995 -1.0281551e-16 -1.0281551e-16)
(14.875724 -1.0315084e-16 1.0315084e-16)
(14.966893 2.0694616e-16 2.0694616e-16)
(15.057499 1.0378211e-16 -1.0378211e-16)
(15.147539 -2.0815564e-16 -3.5940545e-30)
(15.237011 -1.0436007e-16 -1.0436007e-16)
(15.325912 1.0462876e-16 -2.0925751e-16)
(15.41424 1.0488375e-16 1.0488375e-16)
(15.501991 1.0512495e-16 1.0512495e-16)
(15.589164 0 1.0535223e-16)
(15.675756 -1.055655e-16 3.6754313e-30)
(15.761765 -1.0576465e-16 3.6673348e-30)
(15.847189 1.0594957e-16 -3.6888032e-30)
(15.932025 3.6796623e-30 -2.1224034e-16)
(16.016271 -1.0627635e-16 -1.0627635e-16)
(16.099925 1.0641803e-16 1.0641803e-16)
(16.182985 1.0654511e-16 2.1309021e-16)
(16.265449 0 1.0665751e-16)
(16.347315 -1.0675515e-16 1.0675515e-16)
(16.428582 -1.0683796e-16 -7.4091028e-30)
(16.509246 1.0690587e-16 -2.1381174e-16)
(16.589306 -1.069588e-16 3.0399519e-32)
(16.668762 6.082058e-32 -3.041029e-32)
(16.74761 1.070195e-16 2.169367e-48)
(16.82585 -1.0702715e-16 -1.0702715e-16)
(16.903479 1.0701961e-16 7.4216999e-30)
(16.980497 -7.4505302e-30 -1.490106e-29)
(17.056901 -1.0695876e-16 -1.0695876e-16)
(17.132691 1.0690538e-16 1.0690538e-16)
(17.207865 -1.0683666e-16 -1.0683666e-16)
(17.282422 -1.0675256e-16 -3.7015902e-30)
(17.35636 1.0665308e-16 1.0665308e-16)
(17.429679 0 -1.065382e-16)
(17.502377 0 1.5121473e-32)
(17.574454 1.062622e-16 1.062622e-16)
(17.645908 1.0610108e-16 0)
(17.716738 -1.0592457e-16 -1.0592457e-16)
(17.786944 -1.0573267e-16 -7.3174266e-30)
(17.856525 1.0552541e-16 2.1105082e-16)
(17.92548 7.3026413e-30 -1.0530281e-16)
(17.993809 -1.050649e-16 2.9861241e-32)
(18.061511 1.0481173e-16 1.0481173e-16)
(18.128585 1.0454333e-16 -1.0454333e-16)
(18.195032 0 1.0425976e-16)
(18.26085 -1.0396108e-16 -1.0396108e-16)
(18.326039 -1.0364736e-16 4.3185942e-29)
(18.3906 0 2.8660167e-29)
(18.454531 1.0297503e-16 -1.0297503e-16)
(18.517834 1.026166e-16 2.052332e-16)
(18.580507 0 0)
(18.642552 -1.0185563e-16 7.0635834e-30)
(18.703967 -2.1107046e-29 2.1107046e-29)
(18.764754 1.0103654e-16 -1.0103654e-16)
(18.824912 -1.0060548e-16 -1.0060548e-16)
(18.884442 -1.0016022e-16 -6.9033073e-30)
(18.943345 9.9700908e-17 9.9700908e-17)
(19.00162 6.8531345e-30 -9.9227669e-17)
(19.059268 -6.7914347e-30 -6.7914347e-30)
(19.116291 -4.1882228e-32 -4.1882228e-32)
(19.172688 -9.7725855e-17 -1.3540487e-29)
(19.22846 9.7198396e-17 1.9439679e-16)
(19.283609 1.3406236e-29 -9.6657787e-17)
(19.338135 -6.6100982e-30 -9.6104196e-17)
(19.392039 6.5711415e-30 6.5711415e-30)
(19.445322 -9.49588e-17 -6.5448117e-30)
(19.497986 0 1.961943e-29)
(19.550031 0 -6.4757683e-30)
(19.60146 9.3148048e-17 9.3148048e-17)
(19.652272 9.2520565e-17 0)
(19.702471 0 0)
(19.752057 0 0)
(19.801031 -9.0569442e-17 0)
(19.849396 -3.2989583e-47 8.9896932e-17)
(19.897154 8.9213748e-17 -1.8598679e-29)
(19.944305 0 -8.8520133e-17)
(19.990853 -8.7816334e-17 -8.7816334e-17)
(20.036799 8.7102605e-17 8.7102605e-17)
(20.082144 2.3936686e-29 8.6379206e-17)
(20.126892 -1.712928e-16 -1.712928e-16)
(20.171045 8.4904451e-17 -5.8759707e-30)
(20.214604 1.7472027e-29 1.7472027e-29)
(20.257573 1.1851032e-32 8.3394227e-17)
(20.299953 8.2626509e-17 8.2626509e-17)
(20.341746 -8.1850764e-17 -8.1850764e-17)
(20.382957 1.1520354e-32 0)
(20.423587 1.1111349e-29 -8.0276351e-17)
(20.463639 -5.5004416e-30 -5.5004416e-30)
(20.503116 7.8673333e-17 7.8673333e-17)
(20.542021 0 7.7861846e-17)
(20.580356 -7.7044111e-17 -1.0729654e-29)
(20.618125 -5.274977e-30 -7.6220433e-17)
(20.655331 -2.0923901e-29 1.5078225e-16)
(20.691977 -7.4556491e-17 -7.4556491e-17)
(20.728066 0 -7.371685e-17)
(20.763602 7.2872515e-17 7.2872515e-17)
(20.798588 7.2023801e-17 -7.2023801e-17)
(20.833027 0 0)
(20.866923 0 0)
(20.90028 0 0)
(20.9331 -6.8591526e-17 -6.8591526e-17)
(20.965389 -4.6870831e-30 6.7725698e-17)
(20.997149 6.6857407e-17 1.3371481e-16)
(21.028385 0 -6.598697e-17)
(21.0591 0 4.5248915e-30)
(21.089299 -6.4240943e-17 -6.4240943e-17)
(21.118985 -6.3365988e-17 -6.3365988e-17)
(21.148163 6.2490162e-17 1.2498032e-16)
(21.176836 6.1613781e-17 -1.751169e-32)
(21.205009 0 1.7262538e-32)
(21.232686 -5.9860604e-17 -5.9860604e-17)
(21.259871 -5.898443e-17 -5.898443e-17)
(21.28657 5.8108944e-17 1.1621789e-16)
(21.312785 5.7234451e-17 -8.1335046e-33)
(21.338523 0 1.1741804e-29)
(21.363786 -5.5489649e-17 -5.5489649e-17)
(21.38858 1.5166869e-29 3.0333739e-29)
(21.41291 3.7276741e-30 7.4553482e-30)
(21.436779 -5.288735e-17 -5.288735e-17)
(21.460193 5.202505e-17 5.202505e-17)
(21.483157 5.116579e-17 0)
(21.505675 0 5.0309847e-17)
(21.527751 -4.9457491e-17 -4.9457491e-17)
(21.549392 6.7557828e-30 -4.8608993e-17)
(21.570601 -4.7764615e-17 4.7764615e-17)
(21.591384 -6.5083475e-30 0)
(21.611746 9.217849e-17 4.6089245e-17)
(21.631691 -4.5258754e-17 -4.5258754e-17)
(21.651225 6.1628192e-30 -4.4433386e-17)
(21.670352 1.5141306e-29 1.5141306e-29)
(21.689077 2.961981e-30 8.55979e-17)
(21.707407 4.199034e-17 8.3980679e-17)
(21.725345 -4.1187761e-17 -1.2356328e-16)
(21.742897 -4.0391427e-17 -8.0782854e-17)
(21.760068 0 0)
(21.776863 3.8818312e-17 7.7636624e-17)
(21.793287 3.8041924e-17 3.8041924e-17)
(21.809346 0 -3.7272567e-17)
(21.825044 -3.6510421e-17 -3.6510421e-17)
(21.840387 -3.5755659e-17 -3.5755659e-17)
(21.855379 7.0016898e-17 7.0016898e-17)
(21.870027 3.4268949e-17 6.8537898e-17)
(21.884335 -3.3537313e-17 -3.3537313e-17)
(21.898308 -3.2813686e-17 -6.5627372e-17)
(21.911952 -8.9039104e-30 -8.9039104e-30)
(21.925271 3.1391007e-17 6.2782013e-17)
(21.938272 -3.069221e-17 -3.069221e-17)
(21.950958 2.0806034e-30 4.1612068e-30)
(21.963335 2.9320293e-17 2.9320293e-17)
(21.975409 -2.8647386e-17 -5.7294773e-17)
(21.987184 1.9445905e-30 2.7983311e-17)
(21.998665 -1.9029466e-30 -3.8058933e-30)
(22.009858 7.5834818e-33 -2.6682004e-17)
(22.020767 1.7987867e-30 2.6044931e-17)
(22.031398 -2.5417004e-17 -2.5417004e-17)
(22.041755 0 4.9596572e-17)
(22.051844 0 -1.0092322e-29)
(22.061669 2.3588685e-17 -4.717737e-17)
(22.071235 2.2997892e-17 4.5995783e-17)
(22.080548 0 1.5513746e-30)
(22.089612 0 -2.1844492e-17)
(22.098431 0 0)
(22.107011 0 0)
(22.115357 -2.0185189e-17 -2.0185189e-17)
(22.123473 -1.3543995e-30 1.9651009e-17)
(22.131363 3.8252578e-17 3.8252578e-17)
(22.139033 -7.9343559e-33 -1.8611022e-17)
(22.146487 -1.8105191e-17 5.1458048e-33)
(22.15373 -1.7608778e-17 -1.7608778e-17)
(22.160765 2.3771855e-30 -1.7121756e-17)
(22.167598 2.3061363e-30 1.6644094e-17)
(22.174233 2.2987131e-33 0)
(22.180674 1.5716699e-17 1.5716699e-17)
(22.186926 1.5266879e-17 1.5266879e-17)
(22.192992 1.4826244e-17 0)
(22.198877 -2.8789475e-17 -2.8789475e-17)
(22.204586 -4.1916903e-17 -1.3972301e-17)
(22.210122 1.3558868e-17 2.7117736e-17)
(22.215489 2.6308743e-17 -9.1037276e-31)
(22.220692 0 3.6262512e-33)
(22.225733 -1.237189e-17 -1.237189e-17)
(22.230618 -1.1993749e-17 -1.1993749e-17)
(22.23535 1.162423e-17 1.162423e-17)
(22.239933 -3.2012076e-33 -1.1263248e-17)
(22.24437 4.6515156e-33 1.091071e-17)
(22.248666 -3.0031871e-33 -6.0063741e-33)
(22.252823 -1.0230595e-17 -2.046119e-17)
(22.256845 -9.9028226e-18 9.9028226e-18)
(22.260737 9.5831056e-18 9.5831056e-18)
(22.2645 1.8542681e-17 9.2713403e-18)
(22.268139 -8.9674212e-18 1.2437629e-30)
(22.271657 -1.407901e-47 -8.6712391e-18)
(22.275058 -8.3826854e-18 0)
(22.278344 -2.2450609e-30 0)
(22.281518 1.5656022e-17 7.8280112e-18)
(22.284584 0 -1.0498617e-30)
(22.287544 0 2.0267176e-30)
(22.290403 -1.410073e-17 9.7987495e-31)
(22.293161 3.7793251e-30 -6.8051781e-18)
(22.295824 1.3133617e-17 6.5668085e-18)
(22.298392 0 -9.0027681e-34)
(22.300869 -6.1100369e-18 -6.1100369e-18)
(22.303258 -5.8913944e-18 0)
(22.305562 5.6790846e-18 0)
(22.307782 -7.7775817e-34 0)
(22.309921 7.3210042e-31 0)
(22.311982 -7.2176024e-34 0)
(22.313967 -4.8907406e-18 0)
(22.315879 4.7082686e-18 0)
(22.31772 4.5314004e-18 4.5314004e-18)
(22.319491 0 0)
(22.321196 -4.1939886e-18 -4.1939886e-18)
(22.322837 5.5997032e-31 0)
(22.324414 3.8775435e-18 3.8775435e-18)
(22.325932 -7.4537738e-18 1.0338231e-30)
(22.32739 9.9338691e-31 -3.5811163e-18)
(22.328793 3.4401167e-18 0)
(22.33014 9.1739157e-31 0)
(22.331435 6.343933e-18 3.1719665e-18)
(22.332678 -6.0891758e-18 4.2271074e-31)
(22.333872 -2.9215241e-18 -2.9215241e-18)
(22.335018 2.8026647e-18 0)
(22.336119 3.8197341e-34 0)
(22.337175 2.57712e-18 2.57712e-18)
(22.338188 0 2.4702201e-18)
(22.339159 0 -2.3670947e-18)
(22.340091 -2.2676394e-18 -2.2676394e-18)
(22.340984 3.0121753e-31 0)
(22.34184 4.1586659e-18 2.079333e-18)
(22.342661 -2.8283607e-34 -2.8283607e-34)
(22.343447 -5.7135078e-18 -1.9045026e-18)
(22.344199 1.8218984e-18 1.8218984e-18)
(22.34492 1.7423759e-18 1.7423759e-18)
(22.34561 -3.3316857e-18 -1.6658428e-18)
(22.34627 1.5922079e-18 -1.5922079e-18)
(22.346902 -1.5213836e-18 0)
(22.347507 -2.9065638e-18 1.4532819e-18)
(22.348085 1.3878183e-18 1.3878183e-18)
(22.348638 1.3249086e-18 -1.3249086e-18)
(22.349166 1.2644714e-18 -1.2644714e-18)
(22.349671 -1.2064274e-18 0)
(22.350153 -5.2571544e-48 1.1506973e-18)
(22.350614 1.0972062e-18 1.0972062e-18)
(22.351054 -1.0458788e-18 -1.0458788e-18)
(22.351474 9.9664306e-19 -9.9664306e-19)
(22.351875 -9.4942727e-19 0)
(22.352258 -2.5055392e-31 0)
(22.352623 -2.4464901e-34 0)
(22.352971 -8.1921958e-19 0)
(22.353303 1.5588237e-18 0)
(22.353619 -7.4129674e-19 0)
(22.35392 -1.9571282e-31 0)
(22.354208 1.8582875e-31 0)
(22.354481 6.3651088e-19 6.3651088e-19)
(22.354742 1.2091592e-18 2.4046484e-47)
(22.35499 -1.7221664e-18 -5.7405546e-19)
(22.355226 -1.5114946e-31 0)
(22.35545 2.8684091e-31 0)
(22.355664 -1.3590066e-31 0)
(22.355867 9.300437e-19 4.6502185e-19)
(22.35606 -8.8157624e-19 6.1136405e-32)
(22.356244 1.1586129e-31 -4.1767488e-19)
(22.356418 7.9127635e-19 3.9563818e-19)
(22.356584 0 -5.2014636e-32)
(22.356741 0 5.0396234e-35)
(22.356891 -3.3558381e-19 4.6592473e-32)
(22.357033 4.4030525e-32 -3.1745622e-19)
(22.357167 3.0021192e-19 3.0021192e-19)
(22.357295 2.8381782e-19 -2.8381782e-19)
(22.357416 -2.6823973e-19 1.4904591e-31)
(22.357531 -7.6033618e-19 2.5344539e-19)
(22.35764 2.394039e-19 -2.394039e-19)
(22.357744 2.2608414e-19 0)
(22.357841 6.0668461e-35 0)
(22.357934 2.0149623e-19 2.0149623e-19)
(22.358022 0 2.6403469e-32)
(22.358106 -3.5891608e-19 -1.7945804e-19)
(22.358185 -3.3865695e-19 1.6932847e-19)
(22.358259 1.5975823e-19 1.5975823e-19)
(22.35833 3.0144186e-19 0)
(22.358397 1.421935e-19 -1.421935e-19)
(22.358461 -2.6830115e-19 -1.3415057e-19)
(22.358521 -2.5313656e-19 1.2656828e-19)
(22.358578 2.3884553e-19 3.3144354e-32)
(22.358632 2.2537884e-19 -1.2580999e-48)
(22.358683 0 1.4764896e-32)
(22.358732 -2.0072405e-19 -1.0036203e-19)
(22.358778 9.4717876e-20 9.4717876e-20)
(22.358821 1.7877193e-19 3.9933141e-48)
(22.358862 -8.4339327e-20 1.1709676e-32)
(22.358901 -7.9551021e-20 7.9551021e-20)
(22.358938 1.0657024e-35 0)
(22.358973 -9.8068398e-33 0)
(22.359006 -6.6444387e-20 -6.6444387e-20)
(22.359037 6.2392589e-20 -8.8665202e-36)
(22.359067 5.8446172e-20 2.4319091e-32)
(22.359095 -5.4570647e-20 -5.4570647e-20)
(22.359121 7.0364995e-33 0)
(22.359145 6.6644349e-36 0)
(22.359168 5.9682351e-33 4.3030452e-20)
(22.359189 3.9098732e-20 -1.0840271e-32)
(22.359208 -3.5070512e-20 -3.5070512e-20)
(22.359226 1.2877265e-32 0)
(22.359242 3.6939653e-33 0)
(22.359257 6.1357381e-33 0)
(22.35927 1.7404895e-20 1.7404895e-20)
(22.359282 -1.4244812e-20 -2.0243095e-36)
(22.359295 1.9273692e-33 -1.388194e-20)
(22.359304 3.4224212e-33 1.2344002e-20)
(22.359311 1.2147936e-36 -8.54835e-21)
(22.359323 2.2854745e-20 3.1764018e-33)
(22.359343 2.1365003e-20 4.2730007e-20)
(22.359358 -2.4185301e-20 -2.4185301e-20)
(22.359362 -4.0560993e-20 -8.4472355e-33)
(22.359373 3.5905902e-33 -3.5905902e-33)
(22.359399 7.7508955e-20 5.3806736e-33)
(22.359425 4.2388561e-20 4.2388561e-20)
(22.35944 -7.411572e-20 0)
(22.359452 -3.9364108e-20 0)
(22.359475 5.0156596e-20 -5.0156596e-20)
(22.359502 5.4734746e-20 -7.5993749e-33)
(22.359522 1.3852326e-32 1.3852326e-32)
(22.359535 -4.8936143e-20 2.8624733e-49)
(22.359552 0 5.6067543e-20)
(22.359577 0 -6.0477955e-20)
(22.359599 -5.680838e-20 -5.680838e-20)
(22.359614 0 0)
(22.359629 5.6752746e-20 5.6752746e-20)
(22.359652 -6.2631358e-20 8.695741e-33)
(22.359676 -8.9629003e-36 -6.3070804e-20)
(22.359697 1.6362541e-32 0)
(22.359716 0 0)
(22.359735 5.8980042e-20 5.8980042e-20)
(22.359756 -6.0519768e-20 -1.7200753e-35)
(22.359778 -5.9658597e-20 -1.4816617e-49)
(22.359797 1.1492912e-19 5.7464562e-20)
(22.359814 5.6904252e-20 -5.6904252e-20)
(22.359834 -5.7543202e-20 7.9729463e-33)
(22.359854 0 -7.9192287e-33)
(22.359873 0 1.52978e-32)
(22.35989 5.3292084e-20 5.3292084e-20)
(22.359907 -1.445558e-32 -5.2031765e-20)
(22.359924 -5.0472358e-20 1.401517e-32)
(22.35994 0 -1.3450111e-32)
(22.359956 0 1.2768216e-32)
(22.359971 4.3208127e-20 4.3208127e-20)
(22.359983 -1.6727756e-32 -4.0147039e-20)
(22.359995 -3.6815589e-20 1.0222957e-32)
(22.360006 0 -4.6148169e-33)
(22.360016 0 0)
(22.360024 0 2.4515384e-20)
(22.360032 0 -2.2401948e-20)
(22.360041 0 3.2189601e-33)
(22.360045 0 -2.8445761e-36)
(22.360049 0 2.2527982e-33)
(22.36006 0 -3.0281163e-33)
(22.360074 -5.7311218e-20 -2.8655609e-20)
(22.360079 -1.3516412e-32 2.4350562e-20)
(22.360081 2.1789168e-20 2.1789168e-20)
(22.360094 -2.9356867e-20 -2.9356867e-20)
(22.36011 3.3354515e-20 -3.3354515e-20)
(22.360117 -3.0405404e-20 0)
(22.360125 9.4827417e-33 3.411496e-20)
(22.360145 4.1563576e-20 4.1563576e-20)
(22.360163 1.1282445e-32 0)
(22.360173 3.7199574e-20 -3.7199574e-20)
(22.360183 0 5.9437861e-33)
(22.360202 0 -7.3124754e-36)
(22.360222 -5.1399863e-20 -7.1290552e-33)
(22.360234 -1.2541608e-32 4.516567e-20)
(22.360242 4.4986229e-20 -4.4986229e-20)
(22.360256 0 -6.9610464e-33)
(22.360274 0 1.4313175e-32)
(22.360288 0 4.7128975e-20)
(22.360299 0 4.4272308e-20)
(22.360312 0 -9.2494523e-20)
(22.360329 0 6.8033006e-36)
(22.360345 0 -6.4035124e-33)
(22.360357 -8.62607e-20 -4.313035e-20)
(22.36037 3.5356693e-32 4.2471937e-20)
(22.360385 8.6225278e-20 -5.9857609e-33)
(22.3604 -4.2578645e-20 -4.2578645e-20)
(22.360413 -5.822714e-36 0)
(22.360425 -4.0025957e-20 0)
(22.360438 2.2262791e-32 0)
(22.360452 7.9888805e-20 3.9944403e-20)
(22.360465 3.8672922e-20 3.8672922e-20)
(22.360476 5.0514202e-50 -3.7216807e-20)
(22.360487 -1.1017228e-19 -3.6724093e-20)
(22.360497 0 0)
(22.360508 7.0898624e-20 3.5449312e-20)
(22.360517 0 3.3400452e-20)
(22.360525 0 -3.1424409e-20)
(22.360532 -5.9737744e-20 -2.9868872e-20)
(22.36054 7.7690738e-33 0)
(22.360547 7.6074926e-20 2.5358309e-20)
(22.360553 -2.2366701e-20 2.2366701e-20)
(22.360559 -1.9402683e-20 -1.9402683e-20)
(22.360565 1.7927526e-20 -4.9781171e-33)
(22.360573 -1.931142e-20 1.931142e-20)
(22.360581 2.0009787e-20 0)
(22.360584 4.4918507e-33 0)
(22.360587 -1.5022652e-20 0)
(22.360597 2.074845e-20 0)
(22.360609 0 -2.3471026e-20)
(22.360614 1.8118568e-20 5.0260161e-33)
(22.360616 -1.7489897e-20 1.7489897e-20)
(22.360626 -4.9353597e-20 -2.4676799e-20)
(22.36064 2.7122936e-20 -3.7657498e-33)
(22.360647 2.117086e-20 2.9423719e-33)
(22.36065 2.0266204e-20 3.1549935e-49)
(22.360661 2.778205e-20 -2.778205e-20)
(22.360676 -6.3267105e-20 -3.1633553e-20)
(22.360685 -2.639077e-20 5.278154e-20)
(22.360689 2.2817026e-20 3.1679171e-33)
(22.360697 0 -3.7065288e-33)
(22.360712 -3.0145861e-20 3.0145861e-20)
(22.360724 2.7271261e-20 0)
(22.360731 2.3352432e-20 -2.3352432e-20)
(22.360738 -7.3212192e-20 -2.4404064e-20)
(22.360751 -7.7041717e-36 2.7106644e-20)
(22.360763 5.2797412e-20 7.3228924e-33)
(22.360771 -2.3306534e-20 -2.3306534e-20)
(22.360778 -3.1829985e-33 0)
(22.360788 -2.4962884e-20 0)
(22.360799 7.0658196e-36 2.4860643e-20)
(22.360807 4.3979208e-20 -3.0499128e-33)
(22.360812 -2.090742e-20 -2.090742e-20)
(22.36082 0 0)
(22.360831 6.542996e-33 2.3563071e-20)
(22.360839 2.983671e-36 -2.983671e-36)
(22.360844 1.8922129e-20 5.2542986e-33)
(22.360851 -2.0290852e-20 2.8142994e-33)
(22.360861 6.0739327e-33 -2.1873849e-20)
(22.360869 2.8160467e-33 2.030345e-20)
(22.360874 2.5990113e-36 -2.5990113e-36)
(22.360881 1.9457154e-20 5.4028646e-33)
(22.360891 -2.124977e-20 2.124977e-20)
(22.3609 -1.8077135e-49 -1.9925653e-20)
(22.360905 4.999881e-33 -4.999881e-33)
(22.360911 2.8194188e-36 -2.8194188e-36)
(22.360921 4.567973e-20 3.171088e-33)
(22.36093 3.0613114e-33 2.2071787e-20)
(22.360935 -1.9109785e-20 -1.9109785e-20)
(22.360939 0 0)
(22.360948 0 1.2704667e-32)
(22.360958 2.2954086e-20 3.1836845e-33)
(22.360963 8.1202342e-33 8.1202342e-33)
(22.360966 -1.8687809e-20 2.6556974e-36)
(22.360974 2.1154891e-20 2.1154891e-20)
(22.360983 -3.0149632e-33 -2.1715371e-20)
(22.36099 -7.0978553e-49 -7.0978553e-49)
(22.360994 2.5687435e-33 2.5687435e-33)
(22.361001 -2.1347143e-20 -5.9276767e-33)
(22.361011 -2.242341e-20 3.1132674e-33)
(22.361017 -2.6679153e-33 -3.8470871e-20)
(22.361019 1.7724697e-20 1.7724697e-20)
(22.361025 0 2.2035052e-20)
(22.361034 0 3.6595202e-33)
(22.361042 -2.3798728e-20 -3.3042166e-33)
(22.361043 1.6955766e-20 -3.3911533e-20)
(22.361043 -1.3156458e-32 1.5804087e-20)
(22.36105 -2.1107503e-20 2.1107503e-20)
(22.36106 2.3604539e-20 -1.8254596e-49)
(22.361064 0 0)
(22.361065 -1.3014703e-20 -1.008691e-49)
(22.361069 -1.3213917e-20 1.3213917e-20)
(22.361077 1.549399e-20 -1.549399e-20)
(22.361084 1.5526211e-20 -1.2036361e-49)
(22.361089 0 1.7699405e-33)
(22.361093 -1.0920356e-20 1.5518759e-36)
(22.3611 -1.1527931e-20 1.1527931e-20)
(22.361108 2.498069e-20 -2.498069e-20)
(22.361115 1.2155396e-20 -3.3753117e-33)
(22.361121 -1.136167e-20 1.136167e-20)
(22.361128 -1.1158939e-20 -1.5477219e-33)
(22.361135 -1.5867274e-33 1.5867274e-33)
(22.361142 -1.1997198e-20 -1.1997198e-20)
(22.36115 -3.473443e-33 1.2508793e-20)
(22.361157 2.534807e-20 1.5251961e-50)
(22.361164 0 5.4261989e-33)
(22.361171 0 -3.8918609e-33)
(22.361179 0 4.1634026e-33)
(22.361187 -1.550307e-20 4.304894e-33)
(22.361195 -1.6081927e-20 4.4872034e-50)
(22.361203 0 0)
(22.361213 1.7619702e-20 -1.7619702e-20)
(22.361222 2.4156936e-33 0)
(22.361232 -1.6783348e-20 0)
(22.361238 0 1.6139195e-20)
(22.361242 0 4.3231326e-33)
(22.361246 1.5421325e-20 -1.5421325e-20)
(22.361248 2.239272e-33 0)
(22.361251 -2.38066e-33 0)
(22.361254 1.7265779e-20 3.4531558e-20)
(22.361256 -1.7884352e-20 1.488822e-32)
(22.361259 8.4173668e-33 -4.0458984e-20)
(22.361263 2.2436097e-20 2.2436097e-20)
(22.361268 0 -3.3443063e-36)
(22.361276 2.4228334e-20 3.3638632e-33)
(22.361275 3.306827e-33 2.381753e-20)
(22.361265 -2.3376184e-20 0)
(22.361259 2.3434127e-20 0)
(22.361263 -2.4229251e-20 0)
(22.361269 -2.5203331e-20 2.5203331e-20)
(22.361272 2.5273887e-20 7.0108722e-33)
(22.36127 0 -2.4694434e-20)
(22.361265 -2.3003325e-20 0)
(22.361262 -2.0776571e-20 0)
(22.361262 1.7619179e-20 1.7619179e-20)
(22.361261 1.2184542e-20 -1.7315276e-36)
(22.361263 0 -8.2161457e-21)
(22.361269 8.4794285e-21 0)
(22.361275 -9.2275346e-21 0)
(22.361279 -6.9648951e-21 6.9648951e-21)
(22.361283 2.913751e-21 8.0826255e-34)
(22.361289 1.5476827e-22 2.1499031e-35)
(22.361296 5.2012457e-34 2.6006228e-34)
(22.361303 3.372069e-21 1.124023e-21)
(22.361311 -3.7836927e-51 -1.2032494e-21)
(22.361319 -1.2289743e-21 3.4108705e-34)
(22.361327 -2.397269e-21 -3.3266661e-34)
(22.361334 5.8798092e-34 2.9399046e-34)
(22.361342 1.4546537e-21 7.2732684e-22)
(22.361349 -3.5376683e-22 0)
(22.361356 4.4622429e-23 0)
(22.361363 2.1582987e-22 2.1582987e-22)
(22.36137 4.7480499e-22 -3.4387391e-49)
(22.361376 -1.6558245e-21 -8.2791223e-22)
(22.361382 0 0)
(22.361388 0 0)
(22.361393 3.9254337e-21 1.9627168e-21)
(22.361398 -2.9847354e-49 -5.9694708e-49)
(22.361403 -6.393318e-21 -3.196659e-21)
(22.361407 0 0)
(22.361411 0 0)
(22.361415 9.3680281e-21 4.6840141e-21)
(22.361419 -3.2576822e-49 -6.5153645e-49)
(22.361421 -1.2486037e-20 -6.2430183e-21)
(22.361423 0 0)
(22.361424 0 0)
(22.361426 1.9035633e-20 9.5178164e-21)
(22.361428 1.0937709e-20 -1.554342e-36)
(22.36143 -2.3661825e-20 -1.1830912e-20)
(22.361432 -1.1954106e-20 1.1954106e-20)
(22.361431 0 -3.2196718e-33)
(22.361429 2.1929801e-20 3.0462929e-33)
(22.361429 -5.6620662e-33 -2.8310331e-33)
(22.361431 -2.024851e-20 -1.0124255e-20)
(22.361433 9.7668355e-21 0)
(22.361435 0 0)
(22.361438 -7.5306239e-21 0)
(22.361438 6.265308e-21 0)
(22.361438 -7.5357225e-37 0)
(22.361439 -5.1934215e-21 5.1934215e-21)
(22.36144 4.9721818e-21 -1.3799693e-33)
(22.361439 -4.2729638e-21 -4.2729638e-21)
(22.361439 -3.2290307e-21 0)
(22.36144 2.4571808e-21 0)
(22.361441 2.1125968e-21 0)
(22.361442 -6.4594821e-34 0)
(22.361443 -2.2603086e-21 0)
(22.361443 1.3805223e-21 0)
(22.361443 2.3474501e-34 0)
(22.361444 -1.2173032e-21 1.2173032e-21)
(22.361447 2.1315536e-21 -1.1831742e-33)
(22.36145 -3.0772305e-21 -3.0772305e-21)
(22.36145 -3.3047573e-21 0)
(22.361445 3.2604386e-21 0)
(22.361438 3.9708409e-21 0)
(22.361439 -1.3688578e-33 0)
(22.36144 -4.9239995e-21 0)
(22.361441 4.7496516e-21 0)
(22.361442 -6.7950445e-37 0)
(22.36144 -5.0294633e-21 5.0294633e-21)
(22.361439 5.9169063e-21 -1.6421663e-33)
(22.36144 -6.6048806e-21 -6.6048806e-21)
(22.36144 -6.2138262e-21 0)
(22.361438 5.1321104e-21 0)
(22.361437 9.5524783e-21 4.7762392e-21)
(22.361438 -2.7935001e-33 -1.3967501e-33)
(22.361438 -9.2856032e-21 -4.6428016e-21)
(22.361437 3.350414e-21 0)
(22.361436 -3.3612776e-37 0)
(22.361436 -4.3797903e-21 0)
(22.361436 -5.7869953e-37 2.036118e-21)
(22.361436 1.0790695e-21 2.9978946e-34)
(22.361434 0 4.1949935e-22)
(22.361433 1.5156133e-21 0)
(22.361434 0 0)
(22.361434 -2.0553568e-21 0)
(22.361435 0 0)
(22.361436 0 0)
(22.361438 0 0)
(22.361437 -5.0596897e-21 0)
(22.361436 -4.5859612e-51 -5.2127812e-21)
(22.361438 5.1699383e-21 7.3469243e-37)
(22.36144 0 5.5175764e-21)
(22.361439 5.8772318e-21 0)
(22.361438 -1.600657e-33 0)
(22.361439 -5.7088743e-21 0)
(22.361441 0 0)
(22.361441 0 0)
(22.361441 0 0)
(22.361443 -5.8005083e-21 0)
(22.361443 1.5668732e-33 -5.6427276e-21)
(22.361442 5.4472471e-21 -7.7410037e-37)
(22.361441 0 4.9766081e-21)
(22.361443 4.2134414e-21 0)
(22.361442 1.1663927e-33 0)
(22.361439 -4.4496907e-21 0)
(22.361436 0 -3.8570586e-21)
(22.361437 3.018333e-21 1.6758331e-33)
(22.361436 -3.0098613e-21 3.0098613e-21)
(22.361433 1.9328687e-33 0)
(22.361429 3.8820709e-21 -3.8820709e-21)
(22.361427 -3.652008e-21 -1.0146089e-33)
(22.361426 0 3.0083196e-21)
(22.361425 -2.7647871e-21 0)
(22.361424 -8.2929352e-34 0)
(22.361422 3.102744e-21 -3.102744e-21)
(22.361422 0 -2.979004e-21)
(22.361421 2.8531888e-21 2.8531888e-21)
(22.36142 -3.0141236e-21 3.0141236e-21)
(22.361417 -1.8743238e-33 0)
(22.361413 3.6053272e-21 0)
(22.361412 -2.0421475e-33 0)
(22.36141 -5.2682056e-37 0)
(22.361408 1.0857516e-33 3.9080806e-21)
(22.361404 -6.0227204e-37 -6.0227204e-37)
(22.361403 -4.421831e-21 -8.8436621e-21)
(22.361402 0 -4.4667319e-21)
(22.3614 4.7386471e-21 9.4772943e-21)
(22.361396 -1.420019e-33 1.023297e-20)
(22.361393 -1.2936536e-33 -4.6611767e-21)
(22.361394 -1.7887227e-50 -4.3338982e-21)
(22.361392 -1.3762821e-33 0)
(22.36139 0 0)
(22.361386 -1.2389326e-20 0)
(22.361384 -1.7151996e-33 0)
(22.361384 5.4995929e-21 -5.4995929e-21)
(22.361384 -5.1960594e-21 -1.4435807e-33)
(22.361383 1.5736194e-33 5.6699244e-21)
(22.361381 6.2342662e-21 0)
(22.361379 6.471127e-21 0)
(22.361375 1.8082149e-33 0)
(22.361374 -1.7675102e-33 0)
(22.361374 5.7824252e-21 0)
(22.361373 -5.6759437e-21 0)
(22.36137 -6.1251161e-21 0)
(22.361366 0 0)
(22.361364 -6.2385614e-21 0)
(22.361363 1.4861563e-33 0)
(22.361363 4.9217752e-21 0)
(22.361363 0 0)
(22.361361 0 0)
(22.361358 0 0)
(22.361354 -1.189109e-20 -5.9455449e-21)
(22.361354 6.0923301e-33 3.0461651e-33)
(22.361353 1.0351515e-20 5.1757574e-21)
(22.361352 0 0)
(22.361349 0 0)
(22.361346 0 5.9622694e-21)
(22.361343 0 -1.6173676e-33)
(22.361343 0 7.8289113e-37)
(22.361342 0 -5.3378722e-21)
(22.36134 0 -5.4389633e-21)
(22.361337 -1.1314638e-20 -3.1410459e-33)
(22.361335 3.1546725e-33 1.5773362e-33)
(22.361334 1.098555e-20 5.4927748e-21)
(22.361332 5.3848599e-21 0)
(22.36133 -5.4438999e-21 0)
(22.361328 -5.4625349e-21 0)
(22.361326 1.4761698e-33 0)
(22.361324 2.9032548e-33 0)
(22.361321 5.2689305e-21 -5.2689305e-21)
(22.361318 -5.2810172e-21 2.9321163e-33)
(22.361316 5.1770834e-21 5.1770834e-21)
(22.361314 5.0266821e-21 0)
(22.361313 -4.9063031e-21 0)
(22.361312 -4.7593822e-21 0)
(22.36131 2.6014143e-33 0)
(22.361308 4.7564134e-21 0)
(22.361306 4.8583107e-21 0)
(22.361304 -1.3483924e-33 0)
(22.361302 -4.7715403e-21 -4.7715403e-21)
(22.3613 -4.7802228e-21 2.6533869e-33)
(22.361297 4.864427e-21 4.864427e-21)
(22.361294 4.9079476e-21 0)
(22.361292 -4.8388124e-21 0)
(22.361291 4.6803343e-21 0)
(22.36129 0 0)
(22.361288 -4.8878648e-21 0)
(22.361285 -5.1045868e-21 0)
(22.361283 1.4375642e-33 0)
(22.361281 5.1733698e-21 -5.1733698e-21)
(22.361279 -5.1933922e-21 4.324829e-33)
(22.361277 5.2093925e-21 5.2093925e-21)
(22.361275 5.2163651e-21 0)
(22.361273 -5.2276686e-21 0)
(22.36127 5.2894344e-21 0)
(22.361269 1.4629592e-33 0)
(22.361268 -5.0725268e-21 0)
(22.361267 -5.0304319e-21 0)
(22.361266 -7.4323394e-37 0)
(22.361263 1.0905363e-20 0)
(22.361261 3.0632859e-33 -5.517266e-21)