-1.25 	300 	0.1183454856665214 	101372.5528258148
-1.247497497497497 	300.0372056560652 	0.1111245440797337 	101370.470793854
-1.244994994994995 	300.0354719380069 	0.1017184288183805 	101366.9349583886
-1.242492492492492 	300.0319223947263 	0.09300557652691946 	101362.7395971897
-1.23998998998999 	300.027757935595 	0.08019273097476594 	101357.8192153889
-1.237487487487487 	300.0230997538247 	0.06683395536339486 	101352.3110608845
-1.234984984984985 	300.0181132166245 	0.05233009247726404 	101346.4150855757
-1.232482482482482 	300.0127709067534 	0.03688555682682526 	101340.0986544563
-1.22997997997998 	300.0071840478577 	0.02073313936978875 	101333.493342735
-1.227477477477477 	300.0014850484567 	0.00817345064355111 	101326.7557882626
-1.224974974974975 	299.9957741811978 	0.01223288412879499 	101320.0045095234
-1.222472472472472 	299.9901053007818 	0.02866255695437344 	101313.3032041185
-1.21996996996997 	299.9845704261525 	0.04466809261815542 	101306.7606223811
-1.217467467467467 	299.9793322404114 	0.05983376707767671 	101300.5689789687
-1.214964964964965 	299.9744648680823 	0.0738987814405215 	101294.8158833805
-1.212462462462462 	299.9700284899442 	0.08666908923866302 	101289.572386897
-1.20995995995996 	299.9661635037606 	0.09784040554754331 	101285.0043924693
-1.207457457457457 	299.9629743148417 	0.1070704292155452 	101281.2352266031
-1.204954954954955 	299.9604816487848 	0.1142671384792176 	101278.2892797828
-1.202452452452452 	299.9587000842456 	0.1193931523872127 	101276.1837093652
-1.19994994994995 	299.9576659284558 	0.1223663168174078 	101274.9614711163
-1.197447447447447 	299.9574056284852 	0.1231500062912874 	101274.6538190884
-1.194944944944945 	299.9579283831962 	0.1216489274451558 	101275.2715556049
-1.192442442442442 	299.959248717762 	0.1178078150145958 	101276.8318478629
-1.18993993993994 	299.961363694996 	0.111677022211749 	101279.33123338
-1.187437437437437 	299.964214867485 	0.1034433424835089 	101282.7007580146
-1.184934934934935 	299.9677111860624 	0.09334756913399783 	101286.8328396469
-1.182432432432432 	299.9717775748991 	0.0815734534307945 	101291.63882911
-1.17992992992993 	299.9763383941007 	0.06836859902227577 	101297.0294055878
-1.177427427427427 	299.9813117892087 	0.05396155685494049 	101302.9078210268
-1.174924924924925 	299.9866289414928 	0.03859489226281317 	101309.1928579924
-1.172422422422422 	299.9921923240656 	0.02258022931941059 	101315.7692380938
-1.16991991991992 	299.997857025858 	0.007813630311875834 	101322.4657316551
-1.167417417417417 	300.0035419494739 	0.01027127618856044 	101329.186471259
-1.164914914914915 	300.0091978075357 	0.02661177836815281 	101335.8731261637
-1.162412412412412 	300.0147230942922 	0.04259752518807934 	101342.4057628097
-1.15990990990991 	300.0200067419973 	0.05785100540982901 	101348.6529771729
-1.157407407407407 	300.0249307320703 	0.07207817565095187 	101354.4752265647
-1.154904904904904 	300.0293795764088 	0.08496031192617501 	101359.7358856826
-1.152402402402403 	300.0332699087821 	0.09620738877914348 	101364.3362482807
-1.1498998998999 	300.0365374340533 	0.1056564597792973 	101368.200293217
-1.147397397397397 	300.0391369037765 	0.1131662967614346 	101371.2743915205
-1.144894894894895 	300.0410450790177 	0.1186507593582976 	101373.5310583495
-1.142392392392392 	300.0422159896624 	0.1219961383785859 	101374.9158777531
-1.13988988988989 	300.042601186068 	0.1230992965179343 	101375.3714354043
-1.137387387387387 	300.0421758148569 	0.121865493019939 	101374.8684439698
-1.134884884884885 	300.0409288797779 	0.1182534570621009 	101373.3939185934
-1.132382382382382 	300.0388953233764 	0.112414468608614 	101370.9891790262
-1.12987987987988 	300.0361634257035 	0.1045131564864569 	101367.7586204602
-1.127377377377377 	300.0327857657109 	0.09474982894198036 	101363.764468793
-1.124874874874875 	300.0288084137036 	0.0832934232747912 	101359.0613241736
-1.122372372372372 	300.0243033208405 	0.07023492881808396 	101353.7342783426
-1.11986986986987 	300.0193450601628 	0.05585649726543064 	101347.8716420559
-1.117367367367367 	300.0140267172269 	0.04048290697386861 	101341.5835038104
-1.114864864864865 	300.0084844634328 	0.02444027150344264 	101335.030875753
-1.112362362362362 	300.0028091261411 	0.008077702991537112 	101328.3212344279
-1.10985985985986 	299.9970942503335 	0.009124447038483906 	101321.5651314701
-1.107357357357357 	299.9914035883203 	0.02493798225165354 	101314.8380073434
-1.104854854854855 	299.9858224715222 	0.0410555630577521 	101308.2406784705
-1.102352352352353 	299.980495745754 	0.05644317285235134 	101301.9443018923
-1.09984984984985 	299.9755461188054 	0.070738902320417 	101296.0939381218
-1.097347347347347 	299.9710663452341 	0.08368700475560832 	101290.7990929292
-1.094844844844845 	299.9671239653251 	0.09512317508593825 	101286.1396035003
-1.092342342342342 	299.9637670105092 	0.1048187731551133 	101282.1721380648
-1.08983983983984 	299.961057612226 	0.1126140998852092 	101278.9700296462
-1.087337337337337 	299.9590722152816 	0.1183243619151351 	101276.6235921203
-1.084834834834835 	299.9578667926348 	0.1217938642289546 	101275.1989087434
-1.082332332332332 	299.9574662637201 	0.1229733860895409 	101274.7255373211
-1.07982982982983 	299.957868509811 	0.1218082013142094 	101275.2008897079
-1.077327327327327 	299.9590474159742 	0.1183813883545557 	101276.5940117347
-1.074824824824825 	299.9609792040798 	0.1127881390890095 	101278.8769252346
-1.072322322322323 	299.9636312026329 	0.1051354433076203 	101282.0110435719
-1.06981981981982 	299.9669464726599 	0.09557319416816781 	101285.9291208304
-1.067317317317317 	299.9708661822129 	0.08421459393075444 	101290.5617359471
-1.064814814814815 	299.9753218748418 	0.07132724884145644 	101295.8279864046
-1.062312312312312 	299.9802188130949 	0.05716205196844851 	101301.61599117
-1.05980980980981 	299.9854619181704 	0.04201240781128516 	101307.8134445804
-1.057307307307307 	299.990943942494 	0.02620516497908457 	101314.2935806443
-1.054804804804805 	299.9965496084102 	0.009945623490170209 	101320.9202231078
-1.052302302302302 	300.0022183776001 	0.009012066684923051 	101327.6217672036
-1.0497997997998 	300.0078853695098 	0.02283190244710533 	101334.3215207943
-1.047297297297297 	300.013430485579 	0.03887758121128915 	101340.8775316415
-1.044794794794795 	300.0187350595824 	0.05417678970367624 	101347.1494159675
-1.042292292292292 	300.0236862096945 	0.06849446181652311 	101353.0037248179
-1.03978978978979 	300.0282047715116 	0.08156665574220445 	101358.3467427209
-1.037287287287287 	300.0322288772885 	0.09318382477842177 	101363.1052570371
-1.034784784784785 	300.0356802249996 	0.1031713579794021 	101367.1866414178
-1.032282282282283 	300.0384806790943 	0.1112639448427776 	101370.4983868967
-1.02977977977978 	300.0405829583655 	0.1173127755803588 	101372.9846029001
-1.027277277277277 	300.0419262503115 	0.1211753338343827 	101374.5732496227
-1.024774774774775 	300.0424794729168 	0.122774791433163 	101375.2275449971
-1.022272272272272 	300.0422341395984 	0.1220738917866999 	101374.9374428897
-1.01976976976977 	300.0411926798777 	0.1190457983049578 	101373.7058860644
-1.017267267267267 	300.0393774489989 	0.1138096067895578 	101371.5593470632
-1.014764764764765 	300.0368455999003 	0.1064588945263098 	101368.5653336925
-1.012262262262262 	300.033625849989 	0.09717046702465457 	101364.7579089695
-1.00975975975976 	300.0297873925465 	0.08611822713541757 	101360.2189749571
-1.007257257257257 	300.0254059401207 	0.07342095026504324 	101355.0380811482
-1.004754754754755 	300.0205578672711 	0.05937171534366022 	101349.3056826002
-1.002252252252252 	300.0153232032658 	0.04424353146051736 	101343.1164091139
-0.9997497497497498 	300.009818270527 	0.02831439351412752 	101336.607852096
-0.9972472472472473 	300.004125503979 	0.01192604067098493 	101329.8775340043
-0.9947447447447449 	299.9983844959543 	0.008946422803064522 	101323.0904712615
-0.9922422422422421 	299.9926763578729 	0.02125979118469468 	101316.342607884
-0.9897397397397399 	299.9870861649079 	0.03740659036094526 	101309.7344709772
-0.9872372372372376 	299.9817327908902 	0.05288473124960184 	101303.4065511862
-0.9847347347347346 	299.976711399582 	0.06737758305014535 	101297.4712968719
-0.9822322322322323 	299.9721113604252 	0.08065958221265529 	101292.0342772905
-0.9797297297297296 	299.9680135758553 	0.09252187167808637 	101287.1910678395
-0.9772272272272275 	299.9644964902996 	0.1026474052725386 	101283.0343100853
-0.9747247247247248 	299.9616468703607 	0.1108751051877201 	101279.6664912771
-0.9722222222222224 	299.9595307071224 	0.1169869659800154 	101277.1655022989
-0.9697197197197196 	299.9581819738912 	0.1208874323150513 	101275.571454861
-0.9672172172172175 	299.9576164059544 	0.1225594528382078 	101274.9030324928
-0.9647147147147147 	299.9578325777285 	0.1219207454329985 	101275.1584696147
-0.9622122122122124 	299.9588213676264 	0.1190469033280834 	101276.3269434393
-0.9597097097097099 	299.9605756814153 	0.1139566844612872 	101278.4001002309
-0.9572072072072073 	299.9630612444797 	0.1067667505418457 	101281.337514499
-0.9547047047047047 	299.9662227375624 	0.09763178917575729 	101285.0738384155
-0.9522022022022023 	299.9700029083642 	0.08667407097059926 	101289.5414747933
-0.9496996996996998 	299.9743303999037 	0.07417093248087822 	101294.6561816298
-0.9471971971971973 	299.9791199164645 	0.06030776417198421 	101300.3171659274
-0.9446946946946947 	299.9842860994523 	0.04539245083553059 	101306.4236265555
-0.9421921921921923 	299.9897157107645 	0.02973476229641209 	101312.8417562189
-0.93968968968969 	299.9952926230156 	0.0135756073439897 	101319.4343140048
-0.9371871871871872 	300.0009270857514 	0.008301783204268078 	101326.095242771
-0.9346846846846848 	300.0065466707037 	0.01897813269018236 	101332.738884887
-0.9321821821821823 	300.0120622542536 	0.03495306046129668 	101339.2598880538
-0.9296796796796799 	300.0173859138487 	0.05031036758032285 	101345.5542809964
-0.9271771771771771 	300.0224133716836 	0.0648469873119516 	101351.4987217997
-0.9246746746746748 	300.0270571799739 	0.07824043650268242 	101356.989784346
-0.9221721721721724 	300.0312214008711 	0.09027335314470684 	101361.9139526483
-0.9196696696696698 	300.0348156990066 	0.1006835209625245 	101366.1643291664
-0.9171671671671672 	300.0377687428226 	0.109209554372831 	101369.6565214614
-0.9146646646646649 	300.040036984462 	0.1157439208586513 	101372.3389539557
-0.9121621621621623 	300.0415623003909 	0.1201357899515519 	101374.142865218
-0.9096596596596597 	300.0423162471754 	0.1223231238196349 	101375.0345660198
-0.9071571571571573 	300.0422712993261 	0.1222080208956484 	101374.9814052824
-0.9046546546546547 	300.0414278048434 	0.1197519538225452 	101373.9839728389
-0.9021521521521524 	300.0398096244583 	0.1150598542462241 	101372.0704435875
-0.8996496496496498 	300.0374631914377 	0.108236115944263 	101369.2956976667
-0.8971471471471473 	300.0344187408317 	0.09945711478714796 	101365.6955606097
-0.894644644644645 	300.0307402858076 	0.08884377792404946 	101361.3457813456
-0.892142142142142 	300.0264817436454 	0.07651883585440998 	101356.3102073899
-0.8896396396396397 	300.0217172322252 	0.06272965462215667 	101350.6765504351
-0.8871371371371374 	300.0165382048205 	0.04776151353430609 	101344.5530013825
-0.8846346346346349 	300.0110662150771 	0.03195177141544037 	101338.0833387534
-0.8821321321321324 	300.0054098908525 	0.01565015806797989 	101331.3960139032
-0.8796296296296297 	299.9996995406169 	0.007834791785919124 	101324.6451391003
-0.8771271271271271 	299.9939982291942 	0.01743656561337174 	101317.9052719236
-0.8746246246246248 	299.9883837264296 	0.03366752466067252 	101311.2683269712
-0.8721221221221224 	299.9829633074951 	0.04932720251946764 	101304.8610992585
-0.8696196196196196 	299.9778477717393 	0.06407855896856073 	101298.8144909172
-0.8671171171171175 	299.973141380689 	0.07767542267379152 	101293.2517295635
-0.8646146146146148 	299.9689294964498 	0.08986202949370881 	101288.2736367343
-0.8621121121121121 	299.9652890920187 	0.1003519822920538 	101283.9711022415
-0.8596096096096097 	299.9623035478437 	0.1089781107600934 	101280.4426217486
-0.857107107107107 	299.9600343446496 	0.1155235791785345 	101277.7607561878
-0.8546046046046049 	299.9585233199127 	0.119906269382814 	101275.9749108269
-0.8521021021021022 	299.9577904801986 	0.1220579242920719 	101275.1088024126
-0.8495995995995997 	299.9578362913186 	0.1219149488083466 	101275.1629169118
-0.8470970970970974 	299.9586528966196 	0.1195376951981547 	101276.1279105916
-0.8445945945945946 	299.9602332806214 	0.1149463944974672 	101277.9954951855
-0.8420920920920922 	299.9625403387313 	0.1082712641379516 	101280.72195422
-0.8395895895895897 	299.9655315046006 	0.09961750903684571 	101284.256955107
-0.8370870870870872 	299.9691592620091 	0.08911012402817436 	101288.5444420694
-0.8345845845845846 	299.9733599125993 	0.07697489654419855 	101293.5091837821
-0.8320820820820823 	299.978048663635 	0.06341000189621643 	101299.0510010191
-0.8295795795795798 	299.9831313717971 	0.04875364563777689 	101305.0587532745
-0.8270770770770772 	299.988482114192 	0.03331151545599621 	101311.3835818916
-0.8245745745745746 	299.9939940889639 	0.0173511301402691 	101317.8993175221
-0.8220720720720721 	299.9995778135153 	0.006723084761559769 	101324.5001867463
-0.8195695695695699 	300.0051693281349 	0.01500259978582172 	101331.1105474845
-0.817067067067067 	300.0106961658674 	0.03101127536128871 	101337.6447957664
-0.8145645645645651 	300.0160652741229 	0.04649193735142542 	101343.9928396855
-0.8120620620620621 	300.0211577029868 	0.06122854065888955 	101350.0140450837
-0.8095595595595597 	300.0258931591117 	0.07488894007972588 	101355.6134190774
-0.8070570570570572 	300.0301718574444 	0.08724057897049609 	101360.6728861669
-0.8045545545545546 	300.033903265685 	0.09804369288643905 	101365.0853826286
-0.8020520520520523 	300.0370148919475 	0.1070105681087175 	101368.7650636466
-0.7995495495495494 	300.039454731796 	0.1140369794620266 	101371.65042355
-0.7970470470470474 	300.0411540476724 	0.1189652892176463 	101373.6600934502
-0.7945445445445446 	300.0420979322874 	0.1217053430025563 	101374.7764004853
-0.7920420420420423 	300.0422534638289 	0.1221774632378389 	101374.9603599087
-0.7895395395395397 	300.041621066621 	0.1203232205411581 	101374.212533013
-0.7870370370370371 	300.040216792027 	0.1162424525791739 	101372.551972083
-0.7845345345345348 	300.0380727981674 	0.1099937037195722 	101370.0166218997
-0.7820320320320323 	300.0351970354902 	0.1017137968011352 	101366.6159442538
-0.7795295295295296 	300.0316612401366 	0.09149419658821183 	101362.4348531716
-0.7770270270270272 	300.0275120908145 	0.07946974698682467 	101357.5285730232
-0.7745245245245247 	300.0228371506608 	0.06596198513310739 	101352.0007921838
-0.7720220220220222 	300.0177347856963 	0.05123239264736359 	101345.9678295148
-0.7695195195195199 	300.0123249337737 	0.03561260654012359 	101339.5715584002
-0.767017017017017 	300.0067060291983 	0.01943142378160913 	101332.9284285708
-0.7645145145145147 	300.001021398642 	0.005900767697406903 	101326.2078623914
-0.7620120120120122 	299.9953196461855 	0.01361710101952916 	101319.4674173303
-0.7595095095095097 	299.9896761198506 	0.02992081084908615 	101312.7960928219
-0.7570070070070072 	299.984204958243 	0.04574827737711136 	101306.3288022879
-0.7545045045045048 	299.9790167241333 	0.06073813586331898 	101300.1962363952
-0.7520020020020022 	299.9742089096822 	0.07461366740224797 	101294.5135178662
-0.7494994994994997 	299.9698709374272 	0.0871247855020634 	101289.3863668145
-0.7469969969969972 	299.9660962646538 	0.09797709778210821 	101284.9251219673
-0.7444944944944945 	299.9629767187304 	0.1070127012200721 	101281.2382347932
-0.7419919919919924 	299.9605674101775 	0.113994127146851 	101278.3908206478
-0.7394894894894897 	299.9589022434438 	0.1188125242659034 	101276.4227779021
-0.7369869869869872 	299.957999916646 	0.1214458137710813 	101275.3563511932
-0.7344844844844846 	299.95786789441 	0.1218144954521574 	101275.200326567
-0.7319819819819822 	299.9585072194091 	0.1199862408020836 	101275.9557953739
-0.7294794794794797 	299.9599098981454 	0.1159263000858942 	101277.6134065402
-0.7269769769769773 	299.9620425303353 	0.1097030964843407 	101280.1336757684
-0.7244744744744747 	299.9648773685366 	0.1014756816989631 	101283.4839155065
-0.721971971971972 	299.9683728522794 	0.09134762095508932 	101287.6150619732
-0.7194694694694695 	299.9724582506417 	0.07958165353316397 	101292.443526128
-0.7169669669669674 	299.9770390308341 	0.06634315224674973 	101297.8577124001
-0.7144644644644647 	299.9820189539574 	0.05194566985866866 	101303.7438885647
-0.711961961961962 	299.9872851587021 	0.03674374621277959 	101309.9687410223
-0.7094594594594597 	299.9927451067266 	0.02096465835036479 	101316.4229192206
-0.7069569569569573 	299.9982936356446 	0.004967345707291215 	101322.9820846139
-0.7044544544544545 	300.0038480302072 	0.01140099934214788 	101329.5485149441
-0.7019519519519523 	300.0093578514972 	0.0271676008984658 	101336.0625463585
-0.6994494494494495 	300.0147421120083 	0.04270865997764452 	101342.4284451674
-0.6969469469469471 	300.0198917708146 	0.05760476100508994 	101348.5172570008
-0.6944444444444446 	300.0247192205897 	0.07148627044592609 	101354.2253245517
-0.6919419419419421 	300.0291029730411 	0.08416237268121697 	101359.4089866253
-0.6894394394394396 	300.0329590027667 	0.09536463181682568 	101363.9687852063
-0.6869369369369374 	300.0362219992917 	0.1047256472778117 	101367.8274601098
-0.6844344344344344 	300.0388270552445 	0.1122114090251483 	101370.9081775158
-0.6819319319319321 	300.0407055866924 	0.1176286109825589 	101373.1297626323
-0.6794294294294296 	300.0418399689973 	0.1209290813125412 	101374.4713681361
-0.6769269269269272 	300.0421921157709 	0.1220349224641654 	101374.8878407066
-0.6744244244244245 	300.0417672566674 	0.1207737893775821 	101374.3854336074
-0.6719219219219222 	300.0405683098564 	0.1172663641438657 	101372.9676925411
-0.6694194194194195 	300.0386021775305 	0.1115357473224892 	101370.6426667242
-0.6669169169169172 	300.0358898584717 	0.1037548565875336 	101367.4352746887
-0.6644144144144146 	300.0325171638117 	0.0940253823386915 	101363.4469977414
-0.661911911911912 	300.028522499133 	0.08240437377947524 	101358.7233961118
-0.6594094094094097 	300.0239884062362 	0.0692669109737387 	101353.3620945316
-0.656906906906907 	300.0189956347939 	0.05480874461593817 	101347.4586458509
-0.6544044044044046 	300.0136430875593 	0.0394064249894077 	101341.1300903558
-0.6519019019019021 	300.0080474967031 	0.02336088829940421 	101334.5144099894
-0.6493993993993996 	300.0023709967474 	0.00683922351303887 	101327.8034285803
-0.6468968968968971 	299.9966624480047 	0.01101576586181076 	101321.0548511335
-0.6443943943943946 	299.9909855245347 	0.02610985197573417 	101314.343967196
-0.6418918918918921 	299.9854533826468 	0.04210604983192463 	101307.8045620937
-0.6393893893893897 	299.9801849705218 	0.05729108296088186 	101301.5771170795
-0.6368868868868871 	299.9752926869972 	0.07146370220916053 	101295.7945502065
-0.6343843843843846 	299.9708613774665 	0.08427629599900527 	101290.5570238981
-0.6318818818818821 	299.9669760423823 	0.0954733841515215 	101285.9649375751
-0.6293793793793795 	299.9637192873751 	0.1049010821531705 	101282.1159046478
-0.6268768768768773 	299.9611478947296 	0.1123044776104379 	101279.0768723103
-0.6243743743743745 	299.9593012582881 	0.117644365375851 	101276.8943681484
-0.6218718718718721 	299.9582177022709 	0.1207864216260807 	101275.6136541448
-0.6193693693693696 	299.9579109160192 	0.1216550955238136 	101275.2511680706
-0.6168668668668671 	299.9583880276467 	0.1202851089766458 	101275.8150099169
-0.6143643643643645 	299.9596376259682 	0.1166567661134789 	101277.2916755219
-0.6118618618618621 	299.9616200478287 	0.110938803951743 	101279.6344507767
-0.6093593593593596 	299.9642910800718 	0.1031978658173909 	101282.7910831374
-0.6068568568568571 	299.9676226867506 	0.09355941927188355 	101286.7285056146
-0.6043543543543546 	299.9715538015178 	0.08221464574396019 	101291.3746131079
-0.6018518518518521 	299.9760070947628 	0.06930755310569831 	101296.6380489378
-0.5993493493493496 	299.980885749416 	0.05522093966972356 	101302.4044898737
-0.5968468468468471 	299.9860758134815 	0.04022780049373741 	101308.5392795246
-0.5943443443443446 	299.9914668731795 	0.02462374730900421 	101314.9119324508
-0.591841841841842 	299.9969731371919 	0.008739947523065058 	101321.4210813328
-0.5893393393393397 	300.0024989357609 	0.009631707659518313 	101327.9536179016
-0.5868368368368371 	300.0080084201114 	0.02322923673019701 	101334.4671838236
-0.5843343343343346 	300.0134174936949 	0.03885202910713809 	101340.8623410052
-0.5818318318318321 	300.0186207063534 	0.05389896796405125 	101347.0143886594
-0.5793293293293297 	300.0235182658938 	0.0680333245886222 	101352.8053041052
-0.5768268268268271 	300.0280022432009 	0.08099115597589775 	101358.1074171697
-0.5743243243243245 	300.0319774050176 	0.09248070931630217 	101362.8080575672
-0.5718218218218221 	300.0353676560842 	0.1022664405265025 	101366.8171740113
-0.5693193193193196 	300.0381162529559 	0.110211807250537 	101370.0676096243
-0.5668168168168171 	300.0401824183095 	0.1161761385072627 	101372.5110818239
-0.5643143143143147 	300.041532650908 	0.1200683244879174 	101374.1079346312
-0.5618118118118121 	300.0421232529457 	0.1217690650947101 	101374.8064442225
-0.5593093093093094 	300.0419198459154 	0.1211663734174683 	101374.5658873916
-0.5568068068068072 	300.0409067414182 	0.1182280450109246 	101373.3679188514
-0.5543043043043046 	300.0390965446101 	0.1129894605627248 	101371.2273143964
-0.551801801801802 	300.036534425541 	0.1055897931955275 	101368.1975161695
-0.5492992992992995 	300.0332843478525 	0.09619188770557105 	101364.3542383947
-0.5467967967967969 	300.0294115149151 	0.08499136211532662 	101359.7746573653
-0.5442942942942947 	300.0249937859162 	0.07221775716300752 	101354.5509181601
-0.5417917917917919 	300.0201122142683 	0.05809369630939276 	101348.7789091104
-0.5392892892892895 	300.0148525760285 	0.04289864797854992 	101342.5601250612
-0.536786786786787 	300.0093202217531 	0.02691909252371049 	101336.0191814061
-0.5342842842842846 	300.0036333963745 	0.01047109040449239 	101329.2959014571
-0.531781781781782 	299.9979003280731 	0.009061185145645244 	101322.5182748219
-0.5292792792792794 	299.9922195299887 	0.02253057990948197 	101315.8027449197
-0.526776776776777 	299.9866900434075 	0.03851884149678988 	101309.266381059
-0.5242742742742745 	299.9813976163404 	0.05382293082869151 	101303.0105318451
-0.521771771771772 	299.9764212119186 	0.06820661102991431 	101297.1284612067
-0.5192692692692695 	299.971850001636 	0.08140877862222856 	101291.7255394486
-0.516766766766767 	299.9677907835163 	0.09312373961763154 	101286.9279207131
-0.5142642642642645 	299.964356863976 	0.1030323696933628 	101282.8694470036
-0.511761761761762 	299.9616435061744 	0.110867689025657 	101279.6626681332
-0.5092592592592596 	299.9597053155761 	0.1164747508000292 	101277.3719965549
-0.506756756756757 	299.9585487510789 	0.1198307960031418 	101276.0050512102
-0.5042542542542544 	299.9581444130702 	0.1210113865614705 	101275.5272044388
-0.5017517517517521 	299.9584524858473 	0.1201232012896412 	101275.8912340232
-0.4992492492492494 	299.9594465235314 	0.1172378889874211 	101277.0659178989
-0.496746746746747 	299.9611258873774 	0.1123586536005 	101279.0505165876
-0.4942442442442445 	299.9635100581989 	0.1054367796680831 	101281.8681056731
-0.4917417417417421 	299.9666164697568 	0.09643386983669294 	101285.5393459993
-0.4892392392392395 	299.9704298071296 	0.08540407296157307 	101290.0461863785
-0.486736736736737 	299.9748769763549 	0.0725633536189127 	101295.3023454249
-0.4842342342342345 	299.9798195643399 	0.05830704753556366 	101301.1442920502
-0.481731731731732 	299.9850728949524 	0.0431533928763497 	101307.3538075521
-0.4792292292292296 	299.9904479788163 	0.0276334964061369 	101313.7075488291
-0.4767267267267268 	299.9958025036153 	0.01215361213033637 	101320.0372653145
-0.4742242242242246 	300.0010584149835 	0.006568514564156412 	101326.2506946523
-0.471721721721722 	300.0062147635306 	0.01802748379124364 	101332.3466863577
-0.4692192192192195 	300.0113084018055 	0.03279571834213946 	101338.3687852958
-0.4667167167167169 	300.0163707805086 	0.04745624899898024 	101344.3541936
-0.4642142142142145 	300.0213875681421 	0.06195861158438174 	101350.2859409333
-0.461711711711712 	300.0262747688205 	0.07605937305112401 	101356.0647246671
-0.4592092092092094 	300.0308785635855 	0.08931892788977108 	101361.5086449791
-0.456706706706707 	300.0349937342807 	0.1011528573472546 	101366.3749656272
-0.4542042042042045 	300.0383943324447 	0.110919139881302 	101370.3964509721
-0.451701701701702 	300.0408701598844 	0.1180214527239743 	101373.3244257573
-0.4491991991991995 	300.0422616572973 	0.122008297514098 	101374.9701192549
-0.4466966966966969 	300.0424871797193 	0.1226498849709818 	101375.2368552299
-0.4441941941941945 	300.0415574788859 	0.1199799338433272 	101374.1374609462
-0.441691691691692 	300.0395766523074 	0.1142969677121167 	101371.795130657
-0.4391891891891895 	300.0367286680454 	0.1061249213135816 	101368.427280304
-0.436686686686687 	300.033251079366 	0.09614046977161636 	101364.3149450818
-0.4341841841841846 	300.0294032790404 	0.08508231320600454 	101359.7649376552
-0.431681681681682 	300.0254338309057 	0.07365929581560433 	101355.0712151446
-0.4291791791791794 	300.021553303731 	0.0624748568579684 	101350.4827729694
-0.426676676676677 	300.0179187451129 	0.05198371160136507 	101346.1852934661
-0.4241741741741744 	300.0146324203105 	0.0424850246388535 	101342.2996661114
-0.421671671671672 	300.0117487172055 	0.03413992902292726 	101338.8901639481
-0.4191691691691694 	300.0092837387645 	0.02699856006543657 	101335.9757937217
-0.4166666666666669 	300.0072253393411 	0.0210288291840606 	101333.5421676866
-0.4141641641641645 	300.0055424471268 	0.01614327679280388 	101331.5525281204
-0.411661661661662 	300.004192999679 	0.0122220148436931 	101329.9571289751
-0.4091591591591594 	300.0031301992979 	0.009130883358979176 	101328.7006323517
-0.406656656656657 	300.0023070827876 	0.006734760589091355 	101327.7275085426
-0.4041541541541545 	300.0016795703484 	0.004906490736293662 	101326.9856396215
-0.401651651651652 	300.001208256538 	0.003532171170651772 	101326.4284367033
-0.3991491491491494 	300.0008592373805 	0.002513631862102326 	101326.015815322
-0.396646646646647 	300.0006042460546 	0.00176890592004043 	101325.7143571437
-0.3941441441441444 	300.0004203425753 	0.001231383251080678 	101325.4969411756
-0.3916416416416419 	300.0002893433781 	0.000848201936672842 	101325.3420703174
-0.3891391391391395 	300.000197136652 	0.0005782900925305524 	101325.2330608954
-0.3866366366366368 	300.0001329778956 	0.0003903440835595546 	101325.1572105778
-0.3841341341341344 	300.0000888295648 	0.0002609230342716859 	101325.1050170795
-0.381631631631632 	300.0000587762319 	0.0001727592512499544 	101325.0694872139
-0.3791291291291294 	300.0000385308783 	0.0001133259752240842 	101325.0455524495
-0.3766266266266269 	300.0000250303875 	7.366593704686555e-05 	101325.0295917178
-0.3741241241241244 	300.0000161161999 	4.746112553249802e-05 	101325.0190530753
-0.371621621621622 	300.000010286658 	3.031264765804682e-05 	101325.0121612113
-0.3691191191191194 	300.0000065099802 	1.919555669318926e-05 	101325.0076962952
-0.366616616616617 	300.0000040855527 	1.205427255487101e-05 	101325.0048300571
-0.3641141141141143 	300.000002542992 	7.507826701183948e-06 	101325.0030064739
-0.3616116116116119 	300.0000015701546 	4.638588793206487e-06 	101325.0018563636
-0.3591091091091095 	300.0000009618859 	2.843280577044645e-06 	101325.0011371867
-0.356606606606607 	300.0000005846475 	1.729319448484339e-06 	101325.0006912314
-0.3541041041041044 	300.0000003526855 	1.043784463128617e-06 	101325.0004169607
-0.3516016016016019 	300.0000002111721 	6.252909872145928e-07 	101325.0002496325
-0.3490990990990994 	300.000000125488 	3.718274836058434e-07 	101325.0001483517
-0.346596596596597 	300.0000000740977 	2.195062564349183e-07 	101325.000087522
-0.3440940940940944 	300.0000000434372 	1.28657178643673e-07 	101325.0000512648
-0.3415915915915919 	300.0000000252479 	7.48830181946565e-08 	101325.0000298151
-0.3390890890890895 	300.0000000145455 	4.328078919844918e-08 	101325.0000172185
-0.3365865865865869 	300.0000000083874 	2.484887986195503e-08 	101325.0000098743
-0.3340840840840844 	300.0000000047693 	1.416937361076634e-08 	101325.0000056228
-0.3315815815815819 	300.0000000027239 	8.029047549944504e-09 	101325.0000031786
-0.3290790790790794 	300.0000000015433 	4.518824213475148e-09 	101325.0000017832
-0.3265765765765769 	300.000000000753 	2.529922124592021e-09 	101325.0000009918
-0.3240740740740744 	300.0000000004615 	1.405187867613718e-09 	101325.000000546
-0.3215715715715718 	300.0000000002674 	7.792472753909571e-10 	101325.0000002965
-0.3190690690690695 	300.0000000000553 	4.268931780576267e-10 	101325.0000001578
-0.3165665665665668 	300.0000000000672 	2.361512123018452e-10 	101325.0000000814
-0.3140640640640644 	300.0000000000472 	1.26859031998852e-10 	101325.0000000395
-0.311561561561562 	299.9999999999279 	7.348767531054766e-11 	101325.0000000166
-0.3090590590590593 	300.0000000000023 	3.680543160517049e-11 	101325.000000004
-0.3065565565565568 	300.000000000009 	2.6425150365412e-11 	101324.9999999973
-0.3040540540540545 	300.0000000000147 	1.115165770839125e-11 	101324.9999999935
-0.3015515515515518 	300.0000000000504 	1.247908011805419e-11 	101324.9999999918
-0.2990490490490494 	299.9999999999358 	6.045967053040336e-12 	101324.9999999906
-0.2965465465465469 	299.9999999999818 	7.675145474098439e-12 	101324.9999999897
-0.2940440440440444 	299.9999999999995 	5.351466245436148e-12 	101324.9999999893
-0.2915415415415418 	300.0000000000046 	6.575147698261176e-12 	101324.999999989