/*--------------------------------*- C++ -*----------------------------------*\
  =========                 |
  \\      /  F ield         | OpenFOAM: The Open Source CFD Toolbox
   \\    /   O peration     | Website:  https://openfoam.org
    \\  /    A nd           | Version:  7
     \\/     M anipulation  |
\*---------------------------------------------------------------------------*/
FoamFile
{
    version     2.0;
    format      ascii;
    class       surfaceScalarField;
    location    "0.00201";
    object      phi;
}
// * * * * * * * * * * * * * * * * * * * * * * * * * * * * * * * * * * * * * //

dimensions      [1 0 -1 0 0 0 0];

internalField   nonuniform List<scalar> 
4999
(
-2.454467
-2.453516
-2.4525649
-2.4516138
-2.4506628
-2.4497117
-2.4487606
-2.4478096
-2.4468585
-2.4459074
-2.4449564
-2.4440053
-2.4430542
-2.4421032
-2.4411521
-2.440201
-2.43925
-2.4382989
-2.4373479
-2.4363968
-2.4354457
-2.4344947
-2.4335436
-2.4325926
-2.4316415
-2.4306904
-2.4297394
-2.4287883
-2.4278372
-2.4268862
-2.4259351
-2.4249841
-2.424033
-2.4230819
-2.4221309
-2.4211798
-2.4202288
-2.4192777
-2.4183266
-2.4173756
-2.4164245
-2.4154735
-2.4145224
-2.4135714
-2.4126203
-2.4116693
-2.4107183
-2.4097672
-2.4088162
-2.4078652
-2.4069142
-2.4059632
-2.4050123
-2.4040613
-2.4031104
-2.4021596
-2.4012088
-2.4002581
-2.3993075
-2.398357
-2.3974064
-2.396456
-2.3955055
-2.394555
-2.3936045
-2.3926538
-2.3917031
-2.3907522
-2.389801
-2.3888497
-2.3878982
-2.3869464
-2.3859945
-2.3850424
-2.3840901
-2.3831378
-2.3821852
-2.3812327
-2.3802801
-2.3793273
-2.3783746
-2.3774219
-2.376469
-2.3755164
-2.3745634
-2.3736107
-2.372658
-2.371705
-2.3707524
-2.3697994
-2.3688466
-2.3678939
-2.3669408
-2.3659884
-2.3650351
-2.3640826
-2.3631297
-2.3621765
-2.3612244
-2.3602705
-2.359319
-2.3583647
-2.3574134
-2.3564591
-2.3555076
-2.3545536
-2.3536017
-2.3526481
-2.3516958
-2.3507426
-2.3497899
-2.3488369
-2.3478841
-2.3469313
-2.3459784
-2.3450256
-2.3440726
-2.3431198
-2.3421669
-2.3412141
-2.3402612
-2.3393083
-2.3383554
-2.3374026
-2.3364497
-2.3354968
-2.3345439
-2.333591
-2.3326381
-2.3316852
-2.3307323
-2.3297795
-2.3288266
-2.3278737
-2.3269208
-2.3259679
-2.3250149
-2.324062
-2.3231091
-2.3221562
-2.3212033
-2.3202504
-2.3192975
-2.3183445
-2.3173916
-2.3164387
-2.3154858
-2.3145328
-2.3135799
-2.312627
-2.311674
-2.3107211
-2.3097681
-2.3088153
-2.3078623
-2.3069094
-2.3059564
-2.3050035
-2.3040505
-2.3030976
-2.3021445
-2.3011916
-2.3002386
-2.2992857
-2.2983327
-2.2973798
-2.2964268
-2.2954738
-2.2945208
-2.2935679
-2.2926149
-2.2916619
-2.2907089
-2.2897559
-2.2888029
-2.2878499
-2.2868969
-2.2859439
-2.2849909
-2.2840379
-2.2830849
-2.2821319
-2.2811789
-2.2802259
-2.2792729
-2.2783199
-2.2773669
-2.2764139
-2.2754609
-2.2745079
-2.2735549
-2.2726019
-2.2716489
-2.2706959
-2.269743
-2.2687901
-2.2678372
-2.2668843
-2.2659314
-2.2649786
-2.2640258
-2.263073
-2.2621202
-2.2611674
-2.2602147
-2.259262
-2.2583092
-2.2573565
-2.2564037
-2.255451
-2.2544981
-2.2535453
-2.2525924
-2.2516394
-2.2506863
-2.2497332
-2.24878
-2.2478267
-2.2468733
-2.2459198
-2.2449662
-2.2440125
-2.2430587
-2.2421048
-2.2411509
-2.2401968
-2.2392426
-2.2382884
-2.2373341
-2.2363797
-2.2354252
-2.2344707
-2.2335162
-2.2325615
-2.2316069
-2.2306522
-2.2296975
-2.2287428
-2.227788
-2.2268332
-2.2258784
-2.2249236
-2.2239687
-2.2230139
-2.222059
-2.2211042
-2.2201493
-2.2191944
-2.2182395
-2.2172846
-2.2163297
-2.2153748
-2.2144199
-2.213465
-2.2125101
-2.2115552
-2.2106002
-2.2096453
-2.2086904
-2.2077354
-2.2067805
-2.2058255
-2.2048706
-2.2039156
-2.2029607
-2.2020057
-2.2010507
-2.2000957
-2.1991408
-2.1981858
-2.1972308
-2.1962758
-2.1953208
-2.1943658
-2.1934108
-2.1924558
-2.1915008
-2.1905458
-2.1895907
-2.1886357
-2.1876807
-2.1867256
-2.1857706
-2.1848156
-2.1838605
-2.1829055
-2.1819504
-2.1809953
-2.1800403
-2.1790852
-2.1781301
-2.1771751
-2.17622
-2.1752649
-2.1743098
-2.1733547
-2.1723996
-2.1714445
-2.1704894
-2.1695343
-2.1685792
-2.1676241
-2.1666689
-2.1657138
-2.1647587
-2.1638035
-2.1628484
-2.1618932
-2.1609381
-2.159983
-2.1590278
-2.1580726
-2.1571175
-2.1561623
-2.1552071
-2.154252
-2.1532968
-2.1523416
-2.1513865
-2.1504313
-2.1494761
-2.1485209
-2.1475657
-2.1466105
-2.1456554
-2.1447002
-2.143745
-2.1427898
-2.1418346
-2.1408794
-2.1399243
-2.1389691
-2.1380139
-2.1370588
-2.1361036
-2.1351485
-2.1341933
-2.1332381
-2.132283
-2.1313278
-2.1303727
-2.1294175
-2.1284624
-2.1275072
-2.126552
-2.1255968
-2.1246416
-2.1236864
-2.1227312
-2.1217759
-2.1208206
-2.1198653
-2.1189099
-2.1179545
-2.116999
-2.1160435
-2.115088
-2.1141324
-2.1131767
-2.112221
-2.1112652
-2.1103093
-2.1093534
-2.1083974
-2.1074414
-2.1064852
-2.1055291
-2.1045728
-2.1036165
-2.1026601
-2.1017036
-2.1007471
-2.0997905
-2.0988339
-2.0978772
-2.0969204
-2.0959637
-2.0950068
-2.0940499
-2.093093
-2.092136
-2.0911791
-2.090222
-2.089265
-2.0883079
-2.0873507
-2.0863936
-2.0854364
-2.0844793
-2.083522
-2.0825648
-2.0816076
-2.0806503
-2.0796931
-2.0787358
-2.0777785
-2.0768212
-2.0758638
-2.0749065
-2.0739492
-2.0729918
-2.0720345
-2.0710771
-2.0701197
-2.0691623
-2.0682049
-2.0672475
-2.0662901
-2.0653327
-2.0643753
-2.0634178
-2.0624604
-2.0615029
-2.0605454
-2.059588
-2.0586305
-2.057673
-2.0567155
-2.055758
-2.0548005
-2.0538429
-2.0528854
-2.0519279
-2.0509703
-2.0500128
-2.0490552
-2.0480976
-2.04714
-2.0461824
-2.0452248
-2.0442672
-2.0433096
-2.0423519
-2.0413943
-2.0404366
-2.039479
-2.0385213
-2.0375636
-2.0366059
-2.0356482
-2.0346905
-2.0337328
-2.0327751
-2.0318173
-2.0308596
-2.0299018
-2.028944
-2.0279862
-2.0270284
-2.0260706
-2.0251128
-2.024155
-2.0231971
-2.0222393
-2.0212814
-2.0203235
-2.0193657
-2.0184078
-2.0174499
-2.0164919
-2.015534
-2.0145761
-2.0136181
-2.0126601
-2.0117021
-2.0107441
-2.0097861
-2.0088281
-2.0078701
-2.0069121
-2.005954
-2.0049959
-2.0040379
-2.0030798
-2.0021217
-2.0011636
-2.0002054
-1.9992473
-1.9982892
-1.997331
-1.9963728
-1.9954147
-1.9944565
-1.9934983
-1.9925401
-1.9915819
-1.9906237
-1.9896654
-1.9887072
-1.9877489
-1.9867907
-1.9858324
-1.9848742
-1.9839159
-1.9829576
-1.9819993
-1.981041
-1.9800826
-1.9791243
-1.9781659
-1.9772076
-1.9762492
-1.9752907
-1.9743323
-1.9733738
-1.9724154
-1.9714568
-1.9704983
-1.9695397
-1.9685811
-1.9676225
-1.9666638
-1.965705
-1.9647463
-1.9637875
-1.9628286
-1.9618697
-1.9609107
-1.9599517
-1.9589927
-1.9580335
-1.9570744
-1.9561151
-1.9551559
-1.9541965
-1.9532372
-1.9522777
-1.9513182
-1.9503587
-1.9493991
-1.9484395
-1.9474798
-1.9465201
-1.9455604
-1.9446006
-1.9436408
-1.9426809
-1.941721
-1.9407612
-1.9398012
-1.9388413
-1.9378814
-1.9369215
-1.9359615
-1.9350016
-1.9340416
-1.9330817
-1.9321218
-1.9311619
-1.9302021
-1.9292422
-1.9282824
-1.9273226
-1.9263629
-1.9254032
-1.9244436
-1.923484
-1.9225245
-1.9215651
-1.9206057
-1.9196464
-1.9186871
-1.917728
-1.9167689
-1.91581
-1.9148511
-1.9138923
-1.9129336
-1.9119751
-1.9110166
-1.9100583
-1.9091001
-1.908142
-1.9071841
-1.9062263
-1.9052687
-1.9043112
-1.9033538
-1.9023967
-1.9014397
-1.9004828
-1.8995262
-1.8985697
-1.8976134
-1.8966574
-1.8957015
-1.8947458
-1.8937904
-1.8928351
-1.8918801
-1.8909253
-1.8899708
-1.8890165
-1.8880625
-1.8871087
-1.8861552
-1.8852019
-1.8842489
-1.8832962
-1.8823438
-1.8813917
-1.8804399
-1.8794884
-1.8785372
-1.8775864
-1.8766358
-1.8756856
-1.8747357
-1.8737862
-1.872837
-1.8718882
-1.8709398
-1.8699917
-1.869044
-1.8680966
-1.8671497
-1.8662032
-1.865257
-1.8643113
-1.863366
-1.862421
-1.8614766
-1.8605325
-1.8595889
-1.8586457
-1.857703
-1.8567607
-1.8558188
-1.8548774
-1.8539365
-1.8529961
-1.8520561
-1.8511166
-1.8501776
-1.8492391
-1.8483011
-1.8473636
-1.8464266
-1.8454901
-1.8445541
-1.8436187
-1.8426837
-1.8417493
-1.8408154
-1.839882
-1.8389492
-1.838017
-1.8370852
-1.8361541
-1.8352235
-1.8342934
-1.8333639
-1.832435
-1.8315067
-1.8305789
-1.8296517
-1.8287251
-1.827799
-1.8268736
-1.8259487
-1.8250244
-1.8241008
-1.8231777
-1.8222552
-1.8213333
-1.8204121
-1.8194914
-1.8185713
-1.8176519
-1.816733
-1.8158148
-1.8148972
-1.8139802
-1.8130637
-1.8121479
-1.8112328
-1.8103182
-1.8094042
-1.8084908
-1.8075781
-1.8066659
-1.8057544
-1.8048434
-1.8039331
-1.8030233
-1.8021141
-1.8012055
-1.8002975
-1.7993901
-1.7984833
-1.7975771
-1.7966714
-1.7957663
-1.7948617
-1.7939577
-1.7930543
-1.7921515
-1.7912491
-1.7903474
-1.7894461
-1.7885454
-1.7876452
-1.7867456
-1.7858465
-1.7849479
-1.7840498
-1.7831522
-1.7822551
-1.7813585
-1.7804624
-1.7795668
-1.7786716
-1.777777
-1.7768828
-1.775989
-1.7750958
-1.774203
-1.7733106
-1.7724187
-1.7715272
-1.7706362
-1.7697456
-1.7688554
-1.7679656
-1.7670762
-1.7661873
-1.7652987
-1.7644106
-1.7635228
-1.7626355
-1.7617485
-1.7608618
-1.7599756
-1.7590897
-1.7582042
-1.757319
-1.7564342
-1.7555497
-1.7546656
-1.7537818
-1.7528983
-1.7520151
-1.7511323
-1.7502497
-1.7493675
-1.7484855
-1.7476039
-1.7467225
-1.7458415
-1.7449607
-1.7440801
-1.7431999
-1.7423199
-1.7414401
-1.7405606
-1.7396813
-1.7388023
-1.7379235
-1.7370449
-1.7361666
-1.7352884
-1.7344105
-1.7335328
-1.7326552
-1.7317779
-1.7309007
-1.7300237
-1.7291469
-1.7282703
-1.7273938
-1.7265175
-1.7256413
-1.7247652
-1.7238893
-1.7230135
-1.7221379
-1.7212624
-1.720387
-1.7195116
-1.7186364
-1.7177613
-1.7168863
-1.7160114
-1.7151365
-1.7142618
-1.713387
-1.7125124
-1.7116378
-1.7107633
-1.7098888
-1.7090143
-1.7081399
-1.7072656
-1.7063912
-1.7055169
-1.7046426
-1.7037683
-1.702894
-1.7020197
-1.7011454
-1.7002711
-1.6993967
-1.6985224
-1.697648
-1.6967736
-1.6958992
-1.6950248
-1.6941503
-1.6932757
-1.6924011
-1.6915265
-1.6906517
-1.6897769
-1.6889021
-1.6880271
-1.6871521
-1.686277
-1.6854017
-1.6845264
-1.683651
-1.6827754
-1.6818997
-1.6810239
-1.6801479
-1.6792719
-1.6783956
-1.6775192
-1.6766426
-1.6757658
-1.6748889
-1.6740118
-1.6731344
-1.6722568
-1.6713791
-1.6705011
-1.6696228
-1.6687443
-1.6678655
-1.6669865
-1.6661072
-1.6652275
-1.6643476
-1.6634674
-1.6625868
-1.6617059
-1.6608247
-1.6599431
-1.6590611
-1.6581787
-1.657296
-1.6564128
-1.6555292
-1.6546452
-1.6537608
-1.6528759
-1.6519905
-1.6511047
-1.6502184
-1.6493316
-1.6484443
-1.6475564
-1.6466681
-1.6457792
-1.6448897
-1.6439997
-1.6431091
-1.6422179
-1.6413261
-1.6404337
-1.6395407
-1.6386471
-1.6377528
-1.6368579
-1.6359624
-1.6350661
-1.6341692
-1.6332716
-1.6323734
-1.6314744
-1.6305747
-1.6296742
-1.6287731
-1.6278712
-1.6269686
-1.6260652
-1.625161
-1.6242561
-1.6233504
-1.6224439
-1.6215367
-1.6206286
-1.6197197
-1.61881
-1.6178995
-1.6169881
-1.6160759
-1.6151629
-1.614249
-1.6133343
-1.6124187
-1.6115023
-1.610585
-1.6096668
-1.6087477
-1.6078278
-1.6069069
-1.6059852
-1.6050625
-1.604139
-1.6032146
-1.6022892
-1.6013629
-1.6004357
-1.5995076
-1.5985785
-1.5976486
-1.5967177
-1.5957858
-1.594853
-1.5939193
-1.5929846
-1.592049
-1.5911124
-1.5901749
-1.5892365
-1.588297
-1.5873567
-1.5864153
-1.585473
-1.5845298
-1.5835856
-1.5826404
-1.5816943
-1.5807472
-1.5797991
-1.5788501
-1.5779002
-1.5769492
-1.5759974
-1.5750445
-1.5740907
-1.573136
-1.5721803
-1.5712236
-1.570266
-1.5693074
-1.5683479
-1.5673875
-1.5664261
-1.5654638
-1.5645006
-1.5635364
-1.5625714
-1.5616054
-1.5606384
-1.5596706
-1.5587019
-1.5577323
-1.5567618
-1.5557904
-1.5548181
-1.5538449
-1.5528709
-1.551896
-1.5509203
-1.5499437
-1.5489663
-1.547988
-1.5470089
-1.546029
-1.5450483
-1.5440668
-1.5430845
-1.5421015
-1.5411176
-1.540133
-1.5391476
-1.5381615
-1.5371746
-1.536187
-1.5351987
-1.5342097
-1.53322
-1.5322296
-1.5312385
-1.5302467
-1.5292543
-1.5282612
-1.5272675
-1.5262731
-1.5252781
-1.5242825
-1.5232863
-1.5222895
-1.5212921
-1.5202942
-1.5192956
-1.5182966
-1.5172969
-1.5162967
-1.515296
-1.5142948
-1.5132931
-1.5122908
-1.5112881
-1.5102849
-1.5092812
-1.508277
-1.5072723
-1.5062673
-1.5052617
-1.5042557
-1.5032493
-1.5022425
-1.5012353
-1.5002276
-1.4992196
-1.4982112
-1.4972023
-1.4961932
-1.4951836
-1.4941737
-1.4931634
-1.4921528
-1.4911418
-1.4901305
-1.4891189
-1.4881069
-1.4870947
-1.4860821
-1.4850692
-1.4840561
-1.4830426
-1.4820289
-1.4810149
-1.4800007
-1.4789861
-1.4779714
-1.4769563
-1.475941
-1.4749255
-1.4739098
-1.4728938
-1.4718776
-1.4708612
-1.4698446
-1.4688278
-1.4678108
-1.4667936
-1.4657762
-1.4647586
-1.4637408
-1.4627229
-1.4617048
-1.4606865
-1.4596681
-1.4586495
-1.4576307
-1.4566118
-1.4555928
-1.4545736
-1.4535543
-1.4525349
-1.4515153
-1.4504955
-1.4494757
-1.4484557
-1.4474356
-1.4464154
-1.4453951
-1.4443747
-1.4433541
-1.4423334
-1.4413127
-1.4402918
-1.4392708
-1.4382497
-1.4372285
-1.4362072
-1.4351858
-1.4341644
-1.4331428
-1.4321211
-1.4310993
-1.4300775
-1.4290555
-1.4280335
-1.4270113
-1.4259891
-1.4249668
-1.4239444
-1.4229219
-1.4218994
-1.4208767
-1.419854
-1.4188312
-1.4178083
-1.4167853
-1.4157623
-1.4147391
-1.4137159
-1.4126927
-1.4116693
-1.4106459
-1.4096224
-1.4085988
-1.4075752
-1.4065515
-1.4055277
-1.4045038
-1.4034799
-1.402456
-1.4014319
-1.4004078
-1.3993836
-1.3983594
-1.3973351
-1.3963108
-1.3952863
-1.3942619
-1.3932373
-1.3922127
-1.3911881
-1.3901634
-1.3891386
-1.3881138
-1.3870889
-1.386064
-1.385039
-1.384014
-1.3829889
-1.3819637
-1.3809385
-1.3799132
-1.3788879
-1.3778625
-1.3768371
-1.3758116
-1.3747861
-1.3737605
-1.3727348
-1.3717091
-1.3706834
-1.3696575
-1.3686317
-1.3676057
-1.3665797
-1.3655537
-1.3645276
-1.3635014
-1.3624752
-1.3614489
-1.3604225
-1.3593961
-1.3583697
-1.3573432
-1.3563166
-1.35529
-1.3542633
-1.3532365
-1.3522097
-1.3511829
-1.3501559
-1.3491289
-1.3481019
-1.3470748
-1.3460477
-1.3450205
-1.3439932
-1.3429659
-1.3419385
-1.3409111
-1.3398836
-1.3388561
-1.3378286
-1.3368009
-1.3357733
-1.3347456
-1.3337178
-1.33269
-1.3316621
-1.3306342
-1.3296063
-1.3285783
-1.3275503
-1.3265222
-1.3254941
-1.3244659
-1.3234378
-1.3224095
-1.3213813
-1.320353
-1.3193246
-1.3182963
-1.3172679
-1.3162394
-1.3152109
-1.3141824
-1.3131539
-1.3121253
-1.3110967
-1.310068
-1.3090393
-1.3080106
-1.3069819
-1.3059531
-1.3049242
-1.3038954
-1.3028665
-1.3018375
-1.3008085
-1.2997795
-1.2987505
-1.2977214
-1.2966922
-1.2956631
-1.2946339
-1.2936046
-1.2925753
-1.2915459
-1.2905165
-1.2894871
-1.2884576
-1.2874281
-1.2863985
-1.2853688
-1.2843392
-1.2833094
-1.2822796
-1.2812498
-1.2802199
-1.2791899
-1.2781599
-1.2771298
-1.2760997
-1.2750695
-1.2740393
-1.273009
-1.2719786
-1.2709482
-1.2699177
-1.2688872
-1.2678566
-1.266826
-1.2657952
-1.2647645
-1.2637336
-1.2627027
-1.2616718
-1.2606408
-1.2596097
-1.2585786
-1.2575474
-1.2565161
-1.2554848
-1.2544534
-1.253422
-1.2523905
-1.251359
-1.2503273
-1.2492957
-1.248264
-1.2472322
-1.2462004
-1.2451685
-1.2441365
-1.2431046
-1.2420725
-1.2410404
-1.2400082
-1.238976
-1.2379437
-1.2369114
-1.2358791
-1.2348466
-1.2338141
-1.2327816
-1.231749
-1.2307164
-1.2296837
-1.2286509
-1.2276181
-1.2265852
-1.2255523
-1.2245193
-1.2234863
-1.2224532
-1.2214201
-1.2203869
-1.2193536
-1.2183203
-1.2172869
-1.2162535
-1.21522
-1.2141865
-1.2131529
-1.2121192
-1.2110855
-1.2100517
-1.2090178
-1.2079839
-1.20695
-1.2059159
-1.2048819
-1.2038477
-1.2028135
-1.2017792
-1.2007449
-1.1997105
-1.198676
-1.1976415
-1.1966069
-1.1955722
-1.1945375
-1.1935027
-1.1924679
-1.191433
-1.190398
-1.189363
-1.1883279
-1.1872927
-1.1862575
-1.1852222
-1.1841869
-1.1831515
-1.182116
-1.1810805
-1.1800449
-1.1790092
-1.1779735
-1.1769377
-1.1759019
-1.174866
-1.17383
-1.172794
-1.1717579
-1.1707218
-1.1696856
-1.1686493
-1.167613
-1.1665766
-1.1655401
-1.1645036
-1.1634671
-1.1624304
-1.1613937
-1.160357
-1.1593201
-1.1582833
-1.1572463
-1.1562093
-1.1551723
-1.1541352
-1.153098
-1.1520607
-1.1510234
-1.149986
-1.1489486
-1.1479111
-1.1468735
-1.1458359
-1.1447982
-1.1437605
-1.1427226
-1.1416848
-1.1406468
-1.1396088
-1.1385707
-1.1375326
-1.1364944
-1.1354561
-1.1344177
-1.1333793
-1.1323409
-1.1313023
-1.1302637
-1.1292251
-1.1281863
-1.1271475
-1.1261086
-1.1250697
-1.1240307
-1.1229916
-1.1219525
-1.1209133
-1.119874
-1.1188347
-1.1177953
-1.1167558
-1.1157163
-1.1146767
-1.113637
-1.1125972
-1.1115574
-1.1105176
-1.1094776
-1.1084376
-1.1073975
-1.1063574
-1.1053172
-1.1042769
-1.1032366
-1.1021962
-1.1011557
-1.1001151
-1.0990745
-1.0980338
-1.096993
-1.0959522
-1.0949113
-1.0938703
-1.0928293
-1.0917881
-1.0907469
-1.0897056
-1.0886642
-1.0876228
-1.0865813
-1.0855396
-1.0844979
-1.0834561
-1.0824142
-1.0813723
-1.0803302
-1.079288
-1.0782457
-1.0772033
-1.0761609
-1.0751183
-1.0740755
-1.0730327
-1.0719898
-1.0709467
-1.0699035
-1.0688601
-1.0678167
-1.0667731
-1.0657293
-1.0646854
-1.0636413
-1.0625971
-1.0615527
-1.0605082
-1.0594634
-1.0584185
-1.0573734
-1.0563282
-1.0552827
-1.054237
-1.0531911
-1.052145
-1.0510986
-1.0500521
-1.0490052
-1.0479582
-1.0469109
-1.0458633
-1.0448155
-1.0437674
-1.042719
-1.0416703
-1.0406213
-1.039572
-1.0385224
-1.0374724
-1.0364222
-1.0353715
-1.0343205
-1.0332692
-1.0322175
-1.0311653
-1.0301128
-1.0290599
-1.0280065
-1.0269528
-1.0258985
-1.0248438
-1.0237887
-1.022733
-1.0216769
-1.0206203
-1.0195631
-1.0185054
-1.0174471
-1.0163883
-1.0153289
-1.0142689
-1.0132083
-1.012147
-1.0110851
-1.0100226
-1.0089594
-1.0078954
-1.0068308
-1.0057654
-1.0046993
-1.0036324
-1.0025647
-1.0014962
-1.0004269
-0.99935667
-0.99828562
-0.99721367
-0.9961408
-0.995067
-0.99399223
-0.99291648
-0.99183972
-0.99076194
-0.98968309
-0.98860316
-0.98752213
-0.98643997
-0.98535665
-0.98427215
-0.98318643
-0.98209948
-0.98101126
-0.97992175
-0.97883091
-0.97773872
-0.97664516
-0.97555019
-0.97445377
-0.97335589
-0.9722565
-0.97115558
-0.97005311
-0.96894903
-0.96784333
-0.96673597
-0.96562691
-0.96451613
-0.96340359
-0.96228926
-0.9611731
-0.96005508
-0.95893516
-0.95781331
-0.95668949
-0.95556367
-0.95443581
-0.95330587
-0.95217383
-0.95103963
-0.94990325
-0.94876465
-0.94762379
-0.94648063
-0.94533513
-0.94418726
-0.94303698
-0.94188426
-0.94072904
-0.9395713
-0.93841099
-0.93724808
-0.93608253
-0.93491429
-0.93374334
-0.93256962
-0.9313931
-0.93021375
-0.92903152
-0.92784637
-0.92665826
-0.92546716
-0.92427302
-0.9230758
-0.92187547
-0.92067199
-0.91946532
-0.91825541
-0.91704223
-0.91582574
-0.9146059
-0.91338268
-0.91215603
-0.91092591
-0.90969229
-0.90845513
-0.9072144
-0.90597004
-0.90472204
-0.90347034
-0.90221492
-0.90095573
-0.89969275
-0.89842593
-0.89715523
-0.89588064
-0.8946021
-0.89331958
-0.89203306
-0.8907425
-0.88944786
-0.88814912
-0.88684623
-0.88553917
-0.88422791
-0.88291242
-0.88159266
-0.88026862
-0.87894025
-0.87760753
-0.87627043
-0.87492893
-0.873583
-0.8722326
-0.87087773
-0.86951834
-0.86815442
-0.86678594
-0.86541288
-0.86403523
-0.86265295
-0.86126602
-0.85987444
-0.85847817
-0.8570772
-0.85567152
-0.85426109
-0.85284591
-0.85142596
-0.85000123
-0.8485717
-0.84713736
-0.84569821
-0.84425421
-0.84280538
-0.84135169
-0.83989314
-0.83842971
-0.83696141
-0.83548822
-0.83401014
-0.83252716
-0.83103929
-0.82954652
-0.82804885
-0.82654626
-0.82503877
-0.82352638
-0.82200907
-0.82048685
-0.81895974
-0.81742772
-0.81589082
-0.81434903
-0.81280235
-0.81125081
-0.80969439
-0.80813312
-0.806567
-0.80499605
-0.80342027
-0.80183968
-0.80025429
-0.79866411
-0.79706915
-0.79546943
-0.79386497
-0.79225579
-0.79064189
-0.78902331
-0.78740005
-0.78577214
-0.78413959
-0.78250244
-0.78086069
-0.77921437
-0.77756351
-0.77590812
-0.77424823
-0.77258388
-0.77091507
-0.76924184
-0.76756422
-0.76588222
-0.76419589
-0.76250523
-0.7608103
-0.7591111
-0.75740768
-0.75570006
-0.75398827
-0.75227235
-0.75055233
-0.74882823
-0.7471001
-0.74536795
-0.74363183
-0.74189177
-0.7401478
-0.73839995
-0.73664825
-0.73489275
-0.73313348
-0.73137047
-0.72960375
-0.72783337
-0.72605935
-0.72428175
-0.72250059
-0.7207159
-0.71892773
-0.71713611
-0.71534107
-0.71354265
-0.7117409
-0.70993584
-0.70812751
-0.70631596
-0.70450121
-0.70268331
-0.7008623
-0.6990382
-0.69721106
-0.69538091
-0.6935478
-0.69171176
-0.68987282
-0.68803103
-0.68618642
-0.68433902
-0.68248888
-0.68063603
-0.67878051
-0.67692235
-0.67506159
-0.67319826
-0.67133242
-0.66946408
-0.66759329
-0.66572008
-0.66384449
-0.66196656
-0.66008631
-0.65820378
-0.65631901
-0.65443203
-0.65254287
-0.65065158
-0.64875818
-0.64686272
-0.64496521
-0.64306571
-0.64116423
-0.63926081
-0.63735549
-0.63544829
-0.63353925
-0.63162839
-0.62971576
-0.62780138
-0.62588528
-0.6239675
-0.62204806
-0.620127
-0.61820434
-0.61628011
-0.61435435
-0.61242707
-0.61049831
-0.6085681
-0.60663646
-0.60470342
-0.60276901
-0.60083325
-0.59889617
-0.5969578
-0.59501816
-0.59307728
-0.59113518
-0.58919188
-0.58724742
-0.58530181
-0.58335508
-0.58140725
-0.57945835
-0.57750839
-0.5755574
-0.5736054
-0.5716524
-0.56969845
-0.56774354
-0.5657877
-0.56383097
-0.56187334
-0.55991485
-0.5579555
-0.55599533
-0.55403435
-0.55207257
-0.55011002
-0.54814672
-0.54618267
-0.5442179
-0.54225242
-0.54028625
-0.53831941
-0.5363519
-0.53438375
-0.53241497
-0.53044558
-0.52847559
-0.52650501
-0.52453386
-0.52256215
-0.52058989
-0.51861709
-0.51664378
-0.51466996
-0.51269564
-0.51072083
-0.50874556
-0.50676982
-0.50479363
-0.502817
-0.50083995
-0.49886247
-0.49688459
-0.49490632
-0.49292765
-0.49094861
-0.48896919
-0.48698942
-0.4850093
-0.48302883
-0.48104803
-0.47906691
-0.47708547
-0.47510372
-0.47312168
-0.47113934
-0.46915672
-0.46717382
-0.46519065
-0.46320721
-0.46122352
-0.45923958
-0.4572554
-0.45527099
-0.45328634
-0.45130147
-0.44931639
-0.44733109
-0.44534558
-0.44335988
-0.44137399
-0.4393879
-0.43740164
-0.43541519
-0.43342857
-0.43144179
-0.42945484
-0.42746774
-0.42548048
-0.42349307
-0.42150552
-0.41951783
-0.41753001
-0.41554206
-0.41355398
-0.41156578
-0.40957747
-0.40758904
-0.4056005
-0.40361186
-0.40162311
-0.39963427
-0.39764533
-0.3956563
-0.39366719
-0.39167798
-0.3896887
-0.38769934
-0.3857099
-0.38372039
-0.38173082
-0.37974117
-0.37775147
-0.3757617
-0.37377187
-0.37178199
-0.36979205
-0.36780207
-0.36581204
-0.36382196
-0.36183185
-0.35984169
-0.35785149
-0.35586126
-0.35387099
-0.35188069
-0.34989036
-0.3479
-0.34590962
-0.34391921
-0.34192878
-0.33993832
-0.33794785
-0.33595736
-0.33396686
-0.33197634
-0.32998581
-0.32799527
-0.32600472
-0.32401416
-0.32202359
-0.32003302
-0.31804245
-0.31605186
-0.31406128
-0.31207069
-0.3100801
-0.3080895
-0.30609891
-0.30410831
-0.30211772
-0.30012713
-0.29813654
-0.29614595
-0.29415537
-0.29216479
-0.29017422
-0.28818365
-0.28619308
-0.28420252
-0.28221196
-0.28022141
-0.27823086
-0.27624032
-0.27424978
-0.27225925
-0.27026873
-0.26827821
-0.26628769
-0.26429718
-0.26230667
-0.26031617
-0.25832567
-0.25633517
-0.25434468
-0.25235419
-0.25036371
-0.24837323
-0.24638275
-0.24439227
-0.24240179
-0.24041131
-0.23842083
-0.23643035
-0.23443987
-0.23244938
-0.23045889
-0.22846839
-0.22647789
-0.22448738
-0.22249686
-0.22050633
-0.2185158
-0.21652526
-0.2145347
-0.21254414
-0.21055356
-0.20856297
-0.20657237
-0.20458175
-0.20259112
-0.20060047
-0.19860979
-0.1966191
-0.19462839
-0.19263765
-0.19064689
-0.1886561
-0.18666529
-0.18467445
-0.18268358
-0.18069269
-0.17870177
-0.17671082
-0.17471985
-0.17272884
-0.1707378
-0.16874673
-0.16675562
-0.16476447
-0.16277329
-0.16078207
-0.15879081
-0.15679951
-0.15480816
-0.15281677
-0.15082534
-0.14883386
-0.14684234
-0.14485077
-0.14285916
-0.14086751
-0.13887581
-0.13688407
-0.13489228
-0.13290045
-0.13090857
-0.12891664
-0.12692466
-0.12493263
-0.12294054
-0.12094839
-0.11895619
-0.11696393
-0.11497161
-0.11297923
-0.11098679
-0.1089943
-0.10700175
-0.10500916
-0.10301651
-0.10102382
-0.09903109
-0.097038313
-0.095045492
-0.093052625
-0.091059707
-0.089066737
-0.087073709
-0.085080621
-0.083087469
-0.081094252
-0.079100969
-0.077107622
-0.075114212
-0.073120741
-0.071127212
-0.069133631
-0.06714
-0.065146324
-0.063152609
-0.061158856
-0.059165068
-0.057171243
-0.055177379
-0.05318347
-0.051189511
-0.049195497
-0.047201426
-0.045207298
-0.043213113
-0.041218874
-0.039224582
-0.037230238
-0.035235843
-0.033241397
-0.031246901
-0.02925236
-0.027257787
-0.025263193
-0.023268594
-0.021273998
-0.0192794
-0.017284778
-0.015290106
-0.013295369
-0.011300572
-0.0093057309
-0.0073108567
-0.0053159508
-0.0033210137
-0.0013260467
0.00066895377
0.0026639626
0.0046589975
0.0066540583
0.0086491449
0.010644266
0.012639436
0.014634658
0.016629915
0.018625179
0.020620427
0.022615653
0.024610862
0.026606067
0.028601281
0.030596511
0.032591762
0.034587036
0.036582332
0.03857765
0.040572989
0.04256835
0.044563729
0.046559123
0.048554523
0.050549925
0.052545321
0.054540707
0.056536081
0.058531443
0.060526795
0.062522142
0.064517486
0.066512832
0.068508184
0.070503543
0.07249891
0.074494286
0.076489666
0.07848505
0.080480431
0.082475806
0.08447117
0.08646652
0.088461854
0.09045717
0.092452468
0.094447751
0.09644302
0.098438278
0.10043353
0.10242877
0.10442401
0.10641924
0.10841447
0.1104097
0.11240493
0.11440015
0.11639536
0.11839056
0.12038576
0.12238095
0.12437612
0.12637129
0.12836645
0.1303616
0.13235674
0.13435188
0.13634701
0.13834214
0.14033727
0.1423324
0.14432752
0.14632264
0.14831777
0.15031289
0.15230802
0.15430314
0.15629826
0.15829339
0.16028852
0.16228365
0.16427879
0.16627393
0.16826908
0.17026423
0.1722594
0.17425457
0.17624976
0.17824496
0.18024017
0.1822354
0.18423064
0.1862259
0.18822118
0.19021647
0.19221179
0.19420712
0.19620247
0.19819785
0.20019325
0.20218868
0.20418413
0.20617961
0.20817512
0.21017065
0.21216622
0.21416183
0.21615746
0.21815313
0.22014883
0.22214457
0.22414035
0.22613616
0.22813202
0.23012791
0.23212385
0.23411983
0.23611585
0.23811191
0.24010802
0.24210418
0.24410039
0.24609664
0.24809294
0.2500893
0.2520857
0.25408216
0.25607867
0.25807523
0.26007185
0.26206851
0.26406524
0.26606201
0.26805885
0.27005573
0.27205268
0.27404968
0.27604674
0.27804385
0.28004103
0.28203826
0.28403555
0.2860329
0.28803031
0.29002777
0.2920253
0.29402288
0.29602052
0.29801822
0.30001597
0.30201379
0.30401166
0.30600959
0.30800757
0.31000562
0.31200371
0.31400187
0.31600008
0.31799835
0.31999667
0.32199505
0.32399348
0.32599196
0.3279905
0.32998909
0.33198774
0.33398643
0.33598518
0.33798398
0.33998282
0.34198172
0.34398066
0.34597965
0.34797868
0.34997776
0.35197688
0.35397605
0.35597525
0.3579745
0.35997378
0.36197311
0.36397247
0.36597186
0.3679713
0.36997077
0.37197027
0.3739698
0.37596937
0.37796896
0.37996859
0.38196824
0.38396792
0.38596763
0.38796736
0.38996712
0.3919669
0.3939667
0.39596652
0.39796637
0.39996623
0.4019661
0.403966
0.4059659
0.40796583
0.40996576
0.41196571
0.41396567
0.41596564
0.41796562
0.4199656
0.42196559
0.42396558
0.42596558
0.42796558
0.42996558
0.43196559
0.43396559
0.43596559
0.43796559
0.43996559
0.44196558
0.44396557
0.44596554
0.44796552
0.44996548
0.45196543
0.45396538
0.45596531
0.45796523
0.45996514
0.46196503
0.46396491
0.46596476
0.46796461
0.46996443
0.47196423
0.47396401
0.47596377
0.47796351
0.47996323
0.48196292
0.48396259
0.48596223
0.48796185
0.48996145
0.49196102
0.49396056
0.49596007
0.49795956
0.49995902
0.50195844
0.50395784
0.50595721
0.50795654
0.50995584
0.51195511
0.51395434
0.51595354
0.51795271
0.51995185
0.52195095
0.52395002
0.52594905
0.52794804
0.529947
0.53194592
0.5339448
0.53594364
0.53794245
0.53994121
0.54193993
0.54393862
0.54593727
0.54793588
0.54993445
0.55193297
0.55393146
0.5559299
0.55792831
0.55992667
0.56192498
0.56392326
0.56592149
0.56791968
0.56991782
0.57191592
0.57391398
0.57591199
0.57790996
0.57990789
0.58190577
0.5839036
0.58590139
0.58789913
0.58989682
0.59189447
0.59389207
0.59588962
0.59788713
0.59988459
0.601882
0.60387937
0.60587669
0.60787396
0.60987117
0.61186835
0.61386547
0.61586254
0.61785956
0.61985653
0.62185345
0.62385032
0.62584713
0.6278439
0.62984062
0.63183729
0.6338339
0.63583047
0.63782698
0.63982344
0.64181986
0.64381622
0.64581254
0.64780881
0.64980503
0.6518012
0.65379732
0.6557934
0.65778943
0.65978542
0.66178136
0.66377726
0.66577311
0.66776892
0.6697647
0.67176043
0.67375613
0.67575178
0.67774741
0.67974299
0.68173855
0.68373407
0.68572956
0.68772502
0.68972045
0.69171585
0.69371123
0.69570657
0.69770189
0.69969718
0.70169244
0.70368767
0.70568288
0.70767805
0.70967319
0.71166829
0.71366337
0.71565841
0.71765341
0.71964838
0.72164331
0.72363819
0.72563304
0.72762784
0.72962259
0.7316173
0.73361196
0.73560657
0.73760112
0.73959562
0.74159006
0.74358444
0.74557877
0.74757304
0.74956724
0.75156139
0.75355547
0.75554949
0.75754346
0.75953736
0.7615312
0.76352498
0.76551871
0.76751238
0.769506
0.77149956
0.77349308
0.77548654
0.77747996
0.77947333
0.78146666
0.78345994
0.78545319
0.78744641
0.78943959
0.79143273
0.79342585
0.79541894
0.797412
0.79940504
0.80139806
0.80339106
0.80538403
0.80737699
0.80936993
0.81136285
0.81335575
0.81534863
0.81734149
0.81933434
0.82132716
0.82331997
0.82531276
0.82730554
0.82929829
0.83129104
0.83328376
0.83527646
0.83726915
0.83926181
0.84125446
0.84324709
0.84523969
0.84723227
0.84922483
0.85121736
0.85320986
0.85520235
0.8571948
0.85918724
0.86117965
0.86317203
0.86516439
0.86715672
0.86914902
0.8711413
0.87313355
0.87512577
0.87711796
0.87911013
0.88110226
0.88309436
0.88508644
0.88707848
0.88907049
0.89106247
0.89305443
0.89504635
0.89703824
0.89903011
0.90102195
0.90301375
0.90500553
0.90699728
0.90898901
0.9109807
0.91297236
0.914964
0.91695561
0.91894718
0.92093873
0.92293026
0.92492175
0.92691321
0.92890465
0.93089606
0.93288745
0.93487881
0.93687014
0.93886145
0.94085273
0.94284399
0.94483522
0.94682643
0.94881761
0.95080877
0.9527999
0.95479102
0.9567821
0.95877317
0.96076421
0.96275524
0.96474624
0.96673721
0.96872817
0.97071911
0.97271002
0.97470091
0.97669177
0.97868261
0.98067343
0.98266422
0.98465499
0.98664573
0.98863646
0.99062717
0.99261786
0.99460852
0.99659917
0.9985898
1.0005804
1.002571
1.0045616
1.0065521
1.0085426
1.0105331
1.0125236
1.0145141
1.0165045
1.0184949
1.0204853
1.0224757
1.0244661
1.0264564
1.0284467
1.030437
1.0324273
1.0344176
1.0364078
1.0383981
1.0403883
1.0423784
1.0443686
1.0463588
1.0483489
1.050339
1.0523291
1.0543192
1.0563092
1.0582992
1.0602893
1.0622793
1.0642693
1.0662592
1.0682492
1.0702392
1.072229
1.074219
1.0762088
1.0781987
1.0801885
1.0821783
1.0841681
1.0861579
1.0881476
1.0901374
1.0921271
1.0941168
1.0961065
1.0980962
1.1000858
1.1020754
1.1040651
1.1060546
1.1080442
1.1100338
1.1120233
1.1140128
1.1160024
1.1179919
1.1199814