-1.25 	300 	0.0002547822674469672 	101325
-1.247497497497497 	299.9915634450315 	0.01323132553998332 	101318.0953903819
-1.244994994994995 	299.9887716787767 	0.03427221080402808 	101311.7474657849
-1.242492492492492 	299.9832666030492 	0.04913690615341568 	101305.2022245989
-1.23998998998999 	299.9780713461158 	0.06331236858921777 	101299.0782907912
-1.237487487487487 	299.9732938719587 	0.07720449449873587 	101293.4314983055
-1.234984984984985 	299.96903282408 	0.08949868409892016 	101288.3953419174
-1.232482482482482 	299.9653293529822 	0.1002408344702969 	101284.018255241
-1.22997997997998 	299.9622555242992 	0.1091349933728572 	101280.3853437569
-1.227477477477477 	299.9599469424678 	0.1158505116719543 	101277.6569555813
-1.224974974974975 	299.9583655148243 	0.1203652479837278 	101275.7878920235
-1.222472472472472 	299.9575032501827 	0.1228185169339706 	101274.7688213198
-1.21996996996997 	299.9574246539228 	0.1230550624091402 	101274.675986401
-1.217467467467467 	299.9581414146434 	0.1209867749458463 	101275.5229731923
-1.214964964964965 	299.9596541929995 	0.116621945408199 	101277.3106874281
-1.212462462462462 	299.9619550623249 	0.1099176502512936 	101280.0297812935
-1.20995995995996 	299.9649918681731 	0.101132776542102 	101283.6187032332
-1.207457457457457 	299.9686617984498 	0.09061402213368516 	101287.9560424181
-1.204954954954955 	299.9728422712261 	0.07854760339233423 	101292.8968963627
-1.202452452452452 	299.9774994929438 	0.0650643444258413 	101298.40141369
-1.19994994994995 	299.9825876798213 	0.05032066375437612 	101304.4156224056
-1.197447447447447 	299.987988262647 	0.03466482009292772 	101310.7993170416
-1.194944944944945 	299.9935853166243 	0.01848365231534589 	101317.4155902745
-1.192442442442442 	299.9992711594859 	0.008160834434383119 	101324.137194096
-1.18993993993994 	300.0049731738712 	0.01444893682269458 	101330.8781456916
-1.187437437437437 	300.0106000695912 	0.03066886850312801 	101337.5306888009
-1.184934934934935 	300.0160600680522 	0.04646642417574193 	101343.9861739608
-1.182432432432432 	300.021265725369 	0.06152007419401283 	101350.1412491223
-1.17992992992993 	300.0260925053218 	0.07547459499653866 	101355.8486649562
-1.177427427427427 	300.0304216369796 	0.0879842928971393 	101360.9677439355
-1.174924924924925 	300.0341713455055 	0.09880095049021329 	101365.4019006936
-1.172422422422422 	300.0372730691332 	0.1077915872705265 	101369.0698629055
-1.16991991991992 	300.0396855475574 	0.1147977655009874 	101371.9228698421
-1.167417417417417 	300.0413983761934 	0.1197317525217682 	101373.9485847899
-1.164914914914915 	300.0423759683647 	0.1224916952735273 	101375.1047035472
-1.162412412412412 	300.0425641135571 	0.1229921863259245 	101375.3272465505
-1.15990990990991 	300.0419409224245 	0.1212094768338929 	101374.5902888269
-1.157407407407407 	300.0405119335935 	0.1171021353662136 	101372.9005087974
-1.154904904904904 	300.0383073084913 	0.1107537008287655 	101370.2935197137
-1.152402402402403 	300.0353927328337 	0.1023096193770301 	101366.8468735504
-1.1498998998999 	300.0318384369506 	0.0920180063076517 	101362.6439056792
-1.147397397397397 	300.0277147753179 	0.08014107436618337 	101357.7677595401
-1.144894894894895 	300.023097922443 	0.06679129346033338 	101352.3086517924
-1.142392392392392 	300.0180625948157 	0.05220184603416691 	101346.3550001795
-1.13988988988989 	300.0126991334788 	0.03666379190010632 	101340.01351603
-1.137387387387387 	300.0071207273805 	0.02050774053133933 	101333.4182599211
-1.134884884884885 	300.0014265079403 	0.007780253013937175 	101326.6863366692
-1.132382382382382 	299.9957040999152 	0.01243020343512532 	101319.9214465761
-1.12987987987988 	299.990029560986 	0.02885864483235931 	101313.213494894
-1.127377377377377 	299.984493219778 	0.04486653994545022 	101306.6690993225
-1.124874874874875 	299.979224687826 	0.06007914916304999 	101300.4416091327
-1.122372372372372 	299.9743638941052 	0.07410641431157344 	101294.6962473753
-1.11986986986987 	299.9699997976358 	0.08671830640463481 	101289.5382154214
-1.117367367367367 	299.9662075940737 	0.09771931079560793 	101285.0562853424
-1.114864864864865 	299.9630332931002 	0.1069458986587336 	101281.3046533215
-1.112362362362362 	299.9605096109626 	0.1142264305852478 	101278.3220783679
-1.10985985985986 	299.958698080481 	0.1193822416417101 	101276.1810578649
-1.107357357357357 	299.9576695305667 	0.1223473892557538 	101274.9654545629
-1.104854854854855 	299.9574416222101 	0.1229944999855441 	101274.6961247639
-1.102352352352353 	299.9580319286341 	0.1212991856128222 	101275.3936566478
-1.09984984984985 	299.9594147490605 	0.1173260537881669 	101277.0277940864
-1.097347347347347 	299.9615399973474 	0.1111359695860617 	101279.5393167555
-1.094844844844845 	299.9643617447005 	0.1029724963119829 	101282.8740741597
-1.092342342342342 	299.9678351025717 	0.09299093292706842 	101286.9790609998
-1.08983983983984 	299.9718782496822 	0.08129676773886049 	101291.7575568332
-1.087337337337337 	299.9764509303352 	0.06808751323741796 	101297.1621405013
-1.084834834834835 	299.9814624496935 	0.05357052052008841 	101303.0856359341
-1.082332332332332 	299.9867970328818 	0.03812093949415445 	101309.391262704
-1.07982982982983 	299.9923353344755 	0.02211926688520267 	101315.9380523761
-1.077327327327327 	299.997961852126 	0.007232657331364085 	101322.5893989062
-1.074824824824825 	300.0036344581496 	0.01057265896637662 	101329.295537478
-1.072322322322323 	300.0092827175706 	0.02685551496114078 	101335.9732544057
-1.06981981981982 	300.0147783177961 	0.04275957076631405 	101342.4707561621
-1.067317317317317 	300.0200036462564 	0.05788482478180217 	101348.6490623908
-1.064814814814815 	300.0248595342807 	0.07193895866138546 	101354.3907940429
-1.062312312312312 	300.0292673200024 	0.08466822701156565 	101359.6028324696
-1.05980980980981 	300.0331585998037 	0.09588728713171583 	101364.2043624334
-1.057307307307307 	300.0364572536264 	0.1054350423071742 	101368.1051564723
-1.054804804804805 	300.0390936845952 	0.1130608754169384 	101371.2230063247
-1.052302302302302 	300.0410140024142 	0.1185781370553281 	101373.4940678542
-1.0497997997998 	300.0421612343874 	0.1218431218466991 	101374.8508097201
-1.047297297297297 	300.0425060267286 	0.1228276066478023 	101375.2586243487
-1.044794794794795 	300.0420542778449 	0.121556810649996 	101374.7243857279
-1.042292292292292 	300.0408202696185 	0.1180093054718571 	101373.2651884739
-1.03978978978979 	300.0388295006608 	0.1122617084505738 	101370.9110802972
-1.037287287287287 	300.036121459663 	0.1043895523844833 	101367.7086724227
-1.034784784784785 	300.0327309910402 	0.09458495518861168 	101363.6994126647
-1.032282282282283 	300.0287318403784 	0.08307397898269266 	101358.97045073
-1.02977977977978 	300.0242183315671 	0.07000788322414708 	101353.6335078461
-1.027277277277277 	300.0192722767845 	0.05567627667578105 	101347.7853222448
-1.024774774774775 	300.0139767321308 	0.04033594258389514 	101341.5240962197
-1.022272272272272 	300.008433560026 	0.02429129813744902 	101334.970423918
-1.01976976976977 	300.0027337203892 	0.007876854813239393 	101328.2317682539
-1.017267267267267 	299.9969882567404 	0.009662133245364113 	101321.4395594212
-1.014764764764765 	299.9912841055064 	0.0252449396180961 	101314.6965081751
-1.012262262262262 	299.9857244359455 	0.04131738996153731 	101308.1244933648
-1.00975975975976 	299.9804311722512 	0.05661092139888888 	101301.8677087879
-1.007257257257257 	299.9755115184739 	0.07080857919357528 	101296.0527274819
-1.004754754754755 	299.9710364807217 	0.08373443910026424 	101290.763517397
-1.002252252252252 	299.9670917103482 	0.0951699351144574 	101286.1012251482
-0.9997497497497498 	299.9637419741468 	0.1048767993866643 	101282.1422543991
-0.9972472472472473 	299.9610591405215 	0.1126148074773267 	101278.9715665218
-0.9947447447447449 	299.9591137201207 	0.1181860458476647 	101276.6723459458
-0.9922422422422421 	299.9579494009229 	0.121562519528921 	101275.2962377804
-0.9897397397397399 	299.9575629579207 	0.1226650187835883 	101274.8395434554
-0.9872372372372376 	299.9579730792989 	0.1214991178461856 	101275.3241886192
-0.9847347347347346 	299.9591619819947 	0.1180754301719081 	101276.7291198199
-0.9822322322322323 	299.9611078136605 	0.112405979031599 	101279.0286417976
-0.9797297297297296 	299.9637678628871 	0.1047116587553985 	101282.1722404031
-0.9772272272272275 	299.9670860936937 	0.09512957625531718 	101286.0938567596
-0.9747247247247248 	299.9709890372583 	0.08382471326109046 	101290.7066718671
-0.9722222222222224 	299.975428407296 	0.07100498701719295 	101295.953599829
-0.9697197197197196 	299.9803202524394 	0.05684318174309318 	101301.7356232159
-0.9672172172172175 	299.9855704067321 	0.04166067315109001 	101307.9413633787
-0.9647147147147147 	299.9910617479621 	0.02580205934701226 	101314.4325517942
-0.9622122122122124 	299.9966731364117 	0.009566107012620667 	101321.0659890556
-0.9597097097097099 	300.0023271783044 	0.009277160269189044 	101327.7500811634
-0.9572072072072073 	300.0079436041115 	0.02297843708414957 	101334.3901036824
-0.9547047047047047 	300.0134237370021 	0.03886313506339619 	101340.8692359687
-0.9522022022022023 	300.0186764877361 	0.05406974313467751 	101347.0798689877
-0.9496996996996998 	300.0236108104708 	0.06835147035040093 	101352.9143045901
-0.9471971971971973 	300.028142935365 	0.08142850658954365 	101358.2733104789
-0.9446946946946947 	300.0321807402216 	0.09306819215690054 	101363.048055185
-0.9421921921921923 	300.035630629647 	0.1030549661891634 	101367.1276730565
-0.93968968968969 	300.0384228780688 	0.1111172733392564 	101370.4297465955
-0.9371871871871872 	300.0405091512517 	0.1171072666533412 	101372.8970554619
-0.9346846846846848 	300.0418384445719 	0.1209144144763667 	101374.4691084534
-0.9321821821821823 	300.0423876602053 	0.1224984326716623 	101375.1186845471
-0.9296796796796799 	300.0421460395592 	0.1218350917460077 	101374.8329345013
-0.9271771771771771 	300.0411139783222 	0.1188745717425561 	101373.6125286938
-0.9246746746746748 	300.0393141714882 	0.1136767804786152 	101371.4842561692
-0.9221721721721724 	300.0367861897812 	0.1063275102885471 	101368.4947807901
-0.9196696696696698 	300.0335642104843 	0.09701928587613068 	101364.6847345384
-0.9171671671671672 	300.0297222845736 	0.08593274155168439 	101360.1416784808
-0.9146646646646649 	300.0253318711809 	0.07320170837511411 	101354.9502158403
-0.9121621621621623 	300.0204671711963 	0.05910938145578955 	101349.1981842996
-0.9096596596596597 	300.0152190212908 	0.04391635344735968 	101342.9929457945
-0.9071571571571573 	300.0097024131223 	0.02796917989427105 	101336.4705916014
-0.9046546546546547 	300.0040192785496 	0.01162671446645685 	101329.7516432549
-0.9021521521521524 	299.9983002986745 	0.00902435115832554 	101322.9906451192
-0.8996496496496498 	299.9926084697611 	0.02140166558279673 	101316.2620926842
-0.8971471471471473 	299.9870250778762 	0.03754309497258859 	101309.6619790167
-0.894644644644645 	299.9816655100443 	0.05304635512672912 	101303.3267373568
-0.892142142142142 	299.9766405902456 	0.06755728556876592 	101297.3873020851
-0.8896396396396397 	299.9720419007713 	0.0808569895006349 	101291.9518863946
-0.8871371371371374 	299.9679705295201 	0.09265430056067089 	101287.1399251628
-0.8846346346346349 	299.9644897665637 	0.1027225633920202 	101283.0260832279
-0.8821321321321324 	299.9616702889949 	0.11084754404807 	101279.6938706077
-0.8796296296296297 	299.9595747818652 	0.1168565754787042 	101277.2172953809
-0.8771271271271271 	299.9582408905397 	0.1207136362669625 	101275.640774539
-0.8746246246246248 	299.9576804273638 	0.1223015589546464 	101274.9784164688
-0.8721221221221224 	299.9579216470519 	0.1216376084225162 	101275.2634615192
-0.8696196196196196 	299.958941604381 	0.1187113501107629 	101276.4687257053
-0.8671171171171175 	299.9607194674851 	0.1135490685509022 	101278.569742821
-0.8646146146146148 	299.9632122298129 	0.1063683892822513 	101281.5156436634
-0.8621121121121121 	299.966365753188 	0.09724653801874322 	101285.242579066
-0.8596096096096097 	299.9701229027287 	0.08635923428173584 	101289.6830315411
-0.857107107107107 	299.9744472393549 	0.07387445986994089 	101294.7939493081
-0.8546046046046049 	299.979242122229 	0.05996147100759753 	101300.4613236525
-0.8521021021021022 	299.9844126138652 	0.04499603852406632 	101306.5728544934
-0.8495995995995997 	299.9898389998569 	0.02931602365679519 	101312.9872038451
-0.8470970970970974 	299.9953956761265 	0.01326009266320134 	101319.5558783914
-0.8445945945945946 	300.000999189302 	0.008172261430049196 	101326.1801447732
-0.8420920920920922 	300.0065854690155 	0.01904238919432201 	101332.7844706017
-0.8395895895895897 	300.0120743268693 	0.03493752484759102 	101339.2738411188
-0.8370870870870872 	300.0173725195124 	0.05027007977022445 	101345.5381491099
-0.8345845845845846 	300.0223803018786 	0.06476503625577119 	101351.4593619166
-0.8320820820820823 	300.0270080033919 	0.07812397559317137 	101356.9313014397
-0.8295795795795798 	300.0311581983035 	0.09011805386466332 	101361.8389282537
-0.8270770770770772 	300.0347433385739 	0.1005183899449752 	101366.0784370189
-0.8245745745745746 	300.0376984937366 	0.1090442534491045 	101369.5731545521
-0.8220720720720721 	300.039964719644 	0.1155426912019462 	101372.2532508888
-0.8195695695695699 	300.0414810759478 	0.119874897943955 	101374.0464867375
-0.817067067067067 	300.0422219767629 	0.1220016121215004 	101374.9227922484
-0.8145645645645651 	300.0421742504855 	0.1218998375978152 	101374.8663169992
-0.8120620620620621 	300.0413439630564 	0.1195183416134391 	101373.8845355868
-0.8095595595595597 	300.0397517290982 	0.1149131900958842 	101372.0017348157
-0.8070570570570572 	300.0374184132675 	0.1081371444247949 	101369.2424236465
-0.8045545545545546 	300.0343675179572 	0.09935218452803235 	101365.6347081823
-0.8020520520520523 	300.0306720988432 	0.08869759016603701 	101361.2648412213
-0.7995495495495494 	300.0264005068344 	0.07631575687546253 	101356.2138707451
-0.7970470470470474 	300.0216350383823 	0.06250857676807625 	101350.5791172867
-0.7945445445445446 	300.0164712216501 	0.0475344253584755 	101344.4734900235
-0.7920420420420423 	300.0110145291416 	0.03176248045390988 	101338.0219512292
-0.7895395395395397 	300.0053681716184 	0.01551473387321602 	101331.3463854097
-0.7870370370370371 	299.9996622948645 	0.007535019423270639 	101324.6008283877
-0.7845345345345348 	299.993948582913 	0.01754582207180574 	101317.846334083
-0.7820320320320323 	299.9883159850467 	0.03381230583495066 	101311.1879454299
-0.7795295295295296 	299.9828877124311 	0.04949514570162096 	101304.771469971
-0.7770270270270272 	299.9777752116395 	0.06424040192407809 	101298.7284245909
-0.7745245245245247 	299.9730778534719 	0.07783090532889263 	101293.1763669788
-0.7720220220220222 	299.968892677015 	0.08997248588999257 	101288.2298636427
-0.7695195195195199 	299.9652797432178 	0.1004279705927063 	101283.9597470842
-0.767017017017017 	299.962319209164 	0.1089674483027109 	101280.4608569692
-0.7645145145145147 	299.9600783964871 	0.1154168001729515 	101277.8125189555
-0.7620120120120122 	299.9585844346082 	0.1197339700251757 	101276.0468494531
-0.7595095095095097 	299.9578537443164 	0.1218123201292507 	101275.1833014178
-0.7570070070070072 	299.957909121686 	0.1216709004837273 	101275.2486900572
-0.7545045045045048 	299.9587360100147 	0.1192625476952243 	101276.2258476196
-0.7520020020020022 	299.9603325375499 	0.1146087597240132 	101278.1125080676
-0.7494994994994997 	299.9626678505123 	0.1079055451074976 	101280.8723493861
-0.7469969969969972 	299.9656770582683 	0.09919819880068173 	101284.4287089091
-0.7444944944944945 	299.9693102834661 	0.08870121580121385 	101288.7226302576
-0.7419919919919924 	299.9735183919804 	0.07657270741569766 	101293.6962019316
-0.7394894894894897 	299.978201734867 	0.0629793878870353 	101299.2316327047
-0.7369869869869872 	299.9832714084348 	0.04831930351653286 	101305.2239655311
-0.7344844844844846 	299.9886192843353 	0.0328681147643722 	101311.5454609939
-0.7319819819819822 	299.9941128478886 	0.01697621398044939 	101318.0394052758
-0.7294794794794797 	299.9996742319909 	0.006261616880000054 	101324.6138652752
-0.7269769769769773 	300.0052299443537 	0.01517668201799842 	101331.1819191835
-0.7244744744744747 	300.0107201557136 	0.03106813501275721 	101337.6728385531
-0.721971971971972 	300.0160560186083 	0.04650134293300248 	101343.9816337049
-0.7194694694694695 	300.0211343475061 	0.06117814039113598 	101349.9861390416
-0.7169669669669674 	300.0258596644402 	0.07481168585020237 	101355.5735015219
-0.7144644644644647 	300.0301300206285 	0.08715020514857993 	101360.6231233188
-0.711961961961962 	300.0338533709231 	0.09790874968671057 	101365.0260599506
-0.7094594594594597 	300.0369587172653 	0.1068697778620212 	101368.6983753836
-0.7069569569569573 	300.039384090936 	0.1138461212027244 	101371.5666033512
-0.7044544544544545 	300.0410772652618 	0.1187315731495753 	101373.5689848162
-0.7019519519519523 	300.042014989474 	0.1214563145141496 	101374.6780237516
-0.6994494494494495 	300.0421776416096 	0.1219394501498392 	101374.8703796455
-0.6969469469469471 	300.0415588699211 	0.1201640986151448 	101374.1387128689
-0.6944444444444446 	300.040166157283 	0.1161162026048695 	101372.4918233841
-0.6919419419419421 	300.0380116882948 	0.1098652351997607 	101369.9440523358
-0.6894394394394396 	300.0351254967428 	0.1015431329763281 	101366.5310590401
-0.6869369369369374 	300.0315768751079 	0.09126684115009749 	101362.334780331
-0.6844344344344344 	300.0274307643085 	0.0792545398284956 	101357.4321526691
-0.6819319319319321 	300.0227692322275 	0.06576220327804645 	101351.9202160043
-0.6794294294294296 	300.0176888689363 	0.05106286735385221 	101345.9132354078
-0.6769269269269272 	300.0122898993043 	0.03549310384955201 	101339.5298490501
-0.6744244244244245 	300.0066801920345 	0.01932701730420187 	101332.8975742217
-0.6719219219219222 	300.000985985094 	0.005194319111742033 	101326.1657425721
-0.6694194194194195 	299.995265639448 	0.0137157665647764 	101319.4033076516
-0.6669169169169172 	299.9896076728564 	0.03006316582958025 	101312.7148805626
-0.6644144144144146 	299.9841311998287 	0.04590498771688215 	101306.2413350372
-0.661911911911912 	299.9789423585114 	0.06090796922688725 	101300.1080332228
-0.6594094094094097 	299.9741502177029 	0.07477692678473576 	101294.4438920358
-0.656906906906907 	299.9698479388981 	0.08723185859303278 	101289.3589213071
-0.6544044044044046 	299.9661083976014 	0.09801639301307688 	101284.9391576537
-0.6519019019019021 	299.963013602578 	0.1069308645427484 	101281.2815415247
-0.6493993993993996 	299.9606255747978 	0.1138276611724888 	101278.4592554729
-0.6468968968968971 	299.9589648459999 	0.118603550726798 	101276.4964994615
-0.6443943943943946 	299.9580640477359 	0.1211904306941146 	101275.4318745634
-0.6418918918918921 	299.9579401177586 	0.1215694602584984 	101275.2853892004
-0.6393893893893897 	299.95859269012 	0.1196818396304808 	101276.0565146477
-0.6368868868868871 	299.9600212104362 	0.1155558735995967 	101277.7446581296
-0.6343843843843846 	299.9621966496917 	0.1093151524624713 	101280.3155476884
-0.6318818818818821 	299.9650462081788 	0.1010297767966152 	101283.6831916704
-0.6293793793793795 	299.9685383258109 	0.0909444108631608 	101287.8103348514
-0.6268768768768773 	299.9726034176246 	0.07920414634739244 	101292.6148060351
-0.6243743743743745 	299.9771536424286 	0.06598845434851711 	101297.9930901953
-0.6218718718718721 	299.9821029703525 	0.05166502229036815 	101303.8431696337
-0.6193693693693696 	299.987363229189 	0.03647616547288731 	101310.0608134884
-0.6168668668668671 	299.9927976249255 	0.02077192511097675 	101316.4846969528
-0.6143643643643645 	299.9983401236002 	0.004823147097172081 	101323.0367368857
-0.6118618618618621 	300.003876188881 	0.01166515957866431 	101329.5815054636
-0.6093593593593596 	300.0093738299174 	0.02714813740520539 	101336.0811462395
-0.6068568568568571 	300.0147448174667 	0.04268906055008885 	101342.4313777476
-0.6043543543543546 	300.0198802769882 	0.05754717786471913 	101348.5033719294
-0.6018518518518521 	300.024682513878 	0.07142594798821417 	101354.1816217322
-0.5993493493493496 	300.0290500940889 	0.08405774140564465 	101359.3461601263
-0.5968468468468471 	300.0328961729094 	0.09517218361251763 	101363.8942040223
-0.5943443443443446 	300.0361526940247 	0.1045511103133967 	101367.7452386295
-0.591841841841842 	300.0387519248587 	0.1120160418976063 	101370.8190372927
-0.5893393393393397 	300.040638467494 	0.1174503604782505 	101373.0500911783
-0.5868368368368371 	300.041781173941 	0.1207509222624115 	101374.401530994
-0.5843343343343346 	300.0421497598004 	0.1218246166561931 	101374.8374629091
-0.5818318318318321 	300.0417317661537 	0.1206348663711917 	101374.3431898841
-0.5793293293293297 	300.040530777418 	0.1171535752674851 	101372.9230173483
-0.5768268268268271 	300.0385535739323 	0.111443843684495 	101370.5848922495
-0.5743243243243245 	300.0358336838624 	0.103611808699135 	101367.3685349281
-0.5718218218218221 	300.0324364299145 	0.09376337671075968 	101363.3512361243
-0.5693193193193196 	300.0284218715522 	0.08212909579697245 	101358.6041380202
-0.5668168168168171 	300.0238728748142 	0.06895165051945835 	101353.2251962923
-0.5643143143143147 	300.0188864166997 	0.05450755170023597 	101347.3292095011
-0.5618118118118121 	300.0135553154269 	0.03912740905109455 	101341.0260000683
-0.5593093093093094 	300.0079888058298 	0.02306446509622355 	101334.4447332966
-0.5568068068068072 	300.002308330265 	0.00661900134818709 	101327.7290753547
-0.5543043043043046 	299.9965803401792 	0.01123986112713959 	101320.9575047709
-0.551801801801802 	299.9908922606743 	0.02635131162603721 	101314.2334244905
-0.5492992992992995 	299.9853632904665 	0.04233341044087253 	101307.6977582103
-0.5467967967967969 	299.9801028787394 	0.05754749824185844 	101301.4798024556
-0.5442942942942947 	299.9752256490426 	0.07165937625695713 	101295.7150511853
-0.5417917917917919 	299.9708197548145 	0.0844145913798436 	101290.5075539731
-0.5392892892892895 	299.9669650890103 	0.09554801974681701 	101285.9517009751
-0.536786786786787 	299.9637382931632 	0.1048717056520208 	101282.138061832
-0.5342842842842846 	299.9611954192789 	0.1122332816439944 	101279.1327697784
-0.531781781781782 	299.9593635222901 	0.1174790559237263 	101276.9677463702
-0.5292792792792794 	299.9582884140054 	0.1205661218262815 	101275.6970701221
-0.526776776776777 	299.9579854125362 	0.121431247480548 	101275.338961512
-0.5242742742742745 	299.9584663077776 	0.1200320107202104 	101275.9072183697
-0.521771771771772 	299.9597257132667 	0.1164103989796479 	101277.395505505
-0.5192692692692695 	299.9617362238437 	0.1106166206737961 	101279.7714691948
-0.516766766766767 	299.9644383578281 	0.1027779162982437 	101282.9648669949
-0.5142642642642645 	299.9678020839787 	0.09309363488137029 	101286.9402313081
-0.511761761761762 	299.9717403829417 	0.0817180135061171 	101291.5948261609
-0.5092592592592596 	299.9761748516683 	0.06887524347974279 	101296.8360458596
-0.506756756756757 	299.9810134649936 	0.05485601261799129 	101302.5551566219
-0.5042542542542544 	299.9861717949475 	0.03992919517523228 	101308.6524610046
-0.5017517517517521 	299.9915330226201 	0.02441270747050699 	101314.9898259185
-0.4992492492492494 	299.9970352496935 	0.008562751422908695 	101321.4942030957
-0.496746746746747 	300.0025468449588 	0.009571867746248731 	101328.0099681463
-0.4942442442442445 	300.0080477271532 	0.02334575826598312 	101334.5133575719
-0.4917417417417421 	300.0134438491452 	0.03892518728299934 	101340.8932467286
-0.4892392392392395 	300.018626306858 	0.05389026250989662 	101347.0207177752
-0.486736736736737 	300.0234965169689 	0.0679564567663742 	101352.7792973628
-0.4842342342342345 	300.02795687895 	0.08085455592848033 	101358.0534907231
-0.481731731731732 	300.0319233974088 	0.09233004997934322 	101362.7438996755
-0.4792292292292296 	300.0353233096487 	0.102145108378269 	101366.7644895262
-0.4767267267267268 	300.0380810516179 	0.1101074040276857 	101370.0256933431
-0.4742242242242246 	300.0401426953114 	0.1160747651491885 	101372.4638201276
-0.471721721721722 	300.0414728732018 	0.1199177068057202 	101374.0369611618
-0.4692192192192195 	300.0420396027154 	0.1215455051468827 	101374.7072289181
-0.4667167167167169 	300.0418268857703 	0.1209164849726799 	101374.4557122326
-0.4642142142142145 	300.0408303935258 	0.1179956480783435 	101373.2773398088
-0.461711711711712 	300.0390479689389 	0.1128445455541635 	101371.1695734483
-0.4592092092092094 	300.0365135775098 	0.105537045958254 	101368.1725763644
-0.456706706706707 	300.0332808091878 	0.09617786406600498 	101364.3497508418
-0.4542042042042045 	300.0294081603073 	0.08499018867799225 	101359.7704395765
-0.451701701701702 	300.0249777692952 	0.07218261929801748 	101354.5316789085
-0.4491991991991995 	300.0200856373079 	0.05803355848869306 	101348.7471816584
-0.4466966966966969 	300.0148209954457 	0.04284615827661944 	101342.5224966621
-0.4441941941941945 	300.0093001703256 	0.02687913370256427 	101335.9951676369
-0.441691691691692 	300.0036336187691 	0.01046512881936458 	101329.2959008939
-0.4391891891891895 	299.9979070483951 	0.008764911320606947 	101322.5259224328
-0.436686686686687 	299.9922039951221 	0.02258660367449137 	101315.7840831006
-0.4341841841841846 	299.9866346380633 	0.03868462174295481 	101309.2006039193
-0.431681681681682 	299.9813079830674 	0.05406988690195224 	101302.9042900883
-0.4291791791791794 	299.976339997739 	0.0684124980012398 	101297.0322028403
-0.426676676676677 	299.971821570191 	0.08146029342519795 	101291.691649558
-0.4241741741741744 	299.9678430380105 	0.09294793272394146 	101286.9893858995
-0.421671671671672 	299.9644798951615 	0.1026869555149728 	101283.0145666186
-0.4191691691691694 	299.9617857394119 	0.1104986219118605 	101279.8304791444
-0.4166666666666669 	299.9597949706995 	0.1162315718259479 	101277.4777041058
-0.4141641641641645 	299.958554953165 	0.1198215858725483 	101276.0121045937
-0.411661661661662 	299.958080034843 	0.1211848963292965 	101275.4508445623
-0.4091591591591594 	299.9583888787632 	0.1202804196857415 	101275.815764168
-0.406656656656657 	299.959475409739 	0.1171316047862094 	101277.0997608993
-0.4041541541541545 	299.9613157156273 	0.1117882371574707 	101279.2745677927
-0.401651651651652 	299.963863361759 	0.1043919328007723 	101282.2853636474
-0.3991491491491494 	299.9670837328595 	0.09512354619371696 	101286.0912988515
-0.396646646646647 	299.9708870071635 	0.08414283894849517 	101290.5862589639
-0.3941441441441444 	299.9752019841499 	0.07167293524681646 	101295.6862177465
-0.3916416416416419 	299.97993687474 	0.05798008286620442 	101301.2826848237
-0.3891391391391395 	299.9850066570103 	0.04332337387410516 	101307.2752470246
-0.3866366366366368 	299.9903066050979 	0.02800140185170577 	101313.5401301994
-0.3841341341341344 	299.995761084036 	0.01226499195364296 	101319.9879721422
-0.381631631631632 	300.001240267775 	0.006669209036042988 	101326.465361181
-0.3791291291291294 	300.0067271776869 	0.01955479067095702 	101332.9521647016
-0.3766266266266269 	300.0121311646131 	0.03516484109759786 	101339.3412605348
-0.3741241241241244 	300.0173498125441 	0.0502324483348078 	101345.5114729335
-0.371621621621622 	300.0222849044832 	0.06448037561794234 	101351.3466868244
-0.3691191191191194 	300.0268396608446 	0.07763339418715505 	101356.732455924
-0.366616616616617 	300.0309306967795 	0.08945109143803749 	101361.5700665903
-0.3641141141141143 	300.0344796435066 	0.09967317290649594 	101365.7668389761
-0.3616116116116119 	300.0374011434734 	0.1081153074068383 	101369.2216900636
-0.3591091091091095 	300.0396406326665 	0.114615823936258 	101371.8701073212
-0.356606606606607 	300.0411561810531 	0.1190042010482187 	101373.6624675291
-0.3541041041041044 	300.0419131889388 	0.1212026338409983 	101374.5577796789
-0.3516016016016019 	300.0418942689165 	0.1211267542715159 	101374.5354294146
-0.3490990990990994 	300.0410910286881 	0.1187579791232861 	101373.5855732514
-0.346596596596597 	300.0394952650674 	0.1141520014759019 	101371.6985641643
-0.3440940940940944 	300.0371438339147 	0.1073459046411579 	101368.9179106175
-0.3415915915915919 	300.0340785470186 	0.09846049470171492 	101365.2931395611
-0.3390890890890895 	300.0303533482963 	0.08769092053783785 	101360.888137772
-0.3365865865865869 	300.0260468247645 	0.07524688351825991 	101355.7958042373
-0.3340840840840844 	300.0212526682996 	0.06140042506091489 	101350.1271192715
-0.3315815815815819 	300.0160552551798 	0.04643208407072365 	101343.9818377827
-0.3290790790790794 	300.0105808957912 	0.03059459348087058 	101337.5094095019
-0.3265765765765769 	300.0049316352388 	0.01423668079310487 	101330.8305004209
-0.3240740740740744 	299.9992111428596 	0.005461289451871978 	101324.0676247927
-0.3215715715715718 	299.9935034783378 	0.01882931081257869 	101317.3202877971
-0.3190690690690695 	299.9879082423266 	0.03502060354047525 	101310.7061155481
-0.3165665665665668 	299.9825315373653 	0.0505696083131693 	101304.3506107372
-0.3140640640640644 	299.9774830711248 	0.06513400824652187 	101298.3833291097
-0.311561561561562 	299.9728572735686 	0.07847962327180051 	101292.9158056068
-0.3090590590590593 	299.9687525809097 	0.09031104285568674 	101288.0644287654
-0.3065565565565568 	299.9652511660284 	0.1004449650080524 	101283.926126471
-0.3040540540540545 	299.9624087638856 	0.1086785723920393 	101280.5668596562
-0.3015515515515518 	299.9602683125387 	0.1148438520584362 	101278.0371709865
-0.2990490490490494 	299.958872719051 	0.1188992136095787 	101276.3876899166
-0.2965465465465469 	299.9582369382123 	0.1207388800972386 	101275.6363361426
-0.2940440440440444 	299.9583763054548 	0.1203491257432534 	101275.8009440542
-0.2915415415415418 	299.9592852298693 	0.1177250175364675 	101276.8750933805
-0.2890390390390395 	299.9609428882971 	0.1128876976973456 	101278.8340144695