/*--------------------------------*- C++ -*----------------------------------*\
  =========                 |
  \\      /  F ield         | OpenFOAM: The Open Source CFD Toolbox
   \\    /   O peration     | Website:  https://openfoam.org
    \\  /    A nd           | Version:  7
     \\/     M anipulation  |
\*---------------------------------------------------------------------------*/
FoamFile
{
    version     2.0;
    format      ascii;
    class       volScalarField;
    location    "0.00145";
    object      p;
}
// * * * * * * * * * * * * * * * * * * * * * * * * * * * * * * * * * * * * * //

dimensions      [1 -1 -2 0 0 0 0];

internalField   nonuniform List<scalar> 
5000
(
89755.016
89738.975
89722.708
89706.306
89689.81
89673.245
89656.632
89639.984
89623.309
89606.614
89589.902
89573.174
89556.428
89539.66
89522.865
89506.042
89489.189
89472.308
89455.403
89438.475
89421.53
89404.568
89387.593
89370.607
89353.61
89336.604
89319.591
89302.572
89285.547
89268.518
89251.486
89234.452
89217.417
89200.382
89183.349
89166.318
89149.292
89132.27
89115.254
89098.245
89081.244
89064.253
89047.272
89030.303
89013.347
88996.405
88979.478
88962.567
88945.674
88928.8
88911.945
88895.112
88878.3
88861.512
88844.749
88828.011
88811.3
88794.617
88777.964
88761.34
88744.749
88728.19
88711.665
88695.175
88678.721
88662.305
88645.928
88629.591
88613.295
88597.041
88580.83
88564.665
88548.546
88532.473
88516.45
88500.476
88484.553
88468.682
88452.866
88437.104
88421.398
88405.749
88390.16
88374.63
88359.161
88343.755
88328.412
88313.133
88297.921
88282.774
88267.696
88252.687
88237.747
88222.878
88208.082
88193.359
88178.71
88164.137
88149.641
88135.223
88120.885
88106.627
88092.451
88078.359
88064.351
88050.429
88036.595
88022.849
88009.194
87995.629
87982.157
87968.778
87955.495
87942.308
87929.218
87916.227
87903.337
87890.547
87877.859
87865.275
87852.796
87840.422
87828.155
87815.997
87803.947
87792.008
87780.181
87768.466
87756.865
87745.379
87734.01
87722.757
87711.624
87700.61
87689.717
87678.947
87668.3
87657.777
87647.381
87637.111
87626.969
87616.957
87607.074
87597.324
87587.705
87578.22
87568.869
87559.653
87550.574
87541.632
87532.827
87524.162
87515.636
87507.251
87499.008
87490.907
87482.948
87475.134
87467.464
87459.94
87452.561
87445.33
87438.246
87431.311
87424.524
87417.887
87411.401
87405.065
87398.881
87392.85
87386.97
87381.245
87375.673
87370.255
87364.992
87359.885
87354.933
87350.138
87345.499
87341.016
87336.692
87332.525
87328.516
87324.665
87320.973
87317.44
87314.066
87310.852
87307.797
87304.902
87302.167
87299.593
87297.178
87294.925
87292.831
87290.899
87289.126
87287.514
87286.063
87284.772
87283.64
87282.668
87281.855
87281.202
87280.709
87280.373
87280.211
87280.207
87280.357
87280.665
87281.129
87281.748
87282.521
87283.449
87284.529
87285.761
87287.145
87288.68
87290.363
87292.196
87294.176
87296.303
87298.576
87300.993
87303.554
87306.257
87309.102
87312.087
87315.21
87318.472
87321.87
87325.403
87329.07
87332.87
87336.801
87340.862
87345.052
87349.369
87353.812
87358.38
87363.071
87367.884
87372.816
87377.868
87383.036
87388.321
87393.72
87399.231
87404.854
87410.587
87416.428
87422.376
87428.429
87434.586
87440.844
87447.204
87453.662
87460.217
87466.868
87473.613
87480.451
87487.38
87494.398
87501.503
87508.694
87515.97
87523.328
87530.767
87538.285
87545.881
87553.553
87561.299
87569.118
87577.008
87584.967
87592.995
87601.088
87609.245
87617.466
87625.748
87634.09
87642.491
87650.948
87659.46
87668.027
87676.645
87685.315
87694.034
87702.802
87711.616
87720.476
87729.38
87738.327
87747.315
87756.345
87765.413
87774.519
87783.663
87792.842
87802.056
87811.304
87820.584
87829.896
87839.239
87848.611
87858.013
87867.442
87876.898
87886.38
87895.888
87905.42
87914.976
87924.555
87934.156
87943.778
87953.422
87963.085
87972.768
87982.469
87992.189
88001.925
88011.679
88021.449
88031.234
88041.035
88050.85
88060.679
88070.521
88080.375
88090.242
88100.121
88110.011
88119.911
88129.822
88139.743
88149.673
88159.612
88169.559
88179.514
88189.477
88199.447
88209.424
88219.407
88229.396
88239.391
88249.392
88259.397
88269.408
88279.423
88289.442
88299.465
88309.491
88319.522
88329.555
88339.591
88349.63
88359.672
88369.716
88379.762
88389.81
88399.859
88409.911
88419.964
88430.018
88440.074
88450.131
88460.189
88470.247
88480.307
88490.368
88500.429
88510.491
88520.553
88530.617
88540.681
88550.745
88560.81
88570.876
88580.942
88591.009
88601.076
88611.144
88621.213
88631.282
88641.352
88651.422
88661.494
88671.566
88681.638
88691.712
88701.786
88711.861
88721.936
88732.013
88742.09
88752.168
88762.246
88772.325
88782.405
88792.486
88802.567
88812.648
88822.73
88832.812
88842.895
88852.978
88863.062
88873.146
88883.229
88893.313
88903.397
88913.481
88923.565
88933.649
88943.733
88953.816
88963.899
88973.982
88984.064
88994.146
89004.228
89014.309
89024.389
89034.469
89044.548
89054.627
89064.705
89074.783
89084.86
89094.936
89105.012
89115.087
89125.162
89135.236
89145.31
89155.383
89165.455
89175.527
89185.599
89195.67
89205.741
89215.811
89225.881
89235.951
89246.021
89256.09
89266.16
89276.229
89286.298
89296.368
89306.437
89316.506
89326.575
89336.645
89346.714
89356.784
89366.854
89376.924
89386.994
89397.064
89407.135
89417.206
89427.277
89437.348
89447.419
89457.49
89467.562
89477.633
89487.705
89497.777
89507.849
89517.92
89527.992
89538.064
89548.135
89558.207
89568.278
89578.349
89588.42
89598.491
89608.562
89618.632
89628.701
89638.771
89648.84
89658.909
89668.977
89679.045
89689.112
89699.179
89709.246
89719.312
89729.378
89739.443
89749.508
89759.573
89769.637
89779.7
89789.764
89799.827
89809.889
89819.951
89830.013
89840.075
89850.137
89860.198
89870.259
89880.32
89890.381
89900.441
89910.502
89920.563
89930.623
89940.684
89950.745
89960.805
89970.866
89980.927
89990.988
90001.049
90011.111
90021.172
90031.234
90041.295
90051.357
90061.419
90071.481
90081.543
90091.606
90101.668
90111.731
90121.794
90131.856
90141.919
90151.982
90162.045
90172.107
90182.17
90192.232
90202.295
90212.357
90222.419
90232.481
90242.542
90252.604
90262.664
90272.725
90282.785
90292.845
90302.904
90312.963
90323.021
90333.079
90343.136
90353.193
90363.249
90373.304
90383.359
90393.413
90403.467
90413.52
90423.572
90433.624
90443.675
90453.725
90463.775
90473.823
90483.872
90493.919
90503.967
90514.013
90524.059
90534.104
90544.149
90554.193
90564.237
90574.28
90584.323
90594.366
90604.408
90614.45
90624.491
90634.533
90644.574
90654.614
90664.655
90674.695
90684.736
90694.776
90704.816
90714.856
90724.896
90734.936
90744.976
90755.016
90765.056
90775.097
90785.137
90795.177
90805.218
90815.259
90825.299
90835.34
90845.381
90855.422
90865.463
90875.505
90885.546
90895.588
90905.629
90915.671
90925.712
90935.754
90945.796
90955.837
90965.879
90975.92
90985.962
90996.003
91006.045
91016.086
91026.127
91036.168
91046.209
91056.249
91066.29
91076.33
91086.37
91096.41
91106.449
91116.489
91126.528
91136.566
91146.605
91156.643
91166.681
91176.719
91186.757
91196.794
91206.831
91216.868
91226.905
91236.942
91246.978
91257.014
91267.05
91277.086
91287.122
91297.158
91307.193
91317.229
91327.264
91337.3
91347.335
91357.371
91367.406
91377.442
91387.477
91397.513
91407.549
91417.585
91427.62
91437.656
91447.692
91457.729
91467.765
91477.801
91487.838
91497.875
91507.911
91517.948
91527.985
91538.022
91548.06
91558.097
91568.134
91578.172
91588.209
91598.247
91608.285
91618.322
91628.36
91638.397
91648.435
91658.472
91668.509
91678.546
91688.583
91698.62
91708.657
91718.693
91728.729
91738.765
91748.8
91758.836
91768.87
91778.905
91788.939
91798.973
91809.006
91819.038
91829.071
91839.102
91849.133
91859.164
91869.194
91879.223
91889.252
91899.28
91909.307
91919.334
91929.36
91939.385
91949.41
91959.433
91969.456
91979.479
91989.5
91999.521
92009.541
92019.56
92029.578
92039.595
92049.612
92059.627
92069.642
92079.657
92089.67
92099.682
92109.694
92119.705
92129.715
92139.724
92149.732
92159.74
92169.747
92179.753
92189.758
92199.763
92209.767
92219.77
92229.772
92239.774
92249.775
92259.776
92269.776
92279.775
92289.774
92299.772
92309.769
92319.766
92329.763
92339.759
92349.754
92359.75
92369.744
92379.739
92389.733
92399.727
92409.72
92419.713
92429.706
92439.698
92449.691
92459.683
92469.675
92479.667
92489.659
92499.65
92509.642
92519.633
92529.624
92539.616
92549.607
92559.598
92569.589
92579.58
92589.572
92599.563
92609.554
92619.545
92629.537
92639.528
92649.519
92659.511
92669.502
92679.494
92689.485
92699.477
92709.468
92719.46
92729.452
92739.443
92749.435
92759.427
92769.418
92779.41
92789.401
92799.393
92809.384
92819.376
92829.367
92839.358
92849.349
92859.34
92869.33
92879.321
92889.311
92899.301
92909.291
92919.28
92929.269
92939.258
92949.247
92959.235
92969.223
92979.21
92989.197
92999.184
93009.17
93019.156
93029.141
93039.126
93049.11
93059.094
93069.077
93079.059
93089.041
93099.023
93109.003
93118.984
93128.963
93138.942
93148.92
93158.897
93168.874
93178.85
93188.825
93198.8
93208.774
93218.747
93228.719
93238.691
93248.662
93258.632
93268.601
93278.569
93288.537
93298.504
93308.469
93318.435
93328.399
93338.362
93348.325
93358.286
93368.247
93378.207
93388.166
93398.125
93408.082
93418.039
93427.994
93437.949
93447.903
93457.856
93467.808
93477.759
93487.709
93497.658
93507.607
93517.554
93527.501
93537.447
93547.391
93557.335
93567.278
93577.221
93587.161
93597.102
93607.041
93616.98
93626.918
93636.854
93646.789
93656.723
93666.657
93676.591
93686.524
93696.456
93706.388
93716.318
93726.247
93736.174
93746.101
93756.027
93765.952
93775.876
93785.799
93795.721
93805.642
93815.564
93825.485
93835.404
93845.323
93855.241
93865.158
93875.074
93884.99
93894.904
93904.819
93914.733
93924.646
93934.559
93944.471
93954.382
93964.293
93974.203
93984.114
93994.023
94003.933
94013.841
94023.749
94033.657
94043.564
94053.472
94063.379
94073.285
94083.191
94093.097
94103.003
94112.908
94122.813
94132.719
94142.624
94152.529
94162.433
94172.337
94182.24
94192.144
94202.048
94211.952
94221.856
94231.759
94241.663
94251.566
94261.47
94271.374
94281.277
94291.18
94301.084
94310.987
94320.891
94330.795
94340.698
94350.601
94360.504
94370.408
94380.312
94390.216
94400.119
94410.022
94419.924
94429.828
94439.732
94449.636
94459.54
94469.442
94479.343
94489.246
94499.149
94509.052
94518.955
94528.857
94538.758
94548.659
94558.561
94568.462
94578.363
94588.264
94598.164
94608.064
94617.964
94627.864
94637.764
94647.662
94657.56
94667.458
94677.355
94687.253
94697.151
94707.048
94716.944
94726.839
94736.733
94746.628
94756.521
94766.414
94776.306
94786.198
94796.091
94805.982
94815.872
94825.762
94835.651
94845.539
94855.427
94865.314
94875.2
94885.085
94894.97
94904.854
94914.738
94924.621
94934.502
94944.383
94954.263
94964.142
94974.021
94983.899
94993.777
95003.653
95013.529
95023.403
95033.277
95043.15
95053.022
95062.893
95072.763
95082.633
95092.503
95102.371
95112.239
95122.105
95131.97
95141.834
95151.697
95161.56
95171.422
95181.283
95191.144
95201.004
95210.862
95220.72
95230.577
95240.433
95250.288
95260.142
95269.996
95279.85
95289.703
95299.554
95309.404
95319.254
95329.103
95338.951
95348.798
95358.644
95368.491
95378.337
95388.183
95398.027
95407.87
95417.712
95427.554
95437.395
95447.236
95457.076
95466.916
95476.755
95486.594
95496.432
95506.269
95516.106
95525.943
95535.779
95545.614
95555.449
95565.284
95575.118
95584.952
95594.786
95604.619
95614.452
95624.285
95634.117
95643.949
95653.78
95663.612
95673.444
95683.276
95693.107
95702.937
95712.767
95722.597
95732.426
95742.256
95752.085
95761.914
95771.744
95781.573
95791.402
95801.231
95811.059
95820.888
95830.717
95840.545
95850.374
95860.202
95870.03
95879.858
95889.686
95899.515
95909.343
95919.171
95928.999
95938.826
95948.653
95958.48
95968.307
95978.134
95987.962
95997.789
96007.615
96017.442
96027.269
96037.096
96046.922
96056.748
96066.575
96076.401
96086.226
96096.052
96105.877
96115.703
96125.529
96135.354
96145.179
96155.003
96164.826
96174.65
96184.473
96194.296
96204.119
96213.942
96223.764
96233.587
96243.409
96253.231
96263.051
96272.871
96282.69
96292.509
96302.327
96312.146
96321.963
96331.781
96341.598
96351.414
96361.23
96371.045
96380.86
96390.674
96400.488
96410.301
96420.113
96429.925
96439.736
96449.547
96459.356
96469.166
96478.974
96488.782
96498.589
96508.395
96518.201
96528.005
96537.809
96547.612
96557.415
96567.216
96577.017
96586.817
96596.615
96606.413
96616.211
96626.007
96635.802
96645.597
96655.39
96665.183
96674.974
96684.765
96694.555
96704.344
96714.131
96723.918
96733.704
96743.489
96753.272
96763.055
96772.837
96782.618
96792.397
96802.176
96811.954
96821.731
96831.507
96841.281
96851.054
96860.826
96870.597
96880.367
96890.136
96899.904
96909.671
96919.437
96929.202
96938.966
96948.729
96958.492
96968.252
96978.012
96987.77
96997.528
97007.284
97017.04
97026.795
97036.548
97046.301
97056.053
97065.804
97075.554
97085.303
97095.052
97104.799
97114.545
97124.29
97134.035
97143.778
97153.522
97163.264
97173.005
97182.746
97192.486
97202.225
97211.965
97221.703
97231.441
97241.177
97250.913
97260.648
97270.383
97280.117
97289.851
97299.584
97309.317
97319.049
97328.781
97338.513
97348.245
97357.976
97367.706
97377.435
97387.165
97396.894
97406.623
97416.352
97426.08
97435.809
97445.537
97455.265
97464.993
97474.721
97484.448
97494.176
97503.903
97513.63
97523.357
97533.083
97542.811
97552.539
97562.266
97571.992
97581.719
97591.446
97601.172
97610.9
97620.628
97630.355
97640.082
97649.809
97659.536
97669.263
97678.99
97688.718
97698.446
97708.173
97717.901
97727.628
97737.356
97747.083
97756.811
97766.54
97776.268
97785.995
97795.723
97805.45
97815.178
97824.906
97834.634
97844.362
97854.09
97863.817
97873.545
97883.272
97893
97902.727
97912.455
97922.182
97931.909
97941.636
97951.363
97961.09
97970.817
97980.544
97990.27
97999.996
98009.721
98019.447
98029.172
98038.897
98048.622
98058.347
98068.071
98077.795
98087.518
98097.241
98106.964
98116.687
98126.41
98136.132
98145.853
98155.574
98165.294
98175.014
98184.734
98194.454
98204.173
98213.891
98223.609
98233.326
98243.043
98252.76
98262.476
98272.191
98281.906
98291.62
98301.334
98311.047
98320.76
98330.472
98340.183
98349.894
98359.604
98369.313
98379.022
98388.73
98398.438
98408.145
98417.851
98427.556
98437.261
98446.965
98456.668
98466.371
98476.073
98485.775
98495.475
98505.175
98514.874
98524.572
98534.27
98543.967
98553.662
98563.358
98573.053
98582.747
98592.44
98602.132
98611.824
98621.515
98631.205
98640.895
98650.583
98660.271
98669.959
98679.645
98689.331
98699.016
98708.701
98718.384
98728.067
98737.749
98747.431
98757.111
98766.791
98776.47
98786.149
98795.826
98805.503
98815.179
98824.854
98834.529
98844.202
98853.875
98863.547
98873.219
98882.889
98892.559
98902.228
98911.897
98921.564
98931.231
98940.897
98950.562
98960.227
98969.89
98979.553
98989.215
98998.877
99008.537
99018.197
99027.856
99037.514
99047.172
99056.829
99066.484
99076.14
99085.794
99095.448
99105.1
99114.752
99124.404
99134.054
99143.703
99153.352
99163
99172.647
99182.294
99191.939
99201.584
99211.228
99220.872
99230.514
99240.156
99249.796
99259.436
99269.076
99278.714
99288.351
99297.988
99307.624
99317.259
99326.893
99336.526
99346.158
99355.79
99365.42
99375.049
99384.678
99394.306
99403.932
99413.558
99423.181
99432.804
99442.425
99452.045
99461.664
99471.282
99480.899
99490.516
99500.131
99509.746
99519.359
99528.971
99538.582
99548.191
99557.799
99567.406
99577.012
99586.617
99596.22
99605.822
99615.422
99625.02
99634.617
99644.214
99653.811
99663.405
99672.995
99682.579
99692.161
99701.749
99711.338
99720.923
99730.501
99740.078
99749.665
99759.27
99768.884
99778.501
99788.117
99797.732
99807.346
99816.959
99826.57
99836.181
99845.79
99855.397
99865.004
99874.609
99884.213
99893.816
99903.417
99913.017
99922.616
99932.214
99941.81
99951.405
99960.999
99970.591
99980.183
99989.773
99999.362
100008.95
100018.54
100028.12
100037.71
100047.29
100056.87
100066.45
100076.03
100085.61
100095.19
100104.77
100114.35
100123.92
100133.5
100143.07
100152.64
100162.21
100171.79
100181.36
100190.93
100200.49
100210.06
100219.63
100229.19
100238.76
100248.32
100257.89
100267.45
100277.01
100286.57
100296.13
100305.69
100315.25
100324.81
100334.37
100343.92
100353.48
100363.03
100372.59
100382.14
100391.69
100401.24
100410.79
100420.34
100429.89
100439.44
100448.99
100458.54
100468.08
100477.63
100487.18
100496.72
100506.26
100515.81
100525.35
100534.89
100544.43
100553.97
100563.51
100573.05
100582.59
100592.12
100601.66
100611.19
100620.73
100630.26
100639.8
100649.33
100658.86
100668.39
100677.92
100687.45
100696.98
100706.51
100716.04
100725.56
100735.09
100744.61
100754.14
100763.66
100773.19
100782.71
100792.23
100801.75
100811.27
100820.79
100830.31
100839.83
100849.35
100858.86
100868.38
100877.89
100887.41
100896.92
100906.44
100915.95
100925.46
100934.97
100944.48
100953.99
100963.5
100973.01
100982.52
100992.02
101001.53
101011.03
101020.54
101030.04
101039.55
101049.05
101058.55
101068.05
101077.55
101087.05
101096.55
101106.05
101115.55
101125.04
101134.54
101144.03
101153.53
101163.02
101172.52
101182.01
101191.5
101200.99
101210.48
101219.97
101229.46
101238.95
101248.44
101257.93
101267.41
101276.9
101286.38
101295.87
101305.35
101314.84
101324.32
101333.8
101343.28
101352.76
101362.24
101371.72
101381.2
101390.68
101400.15
101409.63
101419.1
101428.58
101438.05
101447.53
101457
101466.47
101475.94
101485.42
101494.89
101504.36
101513.83
101523.29
101532.76
101542.23
101551.7
101561.16
101570.63
101580.09
101589.56
101599.02
101608.48
101617.94
101627.41
101636.87
101646.33
101655.79
101665.25
101674.7
101684.16
101693.62
101703.08
101712.53
101721.99
101731.44
101740.9
101750.35
101759.8
101769.26
101778.71
101788.16
101797.61
101807.06
101816.51
101825.96
101835.41
101844.86
101854.31
101863.75
101873.2
101882.64
101892.09
101901.54
101910.98
101920.42
101929.87
101939.31
101948.75
101958.19
101967.63
101977.08
101986.52
101995.96
102005.39
102014.83
102024.27
102033.71
102043.15
102052.58
102062.02
102071.46
102080.89
102090.33
102099.76
102109.19
102118.63
102128.06
102137.49
102146.92
102156.36
102165.79
102175.22
102184.65
102194.08
102203.51
102212.94
102222.37
102231.79
102241.22
102250.65
102260.07
102269.5
102278.93
102288.35
102297.78
102307.2
102316.63
102326.05
102335.47
102344.9
102354.32
102363.74
102373.17
102382.59
102392.01
102401.43
102410.85
102420.27
102429.69
102439.11
102448.53
102457.95
102467.36
102476.78
102486.2
102495.62
102505.03
102514.45
102523.87
102533.28
102542.7
102552.11
102561.53
102570.94
102580.36
102589.77
102599.18
102608.6
102618.01
102627.42
102636.83
102646.25
102655.66
102665.07
102674.48
102683.89
102693.3
102702.71
102712.12
102721.53
102730.94
102740.35
102749.75
102759.16
102768.57
102777.98
102787.38
102796.79
102806.2
102815.6
102825.01
102834.41
102843.82
102853.22
102862.63
102872.03
102881.44
102890.84
102900.24
102909.65
102919.05
102928.45
102937.86
102947.26
102956.66
102966.06
102975.46
102984.86
102994.26
103003.66
103013.06
103022.46
103031.86
103041.26
103050.66
103060.06
103069.46
103078.85
103088.25
103097.65
103107.04
103116.44
103125.84
103135.23
103144.63
103154.02
103163.42
103172.81
103182.21
103191.6
103201
103210.39
103219.78
103229.18
103238.57
103247.96
103257.35
103266.75
103276.14
103285.53
103294.92
103304.31
103313.7
103323.09
103332.48
103341.87
103351.26
103360.64
103370.03
103379.42
103388.81
103398.19
103407.58
103416.97
103426.35
103435.74
103445.12
103454.51
103463.89
103473.28
103482.66
103492.04
103501.43
103510.81
103520.19
103529.57
103538.96
103548.34
103557.72
103567.1
103576.48
103585.86
103595.24
103604.62
103613.99
103623.37
103632.75
103642.13
103651.5
103660.88
103670.25
103679.63
103689.01
103698.38
103707.75
103717.13
103726.5
103735.87
103745.25
103754.62
103763.99
103773.36
103782.73
103792.1
103801.47
103810.84
103820.21
103829.57
103838.94
103848.31
103857.67
103867.04
103876.41
103885.77
103895.14
103904.5
103913.86
103923.23
103932.59
103941.95
103951.31
103960.67
103970.03
103979.39
103988.75
103998.11
104007.47
104016.82
104026.18
104035.54
104044.89
104054.25
104063.6
104072.96
104082.31
104091.66
104101.01
104110.37
104119.72
104129.07
104138.42
104147.77
104157.11
104166.46
104175.81
104185.16
104194.5
104203.85
104213.19
104222.54
104231.88
104241.22
104250.56
104259.91
104269.25
104278.59
104287.93
104297.27
104306.6
104315.94
104325.28
104334.62
104343.95
104353.29
104362.62
104371.95
104381.29
104390.62
104399.95
104409.28
104418.61
104427.94
104437.27
104446.6
104455.93
104465.25
104474.58
104483.91
104493.23
104502.55
104511.88
104521.2
104530.52
104539.84
104549.16
104558.48
104567.8
104577.12
104586.44
104595.76
104605.07
104614.39
104623.7
104633.02
104642.33
104651.65
104660.96
104670.27
104679.58
104688.89
104698.2
104707.51
104716.82
104726.12
104735.43
104744.73
104754.04
104763.34
104772.65
104781.95
104791.25
104800.55
104809.85
104819.15
104828.45
104837.75
104847.05
104856.35
104865.64
104874.94
104884.23
104893.53
104902.82
104912.12
104921.41
104930.7
104939.99
104949.28
104958.57
104967.86
104977.14
104986.43
104995.72
105005
105014.29
105023.57
105032.85
105042.14
105051.42
105060.7
105069.98
105079.26
105088.54
105097.82
105107.1
105116.37
105125.65
105134.92
105144.2
105153.47
105162.75
105172.02
105181.29
105190.56
105199.83
105209.1
105218.37
105227.64
105236.9
105246.17
105255.44
105264.7
105273.97
105283.23
105292.49
105301.76
105311.02
105320.28
105329.54
105338.8
105348.06
105357.31
105366.57
105375.83
105385.08
105394.34
105403.59
105412.85
105422.1
105431.35
105440.6
105449.85
105459.1
105468.35
105477.6
105486.85
105496.1
105505.34
105514.59
105523.83
105533.08
105542.32
105551.56
105560.8
105570.05
105579.29
105588.53
105597.77
105607
105616.24
105625.48
105634.71
105643.95
105653.19
105662.42
105671.65
105680.89
105690.12
105699.35
105708.58
105717.81
105727.04
105736.27
105745.49
105754.72
105763.95
105773.17
105782.4
105791.62
105800.84
105810.07
105819.29
105828.51
105837.73
105846.95
105856.17
105865.38
105874.6
105883.82
105893.03
105902.25
105911.46
105920.68
105929.89
105939.1
105948.32
105957.53
105966.74
105975.95
105985.15
105994.36
106003.57
106012.78
106021.98
106031.19
106040.39
106049.59
106058.8
106068
106077.2
106086.4
106095.6
106104.8
106114
106123.2
106132.39
106141.59
106150.79
106159.98
106169.18
106178.37
106187.56
106196.75
106205.94
106215.14
106224.32
106233.51
106242.7
106251.89
106261.08
106270.26
106279.45
106288.63
106297.82
106307
106316.18
106325.36
106334.55
106343.73
106352.91
106362.08
106371.26
106380.44
106389.62
106398.79
106407.97
106417.14
106426.32
106435.49
106444.66
106453.83
106463
106472.17
106481.34
106490.51
106499.68
106508.85
106518.01
106527.18
106536.34
106545.51
106554.67
106563.84
106573
106582.16
106591.32
106600.48
106609.64
106618.8
106627.95
106637.11
106646.27
106655.42
106664.58
106673.73
106682.89
106692.04
106701.19
106710.34
106719.49
106728.64
106737.79
106746.94
106756.09
106765.23
106774.38
106783.52
106792.67
106801.81
106810.95
106820.1
106829.24
106838.38
106847.52
106856.66
106865.79
106874.93
106884.07
106893.21
106902.34
106911.47
106920.61
106929.74
106938.87
106948.01
106957.14
106966.27
106975.39
106984.52
106993.65
107002.78
107011.9
107021.03
107030.15
107039.28
107048.4
107057.52
107066.64
107075.76
107084.88
107094
107103.12
107112.24
107121.35
107130.47
107139.58
107148.7
107157.81
107166.92
107176.03
107185.14
107194.25
107203.36
107212.47
107221.57
107230.68
107239.79
107248.89
107257.99
107267.1
107276.2
107285.3
107294.4
107303.5
107312.59
107321.69
107330.79
107339.88
107348.97
107358.07
107367.16
107376.25
107385.34
107394.43
107403.51
107412.6
107421.69
107430.77
107439.85
107448.93
107458.01
107467.09
107476.17
107485.25
107494.32
107503.4
107512.47
107521.54
107530.61
107539.68
107548.75
107557.81
107566.88
107575.94
107585
107594.06
107603.12
107612.18
107621.23
107630.28
107639.33
107648.38
107657.43
107666.48
107675.52
107684.56
107693.6
107702.64
107711.67
107720.7
107729.73
107738.76
107747.78
107756.81
107765.82
107774.84
107783.86
107792.87
107801.87
107810.88
107819.88
107828.88
107837.87
107846.87
107855.85
107864.84
107873.82
107882.79
107891.77
107900.74
107909.7
107918.66
107927.61
107936.56
107945.51
107954.45
107963.39
107972.32
107981.24
107990.16
107999.07
108007.98
108016.88
108025.78
108034.67
108043.55
108052.42
108061.29
108070.15
108079.01
108087.85
108096.69
108105.52
108114.34
108123.15
108131.96
108140.75
108149.54
108158.31
108167.08
108175.83
108184.58
108193.31
108202.03
108210.74
108219.44
108228.13
108236.81
108245.47
108254.12
108262.75
108271.38
108279.98
108288.58
108297.16
108305.72
108314.27
108322.8
108331.31
108339.81
108348.29
108356.76
108365.2
108373.63
108382.03
108390.42
108398.79
108407.14
108415.46
108423.77
108432.05
108440.31
108448.54
108456.76
108464.94
108473.11
108481.25
108489.36
108497.44
108505.5
108513.53
108521.53
108529.51
108537.45
108545.37
108553.25
108561.1
108568.92
108576.7
108584.46
108592.18
108599.86
108607.51
108615.12
108622.69
108630.23
108637.73
108645.18
108652.6
108659.98
108667.32
108674.61
108681.86
108689.07
108696.23
108703.34
108710.41
108717.43
108724.41
108731.33
108738.21
108745.03
108751.81
108758.53
108765.2
108771.81
108778.37
108784.88
108791.32
108797.71
108804.04
108810.32
108816.53
108822.68
108828.77
108834.79
108840.76
108846.65
108852.49
108858.25
108863.95
108869.58
108875.14
108880.64
108886.06
108891.41
108896.68
108901.89
108907.02
108912.07
108917.05
108921.95
108926.77
108931.52
108936.18
108940.77
108945.27
108949.69
108954.03
108958.28
108962.46
108966.54
108970.54
108974.45
108978.28
108982.02
108985.66
108989.22
108992.69
108996.07
108999.35
109002.54
109005.64
109008.65
109011.56
109014.38
109017.1
109019.72
109022.25
109024.68
109027.01
109029.24
109031.38
109033.41
109035.35
109037.18
109038.92
109040.55
109042.08
109043.51
109044.84
109046.06
109047.19
109048.2
109049.12
109049.93
109050.64
109051.24
109051.74
109052.13
109052.42
109052.61
109052.69
109052.67
109052.54
109052.3
109051.96
109051.51
109050.95
109050.3
109049.53
109048.67
109047.7
109046.62
109045.44
109044.15
109042.76
109041.27
109039.67
109037.97
109036.16
109034.25
109032.24
109030.13
109027.91
109025.6
109023.18
109020.66
109018.04
109015.32
109012.51
109009.59
109006.58
109003.46
109000.25
108996.94
108993.54
108990.04
108986.44
108982.75
108978.96
108975.09
108971.12
108967.06
108962.91
108958.67
108954.34
108949.92
108945.42
108940.82
108936.13
108931.36
108926.5
108921.56
108916.53
108911.42
108906.23
108900.96
108895.62
108890.2
108884.7
108879.12
108873.47
108867.73
108861.92
108856.03
108850.06
108844.01
108837.89
108831.71
108825.46
108819.15
108812.77
108806.34
108799.85
108793.29
108786.66
108779.97
108773.2
108766.36
108759.44
108752.46
108745.42
108738.32
108731.17
108723.98
108716.75
108709.49
108702.2
108694.88
108687.51
108680.05
108672.5
108664.85
108657.21
108649.31
108641.74
108634.04
108626.25
108618.51
108610.83
108603.13
108595.41
108587.67
108579.91
108572.11
108564.28
108556.43
108548.55
108540.64
108532.71
108524.76
108516.79
108508.79
108500.77
108492.73
108484.66
108476.55
108468.42
108460.26
108452.07
108443.85
108435.6
108427.32
108419.02
108410.69
108402.34
108393.97
108385.58
108377.16
108368.73
108360.27
108351.79
108343.29
108334.77
108326.23
108317.67
108309.09
108300.49
108291.87
108283.23
108274.58
108265.91
108257.23
108248.53
108239.81
108231.08
108222.34
108213.58
108204.8
108196.02
108187.22
108178.4
108169.58
108160.74
108151.88
108143.02
108134.15
108125.26
108116.36
108107.46
108098.54
108089.61
108080.68
108071.73
108062.77
108053.81
108044.83
108035.85
108026.86
108017.86
108008.85
107999.84
107990.82
107981.79
107972.75
107963.71
107954.66
107945.6
107936.54
107927.47
107918.39
107909.31
107900.22
107891.13
107882.03
107872.92
107863.81
107854.7
107845.58
107836.45
107827.32
107818.19
107809.05
107799.91
107790.76
107781.61
107772.46
107763.3
107754.13
107744.97
107735.79
107726.62
107717.44
107708.26
107699.08
107689.89
107680.7
107671.5
107662.3
107653.1
107643.9
107634.69
107625.48
107616.27
107607.06
107597.84
107588.62
107579.4
107570.17
107560.94
107551.71
107542.48
107533.24
107524.01
107514.77
107505.53
107496.28
107487.03
107477.79
107468.54
107459.28
107450.03
107440.77
107431.51
107422.25
107412.99
107403.73
107394.46
107385.19
107375.93
107366.65
107357.38
107348.11
107338.83
107329.55
107320.27
107310.99
107301.71
107292.42
107283.14
107273.85
107264.56
107255.27
107245.98
107236.68
107227.39
107218.09
107208.79
107199.49
107190.19
107180.89
107171.59
107162.28
107152.98
107143.67
107134.36
107125.05
107115.74
107106.42
107097.11
107087.79
107078.48
107069.16
107059.84
107050.52
107041.2
107031.87
107022.55
107013.22
107003.9
106994.57
106985.24
106975.91
106966.58
106957.24
106947.91
106938.58
106929.24
106919.9
106910.57
106901.23
106891.89
106882.54
106873.2
106863.86
106854.51
106845.17
106835.82
106826.47
106817.12
106807.77
106798.42
106789.07
106779.72
106770.36
106761.01
106751.65
106742.3
106732.94
106723.58
106714.22
106704.86
106695.5
106686.13
106676.77
106667.4
106658.04
106648.67
106639.3
106629.94
106620.57
106611.2
106601.82
106592.45
106583.08
106573.7
106564.33
106554.95
106545.58
106536.2
106526.82
106517.44
106508.06
106498.68
106489.29
106479.91
106470.53
106461.14
106451.75
106442.37
106432.98
106423.59
106414.2
106404.81
106395.42
106386.03
106376.63
106367.24
106357.84
106348.45
106339.05
106329.65
106320.26
106310.86
106301.46
106292.06
106282.65
106273.25
106263.85
106254.44
106245.04
106235.63
106226.22
106216.82
106207.41
106198
106188.59
106179.18
106169.76
106160.35
106150.94
106141.52
106132.11
106122.69
106113.27
106103.86
106094.44
106085.02
106075.6
106066.18
106056.75
106047.33
106037.91
106028.48
106019.06
106009.63
106000.2
105990.78
105981.35
105971.92
105962.49
105953.06
105943.62
105934.19
105924.76
105915.32
105905.89
105896.45
105887.01
105877.58
105868.14