/*--------------------------------*- C++ -*----------------------------------*\
  =========                 |
  \\      /  F ield         | OpenFOAM: The Open Source CFD Toolbox
   \\    /   O peration     | Website:  https://openfoam.org
    \\  /    A nd           | Version:  7
     \\/     M anipulation  |
\*---------------------------------------------------------------------------*/
FoamFile
{
    version     2.0;
    format      ascii;
    class       volScalarField;
    location    "0.00332";
    object      rho;
}
// * * * * * * * * * * * * * * * * * * * * * * * * * * * * * * * * * * * * * //

dimensions      [1 -3 0 0 0 0 0];

internalField   nonuniform List<scalar> 
5000
(
1.2479604
1.2479603
1.2479605
1.2479608
1.2479611
1.2479613
1.2479614
1.2479615
1.2479616
1.2479617
1.2479617
1.2479617
1.2479617
1.2479617
1.2479617
1.2479618
1.2479618
1.2479618
1.2479618
1.2479618
1.2479618
1.2479618
1.2479618
1.2479618
1.2479618
1.2479618
1.2479618
1.2479618
1.2479617
1.2479617
1.2479617
1.2479617
1.2479617
1.2479617
1.2479617
1.2479617
1.2479617
1.2479617
1.2479617
1.2479617
1.2479617
1.2479617
1.2479617
1.2479617
1.2479617
1.2479617
1.2479617
1.2479617
1.2479617
1.2479617
1.2479617
1.2479617
1.2479617
1.2479617
1.2479617
1.2479617
1.2479617
1.2479617
1.2479617
1.2479617
1.2479617
1.2479617
1.2479617
1.2479617
1.2479617
1.2479617
1.2479617
1.2479617
1.2479617
1.2479617
1.2479617
1.2479617
1.2479617
1.2479617
1.2479616
1.2479616
1.2479616
1.2479616
1.2479616
1.2479616
1.2479616
1.2479616
1.2479616
1.2479616
1.2479616
1.2479616
1.2479616
1.2479616
1.2479616
1.2479616
1.2479616
1.2479616
1.2479616
1.2479616
1.2479616
1.2479616
1.2479616
1.2479616
1.2479616
1.2479616
1.2479616
1.2479616
1.2479616
1.2479616
1.2479616
1.2479616
1.2479615
1.2479615
1.2479615
1.2479615
1.2479615
1.2479615
1.2479615
1.2479615
1.2479615
1.2479615
1.2479615
1.2479615
1.2479615
1.2479615
1.2479615
1.2479615
1.2479615
1.2479615
1.2479615
1.2479615
1.2479615
1.2479615
1.2479615
1.2479615
1.2479615
1.2479615
1.2479615
1.2479615
1.2479615
1.2479615
1.2479615
1.2479615
1.2479615
1.2479614
1.2479614
1.2479614
1.2479614
1.2479614
1.2479614
1.2479614
1.2479614
1.2479614
1.2479614
1.2479614
1.2479614
1.2479614
1.2479614
1.2479614
1.2479614
1.2479614
1.2479614
1.2479614
1.2479614
1.2479614
1.2479614
1.2479614
1.2479614
1.2479614
1.2479614
1.2479614
1.2479614
1.2479614
1.2479614
1.2479614
1.2479614
1.2479614
1.2479614
1.2479614
1.2479614
1.2479614
1.2479614
1.2479614
1.2479614
1.2479614
1.2479614
1.2479614
1.2479614
1.2479614
1.2479614
1.2479614
1.2479614
1.2479613
1.2479613
1.2479613
1.2479613
1.2479613
1.2479613
1.2479613
1.2479613
1.2479613
1.2479613
1.2479613
1.2479613
1.2479613
1.2479613
1.2479613
1.2479613
1.2479613
1.2479613
1.2479613
1.2479613
1.2479613
1.2479613
1.2479613
1.2479613
1.2479613
1.2479613
1.2479613
1.2479613
1.2479613
1.2479613
1.2479613
1.2479613
1.2479613
1.2479613
1.2479613
1.2479613
1.2479613
1.2479613
1.2479613
1.2479613
1.2479613
1.2479613
1.2479613
1.2479613
1.2479613
1.2479613
1.2479613
1.2479613
1.2479613
1.2479613
1.2479613
1.2479613
1.2479613
1.2479613
1.2479613
1.2479613
1.2479613
1.2479613
1.2479613
1.2479613
1.2479613
1.2479613
1.2479613
1.2479613
1.2479613
1.2479613
1.2479613
1.2479613
1.2479613
1.2479613
1.2479613
1.2479613
1.2479613
1.2479613
1.2479613
1.2479613
1.2479613
1.2479613
1.2479613
1.2479613
1.2479613
1.2479613
1.2479613
1.2479613
1.2479613
1.2479613
1.2479613
1.2479613
1.2479613
1.2479613
1.2479613
1.2479613
1.2479613
1.2479613
1.2479613
1.2479613
1.2479613
1.2479613
1.2479613
1.2479613
1.2479613
1.2479613
1.2479613
1.2479613
1.2479613
1.2479613
1.2479613
1.2479613
1.2479613
1.2479613
1.2479613
1.2479613
1.2479613
1.2479613
1.2479613
1.2479613
1.2479613
1.2479613
1.2479613
1.2479613
1.2479613
1.2479613
1.2479613
1.2479613
1.2479613
1.2479613
1.2479613
1.2479613
1.2479613
1.2479613
1.2479613
1.2479613
1.2479613
1.2479613
1.2479613
1.2479613
1.2479613
1.2479613
1.2479613
1.2479613
1.2479613
1.2479613
1.2479613
1.2479613
1.2479613
1.2479613
1.2479613
1.2479613
1.2479613
1.2479613
1.2479613
1.2479613
1.2479613
1.2479613
1.2479613
1.2479613
1.2479613
1.2479613
1.2479613
1.2479613
1.2479613
1.2479613
1.2479613
1.2479613
1.2479613
1.2479613
1.2479613
1.2479613
1.2479613
1.2479613
1.2479613
1.2479613
1.2479613
1.2479613
1.2479613
1.2479613
1.2479613
1.2479613
1.2479613
1.2479613
1.2479613
1.2479613
1.2479613
1.2479613
1.2479613
1.2479613
1.2479613
1.2479613
1.2479613
1.2479613
1.2479613
1.2479613
1.2479613
1.2479613
1.2479613
1.2479613
1.2479613
1.2479613
1.2479613
1.2479613
1.2479613
1.2479613
1.2479613
1.2479613
1.2479613
1.2479613
1.2479613
1.2479613
1.2479613
1.2479613
1.2479613
1.2479613
1.2479613
1.2479613
1.2479613
1.2479613
1.2479613
1.2479613
1.2479613
1.2479613
1.2479613
1.2479613
1.2479613
1.2479613
1.2479613
1.2479613
1.2479613
1.2479613
1.2479613
1.2479613
1.2479613
1.2479613
1.2479613
1.2479613
1.2479613
1.2479613
1.2479613
1.2479613
1.2479613
1.2479613
1.2479613
1.2479613
1.2479613
1.2479613
1.2479613
1.2479613
1.2479613
1.2479613
1.2479613
1.2479613
1.2479613
1.2479613
1.2479613
1.2479613
1.2479613
1.2479613
1.2479613
1.2479613
1.2479613
1.2479613
1.2479613
1.2479613
1.2479613
1.2479613
1.2479613
1.2479613
1.2479613
1.2479613
1.2479613
1.2479613
1.2479612
1.2479612
1.2479612
1.2479612
1.2479612
1.2479612
1.2479612
1.2479612
1.2479612
1.2479612
1.2479612
1.2479612
1.2479612
1.2479612
1.2479612
1.2479612
1.2479612
1.2479612
1.2479612
1.2479612
1.2479612
1.2479612
1.2479612
1.2479612
1.2479612
1.2479612
1.2479612
1.2479612
1.2479612
1.2479612
1.2479612
1.2479612
1.2479612
1.2479612
1.2479612
1.2479612
1.2479612
1.2479612
1.2479612
1.2479612
1.2479612
1.2479612
1.2479612
1.2479612
1.2479612
1.2479612
1.2479612
1.2479612
1.2479612
1.2479612
1.2479612
1.2479612
1.2479612
1.2479612
1.2479612
1.2479612
1.2479612
1.2479612
1.2479612
1.2479612
1.2479612
1.2479612
1.2479612
1.2479612
1.2479612
1.2479612
1.2479612
1.2479612
1.2479612
1.2479612
1.2479612
1.2479612
1.2479612
1.2479612
1.2479612
1.2479612
1.2479612
1.2479612
1.2479612
1.2479612
1.2479612
1.2479612
1.2479612
1.2479612
1.2479612
1.2479612
1.2479612
1.2479612
1.2479612
1.2479612
1.2479612
1.2479612
1.2479612
1.2479612
1.2479612
1.2479612
1.2479612
1.2479612
1.2479612
1.2479612
1.2479612
1.2479612
1.2479612
1.2479612
1.2479612
1.2479612
1.2479612
1.2479612
1.2479612
1.2479612
1.2479612
1.2479612
1.2479611
1.2479611
1.2479611
1.2479611
1.2479611
1.2479611
1.2479611
1.2479611
1.2479611
1.2479611
1.2479611
1.2479611
1.2479611
1.2479611
1.2479611
1.2479611
1.2479611
1.2479611
1.2479611
1.2479611
1.2479611
1.2479611
1.2479611
1.2479611
1.2479611
1.2479611
1.2479611
1.2479611
1.2479611
1.2479611
1.2479611
1.2479611
1.2479611
1.2479611
1.2479611
1.2479611
1.2479611
1.2479611
1.2479611
1.2479611
1.2479611
1.2479611
1.2479611
1.2479611
1.2479611
1.2479611
1.2479611
1.2479611
1.2479611
1.2479611
1.2479611
1.2479611
1.2479611
1.2479611
1.2479611
1.2479611
1.2479611
1.2479611
1.2479611
1.2479611
1.2479611
1.2479611
1.2479611
1.2479611
1.2479611
1.2479611
1.2479611
1.2479611
1.2479611
1.2479611
1.2479611
1.2479611
1.2479611
1.2479611
1.2479611
1.2479611
1.2479611
1.2479611
1.2479611
1.2479611
1.2479611
1.2479611
1.2479611
1.2479611
1.2479611
1.2479611
1.2479611
1.2479611
1.2479611
1.2479611
1.2479611
1.2479611
1.247961
1.247961
1.247961
1.247961
1.247961
1.247961
1.247961
1.247961
1.247961
1.247961
1.247961
1.247961
1.247961
1.247961
1.247961
1.247961
1.247961
1.247961
1.247961
1.247961
1.247961
1.247961
1.247961
1.247961
1.247961
1.247961
1.247961
1.247961
1.247961
1.247961
1.247961
1.247961
1.247961
1.247961
1.247961
1.247961
1.247961
1.247961
1.247961
1.247961
1.247961
1.247961
1.247961
1.247961
1.247961
1.247961
1.247961
1.247961
1.247961
1.247961
1.247961
1.247961
1.247961
1.247961
1.247961
1.247961
1.247961
1.247961
1.247961
1.247961
1.247961
1.247961
1.247961
1.247961
1.247961
1.247961
1.247961
1.247961
1.247961
1.247961
1.247961
1.247961
1.247961
1.247961
1.247961
1.247961
1.247961
1.247961
1.247961
1.2479609
1.2479609
1.2479609
1.2479609
1.2479609
1.2479609
1.2479609
1.2479609
1.2479609
1.2479609
1.2479609
1.2479609
1.2479609
1.2479609
1.2479609
1.2479609
1.2479609
1.2479609
1.2479609
1.2479609
1.2479609
1.2479609
1.2479609
1.2479609
1.2479609
1.2479609
1.2479609
1.2479609
1.2479609
1.2479609
1.2479609
1.2479609
1.2479609
1.2479609
1.2479609
1.2479609
1.2479609
1.2479609
1.2479609
1.2479609
1.2479609
1.2479609
1.2479609
1.2479609
1.2479609
1.2479609
1.2479609
1.2479609
1.2479609
1.2479609
1.2479609
1.2479609
1.2479609
1.2479609
1.2479609
1.2479609
1.2479609
1.2479609
1.2479609
1.2479609
1.2479609
1.2479609
1.2479609
1.2479609
1.2479609
1.2479609
1.2479609
1.2479609
1.2479609
1.2479609
1.2479609
1.2479609
1.2479608
1.2479608
1.2479608
1.2479608
1.2479608
1.2479608
1.2479608
1.2479608
1.2479608
1.2479608
1.2479608
1.2479608
1.2479608
1.2479608
1.2479608
1.2479608
1.2479608
1.2479608
1.2479608
1.2479608
1.2479608
1.2479608
1.2479608
1.2479608
1.2479608
1.2479608
1.2479608
1.2479608
1.2479608
1.2479608
1.2479608
1.2479608
1.2479608
1.2479608
1.2479608
1.2479608
1.2479608
1.2479608
1.2479608
1.2479608
1.2479608
1.2479608
1.2479608
1.2479608
1.2479608
1.2479608
1.2479608
1.2479608
1.2479608
1.2479608
1.2479608
1.2479608
1.2479608
1.2479608
1.2479608
1.2479608
1.2479608
1.2479608
1.2479608
1.2479608
1.2479608
1.2479608
1.2479608
1.2479608
1.2479608
1.2479608
1.2479608
1.2479608
1.2479607
1.2479607
1.2479607
1.2479607
1.2479607
1.2479607
1.2479607
1.2479607
1.2479607
1.2479607
1.2479607
1.2479607
1.2479607
1.2479607
1.2479607
1.2479607
1.2479607
1.2479607
1.2479607
1.2479607
1.2479607
1.2479607
1.2479607
1.2479607
1.2479607
1.2479607
1.2479607
1.2479607
1.2479607
1.2479607
1.2479607
1.2479607
1.2479607
1.2479607
1.2479607
1.2479607
1.2479607
1.2479607
1.2479607
1.2479607
1.2479607
1.2479607
1.2479607
1.2479607
1.2479607
1.2479607
1.2479607
1.2479607
1.2479607
1.2479607
1.2479607
1.2479607
1.2479607
1.2479607
1.2479607
1.2479607
1.2479607
1.2479606
1.2479606
1.2479606
1.2479606
1.2479606
1.2479606
1.2479606
1.2479606
1.2479606
1.2479606
1.2479606
1.2479606
1.2479606
1.2479606
1.2479606
1.2479606
1.2479606
1.2479606
1.2479606
1.2479606
1.2479606
1.2479606
1.2479606
1.2479606
1.2479606
1.2479606
1.2479606
1.2479606
1.2479606
1.2479606
1.2479606
1.2479606
1.2479606
1.2479606
1.2479606
1.2479606
1.2479606
1.2479606
1.2479606
1.2479606
1.2479606
1.2479606
1.2479606
1.2479606
1.2479606
1.2479606
1.2479606
1.2479606
1.2479606
1.2479606
1.2479606
1.2479606
1.2479606
1.2479606
1.2479606
1.2479605
1.2479605
1.2479605
1.2479605
1.2479605
1.2479605
1.2479605
1.2479605
1.2479605
1.2479605
1.2479605
1.2479605
1.2479605
1.2479605
1.2479605
1.2479605
1.2479605
1.2479605
1.2479605
1.2479605
1.2479605
1.2479605
1.2479605
1.2479605
1.2479605
1.2479605
1.2479605
1.2479605
1.2479605
1.2479605
1.2479605
1.2479605
1.2479605
1.2479605
1.2479605
1.2479605
1.2479605
1.2479605
1.2479605
1.2479604
1.2479604
1.2479604
1.2479604
1.2479604
1.2479604
1.2479604
1.2479604
1.2479604
1.2479604
1.2479604
1.2479604
1.2479604
1.2479604
1.2479604
1.2479604
1.2479604
1.2479604
1.2479604
1.2479604
1.2479604
1.2479604
1.2479604
1.2479604
1.2479604
1.2479604
1.2479604
1.2479604
1.2479604
1.2479604
1.2479604
1.2479604
1.2479604
1.2479604
1.2479604
1.2479604
1.2479604
1.2479604
1.2479604
1.2479603
1.2479603
1.2479603
1.2479603
1.2479603
1.2479603
1.2479603
1.2479603
1.2479603
1.2479603
1.2479603
1.2479603
1.2479603
1.2479603
1.2479603
1.2479603
1.2479603
1.2479603
1.2479603
1.2479603
1.2479603
1.2479603
1.2479603
1.2479603
1.2479603
1.2479603
1.2479603
1.2479603
1.2479603
1.2479603
1.2479603
1.2479603
1.2479603
1.2479602
1.2479602
1.2479602
1.2479602
1.2479602
1.2479602
1.2479602
1.2479602
1.2479602
1.2479602
1.2479602
1.2479602
1.2479602
1.2479602
1.2479602
1.2479602
1.2479602
1.2479602
1.2479602
1.2479602
1.2479602
1.2479602
1.2479602
1.2479602
1.2479602
1.2479602
1.2479602
1.2479601
1.2479601
1.2479601
1.2479601
1.2479601
1.2479601
1.2479601
1.2479601
1.2479601
1.2479601
1.2479601
1.2479601
1.2479601
1.2479601
1.2479601
1.2479601
1.2479601
1.2479601
1.2479601
1.2479601
1.2479601
1.2479601
1.2479601
1.2479601
1.2479601
1.24796
1.24796
1.24796
1.24796
1.24796
1.24796
1.24796
1.24796
1.24796
1.24796
1.24796
1.24796
1.24796
1.24796
1.24796
1.24796
1.24796
1.24796
1.24796
1.24796
1.24796
1.24796
1.24796
1.24796
1.24796
1.2479599
1.2479599
1.2479599
1.2479599
1.2479599
1.2479599
1.2479599
1.2479599
1.2479599
1.2479599
1.2479599
1.2479599
1.2479599
1.2479599
1.2479599
1.2479599
1.2479599
1.2479599
1.2479599
1.2479599
1.2479599
1.2479599
1.2479598
1.2479598
1.2479598
1.2479598
1.2479598
1.2479598
1.2479598
1.2479598
1.2479598
1.2479598
1.2479598
1.2479598
1.2479598
1.2479598
1.2479598
1.2479598
1.2479598
1.2479598
1.2479598
1.2479597
1.2479597
1.2479597
1.2479597
1.2479597
1.2479597
1.2479597
1.2479597
1.2479597
1.2479597
1.2479597
1.2479597
1.2479597
1.2479597
1.2479597
1.2479597
1.2479597
1.2479597
1.2479596
1.2479596
1.2479596
1.2479596
1.2479596
1.2479596
1.2479596
1.2479596
1.2479596
1.2479596
1.2479596
1.2479596
1.2479596
1.2479596
1.2479596
1.2479596
1.2479596
1.2479596
1.2479596
1.2479595
1.2479595
1.2479595
1.2479595
1.2479595
1.2479595
1.2479595
1.2479595
1.2479595
1.2479595
1.2479595
1.2479595
1.2479595
1.2479595
1.2479595
1.2479594
1.2479594
1.2479594
1.2479594
1.2479594
1.2479594
1.2479594
1.2479594
1.2479594
1.2479594
1.2479594
1.2479594
1.2479594
1.2479594
1.2479594
1.2479594
1.2479594
1.2479594
1.2479593
1.2479593
1.2479593
1.2479593
1.2479593
1.2479593
1.2479593
1.2479593
1.2479593
1.2479593
1.2479593
1.2479593
1.2479593
1.2479593
1.2479593
1.2479593
1.2479592
1.2479592
1.2479592
1.2479592
1.2479592
1.2479592
1.2479592
1.2479592
1.2479592
1.2479592
1.2479592
1.2479592
1.2479592
1.2479592
1.2479592
1.2479592
1.2479591
1.2479591
1.2479591
1.2479591
1.2479591
1.2479591
1.2479591
1.2479591
1.2479591
1.2479591
1.2479591
1.2479591
1.2479591
1.2479591
1.2479591
1.2479591
1.2479591
1.2479591
1.2479591
1.2479591
1.247959
1.247959
1.247959
1.247959
1.247959
1.247959
1.247959
1.247959
1.247959
1.247959
1.247959
1.247959
1.247959
1.247959
1.247959
1.247959
1.247959
1.247959
1.247959
1.247959
1.247959
1.247959
1.247959
1.2479589
1.2479589
1.2479589
1.2479589
1.2479589
1.2479589
1.2479589
1.2479589
1.2479589
1.2479589
1.2479589
1.2479589
1.2479589
1.2479589
1.2479589
1.2479589
1.2479589
1.2479589
1.2479589
1.2479589
1.2479589
1.2479589
1.247959
1.247959
1.247959
1.247959
1.247959
1.247959
1.247959
1.247959
1.247959
1.247959
1.247959
1.247959
1.247959
1.247959
1.2479591
1.2479591
1.2479591
1.2479591
1.2479591
1.2479591
1.2479592
1.2479592
1.2479592
1.2479592
1.2479592
1.2479593
1.2479593
1.2479593
1.2479593
1.2479594
1.2479594
1.2479594
1.2479595
1.2479595
1.2479596
1.2479596
1.2479596
1.2479597
1.2479597
1.2479598
1.2479598
1.2479599
1.2479599
1.24796
1.24796
1.2479601
1.2479602
1.2479602
1.2479603
1.2479604
1.2479605
1.2479606
1.2479606
1.2479607
1.2479608
1.2479609
1.247961
1.2479611
1.2479613
1.2479614
1.2479615
1.2479616
1.2479618
1.2479619
1.247962
1.2479622
1.2479623
1.2479625
1.2479627
1.2479629
1.247963
1.2479632
1.2479634
1.2479636
1.2479639
1.2479641
1.2479643
1.2479646
1.2479648
1.2479651
1.2479654
1.2479657
1.247966
1.2479663
1.2479666
1.247967
1.2479673
1.2479677
1.2479681
1.2479685
1.2479689
1.2479693
1.2479698
1.2479702
1.2479707
1.2479712
1.2479718
1.2479723
1.2479729
1.2479735
1.2479741
1.2479748
1.2479754
1.2479761
1.2479768
1.2479776
1.2479784
1.2479792
1.24798
1.2479809
1.2479818
1.2479828
1.2479837
1.2479848
1.2479858
1.2479869
1.2479881
1.2479893
1.2479905
1.2479918
1.2479931
1.2479945
1.2479959
1.2479974
1.247999
1.2480006
1.2480023
1.248004
1.2480058
1.2480077
1.2480097
1.2480117
1.2480138
1.248016
1.2480182
1.2480206
1.248023
1.2480256
1.2480282
1.2480309
1.2480338
1.2480367
1.2480397
1.2480429
1.2480462
1.2480496
1.2480531
1.2480568
1.2480606
1.2480646
1.2480687
1.2480729
1.2480773
1.2480819
1.2480867
1.2480916
1.2480967
1.248102
1.2481075
1.2481132
1.2481191
1.2481252
1.2481316
1.2481382
1.248145
1.2481521
1.2481594
1.248167
1.2481749
1.2481831
1.2481915
1.2482003
1.2482094
1.2482189
1.2482286
1.2482388
1.2482493
1.2482602
1.2482714
1.2482831
1.2482952
1.2483078
1.2483208
1.2483342
1.2483482
1.2483626
1.2483776
1.2483931
1.2484091
1.2484257
1.2484429
1.2484607
1.2484792
1.2484982
1.248518
1.2485385
1.2485596
1.2485815
1.2486042
1.2486277
1.248652
1.2486771
1.2487031
1.24873
1.2487579
1.2487867
1.2488164
1.2488473
1.2488791
1.2489121
1.2489462
1.2489814
1.2490179
1.2490555
1.2490945
1.2491348
1.2491764
1.2492194
1.2492639
1.2493099
1.2493573
1.2494064
1.2494571
1.2495095
1.2495636
1.2496195
1.2496772
1.2497368
1.2497984
1.249862
1.2499276
1.2499954
1.2500653
1.2501375
1.250212
1.2502889
1.2503683
1.2504501
1.2505346
1.2506217
1.2507115
1.2508042
1.2508997
1.2509982
1.2510997
1.2512044
1.2513123
1.2514235
1.2515381
1.2516561
1.2517777
1.2519029
1.2520319
1.2521647
1.2523014
1.2524422
1.252587
1.2527361
1.2528895
1.2530473
1.2532096
1.2533766
1.2535482
1.2537247
1.2539061
1.2540925
1.2542841
1.2544809
1.254683
1.2548906
1.2551038
1.2553226
1.2555471
1.2557776
1.256014
1.2562565
1.2565051
1.2567601
1.2570214
1.2572891
1.2575635
1.2578445
1.2581322
1.2584268
1.2587284
1.2590369
1.2593525
1.2596753
1.2600053
1.2603426
1.2606873
1.2610395
1.2613991
1.2617662
1.2621409
1.2625233
1.2629133
1.263311
1.2637164
1.2641295
1.2645503
1.2649789
1.2654151
1.2658591
1.2663108
1.2667701
1.267237
1.2677116
1.2681936
1.268683
1.2691799
1.269684
1.2701954
1.2707138
1.2712393
1.2717716
1.2723107
1.2728564
1.2734086
1.2739671
1.2745317
1.2751023
1.2756788
1.2762608
1.2768483
1.277441
1.2780386
1.278641
1.279248
1.2798593
1.2804746
1.2810938
1.2817165
1.2823425
1.2829716
1.2836034
1.2842377
1.2848742
1.2855126
1.2861526
1.286794
1.2874365
1.2880797
1.2887234
1.2893673
1.2900111
1.2906544
1.2912971
1.2919388
1.2925792
1.2932181
1.2938551
1.2944901
1.2951226
1.2957525
1.2963795
1.2970034
1.2976238
1.2982405
1.2988533
1.299462
1.3000663
1.300666
1.301261
1.3018509
1.3024356
1.3030149
1.3035887
1.3041567
1.3047188
1.3052749
1.3058247
1.3063683
1.3069053
1.3074358
1.3079596
1.3084765
1.3089866
1.3094897
1.3099858
1.3104747
1.3109564
1.3114309
1.311898
1.3123579
1.3128104
1.3132555
1.3136933
1.3141236
1.3145465
1.314962
1.3153701
1.3157709
1.3161643
1.3165503
1.316929
1.3173005
1.3176648
1.3180218
1.3183718
1.3187147
1.3190506
1.3193795
1.3197015
1.3200167
1.3203252
1.320627
1.3209223
1.321211
1.3214933
1.3217692
1.3220389
1.3223024
1.3225598
1.3228113
1.3230568
1.3232965
1.3235305
1.3237589
1.3239817
1.3241991
1.3244112
1.324618
1.3248197
1.3250163
1.325208
1.3253948
1.3255768
1.3257541
1.3259269
1.3260952
1.326259
1.3264186
1.326574
1.3267252
1.3268724
1.3270156
1.327155
1.3272906
1.3274225
1.3275508
1.3276756
1.327797
1.327915
1.3280297
1.3281412
1.3282495
1.3283549
1.3284572
1.3285567
1.3286533
1.3287471
1.3288383
1.3289268
1.3290128
1.3290963
1.3291774
1.3292561
1.3293325
1.3294067
1.3294786
1.3295485
1.3296163
1.3296821
1.3297459
1.3298078
1.3298678
1.3299261
1.3299826
1.3300374
1.3300906
1.3301421
1.3301921
1.3302405
1.3302875
1.330333
1.3303771
1.3304199
1.3304613
1.3305015
1.3305404
1.3305782
1.3306147
1.3306501
1.3306844
1.3307177
1.3307499
1.3307811
1.3308113
1.3308405
1.3308689
1.3308963
1.3309229
1.3309486
1.3309735
1.3309976
1.331021
1.3310436
1.3310654
1.3310866
1.3311071
1.331127
1.3311462
1.3311647
1.3311827
1.3312001
1.331217
1.3312333
1.331249
1.3312643
1.3312791
1.3312933
1.3313072
1.3313205
1.3313335
1.331346
1.3313581
1.3313698
1.3313811
1.331392
1.3314026
1.3314129
1.3314228
1.3314323
1.3314416
1.3314505
1.3314592
1.3314676
1.3314757
1.3314835
1.3314911
1.3314984
1.3315055
1.3315123
1.3315189
1.3315253
1.3315315
1.3315375
1.3315433
1.3315488
1.3315542
1.3315595
1.3315645
1.3315694
1.3315741
1.3315787
1.3315831
1.3315874
1.3315915
1.3315955
1.3315993
1.331603
1.3316066
1.3316101
1.3316135
1.3316168
1.3316199
1.331623
1.3316259
1.3316287
1.3316315
1.3316342
1.3316367
1.3316392
1.3316416
1.331644
1.3316462
1.3316484
1.3316505
1.3316526
1.3316546
1.3316565
1.3316583
1.3316601
1.3316619
1.3316636
1.3316652
1.3316668
1.3316683
1.3316698
1.3316712
1.3316726
1.331674
1.3316753
1.3316765
1.3316778
1.331679
1.3316801
1.3316812
1.3316823
1.3316834
1.3316844
1.3316854
1.3316864
1.3316874
1.3316883
1.3316892
1.33169
1.3316909
1.3316917
1.3316925
1.3316933
1.3316941
1.3316948
1.3316955
1.3316963
1.331697
1.3316976
1.3316983
1.3316989
1.3316996
1.3317002
1.3317008
1.3317014
1.331702
1.3317026
1.3317031
1.3317037
1.3317042
1.3317048
1.3317053
1.3317058
1.3317063
1.3317068
1.3317073
1.3317078
1.3317083
1.3317088
1.3317092
1.3317097
1.3317102
1.3317106
1.3317111
1.3317115
1.331712
1.3317124
1.3317129
1.3317133
1.3317137
1.3317142
1.3317146
1.331715
1.3317154
1.3317159
1.3317163
1.3317167
1.3317171
1.3317176
1.331718
1.3317184
1.3317188
1.3317193
1.3317197
1.3317201
1.3317205
1.3317209
1.3317214
1.3317218
1.3317222
1.3317227
1.3317231
1.3317235
1.331724
1.3317244
1.3317248
1.3317253
1.3317257
1.3317262
1.3317266
1.331727
1.3317275
1.331728
1.3317284
1.3317289
1.3317293
1.3317298
1.3317303
1.3317307
1.3317312
1.3317317
1.3317322
1.3317327
1.3317332
1.3317337
1.3317342
1.3317347
1.3317352
1.3317357
1.3317362
1.3317367
1.3317372
1.3317378
1.3317383
1.3317389
1.3317394
1.3317399
1.3317405
1.3317411
1.3317416
1.3317422
1.3317428
1.3317433
1.3317439
1.3317445
1.3317451
1.3317457
1.3317463
1.3317469
1.3317476
1.3317482
1.3317488
1.3317494
1.3317501
1.3317507
1.3317514
1.331752
1.3317527
1.3317534
1.331754
1.3317547
1.3317554
1.3317561
1.3317568
1.3317575
1.3317582
1.331759
1.3317597
1.3317604
1.3317612
1.3317619
1.3317627
1.3317634
1.3317642
1.331765
1.3317657
1.3317665
1.3317673
1.3317681
1.3317689
1.3317697
1.3317705
1.3317714
1.3317722
1.331773
1.3317738
1.3317747
1.3317755
1.3317764
1.3317773
1.3317781
1.331779
1.3317799
1.3317808
1.3317816
1.3317825
1.3317834
1.3317843
1.3317853
1.3317862
1.3317871
1.331788
1.3317889
1.3317899
1.3317908
1.3317917
1.3317927
1.3317936
1.3317946
1.3317955
1.3317964
1.3317974
1.3317984
1.3317993
1.3318003
1.3318012
1.3318022
1.3318032
1.3318041
1.3318051
1.3318061
1.331807
1.331808
1.331809
1.33181
1.3318109
1.3318119
1.3318129
1.3318139
1.3318149
1.3318158
1.3318168
1.3318178
1.3318188
1.3318198
1.3318207
1.3318217
1.3318227
1.3318237
1.3318247
1.3318257
1.3318266
1.3318276
1.3318286
1.3318296
1.3318306
1.3318316
1.3318326
1.3318336
1.3318346
1.3318356
1.3318366
1.3318376
1.3318386
1.3318396
1.3318406
1.3318416
1.3318426
1.3318436
1.3318446
1.3318456
1.3318467
1.3318477
1.3318487
1.3318497
1.3318508
1.3318518
1.3318529
1.3318539
1.331855
1.331856
1.3318571
1.3318582
1.3318592
1.3318603
1.3318614
1.3318625
1.3318636
1.3318647
1.3318658
1.3318669
1.331868
1.3318691
1.3318703
1.3318714
1.3318726
1.3318737
1.3318749
1.331876
1.3318772
1.3318784
1.3318796
1.3318807
1.3318819
1.3318831
1.3318844
1.3318856
1.3318868
1.331888
1.3318893
1.3318905
1.3318918
1.331893
1.3318943
1.3318956
1.3318968
1.3318981
1.3318994
1.3319007
1.331902
1.3319034
1.3319047
1.331906
1.3319074
1.3319087
1.3319101
1.3319114
1.3319128
1.3319142
1.3319155
1.3319169
1.3319183
1.3319197
1.3319211
1.3319225
1.3319239
1.3319254
1.3319268
1.3319282
1.3319297
1.3319311
1.3319326
1.331934
1.3319355
1.331937
1.3319384
1.3319399
1.3319414
1.3319429
1.3319444
1.3319459
1.3319474
1.331949
1.3319505
1.331952
1.3319535
1.3319551
1.3319566
1.3319582
1.3319597
1.3319613
1.3319629
1.3319644
1.331966
1.3319676
1.3319692
1.3319708
1.3319724
1.331974
1.3319756
1.3319772
1.3319788
1.3319804
1.3319821
1.3319837
1.3319853
1.331987
1.3319886
1.3319903
1.3319919
1.3319936
1.3319952
1.3319969
1.3319985
1.3320002
1.3320019
1.3320036
1.3320052
1.3320069
1.3320086
1.3320103
1.332012
1.3320137
1.3320154
1.3320171
1.3320188
1.3320206
1.3320223
1.332024
1.3320257
1.3320274
1.3320292
1.3320309
1.3320326
1.3320344
1.3320361
1.3320379
1.3320396
1.3320414
1.3320431
1.3320449
1.3320466
1.3320484
1.3320501
1.3320519
1.3320536
1.3320554
1.3320572
1.3320589
1.3320607
1.3320625
1.3320643
1.332066
1.3320678
1.3320696
1.3320714
1.3320732
1.3320749
1.3320767
1.3320785
1.3320803
1.3320821
1.3320839
1.3320857
1.3320875
1.3320893
1.3320911
1.3320929
1.3320947
1.3320964
1.3320982
1.3321
1.3321018
1.3321036
1.3321054
1.3321072
1.332109
1.3321108
1.3321126
1.3321144
1.3321162
1.332118
1.3321198
1.3321216
1.3321234
1.3321252
1.332127
1.3321289
1.3321307
1.3321325
1.3321343
1.3321361
1.3321379
1.3321397
1.3321415
1.3321433
1.3321451
1.3321469
1.3321487
1.3321506
1.3321524
1.3321542
1.332156
1.3321578
1.3321596
1.3321615
1.3321633
1.3321651
1.3321669
1.3321688
1.3321706
1.3321724
1.3321743
1.3321761
1.332178
1.3321798
1.3321817
1.3321835
1.3321854
1.3321872
1.3321891
1.332191
1.3321929
1.3321948
1.3321966
1.3321985
1.3322004
1.3322023
1.3322042
1.3322061
1.3322081
1.33221
1.3322119
1.3322139
1.3322158
1.3322178
1.3322197
1.3322217
1.3322237
1.3322256
1.3322276
1.3322296
1.3322316
1.3322336
1.3322357
1.3322377
1.3322397
1.3322417
1.3322438
1.3322458
1.3322479
1.33225
1.332252
1.3322541
1.3322562
1.3322583
1.3322604
1.3322625
1.3322646
1.3322667
1.3322688
1.332271
1.3322731
1.3322752
1.3322774
1.3322795
1.3322817
1.3322839
1.332286
1.3322882
1.3322904
1.3322926
1.3322948
1.332297
1.3322992
1.3323014
1.3323036
1.3323058
1.332308
1.3323103
1.3323125
1.3323148
1.332317
1.3323193
1.3323215
1.3323238
1.3323261
1.3323284
1.3323307
1.332333
1.3323353
1.3323376
1.33234
1.3323423
1.3323447
1.332347
1.3323494
1.3323518
1.3323542
1.3323566
1.332359
1.3323615
1.3323639
1.3323663
1.3323688
1.3323713
1.3323738
1.3323763
1.3323788
1.3323814
1.3323839
1.3323865
1.3323891
1.3323917
1.3323943
1.3323969
1.3323996
1.3324022
1.3324049
1.3324076
1.3324104
1.3324131
1.3324159
1.3324187
1.3324215
1.3324243
1.3324271
1.33243
1.3324329
1.3324358
1.3324388
1.3324417
1.3324447
1.3324477
1.3324507
1.3324538
1.3324569
1.33246
1.3324632
1.3324663
1.3324695
1.3324727
1.332476
1.3324793
1.3324826
1.3324859
1.3324893
1.3324927
1.3324961
1.3324996
1.3325031
1.3325067
1.3325102
1.3325138
1.3325175
1.3325212
1.332525
1.3325288
1.3325327
1.3325366
1.3325406
1.3325447
1.3325488
1.3325529
1.3325571
1.3325614
1.3325657
1.33257
1.3325744
1.3325789
1.3325834
1.3325879
1.3325925
1.3325972
1.3326019
1.3326067
1.3326116
1.3326165
1.3326215
1.3326265
1.3326316
1.3326368
1.3326421
1.3326474
1.3326528
1.3326583
1.3326638
1.3326695
1.3326752
1.332681
1.3326869
1.3326928
1.3326989
1.3327051
1.3327113
1.3327177
1.3327241
1.3327306
1.3327373
1.332744
1.3327509
1.3327578
1.3327649
1.332772
1.3327793
1.3327867
1.3327942
1.3328019
1.3328096
1.3328175
1.3328255
1.3328336
1.3328419
1.3328503
1.3328588
1.3328675
1.3328763
1.3328852
1.3328943
1.3329035
1.3329129
1.3329224
1.3329321
1.3329419
1.3329519
1.3329621
1.3329724
1.3329829
1.3329935
1.3330043
1.3330153
1.3330264
1.3330378
1.3330493
1.333061
1.3330729
1.3330849
1.3330972
1.3331096
1.3331223
1.3331352
1.3331483
1.3331615
1.333175
1.3331887
1.3332025
1.3332166
1.3332309
1.3332455
1.3332603
1.3332752
1.3332904
1.3333059
1.3333215
1.3333375
1.3333536
1.3333701
1.3333868
1.3334037
1.3334208
1.3334382
1.3334559
1.3334738
1.333492
1.3335104
1.3335292
1.3335481
1.3335674
1.3335869
1.3336067
1.3336269
1.3336473
1.333668
1.3336889
1.3337102
1.3337318
1.3337537
1.3337759
1.3337984
1.3338212
1.3338443
1.3338678
1.3338915
1.3339156
1.3339401
1.3339648
1.3339899
1.3340154
1.3340412
1.3340673
1.3340938
1.3341207
1.334148
1.3341756
1.3342036
1.334232
1.3342608
1.33429
1.3343195
1.3343495
1.3343799
1.3344107
1.3344419
1.3344735
1.3345056
1.334538
1.3345709
1.3346043
1.334638
1.3346722
1.3347067
1.3347417
1.3347772
1.334813
1.3348493
1.334886
1.3349231
1.3349606
1.3349985
1.3350368
1.3350755
1.3351146
1.3351541
1.3351939
1.3352341
1.3352746
1.3353154
1.3353566
1.3353982
1.3354401
1.3354824
1.3355251
1.3355681
1.3356116
1.3356555
1.3356998
1.3357445
1.3357897
1.3358353
1.3358814
1.335928
1.3359751
1.3360227
1.3360708
1.3361195
1.3361687
1.3362186
1.336269
1.33632
1.3363715
1.3364235
1.3364757
1.3365276
1.3365783
1.3366257
1.3366661
1.3366926
1.3366933
1.3366482
1.3365264
1.3362828
1.3358568
1.3351751
1.3341595
1.3327413
1.3308795
1.3285753
1.3258753
1.3228587
1.319611
1.3162002
1.3126711
1.3090623
1.3054296
1.30185
1.2983984
1.2951213
1.2920389
1.2891693
1.2865413
1.2841763
1.2820709
1.2802093
1.2785834
1.277188
1.276006
1.2750094
1.2741773
1.2735016
1.2729602
1.2725204
1.2721812
1.2719306
1.2717324
1.2715987
1.2715124
1.2714523
1.271431
1.271431
1.2714414
1.2714811
1.271514
1.2715723
1.2716234
1.2716893
1.2717526
1.2718226
1.2718926
1.2719653
1.2720388
1.2721136
1.2721891
1.2722656
1.2723427
1.2724203
1.2724985
1.272577
1.272656
1.2727353
1.2728151
1.2728953
1.2729759
1.273057
1.2731385
1.2732206
1.2733031
1.273386
1.2734695
1.2735534
1.2736378
1.2737227
1.273808
1.2738937
1.2739799
1.2740665
1.2741536
1.274241
1.2743288
1.2744171
1.2745057
1.2745946
1.2746839
1.2747736
1.2748636
1.274954
1.2750447
1.2751357
1.2752271
1.2753188
1.2754108
1.2755032
1.2755959
1.275689
1.2757824
1.2758761
1.2759702
1.2760647
1.2761595
1.2762546
1.2763501
1.276446
1.2765422
1.2766387
1.2767356
1.2768329
1.2769305
1.2770285
1.2771268
1.2772255
1.2773245
1.2774239
1.2775236
1.2776237
1.2777241
1.2778249
1.2779261
1.2780275
1.2781294
1.2782315
1.278334
1.2784369
1.2785401
1.2786436
1.2787475
1.2788517
1.2789562
1.2790611
1.2791663
1.2792718
1.2793777
1.2794839
1.2795904
1.2796972
1.2798044
1.2799119
1.2800197
1.2801278
1.2802362
1.2803449
1.280454
1.2805633
1.280673
1.280783
1.2808932
1.2810038
1.2811147
1.2812258
1.2813373
1.2814491
1.2815611
1.2816735
1.2817861
1.2818991
1.2820123
1.2821258
1.2822396
1.2823536
1.282468
1.2825826
1.2826975
1.2828126
1.2829281
1.2830438
1.2831598
1.283276
1.2833925
1.2835093
1.2836263
1.2837436
1.2838612
1.283979
1.2840971
1.2842154
1.284334
1.2844528
1.2845718
1.2846912
1.2848107
1.2849305
1.2850505
1.2851708
1.2852913
1.2854121
1.285533
1.2856543
1.2857757
1.2858974
1.2860193
1.2861414
1.2862637
1.2863863
1.2865091
1.2866321
1.2867553
1.2868787
1.2870023
1.2871262
1.2872502