/*--------------------------------*- C++ -*----------------------------------*\
  =========                 |
  \\      /  F ield         | OpenFOAM: The Open Source CFD Toolbox
   \\    /   O peration     | Website:  https://openfoam.org
    \\  /    A nd           | Version:  7
     \\/     M anipulation  |
\*---------------------------------------------------------------------------*/
FoamFile
{
    version     2.0;
    format      ascii;
    class       volScalarField;
    location    "0.00315";
    object      rho;
}
// * * * * * * * * * * * * * * * * * * * * * * * * * * * * * * * * * * * * * //

dimensions      [1 -3 0 0 0 0 0];

internalField   nonuniform List<scalar> 
5000
(
0.89773926
0.8977677
0.89779833
0.89783903
0.89786995
0.89791056
0.89794156
0.89798211
0.89801308
0.89805358
0.89808452
0.898125
0.89815592
0.89819637
0.89822728
0.89826771
0.89829859
0.898339
0.89836987
0.89841025
0.89844109
0.89848144
0.89851227
0.89855259
0.89858338
0.89862367
0.89865444
0.89869468
0.89872543
0.89876564
0.89879635
0.89883652
0.8988672
0.89890733
0.89893798
0.89897807
0.89900869
0.89904874
0.89907933
0.89911934
0.8991499
0.89918986
0.89922039
0.89926031
0.89929081
0.89933069
0.89936115
0.89940099
0.89943142
0.89947122
0.89950161
0.89954137
0.89957173
0.89961145
0.89964178
0.89968145
0.89971175
0.89975138
0.89978164
0.89982123
0.89985146
0.89989101
0.89992121
0.89996071
0.89999088
0.90003034
0.90006048
0.9000999
0.90013
0.90016938
0.90019945
0.90023878
0.90026883
0.90030812
0.90033812
0.90037737
0.90040735
0.90044656
0.9004765
0.90051566
0.90054558
0.9005847
0.90061457
0.90065364
0.90068355
0.90072245
0.9007525
0.90079114
0.90082141
0.90085974
0.90089026
0.90092824
0.90095906
0.90099665
0.90102781
0.90106495
0.90109651
0.90113316
0.90116516
0.90120128
0.90123374
0.9012693
0.90130228
0.90133722
0.90137077
0.90140504
0.90143922
0.90147276
0.90150762
0.90154038
0.90157596
0.90160792
0.90164423
0.90167539
0.90171241
0.90174283
0.90178045
0.90181028
0.90184832
0.90187776
0.901916
0.90194527
0.90198353
0.90201276
0.90205098
0.90208017
0.90211834
0.9021475
0.90218564
0.90221476
0.90225286
0.90228195
0.90232
0.90234907
0.90238708
0.90241611
0.90245407
0.90248307
0.902521
0.90254997
0.90258785
0.90261679
0.90265463
0.90268353
0.90272134
0.90275021
0.90278797
0.90281681
0.90285453
0.90288334
0.90292102
0.9029498
0.90298743
0.90301618
0.90305378
0.90308249
0.90312005
0.90314873
0.90318625
0.9032149
0.90325238
0.903281
0.90331843
0.90334702
0.90338442
0.90341298
0.90345033
0.90347886
0.90351618
0.90354468
0.90358195
0.90361042
0.90364766
0.90367609
0.90371329
0.9037417
0.90377886
0.90380724
0.90384435
0.9038727
0.90390978
0.9039381
0.90397514
0.90400343
0.90404044
0.9040687
0.90410566
0.9041339
0.90417082
0.90419903
0.90423592
0.90426409
0.90430094
0.90432909
0.90436591
0.90439403
0.90443081
0.9044589
0.90449564
0.9045237
0.90456041
0.90458845
0.90462512
0.90465313
0.90468976
0.90471775
0.90475435
0.9047823
0.90481887
0.9048468
0.90488334
0.90491124
0.90494775
0.90497563
0.9050121
0.90503995
0.90507639
0.90510422
0.90514062
0.90516843
0.90520481
0.90523259
0.90526893
0.9052967
0.90533301
0.90536075
0.90539704
0.90542475
0.90546101
0.9054887
0.90552494
0.90555261
0.90558881
0.90561647
0.90565264
0.90568028
0.90571643
0.90574405
0.90578017
0.90580777
0.90584387
0.90587145
0.90590753
0.90593509
0.90597115
0.9059987
0.90603473
0.90606226
0.90609828
0.90612579
0.90616179
0.90618929
0.90622527
0.90625275
0.90628871
0.90631618
0.90635212
0.90637958
0.90641551
0.90644295
0.90647886
0.9065063
0.90654219
0.90656962
0.9066055
0.90663291
0.90666879
0.90669619
0.90673205
0.90675944
0.90679529
0.90682268
0.90685852
0.9068859
0.90692173
0.9069491
0.90698493
0.90701229
0.90704811
0.90707547
0.90711128
0.90713864
0.90717444
0.90720179
0.90723759
0.90726494
0.90730074
0.90732808
0.90736388
0.90739122
0.90742701
0.90745435
0.90749014
0.90751748
0.90755327
0.90758061
0.9076164
0.90764374
0.90767953
0.90770687
0.90774266
0.90777
0.90780579
0.90783313
0.90786892
0.90789627
0.90793206
0.9079594
0.9079952
0.90802255
0.90805835
0.90808569
0.9081215
0.90814885
0.90818465
0.908212
0.90824781
0.90827517
0.90831098
0.90833833
0.90837414
0.9084015
0.90843732
0.90846468
0.9085005
0.90852786
0.90856368
0.90859104
0.90862687
0.90865423
0.90869005
0.90871742
0.90875324
0.90878061
0.90881643
0.9088438
0.90887963
0.90890699
0.90894282
0.90897018
0.90900601
0.90903337
0.90906919
0.90909656
0.90913238
0.90915974
0.90919555
0.90922291
0.90925872
0.90928608
0.90932189
0.90934924
0.90938504
0.90941239
0.90944818
0.90947552
0.90951131
0.90953865
0.90957442
0.90960175
0.90963752
0.90966485
0.9097006
0.90972792
0.90976366
0.90979097
0.9098267
0.909854
0.90988972
0.909917
0.9099527
0.90997998
0.91001566
0.91004293
0.9100786
0.91010584
0.9101415
0.91016873
0.91020436
0.91023158
0.91026719
0.9102944
0.91032999
0.91035718
0.91039274
0.91041991
0.91045546
0.91048261
0.91051813
0.91054526
0.91058075
0.91060786
0.91064333
0.91067042
0.91070585
0.91073292
0.91076833
0.91079538
0.91083076
0.91085778
0.91089313
0.91092013
0.91095545
0.91098242
0.91101771
0.91104466
0.91107991
0.91110683
0.91114205
0.91116895
0.91120413
0.911231
0.91126614
0.91129299
0.9113281
0.91135491
0.91138999
0.91141677
0.91145181
0.91147857
0.91151356
0.91154029
0.91157525
0.91160195
0.91163687
0.91166354
0.91169842
0.91172505
0.91175989
0.9117865
0.9118213
0.91184787
0.91188263
0.91190917
0.91194389
0.9119704
0.91200507
0.91203155
0.91206618
0.91209263
0.91212722
0.91215363
0.91218817
0.91221456
0.91224906
0.91227541
0.91230986
0.91233618
0.91237059
0.91239687
0.91243124
0.91245749
0.91249181
0.91251803
0.91255231
0.91257849
0.91261272
0.91263887
0.91267306
0.91269917
0.91273332
0.91275939
0.91279349
0.91281954
0.91285359
0.9128796
0.91291361
0.91293958
0.91297354
0.91299948
0.9130334
0.9130593
0.91309317
0.91311904
0.91315287
0.9131787
0.91321248
0.91323828
0.91327201
0.91329778
0.91333147
0.9133572
0.91339082
0.91341653
0.91345014
0.91347579
0.91350928
0.9135351
0.9135682
0.91359444
0.91362695
0.91365378
0.91368558
0.91371304
0.91374413
0.9137722
0.91380265
0.91383122
0.91386114
0.9138901
0.91391961
0.91394884
0.91397805
0.91400746
0.91403644
0.91406596
0.91409479
0.91412435
0.91415308
0.91418264
0.91421129
0.91424084
0.91426943
0.91429896
0.91432749
0.914357
0.91438547
0.91441495
0.91444337
0.91447281
0.91450119
0.91453059
0.91455893
0.91458828
0.9146166
0.91464588
0.9146742
0.91470339
0.91473173
0.91476081
0.91478918
0.91481814
0.91484655
0.91487539
0.91490383
0.91493256
0.91496104
0.91498965
0.91501815
0.91504666
0.91507519
0.9151036
0.91513213
0.91516046
0.91518898
0.91521724
0.91524575
0.91527395
0.91530244
0.91533058
0.91535904
0.91538712
0.91541555
0.91544359
0.91547199
0.91549997
0.91552833
0.91555628
0.9155846
0.9156125
0.91564078
0.91566864
0.91569689
0.9157247
0.91575291
0.91578068
0.91580884
0.91583658
0.9158647
0.91589239
0.91592047
0.91594812
0.91597616
0.91600377
0.91603177
0.91605934
0.9160873
0.91611483
0.91614275
0.91617023
0.91619811
0.91622556
0.91625339
0.9162808
0.91630859
0.91633596
0.91636371
0.91639103
0.91641875
0.91644603
0.9164737
0.91650094
0.91652857
0.91655578
0.91658336
0.91661053
0.91663807
0.91666519
0.9166927
0.91671978
0.91674725
0.91677429
0.91680171
0.91682871
0.91685609
0.91688305
0.91691039
0.91693731
0.91696461
0.91699149
0.91701875
0.91704559
0.91707281
0.9170996
0.91712678
0.91715353
0.91718067
0.91720738
0.91723448
0.91726115
0.91728821
0.91731484
0.91734186
0.91736845
0.91739543
0.91742197
0.91744891
0.91747541
0.91750232
0.91752878
0.91755564
0.91758206
0.91760888
0.91763525
0.91766204
0.91768837
0.91771511
0.91774141
0.91776811
0.91779436
0.91782103
0.91784723
0.91787386
0.91790002
0.91792661
0.91795273
0.91797928
0.91800536
0.91803187
0.91805791
0.91808438
0.91811038
0.91813681
0.91816276
0.91818916
0.91821506
0.91824143
0.91826728
0.91829361
0.91831942
0.91834571
0.91837149
0.91839773
0.91842347
0.91844966
0.91847538
0.91850151
0.91852721
0.91855328
0.91857896
0.91860496
0.91863063
0.91865656
0.91868221
0.91870808
0.91873372
0.91875952
0.91878515
0.91881089
0.91883649
0.91886217
0.91888775
0.91891337
0.91893892
0.9189645
0.91899002
0.91901555
0.91904103
0.91906651
0.91909196
0.9191174
0.91914281
0.9191682
0.91919358
0.91921893
0.91924426
0.91926958
0.91929487
0.91932014
0.91934539
0.91937063
0.91939584
0.91942103
0.9194462
0.91947135
0.91949649
0.9195216
0.91954669
0.91957176
0.91959681
0.91962184
0.91964685
0.91967184
0.91969681
0.91972176
0.91974669
0.9197716
0.9197965
0.91982137
0.91984622
0.91987105
0.91989585
0.91992064
0.91994541
0.91997016
0.91999489
0.9200196
0.92004429
0.92006896
0.92009361
0.92011824
0.92014285
0.92016744
0.920192
0.92021655
0.92024108
0.92026559
0.92029008
0.92031454
0.92033899
0.92036342
0.92038782
0.92041221
0.92043658
0.92046092
0.92048525
0.92050955
0.92053384
0.9205581
0.92058235
0.92060657
0.92063078
0.92065496
0.92067913
0.92070327
0.9207274
0.9207515
0.92077559
0.92079965
0.9208237
0.92084773
0.92087173
0.92089572
0.92091969
0.92094364
0.92096757
0.92099149
0.92101538
0.92103926
0.92106311
0.92108695
0.92111077
0.92113458
0.92115836
0.92118213
0.92120588
0.92122962
0.92125333
0.92127703
0.92130071
0.92132438
0.92134803
0.92137166
0.92139527
0.92141887
0.92144245
0.92146602
0.92148957
0.9215131
0.92153661
0.92156011
0.92158359
0.92160705
0.9216305
0.92165393
0.92167734
0.92170074
0.92172411
0.92174747
0.92177081
0.92179414
0.92181744
0.92184073
0.921864
0.92188726
0.92191049
0.92193371
0.9219569
0.92198008
0.92200324
0.92202638
0.9220495
0.9220726
0.92209569
0.92211875
0.9221418
0.92216483
0.92218784
0.92221082
0.92223379
0.92225674
0.92227967
0.92230258
0.92232547
0.92234834
0.92237119
0.92239403
0.92241684
0.92243964
0.92246241
0.92248517
0.9225079
0.92253061
0.92255331
0.92257598
0.92259863
0.92262127
0.92264389
0.92266649
0.92268907
0.92271163
0.92273417
0.92275669
0.92277919
0.92280167
0.92282413
0.92284657
0.92286899
0.92289139
0.92291377
0.92293613
0.92295847
0.92298079
0.9230031
0.92302538
0.92304765
0.9230699
0.92309213
0.92311434
0.92313653
0.9231587
0.92318085
0.92320297
0.92322508
0.92324717
0.92326924
0.92329128
0.92331331
0.92333531
0.9233573
0.92337927
0.92340122
0.92342316
0.92344507
0.92346697
0.92348884
0.9235107
0.92353254
0.92355437
0.92357617
0.92359796
0.92361972
0.92364147
0.92366319
0.9236849
0.92370659
0.92372826
0.92374991
0.92377153
0.92379314
0.92381473
0.9238363
0.92385784
0.92387937
0.92390088
0.92392237
0.92394383
0.92396528
0.92398671
0.92400812
0.92402951
0.92405088
0.92407223
0.92409356
0.92411487
0.92413616
0.92415743
0.92417869
0.92419992
0.92422114
0.92424233
0.92426351
0.92428467
0.92430581
0.92432693
0.92434804
0.92436913
0.9243902
0.92441125
0.92443229
0.92445331
0.92447431
0.92449529
0.92451625
0.9245372
0.92455812
0.92457903
0.92459993
0.92462081
0.92464167
0.92466251
0.92468333
0.92470413
0.92472492
0.92474569
0.92476645
0.92478718
0.92480791
0.92482861
0.9248493
0.92486997
0.92489063
0.92491127
0.92493189
0.92495249
0.92497308
0.92499366
0.92501421
0.92503475
0.92505528
0.92507578
0.92509627
0.92511675
0.9251372
0.92515764
0.92517807
0.92519848
0.92521888
0.92523926
0.92525962
0.92527996
0.92530028
0.92532059
0.92534087
0.92536114
0.92538138
0.92540162
0.92542183
0.92544203
0.92546221
0.92548237
0.92550252
0.92552264
0.92554275
0.92556284
0.92558291
0.92560296
0.925623
0.92564302
0.92566302
0.92568301
0.92570297
0.92572291
0.92574284
0.92576275
0.92578264
0.92580251
0.92582237
0.92584221
0.92586202
0.92588183
0.92590161
0.92592137
0.92594111
0.92596084
0.92598055
0.92600024
0.92601991
0.92603957
0.9260592
0.92607882
0.92609842
0.92611801
0.92613757
0.92615711
0.92617663
0.92619614
0.92621563
0.9262351
0.92625455
0.92627399
0.9262934
0.9263128
0.92633219
0.92635155
0.9263709
0.92639023
0.92640954
0.92642883
0.92644811
0.92646737
0.92648661
0.92650583
0.92652503
0.92654422
0.92656338
0.92658253
0.92660167
0.92662078
0.92663988
0.92665897
0.92667803
0.92669708
0.9267161
0.92673511
0.9267541
0.92677307
0.92679202
0.92681096
0.92682988
0.92684878
0.92686767
0.92688655
0.9269054
0.92692424
0.92694306
0.92696186
0.92698065
0.92699941
0.92701816
0.92703689
0.9270556
0.92707429
0.92709297
0.92711164
0.92713029
0.92714892
0.92716753
0.92718613
0.9272047
0.92722326
0.9272418
0.92726032
0.92727883
0.92729732
0.92731579
0.92733425
0.92735269
0.92737111
0.92738952
0.9274079
0.92742626
0.92744461
0.92746294
0.92748126
0.92749957
0.92751787
0.92753614
0.92755441
0.92757265
0.92759088
0.92760909
0.92762728
0.92764545
0.9276636
0.92768174
0.92769986
0.92771797
0.92773606
0.92775414
0.9277722
0.92779024
0.92780826
0.92782626
0.92784425
0.92786222
0.92788018
0.92789813
0.92791606
0.92793398
0.92795189
0.92796978
0.92798766
0.92800552
0.92802337
0.9280412
0.92805901
0.92807681
0.92809458
0.92811234
0.92813009
0.92814782
0.92816554
0.92818324
0.92820093
0.92821861
0.92823627
0.92825392
0.92827155
0.92828917
0.92830678
0.92832436
0.92834193
0.92835948
0.92837702
0.92839454
0.92841205
0.92842955
0.92844702
0.92846449
0.92848194
0.92849938
0.9285168
0.92853421
0.9285516
0.92856898
0.92858634
0.92860368
0.92862101
0.92863832
0.92865561
0.92867289
0.92869015
0.92870739
0.92872461
0.92874181
0.928759
0.92877617
0.92879333
0.92881046
0.92882758
0.92884469
0.92886177
0.92887884
0.92889589
0.92891292
0.92892993
0.92894692
0.9289639
0.92898087
0.92899781
0.92901474
0.92903166
0.92904855
0.92906543
0.92908228
0.92909912
0.92911594
0.92913274
0.92914953
0.92916629
0.92918304
0.92919977
0.92921648
0.92923318
0.92924986
0.92926652
0.92928317
0.92929979
0.9293164
0.92933298
0.92934954
0.92936608
0.92938261
0.92939912
0.9294156
0.92943208
0.92944853
0.92946497
0.9294814
0.9294978
0.92951419
0.92953056
0.92954691
0.92956324
0.92957955
0.92959584
0.9296121
0.92962835
0.92964458
0.9296608
0.929677
0.92969318
0.92970935
0.92972549
0.92974162
0.92975773
0.92977381
0.92978988
0.92980592
0.92982194
0.92983795
0.92985394
0.92986991
0.92988587
0.92990181
0.92991774
0.92993364
0.92994953
0.9299654
0.92998124
0.92999706
0.93001287
0.93002866
0.93004443
0.93006018
0.93007591
0.93009163
0.93010733
0.93012301
0.93013868
0.93015432
0.93016995
0.93018556
0.93020115
0.93021672
0.93023227
0.93024781
0.93026332
0.93027882
0.9302943
0.93030977
0.93032521
0.93034064
0.93035605
0.93037145
0.93038683
0.93040219
0.93041753
0.93043285
0.93044816
0.93046345
0.93047872
0.93049397
0.93050921
0.93052442
0.93053963
0.93055482
0.93056999
0.93058514
0.93060028
0.93061541
0.9306305
0.9306456
0.93066066
0.93067573
0.93069075
0.93070579
0.93072078
0.9307358
0.93075075
0.93076574
0.93078066
0.93079561
0.93081051
0.93082543
0.9308403
0.93085518
0.93087002
0.93088487
0.93089969
0.93091449
0.93092929
0.93094406
0.93095883
0.93097357
0.93098831
0.93100301
0.93101774
0.9310324
0.9310471
0.93106173
0.9310764
0.93109101
0.93110564
0.93112023
0.93113483
0.93114939
0.93116395
0.93117849
0.93119301
0.93120753
0.93122202
0.9312365
0.93125096
0.93126542
0.93127984
0.93129427
0.93130866
0.93132307
0.93133743
0.93135181
0.93136614
0.93138048
0.93139479
0.93140909
0.93142337
0.93143764
0.9314519
0.93146613
0.93148036
0.93149456
0.93150876
0.93152292
0.93153709
0.93155122
0.93156537
0.93157946
0.93159358
0.93160765
0.93162172
0.93163576
0.9316498
0.93166382
0.93167782
0.93169181
0.93170578
0.93171974
0.93173368
0.93174761
0.93176151
0.93177541
0.93178928
0.93180314
0.93181698
0.93183081
0.93184462
0.93185842
0.93187219
0.93188596
0.93189971
0.93191343
0.93192715
0.93194085
0.93195454
0.9319682
0.93198185
0.93199548
0.93200911
0.9320227
0.93203629
0.93204985
0.93206342
0.93207694
0.93209047
0.93210397
0.93211746
0.93213093
0.93214439
0.93215782
0.93217125
0.93218465
0.93219804
0.93221142
0.93222477
0.93223812
0.93225144
0.93226475
0.93227803
0.93229131
0.93230456
0.93231781
0.93233103
0.93234424
0.93235742
0.9323706
0.93238375
0.93239689
0.93241001
0.93242312
0.93243621
0.93244928
0.93246233
0.93247537
0.93248839
0.9325014
0.93251438
0.93252736
0.93254031
0.93255324
0.93256616
0.93257907
0.93259195
0.93260482
0.93261767
0.9326305
0.93264332
0.93265612
0.9326689
0.93268167
0.93269442
0.93270715
0.93271987
0.93273256
0.93274524
0.93275791
0.93277055
0.93278319
0.9327958
0.9328084
0.93282098
0.93283354
0.93284609
0.93285861
0.93287113
0.93288363
0.9328961
0.93290857
0.93292102
0.93293344
0.93294586
0.93295825
0.93297064
0.932983
0.93299535
0.93300768
0.93301999
0.93303229
0.93304457
0.93305684
0.93306909
0.93308132
0.93309354
0.93310573
0.93311792
0.93313009
0.93314224
0.93315439
0.93316649
0.93317861
0.93319069
0.93320277
0.93321484
0.93322687
0.93323891
0.9332509
0.93326291
0.93327488
0.93328684
0.93329881
0.93331073
0.93332266
0.93333456
0.93334645
0.93335832
0.93337018
0.93338202
0.93339383
0.93340566
0.93341744
0.93342924
0.93344099
0.93345275
0.93346449
0.93347619
0.93348793
0.93349959
0.9335113
0.93352293
0.9335346
0.93354621
0.93355783
0.93356942
0.93358101
0.93359256
0.93360412
0.93361563
0.93362717
0.93363865
0.93365017
0.93366161
0.9336731
0.93368451
0.93369596
0.93370735
0.93371876
0.93373013
0.9337415
0.93375284
0.93376417
0.93377548
0.93378678
0.93379806
0.93380933
0.93382058
0.93383181
0.93384303
0.93385424
0.93386543
0.9338766
0.93388777
0.93389891
0.93391004
0.93392116
0.93393225
0.93394333
0.9339544
0.93396544
0.93397648
0.93398749
0.9339985
0.93400948
0.93402046
0.93403141
0.93404235
0.93405327
0.93406418
0.93407507
0.93408594
0.93409679
0.93410764
0.93411846
0.93412927
0.93414006
0.93415084
0.9341616
0.93417236
0.93418309
0.93419381
0.93420451
0.9342152
0.93422587
0.93423652
0.93424716
0.93425779
0.9342684
0.93427899
0.93428957
0.93430013
0.93431067
0.9343212
0.93433171
0.93434221
0.93435268
0.93436315
0.93437359
0.93438403
0.93439444
0.93440484
0.93441523
0.9344256
0.93443595
0.93444628
0.9344566
0.9344669
0.93447719
0.93448746
0.93449772
0.93450796
0.93451818
0.93452839
0.93453858
0.93454875
0.93455891
0.93456905
0.93457917
0.93458928
0.93459938
0.93460945
0.93461951
0.93462956
0.93463959
0.9346496
0.9346596
0.93466959
0.93467955
0.9346895
0.93469943
0.93470935
0.93471924
0.93472912
0.93473898
0.93474882
0.93475865
0.93476846
0.93477826
0.93478804
0.93479781
0.93480756
0.93481729
0.934827
0.93483671
0.93484639
0.93485606
0.93486572
0.93487535
0.93488497
0.93489458
0.93490417
0.93491373
0.93492329
0.93493282
0.93494234
0.93495185
0.93496134
0.93497081
0.93498027
0.93498971
0.93499914
0.93500855
0.93501794
0.93502731
0.93503667
0.93504602
0.93505535
0.93506467
0.93507397
0.93508325
0.93509252
0.93510177
0.93511101
0.93512022
0.93512943
0.93513861
0.93514778
0.93515693
0.93516607
0.9351752
0.9351843
0.9351934
0.93520248
0.93521155
0.93522059
0.93522963
0.93523864
0.93524764
0.93525663
0.93526559
0.93527455
0.93528348
0.9352924
0.93530131
0.9353102
0.93531908
0.93532794
0.93533678
0.93534561
0.93535442
0.93536322
0.935372
0.93538077
0.93538952
0.93539825
0.93540696
0.93541566
0.93542434
0.93543301
0.93544167
0.9354503
0.93545893
0.93546754
0.93547613
0.93548471
0.93549327
0.93550182
0.93551035
0.93551886
0.93552736
0.93553583
0.9355443
0.93555274
0.93556117
0.93556959
0.93557799
0.93558637
0.93559474
0.93560309
0.93561143
0.93561975
0.93562806
0.93563635
0.93564462
0.93565288
0.93566113
0.93566935
0.93567756
0.93568576
0.93569394
0.93570211
0.93571026
0.93571839
0.93572651
0.93573461
0.93574269
0.93575076
0.93575881
0.93576684
0.93577486
0.93578287
0.93579086
0.93579883
0.93580679
0.93581474
0.93582267
0.93583058
0.93583848
0.93584636
0.93585423
0.93586208
0.93586991
0.93587773
0.93588554
0.93589333
0.9359011
0.93590886
0.9359166
0.93592433
0.93593204
0.93593974
0.93594742
0.93595509
0.93596274
0.93597038
0.935978
0.93598561
0.9359932
0.93600077
0.93600833
0.93601587
0.9360234
0.93603091
0.93603841
0.93604589
0.93605336
0.93606081
0.93606825
0.93607567
0.93608308
0.93609047
0.93609785
0.93610521
0.93611256
0.9361199
0.93612721
0.93613452
0.9361418
0.93614907
0.93615633
0.93616357
0.93617079
0.93617801
0.9361852
0.93619238
0.93619954
0.93620669
0.93621383
0.93622095
0.93622805
0.93623514
0.93624222
0.93624928
0.93625632
0.93626334
0.93627035
0.93627735
0.93628434
0.93629131
0.93629826
0.9363052
0.93631213
0.93631903
0.93632592
0.9363328
0.93633966
0.93634651
0.93635335
0.93636017
0.93636696
0.93637375
0.93638052
0.93638728
0.93639402
0.93640074
0.93640746
0.93641415
0.93642083
0.93642749
0.93643414
0.93644078
0.9364474
0.936454
0.9364606
0.93646717
0.93647374
0.93648029
0.93648682
0.93649334
0.93649985
0.93650634
0.93651282
0.93651928
0.93652573
0.93653216
0.93653857
0.93654497
0.93655136
0.93655773
0.93656409
0.93657043
0.93657676
0.93658307
0.93658937
0.93659565
0.93660192
0.93660818
0.93661442
0.93662064
0.93662685
0.93663305
0.93663923
0.9366454
0.93665156
0.9366577
0.93666383
0.93666994
0.93667604
0.93668213
0.9366882
0.93669425
0.93670029
0.93670632
0.93671233
0.93671832
0.9367243
0.93673027
0.93673622
0.93674215
0.93674808
0.93675398
0.93675988
0.93676576
0.93677162
0.93677747
0.93678331
0.93678913
0.93679493
0.93680073
0.93680651
0.93681228
0.93681803
0.93682377
0.93682949
0.9368352
0.93684089
0.93684657
0.93685223
0.93685788
0.93686351
0.93686913
0.93687473
0.93688032
0.9368859
0.93689146
0.93689701
0.93690254
0.93690807
0.93691357
0.93691906
0.93692454
0.93693
0.93693545
0.93694089
0.93694631
0.93695171
0.9369571
0.93696247
0.93696783
0.93697318
0.93697851
0.93698383
0.93698913
0.93699442
0.93699969
0.93700495
0.9370102
0.93701543
0.93702065
0.93702585
0.93703104
0.93703621
0.93704136
0.9370465
0.93705163
0.93705675
0.93706185
0.93706694
0.93707201
0.93707707
0.93708211
0.93708714
0.93709216
0.93709716
0.93710214
0.93710712
0.93711208
0.93711702
0.93712195
0.93712687
0.93713178
0.93713666
0.93714154
0.9371464
0.93715125
0.93715608
0.93716089
0.93716569
0.93717048
0.93717525
0.93718001
0.93718475
0.93718949
0.93719421
0.93719891
0.9372036
0.93720828
0.93721294
0.93721759
0.93722223
0.93722685
0.93723146
0.93723605
0.93724062
0.93724519
0.93724973
0.93725427
0.93725879
0.9372633
0.93726779
0.93727227
0.93727674
0.9372812
0.93728564
0.93729006
0.93729447
0.93729887
0.93730325
0.93730762
0.93731197
0.93731631
0.93732064
0.93732495
0.93732925
0.93733354
0.93733781
0.93734207
0.93734632
0.93735055
0.93735477
0.93735897
0.93736316
0.93736734
0.93737151
0.93737566
0.9373798
0.93738392
0.93738803
0.93739213
0.93739621
0.93740028
0.93740433
0.93740838
0.9374124
0.93741642
0.93742042
0.93742441
0.93742839
0.93743235
0.9374363
0.93744024
0.93744417
0.93744808
0.93745198
0.93745586
0.93745973
0.93746359
0.93746743
0.93747126
0.93747508
0.93747889
0.93748268
0.93748646
0.93749023
0.93749398
0.93749772
0.93750144
0.93750516
0.93750885
0.93751254
0.93751621
0.93751987
0.93752351
0.93752714
0.93753076
0.93753436
0.93753796
0.93754153
0.9375451
0.93754865
0.93755218
0.93755571
0.93755922
0.93756271
0.9375662
0.93756967
0.93757313
0.93757657
0.93758
0.93758342
0.93758682
0.93759022
0.93759359
0.93759695
0.9376003
0.93760363
0.93760696
0.93761026
0.93761355
0.93761684
0.9376201
0.93762336
0.93762659
0.93762982
0.93763303
0.93763623
0.93763941
0.93764258
0.93764574
0.93764888
0.937652
0.93765511
0.9376582
0.93766128
0.93766435
0.9376674
0.93767044
0.93767347
0.93767648
0.93767948
0.93768247
0.93768544
0.9376884
0.93769135
0.93769428
0.93769719
0.9377001
0.93770298
0.93770586
0.93770872
0.93771157
0.9377144
0.93771722
0.93772003
0.93772282
0.93772559
0.93772836
0.9377311
0.93773383
0.93773655
0.93773925
0.93774194
0.93774461
0.93774727
0.93774992
0.93775255
0.93775517
0.93775778
0.93776037
0.93776295
0.93776552
0.93776807
0.93777061
0.93777313
0.93777564
0.93777813
0.93778062
0.93778308
0.93778554
0.93778798
0.93779041
0.93779282
0.93779522
0.9377976
0.93779997
0.93780232
0.93780466
0.93780699
0.9378093
0.9378116
0.93781389
0.93781616
0.93781842
0.93782066
0.93782289
0.93782511
0.93782731
0.93782949
0.93783167
0.93783382
0.93783597
0.9378381
0.93784022
0.93784232
0.93784442
0.93784649
0.93784856
0.93785061
0.93785264
0.93785466
0.93785667
0.93785867
0.93786065
0.93786261
0.93786457
0.93786651
0.93786844
0.93787035
0.93787225
0.93787413
0.93787601
0.93787786
0.93787971
0.93788154
0.93788336
0.93788516
0.93788695
0.93788873
0.93789049
0.93789224
0.93789397
0.93789569
0.9378974
0.93789909
0.93790077
0.93790243
0.93790409
0.93790572
0.93790735
0.93790896
0.93791056
0.93791215
0.93791372
0.93791528
0.93791682
0.93791836
0.93791988
0.93792138
0.93792288
0.93792435
0.93792582
0.93792727
0.9379287
0.93793013
0.93793154
0.93793294
0.93793432
0.93793569
0.93793705
0.9379384
0.93793972
0.93794105
0.93794235
0.93794364
0.93794491
0.93794618
0.93794742
0.93794866
0.93794988
0.93795109
0.93795228
0.93795347
0.93795463
0.93795579
0.93795693
0.93795806
0.93795917
0.93796027
0.93796136
0.93796243
0.93796349
0.93796453
0.93796556
0.93796657
0.93796757
0.93796856
0.93796953
0.93797049
0.93797143
0.93797236
0.93797328
0.93797418
0.93797506
0.93797593
0.93797678
0.93797762
0.93797845
0.93797925
0.93798005
0.93798083
0.9379816
0.93798236
0.9379831
0.93798382
0.93798453
0.93798523
0.9379859
0.93798656
0.9379872
0.93798784
0.93798844
0.93798904
0.93798961
0.93799017
0.93799071
0.93799123
0.93799173
0.93799221
0.93799269
0.93799313
0.93799357
0.93799398
0.93799438
0.93799476
0.93799513
0.93799548
0.9379958
0.93799612
0.93799641
0.93799668
0.93799694
0.93799718
0.93799739
0.93799759
0.93799777
0.93799793
0.93799807
0.93799818
0.93799828
0.93799835
0.93799841
0.93799844
0.93799845
0.93799843
0.9379984
0.93799835
0.93799827
0.93799817
0.93799804
0.9379979
0.93799773
0.93799754
0.93799732
0.93799708
0.93799682
0.93799654
0.93799623
0.9379959
0.93799555
0.93799517
0.93799477
0.93799435
0.9379939
0.93799342
0.93799292
0.93799239
0.93799184
0.93799126
0.93799065
0.93799001
0.93798935
0.93798867
0.93798795
0.93798721
0.93798644
0.93798564
0.93798482
0.93798396
0.93798308
0.93798217
0.93798123
0.93798026
0.93797927
0.93797824
0.93797719
0.93797611
0.937975
0.93797386
0.93797269
0.93797149
0.93797026
0.93796899
0.9379677
0.93796638
0.93796502
0.93796364
0.93796222
0.93796077
0.93795929
0.93795777
0.93795623
0.93795465
0.93795305
0.93795141
0.93794973
0.93794803
0.93794629
0.93794451
0.9379427
0.93794086
0.93793899
0.93793708
0.93793514
0.93793316
0.93793115
0.93792911
0.93792703
0.93792491
0.93792276
0.93792058
0.93791836
0.93791611
0.93791381
0.93791149
0.93790912
0.93790672
0.93790429
0.93790182
0.93789931
0.93789677
0.93789419
0.93789157
0.93788892
0.93788623
0.93788351
0.93788074
0.93787794
0.9378751
0.93787222
0.93786931
0.93786635
0.93786335
0.93786032
0.93785724
0.93785413
0.93785098
0.93784779
0.93784456
0.93784129
0.93783799
0.93783464
0.93783125
0.93782783
0.93782437
0.93782087
0.93781733
0.93781375
0.93781013
0.93780647
0.93780277
0.93779903
0.93779525
0.93779142
0.93778756
0.93778365
0.9377797
0.9377757
0.93777167
0.93776759
0.93776348
0.93775932
0.93775512
0.93775088
0.93774659
0.93774227
0.9377379
0.93773349
0.93772903
0.93772453
0.93771998
0.93771539
0.93771075
0.93770607
0.93770135
0.93769658
0.93769176
0.9376869
0.93768199
0.93767704
0.93767204
0.937667
0.93766191
0.93765677
0.93765159
0.93764636
0.93764108
0.93763575
0.93763037
0.93762494
0.93761946
0.93761392
0.93760834
0.93760271
0.93759702
0.93759128
0.93758549
0.93757965
0.93757375
0.9375678
0.93756179
0.93755573
0.9375496
0.93754342
0.93753718
0.93753088
0.93752452
0.93751809
0.93751161
0.93750506
0.93749845
0.93749177
0.93748502
0.93747822
0.93747134
0.9374644
0.93745738
0.9374503
0.93744314
0.93743591
0.9374286
0.93742122
0.93741376
0.93740622
0.9373986
0.9373909
0.93738311
0.93737524
0.93736728
0.93735923
0.93735109
0.93734287
0.93733454
0.93732613
0.93731762
0.937309
0.93730029
0.93729148
0.93728256
0.93727353
0.9372644
0.93725515
0.9372458
0.93723633
0.93722675
0.93721704
0.93720721
0.93719726
0.93718718
0.93717698
0.93716665
0.93715618
0.93714558
0.93713483
0.93712396
0.93711293
0.93710176
0.93709044
0.93707898
0.93706736
0.93705558
0.93704365
0.93703156
0.9370193
0.93700688
0.93699429
0.93698152
0.93696861
0.93695548
0.93694222
0.93692872
0.93691511
0.93690125
0.93688726
0.93687303
0.93685865
0.93684406
0.93682925
0.93681429
0.93679907
0.9367837
0.93676809
0.93675228
0.93673628
0.93672003
0.93670361
0.93668694
0.93667006
0.93665299
0.93663565
0.93661814
0.93660037
0.93658239
0.9365642
0.93654575
0.93652711
0.93650822
0.9364891
0.93646978
0.93645019
0.93643039
0.93641037
0.93639009
0.9363696
0.93634888
0.93632791
0.93630674
0.93628532
0.93626366
0.9362418
0.93621969
0.93619735
0.9361748
0.93615201
0.936129
0.93610578
0.93608232
0.93605865
0.93603477
0.93601066
0.93598635
0.93596183
0.93593709
0.93591216
0.93588702
0.93586168
0.93583614
0.93581043
0.9357845
0.9357584
0.93573213
0.93570566
0.93567902
0.93565223
0.93562525
0.93559812
0.93557084
0.9355434
0.93551581
0.93548808
0.93546022
0.93543222
0.9354041
0.93537586
0.9353475
0.93531902
0.93529044
0.93526176
0.93523298
0.93520412
0.93517517
0.93514615
0.93511706
0.93508791
0.9350587
0.93502945
0.93500015
0.93497082
0.93494145
0.93491205
0.93488264
0.9348532
0.93482376
0.93479431
0.93476487
0.93473543
0.93470602
0.93467663
0.93464727
0.93461796
0.93458869
0.93455948
0.93453031
0.93450121
0.93447218
0.93444322
0.93441432
0.93438551
0.9343568
0.93432818
0.93429966
0.93427127
0.93424298
0.93421482
0.93418678
0.93415887
0.93413109
0.93410344
0.93407593
0.93404856
0.93402135
0.9339943
0.93396741
0.93394069
0.93391414
0.93388775
0.93386153
0.93383549
0.93380963
0.93378395
0.93375846
0.93373316
0.93370806
0.93368315
0.93365844
0.93363393
0.93360962
0.93358551
0.9335616
0.9335379
0.93351441
0.93349113
0.93346806
0.93344521
0.93342256
0.93340012
0.9333779
0.93335588
0.93333409
0.93331251
0.93329114
0.93326999
0.93324905
0.93322833
0.93320781
0.9331875
0.93316741
0.93314753
0.93312786
0.93310839
0.93308913
0.93307007
0.93305121
0.93303256
0.9330141
0.93299583
0.93297777
0.93295989
0.93294221
0.93292471
0.9329074
0.93289028
0.93287334
0.93285658
0.93284
0.9328236
0.93280737
0.93279132
0.93277543
0.93275971
0.93274415
0.93272876
0.93271353
0.93269844
0.93268352
0.93266874
0.93265411
0.93263963
0.9326253
0.9326111
0.93259705
0.93258313
0.93256935
0.9325557
0.93254218
0.93252879
0.93251552