-1.25 	300 	0.1183512306714891 	101277.4471741852
-1.247497497497497 	299.9555668380187 	0.1190834042075565 	101275.3233017146
-1.244994994994995 	299.9574269077653 	0.1224761634769769 	101274.6953695094
-1.242492492492492 	299.9575766611699 	0.1233941484655719 	101274.8408242697
-1.23998998998999 	299.9584004430914 	0.1200260320023551 	101275.829145613
-1.237487487487487 	299.960121682792 	0.1152599336350843 	101277.8631683145
-1.234984984984985 	299.9626096844317 	0.1080561244023799 	101280.8034997085
-1.232482482482482 	299.9657837516446 	0.09888456392605333 	101284.5546468767
-1.22997997997998 	299.9696201958137 	0.08784113039819971 	101289.0887049105
-1.227477477477477 	299.9739744504786 	0.075236164993805 	101294.2350024396
-1.224974974974975 	299.9787427018758 	0.06142133990524163 	101299.8708218329
-1.222472472472472 	299.9838788375278 	0.04655875799759375 	101305.9417791961
-1.21996996996997 	299.989320452158 	0.03082661133856022 	101312.3741337025
-1.217467467467467 	299.9949444723572 	0.01453949644053175 	101319.0223487779
-1.214964964964965 	300.0006388888118 	0.008326737227694381 	101325.7541271266
-1.212462462462462 	300.0063624650388 	0.01848857586050003 	101332.5206803871
-1.20995995995996 	300.0120033993926 	0.03471958819820512 	101339.1898894787
-1.207457457457457 	300.0174056549664 	0.05033968627991021 	101345.577237844
-1.204954954954955 	300.0225067107259 	0.06511075200525523 	101351.6086893594
-1.202452452452452 	300.0272315264002 	0.07877379067799017 	101357.1955134097
-1.19994994994995 	300.0314433209242 	0.09091149146946167 	101362.1759635081
-1.197447447447447 	300.0350380592528 	0.101295331901918 	101366.4268647791
-1.194944944944945 	300.0379734963856 	0.1098077315107287 	101369.8982395208
-1.192442442442442 	300.0402165958861 	0.1163037968017529 	101372.5509893652
-1.18993993993994 	300.0417403745506 	0.1207032623587974 	101374.3530323687
-1.187437437437437 	300.042525749035 	0.1229206869093395 	101375.281903452
-1.184934934934935 	300.0425258837047 	0.1228680666165896 	101375.282060278
-1.182432432432432 	300.041697492626 	0.1204721001457146 	101374.302469057
-1.17992992992993 	300.0400552798711 	0.1157363865735651 	101372.3605806203
-1.177427427427427 	300.0376607607019 	0.1088314893878572 	101369.5289214634
-1.174924924924925 	300.0345838142964 	0.09994064549675652 	101365.8903556376
-1.172422422422422 	300.0308840680316 	0.0892413407738757 	101361.5153799352
-1.16991991991992 	300.0266274941563 	0.07695258213362294 	101356.4821401952
-1.167417417417417 	300.0218911911095 	0.06326773740752592 	101350.8818807971
-1.164914914914915 	300.0167600592191 	0.04841674634409905 	101344.8149032484
-1.162412412412412 	300.011322123165 	0.03267777606435571 	101338.3854979153
-1.15990990990991 	300.0056991486833 	0.01640372860291266 	101331.7375791982
-1.157407407407407 	300.0000023982614 	0.008209823050683638 	101325.0027854053
-1.154904904904904 	299.9942950108232 	0.01658483755240975 	101318.2557655814
-1.152402402402403 	299.9886521134973 	0.03288711391650993 	101311.5851906653
-1.1498998998999 	299.9831764081457 	0.04866590709506173 	101305.1126025354
-1.147397397397397 	299.9779925438215 	0.06362053623805641 	101298.9852206312
-1.144894894894895 	299.9732321984417 	0.07738311134542247 	101293.3586992623
-1.142392392392392 	299.9689948140798 	0.08966063686139533 	101288.3504997927
-1.13988988988989 	299.9653486084635 	0.1002194924525054 	101284.0410662404
-1.137387387387387 	299.9623385913179 	0.1089204169695574 	101280.4836721484
-1.134884884884885 	299.9600038356552 	0.1156690094972767 	101277.7243420722
-1.132382382382382 	299.9583939516071 	0.1203111877218495 	101275.8216895371
-1.12987987987988 	299.9575531691009 	0.1227465194346248 	101274.8280259897
-1.127377377377377 	299.957503501075 	0.1228443536173508 	101274.7692647495
-1.124874874874875 	299.9582676602618 	0.1205823616194899 	101275.6722756511
-1.122372372372372 	299.959834466569 	0.1160695905197341 	101277.5237980819
-1.11986986986987 	299.9621486053628 	0.109392256117407 	101280.2586303089
-1.117367367367367 	299.9651489735699 	0.1007387154251516 	101283.8045296288
-1.114864864864865 	299.9687772551134 	0.09025914331779608 	101288.0925757323
-1.112362362362362 	299.9729598869611 	0.07813083974978743 	101293.0360093501
-1.10985985985986 	299.9776393071508 	0.06461732976869448 	101298.5667601504
-1.107357357357357 	299.982727889735 	0.04993024143860116 	101304.5814502837
-1.104854854854855 	299.9881072598988 	0.03437287286350258 	101310.9401298751
-1.102352352352353 	299.9936659042296 	0.01826015456129432 	101317.5109696429
-1.09984984984985 	299.999312875185 	0.007869129493448094 	101324.1865932544
-1.097347347347347 	300.0049914997006 	0.01452523096218755 	101330.8999051834
-1.094844844844845 	300.0106340786184 	0.03077470498591891 	101337.5709910327
-1.092342342342342 	300.0161051747881 	0.04657330016068104 	101344.0396565101
-1.08983983983984 	300.0212775073362 	0.06155651577734107 	101350.1553098507
-1.087337337337337 	300.0260495285376 	0.07536928064002199 	101355.7979317737
-1.084834834834835 	300.0303329536314 	0.08771814117089533 	101360.8629883932
-1.082332332332332 	300.0340586327931 	0.09848300878777885 	101365.2686993768
-1.07982982982983 	300.0371831217721 	0.1075238850695756 	101368.963641504
-1.077327327327327 	300.0396438361988 	0.114655262905765 	101371.8736676771
-1.074824824824825 	300.0413841625675 	0.1196834895995232 	101373.9318325193
-1.072322322322323 	300.0423504229589 	0.122415153230592 	101375.0746112973
-1.06981981981982 	300.0425030235506 	0.1228202890044136 	101375.25507658
-1.067317317317317 	300.0418434136997 	0.1209366674594389 	101374.4751131247
-1.064814814814815 	300.0404096554016 	0.1168007980995441 	101372.7796863002
-1.062312312312312 	300.0382323412371 	0.1105225875410898 	101370.2049036918
-1.05980980980981 	300.0353535382587 	0.1021860928536004 	101366.8006389732
-1.057307307307307 	300.031818455973 	0.09194902128842095 	101362.6203424799
-1.054804804804805 	300.0276847713186 	0.08002412260210584 	101357.7324009392
-1.052302302302302 	300.0230368629196 	0.06659861711714342 	101352.2365862682
-1.0497997997998 	300.0179766080198 	0.05195767892981384 	101346.2533660003
-1.047297297297297 	300.0125972375784 	0.03638790206268829 	101339.8931432622
-1.044794794794795 	300.0070069131592 	0.02020130926564344 	101333.2837488395
-1.042292292292292 	300.0013035028218 	0.007427354734810179 	101326.5410236603
-1.03978978978979 	299.9955669139051 	0.01287782001641442 	101319.7593831998
-1.037287287287287 	299.9898910940935 	0.02927212618080871 	101313.0498393623
-1.034784784784785 	299.9843904321153 	0.04513501788958043 	101306.5476836574
-1.032282282282283 	299.9791821270296 	0.06019000803144595 	101300.3913414681
-1.02977977977978 	299.9743636155565 	0.07413176914240914 	101294.6960337651
-1.027277277277277 	299.9700056625853 	0.08674003960983807 	101289.5452550557
-1.024774774774775 	299.9661898091264 	0.09776870347951405 	101285.0353112504
-1.022272272272272 	299.9629943147758 	0.1070000702325917 	101281.2586825286
-1.01976976976977 	299.9604882771855 	0.1142423554425529 	101278.2969031918
-1.017267267267267 	299.9587319322276 	0.1193007718364449 	101276.221170656
-1.014764764764765 	299.9577603802584 	0.1221187623774092 	101275.0729284073
-1.012262262262262 	299.9575708650523 	0.1226366355079814 	101274.8489195233
-1.00975975975976 	299.9581686825471 	0.1208913398634887 	101275.5553647284
-1.007257257257257 	299.9595407528539 	0.1169408286132648 	101277.1767524974
-1.004754754754755 	299.9616613085894 	0.1107954436497128 	101279.6827864636
-1.002252252252252 	299.9644933967624 	0.102610931591104 	101283.0297746918
-0.9997497497497498 	299.9679831753598 	0.09253968764474393 	101287.1541242884
-0.9972472472472473 	299.9720414641515 	0.0807929612461943 	101291.950553514
-0.9947447447447449 	299.9766041196339 	0.06761609975619153 	101297.3432763112
-0.9922422422422421 	299.9815829353272 	0.05321667552827763 	101303.2281326108
-0.9897397397397399 	299.9868856383228 	0.03786969993392441 	101309.4961134237
-0.9872372372372376 	299.9924090954508 	0.02189988489768974 	101316.0253276902
-0.9847347347347346 	299.9980419227226 	0.006631265472702362 	101322.6841265667
-0.9822322322322323 	300.0037065205004 	0.01077118857411081 	101329.3808281101
-0.9797297297297296 	300.009320435012 	0.02696889937266049 	101336.0179105066
-0.9772272272272275 	300.0147719821513 	0.04274275686910504 	101342.4633762032
-0.9747247247247248 	300.0199625893666 	0.05775885711275416 	101348.6006184276
-0.9722222222222224 	300.0248049130994 	0.07176700389195023 	101354.3262573228
-0.9697197197197196 	300.0292131993442 	0.08450555878769508 	101359.5389412388
-0.9672172172172175 	300.0331031174595 	0.0957302312480446 	101364.1388032344
-0.9647147147147147 	300.0363961396673 	0.1052509194438642 	101368.032991214
-0.9622122122122124 	300.039021771787 	0.1128339233405952 	101371.1380718579
-0.9597097097097099 	300.0409285014667 	0.1183304573975026 	101373.3929857757
-0.9572072072072073 	300.0420722560752 	0.1216092811209788 	101374.7456858243
-0.9547047047047047 	300.0424243585065 	0.122602825592304 	101375.1620966924
-0.9522022022022023 	300.0419769953577 	0.1213188816262721 	101374.6330822427
-0.9496996996996998 	300.0407433168247 	0.117758798374154 	101373.1742894547
-0.9471971971971973 	300.0387530795739 	0.1120227796173267 	101370.820743239
-0.9446946946946947 	300.036051518952 	0.1042057692542588 	101367.6260572513
-0.9421921921921923 	300.0326821493752 	0.09445136337407206 	101363.6417117883
-0.93968968968969 	300.028702667071 	0.08296026526444829 	101358.9360528525
-0.9371871871871872 	300.0241869596797 	0.06989641962790888 	101353.5965188272
-0.9346846846846848 	300.0192191010248 	0.0555279594751323 	101347.7225021463
-0.9321821821821823 	300.0138938051115 	0.04012584516634084 	101341.426141241
-0.9296796796796799 	300.0083246370162 	0.02400703295501656 	101334.8417070951
-0.9271771771771771 	300.0026217547786 	0.007537081817188075 	101328.0995085771
-0.9246746746746748 	299.9968885974008 	0.01008656912828768 	101321.3218539333
-0.9221721721721724 	299.9912102140593 	0.02545346121993378 	101314.6092210862
-0.9196696696696698 	299.9856799551368 	0.04141850245085334 	101308.0719993991
-0.9171671671671672 	299.9804004394487 	0.05668894681556108 	101301.831447444
-0.9146646646646649 	299.9754711242764 	0.07093749776979352 	101296.0050856324
-0.9121621621621623 	299.9709834805538 	0.08390843711751225 	101290.7009907257
-0.9096596596596597 	299.9670383329309 	0.09531245805576344 	101286.038215778
-0.9071571571571573 	299.9637135871816 	0.1049247038414921 	101282.1087818395
-0.9046546546546547 	299.9610725489222 	0.1125597077021007 	101278.987475678
-0.9021521521521524 	299.9591655530148 	0.1180591332382115 	101276.7336845761
-0.8996496496496498 	299.9580230166408 	0.1213581541227858 	101275.3833522346
-0.8971471471471473 	299.9576540625428 	0.1223897227332782 	101274.9472982667
-0.894644644644645 	299.9580760309291 	0.1211661250424091 	101275.4459145033
-0.892142142142142 	299.9592745709083 	0.117706965528976 	101276.8622505994
-0.8896396396396397 	299.9612253056786 	0.1120575977671191 	101279.1675674935
-0.8871371371371374 	299.9638922812271 	0.1043577609730761 	101282.3194041211
-0.8846346346346349 	299.9672219581797 	0.09474632995559061 	101286.2545276447
-0.8821321321321324 	299.9711418302649 	0.08340296454199869 	101290.8873039281
-0.8796296296296297 	299.9755965555933 	0.07053999257860909 	101296.1524299009
-0.8771271271271271 	299.9804887059015 	0.05638732042115434 	101301.9347984222
-0.8746246246246248 	299.985719130745 	0.04124008689522001 	101308.1172813292
-0.8721221221221224 	299.9911795617499 	0.02545221458234401 	101314.5719301279
-0.8696196196196196 	299.99675254869 	0.009320964560161089 	101321.1599044103
-0.8671171171171175 	300.002361453423 	0.009452423709780935 	101327.7906978592
-0.8646146146146148 	300.0079442438584 	0.02301501199856698 	101334.3909200587
-0.8621121121121121 	300.013411231826 	0.03883243631810508 	101340.8545633829
-0.8596096096096097 	300.0186645140752 	0.0540051666589466 	101347.0658236154
-0.857107107107107 	300.0236001743471 	0.06826560559094486 	101352.9017514968
-0.8546046046046049 	300.0281172316124 	0.08131645127201233 	101358.2430104225
-0.8521021021021022 	300.0321304636475 	0.09290663718193543 	101362.9886599973
-0.8495995995995997 	300.0355653128495 	0.1028532131306903 	101367.0505368951
-0.8470970970970974 	300.0383553394793 	0.1109125521122134 	101370.3499908527
-0.8445945945945946 	300.0404429287951 	0.1169371435953614 	101372.8187551652
-0.8420920920920922 	300.0417730036834 	0.1207631101814867 	101374.3918126977
-0.8395895895895897 	300.0423129226079 	0.1223139151773495 	101375.0303547871
-0.8370870870870872 	300.0420619277909 	0.1215959066392502 	101374.7335601615
-0.8345845845845846 	300.0410334704698 	0.1186103225900446 	101373.5174408755
-0.8320820820820823 	300.0392495860159 	0.11345398268025 	101371.4079018604
-0.8295795795795798 	300.0367392186295 	0.1061791485666694 	101368.4393268699
-0.8270770770770772 	300.0335340965262 	0.0969006921518907 	101364.649179516
-0.8245745745745746 	300.029686872422 	0.08579380220739737 	101360.0999002
-0.8220720720720721 	300.0252746713402 	0.07303201792294083 	101354.88270982
-0.8195695695695699 	300.020385724621 	0.05891082728273972 	101349.1019184927
-0.817067067067067 	300.0151248128824 	0.04371004528140864 	101342.8816454086
-0.8145645645645651 	300.0096069158765 	0.02774767200585038 	101336.357751313
-0.8120620620620621 	300.0039401358999 	0.01137475009480714 	101329.6581810426
-0.8095595595595597 	299.9982234347336 	0.009089416465143422 	101322.8999065476
-0.8070570570570572 	299.9925285067245 	0.02163859915520735 	101316.167613617
-0.8045545545545546 	299.9869515379685 	0.03773385089625618 	101309.5751410058
-0.8020520520520523 	299.9816054128146 	0.05320907590674973 	101303.2557700745
-0.7995495495495494 	299.9765906973608 	0.06770962390494038 	101297.3284368648
-0.7970470470470474 	299.9720021180732 	0.08097504265079711 	101291.904992078
-0.7945445445445446 	299.9679365208631 	0.09270927815339475 	101287.099786915
-0.7920420420420423 	299.9644737065325 	0.1026931627184909 	101283.0071886137
-0.7895395395395397 	299.9616847772654 	0.1107585713818569 	101279.7110653153
-0.7870370370370371 	299.9596251900515 	0.1167126054267193 	101277.2769654146
-0.7845345345345348 	299.9583228188503 	0.1204832807051887 	101275.7377210074
-0.7820320320320323 	299.9577911640983 	0.121990834637554 	101275.1093526086
-0.7795295295295296 	299.9580414670626 	0.1212644568917989 	101275.405141668
-0.7770270270270272 	299.9590608188153 	0.1183400024281267 	101276.6096923673
-0.7745245245245247 	299.9608308089157 	0.1132198450798722 	101278.7014187974
-0.7720220220220222 	299.963324904454 	0.1060166509363049 	101281.6489315484
-0.7695195195195199 	299.966494365853 	0.09683235402149311 	101285.3946473079
-0.767017017017017 	299.9702800747916 	0.08586641351071475 	101289.8688671119
-0.7645145145145147 	299.9746140948801 	0.07335887632574917 	101294.9912538491
-0.7620120120120122 	299.9793977450254 	0.05953127498273245 	101300.6453511877
-0.7595095095095097 	299.9845316069914 	0.04467805459364456 	101306.713637201
-0.7570070070070072 	299.9899168772094 	0.02911416488208053 	101313.0793359232
-0.7545045045045048 	299.9954402369667 	0.01313879761833382 	101319.6086216855
-0.7520020020020022 	300.0010177431258 	0.007967445189254602 	101326.2021784427
-0.7494994994994997 	300.0065874931822 	0.0190759255621788 	101332.7869283751
-0.7469969969969972 	300.0120676220898 	0.03493924952705724 	101339.2660407338
-0.7444944944944945 	300.0173616248911 	0.05024057379837957 	101345.5253358395
-0.7419919919919924 	300.0223661698146 	0.06471074861679707 	101351.4427057123
-0.7394894894894897 	300.0269796567188 	0.07804578784307734 	101356.8978793578
-0.7369869869869872 	300.0311176061417 	0.08998834434001687 	101361.7909795025
-0.7344844844844846 	300.0346954211805 	0.1003344396754394 	101366.0219041558
-0.7319819819819822 	300.0376431191449 	0.108830369341458 	101369.5077395543
-0.7294794794794797 	300.0399002429281 	0.1153327388167773 	101372.1770380026
-0.7269769769769773 	300.0414159170759 	0.1196977958405247 	101373.9695264607
-0.7244744744744747 	300.0421575672684 	0.1218366990439741 	101374.8466665342
-0.721971971971972 	300.0421204097357 	0.1217463532834814 	101374.8027724367
-0.7194694694694695 	300.0412997566908 	0.119371296927202 	101373.8323368834
-0.7169669669669674 	300.0397100703561 	0.1147921673466824 	101371.9525028949
-0.7144644644644647 	300.0373742026199 	0.1080373645768834 	101369.1902407219
-0.711961961961962 	300.0343253887348 	0.09920030334546369 	101365.5849389398
-0.7094594594594597 	300.0306171091599 	0.08849360477573755 	101361.1999491127
-0.7069569569569573 	300.0263290983246 	0.07605585546714125 	101356.1295226202
-0.7044544544544545 	300.0215402570285 	0.06222060105729524 	101350.4670859264
-0.7019519519519523 	300.0163580246333 	0.04724737733134444 	101344.3397500021
-0.6994494494494495 	300.0108921459589 	0.03143123225551675 	101337.8773167603
-0.6969469469469471 	300.0052532412147 	0.01516037552505204 	101331.2106392016
-0.6944444444444446 	299.9995451568694 	0.007264253426086601 	101324.4624465447
-0.6919419419419421 	299.9938357299781 	0.01784640873256891 	101317.7129712244
-0.6894394394394396 	299.9882210794787 	0.03403677950714868 	101311.0758540836
-0.6869369369369374 	299.9828155947851 	0.04970561904050665 	101304.6862857808
-0.6844344344344344 	299.9777178708199 	0.06444678391349094 	101298.6607793848
-0.6819319319319321 	299.9730296563656 	0.07802458165586089 	101293.1195047742
-0.6794294294294296 	299.968849125545 	0.09009251771210733 	101288.1784429094
-0.6769269269269272 	299.9652597546767 	0.1004356234817974 	101283.9362104343
-0.6744244244244245 	299.9623331788838 	0.1089107303506913 	101280.4774274837
-0.6719219219219222 	299.9601224040612 	0.1152915177016957 	101277.8646525498
-0.6694194194194195 	299.9586500059135 	0.1195401454228602 	101276.1244443827
-0.6669169169169172 	299.9579400414601 	0.1215471041257976 	101275.28535176
-0.6644144144144146 	299.9580071543687 	0.121334847057431 	101275.3646249409
-0.661911911911912 	299.9588478347228 	0.1189394528863633 	101276.3580668277
-0.6594094094094097 	299.9604500037092 	0.1143068484939014 	101278.2514501672
-0.656906906906907 	299.9627899535752 	0.1075741837762074 	101281.0167643395
-0.6544044044044046 	299.9658140614852 	0.09879924214192695 	101284.590691323
-0.6519019019019021 	299.9694695115457 	0.08821021690405849 	101288.9108975471
-0.6493993993993996 	299.9736810389081 	0.07607411657703803 	101293.8885090625
-0.6468968968968971 	299.9783538020735 	0.0625507568764805 	101299.4114846534
-0.6443943943943946 	299.9833916072841 	0.0479756605241423 	101305.3661637851
-0.6418918918918921 	299.9887007543053 	0.03261426478209074 	101311.6418348615
-0.6393893893893897 	299.9941651132494 	0.01679068841237054 	101318.1012716895
-0.6368868868868871 	299.9997008015887 	0.005667181007301389 	101324.6453551183
-0.6343843843843846 	300.0052435207 	0.01522083802887639 	101331.1980709033
-0.6318818818818821 	300.0107315044335 	0.03108361192507421 	101337.6863766106
-0.6293793793793795 	300.0160653272449 	0.04648743372551201 	101343.9926975317
-0.6268768768768773 	300.0211362574294 	0.06115666476019094 	101349.9884629738
-0.6243743743743745 	300.0258360267679 	0.07473482974146603 	101355.5457534175
-0.6218718718718721 	300.0300816971019 	0.0869967357602735 	101360.5662693347
-0.6193693693693696 	300.0337808377225 	0.09770482937989769 	101364.9404553211
-0.6168668668668671 	300.0368724510738 	0.1066345354904727 	101368.596413482
-0.6143643643643645 	300.0392963265793 	0.1136452476885017 	101371.4628717349
-0.6118618618618621 	300.0410021555107 	0.1185487873453991 	101373.4802415994
-0.6093593593593596 	300.0419484059371 	0.1212701779330053 	101374.5993594387
-0.6068568568568571 	300.0421228428879 	0.1217556573685605 	101374.8056951684
-0.6043543543543546 	300.0415017982894 	0.1199480108876425 	101374.0712840859
-0.6018518518518521 	300.0401035458466 	0.1159254425809384 	101372.417840535
-0.5993493493493496 	300.0379492564855 	0.1096820263536198 	101369.8703093583
-0.5968468468468471 	300.0350759846366 	0.1013564577261418 	101366.4725933718
-0.5943443443443446 	300.0315282154386 	0.09112532653893028 	101362.2773574696
-0.591841841841842 	300.027380516372 	0.07910799155069966 	101357.3728050777
-0.5893393393393397 	300.0226992237922 	0.06562318435507393 	101351.8374951398
-0.5868368368368371 	300.0176014063121 	0.05088097839836121 	101345.8099031152
-0.5843343343343346 	300.0121915244857 	0.03521508884644306 	101339.4136235134
-0.5818318318318321 	300.0065846327723 	0.01901850975699708 	101332.7847126289
-0.5793293293293297 	300.0008857505464 	0.004564346406280114 	101326.047312247
-0.5768268268268271 	299.9951644120084 	0.01401490206683437 	101319.2836952228
-0.5743243243243245 	299.9895148684826 	0.03032595708619416 	101312.6052520014
-0.5718218218218221 	299.984051956989 	0.04616624731843385 	101306.1477451537
-0.5693193193193196 	299.9788762303104 	0.06110590740006292 	101300.0299795
-0.5668168168168171 	299.974095098941 	0.07493540041009514 	101294.3788131221
-0.5643143143143147 	299.9698036401802 	0.08729625819753775 	101289.3066177062
-0.5618118118118121 	299.9660868021203 	0.09801014565843665 	101284.9137060633
-0.5593093093093094 	299.9630153478114 	0.1069241759730315 	101281.2836846404
-0.5568068068068072 	299.9606446135234 	0.1137721455437862 	101278.4818659925
-0.5543043043043046 	299.9590043840423 	0.118526124555161 	101276.543303678
-0.551801801801802 	299.9581282089387 	0.1210340564980623 	101275.5077610537
-0.5492992992992995 	299.9580255045588 	0.1213233914589078 	101275.3863624435
-0.5467967967967969 	299.9586941164226 	0.119427268375678 	101276.1764652669
-0.5442942942942947 	299.960123053183 	0.1152626752823582 	101277.8651251291
-0.5417917917917919 	299.9622953944164 	0.108995673619333 	101280.4323363766
-0.5392892892892895 	299.9651639868406 	0.1006470173863088 	101283.822453209
-0.536786786786787 	299.9686824000716 	0.09045759972814102 	101287.9806804289
-0.5342842842842846 	299.9727675596055 	0.07869948287262007 	101292.8089047893
-0.531781781781782 	299.9773294472523 	0.06549838531132195 	101298.2007862561
-0.5292792792792794 	299.9822726358335 	0.05123286432879906 	101304.0435650974
-0.526776776776777 	299.987506388982 	0.03610789644080156 	101310.2300433773
-0.5242742742742745 	299.9929143799294 	0.02044893899040964 	101316.6227910293
-0.521771771771772 	299.9984118743994 	0.004590961173498115 	101323.1216567017
-0.5192692692692695 	300.0039234937682 	0.01194815396061625 	101329.6375269509
-0.516766766766767 	300.0094114607082 	0.02727437209912323 	101336.125739856
-0.5142642642642645 	300.0147707448 	0.0427574920440646 	101342.462078274
-0.511761761761762 	300.0198893850746 	0.05759384143357504 	101348.514207379
-0.5092592592592596 	300.0246646873671 	0.07137320993995601 	101354.1606296193
-0.506756756756757 	300.0290161209931 	0.0839326568591216 	101359.3060694177
-0.5042542542542544 	300.0328470675706 	0.09498342415911683 	101363.8362381965
-0.5017517517517521 	300.0360980456203 	0.1043402185746801 	101367.6806513255
-0.4992492492492494 	300.0386949280254 	0.1118687775616569 	101370.7517030875
-0.496746746746747 	300.040583848455 	0.1173201682918918 	101372.9855826722
-0.4942442442442445 	300.0417241777608 	0.1206333395641854 	101374.3342067657
-0.4917417417417421 	300.0420960970029 	0.1216914775437575 	101374.7741234629
-0.4892392392392395 	300.0416671041878 	0.1204558985384163 	101374.2667650282
-0.486736736736737 	300.0404583888732 	0.116989026084145 	101372.8374932074
-0.4842342342342345 	300.0384835255656 	0.1112491106894002 	101370.5021443528
-0.481731731731732 	300.0357816563735 	0.1034063423801677 	101367.3070942041
-0.4792292292292296 	300.0323961659929 	0.09360122435143435 	101363.3037553555
-0.4767267267267268 	300.0283898367979 	0.08197318708333785 	101358.5663112716
-0.4742242242242246 	300.0238221368417 	0.06883780290933396 	101353.1652815336
-0.471721721721722 	300.0188147883763 	0.05435713976957605 	101347.2446077083
-0.4692192192192195 	300.0134627655806 	0.03888516368440763 	101340.9166625615
-0.4667167167167169 	300.00788483335 	0.02279621536464994 	101334.3219432051
-0.4642142142142145 	300.0021935099708 	0.006305369020586846 	101327.5933846899
-0.461711711711712 	299.9964668464222 	0.01140429753603802 	101320.8234051066
-0.4592092092092094 	299.9907941387353 	0.02660457639325322 	101314.1175191664
-0.456706706706707 	299.98529015994 	0.04259020687930933 	101307.6113908319
-0.4542042042042045 	299.9800542324964 	0.05772819267778626 	101301.422422602
-0.451701701701702 	299.9751921756404 	0.07180782619206676 	101295.6755378113
-0.4491991991991995 	299.9707985873046 	0.08445839351712686 	101290.4825919918
-0.4466966966966969 	299.9669562501018 	0.09553034472460618 	101285.9413330785
-0.4441941941941945 	299.9637370958658 	0.1048517777956758 	101282.1367244449
-0.441691691691692 	299.9612034425331 	0.1121504454232167 	101279.1423579157
-0.4391891891891895 	299.9593936958895 	0.1173804409756272 	101277.0034631814
-0.436686686686687 	299.9583495576089 	0.1203561312690845 	101275.7693892123
-0.4341841841841846 	299.9580859046779 	0.1211290292939881 	101275.4577974091
-0.431681681681682 	299.9585940396192 	0.119717649849954 	101276.058259166
-0.4291791791791794 	299.9598595863808 	0.1160539934559869 	101277.5538170063
-0.426676676676677 	299.9618625766163 	0.1102937248168796 	101279.920879211
-0.4241741741741744 	299.9645608296624 	0.1024412890431888 	101283.109680604
-0.421671671671672 	299.9679149700336 	0.09271907650543985 	101287.0737246487
-0.4191691691691694 	299.9718538161654 	0.08136065309693769 	101291.7289891617
-0.4166666666666669 	299.9762900980115 	0.06849971455199429 	101296.9723595054
-0.4141641641641645 	299.9811377072122 	0.05449725531737312 	101302.70210733
-0.411661661661662 	299.9862993991817 	0.03957055340583531 	101308.8033601617
-0.4091591591591594 	299.9916606524679 	0.02406302339621309 	101315.1407785933
-0.406656656656657 	299.9971255800551 	0.0083130812639165 	101321.6010828182
-0.4041541541541545 	300.0026130496141 	0.009469724777460496 	101328.0883284395
-0.401651651651652 	300.0080972657921 	0.0234196066304633 	101334.5720273484
-0.3991491491491494 	300.0134710600648 	0.03893667198156623 	101340.9254652398
-0.396646646646647 	300.0186256464259 	0.05390210715801223 	101347.0200113394
-0.3941441441441444 	300.0234681393404 	0.06789679540318115 	101352.7458274274
-0.3916416416416419 	300.0279109102024 	0.08075944871159212 	101357.999220222
-0.3891391391391395 	300.0318637940948 	0.09217512345934047 	101362.6735234183
-0.3866366366366368 	300.0352636482252 	0.1019619382795269 	101366.6939739045
-0.3841341341341344 	300.0380312590777 	0.1099875223858663 	101369.9668843637
-0.381631631631632 	300.0401118047261 	0.1159666462451726 	101372.4273742906
-0.3791291291291294 	300.0414605956815 	0.119834745239509 	101374.0225265913
-0.3766266266266269 	300.0420334304192 	0.1214443628350537 	101374.7000479654
-0.3741241241241244 	300.0417990561176 	0.1207639690128053 	101374.4228386044
-0.371621621621622 	300.040776082456 	0.1178623887565432 	101373.213200753
-0.3691191191191194 	300.0389770074944 	0.1126628799313935 	101371.0857522252
-0.366616616616617 	300.0364416978764 	0.1053479778473785 	101368.08766188
-0.3641141141141143 	300.033214149587 	0.09599836186942147 	101364.2710494919
-0.3616116116116119 	300.0293460903703 	0.08478511835979327 	101359.6970950122
-0.3591091091091095 	300.0249074333622 	0.07202064722573408 	101354.4485997088
-0.356606606606607 	300.020008179275 	0.05780110081423318 	101348.6556892351
-0.3541041041041044 	300.0147335534661 	0.04253345753508995 	101342.4192001163
-0.3516016016016019 	300.0091997104587 	0.02653464442751122 	101335.8765166886
-0.3490990990990994 	300.0035216709779 	0.01008028386090726 	101329.1636072074
-0.346596596596597 	299.9977901879822 	0.00857037970139342 	101322.3878562251
-0.3440940940940944 	299.9920935773218 	0.02286653389867854 	101315.6536316184
-0.3415915915915919 	299.9865395284281 	0.03894360519340456 	101309.0882665727
-0.3390890890890895 	299.981234621045 	0.05425659307015964 	101302.8176824056
-0.3365865865865869 	299.976288491183 	0.06857813547769956 	101296.9713798685
-0.3340840840840844 	299.9717995882328 	0.08151853536625092 	101291.6657482613
-0.3315815815815819 	299.9678412533883 	0.09296512849813152 	101286.9873346945
-0.3290790790790794 	299.9644874619171 	0.1027065667022742 	101283.0236052139
-0.3265765765765769 	299.9617968858802 	0.1104756946435743 	101279.8437550805
-0.3240740740740744 	299.9598193319942 	0.1161993806666701 	101277.5065540347
-0.3215715715715718 	299.9586013018613 	0.1196484307342288 	101276.066960437
-0.3190690690690695 	299.9581656950284 	0.1208925560365855 	101275.5521262619
-0.3165665665665668 	299.9585032053793 	0.1199285953107918 	101275.9509869747
-0.3140640640640644 	299.9596113490341 	0.1167073839099671 	101277.2605142072
-0.311561561561562 	299.9614589565052 	0.1114117378070436 	101279.4439273892
-0.3090590590590593 	299.9640037424869 	0.1040139369145766 	101282.4513695675
-0.3065565565565568 	299.9672030145073 	0.09476721036985003 	101286.2323250095
-0.3040540540540545 	299.9709997075641 	0.08385013115934455 	101290.7195875948
-0.3015515515515518 	299.9753078988405 	0.07136320432026044 	101295.8114967183
-0.2990490490490494 	299.9800555337075 	0.05767143062468192 	101301.4230183677
-0.2965465465465469 	299.9851312172623 	0.0429491702757365 	101307.4225751341
-0.2940440440440444 	299.9904287742987 	0.02759423710504172 	101313.6845938787
-0.2915415415415418 	299.9958457369845 	0.0119536053152756 	101320.0881751087
-0.2890390390390395 	300.0012992516874 	0.006224735233000847 	101326.5351756217