/*--------------------------------*- C++ -*----------------------------------*\
  =========                 |
  \\      /  F ield         | OpenFOAM: The Open Source CFD Toolbox
   \\    /   O peration     | Website:  https://openfoam.org
    \\  /    A nd           | Version:  7
     \\/     M anipulation  |
\*---------------------------------------------------------------------------*/
FoamFile
{
    version     2.0;
    format      ascii;
    class       volScalarField;
    location    "0.00175";
    object      T;
}
// * * * * * * * * * * * * * * * * * * * * * * * * * * * * * * * * * * * * * //

dimensions      [0 0 0 1 0 0 0];

internalField   nonuniform List<scalar> 
5000
(
285.2668
285.26685
285.26695
285.26718
285.26766
285.26838
285.26951
285.27121
285.27358
285.27677
285.28089
285.2862
285.29295
285.30135
285.31141
285.3231
285.33647
285.35172
285.36915
285.38898
285.41113
285.43509
285.45992
285.48445
285.50748
285.52803
285.54547
285.55959
285.57053
285.57869
285.58461
285.58882
285.59179
285.5939
285.59542
285.59652
285.59734
285.59793
285.59837
285.59868
285.5989
285.59906
285.59916
285.59922
285.59925
285.59926
285.59926
285.59925
285.59923
285.59921
285.59918
285.59915
285.59912
285.59909
285.59905
285.59902
285.59899
285.59896
285.59893
285.5989
285.59886
285.59882
285.59879
285.59875
285.59871
285.59868
285.59864
285.5986
285.59857
285.59852
285.59849
285.59845
285.59841
285.59837
285.59832
285.59828
285.59824
285.59819
285.59814
285.5981
285.59805
285.598
285.59795
285.5979
285.59785
285.5978
285.59774
285.59769
285.59763
285.59758
285.59752
285.59746
285.5974
285.59734
285.59727
285.59721
285.59714
285.59707
285.59701
285.59694
285.59686
285.59679
285.59672
285.59664
285.59657
285.59649
285.59641
285.59633
285.59624
285.59616
285.59607
285.59599
285.5959
285.59581
285.59571
285.59562
285.59552
285.59542
285.59533
285.59522
285.59512
285.59502
285.59491
285.5948
285.59469
285.59458
285.59446
285.59434
285.59422
285.5941
285.59398
285.59385
285.59372
285.59359
285.59346
285.59333
285.59319
285.59305
285.59291
285.59277
285.59262
285.59248
285.59233
285.59217
285.59202
285.59186
285.5917
285.59154
285.59137
285.5912
285.59103
285.59086
285.59069
285.59051
285.59033
285.59014
285.58996
285.58977
285.58958
285.58939
285.58919
285.58899
285.58879
285.58859
285.58838
285.58817
285.58796
285.58774
285.58752
285.5873
285.58708
285.58685
285.58662
285.58639
285.58616
285.58592
285.58568
285.58543
285.58519
285.58494
285.58468
285.58443
285.58417
285.58391
285.58364
285.58338
285.5831
285.58283
285.58255
285.58228
285.58199
285.58171
285.58142
285.58112
285.58083
285.58053
285.58023
285.57992
285.57962
285.57931
285.57899
285.57867
285.57835
285.57803
285.5777
285.57737
285.57704
285.57671
285.57637
285.57602
285.57568
285.57533
285.57498
285.57462
285.57427
285.57391
285.57354
285.57317
285.5728
285.57243
285.57205
285.57167
285.57129
285.5709
285.57051
285.57012
285.56973
285.56933
285.56893
285.56852
285.56811
285.5677
285.56729
285.56687
285.56645
285.56603
285.5656
285.56517
285.56474
285.56431
285.56387
285.56343
285.56299
285.56254
285.56209
285.56164
285.56119
285.56073
285.56027
285.55981
285.55934
285.55887
285.5584
285.55792
285.55745
285.55697
285.55649
285.556
285.55552
285.55502
285.55453
285.55404
285.55354
285.55304
285.55254
285.55203
285.55153
285.55102
285.5505
285.54999
285.54947
285.54895
285.54843
285.54791
285.54738
285.54685
285.54632
285.54579
285.54526
285.54472
285.54418
285.54364
285.5431
285.54255
285.54201
285.54146
285.54091
285.54036
285.5398
285.53925
285.53869
285.53813
285.53757
285.53701
285.53644
285.53588
285.53531
285.53474
285.53417
285.5336
285.53302
285.53245
285.53187
285.5313
285.53072
285.53014
285.52955
285.52897
285.52839
285.5278
285.52722
285.52663
285.52604
285.52545
285.52486
285.52427
285.52368
285.52308
285.52249
285.5219
285.5213
285.5207
285.52011
285.51951
285.51891
285.51831
285.51771
285.51711
285.51651
285.51591
285.51531
285.51471
285.5141
285.5135
285.5129
285.51229
285.51169
285.51109
285.51048
285.50988
285.50927
285.50867
285.50806
285.50746
285.50685
285.50625
285.50565
285.50504
285.50444
285.50384
285.50323
285.50263
285.50202
285.50142
285.50082
285.50022
285.49962
285.49902
285.49841
285.49781
285.49721
285.49661
285.49601
285.49541
285.49482
285.49422
285.49363
285.49303
285.49244
285.49184
285.49125
285.49066
285.49007
285.48948
285.48889
285.4883
285.48771
285.48713
285.48654
285.48596
285.48538
285.4848
285.48422
285.48364
285.48306
285.48248
285.48191
285.48133
285.48076
285.48019
285.47962
285.47905
285.47848
285.47792
285.47736
285.4768
285.47624
285.47568
285.47512
285.47457
285.47401
285.47346
285.47291
285.47236
285.47181
285.47127
285.47072
285.47018
285.46964
285.4691
285.46856
285.46803
285.4675
285.46697
285.46644
285.46592
285.4654
285.46488
285.46436
285.46384
285.46333
285.46281
285.4623
285.46179
285.46129
285.46078
285.46028
285.45978
285.45928
285.45879
285.45829
285.4578
285.45731
285.45683
285.45634
285.45586
285.45538
285.45491
285.45443
285.45396
285.45349
285.45303
285.45256
285.4521
285.45164
285.45119
285.45074
285.45029
285.44984
285.44939
285.44895
285.44851
285.44807
285.44763
285.4472
285.44677
285.44634
285.44592
285.4455
285.44507
285.44466
285.44424
285.44383
285.44342
285.44301
285.44261
285.44221
285.44181
285.44142
285.44102
285.44063
285.44025
285.43986
285.43948
285.4391
285.43873
285.43836
285.43799
285.43762
285.43725
285.43689
285.43653
285.43617
285.43582
285.43547
285.43512
285.43478
285.43443
285.43409
285.43376
285.43342
285.43309
285.43276
285.43244
285.43211
285.43179
285.43147
285.43116
285.43085
285.43054
285.43023
285.42993
285.42963
285.42933
285.42903
285.42874
285.42845
285.42816
285.42788
285.4276
285.42732
285.42704
285.42677
285.42649
285.42623
285.42596
285.4257
285.42544
285.42518
285.42492
285.42467
285.42442
285.42417
285.42392
285.42368
285.42344
285.4232
285.42297
285.42274
285.42251
285.42228
285.42205
285.42183
285.42161
285.42139
285.42118
285.42097
285.42075
285.42055
285.42034
285.42014
285.41993
285.41974
285.41954
285.41935
285.41915
285.41896
285.41878
285.41859
285.41841
285.41823
285.41805
285.41787
285.4177
285.41753
285.41736
285.41719
285.41702
285.41686
285.4167
285.41654
285.41638
285.41622
285.41607
285.41592
285.41577
285.41562
285.41548
285.41533
285.41519
285.41505
285.41491
285.41478
285.41464
285.41451
285.41438
285.41425
285.41412
285.414
285.41387
285.41375
285.41363
285.41351
285.41339
285.41328
285.41316
285.41305
285.41294
285.41283
285.41272
285.41262
285.41251
285.41241
285.41231
285.41221
285.41211
285.41201
285.41192
285.41182
285.41173
285.41164
285.41155
285.41146
285.41137
285.41128
285.4112
285.41112
285.41103
285.41095
285.41087
285.41079
285.41072
285.41064
285.41056
285.41049
285.41042
285.41034
285.41027
285.4102
285.41014
285.41007
285.41
285.40994
285.40987
285.40981
285.40975
285.40969
285.40963
285.40957
285.40951
285.40945
285.40939
285.40934
285.40928
285.40923
285.40918
285.40912
285.40907
285.40902
285.40897
285.40892
285.40888
285.40883
285.40878
285.40874
285.40869
285.40865
285.4086
285.40856
285.40852
285.40848
285.40844
285.4084
285.40836
285.40832
285.40828
285.40824
285.40821
285.40817
285.40814
285.4081
285.40807
285.40803
285.408
285.40797
285.40794
285.40791
285.40787
285.40784
285.40781
285.40778
285.40775
285.40773
285.4077
285.40767
285.40765
285.40762
285.40759
285.40757
285.40754
285.40752
285.4075
285.40747
285.40745
285.40743
285.4074
285.40738
285.40736
285.40734
285.40732
285.4073
285.40728
285.40726
285.40724
285.40722
285.4072
285.40718
285.40716
285.40715
285.40713
285.40711
285.4071
285.40708
285.40706
285.40705
285.40703
285.40702
285.407
285.40699
285.40698
285.40696
285.40695
285.40693
285.40692
285.40691
285.40689
285.40688
285.40687
285.40686
285.40685
285.40684
285.40682
285.40681
285.4068
285.40679
285.40678
285.40677
285.40676
285.40675
285.40674
285.40673
285.40672
285.40672
285.40671
285.4067
285.40669
285.40668
285.40668
285.40667
285.40666
285.40665
285.40665
285.40664
285.40663
285.40662
285.40662
285.40661
285.4066
285.4066
285.40659
285.40659
285.40658
285.40658
285.40657
285.40657
285.40656
285.40656
285.40655
285.40655
285.40654
285.40654
285.40653
285.40653
285.40652
285.40652
285.40652
285.40651
285.40651
285.4065
285.4065
285.4065
285.40649
285.40649
285.40649
285.40648
285.40648
285.40648
285.40648
285.40647
285.40647
285.40647
285.40647
285.40646
285.40646
285.40646
285.40646
285.40645
285.40645
285.40645
285.40645
285.40645
285.40645
285.40644
285.40644
285.40644
285.40644
285.40644
285.40644
285.40644
285.40644
285.40644
285.40644
285.40643
285.40643
285.40643
285.40643
285.40643
285.40643
285.40643
285.40643
285.40643
285.40643
285.40643
285.40643
285.40643
285.40643
285.40643
285.40643
285.40643
285.40643
285.40643
285.40643
285.40643
285.40643
285.40643
285.40643
285.40643
285.40643
285.40643
285.40643
285.40643
285.40643
285.40643
285.40643
285.40643
285.40643
285.40643
285.40643
285.40643
285.40643
285.40644
285.40644
285.40644
285.40644
285.40644
285.40644
285.40644
285.40644
285.40644
285.40644
285.40644
285.40645
285.40645
285.40645
285.40645
285.40645
285.40645
285.40645
285.40645
285.40645
285.40645
285.40645
285.40645
285.40646
285.40646
285.40646
285.40646
285.40646
285.40646
285.40646
285.40647
285.40647
285.40647
285.40647
285.40647
285.40647
285.40647
285.40647
285.40647
285.40647
285.40648
285.40648
285.40648
285.40648
285.40648
285.40648
285.40648
285.40648
285.40649
285.40649
285.40649
285.40649
285.40649
285.40649
285.4065
285.4065
285.4065
285.4065
285.4065
285.4065
285.4065
285.4065
285.40651
285.40651
285.40651
285.40651
285.40651
285.40651
285.40652
285.40652
285.40652
285.40652
285.40652
285.40652
285.40652
285.40653
285.40653
285.40653
285.40653
285.40653
285.40653
285.40653
285.40654
285.40654
285.40654
285.40654
285.40654
285.40654
285.40654
285.40655
285.40655
285.40655
285.40655
285.40655
285.40655
285.40656
285.40656
285.40656
285.40656
285.40656
285.40656
285.40657
285.40657
285.40657
285.40657
285.40657
285.40657
285.40657
285.40658
285.40658
285.40658
285.40658
285.40658
285.40658
285.40659
285.40659
285.40659
285.40659
285.40659
285.40659
285.40659
285.4066
285.4066
285.4066
285.4066
285.4066
285.4066
285.4066
285.40661
285.40661
285.40661
285.40661
285.40661
285.40661
285.40662
285.40662
285.40662
285.40662
285.40662
285.40662
285.40663
285.40663
285.40663
285.40663
285.40663
285.40663
285.40663
285.40664
285.40664
285.40664
285.40664
285.40664
285.40664
285.40665
285.40665
285.40665
285.40665
285.40665
285.40665
285.40665
285.40666
285.40666
285.40666
285.40666
285.40666
285.40666
285.40667
285.40667
285.40667
285.40667
285.40667
285.40667
285.40668
285.40668
285.40668
285.40668
285.40668
285.40668
285.40668
285.40669
285.40669
285.40669
285.40669
285.40669
285.4067
285.4067
285.4067
285.4067
285.4067
285.4067
285.4067
285.40671
285.40671
285.40671
285.40671
285.40671
285.40671
285.40672
285.40672
285.40672
285.40672
285.40672
285.40672
285.40673
285.40673
285.40673
285.40673
285.40673
285.40673
285.40674
285.40674
285.40674
285.40674
285.40674
285.40674
285.40675
285.40675
285.40675
285.40675
285.40675
285.40675
285.40675
285.40676
285.40676
285.40676
285.40676
285.40676
285.40677
285.40677
285.40677
285.40677
285.40677
285.40677
285.40677
285.40678
285.40678
285.40678
285.40678
285.40678
285.40678
285.40679
285.40679
285.40679
285.40679
285.40679
285.40679
285.4068
285.4068
285.4068
285.4068
285.4068
285.4068
285.40681
285.40681
285.40681
285.40681
285.40681
285.40681
285.40682
285.40682
285.40682
285.40682
285.40682
285.40683
285.40683
285.40683
285.40683
285.40683
285.40683
285.40683
285.40684
285.40684
285.40684
285.40684
285.40684
285.40684
285.40685
285.40685
285.40685
285.40685
285.40685
285.40686
285.40686
285.40686
285.40686
285.40686
285.40686
285.40687
285.40687
285.40687
285.40687
285.40687
285.40687
285.40688
285.40688
285.40688
285.40688
285.40688
285.40689
285.40689
285.40689
285.40689
285.40689
285.40689
285.40689
285.4069
285.4069
285.4069
285.4069
285.4069
285.4069
285.40691
285.40691
285.40691
285.40691
285.40691
285.40692
285.40692
285.40692
285.40692
285.40692
285.40693
285.40693
285.40693
285.40693
285.40693
285.40694
285.40694
285.40694
285.40694
285.40694
285.40694
285.40695
285.40695
285.40695
285.40695
285.40695
285.40695
285.40695
285.40696
285.40696
285.40696
285.40696
285.40696
285.40696
285.40697
285.40697
285.40697
285.40697
285.40697
285.40698
285.40698
285.40698
285.40698
285.40698
285.40699
285.40699
285.40699
285.40699
285.40699
285.40699
285.407
285.407
285.407
285.407
285.407
285.40701
285.40701
285.40701
285.40701
285.40701
285.40702
285.40702
285.40702
285.40702
285.40702
285.40702
285.40703
285.40703
285.40703
285.40703
285.40703
285.40704
285.40704
285.40704
285.40704
285.40704
285.40705
285.40705
285.40705
285.40705
285.40705
285.40705
285.40706
285.40706
285.40706
285.40706
285.40706
285.40707
285.40707
285.40707
285.40707
285.40707
285.40708
285.40708
285.40708
285.40708
285.40708
285.40708
285.40709
285.40709
285.40709
285.40709
285.40709
285.4071
285.4071
285.4071
285.4071
285.4071
285.40711
285.40711
285.40711
285.40711
285.40711
285.40712
285.40712
285.40712
285.40712
285.40712
285.40712
285.40713
285.40713
285.40713
285.40713
285.40713
285.40714
285.40714
285.40714
285.40714
285.40715
285.40715
285.40715
285.40715
285.40715
285.40715
285.40716
285.40716
285.40716
285.40716
285.40716
285.40717
285.40717
285.40717
285.40717
285.40717
285.40718
285.40718
285.40718
285.40718
285.40718
285.40718
285.40719
285.40719
285.40719
285.40719
285.4072
285.4072
285.4072
285.4072
285.40721
285.40721
285.40721
285.40721
285.40721
285.40722
285.40722
285.40722
285.40722
285.40722
285.40722
285.40723
285.40723
285.40723
285.40723
285.40723
285.40724
285.40724
285.40724
285.40724
285.40724
285.40725
285.40725
285.40725
285.40725
285.40726
285.40726
285.40726
285.40726
285.40726
285.40727
285.40727
285.40727
285.40727
285.40727
285.40728
285.40728
285.40728
285.40728
285.40728
285.40729
285.40729
285.40729
285.40729
285.40729
285.4073
285.4073
285.4073
285.4073
285.40731
285.40731
285.40731
285.40731
285.40732
285.40732
285.40732
285.40732
285.40732
285.40733
285.40733
285.40733
285.40733
285.40733
285.40734
285.40734
285.40734
285.40734
285.40735
285.40735
285.40735
285.40735
285.40735
285.40736
285.40736
285.40736
285.40736
285.40736
285.40737
285.40737
285.40737
285.40737
285.40738
285.40738
285.40738
285.40738
285.40738
285.40739
285.40739
285.40739
285.40739
285.40739
285.4074
285.4074
285.4074
285.4074
285.40741
285.40741
285.40741
285.40741
285.40741
285.40742
285.40742
285.40742
285.40742
285.40743
285.40743
285.40743
285.40743
285.40744
285.40744
285.40744
285.40744
285.40745
285.40745
285.40745
285.40745
285.40745
285.40746
285.40746
285.40746
285.40746
285.40746
285.40747
285.40747
285.40747
285.40747
285.40747
285.40748
285.40748
285.40748
285.40748
285.40749
285.40749
285.40749
285.40749
285.4075
285.4075
285.4075
285.4075
285.40751
285.40751
285.40751
285.40751
285.40752
285.40752
285.40752
285.40752
285.40752
285.40753
285.40753
285.40753
285.40753
285.40754
285.40754
285.40754
285.40754
285.40754
285.40755
285.40755
285.40755
285.40755
285.40756
285.40756
285.40756
285.40756
285.40757
285.40757
285.40757
285.40757
285.40758
285.40758
285.40758
285.40758
285.40759
285.40759
285.40759
285.4076
285.4076
285.4076
285.4076
285.4076
285.40761
285.40761
285.40761
285.40761
285.40762
285.40762
285.40762
285.40762
285.40762
285.40763
285.40763
285.40763
285.40764
285.40764
285.40764
285.40764
285.40765
285.40765
285.40765
285.40765
285.40766
285.40766
285.40766
285.40766
285.40767
285.40767
285.40767
285.40767
285.40768
285.40768
285.40768
285.40768
285.40769
285.40769
285.40769
285.40769
285.4077
285.4077
285.4077
285.4077
285.40771
285.40771
285.40771
285.40771
285.40772
285.40772
285.40772
285.40773
285.40773
285.40773
285.40773
285.40774
285.40774
285.40774
285.40774
285.40775
285.40775
285.40775
285.40775
285.40776
285.40776
285.40776
285.40776
285.40777
285.40777
285.40777
285.40777
285.40778
285.40778
285.40778
285.40778
285.40779
285.40779
285.40779
285.4078
285.4078
285.4078
285.4078
285.40781
285.40781
285.40781
285.40782
285.40782
285.40782
285.40782
285.40783
285.40783
285.40783
285.40784
285.40784
285.40784
285.40784
285.40785
285.40785
285.40785
285.40785
285.40786
285.40786
285.40786
285.40787
285.40787
285.40787
285.40787
285.40788
285.40788
285.40788
285.40788
285.40789
285.40789
285.40789
285.4079
285.4079
285.4079
285.4079
285.40791
285.40791
285.40791
285.40791
285.40792
285.40792
285.40792
285.40792
285.40793
285.40793
285.40793
285.40794
285.40794
285.40794
285.40794
285.40795
285.40795
285.40795
285.40796
285.40796
285.40796
285.40797
285.40797
285.40797
285.40798
285.40798
285.40798
285.40799
285.40799
285.40799
285.40799
285.408
285.408
285.408
285.408
285.40801
285.40801
285.40801
285.40802
285.40802
285.40802
285.40803
285.40803
285.40803
285.40803
285.40804
285.40804
285.40804
285.40805
285.40805
285.40805
285.40806
285.40806
285.40806
285.40806
285.40807
285.40807
285.40807
285.40808
285.40808
285.40808
285.40809
285.40809
285.40809
285.4081
285.4081
285.4081
285.40811
285.40811
285.40811
285.40811
285.40812
285.40812
285.40812
285.40813
285.40813
285.40813
285.40814
285.40814
285.40814
285.40814
285.40815
285.40815
285.40816
285.40816
285.40816
285.40817
285.40817
285.40817
285.40818
285.40818
285.40818
285.40818
285.40819
285.40819
285.40819
285.4082
285.4082
285.4082
285.40821
285.40821
285.40821
285.40822
285.40822
285.40822
285.40823
285.40823
285.40823
285.40824
285.40824
285.40824
285.40825
285.40825
285.40825
285.40826
285.40826
285.40826
285.40827
285.40827
285.40827
285.40828
285.40828
285.40828
285.40829
285.40829
285.40829
285.4083
285.4083
285.4083
285.40831
285.40831
285.40831
285.40832
285.40832
285.40832
285.40833
285.40833
285.40833
285.40834
285.40834
285.40834
285.40835
285.40835
285.40835
285.40836
285.40836
285.40836
285.40837
285.40837
285.40838
285.40838
285.40838
285.40839
285.40839
285.40839
285.4084
285.4084
285.4084
285.40841
285.40841
285.40842
285.40842
285.40842
285.40843
285.40843
285.40843
285.40844
285.40844
285.40844
285.40845
285.40845
285.40845
285.40846
285.40846
285.40846
285.40847
285.40847
285.40848
285.40848
285.40848
285.40849
285.40849
285.40849
285.4085
285.4085
285.40851
285.40851
285.40851
285.40852
285.40852
285.40852
285.40853
285.40853
285.40853
285.40854
285.40854
285.40855
285.40855
285.40855
285.40856
285.40856
285.40857
285.40857
285.40857
285.40858
285.40858
285.40859
285.40859
285.40859
285.4086
285.4086
285.40861
285.40861
285.40861
285.40862
285.40862
285.40863
285.40863
285.40863
285.40864
285.40864
285.40864
285.40865
285.40865
285.40865
285.40866
285.40866
285.40867
285.40867
285.40868
285.40868
285.40869
285.40869
285.40869
285.4087
285.4087
285.40871
285.40871
285.40872
285.40872
285.40872
285.40873
285.40873
285.40873
285.40874
285.40874
285.40874
285.40875
285.40875
285.40876
285.40876
285.40876
285.40877
285.40877
285.40878
285.40878
285.40879
285.40879
285.4088
285.4088
285.4088
285.40881
285.40881
285.40882
285.40882
285.40883
285.40883
285.40883
285.40884
285.40884
285.40885
285.40885
285.40885
285.40886
285.40886
285.40887
285.40887
285.40888
285.40888
285.40889
285.40889
285.4089
285.4089
285.4089
285.40891
285.40891
285.40892
285.40892
285.40893
285.40893
285.40894
285.40894
285.40894
285.40895
285.40895
285.40896
285.40896
285.40897
285.40897
285.40898
285.40898
285.40899
285.40899
285.40899
285.409
285.409
285.40901
285.40901
285.40902
285.40902
285.40903
285.40903
285.40904
285.40904
285.40904
285.40905
285.40905
285.40906
285.40906
285.40907
285.40907
285.40908
285.40908
285.40909
285.40909
285.4091
285.4091
285.40911
285.40911
285.40912
285.40912
285.40913
285.40913
285.40914
285.40914
285.40915
285.40915
285.40916
285.40916
285.40917
285.40917
285.40918
285.40918
285.40919
285.40919
285.4092
285.4092
285.40921
285.40921
285.40922
285.40922
285.40923
285.40923
285.40924
285.40924
285.40925
285.40925
285.40926
285.40926
285.40927
285.40927
285.40928
285.40928
285.40929
285.40929
285.4093
285.4093
285.40931
285.40931
285.40932
285.40932
285.40933
285.40933
285.40934
285.40934
285.40935
285.40935
285.40936
285.40937
285.40937
285.40938
285.40938
285.40939
285.40939
285.4094
285.4094
285.40941
285.40942
285.40942
285.40943
285.40943
285.40944
285.40944
285.40945
285.40945
285.40946
285.40946
285.40947
285.40948
285.40948
285.40949
285.40949
285.4095
285.4095
285.40951
285.40951
285.40952
285.40952
285.40953
285.40954
285.40954
285.40955
285.40955
285.40956
285.40956
285.40957
285.40958
285.40958
285.40959
285.4096
285.4096
285.40961
285.40961
285.40962
285.40963
285.40963
285.40964
285.40964
285.40965
285.40965
285.40966
285.40967
285.40967
285.40968
285.40968
285.40969
285.4097
285.4097
285.40971
285.40971
285.40972
285.40973
285.40973
285.40974
285.40974
285.40975
285.40976
285.40976
285.40977
285.40978
285.40978
285.40979
285.4098
285.4098
285.40981
285.40982
285.40982
285.40983
285.40984
285.40985
285.40985
285.40986
285.40986
285.40987
285.40988
285.40988
285.40989
285.40989
285.4099
285.40991
285.40991
285.40992
285.40992
285.40993
285.40994
285.40994
285.40995
285.40996
285.40996
285.40997
285.40998
285.40999
285.40999
285.41
285.41001
285.41001
285.41002
285.41003
285.41004
285.41004
285.41005
285.41006
285.41006
285.41007
285.41008
285.41009
285.41009
285.4101
285.41011
285.41011
285.41012
285.41013
285.41014
285.41014
285.41015
285.41016
285.41016
285.41017
285.41018
285.41018
285.41019
285.4102
285.4102
285.41021
285.41022
285.41023
285.41023
285.41024
285.41025
285.41026
285.41026
285.41027
285.41028
285.41029
285.4103
285.4103
285.41031
285.41032
285.41033
285.41034
285.41035
285.41035
285.41036
285.41037
285.41038
285.41038
285.41039
285.4104
285.41041
285.41041
285.41042
285.41043
285.41044
285.41044
285.41045
285.41046
285.41047
285.41047
285.41048
285.41049
285.4105
285.41051
285.41052
285.41052
285.41053
285.41054
285.41055
285.41056
285.41057
285.41058
285.41058
285.41059
285.4106
285.41061
285.41062
285.41063
285.41063
285.41064
285.41065
285.41066
285.41067
285.41068
285.41069
285.4107
285.4107
285.41071
285.41072
285.41073
285.41074
285.41075
285.41076
285.41077
285.41078
285.41078
285.41079
285.4108
285.41081
285.41082
285.41083
285.41084
285.41085
285.41086
285.41087
285.41087
285.41088
285.41089
285.4109
285.41091
285.41092
285.41093
285.41094
285.41095
285.41096
285.41097
285.41098
285.41099
285.411
285.41101
285.41102
285.41103
285.41104
285.41105
285.41106
285.41107
285.41108
285.41109
285.4111
285.41111
285.41112
285.41113
285.41114
285.41115
285.41116
285.41117
285.41118
285.41119
285.4112
285.41121
285.41122
285.41123
285.41124
285.41125
285.41126
285.41127
285.41128
285.41129
285.4113
285.41131
285.41132
285.41133
285.41134
285.41136
285.41136
285.41138
285.41139
285.4114
285.41141
285.41142
285.41143
285.41144
285.41146
285.41147
285.41148
285.41149
285.4115
285.41151
285.41152
285.41153
285.41155
285.41156
285.41157
285.41158
285.41159
285.4116
285.41162
285.41163
285.41164
285.41165
285.41166
285.41167
285.41169
285.4117
285.41171
285.41172
285.41174
285.41175
285.41177
285.41178
285.41179
285.4118
285.41182
285.41183
285.41184
285.41185
285.41187
285.41187
285.41189
285.4119
285.41191
285.41192
285.41193
285.41195
285.41196
285.41197
285.41198
285.412
285.41201
285.41203
285.41204
285.41205
285.41207
285.41208
285.4121
285.41211
285.41212
285.41214
285.41215
285.41217
285.41218
285.4122
285.41221
285.41222
285.41224
285.41225
285.41227
285.41228
285.41229
285.41231
285.41232
285.41234
285.41235
285.41237
285.41238
285.41239
285.41241
285.41242
285.41244
285.41245
285.41247
285.41248
285.4125
285.41251
285.41253
285.41255
285.41256
285.41258
285.41259
285.41261
285.41262
285.41264
285.41266
285.41267
285.41269
285.4127
285.41272
285.41274
285.41275
285.41277
285.41278
285.4128
285.41282
285.41283
285.41285
285.41287
285.41288
285.4129
285.41292
285.41293
285.41295
285.41297
285.41299
285.413
285.41302
285.41304
285.41306
285.41308
285.41309
285.41311
285.41313
285.41315
285.41316
285.41318
285.4132
285.41322
285.41324
285.41326
285.41328
285.4133
285.41332
285.41334
285.41336
285.41338
285.4134
285.41341
285.41343
285.41345
285.41347
285.41349
285.41351
285.41353
285.41355
285.41357
285.41359
285.41361
285.41363
285.41365
285.41367
285.41369
285.41372
285.41374
285.41376
285.41378
285.4138
285.41382
285.41385
285.41387
285.41389
285.41391
285.41393
285.41396
285.41398
285.414
285.41402
285.41405
285.41407
285.41409
285.41412
285.41414
285.41416
285.41419
285.41421
285.41424
285.41426
285.41429
285.41431
285.41433
285.41436
285.41438
285.41441
285.41443
285.41446
285.41448
285.41451
285.41453
285.41456
285.41458
285.41461
285.41463
285.41466
285.41468
285.41471
285.41474
285.41476
285.41479
285.41482
285.41485
285.41488
285.41491
285.41494
285.41497
285.415
285.41503
285.41505
285.41508
285.41511
285.41514
285.41517
285.4152
285.41523
285.41526
285.41529
285.41532
285.41535
285.41538
285.41541
285.41544
285.41548
285.41551
285.41554
285.41557
285.41561
285.41564
285.41567
285.4157
285.41574
285.41577
285.4158
285.41584
285.41587
285.41591
285.41594
285.41598
285.41602
285.41605
285.41609
285.41613
285.41616
285.4162
285.41624
285.41628
285.41631
285.41635
285.41639
285.41643
285.41647
285.41651
285.41655
285.41658
285.41662
285.41666
285.4167
285.41674
285.41679
285.41683
285.41687
285.41691
285.41696
285.417
285.41704
285.41709
285.41714
285.41718
285.41723
285.41728
285.41732
285.41737
285.41742
285.41747
285.41751
285.41756
285.41761
285.41766
285.41771
285.41776
285.41781
285.41786
285.41791
285.41796
285.41802
285.41807
285.41812
285.41818
285.41823
285.41829
285.41835
285.4184
285.41846
285.41851
285.41857
285.41863
285.41868
285.41874
285.4188
285.41886
285.41892
285.41898
285.41905
285.41911
285.41917
285.41924
285.4193
285.41937
285.41944
285.4195
285.41957
285.41964
285.41971
285.41978
285.41985
285.41992
285.41999
285.42006
285.42014
285.42021
285.42028
285.42036
285.42044
285.42051
285.42059
285.42067
285.42075
285.42083
285.42091
285.42099
285.42108
285.42116
285.42125
285.42133
285.42142
285.4215
285.42159
285.42168
285.42177
285.42186
285.42195
285.42204
285.42213
285.42223
285.42233
285.42242
285.42252
285.42262
285.42273
285.42283
285.42294
285.42305
285.42316
285.42327
285.42339
285.42351
285.42363
285.42375
285.42388
285.42402
285.42415
285.42429
285.42444
285.42459
285.42474
285.42489
285.42505
285.42522
285.42539
285.42556
285.42574
285.42592
285.42611
285.4263
285.4265
285.4267
285.42691
285.42712
285.42734
285.42756
285.42779
285.42802
285.42826
285.4285
285.42875
285.42901
285.42927
285.42954
285.42982
285.43011
285.4304
285.4307
285.43101
285.43133
285.43165
285.43198
285.43231
285.43265
285.43299
285.43333
285.43368
285.43402
285.43437
285.43472
285.43506
285.43539
285.43572
285.43603
285.43632
285.4366
285.43686
285.43708
285.43728
285.43744
285.43757
285.43764
285.43768
285.43769
285.43768
285.43764
285.43751
285.43716
285.43666
285.43615
285.4357
285.43536
285.43518
285.43513
285.43514
285.43527
285.43574
285.43709
285.44062
285.44946
285.47103
285.52335
285.64801
285.91938
286.30714
286.8024
287.40296
288.10102
288.88393
289.73512
290.63525
291.56358
292.49922
293.42234
294.3151
295.16247
295.95259
296.67699
297.33054
297.91115
298.41937
298.85795
299.23124
299.54475
299.80464
300.01737
300.18931
300.32656
300.43477
300.51899
300.58369
300.6327
300.66928
300.69612
300.71544
300.729
300.73824
300.74425
300.74792
300.74991
300.75075
300.75091
300.75078
300.75013
300.74862
300.74699
300.74544
300.74397
300.74259
300.7413
300.74011
300.73902
300.738
300.73707
300.73621
300.73542
300.73469
300.73401
300.73338
300.73279
300.73224
300.73172
300.73124
300.73078
300.73035
300.72994
300.72955
300.72918
300.72882
300.72848
300.72816
300.72785
300.72755
300.72726
300.72698
300.72671
300.72646
300.72621
300.72596
300.72573
300.7255
300.72528
300.72507
300.72486
300.72466
300.72447
300.72428
300.72409
300.72391
300.72373
300.72355
300.72338
300.72321
300.72305
300.72288
300.72272
300.72256
300.72241
300.72225
300.7221
300.72194
300.72179
300.72164
300.72149
300.72135
300.7212
300.72105
300.72091
300.72076
300.72062
300.72048
300.72034
300.7202
300.72007
300.71993
300.7198
300.71967
300.71954
300.71941
300.71928
300.71916
300.71904
300.71892
300.7188
300.71868
300.71857
300.71846
300.71835
300.71824
300.71813
300.71803
300.71793
300.71783
300.71773
300.71763
300.71754
300.71744
300.71735
300.71726
300.71717
300.71709
300.717
300.71692
300.71683
300.71675
300.71667
300.71659
300.71651
300.71643
300.71635
300.71628
300.7162
300.71613
300.71605
300.71598
300.71591
300.71584
300.71577
300.7157
300.71563
300.71557
300.7155
300.71543
300.71537
300.7153
300.71524
300.71518
300.71511
300.71505
300.71499
300.71493
300.71487
300.71481
300.71476
300.7147
300.71464
300.71458
300.71453
300.71447
300.71442
300.71436
300.71431
300.71426
300.7142
300.71415
300.7141
300.71405
300.71399
300.71394
300.71389
300.71384
300.71379
300.71374
300.71369
300.71365
300.7136
300.71355
300.7135
300.71346
300.71341
300.71337
300.71332
300.71328
300.71323
300.71319
300.71315
300.7131
300.71306
300.71302
300.71297
300.71293
300.71289
300.71285
300.71281
300.71277
300.71273
300.71269
300.71265
300.71261
300.71257
300.71253
300.71249
300.71245
300.71241
300.71238
300.71234
300.7123
300.71226
300.71223
300.71219
300.71216
300.71212
300.71209
300.71205
300.71202
300.71198
300.71195
300.71191
300.71188
300.71184
300.71181
300.71178
300.71174
300.71171
300.71168
300.71164
300.71161
300.71158
300.71155
300.71152
300.71148
300.71145
300.71142
300.71139
300.71136
300.71133
300.7113
300.71127
300.71124
300.71121
300.71118
300.71115
300.71113
300.7111
300.71107
300.71104
300.71101
300.71098
300.71096
300.71093
300.7109
300.71087
300.71085
300.71082
300.71079
300.71076
300.71074
300.71071
300.71068
300.71066