/*--------------------------------*- C++ -*----------------------------------*\
  =========                 |
  \\      /  F ield         | OpenFOAM: The Open Source CFD Toolbox
   \\    /   O peration     | Website:  https://openfoam.org
    \\  /    A nd           | Version:  7
     \\/     M anipulation  |
\*---------------------------------------------------------------------------*/
FoamFile
{
    version     2.0;
    format      ascii;
    class       volScalarField;
    location    "0.00259";
    object      T;
}
// * * * * * * * * * * * * * * * * * * * * * * * * * * * * * * * * * * * * * //

dimensions      [0 0 0 1 0 0 0];

internalField   nonuniform List<scalar> 
5000
(
252.04058
252.05507
252.06171
252.07324
252.08009
252.09156
252.09842
252.10989
252.11675
252.12822
252.13508
252.14656
252.15341
252.16489
252.17175
252.18323
252.19008
252.20156
252.20841
252.21989
252.22674
252.23822
252.24506
252.25654
252.26338
252.27486
252.28169
252.29317
252.29999
252.31147
252.31829
252.32977
252.33658
252.34806
252.35486
252.36634
252.37314
252.38462
252.39141
252.40289
252.40968
252.42115
252.42793
252.43941
252.44619
252.45766
252.46443
252.4759
252.48267
252.49414
252.5009
252.51237
252.51912
252.53059
252.53734
252.5488
252.55555
252.56701
252.57375
252.58521
252.59195
252.60341
252.61014
252.6216
252.62832
252.63978
252.6465
252.65796
252.66467
252.67612
252.68283
252.69428
252.70098
252.71243
252.71911
252.73057
252.73724
252.74869
252.75536
252.7668
252.77347
252.78492
252.79158
252.80303
252.80969
252.82114
252.8278
252.83926
252.84592
252.85738
252.86403
252.8755
252.88215
252.89361
252.90026
252.91172
252.91836
252.92982
252.93646
252.94792
252.95455
252.96601
252.97264
252.98409
252.99071
253.00217
253.00879
253.02024
253.02685
253.03831
253.04491
253.05636
253.06296
253.07442
253.081
253.09246
253.09904
253.1105
253.11707
253.12853
253.1351
253.14655
253.15312
253.16457
253.17113
253.18258
253.18913
253.20059
253.20713
253.21858
253.22512
253.23658
253.24311
253.25456
253.26109
253.27254
253.27906
253.29051
253.29703
253.30847
253.31499
253.32643
253.33294
253.34439
253.35089
253.36233
253.36882
253.38027
253.38676
253.3982
253.40468
253.41613
253.4226
253.43405
253.44052
253.45196
253.45843
253.46987
253.47633
253.48777
253.49422
253.50566
253.51211
253.52355
253.52999
253.54143
253.54786
253.55931
253.56573
253.57718
253.5836
253.59504
253.60145
253.61289
253.6193
253.63074
253.63714
253.64858
253.65498
253.66642
253.67281
253.68425
253.69063
253.70207
253.70845
253.71989
253.72626
253.7377
253.74406
253.7555
253.76186
253.7733
253.77965
253.79109
253.79744
253.80888
253.81522
253.82666
253.83299
253.84443
253.85075
253.86219
253.86851
253.87995
253.88626
253.8977
253.90401
253.91545
253.92175
253.93319
253.93948
253.95092
253.9572
253.96864
253.97492
253.98636
253.99263
254.00408
254.01034
254.02178
254.02805
254.03949
254.04575
254.05719
254.06344
254.07489
254.08114
254.09258
254.09883
254.11028
254.11652
254.12797
254.1342
254.14565
254.15188
254.16334
254.16956
254.18102
254.18723
254.19869
254.2049
254.21636
254.22256
254.23402
254.24022
254.25168
254.25787
254.26933
254.27551
254.28698
254.29315
254.30462
254.31078
254.32225
254.32841
254.33987
254.34604
254.35749
254.36365
254.37512
254.38125
254.39273
254.39885
254.41033
254.41645
254.42792
254.43405
254.44549
254.45165
254.46307
254.46922
254.48067
254.48677
254.49827
254.50429
254.51588
254.52182
254.53344
254.53939
254.55096
254.55701
254.5684
254.57469
254.58578
254.59241
254.60311
254.61015
254.62042
254.62788
254.63774
254.64559
254.65508
254.66326
254.67245
254.68088
254.68985
254.69847
254.70728
254.71601
254.72473
254.73353
254.74219
254.75102
254.75965
254.76851
254.77712
254.78598
254.79458
254.80344
254.81204
254.82089
254.82949
254.83834
254.84693
254.85578
254.86437
254.87322
254.88181
254.89064
254.89923
254.90807
254.91665
254.92548
254.93406
254.94289
254.95146
254.9603
254.96886
254.97769
254.98625
254.99508
255.00364
255.01245
255.02103
255.02982
255.03841
255.04717
255.05579
255.06452
255.07315
255.08186
255.09051
255.09919
255.10786
255.11652
255.1252
255.13385
255.14253
255.15116
255.15985
255.16847
255.17717
255.18577
255.19447
255.20307
255.21176
255.22035
255.22904
255.23763
255.24632
255.2549
255.26358
255.27216
255.28084
255.28941
255.29808
255.30665
255.31532
255.32388
255.33255
255.34111
255.34976
255.35832
255.36697
255.37552
255.38417
255.39272
255.40136
255.4099
255.41855
255.42708
255.43572
255.44425
255.45288
255.46141
255.47003
255.47855
255.48718
255.49569
255.50431
255.51282
255.52143
255.52993
255.53853
255.54703
255.55563
255.56412
255.5727
255.58119
255.58977
255.59825
255.60682
255.61529
255.62385
255.63231
255.64087
255.64932
255.65787
255.66631
255.67485
255.68328
255.69181
255.70023
255.70875
255.71717
255.72568
255.73408
255.74258
255.75097
255.75945
255.76783
255.77631
255.78468
255.79314
255.8015
255.80995
255.81829
255.82673
255.83506
255.84348
255.8518
255.86021
255.86851
255.87691
255.8852
255.89358
255.90185
255.91022
255.91848
255.92683
255.93507
255.94341
255.95163
255.95995
255.96816
255.97646
255.98465
255.99294
256.00111
256.00937
256.01752
256.02577
256.0339
256.04213
256.05024
256.05845
256.06654
256.07473
256.0828
256.09097
256.09901
256.10716
256.11518
256.1233
256.1313
256.1394
256.14738
256.15545
256.1634
256.17146
256.17938
256.18741
256.1953
256.2033
256.21117
256.21915
256.22699
256.23494
256.24275
256.25067
256.25845
256.26635
256.2741
256.28196
256.28968
256.29751
256.30521
256.313
256.32067
256.32843
256.33607
256.34379
256.3514
256.35908
256.36667
256.3743
256.38186
256.38945
256.39699
256.40454
256.41204
256.41955
256.42702
256.43448
256.44192
256.44935
256.45675
256.46413
256.47149
256.47884
256.48616
256.49347
256.50075
256.50802
256.51526
256.52248
256.52969
256.53687
256.54403
256.55117
256.55829
256.56538
256.57246
256.57951
256.58654
256.59356
256.60054
256.60751
256.61445
256.62137
256.62827
256.63515
256.642
256.64883
256.65564
256.66242
256.66919
256.67592
256.68264
256.68933
256.69599
256.70264
256.70926
256.71585
256.72242
256.72897
256.73549
256.74199
256.74846
256.75491
256.76133
256.76773
256.7741
256.78045
256.78677
256.79306
256.79934
256.80558
256.8118
256.818
256.82417
256.83031
256.83643
256.84252
256.84859
256.85463
256.86064
256.86663
256.87259
256.87853
256.88444
256.89033
256.89618
256.90202
256.90782
256.9136
256.91936
256.92509
256.93079
256.93647
256.94212
256.94774
256.95334
256.95891
256.96446
256.96998
256.97547
256.98094
256.98639
256.99181
256.9972
257.00256
257.0079
257.01322
257.01851
257.02377
257.02901
257.03423
257.03942
257.04458
257.04972
257.05483
257.05992
257.06498
257.07002
257.07504
257.08003
257.08499
257.08993
257.09485
257.09974
257.10461
257.10946
257.11428
257.11907
257.12385
257.1286
257.13332
257.13803
257.14271
257.14736
257.152
257.15661
257.1612
257.16576
257.1703
257.17482
257.17932
257.1838
257.18825
257.19269
257.1971
257.20149
257.20585
257.2102
257.21452
257.21883
257.22311
257.22737
257.23162
257.23584
257.24004
257.24422
257.24838
257.25252
257.25664
257.26075
257.26483
257.26889
257.27294
257.27696
257.28097
257.28495
257.28892
257.29287
257.29681
257.30072
257.30462
257.3085
257.31236
257.3162
257.32003
257.32384
257.32763
257.33141
257.33517
257.33891
257.34264
257.34635
257.35004
257.35372
257.35739
257.36104
257.36467
257.36829
257.37189
257.37548
257.37905
257.38261
257.38616
257.38969
257.39321
257.39671
257.4002
257.40368
257.40714
257.41059
257.41403
257.41745
257.42086
257.42426
257.42765
257.43102
257.43438
257.43773
257.44107
257.4444
257.44771
257.45102
257.45431
257.45759
257.46086
257.46412
257.46737
257.4706
257.47383
257.47704
257.48025
257.48344
257.48663
257.4898
257.49297
257.49612
257.49927
257.5024
257.50553
257.50865
257.51175
257.51485
257.51794
257.52102
257.52409
257.52715
257.53021
257.53325
257.53629
257.53932
257.54234
257.54535
257.54835
257.55135
257.55434
257.55732
257.56029
257.56325
257.56621
257.56916
257.57211
257.57504
257.57797
257.58089
257.58381
257.58672
257.58962
257.59251
257.5954
257.59829
257.60116
257.60403
257.60689
257.60975
257.6126
257.61545
257.61829
257.62112
257.62395
257.62677
257.62959
257.6324
257.63521
257.63801
257.6408
257.64359
257.64638
257.64916
257.65193
257.6547
257.65747
257.66023
257.66298
257.66573
257.66848
257.67122
257.67396
257.67669
257.67942
257.68214
257.68486
257.68757
257.69028
257.69299
257.69569
257.69839
257.70109
257.70378
257.70646
257.70915
257.71183
257.7145
257.71717
257.71984
257.7225
257.72516
257.72782
257.73047
257.73312
257.73577
257.73841
257.74105
257.74368
257.74632
257.74895
257.75157
257.75419
257.75681
257.75943
257.76204
257.76465
257.76726
257.76986
257.77247
257.77506
257.77766
257.78025
257.78284
257.78542
257.78801
257.79059
257.79317
257.79574
257.79831
257.80088
257.80345
257.80602
257.80858
257.81114
257.81369
257.81625
257.8188
257.82135
257.8239
257.82644
257.82898
257.83152
257.83406
257.83659
257.83913
257.84166
257.84419
257.84672
257.84924
257.85176
257.85428
257.8568
257.85931
257.86183
257.86434
257.86685
257.86936
257.87186
257.87437
257.87687
257.87937
257.88187
257.88436
257.88686
257.88935
257.89183
257.89432
257.89681
257.89929
257.90177
257.90425
257.90673
257.90921
257.91168
257.91415
257.91662
257.91909
257.92156
257.92402
257.92648
257.92894
257.93139
257.93385
257.9363
257.93875
257.9412
257.94365
257.9461
257.94854
257.95098
257.95343
257.95586
257.9583
257.96073
257.96317
257.9656
257.96802
257.97045
257.97287
257.97529
257.97771
257.98013
257.98254
257.98496
257.98737
257.98978
257.99218
257.99459
257.99699
257.99939
258.00178
258.00418
258.00657
258.00897
258.01136
258.01374
258.01613
258.01851
258.02089
258.02327
258.02565
258.02803
258.0304
258.03277
258.03514
258.03751
258.03987
258.04224
258.0446
258.04696
258.04931
258.05167
258.05402
258.05638
258.05873
258.06107
258.06342
258.06576
258.0681
258.07044
258.07278
258.07511
258.07744
258.07978
258.0821
258.08443
258.08675
258.08908
258.0914
258.09372
258.09603
258.09835
258.10066
258.10297
258.10528
258.10758
258.10989
258.11219
258.11449
258.11679
258.11908
258.12138
258.12367
258.12596
258.12825
258.13053
258.13282
258.1351
258.13738
258.13966
258.14193
258.14421
258.14648
258.14875
258.15102
258.15328
258.15554
258.15781
258.16006
258.16232
258.16458
258.16683
258.16908
258.17133
258.17357
258.17582
258.17806
258.1803
258.18254
258.18478
258.18701
258.18925
258.19148
258.1937
258.19593
258.19815
258.20038
258.2026
258.20482
258.20703
258.20925
258.21146
258.21367
258.21588
258.21809
258.22029
258.2225
258.2247
258.2269
258.2291
258.23129
258.23349
258.23568
258.23787
258.24006
258.24224
258.24443
258.24661
258.24879
258.25097
258.25315
258.25532
258.2575
258.25967
258.26184
258.26401
258.26617
258.26834
258.2705
258.27266
258.27482
258.27698
258.27914
258.28129
258.28344
258.28559
258.28774
258.28988
258.29203
258.29417
258.29631
258.29845
258.30058
258.30272
258.30485
258.30698
258.30911
258.31123
258.31336
258.31548
258.3176
258.31972
258.32184
258.32395
258.32606
258.32817
258.33028
258.33239
258.33449
258.33659
258.33869
258.34079
258.34289
258.34498
258.34707
258.34916
258.35125
258.35333
258.35542
258.3575
258.35958
258.36166
258.36373
258.36581
258.36787
258.36994
258.37201
258.37407
258.37614
258.37819
258.38025
258.38231
258.38436
258.38641
258.38846
258.39051
258.39256
258.3946
258.39664
258.39868
258.40072
258.40276
258.40479
258.40682
258.40885
258.41088
258.4129
258.41493
258.41695
258.41896
258.42098
258.42299
258.425
258.42701
258.42902
258.43103
258.43303
258.43503
258.43703
258.43903
258.44102
258.44302
258.44501
258.447
258.44899
258.45097
258.45295
258.45494
258.45692
258.45889
258.46087
258.46284
258.46481
258.46677
258.46874
258.4707
258.47266
258.47462
258.47658
258.47854
258.48049
258.48245
258.4844
258.48634
258.48829
258.49023
258.49218
258.49411
258.49605
258.49799
258.49992
258.50185
258.50378
258.50571
258.50764
258.50956
258.51148
258.5134
258.51532
258.51724
258.51915
258.52106
258.52297
258.52488
258.52678
258.52869
258.53059
258.53249
258.53439
258.53628
258.53818
258.54007
258.54196
258.54385
258.54574
258.54762
258.5495
258.55138
258.55327
258.55514
258.55702
258.55889
258.56076
258.56263
258.5645
258.56636
258.56824
258.57009
258.57196
258.57381
258.57568
258.57753
258.57939
258.58124
258.58309
258.58493
258.58678
258.58863
258.59047
258.59231
258.59415
258.59599
258.59782
258.59966
258.60149
258.60333
258.60515
258.60698
258.6088
258.61063
258.61244
258.61427
258.61608
258.6179
258.61971
258.62153
258.62333
258.62514
258.62695
258.62875
258.63056
258.63235
258.63415
258.63595
258.63774
258.63953
258.64133
258.64311
258.6449
258.64669
258.64847
258.65025
258.65203
258.6538
258.65558
258.65735
258.65912
258.66089
258.66266
258.66442
258.66619
258.66795
258.66971
258.67147
258.67322
258.67498
258.67672
258.67848
258.68022
258.68197
258.68371
258.68545
258.68719
258.68893
258.69066
258.6924
258.69413
258.69586
258.69759
258.69931
258.70103
258.70275
258.70447
258.70619
258.70791
258.70962
258.71133
258.71304
258.71475
258.71646
258.71816
258.71986
258.72156
258.72326
258.72496
258.72665
258.72834
258.73003
258.73172
258.7334
258.73509
258.73677
258.73845
258.74013
258.74181
258.74348
258.74515
258.74683
258.74849
258.75016
258.75182
258.75349
258.75515
258.75681
258.75846
258.76012
258.76177
258.76343
258.76508
258.76672
258.76837
258.77001
258.77165
258.77329
258.77493
258.77657
258.7782
258.77983
258.78147
258.78309
258.78472
258.78635
258.78797
258.78959
258.79121
258.79283
258.79444
258.79606
258.79767
258.79928
258.80089
258.80249
258.8041
258.8057
258.8073
258.8089
258.8105
258.81209
258.81369
258.81528
258.81687
258.81846
258.82004
258.82163
258.82321
258.82479
258.82637
258.82795
258.82953
258.8311
258.83267
258.83424
258.83581
258.83738
258.83895
258.84051
258.84207
258.84363
258.84519
258.84675
258.8483
258.84986
258.85141
258.85296
258.85451
258.85605
258.8576
258.85914
258.86068
258.86222
258.86376
258.8653
258.86683
258.86836
258.86989
258.87142
258.87295
258.87448
258.876
258.87752
258.87904
258.88056
258.88208
258.88359
258.88511
258.88662
258.88813
258.88963
258.89114
258.89264
258.89414
258.89565
258.89714
258.89864
258.90013
258.90162
258.90312
258.9046
258.90609
258.90757
258.90905
258.91053
258.91201
258.91349
258.91495
258.91643
258.9179
258.91936
258.92083
258.92229
258.92375
258.9252
258.92666
258.92811
258.92956
258.93101
258.93245
258.9339
258.93533
258.93677
258.9382
258.93964
258.94106
258.94249
258.94392
258.94533
258.94676
258.94816
258.94958
258.95098
258.9524
258.95379
258.9552
258.95659
258.95799
258.95938
258.96077
258.96216
258.96354
258.96491
258.9663
258.96766
258.96904
258.97039
258.97177
258.97312
258.97448
258.97583
258.97718
258.97852
258.97986
258.9812
258.98254
258.98387
258.98519
258.98652
258.98784
258.98915
258.99046
258.99177
258.99308
258.99438
258.99567
258.99697
258.99825
258.99954
259.00082
259.00209
259.00337
259.00463
259.0059
259.00715
259.00841
259.00966
259.01091
259.01215
259.01338
259.01462
259.01585
259.01707
259.01829
259.0195
259.02071
259.02192
259.02312
259.02432
259.02551
259.0267
259.02788
259.02906
259.03023
259.0314
259.03256
259.03372
259.03487
259.03602
259.03717
259.0383
259.03944
259.04057
259.04169
259.04281
259.04392
259.04503
259.04613
259.04723
259.04833
259.04941
259.0505
259.05158
259.05265
259.05371
259.05478
259.05583
259.05688
259.05793
259.05897
259.06001
259.06104
259.06206
259.06308
259.0641
259.06511
259.06611
259.06711
259.0681
259.06909
259.07007
259.07105
259.07202
259.07298
259.07394
259.0749
259.07585
259.07679
259.07773
259.07867
259.07959
259.08052
259.08143
259.08235
259.08325
259.08416
259.08505
259.08594
259.08683
259.08771
259.08858
259.08945
259.09031
259.09117
259.09203
259.09287
259.09372
259.09455
259.09539
259.09621
259.09704
259.09785
259.09867
259.09947
259.10027
259.10107
259.10186
259.10265
259.10343
259.10421
259.10498
259.10574
259.1065
259.10726
259.10801
259.10876
259.1095
259.11023
259.11096
259.11169
259.11241
259.11313
259.11384
259.11455
259.11525
259.11595
259.11665
259.11734
259.11802
259.1187
259.11938
259.12005
259.12072
259.12138
259.12204
259.12269
259.12334
259.12399
259.12463
259.12526
259.1259
259.12653
259.12715
259.12777
259.12839
259.129
259.1296
259.13021
259.13081
259.1314
259.13199
259.13258
259.13317
259.13374
259.13432
259.13489
259.13546
259.13602
259.13658
259.13714
259.1377
259.13825
259.1388
259.13934
259.13988
259.14042
259.14095
259.14148
259.14201
259.14253
259.14305
259.14357
259.14408
259.14459
259.1451
259.1456
259.1461
259.14659
259.14709
259.14758
259.14807
259.14855
259.14903
259.14951
259.14999
259.15046
259.15093
259.1514
259.15187
259.15233
259.15279
259.15325
259.1537
259.15415
259.1546
259.15505
259.15549
259.15593
259.15637
259.15681
259.15725
259.15768
259.15811
259.15854
259.15896
259.15939
259.15981
259.16023
259.16064
259.16106
259.16147
259.16188
259.16228
259.16269
259.16309
259.16349
259.1639
259.1643
259.16469
259.16509
259.16549
259.16588
259.16627
259.16666
259.16705
259.16743
259.16782
259.1682
259.16858
259.16896
259.16933
259.16971
259.17009
259.17046
259.17083
259.17121
259.17158
259.17195
259.17232
259.17268
259.17305
259.17341
259.17378
259.17414
259.1745
259.17487
259.17523
259.17559
259.17594
259.1763
259.17666
259.17702
259.17737
259.17773
259.17809
259.17844
259.1788
259.17916
259.17951
259.17986
259.18022
259.18057
259.18093
259.18128
259.18163
259.18199
259.18234
259.1827
259.18305
259.18341
259.18377
259.18412
259.18448
259.18484
259.1852
259.18556
259.18591
259.18627
259.18663
259.187
259.18736
259.18772
259.18809
259.18846
259.18883
259.1892
259.18957
259.18994
259.19031
259.19068
259.19106
259.19143
259.19181
259.19219
259.19257
259.19296
259.19334
259.19373
259.19412
259.19451
259.1949
259.1953
259.1957
259.1961
259.1965
259.1969
259.19731
259.19771
259.19812
259.19854
259.19895
259.19937
259.19979
259.20021
259.20064
259.20106
259.20149
259.20193
259.20237
259.20281
259.20325
259.20369
259.20414
259.20459
259.20505
259.2055
259.20596
259.20643
259.20689
259.20736
259.20783
259.20831
259.20879
259.20927
259.20975
259.21024
259.21073
259.21123
259.21173
259.21223
259.21273
259.21324
259.21375
259.21427
259.21479
259.21531
259.21584
259.21637
259.2169
259.21744
259.21798
259.21852
259.21907
259.21962
259.22017
259.22073
259.22129
259.22186
259.22243
259.223
259.22358
259.22416
259.22474
259.22533
259.22591
259.22651
259.22711
259.22771
259.22831
259.22892
259.22954
259.23015
259.23077
259.23139
259.23202
259.23265
259.23328
259.23392
259.23456
259.23521
259.23585
259.23651
259.23716
259.23782
259.23848
259.23914
259.23981
259.24048
259.24116
259.24183
259.24252
259.2432
259.24389
259.24458
259.24527
259.24597
259.24667
259.24737
259.24808
259.24879
259.2495
259.25022
259.25094
259.25166
259.25239
259.25311
259.25384
259.25458
259.25531
259.25605
259.25679
259.25753
259.25827
259.25902
259.25977
259.26052
259.26128
259.26203
259.26279
259.26356
259.26432
259.26509
259.26585
259.26662
259.2674
259.26817
259.26895
259.26972
259.27051
259.27129
259.27207
259.27286
259.27364
259.27443
259.27522
259.27601
259.2768
259.27759
259.27839
259.27918
259.27998
259.28078
259.28158
259.28238
259.28319
259.28399
259.28479
259.2856
259.28641
259.28722
259.28802
259.28883
259.28964
259.29045
259.29126
259.29208
259.29289
259.2937
259.29451
259.29533
259.29614
259.29695
259.29777
259.29858
259.2994
259.30021
259.30103
259.30185
259.30266
259.30348
259.3043
259.30511
259.30593
259.30674
259.30756
259.30837
259.30919
259.31
259.31081
259.31163
259.31244
259.31326
259.31407
259.31488
259.31569
259.31651
259.31732
259.31813
259.31894
259.31975
259.32056
259.32136
259.32217
259.32298
259.32379
259.32459
259.3254
259.3262
259.32701
259.32781
259.32861
259.32941
259.33021
259.33101
259.33181
259.33261
259.3334
259.3342
259.33499
259.33578
259.33657
259.33736
259.33815
259.33894
259.33973
259.34052
259.3413
259.34209
259.34287
259.34365
259.34443
259.34521
259.34599
259.34677
259.34754
259.34831
259.34909
259.34986
259.35063
259.3514
259.35216
259.35293
259.3537
259.35446
259.35522
259.35598
259.35674
259.3575
259.35826
259.35901
259.35977
259.36052
259.36127
259.36202
259.36277
259.36352
259.36426
259.36501
259.36575
259.36649
259.36723
259.36797
259.36871
259.36944
259.37018
259.37091
259.37164
259.37237
259.3731
259.37383
259.37455
259.37528
259.376
259.37672
259.37744
259.37816
259.37888
259.3796
259.38031
259.38103
259.38174
259.38245
259.38315
259.38386
259.38457
259.38527
259.38597
259.38667
259.38737
259.38807
259.38877
259.38946
259.39016
259.39085
259.39154
259.39223
259.39292
259.39361
259.39429
259.39497
259.39566
259.39634
259.39702
259.3977
259.39837
259.39905
259.39972
259.4004
259.40107
259.40174
259.40241
259.40308
259.40374
259.40441
259.40507
259.40573
259.40639
259.40705
259.4077
259.40836
259.40901
259.40966
259.41032
259.41097
259.41161
259.41226
259.41291
259.41355
259.41419
259.41483
259.41547
259.41611
259.41675
259.41738
259.41802
259.41865
259.41928
259.41991
259.42054
259.42117
259.4218
259.42242
259.42304
259.42366
259.42429
259.4249
259.42552
259.42613
259.42675
259.42736
259.42797
259.42858
259.42918
259.42979
259.43039
259.431
259.4316
259.43219
259.43279
259.43339
259.43398
259.43458
259.43517
259.43576
259.43635
259.43694
259.43753
259.43811
259.43869
259.43927
259.43985
259.44043
259.441
259.44158
259.44215
259.44272
259.44329
259.44385
259.44442
259.44498
259.44555
259.44611
259.44666
259.44722
259.44778
259.44833
259.44888
259.44943
259.44998
259.45053
259.45107
259.45162
259.45216
259.4527
259.45324
259.45377
259.45431
259.45484
259.45537
259.4559
259.45643
259.45696
259.45748
259.458
259.45853
259.45904
259.45956
259.46008
259.46059
259.4611
259.46161
259.46212
259.46263
259.46313
259.46364
259.46414
259.46464
259.46513
259.46563
259.46612
259.46661
259.4671
259.46759
259.46808
259.46856
259.46905
259.46953
259.47001
259.47049
259.47096
259.47144
259.47191
259.47238
259.47285
259.47332
259.47379
259.47425
259.47471
259.47517
259.47563
259.47609
259.47654
259.47699
259.47744
259.47789
259.47834
259.47879
259.47923
259.47968
259.48012
259.48056
259.48099
259.48143
259.48186
259.48229
259.48272
259.48315
259.48358
259.48401
259.48443
259.48485
259.48527
259.48569
259.48611
259.48652
259.48694
259.48735
259.48776
259.48817
259.48857
259.48898
259.48938
259.48978
259.49018
259.49058
259.49098
259.49138
259.49177
259.49216
259.49255
259.49294
259.49333
259.49372
259.4941
259.49448
259.49487
259.49525
259.49562
259.496
259.49637
259.49675
259.49712
259.49749
259.49785
259.49822
259.49858
259.49894
259.49931
259.49966
259.50002
259.50038
259.50074
259.50109
259.50145
259.5018
259.50215
259.5025
259.50285
259.5032
259.50354
259.50389
259.50423
259.50457
259.50491
259.50524
259.50558
259.50591
259.50624
259.50657
259.5069
259.50723
259.50756
259.50788
259.5082
259.50852
259.50885
259.50916
259.50948
259.5098
259.51012
259.51043
259.51074
259.51106
259.51137
259.51167
259.51198
259.51229
259.51259
259.51289
259.5132
259.51349
259.51379
259.51409
259.51438
259.51468
259.51497
259.51526
259.51555
259.51583
259.51612
259.51641
259.51669
259.51697
259.51725
259.51753
259.51781
259.51809
259.51836
259.51864
259.51891
259.51918
259.51945
259.51972
259.51999
259.52025
259.52052
259.52078
259.52104
259.5213
259.52156
259.52181
259.52207
259.52232
259.52257
259.52282
259.52307
259.52332
259.52356
259.52381
259.52405
259.52429
259.52453
259.52477
259.525
259.52524
259.52547
259.5257
259.52593
259.52616
259.52639
259.52661
259.52684
259.52706
259.52728
259.5275
259.52771
259.52793
259.52814
259.52836
259.52857
259.52878
259.52898
259.52919
259.52939
259.5296
259.5298
259.53
259.53019
259.53039
259.53058
259.53077
259.53096
259.53115
259.53134
259.53153
259.53171
259.53189
259.53208
259.53226
259.53244
259.53261
259.53279
259.53296
259.53313
259.5333
259.53347
259.53364
259.5338
259.53396
259.53412
259.53428
259.53444
259.53459
259.53474
259.5349
259.53505
259.5352
259.53534
259.53549
259.53563
259.53578
259.53592
259.53606
259.53619
259.53633
259.53646
259.53659
259.53672
259.53685
259.53698
259.5371
259.53723
259.53735
259.53747
259.53759
259.53771
259.53783
259.53794
259.53806
259.53817
259.53828
259.53838
259.53849
259.53859
259.5387
259.5388
259.5389
259.539
259.53909
259.53919
259.53928
259.53938
259.53947
259.53956
259.53964
259.53973
259.53981
259.5399
259.53998
259.54006
259.54014
259.54021
259.54029
259.54037
259.54044
259.54051
259.54058
259.54065
259.54072
259.54078
259.54085
259.54091
259.54097
259.54103
259.54109
259.54114
259.5412
259.54125
259.54131
259.54136
259.54141
259.54146
259.54151
259.54155
259.5416
259.54164
259.54168
259.54172
259.54176
259.5418
259.54184
259.54187
259.54191
259.54194
259.54197
259.542
259.54203
259.54205
259.54208
259.5421
259.54212
259.54214
259.54216
259.54218
259.5422
259.54222
259.54223
259.54225
259.54226
259.54227
259.54228
259.54229
259.5423
259.5423
259.54231
259.54231
259.54231
259.54231
259.54231
259.54231
259.54231
259.5423
259.54229
259.54228
259.54227
259.54226
259.54225
259.54223
259.54222
259.5422
259.54219
259.54217
259.54214
259.54212
259.5421
259.54208
259.54205
259.54202
259.54199
259.54196
259.54193
259.54189
259.54186
259.54182
259.54178
259.54174
259.5417
259.54166
259.54161
259.54156
259.54151
259.54146
259.54141
259.54136
259.5413
259.54125
259.54119
259.54113
259.54107
259.54101
259.54095
259.54088
259.54081
259.54074
259.54067
259.5406
259.54053
259.54046
259.54038
259.5403
259.54022
259.54014
259.54006
259.53998
259.53989
259.5398
259.53972
259.53962
259.53953
259.53944
259.53934
259.53924
259.53914
259.53904
259.53893
259.53883
259.53872
259.5386
259.53849
259.53838
259.53826
259.53815
259.53803
259.53791
259.53778
259.53766
259.53754
259.53741
259.53728
259.53715
259.53702
259.53688
259.53675
259.5366
259.53647
259.53632
259.53618
259.53603
259.53589
259.53575
259.53559
259.53545
259.53529
259.53514
259.53498
259.53482
259.53467
259.5345
259.53434
259.53418
259.53401
259.53385
259.53367
259.5335
259.53333
259.53315
259.53298
259.53279
259.53261
259.53244
259.53225
259.53206
259.53188
259.53169
259.5315
259.53131
259.53111
259.53092
259.53072
259.53052
259.53032
259.53012
259.52992
259.52972
259.52951
259.5293
259.5291
259.52889
259.52867
259.52846
259.52825
259.52803
259.52782
259.5276
259.52738
259.52716
259.52694
259.52672
259.52649
259.52627
259.52604
259.52581
259.52558
259.52535
259.52512
259.52489
259.52465
259.52441
259.52418
259.52394
259.5237
259.52346
259.52321
259.52297
259.52272
259.52247
259.52223
259.52197
259.52172
259.52147
259.52122
259.52096
259.52071
259.52045
259.52019
259.51994
259.51968
259.51942
259.51916
259.51889
259.51863
259.51837
259.5181
259.51783
259.51756
259.51729
259.51702
259.51675
259.51648
259.5162
259.51592
259.51565
259.51537
259.5151
259.51481
259.51453
259.51426
259.51397
259.51369
259.51341
259.51312
259.51284
259.51255
259.51227
259.51198
259.5117
259.51141
259.51112
259.51082
259.51054
259.51024
259.50995
259.50965
259.50936
259.50906
259.50876
259.50846
259.50816
259.50786
259.50756
259.50725
259.50694
259.50663
259.50632
259.50601
259.50569
259.50538
259.50506
259.50475
259.50444
259.50412
259.5038
259.50348
259.50316
259.50284
259.50252
259.5022
259.50187
259.50155
259.50123
259.5009
259.50057
259.50024
259.49992
259.49959
259.49926
259.49892
259.49858
259.49824
259.49791
259.49757
259.49723
259.49688
259.49654
259.4962
259.49586
259.49551
259.49516
259.49481
259.49445
259.4941
259.49375
259.49339
259.49303
259.49265
259.49228
259.49192
259.49156
259.49119
259.49081
259.49042
259.49002
259.48962
259.48922
259.48882
259.48842
259.48799
259.48756
259.48713
259.4867
259.48628
259.48585
259.48541
259.48495
259.48446
259.48397
259.48349
259.48302
259.48255
259.48207
259.48156
259.48104
259.48052
259.48
259.4795
259.479
259.4785
259.47797
259.47741
259.47683
259.47625
259.4757
259.47518
259.47469
259.4742
259.4737
259.47319
259.47267
259.47214
259.47165
259.47119
259.47077
259.47038
259.46999
259.4696
259.46918
259.46874
259.4683
259.46788
259.4675
259.46716
259.46684
259.46655
259.46625
259.46592
259.46557
259.46519
259.46478
259.46436
259.46395
259.46356
259.46318
259.46283
259.4625
259.46217
259.46184
259.46148
259.46106
259.46059
259.46005
259.45945
259.45878
259.45808
259.45737
259.45668
259.45604
259.45548
259.455
259.45462
259.45435
259.45416
259.45403
259.45396
259.4539
259.45389
259.45396
259.45431
259.45544
259.45877
259.46835
259.49565
259.57359
259.79701
260.33166
260.99066
261.69769
262.44153
263.20981
263.99019
264.77088
265.54111
266.29126
267.01307
267.69973
268.34591
268.94775
269.5028
270.00984
270.4688
270.88057
271.24685
271.56997
271.85272
272.09823
272.30979
272.49075
272.64442
272.77402
272.88255
272.97283
273.04741
273.10859
273.15842
273.19871
273.23102
273.25673
273.27699
273.29281
273.30499
273.31426
273.32118
273.32625
273.32986
273.33233
273.33394
273.3349
273.33541
273.33561
273.33564
273.33559
273.33535
273.3345
273.33317
273.33189
273.33066
273.32948
273.32833
273.32722
273.32613
273.32507
273.32404
273.32302
273.32202
273.32103
273.32005
273.31909
273.31813
273.31718
273.31623
273.31528
273.31433
273.31337
273.31241
273.31144
273.31047
273.30948
273.30848
273.30748
273.30645
273.30542
273.30438
273.30332
273.30226
273.30118
273.3001
273.29901
273.29791
273.29681
273.29571
273.29461
273.29351
273.2924
273.29131
273.29021
273.28912
273.28804
273.28696
273.28589
273.28482
273.28377
273.28272
273.28169
273.28066
273.27964
273.27862
273.27762
273.27663
273.27564
273.27466
273.27368
273.27272
273.27175
273.2708
273.26985
273.2689
273.26796
273.26702
273.26608
273.26515
273.26422
273.26329
273.26237
273.26144
273.26052
273.2596
273.25868
273.25776
273.25685
273.25593
273.25502
273.2541
273.25319
273.25228
273.25137
273.25045
273.24954
273.24863
273.24772
273.24681
273.24589
273.24498
273.24407
273.24315
273.24224
273.24132
273.24041
273.23949
273.23858
273.23766
273.23674
273.23582
273.23491
273.23399