-1.25 	300 	1 	101354.3892626145
-1.247497497497497 	298.3951975084939 	58.8268753159188 	101371.3277590799
-1.244994994994995 	298.3924850984523 	57.10238562061689 	101359.7692266728
-1.242492492492492 	298.5018045060305 	55.42988835525306 	101371.3225711446
-1.23998998998999 	298.6000353767424 	53.78029832734132 	101368.3117770615
-1.237487487487487 	298.6782181095149 	52.17466642804999 	101370.1046753391
-1.234984984984985 	298.7679968902074 	50.59007421514069 	101372.6042047537
-1.232482482482482 	298.8347294138943 	49.04415320281147 	101366.9372614734
-1.22997997997998 	298.9169544160718 	47.52827084320609 	101373.3332339152
-1.227477477477477 	298.9727592898381 	46.04339366555756 	101360.8404049993
-1.224974974974975 	299.048937733847 	44.5906999487587 	101371.2936444122
-1.222472472472472 	299.0952771661643 	43.16641942682433 	101353.5552240447
-1.21996996996997 	299.1651764940744 	41.78340442535725 	101366.9612832007
-1.217467467467467 	299.2007026243069 	40.42092019012944 	101342.2125677307
-1.214964964964965 	299.2664435439013 	39.10239736084021 	101359.8404613395
-1.212462462462462 	299.2945176668598 	37.80138052925322 	101331.7603542152
-1.20995995995996 	299.3560105592002 	36.54671676871737 	101352.5697171129
-1.207457457457457 	299.3754059791447 	35.30439847868151 	101319.308414272
-1.204954954954955 	299.4337154848403 	34.11691549687894 	101343.8715719713
-1.202452452452452 	299.4456558017331 	32.93450440906027 	101306.6532403524
-1.19994994994995 	299.5015707221571 	31.80316653284226 	101334.7366585142
-1.197447447447447 	299.5100239824303 	30.67662682098299 	101297.7852866838
-1.194944944944945 	299.5625337656011 	29.60222808972571 	101327.4781014927
-1.192442442442442 	299.5669847226536 	28.53873474202101 	101290.2907311418
-1.18993993993994 	299.6180301326735 	27.52689642971037 	101323.4368926673
-1.187437437437437 	299.6179137189566 	26.52752524323283 	101285.0568592526
-1.184934934934935 	299.6674403983574 	25.57683937111385 	101320.9762129522
-1.182432432432432 	299.6630034038793 	24.63727588503816 	101281.2581594323
-1.17992992992993 	299.7112563112792 	23.74397070686842 	101319.6003032201
-1.177427427427427 	299.7033548499689 	22.86193909458055 	101279.1832490513
-1.174924924924925 	299.7506846968979 	22.0212797661545 	101319.8172498037
-1.172422422422422 	299.7400709000692 	21.19439042729797 	101279.2490989878
-1.16991991991992 	299.7870024849809 	20.40173065453215 	101322.2830756723
-1.167417417417417 	299.7744903096736 	19.62929822634286 	101282.2693677562
-1.164914914914915 	299.8216790058868 	18.87929034824665 	101328.0378968793
-1.162412412412412 	299.8076568336454 	18.15915374004864 	101288.7383312112
-1.15990990990991 	299.8544214925722 	17.44859578626303 	101336.1038082812
-1.157407407407407 	299.8395133904593 	16.77562953719671 	101297.9337569028
-1.154904904904904 	299.8847358769806 	16.10202381188381 	101345.2572495544
-1.152402402402403 	299.8696102471414 	15.47626690521668 	101308.8785750036
-1.1498998998999 	299.9133220558815 	14.84124207377304 	101355.9414366923
-1.147397397397397 	299.8971246676562 	14.26398087018331 	101320.2461371984
-1.144894894894895 	299.939013309744 	13.66796830346282 	101366.4636952012
-1.142392392392392 	299.921265400173 	13.13589282665881 	101330.6742669053
-1.13988988988989 	299.9612170760489 	12.57770559752192 	101375.6903266234
-1.137387387387387 	299.9422993804563 	12.08761360656411 	101340.0856754567
-1.134884884884885 	299.9804493504131 	11.56474428990546 	101383.8450412741
-1.132382382382382 	299.9604296505984 	11.11377677246328 	101348.3424895174
-1.12987987987988 	299.9962919801295 	10.62496090277441 	101390.1068329617
-1.127377377377377 	299.9745792796452 	10.20892482307834 	101353.8487543152
-1.124874874874875 	300.0077090734491 	9.753977106455888 	101392.9564872873
-1.122372372372372 	299.9844290851249 	9.368524836940511 	101355.9501272266
-1.11986986986987 	300.0152201823226 	8.94629445181593 	101392.751890318
-1.117367367367367 	299.9911127714092 	8.588346769428004 	101355.7434980973
-1.114864864864865 	300.0198031223571 	8.19727416712564 	101390.4188555677
-1.112362362362362 	299.9948772418288 	7.86380748391327 	101353.3205735167
-1.10985985985986 	300.0211725604022 	7.504137089520921 	101385.4425060398
-1.107357357357357 	299.9952657994471 	7.190636924460337 	101347.9557385693
-1.104854854854855 	300.0191368646572 	6.862696816961703 	101377.4306406383
-1.102352352352353 	299.9924281664611 	6.56625988997076 	101339.6808482154
-1.09984984984985 	300.0140989647676 	6.268443968880934 	101366.7067171036
-1.097347347347347 	299.987362044611 	5.987531201147445 	101329.5481812426
-1.094844844844845 	300.0079575470301 	5.718253220796194 	101355.3998768072
-1.092342342342342 	299.9819563082998 	5.451568578644583 	101319.6789427351
-1.08983983983984 	300.0015741526953 	5.207636977721124 	101344.4141739508
-1.087337337337337 	299.9769466248202 	4.956563310383379 	101310.8485624057
-1.084834834834835 	299.9960435017128 	4.734585449246705 	101334.9557632288
-1.082332332332332 	299.9729152709533 	4.498026833693807 	101303.6608777988
-1.07982982982983 	299.9913380791391 	4.298802344760311 	101326.9246600152
-1.077327327327327 	299.9696137089456 	4.07781411424045 	101297.763647132
-1.074824824824825 	299.9877964514495 	3.897771219832417 	101320.6611306823
-1.072322322322323 	299.96700765642 	3.690061698080099 	101293.0321263587
-1.06981981981982 	299.9844835824974 	3.529391469020834 	101315.0021282572
-1.067317317317317 	299.9652493198288 	3.33505679874778 	101289.5982758195
-1.064814814814815 	299.9832259770288 	3.187387728393948 	101312.0429149978
-1.062312312312312 	299.9655165590489 	3.008582818331122 	101288.8002157953
-1.05980980980981 	299.9831744269727 	2.87420672525536 	101310.7525515051
-1.057307307307307 	299.9666089277242 	2.70662855962142 	101289.1735063694
-1.054804804804805 	299.9846974098832 	2.5795003428236 	101311.5060783557
-1.052302302302302 	299.9714275523915 	2.434342701652538 	101294.1289408393
-1.0497997997998 	299.9920144910116 	2.307535446025873 	101319.2876695593
-1.047297297297297 	299.9793033138811 	2.178513372034921 	101302.8209815093
-1.044794794794795 	299.996305884195 	2.058776268316678 	101323.6389671194
-1.042292292292292 	299.9844851415405 	1.939134298341018 	101308.4351285996
-1.03978978978979 	300.0041700725867 	1.820426740197439 	101332.3218541741
-1.037287287287287 	299.9954200581664 	1.737798701962063 	101320.9877632926
-1.034784784784785 	300.0179285195256 	1.603960199902989 	101348.0868048045
-1.032282282282283 	300.0119292490573 	1.525302348817851 	101340.1636876266
-1.02977977977978 	300.0215404045164 	1.383555038213862 	101351.8991962613
-1.027277277277277 	300.0211015300784 	1.304479358646823 	101350.6870583648
-1.024774774774775 	300.0267698800943 	1.168084266312847 	101357.6992973939
-1.022272272272272 	300.0278477166784 	1.112802306316437 	101358.4347022607
-1.01976976976977 	300.0326864694013 	0.9874144411488216 	101364.4186615683
-1.017267267267267 	300.0334983703058 	0.9531755623968947 	101364.9616218854
-1.014764764764765 	300.0375049852657 	0.8367999263178322 	101369.915471131
-1.012262262262262 	300.0374098602393 	0.8166194780323813 	101369.4806500317
-1.00975975975976 	300.0402645570727 	0.7078631099729288 	101373.0277705275
-1.007257257257257 	300.0394465836079 	0.6963876749339502 	101371.8125475296
-1.004754754754755 	300.0411437314211 	0.5950264851077431 	101373.9523550759
-1.002252252252252 	300.0393178966078 	0.5889495780934103 	101371.6056011297
-0.9997497497497498 	300.0399264694267 	0.49683228916129 	101372.4255934044
-0.9972472472472473 	300.0371281086291 	0.4918693070081274 	101368.9760358339
-0.9947447447447449 	300.036308247327 	0.4107926435453478 	101368.0811304805
-0.9922422422422421 	300.0319097535329 	0.4037760885501323 	101362.7769615654
-0.9897397397397399 	300.0304413486031 	0.3389595578094804 	101361.0955252084
-0.9872372372372376 	300.0249792067864 	0.3268283200589249 	101354.5637500534
-0.9847347347347346 	300.022970145165 	0.2703765223739582 	101352.2245578314
-0.9822322322322323 	300.0194636566714 	0.2573393377378864 	101348.0288136801
-0.9797297297297296 	300.0192704208575 	0.219242022535743 	101347.8257641992
-0.9772272272272275 	300.0077010557989 	0.2062131873573938 	101334.1181649166
-0.9747247247247248 	300.0095707419205 	0.1950826022752885 	101336.3451056188
-0.9722222222222224 	299.998257784733 	0.1609463255287862 	101322.9515186149
-0.9697197197197196 	299.9972062446266 	0.1429645748106362 	101321.7126414465
-0.9672172172172175 	299.9949053563573 	0.09892956084473156 	101318.980661876
-0.9647147147147147 	299.9909078720056 	0.09119661659154535 	101314.2568997018
-0.9622122122122124 	299.9886211153269 	0.05150621950299863 	101311.5486532588
-0.9597097097097099 	299.9863737030531 	0.06019685234611304 	101308.8934526475
-0.9572072072072073 	299.9849321955387 	0.03976845129922771 	101307.1876881697
-0.9547047047047047 	299.9837768123011 	0.05016263991951862 	101305.8223741925
-0.9522022022022023 	299.9824845043663 	0.04900138977667159 	101304.2944083857
-0.9496996996996998 	299.9812614465325 	0.05530492340556186 	101302.8486633803
-0.9471971971971973 	299.9800894370923 	0.05810462935303421 	101301.4631761061
-0.9446946946946947 	299.9791192638132 	0.06049574426767344 	101300.3162032355
-0.9421921921921923 	299.9789754981862 	0.06098808268435012 	101300.1463025372
-0.93968968968969 	299.9800625652984 	0.05712248599976645 	101301.4309619977
-0.9371871871871872 	299.9823190441243 	0.05100174163566873 	101304.0981645691
-0.9346846846846848 	299.9855459447795 	0.04158257705000239 	101307.9123595178
-0.9321821821821823 	299.9893663776778 	0.03076332277322736 	101312.4283045595
-0.9296796796796799 	299.9933962826419 	0.019131892632934 	101317.1921445203
-0.9271771771771771 	299.9974640086495 	0.007366854497860187 	101322.0007459357
-0.9246746746746748 	300.0015224629504 	0.006605502107204895 	101326.7986017138
-0.9221721721721724 	300.0055900251544 	0.01616108762074976 	101331.607429972
-0.9196696696696698 	300.0096824525349 	0.02798676796918317 	101336.4456914166
-0.9171671671671672 	300.0137590073073 	0.03975521262231765 	101341.2655027227
-0.9146646646646649 	300.0177542747575 	0.05131505672218158 	101345.9893029968
-0.9121621621621623 	300.0216016085492 	0.06246758680867179 	101350.5383040193
-0.9096596596596597 	300.0252347984498 	0.07300148810769752 	101354.834379774
-0.9071571571571573 	300.0285852600256 	0.08269556336467727 	101358.7961487019
-0.9046546546546547 	300.0315813672922 	0.0913457640020323 	101362.3390190491
-0.9021521521521524 	300.0341955037001 	0.09890907006179273 	101365.4303536491
-0.8996496496496498 	300.0364580288849 	0.1054455572258456 	101368.1058885306
-0.8971471471471473 	300.0383674309182 	0.1109161052653378 	101370.3639128824
-0.894644644644645 	300.0398316374808 	0.1150798707083535 	101372.0955434214
-0.892142142142142 	300.0407124314622 	0.1175566586922398 	101373.1371741146
-0.8896396396396397 	300.0408929445345 	0.1180686566363923 	101373.3506690034
-0.8871371371371374 	300.0403433180543 	0.116546814858288 	101372.7007678913
-0.8846346346346349 	300.0391673629914 	0.1132396722320124 	101371.3101293359
-0.8821321321321324 	300.0375552688141 	0.1086436075411182 	101369.4038464841
-0.8796296296296297 	300.0356573031221 	0.1031419157718344 	101367.1594170049
-0.8771271271271271 	300.0334890423837 	0.09681669005432705 	101364.5953317516
-0.8746246246246248 	300.0309455289697 	0.08939554557791225 	101361.5877390974
-0.8721221221221224 	300.0279053392264 	0.08054855990907131 	101357.9927827109
-0.8696196196196196 	300.024334760574 	0.07019561224443918 	101353.7707608277
-0.8671171171171175 	300.0203190798165 	0.05857509807888356 	101349.0226634693
-0.8646146146146148 	300.0160276590377 	0.04620277794247356 	101343.9486047914
-0.8621121121121121 	300.0116360492406 	0.03354564149112185 	101338.7562950426
-0.8596096096096097 	300.0072710274292 	0.02096174846446743 	101333.5955941493
-0.857107107107107 	300.0030315319971 	0.008768869194633551 	101328.5834553411
-0.8546046046046049 	299.9990455144127 	0.005866912636735642 	101323.8711850891
-0.8521021021021022 	299.9954881510513 	0.01288952535822802 	101319.665731912
-0.8495995995995997 	299.9925205897327 	0.0214578438577257 	101316.1576115996
-0.8470970970970974 	299.9901652341169 	0.02837723932508004 	101313.3733645583
-0.8445945945945946 	299.9882391763641 	0.034105497549019 	101311.0965334044
-0.8420920920920922 	299.9864534483234 	0.03939083490635284 	101308.9856201231
-0.8395895895895897 	299.9845974931624 	0.04473058941672276 	101306.791910171
-0.8370870870870872 	299.9826746069406 	0.05016068843716194 	101304.5189328576
-0.8345845845845846 	299.9809059156316 	0.05507296843849022 	101302.4282554756
-0.8320820820820823 	299.9796204950582 	0.0585576622872757 	101300.9088775493
-0.8295795795795798 	299.9791004514704 	0.05983638899904972 	101300.294062633
-0.8270770770770772 	299.9795083600971 	0.05842034574188523 	101300.7761956216
-0.8245745745745746 	299.9808533451324 	0.05434609256355786 	101302.3658825628
-0.8220720720720721 	299.9830106503408 	0.04786026853122943 	101304.9157334223
-0.8195695695695699 	299.9857892065805 	0.03941231463318744 	101308.2001107648
-0.817067067067067 	299.9889982421636 	0.02957696133042054 	101311.9933265766
-0.8145645645645651 	299.9924675625407 	0.01871463370765656 	101316.0943731482
-0.8120620620620621 	299.9960775603177 	0.007157155497528751 	101320.3618867886
-0.8095595595595597 	299.9997463026205 	0.007122111733396385 	101324.6989253076
-0.8070570570570572 	300.0034169874242 	0.01765594671724264 	101329.0384316009
-0.8045545545545546 	300.0070562925014 	0.0308708464324704 	101333.3409759425
-0.8020520520520523 	300.0105868037253 	0.04448514074472112 	101337.5149806955
-0.7995495495495494 	300.0138492790772 	0.05829366489027626 	101341.3722894044
-0.7970470470470474 	300.016684667805 	0.07216846360083452 	101344.7246774242
-0.7945445445445446 	300.0190057278178 	0.0860443292405558 	101347.4689764632
-0.7920420420420423 	300.0207563950748 	0.1000575185553603 	101349.5390504401
-0.7895395395395397 	300.0219238682578 	0.1145428239514379 	101350.919453415
-0.7870370370370371 	300.0224585000894 	0.1296116365807365 	101351.5517239117
-0.7845345345345348 	300.0221821590223 	0.1453295514595067 	101351.2246779168
-0.7820320320320323 	300.0208347232715 	0.1613893771095101 	101349.631100932
-0.7795295295295296 	300.0182091357715 	0.1775155146417691 	101346.5269059907
-0.7770270270270272 	300.014203727835 	0.1937171630334134 	101341.7912488821
-0.7745245245245247 	300.008752235052 	0.2103269656907458 	101335.345815883
-0.7720220220220222 	300.0018862206949 	0.2280373212027076 	101327.2285226551
-0.7695195195195199 	299.9935865928373 	0.2474370266199899 	101317.4168330844
-0.767017017017017 	299.983795148344 	0.2687546365710902 	101305.842440686
-0.7645145145145147 	299.9725159827551 	0.291949789870369 	101292.5106756583
-0.7620120120120122 	299.9597097991289 	0.3169079861314169 	101277.3755153661
-0.7595095095095097 	299.9453964673164 	0.3432929307926509 	101260.4610969395
-0.7570070070070072 	299.929786538555 	0.3705439238237023 	101242.0167396318
-0.7545045045045048 	299.9131717793249 	0.398035525074141 	101222.3877059214
-0.7520020020020022 	299.8958684519912 	0.4252677709525147 	101201.9481100477
-0.7494994994994997 	299.8783287951561 	0.4514836448580596 	101181.2322931785
-0.7469969969969972 	299.8610127859135 	0.4758087993473227 	101160.7835310127
-0.7444944944944945 	299.8445718855963 	0.4980929007138492 	101141.3712504733
-0.7419919919919924 	299.8295589877918 	0.5177963128536994 	101123.647496138
-0.7394894894894897 	299.8165981173183 	0.533892052359846 	101108.3479807429
-0.7369869869869872 	299.8060943692229 	0.54571371980558 	101095.9503617337
-0.7344844844844846 	299.7982835540822 	0.5523479921000397 	101086.7319549433
-0.7319819819819822 	299.7931704120778 	0.5528468253594859 	101080.697854888
-0.7294794794794797 	299.7905711232457 	0.5464699196590826 	101077.630737893
-0.7269769769769773 	299.7903537890124 	0.5333605264084279 	101077.3727639648
-0.7244744744744747 	299.7922723749768 	0.5145216916784162 	101079.6359392741
-0.721971971971972 	299.796010384448 	0.4916272158322598 	101084.0481073319
-0.7194694694694695 	299.8012037788867 	0.4670447786665903 	101090.1794722894
-0.7169669669669674 	299.8073407292291 	0.4433752104668729 	101097.4233313148
-0.7144644644644647 	299.8137797801735 	0.4233178396167215 	101105.0228299448
-0.711961961961962 	299.8198590581718 	0.4089193490686109 	101112.1987121738
-0.7094594594594597 	299.8249979429208 	0.4017313175390048 	101118.2644582637
-0.7069569569569573 	299.8287425913655 	0.4026968816478376 	101122.684241728
-0.7044544544544545 	299.8308311126141 	0.4114565440909389 	101125.1497280703
-0.7019519519519523 	299.8313508786093 	0.4269912328554262 	101125.7635885687
-0.6994494494494495 	299.8307075662045 	0.4477259203828765 	101125.0035871768
-0.6969469469469471 	299.8295620610958 	0.4715815911098553 	101123.6509526023
-0.6944444444444446 	299.8286868979952 	0.4961321836698386 	101122.6177945655
-0.6919419419419421 	299.8287937780775 	0.5188681748199119 	101122.7432830346
-0.6894394394394396 	299.8303717022126 	0.537644056825016 	101124.6066836308
-0.6869369369369374 	299.8336526951797 	0.5512626575860025 	101128.481284993
-0.6844344344344344 	299.8386173976888 	0.5594621717608418 	101134.3429492279
-0.6819319319319321 	299.8449762445127 	0.5629370604010819 	101141.8500675514
-0.6794294294294296 	299.8521760664435 	0.563416054111195 	101150.3504841056
-0.6769269269269272 	299.8594725583276 	0.5630472815443837 	101158.9655107969
-0.6744244244244245 	299.866023993962 	0.563675268034702 	101166.7017413381
-0.6719219219219222 	299.8710664489224 	0.5666126337708481 	101172.6565636559
-0.6694194194194195 	299.8740972571503 	0.5725985596308473 	101176.2350815975
-0.6669169169169172 	299.8750621880576 	0.581339738512444 	101177.3744601955
-0.6644144144144146 	299.8742970253892 	0.5917896319883479 	101176.4725419625
-0.661911911911912 	299.8724299180103 	0.602281911971529 	101174.2680270569
-0.6594094094094097 	299.8702425169801 	0.6107760853534883 	101171.6849030812
-0.656906906906907 	299.8684124759218 	0.6155611083285256 	101169.5212686299
-0.6544044044044046 	299.8673765808488 	0.6154669304350782 	101168.2973637006
-0.6519019019019021 	299.8672219802378 	0.6103101647510392 	101168.1160683447
-0.6493993993993996 	299.8676595938603 	0.6008837105199314 	101168.6342734814
-0.6468968968968971 	299.8681220588221 	0.5885713544555883 	101169.1806567223
-0.6443943943943946 	299.8678949054489 	0.5752348077268828 	101168.9112737495
-0.6418918918918921 	299.8663341002073 	0.5624146836140639 	101167.0674451239
-0.6393893893893897 	299.8631219813973 	0.5511638263533201 	101163.2757858261
-0.6368868868868871 	299.8583546042556 	0.5418015974295036 	101157.6467418181
-0.6343843843843846 	299.8525131031566 	0.5338397765118951 	101150.7493543832
-0.6318818818818821 	299.8463866000416 	0.5262763700040072 	101143.5156309501
-0.6293793793793795 	299.8408227316034 	0.5181462969716107 	101136.9462390263
-0.6268768768768773 	299.8364276282133 	0.5086495596916635 	101131.7557491124
-0.6243743743743745 	299.8334036957658 	0.4973367353082832 	101128.1874186371
-0.6218718718718721 	299.8315288521168 	0.484653900750984 	101125.9755874971
-0.6193693693693696 	299.8302344406895 	0.4716115349110224 	101124.4467823763
-0.6168668668668671 	299.8288312049562 	0.4593943451133881 	101122.7892152345
-0.6143643643643645 	299.8268026995554 	0.4491143552377142 	101120.39289977
-0.6118618618618621 	299.8239964332851 	0.4415076679762882 	101117.0796979668
-0.6093593593593596 	299.820650370233 	0.4365364596826479 	101113.134485151
-0.6068568568568571 	299.8173076372645 	0.4335831248313873 	101109.1873000847
-0.6043543543543546 	299.8146260915369 	0.43168426212696 	101106.0214671666
-0.6018518518518521 	299.8131777965715 	0.4300519488059969 	101104.3122074857
-0.5993493493493496 	299.8132287119154 	0.4284907603890471 	101104.3690552584
-0.5968468468468471 	299.8146342088429 	0.4273398273570719 	101106.0296764283
-0.5943443443443446 	299.8169592464937 	0.4274728846931022 	101108.7757034177
-0.591841841841842 	299.8196712374908 	0.429920954966084 	101111.9781553117
-0.5893393393393397 	299.8223670025462 	0.4354015826819794 	101115.1593381276
-0.5868368368368371 	299.8249132710638 	0.444116678807711 	101118.1612054448
-0.5843343343343346 	299.8274334709995 	0.4553609426818833 	101121.1358145003
-0.5818318318318321 	299.8302040124091 	0.4677837495144211 	101124.409054145
-0.5793293293293297 	299.8334882987758 	0.4798537552284429 	101128.2883244681
-0.5768268268268271 	299.8373983515554 	0.4907634194811435 	101132.9050412965
-0.5743243243243245 	299.8418466918222 	0.5003120229591098 	101138.1536804084
-0.5718218218218221 	299.846547499001 	0.5091280945484872 	101143.7026129583
-0.5693193193193196 	299.8511359168291 	0.5183681432070267 	101149.1208661235
-0.5668168168168171 	299.855309585209 	0.5286226847399366 	101154.0518725575
-0.5643143143143147 	299.8589326382858 	0.5400203285449745 	101158.3314400211
-0.5618118118118121 	299.8620732869184 	0.5518922253249667 	101162.0359294314
-0.5593093093093094 	299.8649338128559 	0.5630808259230879 	101165.4135114857
-0.5568068068068072 	299.867718131455 	0.5724348219943279 	101168.699720922
-0.5543043043043046 	299.870481128089 	0.5793243895654322 	101171.9670074381
-0.551801801801802 	299.8731064838537 	0.5838459181558235 	101175.0671807994
-0.5492992992992995 	299.8753124540144 	0.5866559340842228 	101177.670783194
-0.5467967967967969 	299.8768055334334 	0.5885133084135973 	101179.4348322934
-0.5442942942942947 	299.8774527999873 	0.5899825037935422 	101180.1997773922
-0.5417917917917919 	299.8773403705402 	0.5911007267446444 	101180.0642116506
-0.5392892892892895 	299.8766968622238 	0.5912886912872357 	101179.3049267236
-0.536786786786787 	299.8757718445888 	0.5898611432663847 	101178.2148870372
-0.5342842842842846 	299.8746821632587 	0.5861835536731012 	101176.928749065
-0.531781781781782 	299.8733278006055 	0.5800828429696834 	101175.3270318478
-0.5292792792792794 	299.8714481648466 	0.571861592130503 	101173.1062802275
-0.526776776776777 	299.8688039240138 	0.5621702702293533 	101169.9833127817
-0.5242742742742745 	299.8653338758692 	0.5515982629305445 	101165.8875803202
-0.521771771771772 	299.8612220011389 	0.5406190491129566 	101161.0332835955
-0.5192692692692695 	299.85684056178 	0.5294149386752007 	101155.8607085391
-0.516766766766767 	299.8526108115348 	0.5178072077610469 	101150.8637051034
-0.5142642642642645 	299.8488097838433 	0.5061056440682521 	101146.3746275883
-0.511761761761762 	299.8454667626356 	0.4946413443295374 	101142.4275938434
-0.5092592592592596 	299.8423865205929 	0.4836277820510114 	101138.7945571231
-0.506756756756757 	299.8393178115846 	0.4733801090486652 	101135.1732698346
-0.5042542542542544 	299.8361186186775 	0.4639646375275896 	101131.3919158374
-0.5017517517517521 	299.8328191186288 	0.4551338192871048 	101127.4956586413
-0.4992492492492494 	299.8296106902861 	0.4465901873152522 	101123.70570264
-0.496746746746747 	299.8267156330742 	0.4381829466593916 	101120.29615641
-0.4942442442442445 	299.8243198844288 	0.4301771770532432 	101117.4643635709
-0.4917417417417421 	299.8224623503702 	0.423163503224851 	101115.2699838857
-0.4892392392392395 	299.8211085595871 	0.4178448889842928 	101113.6737044176
-0.486736736736737 	299.8202281362452 	0.4147032543269178 	101112.6344785964
-0.4842342342342345 	299.819855642474 	0.4138119430205335 	101112.192654056
-0.481731731731732 	299.8201021525908 	0.4149747238754898 	101112.483712653
-0.4792292292292296 	299.8210914598716 	0.4178449889263874 	101113.6538625831
-0.4767267267267268 	299.8228616871025 	0.4221806704454695 	101115.7442614375
-0.4742242242242246 	299.8253133512608 	0.4279181016770001 	101118.6356379311
-0.471721721721722 	299.8282410301369 	0.4351042683029887 	101122.0894874346
-0.4692192192192195 	299.8314339327754 	0.4436440456397918 	101125.8595907935
-0.4667167167167169 	299.834772675485 	0.4532405153142997 	101129.8038181854
-0.4642142142142145 	299.8382526823265 	0.4634984865279946 	101133.9119318573
-0.461711711711712 	299.8419148990757 	0.4739768748496268 	101138.2374587199
-0.4592092092092094 	299.8457902190325 	0.4844034083829484 	101142.8089390718
-0.456706706706707 	299.8498246428892 	0.4949962277543287 	101147.573008035
-0.4542042042042045 	299.8539100872123 	0.5058687439937873 	101152.3950272489
-0.451701701701702 	299.8579099466826 	0.5168869479819304 	101157.1239072636
-0.4491991991991995 	299.86176151302 	0.5279042556254878 	101161.6716027365
-0.4466966966966969 	299.8654428907233 	0.5385308955469543 	101166.0152095574
-0.4441941941941945 	299.8689191813197 	0.5482662479642183 	101170.1184515518
-0.441691691691692 	299.8721044093454 	0.5567132383745578 	101173.8791491681
-0.4391891891891895 	299.874872540053 	0.5637736873185578 	101177.1569850178
-0.436686686686687 	299.8771481764628 	0.5695452781609071 	101179.8381370613
-0.4341841841841846 	299.8788836152341 	0.5741404053795786 	101181.8870071516
-0.431681681681682 	299.8801290589483 	0.5776163420963984 	101183.3613397902
-0.4291791791791794 	299.8809896980414 	0.579901517407139 	101184.375798635
-0.426676676676677 	299.8815284169868 	0.5809360586824682 	101185.0108085288
-0.4241741741741744 	299.88171189539 	0.5806563262009228 	101185.2280264407
-0.421671671671672 	299.8814102916459 	0.5789245953734163 	101184.8742560606
-0.4191691691691694 	299.8804737956154 	0.5755731449200709 	101183.7683734001
-0.4166666666666669 	299.8788127948476 	0.5704069647831986 	101181.8044812133
-0.4141641641641645 	299.8764438353824 	0.5633157355343459 	101179.004431442
-0.411661661661662 	299.8734750762745 	0.5543917594306481 	101175.5008546487
-0.4091591591591594 	299.8700732846526 	0.5439140862823579 	101171.4850556707
-0.406656656656657 	299.8664122888345 	0.5325918300044232 	101167.1616196878
-0.4041541541541545 	299.8626450955272 	0.5211363077711858 	101162.7149209653
-0.401651651651652 	299.8588997723035 	0.5098089113363036 	101158.2889574054
-0.3991491491491494 	299.8552497345746 	0.4989196255169328 	101153.9785439643
-0.396646646646647 	299.8517277461339 	0.4883741173898539 	101149.8193556334
-0.3941441441441444 	299.8483075157895 	0.4779109329071127 	101145.788663171
-0.3916416416416419 	299.844958856249 	0.4675197531803353 	101141.8309201796
-0.3891391391391395 	299.8416339274348 	0.4572680580762553 	101137.9029412868
-0.3866366366366368 	299.8383482334889 	0.4473186205093839 	101134.0227430055
-0.3841341341341344 	299.8351832031925 	0.4378030406575664 	101130.2865368325
-0.381631631631632 	299.8322549110528 	0.4289620254817169 	101126.8359378399
-0.3791291291291294 	299.8296943017231 	0.4210291862458968 	101123.8069131308
-0.3766266266266269 	299.8275738026646 	0.4142803775660744 	101121.3041627377
-0.3741241241241244 	299.825966387931 	0.4090602323565314 	101119.4092291127
-0.371621621621622 	299.8249433739204 	0.4056081347523406 	101118.1991498757
-0.3691191191191194 	299.8245654910974 	0.40410986976147 	101117.7524779228
-0.366616616616617 	299.8248837385615 	0.4046081787881129 	101118.1292592615
-0.3641141141141143 	299.8259038253052 	0.407012038252957 	101119.3353898401
-0.3616116116116119 	299.8275709662426 	0.4112124999013174 	101121.3019000774
-0.3591091091091095 	299.8297748864628 	0.4169823076451407 	101123.9027073038
-0.356606606606607 	299.8323999244267 	0.424047319909737 	101126.9988579304
-0.3541041041041044 	299.8353476410093 	0.4321442293429265 	101130.4811132811
-0.3516016016016019 	299.8385649279317 	0.4409716107134578 	101134.2793697188
-0.3490990990990994 	299.8420009790767 	0.450316615676994 	101138.3396349331
-0.346596596596597 	299.8456178654829 	0.4602408920918636 	101142.6071930672
-0.3440940940940944 	299.8493732835233 	0.4705776484335106 	101147.0400056328
-0.3415915915915919 	299.8532544835612 	0.4813205926911434 	101151.6211638782
-0.3390890890890895 	299.8572431120039 	0.4924664626419711 	101156.3324152628
-0.3365865865865869 	299.8612833572474 	0.5036684219322844 	101161.1099249064
-0.3340840840840844 	299.8652857349944 	0.5146651836690204 	101165.8296184046
-0.3315815815815819 	299.869100838951 	0.5251388192047888 	101170.3343175357
-0.3290790790790794 	299.8726097379727 	0.5347755789207304 	101174.4775524744
-0.3265765765765769 	299.8757232937334 	0.5432994565443275 	101178.156446933
-0.3240740740740744 	299.8784072284953 	0.5506243558788185 	101181.3280172182
-0.3215715715715718 	299.8806793903203 	0.5567028394831876 	101184.0085178292
-0.3190690690690695 	299.88257261435 	0.5616650618278644 	101186.2454815881
-0.3165665665665668 	299.8841198415379 	0.5656246833366966 	101188.0736117974
-0.3140640640640644 	299.8853186389958 	0.5685577267862452 	101189.4877138105
-0.311561561561562 	299.8861231076075 	0.5703970976231837 	101190.4383521741
-0.3090590590590593 	299.8864602933554 	0.5708389801301361 	101190.8370369774
-0.3065565565565568 	299.886233353973 	0.5696354082030274 	101190.5707945846
-0.3040540540540545 	299.8853548991237 	0.566546737444281 	101189.5304770427
-0.3015515515515518 	299.8837656884583 	0.5614046289380608 	101187.6550899126
-0.2990490490490494 	299.8814992922826 	0.5544023320471543 	101184.9752878141
-0.2965465465465469 	299.8786619555249 	0.5457700831174773 	101181.626878146
-0.2940440440440444 	299.8754318053757 	0.5359397192179676 	101177.8107450391
-0.2915415415415418 	299.8719671091895 	0.5253814917207575 	101173.7257545404
-0.2890390390390395 	299.868410918196 	0.5146207039874056 	101169.5203220994
-0.2865365365365368 	299.864819642606 	0.5037379765883772 	101165.2792260573
-0.2840340340340343 	299.8612302578554 	0.4928086414053571 	101161.0389926765
-0.2815315315315318 	299.8576484772135 	0.4820338020626778 	101156.8147197853
-0.2790290290290295 	299.8540930838029 	0.4712153978397888 	101152.6183918096