/*--------------------------------*- C++ -*----------------------------------*\
  =========                 |
  \\      /  F ield         | OpenFOAM: The Open Source CFD Toolbox
   \\    /   O peration     | Website:  https://openfoam.org
    \\  /    A nd           | Version:  7
     \\/     M anipulation  |
\*---------------------------------------------------------------------------*/
FoamFile
{
    version     2.0;
    format      ascii;
    class       volScalarField;
    location    "0.00341";
    object      Uy;
}
// * * * * * * * * * * * * * * * * * * * * * * * * * * * * * * * * * * * * * //

dimensions      [0 1 -1 0 0 0 0];

internalField   nonuniform List<scalar> 
5000
(
8.5302462e-22
1.1590762e-21
0
0
-5.6072193e-22
6.0975504e-37
4.8652894e-22
0
0
-5.5179682e-22
-1.123667e-21
5.6427615e-22
5.6422919e-22
-5.6336808e-22
0
-5.6120154e-22
-1.9815072e-51
5.5637946e-22
0
5.5089188e-22
-5.479552e-22
-5.4507002e-22
1.0836977e-21
-5.3822783e-22
-5.3762669e-22
-4.4623926e-36
5.4624471e-22
5.496389e-22
-1.1023894e-21
9.5625937e-36
-9.641307e-36
5.5165887e-22
1.1022652e-21
-1.0983244e-21
9.4658188e-36
-4.7197571e-35
-1.8733101e-35
1.076611e-21
-1.0724306e-21
-1.0703115e-21
1.072338e-21
-3.7042861e-35
-1.0825513e-21
5.437838e-22
1.6331386e-21
-5.426961e-22
-5.3966866e-22
-3.6700788e-35
-1.0650581e-21
0
5.2621695e-22
7.4801117e-38
-5.2962717e-22
1.0674603e-21
-1.8754795e-35
-1.0749226e-21
5.3558223e-22
-1.8327627e-35
-5.2573935e-22
0
5.167265e-22
1.7634504e-35
1.4833351e-37
5.2717308e-22
-5.3086598e-22
1.8547931e-35
5.2627191e-22
-5.2153816e-22
-5.1725261e-22
5.1391592e-22
5.1415599e-22
-5.1788415e-22
-5.2170764e-22
1.0471871e-21
5.2257099e-22
-5.1962811e-22
0
5.1483992e-22
-7.2926497e-38
-5.1345053e-22
5.1516213e-22
-1.4687456e-37
1.4691692e-37
5.1545901e-22
5.1347115e-22
1.7823921e-35
-5.1059144e-22
0
-5.0981834e-22
-5.2960469e-35
-1.7860361e-35
5.1034891e-22
5.0920758e-22
-1.0163465e-21
-3.5107046e-35
5.0653338e-22
0
0
-5.0567557e-22
-3.5020185e-35
1.0083875e-21
-5.0347626e-22
-1.0057137e-21
0
5.0198948e-22
5.0140565e-22
-5.0073774e-22
-5.0003819e-22
0
0
4.9867027e-22
4.9829112e-22
0
-4.9692941e-22
1.7347812e-35
4.9562862e-22
-4.9524472e-22
1.4070973e-37
-1.7298518e-35
-3.2901524e-53
9.8732906e-22
-2.102077e-37
-4.9254105e-22
0
-4.9207381e-22
4.9180956e-22
4.9129515e-22
-9.8141428e-22
-4.902122e-22
9.7957972e-22
4.8943775e-22
-4.8902034e-22
-4.8846939e-22
-4.87949e-22
0
4.8705823e-22
4.8679969e-22
-4.8667775e-22
-1.6871829e-35
4.8633258e-22
-4.8596001e-22
-4.8560793e-22
0
4.8499932e-22
4.8471205e-22
-4.8440857e-22
4.8412662e-22
-2.7509763e-37
-4.8387023e-22
4.8375605e-22
-4.8349706e-22
3.3642651e-35
4.8283231e-22
-4.8258125e-22
4.8238594e-22
4.8229108e-22
-4.8226315e-22
0
0
-4.8212972e-22
-4.8209139e-22
4.8204706e-22
4.8194065e-22
-4.8176026e-22
-3.3391983e-35
4.8117878e-22
-4.8077305e-22
-4.803926e-22
0
4.7986893e-22
4.7790594e-22
0
-4.8071132e-22
-4.8139595e-22
0
4.8477237e-22
1.0129226e-34
-4.8842916e-22
4.8919457e-22
4.8857629e-22
-4.8592215e-22
-3.3216355e-35
3.2583598e-35
1.9816342e-37
4.5530596e-22
-4.4689131e-22
-6.1258445e-35
3.0347716e-35
-3.095484e-35
4.7017877e-22
0
0
-5.6591065e-22
-7.2140383e-22
0
0
7.1833608e-22
5.621607e-51
-4.6744571e-22
0
4.8281861e-22
-4.6707638e-22
-1.2716657e-34
9.254511e-22
-4.6618019e-22
-9.7054956e-35
-6.6917097e-38
-4.7664538e-22
4.8146931e-22
-6.8704418e-38
-6.7003466e-35
3.3509937e-35
-4.8411978e-22
0
4.8622741e-22
3.3709451e-35
1.3500945e-34
4.851201e-22
0
-4.832222e-22
-4.8442739e-22
0
0
0
4.8337338e-22
3.3384768e-35
-4.8345682e-22
0
0
4.8683929e-22
4.8494381e-22
-4.8290001e-22
-4.815647e-22
0
4.8626519e-22
4.883917e-22
-4.878617e-22
-4.8617055e-22
0
4.8257593e-22
-1.3412459e-34
-3.3679426e-35
4.8854549e-22
-4.8935676e-22
-4.8784979e-22
0
4.8461953e-22
-6.7207159e-35
4.8441898e-22
6.7520358e-35
-9.7726787e-22
4.8853046e-22
-6.7574422e-35
-1.6867659e-34
-3.354367e-35
-4.8428426e-22
4.8552153e-22
4.87044e-22
0
-4.8744689e-22
-4.8661707e-22
0
4.8616715e-22
4.8621283e-22
-9.7157686e-22
-4.8504467e-22
4.8345809e-22
4.8207738e-22
1.3382008e-34
-4.8469734e-22
4.8640671e-22
-3.3688227e-35
-4.8348102e-22
4.8094254e-22
-3.3261695e-35
3.3286967e-35
-1.3652003e-37
-3.3389172e-35
4.849454e-22
0
0
-4.8002137e-22
-4.7862028e-22
0
0
0
0
4.8152999e-22
3.3067083e-35
-9.555663e-22
2.0286858e-37
4.7423325e-22
4.742161e-22
-6.6089751e-35
-6.6202668e-35
-6.7887692e-38
-4.7574543e-22
-4.7372774e-22
-4.7166429e-22
9.4052227e-22
1.4139843e-21
-4.7361571e-22
-9.491486e-22
0
4.7110161e-22
4.6927472e-22
-4.6793591e-22
1.3306832e-37
-2.001325e-37
1.3361349e-37
4.6923634e-22
4.678255e-22
-4.6647881e-22
-9.3099288e-22
4.658347e-22
3.7834122e-53
4.6562683e-22
1.2872806e-34
-9.2623652e-22
0
0
9.2469262e-22
-2.5667863e-34
-9.2254202e-22
0
4.5835716e-22
4.5805844e-22
-4.5868575e-22
6.5225115e-38
-6.3569592e-35
6.4818676e-38
4.5432723e-22
-4.5323775e-22
-4.5422597e-22
0
4.5454445e-22
-6.2916053e-35
-4.508674e-22
8.9812782e-22
-1.246262e-34
-4.5143571e-22
-1.2566683e-34
-9.0107909e-22
8.9542633e-22
4.4470537e-22
-4.4260487e-22
-6.3092107e-38
-4.4769888e-22
0
0
4.4445924e-22
-6.1147059e-35
-8.7610953e-22
6.227336e-38
1.3242854e-21
-4.4494687e-22
-4.4612667e-22
8.8857887e-22
-4.4145139e-22
4.3910261e-22
8.7402493e-22
-4.363623e-22
-4.3809423e-22
-4.4093108e-22
4.4243684e-22
2.4308648e-52
-4.3895746e-22
4.3658427e-22
-4.3431444e-22
4.3353377e-22
1.2072255e-34
1.2476588e-37
4.4025542e-22
-8.7646491e-22
4.3561286e-22
1.2023457e-34
-1.1961765e-34
-4.3241791e-22
-8.7163839e-22
1.3141921e-21
1.2137181e-34
-2.4155797e-34
1.1997693e-34
-8.6178148e-22
8.6146884e-22
-1.2020153e-34
-8.7264681e-22
0
0
4.3419992e-22
-5.998347e-35
-4.313967e-22
-4.3284298e-22
4.3565215e-22
1.3112583e-21
-4.3595368e-22
-4.3429914e-22
-1.2294989e-37
-4.3148759e-22
0
8.7204257e-22
8.7558228e-22
-4.3678284e-22
-8.7016242e-22
-4.3324061e-22
8.6412236e-22
8.6656202e-22
-8.7287131e-22
-8.7678622e-22
0
8.7359416e-22
-4.351284e-22
-8.6812057e-22
4.3507186e-22
4.3795552e-22
-6.2508325e-38
6.1031326e-35
4.3857929e-22
-4.3713253e-22
-4.3625315e-22
4.3747179e-22
-6.1076331e-35
-6.2863559e-38
-6.1272038e-35
-4.4040074e-22
4.38977e-22
-1.8249321e-34
-6.1049751e-35
-1.2291791e-34
-4.4489154e-22
4.4416594e-22
-6.1469825e-35
-1.2234081e-34
-6.258594e-38
-8.8421378e-22
-4.4546438e-22
4.4758242e-22
8.9373432e-22
-6.1842096e-35
-8.8787773e-22
-4.4307964e-22
8.8946184e-22
4.4816028e-22
-4.5038067e-22
-4.4966713e-22
-1.2438136e-34
4.4662253e-22
0
0
4.5072106e-22
0
-4.522292e-22
4.5091202e-22
6.3831595e-38
-1.2435768e-34
0
-4.5266834e-22
4.5505199e-22
4.5519521e-22
-9.0819838e-22
-4.524856e-22
4.5127619e-22
0
0
-4.5701327e-22
1.2713198e-34
4.5671356e-22
0
0
-4.5422449e-22
1.9022903e-34
4.5908185e-22
0
0
0
0
0
0
0
0
9.2283885e-22
2.559794e-34
-4.6117593e-22
4.613056e-22
-4.6155776e-22
4.6154633e-22
-1.2809682e-34
-4.6013139e-22
-1.2785185e-34
-4.6223727e-22
0
0
4.6178351e-22
1.27766e-34
-4.5895531e-22
0
0
0
0
0
0
0
9.1961003e-22
-3.851798e-34
-9.2970387e-22
4.6477875e-22
6.5837048e-38
4.6148358e-22
-2.5504045e-34
-9.1958672e-22
-4.6186387e-22
8.2826721e-54
1.3960565e-21
0
-9.256715e-22
0
0
9.230224e-22
-1.2857284e-34
-1.3943184e-21
4.6428616e-22
4.6325505e-22
-4.6233052e-22
4.6172569e-22
-4.6231801e-22
-1.2850885e-34
4.6373359e-22
-4.634749e-22
0
-4.6205016e-22
4.6220299e-22
9.2569848e-22
-4.6328131e-22
-4.6292893e-22
-4.6198068e-22
-4.6107442e-22
9.2180832e-22
4.621207e-22
-4.6304718e-22
0
4.6201733e-22
-4.608204e-22
-4.5997223e-22
1.3811643e-21
1.3121667e-37
-9.2536844e-22
4.6247446e-22
6.4093395e-35
4.6087772e-22
-1.3091643e-37
-9.2249477e-22
4.6201057e-22
0
-1.2801879e-34
-6.5393449e-38
-4.5993615e-22
4.6112076e-22
-1.2828876e-34
-6.4017696e-35
-6.5465333e-38
-4.593026e-22
4.5832142e-22
-6.0830902e-53
-1.2806523e-34
-6.5715455e-38
-9.2313955e-22
-6.3823164e-35
4.5866045e-22
0
0
-4.6129721e-22
-1.9245483e-34
4.6161658e-22
-4.6024444e-22
6.3700614e-35
-3.0157348e-52
-6.3740213e-35
4.6150494e-22
4.6277139e-22
6.4063122e-35
-4.6055066e-22
0
0
4.5929948e-22
-4.617908e-22
3.856667e-34
4.6244962e-22
-4.6102123e-22
0
4.5865419e-22
4.5940854e-22
-4.6168155e-22
-4.6327615e-22
0
4.6213014e-22
4.609917e-22
-9.2028719e-22
-4.6027498e-22
4.616422e-22
4.6315169e-22
6.4328748e-35
4.6358238e-22
1.2862311e-34
-9.2612706e-22
0
0
0
4.6295572e-22
4.6324492e-22
0
-4.6375333e-22
-6.4193635e-35
4.6265406e-22
0
0
-4.6244109e-22
-6.4279116e-35
6.4269965e-35
-4.6365819e-22
4.6296405e-22
-1.9242977e-34
-4.6279816e-22
0
-4.6315098e-22
-6.424022e-35
4.6160842e-22
-4.6072671e-22
4.6100615e-22
4.6212165e-22
-4.630237e-22
0
4.6164484e-22
4.6063693e-22
-4.6037624e-22
-4.6113599e-22
0
-4.6070811e-22
4.591242e-22
4.5742946e-22
-4.566563e-22
-9.1640287e-22
2.5539098e-34
1.3798081e-21
9.3637804e-53
-4.5696924e-22
-9.112083e-22
2.5256783e-34
9.1252976e-22
-4.5735756e-22
4.5769453e-22
-4.5738028e-22
-4.5684231e-22
9.1272991e-22
0
0
-9.1083583e-22
-2.1414295e-52
9.0880634e-22
0
0
-9.0488504e-22
-2.914493e-52
9.0191244e-22
0
0
-8.9751873e-22
-4.4805496e-22
8.949043e-22
4.4698839e-22
0
-8.9105466e-22
2.4671571e-34
8.8513876e-22
-4.4068867e-22
0
4.3733764e-22
-4.3576288e-22
6.1696315e-38
4.333165e-22
-4.3336651e-22
4.3382707e-22
4.3421811e-22
-4.3412385e-22
-4.3346801e-22
1.2001864e-34
4.3040682e-22
-4.2835857e-22
-1.183791e-34
4.2452784e-22
-4.2288285e-22
4.2126008e-22
4.2009478e-22
-4.1961517e-22
-4.1949356e-22
1.1641945e-34
4.1833963e-22
-4.1672157e-22
5.895267e-38
4.1291897e-22
-4.111427e-22
4.0958914e-22
4.0818178e-22
-4.0699825e-22
-8.1202063e-22
2.2500222e-34
8.0738655e-22
-4.0238564e-22
5.6997808e-38
7.9956403e-22
1.1325139e-37
-3.9714574e-22
0
3.9448437e-22
0
-3.9180113e-22
0
0
0
-3.8636077e-22
-6.6391113e-53
3.836031e-22
0
3.8082217e-22
-1.0535841e-34
-3.7801959e-22
0
0
0
-3.7233563e-22
1.0298854e-34
3.6942914e-22
0
3.6650172e-22
1.0131913e-34
-3.6365612e-22
0
3.6090914e-22
-3.5953721e-22
1.9899854e-34
3.5671812e-22
-3.5528806e-22
0
-3.524728e-22
-9.7497457e-35
3.4980608e-22
0
3.4738452e-22
-3.4624162e-22
-1.9165715e-34
3.4396979e-22
-1.9035787e-34
-4.8567039e-38
9.4651566e-35
-4.8266154e-38
-3.3861488e-22
0
3.3662438e-22
-9.315898e-35
-9.2898079e-35
4.3630084e-53
-9.244252e-35
0
-6.6238357e-22
-9.1736663e-35
3.2956838e-22
-3.2879269e-22
9.1043932e-35
3.2731497e-22
3.2661354e-22
9.0506188e-35
-9.0325304e-35
3.2465923e-22
-3.240583e-22
-3.2348345e-22
0
-3.2241275e-22
8.9389795e-35
3.2144731e-22
0
0
0
-6.3967026e-22
3.5487741e-34
6.3838321e-22
0
0
0
0
0
0
0
-6.3535391e-22
1.7646819e-34
6.3504873e-22
3.1746764e-22
-3.1741706e-22
-3.1737172e-22
8.8161711e-35
1.7603569e-34
3.1729384e-22
-3.1733572e-22
3.1746311e-22
3.1766386e-22
-3.1793342e-22
-3.1827508e-22
1.768717e-34
3.1903196e-22
3.1945211e-22
-8.8740014e-35
-3.2038188e-22
-3.2088794e-22
3.2142202e-22
3.2198244e-22
-3.2256918e-22
3.2318189e-22
0
-3.2448178e-22
-3.2516759e-22
9.039659e-35
3.2660588e-22
-3.2735713e-22
3.2812799e-22
3.289172e-22
-3.2972351e-22
3.3054542e-22
9.2018003e-35
-3.3222938e-22
-3.3308926e-22
-4.7458033e-38
6.6965993e-22
1.8639357e-34
-3.3661956e-22
-3.3755849e-22
0
3.3955885e-22
0
0
0
3.4382111e-22
3.4492991e-22
-3.4605258e-22
-3.4718832e-22
0
3.4949305e-22
-9.7421312e-35
-3.5183722e-22
0
0
3.554112e-22
-1.9794844e-34
-3.5782381e-22
0
0
3.6147527e-22
-2.0132487e-34
-3.6392214e-22
0
3.6637359e-22
-1.0207488e-34
1.0236252e-34
-1.0275463e-34
-3.7126767e-22
0
-3.737008e-22
2.0805113e-34
3.7611786e-22
0
3.7851375e-22
-3.7970211e-22
-3.8088336e-22
7.6411398e-22
1.0652207e-34
-7.6875747e-22
1.0705299e-34
3.8666405e-22
0
0
3.9001618e-22
-1.0854849e-34
-3.9219697e-22
0
3.9433347e-22
-3.9538395e-22
-3.9642266e-22
3.9744927e-22
0
-3.994638e-22
4.0045135e-22
2.2282132e-34
-2.2335382e-34
4.0332886e-22
-3.3664837e-34
4.0517125e-22
-4.0606759e-22
1.1294315e-34
-2.2648029e-34
-8.1730099e-22
1.1358634e-34
4.1027731e-22
0
0
0
-8.2656569e-22
-4.1397942e-22
8.2930658e-22
4.1530427e-22
0
0
4.1711626e-22
-2.5881567e-53
-4.1820599e-22
0
-8.3840467e-22
-4.1966539e-22
8.4021101e-22
4.2052258e-22
0
-8.4257561e-22
-1.1983617e-37
1.2658837e-21
-1.171341e-34
-8.4508399e-22
4.2279727e-22
2.4046417e-37
-4.2323685e-22
1.1763558e-34
2.3499845e-34
4.237141e-22
0
4.2390981e-22
-2.3539602e-34
-8.4801141e-22
4.2401586e-22
-7.0593785e-34
-4.2396123e-22
8.477939e-22
-6.0226701e-38
-4.2369436e-22
0
0
0
-4.2301663e-22
4.2279047e-22
8.450823e-22
-4.2226857e-22
-1.1717335e-34
-1.1696481e-34
-4.2131049e-22
0
4.2055595e-22
-5.9706045e-38
-8.3941757e-22
4.1925095e-22
2.3233046e-34
-4.1826788e-22
-4.1774312e-22
2.3181275e-34
8.3325452e-22
0
4.1542477e-22
4.1479157e-22
0
-4.134619e-22
-4.1276642e-22
4.1205063e-22
0
-4.1055958e-22
0
0
4.081791e-22
-3.3922235e-34
-4.0650091e-22
0
0
4.0385341e-22
4.029384e-22
-4.0200784e-22
-4.010619e-22
4.0010133e-22
3.9912667e-22
-7.9627628e-22
-3.9713666e-22
1.1005163e-34
3.950958e-22
-2.1861977e-34
-2.1803747e-34
3.9194701e-22
-3.9087568e-22
3.8979458e-22
-3.8870393e-22
-3.30491e-37
3.864952e-22
-7.7075642e-22
-3.8425339e-22
-3.8312107e-22
7.6396345e-22
7.6167138e-22
-3.7968329e-22
3.7852522e-22
-3.7736175e-22
2.0892277e-34
7.5004059e-22
-3.7384344e-22
1.0342819e-34
-1.0320529e-34
-3.7029355e-22
0
0
3.6672386e-22
3.6553189e-22
0
-3.6314758e-22
-3.619562e-22
0
-3.5957707e-22
9.951797e-35
3.5720722e-22
-3.5602702e-22
9.8434096e-35
3.5367796e-22
0
3.5134665e-22
1.9443139e-34
-3.4903768e-22
3.4789246e-22
-9.6138881e-35
-3.4562285e-22
-3.4449921e-22
-9.5302031e-35
3.4227656e-22
0
-3.4008894e-22
3.3900913e-22
-9.6048115e-38
1.8708961e-34
3.3583088e-22
-3.3479247e-22
0
-6.6549902e-22
7.3657641e-34
3.3075388e-22
1.8304974e-34
6.576141e-22
-6.5570548e-22
-6.5382353e-22
6.5196857e-22
6.5014059e-22
3.2417013e-22
0
-3.2241216e-22
-6.431098e-22
4.5575947e-38
-3.1988475e-22
3.1907224e-22
3.1827479e-22
-3.1749299e-22
6.3345347e-22
-6.3195206e-22
-5.2503813e-34
6.2904476e-22
-6.2763856e-22
1.7381223e-34
-3.124615e-22
3.1180687e-22
3.1116833e-22
-3.1054624e-22
-8.5976209e-35
-6.1870154e-22
6.1755496e-22
6.164411e-22
-6.153593e-22
-8.5247121e-35
-3.0664611e-22
1.7002551e-34
3.0567674e-22
8.4708854e-35
8.4162378e-53
3.043406e-22
6.0785277e-22
-3.0352728e-22
-1.6293467e-52
-3.0277436e-22
-5.0376997e-34
3.020806e-22
-6.0351143e-22
1.6732489e-34
6.0229706e-22
1.3316701e-53
-3.0059603e-22
0
0
-2.9986777e-22
2.9965063e-22
5.98892e-22
0
0
0
-2.9874722e-22
-2.9860111e-22
0
2.983411e-22
-2.9822694e-22
-4.9652719e-34
5.9605662e-22
0
0
0
-2.9774316e-22
-2.9769377e-22
2.9765297e-22
-2.9761982e-22
-1.6527194e-34
5.9515167e-22
0
0
-5.951262e-22
8.4575082e-38
2.9758734e-22
-2.9760855e-22
2.9763522e-22
-2.9766755e-22
1.6533379e-34
5.9549704e-22
0
0
-2.9790694e-22
-2.9796853e-22
0
0
2.9817937e-22
2.9825764e-22
0
-2.984248e-22
-2.9851387e-22
2.9860644e-22
-2.9870219e-22
-2.9880103e-22
2.9890283e-22
2.9900771e-22
-1.6611669e-34
-2.9922524e-22
2.9933799e-22
8.3109575e-35
-2.995702e-22
0
-2.9981148e-22
1.665293e-34
3.000601e-22
-3.0018711e-22
1.6674052e-34
3.00445e-22
0
-3.007082e-22
8.3537554e-35
4.2770985e-38
-3.0110697e-22
3.0123965e-22
3.0137211e-22
0
-6.0326807e-22
3.3517454e-34
3.0189077e-22
4.2919044e-38
6.0427716e-22
-6.0451718e-22
-6.0474987e-22
6.0497521e-22
3.0259609e-22
0
-6.0559408e-22
5.0429324e-34
6.0594895e-22
0
-6.0624879e-22
-1.6837842e-34
3.0324277e-22
8.4217403e-35
6.0665417e-22
-6.0670922e-22
-7.5773083e-34
6.0675317e-22
-6.0673741e-22
1.6833756e-34
6.0662147e-22
3.0325827e-22
-6.0637761e-22
-3.0310153e-22
6.0599006e-22
-6.0573594e-22
-7.5610118e-34
6.0509351e-22
-6.0469948e-22
8.3894561e-35
-3.0187577e-22
3.3464531e-34
9.0385144e-22
-1.6704375e-34
-6.0111522e-22
3.0013848e-22
5.9935818e-22
-2.9917791e-22
1.6580589e-34
-2.9803911e-22
-3.3032432e-34
2.9670092e-22
-5.9189892e-22
2.4577862e-34
-3.2672171e-34
1.6273552e-34
2.9231871e-22
0
2.9007695e-22
2.88835e-22
0
0
0
0
0
-2.7938534e-22
-2.774262e-22
0
2.731229e-22
-2.7076492e-22
-4.4686496e-34
5.3119394e-22
0
0
0
-2.5321448e-22
-2.4963862e-22
2.4584983e-22
2.4183687e-22
-4.7517649e-22
-3.8834994e-34
4.5666914e-22
0
-4.3596224e-22
-3.5373868e-34
2.0640374e-22
-2.0010859e-22
1.9344196e-22
-1.8636863e-22
-9.9268917e-35
3.4155031e-22
0
0
-1.4265987e-22
-1.365175e-22
0
-1.2878016e-22
-3.4879528e-38
-1.2076704e-22
1.2005825e-22
3.6739102e-22
0
2.6316388e-22
2.7043503e-22
0
-3.8353135e-22
-2.5753401e-22
2.6002666e-22
-1.2920217e-22
-1.2774827e-22
3.8344707e-22
1.3060015e-22
1.8430028e-38
1.2782133e-22
-1.2220838e-22
-1.2169333e-22
-1.1961354e-22
-4.0333989e-52
-1.0420747e-22
-9.6703804e-23
9.1756712e-23
0
1.8180855e-22
1.7563793e-22
0
-7.9769825e-23
-1.4668667e-22
-3.4454215e-35
-5.5871665e-23
-1.0783827e-22
9.7991202e-23
7.145315e-23
1.5671899e-23
-3.0373791e-24
0
2.5105639e-23
1.197315e-22
-6.3289175e-23
1.0113389e-49
3.2320485e-22
-2.439851e-22
-1.4160908e-22
-1.6824292e-22
-3.8289079e-22
4.2321408e-22
2.4037137e-22
-2.7652176e-22
-3.0535003e-22
-3.2555375e-22
1.0471837e-21
3.8199686e-22
-1.2717327e-21
-4.6736541e-22
5.054141e-22
1.0741757e-21
-5.7171804e-22
6.1610434e-22
-1.1023245e-33
1.1661112e-33
2.2172922e-21
-7.8858218e-22
-8.462923e-22
-1.8015041e-21
-9.4836316e-22
1.9998902e-21
3.0091115e-37
1.115342e-21
-1.1707728e-21
-3.706164e-21
3.9328974e-21
1.381803e-21
-4.3229822e-21
0
4.7732979e-21
1.6852427e-21
-5.3102639e-21
1.8409588e-21
3.8329409e-21
1.1140663e-33
-2.3440698e-33
-2.2200977e-21
0
-4.8657419e-21
-5.0799115e-21
2.6487158e-21
2.7634597e-21
5.7759253e-21
-3.0192312e-21
-3.1527267e-21
6.5800818e-21
0
-7.1611118e-21
-7.4522686e-21
3.8788821e-21
8.0953375e-21
-2.3468612e-33
-4.4078572e-21
9.1668096e-21
-4.7644771e-21
1.6522998e-32
1.0341534e-20
-5.383841e-21
0
-1.1644623e-20
0
1.3996273e-32
6.551781e-21
1.3619771e-20
-2.1244539e-20
2.0927112e-36
1.5301945e-20
0
-1.6526802e-20
-8.5873712e-21
1.7828983e-20
-1.0270253e-32
-9.6061645e-21
1.9967616e-20
-1.037108e-20
1.7915629e-32
2.2319555e-20
-1.1581322e-20
1.2026339e-20
-2.4970222e-20
-3.8850617e-20
0
4.1764867e-20
2.8888925e-20
-4.4968699e-20
-3.1087353e-20
1.6108282e-20
3.3385126e-20
-1.729637e-20
-1.7929908e-20
3.7188638e-20
-1.9277543e-20
-3.9950912e-20
2.068933e-20
-3.0446945e-36
4.4381763e-20
4.5978963e-20
-7.1449444e-20
2.4665653e-20
4.2531792e-32
-7.930956e-20
0
8.5013752e-20
5.8667548e-20
-3.0358018e-20
-3.1414794e-20
-3.2507465e-20
0
-3.4801592e-20
1.9984773e-32
7.448844e-20
-2.1378491e-32
-3.98444e-20
0
-4.260395e-20
8.80965e-20
1.3662561e-19
-9.4171863e-20
-1.4602777e-19
-5.030781e-20
5.1985363e-20
1.0743652e-19
-5.5512116e-20
5.736342e-20
5.9266003e-20
-1.2244066e-19
1.2646738e-19
6.5312007e-20
-2.0236424e-19
-1.3931789e-19
7.1925804e-20
2.2278308e-19
-1.7022908e-31
1.7573775e-31
8.1701551e-20
9.3611775e-32
8.7020832e-20
-8.9799707e-20
-9.26625e-20
-9.5608793e-20
9.863872e-20
1.0175428e-19
-3.1487265e-19
1.0825004e-19
2.2327018e-19
-3.4535675e-19
-3.3738435e-35
1.2239731e-19
-2.523735e-19
-1.3007462e-19
0
1.3817866e-19
1.4240878e-19
2.935116e-19
-1.5121674e-19
5.1886813e-31
4.8149446e-19
-1.6533231e-19
-1.7029893e-19
-1.7539852e-19
1.8063397e-19
1.8600925e-19
-5.7457991e-19
1.9718747e-19
4.0599136e-19
3.4802298e-31
2.1508248e-19
-4.4273837e-19
-6.8345041e-19
-1.3009047e-31
1.3388387e-31
3.5263817e-35
2.5527631e-19
5.2518207e-19
2.7009257e-19
-8.3334618e-19
3.1712872e-31
5.874765e-19
0
0
-3.1918522e-19
1.821154e-31
-1.8713323e-31
-3.4656619e-19
7.1227766e-19
3.6593849e-19
4.1728044e-31
-3.8625175e-19
-1.1903375e-18
-4.0755527e-19
0
0
0
1.359681e-18
9.3064751e-19
-1.4330946e-18
5.445058e-31
1.0065885e-18
0
0
-1.0877947e-18
1.2390319e-30
6.3541495e-31
-1.1746106e-18
6.024203e-19
1.2357217e-18
1.2672677e-18
-6.4974991e-19
-1.9986548e-18
-6.8304383e-19
0
0
0
2.2619644e-18
1.5453281e-18
-2.3751837e-18
1.8010784e-30
8.3104318e-19
-1.2097798e-34
8.7198229e-19
-1.7861514e-18
1.015338e-30
9.3654192e-19
-1.9178497e-18
0
5.5800287e-31
2.0574774e-18
2.1058482e-18
-3.232732e-18
-2.2054046e-18
1.1283034e-18
6.4060837e-31
-1.1809595e-18
3.6240836e-18
2.4711965e-18
-1.2636771e-18
-1.2922711e-18
1.3213868e-18
1.3510288e-18
-1.3812007e-18
-1.411907e-18
8.0106038e-31
-8.1850087e-31
-1.5073081e-18
0
-1.5737127e-18
3.2155327e-18
4.9271832e-18
-3.3552107e-18
-3.4268139e-18
-1.749804e-18
1.9833648e-30
3.6487926e-18
-1.862601e-18
1.901421e-18
1.9408627e-18
-3.9618612e-18
4.043254e-18
2.0629539e-18
-2.1049149e-18
-4.2950337e-18
-2.1907679e-18
4.4693494e-18
-1.2645036e-30
2.3244637e-18
2.370347e-18
-7.2506824e-18
2.4641117e-18
2.5120052e-18
-7.6817323e-18
3.7087909e-34
7.9792917e-18
2.7103847e-18
-8.2850891e-18
2.8137016e-18
-2.7554561e-46
4.861292e-30
5.9477629e-18
-6.0573365e-18
-6.1683177e-18
3.1403566e-18
-3.5494465e-30
-6.5097453e-18
3.3131871e-18
1.0116614e-17
3.4319275e-18
-3.4923578e-18
0
-3.6153479e-18
-7.3558163e-18
5.3165315e-34
1.1415449e-17
3.8698241e-18
-7.870396e-18
5.6861487e-34
8.1360908e-18
-8.2710398e-18
7.0013008e-30
8.545116e-18
-1.3026335e-17
-8.8246976e-18
0
0
4.6271379e-18
1.4100248e-17
4.7736941e-18
-1.4543899e-17
5.4651616e-30
9.9969493e-18
-1.0149399e-17
-1.0303127e-17
5.2290596e-18
1.0614362e-17
-5.3859211e-18
-5.4652733e-18
1.663569e-17
5.6257837e-18
9.5049554e-30
-3.2114954e-30
-5.8709459e-18
5.9538042e-18
-1.207443e-17
-1.8363503e-17
0
1.8871986e-17
1.2752368e-17
-1.9386627e-17
1.8612597e-33
6.6357205e-18
-1.3446363e-17
6.8110967e-18
6.8994545e-18
7.7580131e-30
-7.0774532e-18
-1.4334133e-17
7.2570673e-18
1.4694883e-17
1.4876353e-17
-8.3607641e-30
-7.6206821e-18
7.7124222e-18
-1.5608925e-17
-2.3690357e-17
0
2.4246671e-17
1.6350622e-17
-2.4805866e-17
9.2856201e-30
8.455838e-18
-8.5497057e-18
-8.6437239e-18
4.8477014e-30
1.7664286e-17
-4.95489e-30
-1.8041903e-17
1.0118244e-29
1.0223187e-29
1.8609116e-17
2.8197351e-17
-1.8987312e-17
1.0647036e-29
3.2244719e-29
-9.7769639e-18
-9.8712267e-18
-1.9930732e-17
3.0178083e-17
1.0153191e-17
-2.0493675e-17
2.0680557e-17
5.9307536e-33
-3.1579366e-17
-1.0619146e-17
1.0711542e-17
3.2410866e-17
-3.6289628e-29
-2.1973495e-17
-1.1077748e-17
2.2336687e-17
3.3775531e-17
-3.4044679e-17
-1.143747e-17
-1.279258e-29
-1.1614452e-17
2.3404285e-17
-6.5439392e-30
1.1875805e-17
-1.1961734e-17
4.0128962e-29
3.6395043e-17
-3.6646954e-17
-3.6896757e-17
0
0
0
1.2624531e-17
3.8111894e-17
1.2782565e-17
1.4276894e-29
1.2937167e-17
-3.9039376e-17
-1.3088162e-17
1.3162257e-17
1.3235389e-17
1.3307535e-17
-2.6757346e-17
1.3448782e-17
-1.3517841e-17
4.5247009e-29
2.7305462e-17
-4.1155568e-17
-2.7566369e-17
0
2.7818077e-17
1.5509037e-29
-1.4030141e-17
4.2266595e-17
1.4146346e-17
-1.4202565e-17
0
0
-1.4363475e-17
-2.8828947e-17
3.2114755e-29
2.9024827e-17
1.4559323e-17
-1.4604838e-17
1.4648945e-17
-1.469163e-17
2.0838404e-46
2.4604068e-29
-4.4433011e-17
0
0
2.9834148e-17
2.9898835e-17
1.4980235e-17
-1.6660709e-29
-4.5111738e-17
1.6726968e-29
3.017606e-17
0
-3.0265021e-17
-1.5152364e-17
3.0341234e-17
-1.5187262e-17
-1.5202292e-17
4.5647106e-17
-1.5227484e-17
5.0748268e-29
3.0492293e-17
-4.5759054e-17
-3.051649e-17
0
0
0
4.5786886e-17
3.0517895e-17
-4.5761825e-17
-3.0494555e-17
0
3.045796e-17
-1.689357e-29
-1.5204065e-17
3.037826e-17
-1.5172548e-17
1.5154321e-17
1.5134454e-17
-4.5338856e-17
3.0179639e-17
3.0130125e-17
-1.5038687e-17
1.5010699e-17
-2.9962213e-17
-4.4849751e-17
0
4.4648332e-17
2.969369e-17
-1.4809351e-17
-1.4770306e-17
1.6352227e-29
-1.4687602e-17
4.8779409e-29
1.4598823e-17
8.0796365e-30
9.4449917e-48
-1.445448e-17
0
-1.435096e-17
2.8594108e-17
4.2725211e-17
-4.2555077e-17
-4.2380807e-17
0
2.8013376e-17
2.7889126e-17
-2.7762254e-17
1.3816398e-17
1.3750394e-17
-4.10494e-17
2.7229273e-17
2.7089846e-17
-1.3474012e-17
-2.680385e-17
-1.332868e-17
3.9762892e-17
1.3178799e-17
2.181816e-29
-2.6049081e-17
-7.3588492e-33
3.8598238e-17
-2.5570656e-17
-3.8110777e-17
-1.2620896e-17
3.7611784e-17
2.4905424e-17
-3.7101814e-17
2.7270959e-29
2.4387618e-17
1.2105836e-17
-6.6703854e-30
-2.3855055e-17
1.3141136e-29
-1.1746231e-17
-1.1654523e-17
3.4686426e-17
1.1469112e-17
1.2628489e-29
-2.2562418e-17
3.7255761e-29
3.3273037e-17
-2.1990233e-17
1.2105433e-29
1.2000912e-29
2.3770379e-29
1.0606805e-17
-3.1526015e-17
1.0410165e-17
1.7167755e-29
3.4011071e-29
3.0337993e-17
-1.001292e-17
-1.9825855e-17
1.0893602e-29
-9.7122997e-18
-9.6117133e-18
1.9021955e-17
1.8820233e-17
-1.0333253e-29
-2.7624343e-17
1.0107589e-29
9.0058982e-18
-1.7809538e-17
8.8036567e-18
8.7025842e-18
-4.7720828e-30
4.7185068e-30
-8.3998334e-18
1.6598291e-17
-8.1986088e-18
2.6975449e-29
2.6637233e-29
-2.369436e-17
1.5596805e-17
-2.1881708e-33
-1.5199516e-17
7.5008708e-18
2.22069e-17
7.3040647e-18
-2.1618553e-17
7.891712e-30
7.0115622e-18
-1.3829714e-17
1.3637157e-17
3.3590443e-29
-6.6273739e-18
6.5324811e-18
-6.4380833e-18
1.2688393e-17
-6.2508356e-18
-1.8474048e-17
0
0
1.1765905e-17
1.6463115e-33
-1.1405094e-17
5.6132749e-18
1.6573921e-17
5.4366548e-18
-1.6047993e-17
-1.4957436e-33
-5.7469385e-30
-1.0182883e-17
1.5020624e-17
2.4595261e-29
-4.8398931e-18
4.7574971e-18
4.675843e-18
-5.1036933e-30
-4.5147952e-18
8.8708332e-18
-8.7136213e-18
1.4250967e-29
8.4038845e-18
-1.2377079e-17
-8.1004842e-18
3.9755954e-18
1.1705272e-17
3.8287317e-18
-3.7565223e-18
0
3.6145681e-18
-3.5448315e-18
-1.0427777e-17
-1.8916172e-30
6.6812275e-18
-3.2742102e-18
-3.2086438e-18
6.2878324e-18
-3.0800293e-18
3.016984e-18
5.909561e-18
-8.6802518e-18
9.4348249e-30
-6.1581489e-30
-5.4287133e-18
5.3126884e-18
2.5991682e-18
2.5428271e-18
2.7634213e-30
-2.4326363e-18
4.7575592e-18
-4.65149e-18
-6.8205917e-18
0
2.1715506e-18
-1.1777475e-30
-5.8912754e-34
6.0739187e-18
1.977267e-18
-5.7920582e-18
1.8848921e-18
2.3205419e-46
-5.3869321e-18
1.7521785e-18
5.1284318e-18
1.6675345e-18
-3.252688e-18
1.5859005e-18
-1.5461984e-18
5.019769e-30
2.9379877e-18
-4.2944296e-18
-1.5490905e-30
6.0336617e-30
-2.6463482e-18
2.5769399e-18
1.3926345e-30
-1.2211176e-18
2.3769026e-18
1.1564467e-18
0
0
-2.1286688e-18
2.2978096e-30
5.7190482e-34
1.0856391e-30
9.5034135e-19
9.2336445e-19
-8.9698164e-19
-8.7118451e-19
1.6919273e-18
-1.6426194e-18
8.8502988e-31
1.5473461e-18
-1.5013535e-18
-2.4252986e-30
7.8408632e-31
-6.8487465e-19
1.3279432e-18
-6.435714e-19
1.3847309e-30
1.2085037e-18
0
-1.1337029e-18
-5.4884831e-19
1.0625983e-18
5.1419712e-19
-4.9753502e-19
8.0161934e-31
4.6549848e-19
0
0
-8.4107864e-19
-8.1269691e-19
0
7.5823011e-19
3.6605714e-19
-3.5336192e-19
3.4102229e-19
-3.2903118e-19
0
6.1213274e-19
0
0
-2.7405441e-19
2.9308614e-31
2.5425611e-19
0
-2.3563038e-19
-1.2585879e-31
2.181271e-19
0
-4.0339159e-19
-3.877311e-19
1.8628366e-19
1.9863009e-31
-1.71843e-19
3.2994841e-19
3.1666583e-19
-3.038257e-19
-4.1412514e-35
-3.1023822e-31
-3.8061065e-35
2.5663975e-19
-1.2291935e-19
1.3067576e-31
-1.1268543e-19
1.0784001e-19
3.09502e-19
-2.9598737e-19
-9.4321729e-20
9.0142257e-20
9.5594903e-32
8.2252518e-20
-1.5706463e-19
-1.4990923e-19
1.4302992e-19
2.2715024e-31
6.5036023e-20
6.1990539e-20
-1.1813929e-19
5.6269511e-20
-5.9480839e-32
2.8331789e-32
-4.8553793e-20
-9.2396832e-20
8.7891438e-20
8.3585069e-20
0
-3.7774056e-20
-3.9863712e-32
6.825235e-20
3.5990121e-32
-9.2406073e-20
-5.853457e-20
0
5.2838351e-20
5.5733327e-32
2.3860075e-20
2.2682335e-20
-6.4706097e-20
1.1385566e-32
3.9050511e-20
-1.8591939e-20
-3.5430422e-20
1.6892929e-20
3.2245856e-20
1.5402781e-20
0
-2.8209413e-20
1.3523011e-20
3.8952837e-20
-1.2487181e-20
-1.2030412e-20
-2.3224666e-20
-1.1231265e-20
2.1770283e-20
1.0572612e-20
1.0292353e-20
-1.1149475e-32
-9.8242701e-21
-9.6344495e-21
-1.8944908e-20
-9.336664e-21
0
0
0
1.8062244e-20
1.8017995e-20
-1.8019303e-20
-1.0023864e-32
-1.0061589e-32
1.0122045e-32
2.0408023e-32
-1.855563e-20
0
1.899382e-20
9.6295827e-21
-9.7739394e-21
9.93231e-21
1.0102234e-20
0
0
-2.1357501e-20
3.6269461e-32
2.4667467e-32
-2.2676975e-20
2.3151569e-20
2.3642235e-20
0
-2.4665655e-20
1.3981261e-32
2.5733482e-20
-2.6284255e-20
-1.4906488e-32
2.7423673e-20
0
-2.8602446e-20
-1.46005e-20
2.9805053e-20
-1.5207907e-20
-3.446137e-32
3.1659746e-20
-3.229212e-20
-3.2930111e-20
0
0
0
3.5524226e-20
3.6181398e-20
-3.6841299e-20
0
3.8168326e-20
0
1.9752486e-20
-4.017685e-20
-2.0425408e-20
2.0763259e-20
-4.2203602e-20
-2.1440881e-20
4.3560735e-20
2.2120144e-20
2.4937313e-32
-2.2800129e-20
5.1378265e-32
-1.3347009e-35
-4.7640953e-20
0
2.450082e-20
4.9681812e-20
2.5180972e-20
0
0
0
2.654062e-20
-5.3759542e-20
-2.7218604e-20
2.7557262e-20
2.7895795e-20
-2.8234076e-20
-2.8571849e-20
5.7817753e-20
0
-5.916122e-20
-5.9831471e-20
0
0
6.1841155e-20
3.4698027e-32
3.1589361e-20
3.1922871e-20
-3.225565e-20
3.258775e-20
-3.2919365e-20
-6.6501541e-20
-3.3582191e-20
0
6.848983e-20
3.8374306e-32
-3.4905222e-20
3.5233772e-20
3.5561486e-20
7.1777793e-20
-7.243301e-20
-3.6544493e-20
1.0479832e-35
-3.7200453e-20
7.5055076e-20
-3.785374e-20
3.8179238e-20
-7.522483e-49
-3.8829688e-20
7.8310511e-20
-7.8962057e-20
-7.9613272e-20
0
4.045561e-20
8.1557311e-20
-2.2814224e-32
-4.1423388e-20
-4.174597e-20
8.4137843e-20
8.4784032e-20
-4.271488e-20
-8.6074463e-20
-8.6718048e-20
4.3680424e-20
8.8003343e-20
-4.4322952e-20
4.4644327e-20
-7.4865392e-32
-4.5286923e-20
9.1215315e-20
-9.1855358e-20
-5.132796e-32
2.5848742e-31
-9.376791e-20
9.4405022e-20
2.1102393e-31
-4.7840549e-20
9.6319283e-20
-4.8478379e-20
1.3868833e-35
-2.1809786e-31
-4.9431948e-20
9.9498688e-20
-1.1116309e-31
2.7959573e-32
-5.0700156e-20
1.4499632e-35
1.0266233e-19
-1.032911e-19
-2.9535525e-35
2.3212486e-31
-1.0517441e-19
1.0580301e-19
1.1815551e-31
-1.0706006e-19
5.3843454e-20
5.4156037e-20
5.4467883e-20
-5.4779212e-20
6.115845e-32
1.1080131e-19
0
0
-1.1265e-19
-1.6096488e-35
1.1388251e-19
-5.7246382e-20
6.3877134e-32
-5.7860651e-20
-1.2914879e-31
1.1694637e-19
0
5.9080378e-20
-1.1876349e-19
-5.9682186e-20
1.331953e-31
-6.0281266e-20
1.2115953e-19
-6.0877419e-20
6.7895403e-32
1.2294156e-19
0
0
-6.2358807e-20
3.4777225e-32
-6.2945307e-20
6.323508e-20
1.9056757e-19
-1.9142505e-19
-6.4093358e-20
1.2875634e-19
-6.4663018e-20
-1.0814369e-31
-6.523225e-20
3.7241468e-35
2.1915679e-31
-6.6078682e-20
1.3271336e-19
6.6631781e-20
0
6.717426e-20
-6.7443584e-20
-6.7712938e-20
-6.7982704e-20
1.5154128e-31
-7.6049723e-32
7.6346218e-32
1.3810658e-19
-6.9315305e-20
-1.1584749e-31
1.3966162e-19
-9.9596102e-36
-7.0336382e-20
-1.4117507e-19
-1.4167804e-19
1.4218227e-19
7.9242184e-32
7.1593206e-20
7.1840045e-20
-1.441653e-19
1.446419e-19
7.2555595e-20
-2.1836306e-19
-1.4603702e-19
7.324935e-20
1.4696215e-19
7.3713559e-20