/*--------------------------------*- C++ -*----------------------------------*\
  =========                 |
  \\      /  F ield         | OpenFOAM: The Open Source CFD Toolbox
   \\    /   O peration     | Website:  https://openfoam.org
    \\  /    A nd           | Version:  7
     \\/     M anipulation  |
\*---------------------------------------------------------------------------*/
FoamFile
{
    version     2.0;
    format      ascii;
    class       surfaceScalarField;
    location    "0.00199";
    object      phi;
}
// * * * * * * * * * * * * * * * * * * * * * * * * * * * * * * * * * * * * * //

dimensions      [1 0 -1 0 0 0 0];

internalField   nonuniform List<scalar> 
4999
(
1.2358813
1.2358812
1.2358811
1.2358811
1.235881
1.2358809
1.2358808
1.2358807
1.2358807
1.2358806
1.2358805
1.2358804
1.2358803
1.2358802
1.2358802
1.2358801
1.23588
1.2358799
1.2358798
1.2358797
1.2358796
1.2358795
1.2358794
1.2358793
1.2358792
1.235879
1.2358789
1.2358787
1.2358785
1.2358781
1.2358773
1.2358758
1.2358739
1.2358711
1.2358668
1.2358599
1.2358493
1.2358344
1.2358146
1.23579
1.2357603
1.2357251
1.2356835
1.2356344
1.2355766
1.2355101
1.2354354
1.2353544
1.23527
1.2351855
1.2351042
1.235029
1.2349622
1.2349048
1.2348572
1.234819
1.2347892
1.2347664
1.2347495
1.2347371
1.2347282
1.2347218
1.2347173
1.2347141
1.2347119
1.2347103
1.2347091
1.2347083
1.2347077
1.2347073
1.2347069
1.2347067
1.2347065
1.2347064
1.2347063
1.2347062
1.2347061
1.234706
1.2347059
1.2347058
1.2347057
1.2347057
1.2347056
1.2347055
1.2347055
1.2347054
1.2347053
1.2347053
1.2347052
1.2347051
1.2347051
1.234705
1.2347049
1.2347049
1.2347048
1.2347047
1.2347047
1.2347046
1.2347045
1.2347045
1.2347044
1.2347043
1.2347043
1.2347042
1.2347042
1.2347041
1.234704
1.234704
1.2347039
1.2347038
1.2347038
1.2347037
1.2347036
1.2347036
1.2347035
1.2347035
1.2347034
1.2347034
1.2347033
1.2347032
1.2347032
1.2347031
1.2347031
1.234703
1.234703
1.2347029
1.2347028
1.2347028
1.2347027
1.2347027
1.2347026
1.2347026
1.2347025
1.2347025
1.2347024
1.2347024
1.2347023
1.2347023
1.2347023
1.2347022
1.2347022
1.2347021
1.2347021
1.234702
1.234702
1.234702
1.2347019
1.2347019
1.2347018
1.2347018
1.2347018
1.2347017
1.2347017
1.2347017
1.2347016
1.2347016
1.2347015
1.2347015
1.2347015
1.2347014
1.2347014
1.2347013
1.2347013
1.2347013
1.2347012
1.2347012
1.2347011
1.2347011
1.234701
1.234701
1.234701
1.2347009
1.2347009
1.2347008
1.2347008
1.2347007
1.2347007
1.2347006
1.2347006
1.2347005
1.2347005
1.2347004
1.2347004
1.2347003
1.2347003
1.2347002
1.2347001
1.2347001
1.2347
1.2347
1.2346999
1.2346999
1.2346998
1.2346998
1.2346997
1.2346996
1.2346996
1.2346995
1.2346995
1.2346994
1.2346994
1.2346993
1.2346992
1.2346992
1.2346991
1.2346991
1.234699
1.2346989
1.2346989
1.2346988
1.2346988
1.2346987
1.2346986
1.2346986
1.2346985
1.2346985
1.2346984
1.2346983
1.2346983
1.2346982
1.2346982
1.2346981
1.234698
1.234698
1.2346979
1.2346979
1.2346978
1.2346977
1.2346977
1.2346976
1.2346975
1.2346975
1.2346974
1.2346973
1.2346973
1.2346972
1.2346971
1.2346971
1.234697
1.234697
1.2346969
1.2346968
1.2346968
1.2346967
1.2346966
1.2346966
1.2346965
1.2346964
1.2346964
1.2346963
1.2346962
1.2346961
1.2346961
1.234696
1.2346959
1.2346959
1.2346958
1.2346957
1.2346957
1.2346956
1.2346955
1.2346955
1.2346954
1.2346953
1.2346953
1.2346952
1.2346951
1.2346951
1.234695
1.2346949
1.2346949
1.2346948
1.2346947
1.2346946
1.2346946
1.2346945
1.2346944
1.2346944
1.2346943
1.2346942
1.2346942
1.2346941
1.234694
1.234694
1.2346939
1.2346938
1.2346938
1.2346937
1.2346936
1.2346936
1.2346935
1.2346934
1.2346933
1.2346933
1.2346932
1.2346931
1.2346931
1.234693
1.2346929
1.2346928
1.2346928
1.2346927
1.2346926
1.2346925
1.2346925
1.2346924
1.2346923
1.2346922
1.2346922
1.2346921
1.234692
1.2346919
1.2346918
1.2346918
1.2346917
1.2346916
1.2346915
1.2346915
1.2346914
1.2346913
1.2346912
1.2346911
1.2346911
1.234691
1.2346909
1.2346908
1.2346908
1.2346907
1.2346906
1.2346905
1.2346904
1.2346904
1.2346903
1.2346902
1.2346901
1.2346901
1.23469
1.2346899
1.2346898
1.2346898
1.2346897
1.2346896
1.2346895
1.2346895
1.2346894
1.2346893
1.2346892
1.2346892
1.2346891
1.234689
1.2346889
1.2346888
1.2346888
1.2346887
1.2346886
1.2346885
1.2346884
1.2346883
1.2346883
1.2346882
1.2346881
1.234688
1.2346879
1.2346878
1.2346878
1.2346877
1.2346876
1.2346875
1.2346874
1.2346873
1.2346872
1.2346871
1.2346871
1.234687
1.2346869
1.2346868
1.2346867
1.2346866
1.2346865
1.2346864
1.2346864
1.2346863
1.2346862
1.2346861
1.234686
1.2346859
1.2346859
1.2346858
1.2346857
1.2346856
1.2346855
1.2346854
1.2346854
1.2346853
1.2346852
1.2346851
1.234685
1.2346849
1.2346848
1.2346847
1.2346847
1.2346846
1.2346845
1.2346844
1.2346843
1.2346842
1.2346841
1.234684
1.2346839
1.2346838
1.2346837
1.2346835
1.2346834
1.2346833
1.2346832
1.234683
1.2346829
1.2346828
1.2346827
1.2346825
1.2346824
1.2346823
1.2346821
1.234682
1.2346818
1.2346817
1.2346815
1.2346814
1.2346812
1.234681
1.2346809
1.2346807
1.2346805
1.2346803
1.2346801
1.2346799
1.2346797
1.2346795
1.2346793
1.234679
1.2346788
1.2346786
1.2346783
1.234678
1.2346777
1.2346775
1.2346772
1.2346768
1.2346765
1.2346762
1.2346758
1.2346755
1.2346751
1.2346747
1.2346743
1.2346739
1.2346735
1.2346731
1.2346727
1.2346722
1.2346717
1.2346713
1.2346708
1.2346702
1.2346697
1.2346691
1.2346686
1.234668
1.2346674
1.2346667
1.2346661
1.2346654
1.2346647
1.234664
1.2346632
1.2346625
1.2346617
1.2346609
1.23466
1.2346591
1.2346582
1.2346573
1.2346563
1.2346553
1.2346543
1.2346533
1.2346522
1.234651
1.2346499
1.2346487
1.2346474
1.2346462
1.2346448
1.2346435
1.2346421
1.2346406
1.2346392
1.2346376
1.2346361
1.2346344
1.2346328
1.234631
1.2346293
1.2346274
1.2346255
1.2346236
1.2346216
1.2346195
1.2346173
1.2346151
1.2346129
1.2346105
1.2346081
1.2346057
1.2346031
1.2346005
1.2345978
1.234595
1.2345921
1.2345891
1.234586
1.2345829
1.2345796
1.2345763
1.2345728
1.2345692
1.2345655
1.2345617
1.2345578
1.2345538
1.2345496
1.2345454
1.2345409
1.2345364
1.2345317
1.2345269
1.2345219
1.2345168
1.2345115
1.2345061
1.2345005
1.2344947
1.2344888
1.2344827
1.2344764
1.2344699
1.2344632
1.2344564
1.2344493
1.2344421
1.2344346
1.234427
1.2344191
1.234411
1.2344026
1.2343941
1.2343853
1.2343762
1.234367
1.2343574
1.2343477
1.2343376
1.2343273
1.2343167
1.2343059
1.2342948
1.2342834
1.2342717
1.2342597
1.2342474
1.2342348
1.2342219
1.2342087
1.2341952
1.2341813
1.2341672
1.2341526
1.2341378
1.2341226
1.234107
1.2340911
1.2340749
1.2340582
1.2340412
1.2340239
1.2340061
1.233988
1.2339695
1.2339505
1.2339312
1.2339115
1.2338913
1.2338707
1.2338498
1.2338283
1.2338065
1.2337842
1.2337615
1.2337383
1.2337147
1.2336906
1.233666
1.233641
1.2336155
1.2335895
1.2335631
1.2335361
1.2335087
1.2334807
1.2334523
1.2334233
1.2333939
1.2333639
1.2333333
1.2333023
1.2332707
1.2332386
1.2332059
1.2331727
1.233139
1.2331046
1.2330698
1.2330343
1.2329983
1.2329617
1.2329245
1.2328867
1.2328484
1.2328094
1.2327699
1.2327297
1.232689
1.2326476
1.2326057
1.2325631
1.2325199
1.232476
1.2324316
1.2323865
1.2323407
1.2322944
1.2322474
1.2321997
1.2321514
1.2321024
1.2320528
1.2320026
1.2319516
1.2319
1.2318478
1.2317948
1.2317412
1.231687
1.231632
1.2315764
1.2315201
1.2314631
1.2314054
1.2313471
1.231288
1.2312283
1.2311679
1.2311067
1.2310449
1.2309824
1.2309192
1.2308554
1.2307908
1.2307255
1.2306595
1.2305928
1.2305254
1.2304574
1.2303886
1.2303191
1.2302489
1.230178
1.2301065
1.2300342
1.2299612
1.2298876
1.2298132
1.2297381
1.2296624
1.229586
1.2295088
1.229431
1.2293525
1.2292733
1.2291934
1.2291128
1.2290316
1.2289497
1.2288671
1.2287838
1.2286998
1.2286152
1.2285299
1.228444
1.2283574
1.2282701
1.2281822
1.2280936
1.2280044
1.2279145
1.227824
1.2277329
1.2276411
1.2275487
1.2274556
1.227362
1.2272677
1.2271728
1.2270773
1.2269812
1.2268844
1.2267871
1.2266892
1.2265907
1.2264917
1.226392
1.2262918
1.226191
1.2260896
1.2259877
1.2258852
1.2257822
1.2256787
1.2255746
1.2254699
1.2253648
1.2252591
1.2251529
1.2250462
1.224939
1.2248313
1.2247231
1.2246145
1.2245053
1.2243957
1.2242856
1.2241751
1.2240641
1.2239526
1.2238407
1.2237284
1.2236156
1.2235025
1.2233889
1.2232749
1.2231605
1.2230457
1.2229305
1.2228149
1.2226989
1.2225826
1.222466
1.2223489
1.2222315
1.2221138
1.2219958
1.2218774
1.2217587
1.2216397
1.2215204
1.2214007
1.2212808
1.2211606
1.2210402
1.2209194
1.2207984
1.2206772
1.2205557
1.2204339
1.2203119
1.2201897
1.2200673
1.2199447
1.2198218
1.2196988
1.2195756
1.2194522
1.2193286
1.2192049
1.219081
1.2189569
1.2188327
1.2187084
1.2185839
1.2184593
1.2183346
1.2182098
1.2180849
1.2179599
1.2178348
1.2177097
1.2175844
1.2174592
1.2173338
1.2172084
1.217083
1.2169575
1.216832
1.2167065
1.216581
1.2164555
1.21633
1.2162045
1.216079
1.2159536
1.2158282
1.2157028
1.2155775
1.2154522
1.215327
1.2152018
1.2150768
1.2149518
1.2148269
1.2147021
1.2145775
1.2144529
1.2143285
1.2142041
1.2140799
1.2139559
1.213832
1.2137082
1.2135846
1.2134612
1.213338
1.2132149
1.213092
1.2129693
1.2128468
1.2127246
1.2126025
1.2124806
1.212359
1.2122376
1.2121164
1.2119955
1.2118748
1.2117544
1.2116342
1.2115143
1.2113947
1.2112753
1.2111563
1.2110375
1.210919
1.2108008
1.2106829
1.2105653
1.210448
1.2103311
1.2102144
1.2100981
1.2099822
1.2098666
1.2097513
1.2096363
1.2095217
1.2094075
1.2092936
1.2091801
1.209067
1.2089542
1.2088418
1.2087298
1.2086182
1.208507
1.2083961
1.2082857
1.2081757
1.208066
1.2079568
1.207848
1.2077396
1.2076316
1.207524
1.2074168
1.2073101
1.2072038
1.2070979
1.2069925
1.2068875
1.2067829
1.2066788
1.2065752
1.2064719
1.2063691
1.2062668
1.2061649
1.2060635
1.2059625
1.205862
1.205762
1.2056624
1.2055632
1.2054645
1.2053663
1.2052686
1.2051713
1.2050745
1.2049782
1.2048823
1.2047869
1.204692
1.2045975
1.2045036
1.2044101
1.204317
1.2042245
1.2041324
1.2040408
1.2039496
1.203859
1.2037688
1.2036791
1.2035899
1.2035011
1.2034128
1.203325
1.2032377
1.2031508
1.2030644
1.2029785
1.2028931
1.2028081
1.2027236
1.2026396
1.202556
1.202473
1.2023903
1.2023082
1.2022265
1.2021453
1.2020645
1.2019842
1.2019044
1.201825
1.2017461
1.2016676
1.2015896
1.2015121
1.201435
1.2013584
1.2012822
1.2012064
1.2011311
1.2010563
1.2009819
1.200908
1.2008344
1.2007614
1.2006887
1.2006165
1.2005448
1.2004734
1.2004025
1.2003321
1.200262
1.2001924
1.2001232
1.2000545
1.1999861
1.1999182
1.1998507
1.1997836
1.1997169
1.1996506
1.1995848
1.1995193
1.1994542
1.1993896
1.1993254
1.1992615
1.1991981
1.199135
1.1990724
1.1990101
1.1989482
1.1988868
1.1988257
1.198765
1.1987046
1.1986447
1.1985852
1.198526
1.1984672
1.1984087
1.1983507
1.198293
1.1982357
1.1981788
1.1981222
1.198066
1.1980101
1.1979546
1.1978995
1.1978448
1.1977904
1.1977363
1.1976826
1.1976293
1.1975763
1.1975237
1.1974714
1.1974194
1.1973678
1.1973166
1.1972657
1.1972151
1.1971649
1.197115
1.1970655
1.1970163
1.1969674
1.1969189
1.1968707
1.1968228
1.1967753
1.196728
1.1966812
1.1966346
1.1965884
1.1965425
1.1964969
1.1964517
1.1964068
1.1963622
1.1963179
1.196274
1.1962303
1.196187
1.196144
1.1961014
1.196059
1.196017
1.1959752
1.1959338
1.1958927
1.1958519
1.1958115
1.1957713
1.1957315
1.1956919
1.1956527
1.1956138
1.1955751
1.1955368
1.1954988
1.1954611
1.1954238
1.1953867
1.1953499
1.1953134
1.1952772
1.1952414
1.1952058
1.1951705
1.1951356
1.1951009
1.1950665
1.1950324
1.1949987
1.1949652
1.194932
1.1948991
1.1948665
1.1948342
1.1948022
1.1947705
1.1947391
1.194708
1.1946771
1.1946466
1.1946163
1.1945863
1.1945567
1.1945273
1.1944982
1.1944693
1.1944408
1.1944125
1.1943846
1.1943569
1.1943295
1.1943023
1.1942755
1.1942489
1.1942226
1.1941966
1.1941709
1.1941454
1.1941202
1.1940953
1.1940706
1.1940462
1.1940221
1.1939983
1.1939747
1.1939514
1.1939284
1.1939056
1.1938831
1.1938608
1.1938388
1.1938171
1.1937956
1.1937744
1.1937534
1.1937327
1.1937122
1.193692
1.1936721
1.1936523
1.1936329
1.1936137
1.1935947
1.193576
1.1935575
1.1935392
1.1935212
1.1935034
1.1934859
1.1934686
1.1934515
1.1934347
1.1934181
1.1934017
1.1933855
1.1933696
1.1933539
1.1933384
1.1933231
1.193308
1.1932932
1.1932786
1.1932642
1.19325
1.193236
1.1932222
1.1932086
1.1931952
1.193182
1.1931691
1.1931563
1.1931437
1.1931313
1.1931191
1.1931071
1.1930953
1.1930837
1.1930722
1.193061
1.1930499
1.193039
1.1930283
1.1930177
1.1930074
1.1929972
1.1929871
1.1929773
1.1929676
1.1929581
1.1929487
1.1929395
1.1929305
1.1929216
1.1929128
1.1929043
1.1928958
1.1928876
1.1928794
1.1928715
1.1928636
1.1928559
1.1928484
1.192841
1.1928337
1.1928265
1.1928195
1.1928127
1.1928059
1.1927993
1.1927928
1.1927864
1.1927802
1.192774
1.192768
1.1927621
1.1927564
1.1927507
1.1927452
1.1927397
1.1927344
1.1927292
1.1927241
1.1927191
1.1927142
1.1927094
1.1927047
1.1927001
1.1926956
1.1926911
1.1926868
1.1926826
1.1926785
1.1926744
1.1926704
1.1926666
1.1926628
1.1926591
1.1926554
1.1926519
1.1926484
1.192645
1.1926417
1.1926385
1.1926353
1.1926322
1.1926292
1.1926262
1.1926234
1.1926205
1.1926178
1.1926151
1.1926125
1.1926099
1.1926074
1.192605
1.1926026
1.1926003
1.192598
1.1925958
1.1925936
1.1925915
1.1925895
1.1925875
1.1925855
1.1925836
1.1925817
1.1925799
1.1925782
1.1925765
1.1925748
1.1925732
1.1925716
1.19257
1.1925685
1.1925671
1.1925656
1.1925643
1.1925629
1.1925616
1.1925603
1.1925591
1.1925579
1.1925567
1.1925556
1.1925545
1.1925534
1.1925523
1.1925513
1.1925503
1.1925494
1.1925484
1.1925475
1.1925467
1.1925458
1.192545
1.1925442
1.1925434
1.1925427
1.1925419
1.1925412
1.1925405
1.1925399
1.1925392
1.1925386
1.192538
1.1925374
1.1925368
1.1925363
1.1925357
1.1925352
1.1925347
1.1925342
1.1925338
1.1925333
1.1925329
1.1925325
1.1925321
1.1925317
1.1925313
1.1925309
1.1925306
1.1925302
1.1925299
1.1925296
1.1925293
1.192529
1.1925287
1.1925284
1.1925281
1.1925279
1.1925276
1.1925274
1.1925272
1.1925269
1.1925267
1.1925265
1.1925263
1.1925261
1.1925259
1.1925258
1.1925256
1.1925254
1.1925253
1.1925251
1.192525
1.1925248
1.1925247
1.1925246
1.1925244
1.1925243
1.1925242
1.1925241
1.192524
1.1925239
1.1925238
1.1925237
1.1925236
1.1925235
1.1925234
1.1925233
1.1925233
1.1925232
1.1925231
1.1925231
1.192523
1.1925229
1.1925229
1.1925228
1.1925227
1.1925227
1.1925226
1.1925226
1.1925225
1.1925225
1.1925224
1.1925224
1.1925223
1.1925223
1.1925223
1.1925222
1.1925222
1.1925222
1.1925221
1.1925221
1.1925221
1.192522
1.192522
1.192522
1.1925219
1.1925219
1.1925219
1.1925219
1.1925218
1.1925218
1.1925218
1.1925218
1.1925217
1.1925217
1.1925217
1.1925217
1.1925217
1.1925216
1.1925216
1.1925216
1.1925216
1.1925215
1.1925215
1.1925215
1.1925215
1.1925215
1.1925214
1.1925214
1.1925214
1.1925214
1.1925214
1.1925213
1.1925213
1.1925213
1.1925213
1.1925213
1.1925212
1.1925212
1.1925212
1.1925212
1.1925212
1.1925211
1.1925211
1.1925211
1.1925211
1.192521
1.192521
1.192521
1.192521
1.1925209
1.1925209
1.1925209
1.1925209
1.1925208
1.1925208
1.1925208
1.1925207
1.1925207
1.1925207
1.1925206
1.1925206
1.1925206
1.1925206
1.1925205
1.1925205
1.1925205
1.1925204
1.1925204
1.1925204
1.1925203
1.1925203
1.1925203
1.1925202
1.1925202
1.1925201
1.1925201
1.1925201
1.19252
1.19252
1.19252
1.1925199
1.1925199
1.1925198
1.1925198
1.1925197
1.1925197
1.1925197
1.1925196
1.1925196
1.1925195
1.1925195
1.1925194
1.1925194
1.1925194
1.1925193
1.1925193
1.1925192
1.1925192
1.1925191
1.1925191
1.192519
1.192519
1.1925189
1.1925189
1.1925188
1.1925188
1.1925188
1.1925187
1.1925187
1.1925186
1.1925186
1.1925185
1.1925185
1.1925184
1.1925184
1.1925183
1.1925183
1.1925182
1.1925182
1.1925181
1.1925181
1.1925181
1.192518
1.192518
1.1925179
1.1925179
1.1925178
1.1925178
1.1925177
1.1925177
1.1925176
1.1925176
1.1925176
1.1925175
1.1925175
1.1925174
1.1925174
1.1925173
1.1925173
1.1925173
1.1925172
1.1925172
1.1925171
1.1925171
1.1925171
1.192517
1.192517
1.192517
1.1925169
1.1925169
1.1925169
1.1925168
1.1925168
1.1925168
1.1925167
1.1925167
1.1925167
1.1925166
1.1925166
1.1925166
1.1925165
1.1925165
1.1925165
1.1925165
1.1925164
1.1925164
1.1925164
1.1925163
1.1925163
1.1925163
1.1925163
1.1925162
1.1925162
1.1925162
1.1925162
1.1925161
1.1925161
1.1925161
1.1925161
1.1925161
1.192516
1.192516
1.192516
1.192516
1.192516
1.192516
1.1925159
1.1925159
1.1925159
1.1925159
1.1925159
1.1925159
1.1925158
1.1925158
1.1925158
1.1925158
1.1925158
1.1925158
1.1925157
1.1925157
1.1925157
1.1925157
1.1925157
1.1925157
1.1925157
1.1925156
1.1925156
1.1925156
1.1925156
1.1925156
1.1925156
1.1925156
1.1925156
1.1925155
1.1925155
1.1925155
1.1925155
1.1925155
1.1925155
1.1925155
1.1925154
1.1925154
1.1925154
1.1925154
1.1925154
1.1925154
1.1925153
1.1925153
1.1925153
1.1925153
1.1925153
1.1925153
1.1925153
1.1925152
1.1925152
1.1925152
1.1925152
1.1925152
1.1925152
1.1925151
1.1925151
1.1925151
1.1925151
1.1925151
1.192515
1.192515
1.192515
1.192515
1.192515
1.1925149
1.1925149
1.1925149
1.1925149
1.1925149
1.1925148
1.1925148
1.1925148
1.1925148
1.1925147
1.1925147
1.1925147
1.1925147
1.1925147
1.1925146
1.1925146
1.1925146
1.1925146
1.1925145
1.1925145
1.1925145
1.1925145
1.1925144
1.1925144
1.1925144
1.1925144
1.1925143
1.1925143
1.1925143
1.1925143
1.1925142
1.1925142
1.1925142
1.1925142
1.1925141
1.1925141
1.1925141
1.192514
1.192514
1.192514
1.192514
1.1925139
1.1925139
1.1925139
1.1925139
1.1925138
1.1925138
1.1925138
1.1925138
1.1925137
1.1925137
1.1925137
1.1925136
1.1925136
1.1925136
1.1925136
1.1925135
1.1925135
1.1925135
1.1925135
1.1925134
1.1925134
1.1925134
1.1925134
1.1925133
1.1925133
1.1925133
1.1925133
1.1925132
1.1925132
1.1925132
1.1925131
1.1925131
1.1925131
1.1925131
1.192513
1.192513
1.192513
1.192513
1.1925129
1.1925129
1.1925129
1.1925129
1.1925128
1.1925128
1.1925128
1.1925128
1.1925127
1.1925127
1.1925127
1.1925127
1.1925126
1.1925126
1.1925126
1.1925126
1.1925125
1.1925125
1.1925125
1.1925125
1.1925124
1.1925124
1.1925124
1.1925123
1.1925123
1.1925123
1.1925123
1.1925122
1.1925122
1.1925122
1.1925122
1.1925121
1.1925121
1.1925121
1.1925121
1.192512
1.192512
1.192512
1.192512
1.1925119
1.1925119
1.1925119
1.1925118
1.1925118
1.1925118
1.1925118
1.1925117
1.1925117
1.1925117
1.1925117
1.1925116
1.1925116
1.1925116
1.1925115
1.1925115
1.1925115
1.1925114
1.1925114
1.1925114
1.1925114
1.1925113
1.1925113
1.1925113
1.1925113
1.1925112
1.1925112
1.1925112
1.1925111
1.1925111
1.1925111
1.192511
1.192511
1.192511
1.192511
1.1925109
1.1925109
1.1925109
1.1925108
1.1925108
1.1925108
1.1925108
1.1925107
1.1925107
1.1925107
1.1925106
1.1925106
1.1925106
1.1925105
1.1925105
1.1925105
1.1925104
1.1925104
1.1925104
1.1925103
1.1925103
1.1925103
1.1925102
1.1925102
1.1925102
1.1925102
1.1925101
1.1925101
1.1925101
1.19251
1.19251
1.19251
1.1925099
1.1925099
1.1925099
1.1925098
1.1925098
1.1925098
1.1925097
1.1925097
1.1925097
1.1925096
1.1925096
1.1925096
1.1925095
1.1925095
1.1925095
1.1925095
1.1925094
1.1925094
1.1925094
1.1925093
1.1925093
1.1925093
1.1925092
1.1925092
1.1925092
1.1925091
1.1925091
1.1925091
1.192509
1.192509
1.192509
1.1925089
1.1925089
1.1925089
1.1925088
1.1925088
1.1925088
1.1925087
1.1925087
1.1925087
1.1925086
1.1925086
1.1925086
1.1925086
1.1925085
1.1925085
1.1925085
1.1925084
1.1925084
1.1925084
1.1925083
1.1925083
1.1925083
1.1925082
1.1925082
1.1925082
1.1925081
1.1925081
1.1925081
1.192508
1.192508
1.192508
1.192508
1.1925079
1.1925079
1.1925079
1.1925078
1.1925078
1.1925078
1.1925078
1.1925077
1.1925077
1.1925077
1.1925077
1.1925076
1.1925076
1.1925076
1.1925075
1.1925075
1.1925075
1.1925075
1.1925074
1.1925074
1.1925074
1.1925074
1.1925073
1.1925073
1.1925073
1.1925073
1.1925072
1.1925072
1.1925072
1.1925072
1.1925071
1.1925071
1.1925071
1.1925071
1.192507
1.192507
1.192507
1.192507
1.192507
1.1925069
1.1925069
1.1925069
1.1925069
1.1925069
1.1925068
1.1925068
1.1925068
1.1925068
1.1925068
1.1925067
1.1925067
1.1925067
1.1925067
1.1925066
1.1925066
1.1925066
1.1925066
1.1925065
1.1925065
1.1925065
1.1925065
1.1925065
1.1925064
1.1925064
1.1925064
1.1925064
1.1925063
1.1925063
1.1925063
1.1925063
1.1925063
1.1925062
1.1925062
1.1925062
1.1925062
1.1925061
1.1925061
1.1925061
1.1925061
1.192506
1.192506
1.192506
1.192506
1.1925059
1.1925059
1.1925059
1.1925059
1.1925058
1.1925058
1.1925058
1.1925057
1.1925057
1.1925057
1.1925057
1.1925056
1.1925056
1.1925056
1.1925055
1.1925055
1.1925055
1.1925054
1.1925054
1.1925054
1.1925053
1.1925053
1.1925053
1.1925052
1.1925052
1.1925052
1.1925051
1.1925051
1.192505
1.192505
1.192505
1.1925049
1.1925049
1.1925049
1.1925048
1.1925048
1.1925047
1.1925047
1.1925047
1.1925046
1.1925046
1.1925045
1.1925045
1.1925045
1.1925044
1.1925044
1.1925043
1.1925043
1.1925042
1.1925042
1.1925042
1.1925041
1.1925041
1.192504
1.192504
1.1925039
1.1925039
1.1925039
1.1925038
1.1925038
1.1925037
1.1925037
1.1925036
1.1925036
1.1925035
1.1925035
1.1925034
1.1925034
1.1925033
1.1925033
1.1925033
1.1925032
1.1925032
1.1925031
1.1925031
1.192503
1.192503
1.1925029
1.1925029
1.1925029
1.1925028
1.1925028
1.1925027
1.1925027
1.1925026
1.1925026
1.1925026
1.1925025
1.1925025
1.1925024
1.1925024
1.1925024
1.1925023
1.1925023
1.1925022
1.1925022
1.1925022
1.1925021
1.1925021
1.192502
1.192502
1.192502
1.1925019
1.1925019
1.1925018
1.1925018
1.1925018
1.1925017
1.1925017
1.1925017
1.1925016
1.1925016
1.1925015
1.1925015
1.1925015
1.1925014
1.1925014
1.1925014
1.1925013
1.1925013
1.1925013
1.1925012
1.1925012
1.1925012
1.1925011
1.1925011
1.1925011
1.192501
1.192501
1.192501
1.1925009
1.1925009
1.1925009
1.1925008
1.1925008
1.1925008
1.1925007
1.1925007
1.1925007
1.1925006
1.1925006
1.1925006
1.1925005
1.1925005
1.1925005
1.1925005
1.1925004
1.1925004
1.1925004
1.1925003
1.1925003
1.1925003
1.1925002
1.1925002
1.1925002
1.1925001
1.1925001
1.1925001
1.1925
1.1925
1.1925
1.1924999
1.1924999
1.1924999
1.1924998
1.1924998
1.1924998
1.1924997
1.1924997
1.1924997
1.1924996
1.1924996
1.1924996
1.1924995
1.1924995
1.1924995
1.1924994
1.1924994
1.1924994
1.1924993
1.1924993
1.1924992
1.1924992
1.1924992
1.1924991
1.1924991
1.1924991
1.192499
1.192499
1.1924989
1.1924989
1.1924989
1.1924988
1.1924988
1.1924987
1.1924987
1.1924987
1.1924986
1.1924986
1.1924985
1.1924985
1.1924984
1.1924984
1.1924984
1.1924983
1.1924983
1.1924982
1.1924982
1.1924982
1.1924981
1.1924981
1.192498
1.192498
1.1924979
1.1924979
1.1924979
1.1924978
1.1924978
1.1924977
1.1924977
1.1924976
1.1924976
1.1924975
1.1924975
1.1924974
1.1924974
1.1924974
1.1924973
1.1924973
1.1924972
1.1924972
1.1924971
1.1924971
1.192497
1.192497
1.1924969
1.1924969
1.1924968
1.1924968
1.1924968
1.1924967
1.1924967
1.1924966
1.1924966
1.1924965
1.1924965
1.1924964
1.1924964
1.1924963
1.1924963
1.1924962
1.1924962
1.1924961
1.1924961
1.192496
1.192496
1.1924959
1.1924959
1.1924958
1.1924958
1.1924957
1.1924957
1.1924957
1.1924956
1.1924956
1.1924955
1.1924955
1.1924954
1.1924954
1.1924953
1.1924953
1.1924952
1.1924952
1.1924951
1.1924951
1.192495
1.192495
1.1924949
1.1924949
1.1924948
1.1924948
1.1924947
1.1924947
1.1924946
1.1924946
1.1924945
1.1924945
1.1924944
1.1924944
1.1924943
1.1924943
1.1924942
1.1924942
1.1924941
1.1924941
1.192494
1.192494
1.1924939
1.1924939
1.1924938
1.1924938
1.1924937
1.1924937
1.1924936
1.1924936
1.1924935
1.1924935
1.1924934
1.1924934
1.1924933
1.1924933
1.1924932
1.1924932
1.1924931
1.1924931
1.192493
1.192493
1.1924929
1.1924928
1.1924928
1.1924927
1.1924927
1.1924926
1.1924926
1.1924925
1.1924925
1.1924924
1.1924924
1.1924923
1.1924923
1.1924922
1.1924922
1.1924921
1.1924921
1.192492
1.192492
1.1924919
1.1924919
1.1924918
1.1924917
1.1924917
1.1924916
1.1924916
1.1924915
1.1924915
1.1924914
1.1924914
1.1924913
1.1924912
1.1924912
1.1924911
1.1924911
1.192491
1.192491
1.1924909
1.1924909
1.1924908
1.1924907
1.1924907
1.1924906
1.1924906
1.1924905
1.1924905
1.1924904
1.1924904
1.1924903
1.1924903
1.1924902
1.1924901
1.1924901
1.19249
1.19249
1.1924899
1.1924898
1.1924898
1.1924897
1.1924897
1.1924896
1.1924895
1.1924895
1.1924894
1.1924894
1.1924893
1.1924892
1.1924892
1.1924891
1.1924891
1.192489
1.1924889
1.1924889
1.1924888
1.1924888
1.1924887
1.1924886
1.1924886
1.1924885
1.1924885
1.1924884
1.1924883
1.1924883
1.1924882
1.1924881
1.1924881
1.192488
1.1924879
1.1924879
1.1924878
1.1924877
1.1924877
1.1924876
1.1924875
1.1924875
1.1924874
1.1924873
1.1924873
1.1924872
1.1924871
1.1924871
1.192487
1.1924869
1.1924869
1.1924868
1.1924867
1.1924867
1.1924866
1.1924865
1.1924864
1.1924864
1.1924863
1.1924862
1.1924862
1.1924861
1.192486
1.1924859
1.1924859
1.1924858
1.1924857
1.1924856
1.1924856
1.1924855
1.1924854
1.1924853
1.1924852
1.1924852
1.1924851
1.192485
1.1924849
1.1924848
1.1924848
1.1924847
1.1924846
1.1924845
1.1924844
1.1924843
1.1924843
1.1924842
1.1924841
1.192484
1.1924839
1.1924838
1.1924837
1.1924837
1.1924836
1.1924835
1.1924834
1.1924833
1.1924832
1.1924831
1.192483
1.1924829
1.1924828
1.1924827
1.1924826
1.1924825
1.1924825
1.1924824
1.1924823
1.1924822
1.1924821
1.192482
1.1924819
1.1924818
1.1924817
1.1924816
1.1924815
1.1924814
1.1924813
1.1924812
1.1924811
1.192481
1.1924809
1.1924808
1.1924807
1.1924806
1.1924805
1.1924804
1.1924802
1.1924801
1.19248
1.1924799
1.1924798
1.1924797
1.1924796
1.1924795
1.1924794
1.1924793
1.1924792
1.192479
1.1924789
1.1924788
1.1924787
1.1924786
1.1924785
1.1924784
1.1924783
1.1924782
1.192478
1.1924779
1.1924778
1.1924777
1.1924776
1.1924775
1.1924773
1.1924772
1.1924771
1.192477
1.1924769
1.1924767
1.1924766
1.1924765
1.1924764
1.1924762
1.1924761
1.192476
1.1924759
1.1924758
1.1924756
1.1924755
1.1924754
1.1924753
1.1924751
1.192475
1.1924749
1.1924748
1.1924746
1.1924745
1.1924744
1.1924742
1.1924741
1.192474
1.1924738
1.1924737
1.1924736
1.1924734
1.1924733
1.1924731
1.192473
1.1924728
1.1924727
1.1924726
1.1924724
1.1924723
1.1924722
1.192472
1.1924719
1.1924717
1.1924716
1.1924715
1.1924713
1.1924712
1.192471
1.1924709
1.1924707
1.1924706
1.1924704
1.1924703
1.1924701
1.19247
1.1924698
1.1924696
1.1924695
1.1924693
1.1924692
1.192469
1.1924688
1.1924687
1.1924685
1.1924683
1.1924681
1.192468
1.1924678
1.1924676
1.1924674
1.1924673
1.1924671
1.1924669
1.1924667
1.1924666
1.1924664
1.1924662
1.192466
1.1924658
1.1924656
1.1924654
1.1924652
1.192465
1.1924648
1.1924646
1.1924644
1.1924642
1.192464
1.1924638
1.1924636
1.1924634
1.1924632
1.192463
1.1924628
1.1924625
1.1924623
1.1924621
1.1924619
1.1924616
1.1924614
1.1924611
1.1924609
1.1924607
1.1924604
1.1924602
1.1924599
1.1924597
1.1924594
1.1924592
1.1924589
1.1924586
1.1924584
1.1924581
1.1924578
1.1924576
1.1924573
1.192457
1.1924568
1.1924565
1.1924562
1.1924559
1.1924556
1.1924553
1.192455
1.1924547
1.1924544
1.1924541
1.1924538
1.1924534
1.1924531
1.1924528
1.1924524
1.1924521
1.1924517
1.1924514
1.192451
1.1924507
1.1924503
1.1924499
1.1924496
1.1924492
1.1924488
1.1924484
1.192448
1.1924476
1.1924472
1.1924468
1.1924464
1.192446
1.1924455
1.1924451
1.1924447
1.1924442
1.1924438
1.1924433
1.1924428
1.1924424
1.1924419
1.1924414
1.1924409
1.1924405
1.19244
1.1924395
1.192439
1.1924385
1.192438
1.1924375
1.192437
1.1924365
1.192436
1.1924355
1.192435
1.1924345
1.1924341
1.1924336
1.1924332
1.1924327
1.1924323
1.1924319
1.1924316
1.1924312
1.1924309
1.1924306
1.1924304
1.1924302
1.19243
1.1924298
1.1924297
1.1924296
1.1924296
1.1924295
1.1924295
1.1924295
1.1924295
1.1924296
1.1924296
1.1924297
1.1924298
1.1924299
1.19243
1.19243
1.19243
1.19243
1.19243
1.19243
1.1924299
1.1924298
1.1924294
1.192429
1.1924284
1.1924278
1.1924271
1.1924263
1.1924254
1.1924245
1.1924235
1.1924225
1.1924214
1.1924203
1.1924191
1.192418
1.1924169
1.1924158
1.1924147
1.1924137
1.1924128
1.1924119
1.192411
1.1924102
1.1924095
1.1924088
1.1924082
1.1924077
1.1924072
1.1924068
1.1924065
1.1924062
1.1924058
1.1924053
1.1924044
1.1924021
1.1923963
1.1923814
1.1923437
1.1922495
1.192014
1.1914344
1.1900355
1.1880726
1.1856338
1.182768
1.1795382
1.1760233
1.1723121
1.1684976
1.1646704
1.1609138
1.1573004
1.1538894
1.1507255
1.1478387
1.1452454
1.1429501
1.140947
1.1392224
1.1377568
1.1365269
1.1355072
1.1346717
1.1339952
1.1334535
1.1330246
1.1326888
1.1324289
1.13223
1.1320795
1.131967
1.1318841
1.1318238
1.1317806
1.1317503
1.1317295
1.1317157
1.1317068
1.1317016
1.1316988
1.1316975
1.1316973
1.1316973
1.1316981
1.1317004
1.1317025
1.1317046
1.1317065
1.1317083
1.1317101
1.1317117
1.1317132
1.1317147
1.1317161
1.1317175
1.1317188
1.1317201
1.1317215
1.1317228
1.1317242
1.1317256
1.1317271
1.1317286
1.1317302
1.1317319
1.1317336
1.1317353
1.1317371
1.1317389
1.1317408
1.1317426
1.1317445
1.1317463
1.1317482
1.13175
1.1317518
1.1317535
1.1317552
1.1317568
1.1317584
1.1317599
1.1317613
1.1317627
1.131764
1.1317652
1.1317664
1.1317675
1.1317686
1.1317696
1.1317706
1.1317715
1.1317723
1.1317732
1.131774
1.1317747
1.1317755
1.1317762
1.1317768
1.1317775
1.1317781
1.1317787
1.1317793
1.1317799
1.1317805
1.131781
1.1317815
1.131782
1.1317825
1.131783
1.1317835
1.131784
1.1317845
1.1317849
1.1317854
1.1317858
1.1317862
1.1317866
1.131787
1.1317875
1.1317879
1.1317882
1.1317886
1.131789
1.1317894
1.1317897
1.1317901
1.1317905
1.1317908
1.1317912
1.1317915
1.1317918
1.1317922
1.1317925
1.1317928
1.1317931
1.1317934
1.1317937
1.131794
1.1317943
1.1317946
1.1317949
1.1317952
1.1317955
1.1317958
1.131796
1.1317963
1.1317966
1.1317968
1.1317971
1.1317973
1.1317976
1.1317978
1.1317981
1.1317983
1.1317985
1.1317988
1.131799
1.1317992
1.1317994
1.1317997
1.1317999
1.1318001
1.1318003
1.1318005
1.1318008
1.131801
1.1318012
1.1318014
1.1318016
1.1318018
1.131802
1.1318022
1.1318024
1.1318026
1.1318027
1.1318029
1.1318031
1.1318033
1.1318035
1.1318036
1.1318038
1.131804
1.1318042
1.1318043
1.1318045
1.1318047
1.1318048
1.131805
1.1318052
1.1318053
1.1318055
1.1318056
1.1318058
1.1318059
1.1318061
1.1318062
1.1318064
1.1318065
1.1318067
1.1318068
1.131807
1.1318071
1.1318072
1.1318074
1.1318075
1.1318076
1.1318078
1.1318079
1.131808
1.1318082
1.1318083
1.1318084
1.1318086
1.1318087
1.1318088
1.1318089
1.131809
1.1318092
1.1318093
1.1318094
1.1318095
1.1318096
1.1318097
1.1318099
1.13181
1.1318101
1.1318102
1.1318103
1.1318104
1.1318105
1.1318106
1.1318107
1.1318108
1.1318109
1.131811
1.1318111
1.1318112
1.1318113
1.1318115
1.1318116
1.1318117
1.1318118
1.1318119
1.1318119
1.131812
1.1318121
1.1318122
1.1318123
1.1318124
1.1318125
1.1318126
1.1318127
1.1318127
1.1318128