/*--------------------------------*- C++ -*----------------------------------*\
| =========                 |                                                 |
| \\      /  F ield         | OpenFOAM: The Open Source CFD Toolbox           |
|  \\    /   O peration     | Version:  4.x                                   |
|   \\  /    A nd           | Web:      www.OpenFOAM.org                      |
|    \\/     M anipulation  |                                                 |
\*---------------------------------------------------------------------------*/
FoamFile
{
    version     2.0;
    format      ascii;
    class       volVectorField;
    location    "0.7";
    object      U;
}
// * * * * * * * * * * * * * * * * * * * * * * * * * * * * * * * * * * * * * //

dimensions      [0 1 -1 0 0 0 0];

internalField   nonuniform List<vector> 
6273
(
(-0.0003721499879 0.0003697167412 0.0003693133026)
(-0.0003632307125 0.001087357976 0.0003784506002)
(-0.0003457986385 0.001735838798 0.0003964415302)
(-0.0003214565013 0.002273306909 0.0004228259472)
(-0.0002933192265 0.002659350173 0.0004567646356)
(-0.0002662277042 0.002865879894 0.000497900557)
(-0.0003632556241 0.0003788544623 0.001086178092)
(-0.0003539326478 0.001114498733 0.001113316533)
(-0.0003358689836 0.001780204521 0.001166893538)
(-0.0003109399203 0.002333569743 0.001245842898)
(-0.0002827009972 0.002734235649 0.001348013555)
(-0.0002561305914 0.002952026034 0.001472643681)
(-0.0003458663083 0.0003968450716 0.001733972524)
(-0.0003359120597 0.001168076527 0.001778331759)
(-0.0003169653748 0.001868328826 0.001866448936)
(-0.0002913991192 0.002454355863 0.001997697171)
(-0.0002635893031 0.002886051897 0.002169812006)
(-0.0002389602856 0.003130588942 0.002383680667)
(-0.0003215746978 0.0004232267341 0.002270878534)
(-0.0003110346562 0.001247020228 0.002331127903)
(-0.000291451864 0.001999576166 0.002451894696)
(-0.0002657758332 0.0026369206 0.002634445638)
(-0.0002394137129 0.003120235606 0.002877460244)
(-0.0002180028746 0.003413406787 0.003188221261)
(-0.0002934841301 0.0004571583631 0.002656495841)
(-0.0002828445968 0.00134917345 0.002731358676)
(-0.0002636939193 0.002171673137 0.002883139038)
(-0.0002394680724 0.002879930096 0.003117287082)
(-0.0002173536107 0.003439426312 0.00343645982)
(-0.0002031677426 0.003804635312 0.003869738424)
(-0.0002664272791 0.0004982817385 0.002862716415)
(-0.0002563123438 0.001473771316 0.002948832895)
(-0.000239107487 0.002385502181 0.003127341252)
(-0.0002181043167 0.003190660723 0.003410091317)
(-0.0002032167392 0.00387269864 0.003801270215)
(-0.0002006631589 0.004358420393 0.004354971212)
(-0.003153887857 0.0006993129273 0.0006985914755)
(-0.003096903948 0.002064810155 0.0007141485512)
(-0.002983697093 0.003319868599 0.0007446459494)
(-0.002817146253 0.004391842354 0.0007890522004)
(-0.0026062674 0.00520561507 0.0008457478966)
(-0.002367056494 0.005698149582 0.0009137431377)
(-0.003097029632 0.0007148701904 0.002062690282)
(-0.003037795395 0.002110919398 0.002108795844)
(-0.002920855755 0.003394835819 0.002199330972)
(-0.002750539686 0.004492982521 0.002331676181)
(-0.002537578574 0.005330169896 0.002501471805)
(-0.002299988053 0.005840585652 0.002705941722)
(-0.002984040346 0.000745367173 0.003316485883)
(-0.002921075126 0.002201455411 0.003391441358)
(-0.002798244431 0.003542748318 0.003539341372)
(-0.002622476078 0.004694023001 0.003757571456)
(-0.002407637568 0.005579975996 0.004040822359)
(-0.002174800015 0.006131376348 0.004387143524)
(-0.002817744566 0.000789767795 0.004387383046)
(-0.002751020263 0.002333788758 0.004488497846)
(-0.002622744201 0.00376097539 0.004689502139)
(-0.002443094056 0.004994586014 0.004990040273)
(-0.002229902047 0.005960251062 0.005385681725)
(-0.002007485665 0.006585264842 0.00588126723)
(-0.002607099176 0.0008464490762 0.005200278193)
(-0.002538304873 0.002503549615 0.005324789323)
(-0.002408169208 0.004044190636 0.005574526543)
(-0.00223017839 0.005390215813 0.005954732863)
(-0.002026783024 0.006471286384 0.006465730181)
(-0.001825730762 0.007207333902 0.00713699836)
(-0.002368061948 0.0009144198679 0.005692105657)
(-0.002300903836 0.002707955729 0.005834480475)
(-0.002175549173 0.004390431223 0.006125162898)
(-0.002008007002 0.005885732678 0.006578921286)
(-0.001825994313 0.007142530114 0.007200877182)
(-0.001661872458 0.008051729679 0.008045184672)
(-0.006958364407 0.0008384871139 0.0008376231668)
(-0.006849632586 0.002481494327 0.0008569364592)
(-0.006628082583 0.004010243226 0.0008943102164)
(-0.006289086193 0.005344060321 0.0009475550758)
(-0.005837862709 0.006392245325 0.001013679256)
(-0.005295401961 0.007066062789 0.001090127239)
(-0.006849880579 0.0008578001935 0.002478957073)
(-0.006735188182 0.002538358827 0.002535819423)
(-0.006503430417 0.004101277526 0.002645966131)
(-0.006153245187 0.005464195925 0.002803524548)
(-0.005693604358 0.006536044257 0.003000188764)
(-0.00514875597 0.007227354783 0.003229318139)
(-0.00662875829 0.0008951706907 0.00400620128)
(-0.006503862342 0.002648501249 0.004097223282)
(-0.006255145466 0.004278398715 0.004274334337)
(-0.005887136988 0.00569968549 0.004530204537)
(-0.005415680799 0.00682096402 0.00485359961)
(-0.004870302938 0.007551427887 0.005237917601)
(-0.006290254829 0.0009484051399 0.005338747511)
(-0.006154183968 0.002806036182 0.005458851764)
(-0.005887659649 0.004534255055 0.005694298287)
(-0.005502610932 0.006044790116 0.006039379201)
(-0.005023558501 0.007247443595 0.006482101504)
(-0.004485701309 0.008049859089 0.007022909013)
(-0.005839464515 0.001014507438 0.006385907824)
(-0.005695004186 0.00300264458 0.006529650237)
(-0.005416705258 0.004857589571 0.006814480349)
(-0.005024090426 0.006487484068 0.007240875201)
(-0.004552190046 0.007807021582 0.007800412956)
(-0.00404129941 0.008716680833 0.008520653762)
(-0.005297293345 0.00109092031 0.00705890344)
(-0.005150485123 0.003231679537 0.007220113114)
(-0.004871721964 0.005241786245 0.007544043984)
(-0.004486690728 0.007028183878 0.008042310655)
(-0.004041796505 0.008527215282 0.008708994253)
(-0.003580020897 0.009620019743 0.009612262741)
(-0.011141391 0.0008912207874 0.0008902609044)
(-0.01099664016 0.002644023371 0.0009151792017)
(-0.01068970825 0.00429496503 0.000962532348)
(-0.01019622421 0.005762581787 0.001028019761)
(-0.009505096696 0.006946285103 0.001106164186)
(-0.008633959939 0.007740517612 0.00119220788)
(-0.0109970386 0.0009161366769 0.002641204656)
(-0.01083893651 0.002716736002 0.002713920326)
(-0.01050848527 0.00440910891 0.002852185845)
(-0.009987963947 0.005908966557 0.003044106459)
(-0.009273829864 0.007115249488 0.003274167276)
(-0.00838996209 0.007922562092 0.003529673221)
(-0.01069079855 0.0009634814978 0.004290483018)
(-0.01050918483 0.00285498587 0.004404618999)
(-0.01013857146 0.004626940954 0.004622451637)
(-0.009573243099 0.006190181939 0.004927677605)
(-0.008823428661 0.007443319123 0.005298047102)
(-0.007923711033 0.008280797271 0.005718578322)
(-0.01019810937 0.00102895118 0.005756721851)
(-0.009989483258 0.003046864262 0.005903073803)
(-0.009574091091 0.004932132217 0.006184247437)
(-0.008961586204 0.006589790628 0.006583843887)
(-0.008179532625 0.007920150181 0.007075268142)
(-0.007275586121 0.008817579694 0.007650233666)
(-0.009507661674 0.001107063844 0.006939359718)
(-0.009276080266 0.003276841324 0.007108257058)
(-0.00882508295 0.005302406148 0.007436221617)
(-0.008180395217 0.00708115798 0.007912960149)
(-0.007390118204 0.008519779451 0.008512557526)
(-0.006514500447 0.009500205171 0.009258797199)
(-0.008636943343 0.001193059365 0.007732791902)
(-0.008392706479 0.003532216749 0.007914735118)
(-0.007925980944 0.005722766829 0.008272796358)
(-0.007277182592 0.007655965782 0.008809385852)
(-0.006515308886 0.009265937118 0.009491859586)
(-0.005711876117 0.01042280449 0.0104144033)
(-0.01546096671 0.0008821367569 0.0008811436238)
(-0.01531258606 0.002624811793 0.0009150128462)
(-0.01497318117 0.004288970996 0.0009785507201)
(-0.01437937876 0.005795989407 0.001064349603)
(-0.01348588197 0.007038736324 0.001163364364)
(-0.01229280492 0.007900704761 0.001267346439)
(-0.01531313923 0.000915999848 0.002621881436)
(-0.01513858555 0.002723095434 0.002720178233)
(-0.01475147106 0.00444126805 0.002904406334)
(-0.01410095841 0.005987394558 0.003153825076)
(-0.01315497986 0.007253678819 0.003442476968)
(-0.01192445654 0.008124119363 0.003747743908)
(-0.01497471304 0.0009795228896 0.004284276896)
(-0.01475246207 0.00290728945 0.004436577965)
(-0.01428198683 0.004727094367 0.004722427092)
(-0.01353423072 0.006348283067 0.005112188644)
(-0.01250055378 0.007662156606 0.005567345207)
(-0.01120966493 0.008552296915 0.006057687735)
(-0.01438205785 0.001065295469 0.005789818663)
(-0.01410313378 0.003156642384 0.005981198186)
(-0.01353545855 0.005116791053 0.00634205986)
(-0.01267750797 0.006845683998 0.006839472993)
(-0.01154852448 0.00823543216 0.007424808213)
(-0.01020259012 0.009169554789 0.008072678914)
(-0.01348955258 0.001164268091 0.007031439522)
(-0.0131582279 0.003445182928 0.007246311421)
(-0.01250297467 0.005571814786 0.007654681609)
(-0.01154980992 0.007430927002 0.008227870772)
(-0.01035110443 0.008922030652 0.008914455452)
(-0.008993028414 0.009908103543 0.009728895259)
(-0.01229708504 0.001268193249 0.007892617715)
(-0.01192843782 0.003750292924 0.008115916045)
(-0.01121301893 0.006061947309 0.008543897976)
(-0.01020500412 0.008078591975 0.009160945348)
(-0.008994273671 0.00973634414 0.009899335039)
(-0.007740011903 0.01088706341 0.01087830659)
(-0.01958667421 0.0007995795128 0.000798679923)
(-0.01948387529 0.002388642159 0.0008435623674)
(-0.01919668125 0.003928908904 0.000927487074)
(-0.01860180805 0.005344746483 0.001039709559)
(-0.01760652986 0.006528047627 0.00116804909)
(-0.01618549867 0.007366751503 0.001301180724)
(-0.01948452127 0.000844451602 0.002385954044)
(-0.01933671194 0.002518810373 0.002516148294)
(-0.0189653095 0.004130215001 0.002759033216)
(-0.01826948166 0.005596733955 0.003084678374)
(-0.01717753779 0.006810637186 0.003458425814)
(-0.01568225005 0.007661266164 0.003849528627)
(-0.01919851485 0.0009283537168 0.003924514253)
(-0.0189665122 0.002761639846 0.004125841107)
(-0.01844736408 0.004505552632 0.004501228799)
(-0.01757668393 0.006069665882 0.005008244469)
(-0.01632062114 0.007346374979 0.005595923421)
(-0.01470515618 0.008223457147 0.006218654601)
(-0.01860509774 0.00104054221 0.005338851234)
(-0.01827218578 0.003087195908 0.005590823608)
(-0.01757824107 0.005012470647 0.006063747124)
(-0.01650551153 0.006715654459 0.006709773975)
(-0.01506862912 0.00808778031 0.007461858326)
(-0.01333799952 0.009010007147 0.008266617778)
(-0.01761113606 0.001168832017 0.006520961224)
(-0.01718166733 0.003460809003 0.006803474715)
(-0.01632376653 0.005599982177 0.007339098536)
(-0.01507034418 0.007467611973 0.008080420081)
(-0.01348559152 0.00895371979 0.008946367318)
(-0.01169273872 0.009903145474 0.009911195576)
(-0.01619097903 0.001301903374 0.007358832441)
(-0.01568742257 0.003851742848 0.007653205604)
(-0.01470961805 0.006222481307 0.008215164362)
(-0.01334130124 0.008272137909 0.009001478019)
(-0.01169448613 0.009918390654 0.009894469358)
(-0.009916604707 0.01098677328 0.01097815712)
(-0.0002433812743 0.000544116866 0.002859415537)
(-0.0002358708 0.001614349306 0.002958628289)
(-0.0002235079202 0.002633026543 0.003161692137)
(-0.0002081241267 0.003558592545 0.003487013717)
(-0.0002063863718 0.004417671558 0.003962742434)
(-0.0001793674587 0.004902110781 0.004620362886)
(-0.0002324356223 0.0005923945122 0.002669278077)
(-0.0002275102163 0.001767415225 0.002767381918)
(-0.0002224434654 0.002910740829 0.002979316995)
(-0.0002210034907 0.003994903954 0.003333719318)
(-0.0002402506749 0.005038761018 0.003888509462)
(-0.0002408396832 0.005920546584 0.004682323927)
(-0.0002334572602 0.0006440087536 0.002285469496)
(-0.0002328231741 0.001927822254 0.002380334382)
(-0.0002386859083 0.003202049645 0.002589646064)
(-0.0002591819021 0.004465054091 0.002950592822)
(-0.0003146906715 0.005746405235 0.003543406454)
(-0.0003678119773 0.006976362018 0.004483948299)
(-0.0002442465578 0.0006910716438 0.001749265917)
(-0.0002494008969 0.002077370282 0.001830882657)
(-0.0002684283432 0.003483763794 0.002013988229)
(-0.0003146584768 0.004943630516 0.002338993042)
(-0.0004125239001 0.006512375306 0.002902912162)
(-0.0005577691837 0.008281618606 0.003853425544)
(-0.0002594622937 0.0007281399061 0.001096180829)
(-0.0002700941292 0.00219682756 0.001152445236)
(-0.0003013435012 0.003714434006 0.00128059954)
(-0.0003704133515 0.00535100252 0.001510546384)
(-0.0005087441804 0.007182404255 0.001928920485)
(-0.0007469779888 0.009485937453 0.002653515932)
(-0.0002703760391 0.0007489890103 0.0003715354777)
(-0.0002842651014 0.002264519164 0.000391823843)
(-0.0003227336763 0.003847180906 0.0004384414678)
(-0.0004054587702 0.005592078864 0.000522217597)
(-0.0005673916479 0.007583231271 0.0006789631947)
(-0.0008649660465 0.01024220409 0.0009527247849)
(-0.0002704154122 0.0007490316077 -0.0003769973497)
(-0.0002842983664 0.002264644562 -0.000397133514)
(-0.0003227537461 0.003847373477 -0.0004434595384)
(-0.0004054646986 0.005592329815 -0.0005268280871)
(-0.0005673811935 0.007583510351 -0.0006830706617)
(-0.0008649348218 0.01024250246 -0.0009563835356)
(-0.0002595781577 0.0007282639355 -0.00110144972)
(-0.0002701933823 0.002197190881 -0.001157573531)
(-0.0003014076799 0.003715001434 -0.001285457829)
(-0.0003704412605 0.005351748609 -0.001515033016)
(-0.0005087252547 0.007183239053 -0.001932936752)
(-0.000746904648 0.009486866024 -0.002657105336)
(-0.000244437253 0.0006912631902 -0.001754174955)
(-0.0002495684485 0.002077933414 -0.001835673306)
(-0.0002685507179 0.003484657206 -0.00201855847)
(-0.0003147264017 0.004944801809 -0.002343246166)
(-0.0004125224342 0.006513691795 -0.00290675923)
(-0.0005576980838 0.008283130424 -0.00385688267)
(-0.0002337093822 0.0006442506116 -0.002289894182)
(-0.0002330543701 0.001928534481 -0.00238466819)
(-0.0002388699362 0.003203190125 -0.002593808122)
(-0.0002593063609 0.00446657205 -0.002954501042)
(-0.0003147352893 0.005748135461 -0.003546975078)
(-0.0003677807082 0.006978456262 -0.004487154834)
(-0.000232747311 0.0005926653014 -0.002673114485)
(-0.0002278032487 0.001768229643 -0.002771157303)
(-0.0002226942902 0.002912062497 -0.002982969067)
(-0.0002211968536 0.003996687853 -0.003337184434)
(-0.0002403603769 0.005040823332 -0.003891699157)
(-0.0002408759459 0.005923099565 -0.004685196922)
(-0.0002437372846 0.0005444198571 -0.002862575411)
(-0.0002362111134 0.001615242392 -0.002961764979)
(-0.0002238099052 0.002634474177 -0.00316474704)
(-0.0002083777041 0.003560567916 -0.003489928252)
(-0.0002065681054 0.004419969864 -0.003965461256)
(-0.000179467047 0.004904930052 -0.004622735309)
(-0.002123006868 0.0009906116407 0.005792583941)
(-0.002063553328 0.002937880188 0.005954856308)
(-0.001951940055 0.004787687874 0.006280446746)
(-0.001804460231 0.006470650756 0.00679162847)
(-0.001654572907 0.007985397547 0.007515833536)
(-0.001533992033 0.00903586384 0.008511813668)
(-0.00192129937 0.001065810956 0.005513643691)
(-0.001864072048 0.003176774001 0.005672253135)
(-0.001767904821 0.005218730213 0.006003487775)
(-0.00165306265 0.007124388094 0.006542490907)
(-0.001562855065 0.008906964432 0.007342927608)
(-0.001482437222 0.01038592705 0.008496711929)
(-0.001749571444 0.001148034645 0.004816087218)
(-0.001706518237 0.003428747819 0.004963529485)
(-0.001640009604 0.005661503362 0.005284385606)
(-0.001570504717 0.007806501057 0.005814932671)
(-0.001550877694 0.009881576639 0.006640402459)
(-0.001552743001 0.01177037178 0.007905903644)
(-0.001638632152 0.001222474658 0.003746499565)
(-0.001611224292 0.003659362693 0.003873336275)
(-0.001576319012 0.006079239243 0.004149794143)
(-0.001556185074 0.008473400015 0.004615212548)
(-0.001613904178 0.0108601649 0.005377159712)
(-0.001733459519 0.01330797891 0.006601329525)
(-0.001583179328 0.001280219276 0.002377916806)
(-0.001568551026 0.003841445782 0.002464801407)
(-0.001559945245 0.006414967956 0.002655795803)
(-0.001580941533 0.009029492159 0.002981328601)
(-0.00170406913 0.01168289424 0.003539508393)
(-0.001938965899 0.01468813782 0.00446179492)
(-0.001563599588 0.001312597715 0.000811756019)
(-0.001556172194 0.003944413511 0.0008430038792)
(-0.001561779319 0.006605498167 0.0009119635282)
(-0.001605975308 0.009355667287 0.001029998224)
(-0.001762712363 0.01216456404 0.001238499147)
(-0.002064191464 0.01554465327 0.001586559418)
(-0.001563995398 0.001312665583 -0.0008230665631)
(-0.001556539609 0.003944613035 -0.000854072808)
(-0.001562096015 0.00660581779 -0.0009225642302)
(-0.001606218622 0.009356072977 -0.001039947498)
(-0.001762872708 0.01216501585 -0.001247659443)
(-0.002064279915 0.01554513352 -0.001595056626)
(-0.001584312548 0.001280416803 -0.002388663789)
(-0.001569606062 0.003842025431 -0.002475325567)
(-0.001560856406 0.006415890442 -0.002665893003)
(-0.00158166317 0.009030687692 -0.002990817549)
(-0.001704562429 0.01168424173 -0.003548226523)
(-0.001939249715 0.01468963493 -0.004469809589)
(-0.001640380047 0.001222778765 -0.003756246916)
(-0.001612863918 0.003660261091 -0.0038828981)
(-0.001577752822 0.006080666723 -0.004158996737)
(-0.001557360789 0.008475287819 -0.004623893079)
(-0.001614760622 0.01086231536 -0.005385134858)
(-0.001734011738 0.01331049451 -0.006608571271)
(-0.001751801796 0.001148409394 -0.004824623137)
(-0.001708628302 0.003429872764 -0.004971912663)
(-0.001641895185 0.005663334947 -0.005292466311)
(-0.001572097188 0.007808964466 -0.005822585176)
(-0.001552123196 0.009884448649 -0.006647441929)
(-0.001553667572 0.01177392361 -0.007912228978)
(-0.001923842403 0.001066249962 -0.005520688783)
(-0.00186650424 0.003178101604 -0.005679215059)
(-0.001770152267 0.005220873965 -0.006010294602)
(-0.001655033355 0.007127307815 -0.006548975225)
(-0.001564487142 0.008910429836 -0.007348918984)
(-0.001483746865 0.01039029516 -0.008502053015)
(-0.002125688258 0.0009911000212 -0.005798286586)
(-0.002066188406 0.002939315918 -0.005960500282)
(-0.001954428103 0.004790051089 -0.006285925126)
(-0.001806718925 0.006473906733 -0.006796856859)
(-0.001656528446 0.00798932617 -0.007520700514)
(-0.001535598246 0.009040775042 -0.008516045675)
(-0.004708717133 0.001174034002 0.00727810859)
(-0.004564982518 0.003483089584 0.007449553545)
(-0.004298400556 0.005673657134 0.007799071115)
(-0.003939159123 0.007651569383 0.008349603285)
(-0.003554430568 0.009423099154 0.009109097424)
(-0.003170188941 0.01066289045 0.01016893656)
(-0.004123441328 0.001259261448 0.006989036702)
(-0.003989898408 0.003744740576 0.007161094138)
(-0.003747855688 0.00613269752 0.007518159496)
(-0.003429627781 0.008334974262 0.008091939992)
(-0.003122062356 0.01039955262 0.008926848308)
(-0.002805993758 0.0120177345 0.01016348181)
(-0.003592491482 0.001344403581 0.006169157396)
(-0.00347482797 0.004006918089 0.006331343279)
(-0.003265429726 0.006597145126 0.006673786381)
(-0.002996523179 0.009048913291 0.007236234154)
(-0.002755887727 0.0114332898 0.008102766153)
(-0.002493263036 0.01346945756 0.009471656838)
(-0.003169045654 0.001422197232 0.004846774908)
(-0.003067265437 0.00424896419 0.004984080524)
(-0.002890160309 0.007036224586 0.005278986676)
(-0.002663403283 0.009752023922 0.005775773503)
(-0.002477386268 0.01247539183 0.00658604547)
(-0.002245788289 0.01509779982 0.007931298105)
(-0.0028816571 0.001483616816 0.003098745274)
(-0.00279211196 0.004442243405 0.003193004246)
(-0.002640377696 0.007394990849 0.003398754063)
(-0.002440306734 0.01035129165 0.003752039939)
(-0.002278087607 0.01336368974 0.004356237941)
(-0.002038714799 0.01661160497 0.005392654421)
(-0.002738451819 0.001518482615 0.001062183407)
(-0.002655194702 0.004553059978 0.001096237273)
(-0.002515674293 0.007602905842 0.001171367787)
(-0.002325997077 0.01071374885 0.001301473483)
(-0.002153904909 0.01389329512 0.001529895966)
(-0.00188170189 0.01759661336 0.001927236167)
(-0.002739491445 0.001518565445 -0.001076874579)
(-0.002656179412 0.004553302248 -0.00111063016)
(-0.002516554728 0.007603283342 -0.001185185345)
(-0.002326736677 0.01071421115 -0.001314516102)
(-0.002154513915 0.01389381092 -0.001541954833)
(-0.001882216459 0.01759716258 -0.001938478484)
(-0.002884564039 0.001483856212 -0.003112442502)
(-0.002794866922 0.004442946592 -0.00320643761)
(-0.002642834977 0.007396082784 -0.003411670283)
(-0.002442395823 0.0103526741 -0.003764218478)
(-0.002279807097 0.01336525803 -0.004367484107)
(-0.002040155693 0.01661336298 -0.005403041725)
(-0.003173348575 0.001422561884 -0.004858805774)
(-0.003071365657 0.004250041191 -0.004995912039)
(-0.002893862623 0.007037920828 -0.005290415664)
(-0.002666642089 0.009754255328 -0.005786591855)
(-0.002480035215 0.01247792613 -0.006596012265)
(-0.00224802057 0.01510078205 -0.007940404703)
(-0.003597721564 0.001344853136 -0.006179246002)
(-0.003479847363 0.004008257489 -0.006341299125)
(-0.003270047476 0.006599307075 -0.006683466675)
(-0.003000593816 0.009051814765 -0.00724545628)
(-0.002759359192 0.01143666543 -0.008111309528)
(-0.002496215216 0.01347361425 -0.009479345862)
(-0.004129206474 0.001259765752 -0.006997129848)
(-0.003995483712 0.003746248064 -0.00716910976)
(-0.003753095806 0.006135165244 -0.007526008314)
(-0.003434366031 0.008338357467 -0.008099487833)
(-0.003126221257 0.01040358483 -0.008933892842)
(-0.002809632593 0.01202284605 -0.0101697581)
(-0.004714664831 0.001174568578 -0.00728427506)
(-0.00457081442 0.003484689189 -0.007455680578)
(-0.004303991344 0.005676304555 -0.007805101222)
(-0.003944360207 0.007655268906 -0.008355436682)
(-0.003559091285 0.009427633845 -0.009114597316)
(-0.003174291203 0.01066860552 -0.01017372807)
(-0.007639576804 0.001282016847 0.00803812121)
(-0.007396003611 0.003798726514 0.008223849428)
(-0.006940199335 0.006173041942 0.008595255117)
(-0.006324267863 0.008282368936 0.00916882015)
(-0.005657492449 0.01016414836 0.009918071399)
(-0.004981969643 0.01137803591 0.01098470555)
(-0.006598825502 0.00137003509 0.007779133696)
(-0.006368682064 0.004065619475 0.00796020364)
(-0.005948231581 0.00663475641 0.008329908036)
(-0.005397495721 0.008950665772 0.008915166527)
(-0.00485722536 0.01112312122 0.009733220067)
(-0.004307787836 0.01265078219 0.01096485383)
(-0.005611208859 0.001454222504 0.006918576638)
(-0.005404431094 0.004324440322 0.007086120199)
(-0.005036120745 0.007092706422 0.007436017761)
(-0.004572348294 0.009650985319 0.008007849229)
(-0.004148589235 0.01214999534 0.008867256203)
(-0.003689791521 0.01404914949 0.010235661)
(-0.004778600566 0.001530521279 0.005471101149)
(-0.004598432786 0.004562242321 0.005612600787)
(-0.004287877851 0.007528321102 0.00591392404)
(-0.003900237469 0.01034956277 0.006427132472)
(-0.003572271752 0.01319726468 0.007247596967)
(-0.003163665103 0.01568005961 0.008630500695)
(-0.004182221632 0.001591459407 0.003515795093)
(-0.004024117926 0.004754328659 0.003613841361)
(-0.003761712513 0.007895105385 0.00382686021)
(-0.00341507827 0.01096455426 0.004201397749)
(-0.003136166675 0.01412629497 0.004839836618)
(-0.002694401093 0.01734258737 0.005974964242)
(-0.00387337759 0.001626777802 0.001208527166)
(-0.003727601791 0.004867347619 0.00124429702)
(-0.003489433883 0.008115982659 0.001323241127)
(-0.003151581938 0.01135512151 0.00146353657)
(-0.002867204332 0.01472300328 0.001716369489)
(-0.00233578318 0.01856063598 0.002172243382)
(-0.003875346388 0.001626877736 -0.001225564043)
(-0.003729459253 0.004867639176 -0.001260981504)
(-0.003491084856 0.008116425657 -0.001339236416)
(-0.003153011115 0.01135570654 -0.001478617699)
(-0.002868389491 0.01472364952 -0.001730276596)
(-0.002336792578 0.01856128669 -0.002185069403)
(-0.004187632919 0.001591748615 -0.003531258275)
(-0.004029231558 0.00475518205 -0.003629010526)
(-0.003766238322 0.007896389541 -0.003841443235)
(-0.003419022198 0.01096623513 -0.004215186821)
(-0.00313941989 0.01412827796 -0.004852542449)
(-0.002697151421 0.01734466618 -0.005986570841)
(-0.004786356529 0.001530952997 -0.005484082422)
(-0.004605811725 0.004563520681 -0.005625389456)
(-0.004294496274 0.007530287996 -0.005926325784)
(-0.003905968322 0.01035213954 -0.006438887129)
(-0.003577067725 0.01320031715 -0.007258515286)
(-0.003167624072 0.01568348018 -0.008640337991)
(-0.005620268216 0.001454741231 -0.006928885068)
(-0.005413124062 0.004325976123 -0.007096342423)
(-0.005044100505 0.007095173959 -0.007446055828)
(-0.004579320999 0.009654263682 -0.00801749859)
(-0.004154541817 0.01215383949 -0.008876287385)
(-0.003694893312 0.0140538744 -0.01024388562)
(-0.00660847612 0.001370587976 -0.00778692297)
(-0.006378048707 0.004067268593 -0.007967989464)
(-0.005957031411 0.006637458127 -0.008337654221)
(-0.005405438114 0.00895435307 -0.008922764218)
(-0.004864240516 0.0111275582 -0.009740420332)
(-0.004313885236 0.01265637899 -0.01097136351)
(-0.007649249263 0.001282564165 -0.008043624658)
(-0.007405518418 0.003800372207 -0.008229394708)
(-0.006949370794 0.006175792451 -0.00860084954)
(-0.006332865501 0.008286257865 -0.0091743962)
(-0.005665277313 0.01016896692 -0.009923464932)
(-0.004988860441 0.01138411035 -0.01098949276)
(-0.01086023816 0.001369340815 0.008262419844)
(-0.01047415129 0.004048624097 0.008480239272)
(-0.00973803727 0.006552498157 0.008902457927)
(-0.008734672922 0.008729249633 0.009530393434)
(-0.007639161377 0.01065404267 0.01029079281)
(-0.006553840358 0.01169129627 0.01135826569)
(-0.009286536191 0.001462250795 0.008051465932)
(-0.008903792592 0.00432590406 0.008252887596)
(-0.008187385116 0.007021614455 0.008651626078)
(-0.007246977245 0.009379424678 0.00926347938)
(-0.00633876421 0.01157192692 0.01003110366)
(-0.005349127169 0.01284826341 0.01121340905)
(-0.00772599336 0.001544469354 0.00720661456)
(-0.007363405755 0.004576007596 0.007383077335)
(-0.006699739857 0.007460934593 0.007741536902)
(-0.005897743612 0.01003084905 0.008309958848)
(-0.005076742861 0.01252580316 0.009085006544)
(-0.004226169162 0.0141708326 0.01041096829)
(-0.006352532547 0.001614230383 0.005728862085)
(-0.006019453654 0.004792273931 0.005871847433)
(-0.005428676644 0.007857558872 0.006169915359)
(-0.004707362089 0.01065059502 0.006652768478)
(-0.004009675472 0.01353187728 0.007418702191)
(-0.003264021393 0.0158207739 0.008869484181)
(-0.005331728905 0.00166867772 0.003695051045)
(-0.00502644286 0.00496489952 0.003791598679)
(-0.004513266142 0.008197085589 0.003999760679)
(-0.003787115741 0.01121741205 0.004355054264)
(-0.003175032099 0.01453837183 0.004998103194)
(-0.002422779715 0.01776776091 0.00631763973)
(-0.004789179416 0.001699672913 0.001272450728)
(-0.004498785355 0.005065673837 0.001306970676)
(-0.004011678522 0.008402041848 0.001383022012)
(-0.003273922611 0.01161378496 0.001520935243)
(-0.00265980049 0.01527226853 0.001788500935)
(-0.001796526487 0.01944329654 0.002355470198)
(-0.004792585837 0.001699802232 -0.001290516403)
(-0.004502016236 0.005066055293 -0.001324624233)
(-0.004014647172 0.008402662893 -0.001399825269)
(-0.003276517604 0.01161454051 -0.001536451092)
(-0.002661858294 0.0152730811 -0.001802555436)
(-0.001798287486 0.019443859 -0.00236803047)
(-0.005340879277 0.00166903624 -0.003710921769)
(-0.005035088731 0.004965958298 -0.003807189957)
(-0.004520867602 0.00819876094 -0.004014794661)
(-0.003794085297 0.01121957492 -0.004369041959)
(-0.003180704595 0.01454071452 -0.005010783986)
(-0.0024273901 0.01776972509 -0.006328923139)
(-0.006365128859 0.001614738895 -0.005741392736)
(-0.006031429749 0.004793780211 -0.00588425376)
(-0.005439205843 0.007859924349 -0.006182044818)
(-0.004717035554 0.01065382669 -0.006664367162)
(-0.004017682281 0.01353550341 -0.007429428674)
(-0.003270530615 0.01582431704 -0.008879179691)
(-0.007740011696 0.001545056951 -0.007215804373)
(-0.007376883658 0.004577752706 -0.007392288827)
(-0.00671213007 0.007463759992 -0.007750768662)
(-0.005908466704 0.01003463229 -0.008319202825)
(-0.005086296361 0.01253029568 -0.009093782042)
(-0.004234203672 0.01417561405 -0.01041893425)
(-0.00930080074 0.001462834295 -0.008057798828)
(-0.008917689828 0.004327649572 -0.00825934885)
(-0.008200515715 0.007024487249 -0.008658296883)
(-0.007258845615 0.009383383564 -0.009270344921)
(-0.006349600637 0.01157679064 -0.01003792734)
(-0.005358666032 0.01285381413 -0.01121973475)
(-0.01087397713 0.001369865078 -0.008266371672)
(-0.01048774757 0.004050211743 -0.008484354256)
(-0.009751290634 0.006555182165 -0.00890684953)
(-0.00874726922 0.008733055851 -0.00953506959)
(-0.007650520041 0.0106588918 -0.01029565059)
(-0.006564462646 0.01169716711 -0.01136285659)
(-0.01439705046 0.001430268561 0.007751087903)
(-0.01385263417 0.004228609678 0.00803972363)
(-0.01281714118 0.006826323638 0.008592468248)
(-0.01142402383 0.009029608021 0.009375259013)
(-0.009776413234 0.01089107955 0.01024347802)
(-0.008219262098 0.01159907076 0.01130312746)
(-0.01235728245 0.001546229524 0.007612713471)
(-0.01180951656 0.004570445798 0.007879348292)
(-0.01078681105 0.007381429781 0.008395759961)
(-0.00946164237 0.009739543824 0.009144199911)
(-0.007955790104 0.01176103377 0.009922330961)
(-0.006814770162 0.01238342624 0.01108592328)
(-0.0102666296 0.001645798512 0.006878362414)
(-0.009749427383 0.004867982324 0.007109294476)
(-0.008798964332 0.007883553112 0.007566742622)
(-0.00758297518 0.01039418941 0.008250754714)
(-0.006411628222 0.01268171019 0.009007205442)
(-0.005737418952 0.01328694141 0.01027878212)
(-0.008371163472 0.001727200758 0.005521974055)
(-0.007904998088 0.005117553772 0.005705647624)
(-0.007049582658 0.008325116216 0.006085776555)
(-0.006062097085 0.01098678029 0.006629358563)
(-0.005294415194 0.01366378802 0.007429269045)
(-0.005167127924 0.01448656658 0.008911682549)
(-0.006930037498 0.001789561421 0.003592413733)
(-0.006516101364 0.005319602472 0.00371520246)
(-0.005744986411 0.008687437377 0.003980061283)
(-0.005001650138 0.01158469616 0.004402773541)
(-0.004600004421 0.01476995537 0.005131269525)
(-0.005024010007 0.01642163279 0.006678695513)
(-0.006152389434 0.001826300632 0.001243834768)
(-0.005770649116 0.005444698701 0.001287704723)