/*--------------------------------*- C++ -*----------------------------------*\
  =========                 |
  \\      /  F ield         | OpenFOAM: The Open Source CFD Toolbox
   \\    /   O peration     | Website:  https://openfoam.org
    \\  /    A nd           | Version:  7
     \\/     M anipulation  |
\*---------------------------------------------------------------------------*/
FoamFile
{
    version     2.0;
    format      ascii;
    class       volScalarField;
    location    "0.00067";
    object      Uy;
}
// * * * * * * * * * * * * * * * * * * * * * * * * * * * * * * * * * * * * * //

dimensions      [0 1 -1 0 0 0 0];

internalField   nonuniform List<scalar> 
5000
(
6.079764e-28
8.106352e-28
0
0
-4.053176e-28
-1.1519819e-43
-5.06647e-29
0
0
-5.573117e-28
-8.106352e-28
4.559823e-28
4.559823e-28
2.026588e-28
0
-2.026588e-28
7.806133e-56
1.519941e-28
0
-5.573117e-28
1.519941e-28
-4.559823e-28
5.06647e-28
-5.8326867e-43
1.519941e-28
-8.3518688e-43
-1.519941e-28
-5.06647e-28
3.039882e-28
-3.5135448e-42
2.6567583e-42
4.053176e-28
7.093058e-28
-2.026588e-28
-3.5135448e-42
3.9656977e-41
5.2703172e-42
-6.079764e-28
1.1146234e-27
1.1146234e-27
-1.3172822e-27
4.5301688e-41
8.106352e-28
5.06647e-29
7.599705e-28
5.06647e-29
1.519941e-28
-1.3881382e-41
4.053176e-28
0
1.013294e-28
4.3199321e-44
-1.519941e-28
-1.013294e-28
3.5423443e-42
6.079764e-28
-2.533235e-28
3.499145e-42
-1.013294e-28
0
-2.64237e-42
-1.3823783e-41
-1.4399774e-44
3.039882e-28
-3.039882e-28
8.8558609e-42
5.06647e-29
-1.013294e-28
-3.039882e-28
2.533235e-28
-3.6761403e-42
2.026588e-28
1.519941e-28
4.053176e-28
5.573117e-28
-4.559823e-28
0
-4.053176e-28
-7.1998869e-45
-3.546529e-28
5.06647e-29
1.4399774e-43
-1.7279728e-43
-3.039882e-28
-1.013294e-28
3.6105947e-56
1.013294e-28
0
-4.053176e-28
-3.6791422e-41
-1.4169377e-41
3.546529e-28
3.039882e-28
-6.079764e-28
-7.0126898e-42
5.06647e-29
0
0
2.026588e-28
-6.4503012e-56
1.013294e-28
-3.546529e-28
1.3772974e-42
0
-2.026588e-28
-5.573117e-28
4.053176e-28
1.013294e-28
0
0
-6.079764e-28
-3.039882e-28
0
5.06647e-29
-7.0846887e-42
-3.546529e-28
4.053176e-28
6.2407944e-55
8.8558609e-42
9.7576662e-57
-1.2159528e-27
2.3759627e-43
1.519941e-28
0
-3.039882e-28
5.06647e-28
3.546529e-28
-6.079764e-28
1.013294e-28
-1.1146234e-27
-6.586411e-28
5.06647e-28
1.1807432e-41
-2.533235e-28
0
-4.053176e-28
-2.533235e-28
3.546529e-28
1.7567724e-42
3.039882e-28
-1.519941e-28
-3.546529e-28
0
9.119646e-28
4.559823e-28
-5.573117e-28
8.106352e-28
-3.4559457e-43
-3.039882e-28
5.06647e-29
1.013294e-28
-2.1167667e-41
-1.013294e-28
-2.533235e-28
6.8242525e-42
-6.8006599e-42
-5.573117e-28
0
0
-1.519941e-28
-1.013294e-28
1.519941e-28
3.546529e-28
-4.053176e-28
-2.4594814e-41
1.013294e-28
-1.7319515e-42
3.039882e-28
0
3.546529e-28
2.533235e-28
0
7.093058e-28
7.093058e-28
0
-1.013294e-27
-1.3702825e-40
2.026588e-28
2.4375614e-42
3.8487812e-42
2.533235e-28
4.898803e-41
-5.2271179e-41
-1.5119762e-43
-1.013294e-28
5.06647e-29
1.4054179e-41
2.0908471e-41
-1.7423726e-41
-5.06647e-29
0
0
-5.06647e-29
2.533235e-28
0
0
1.519941e-28
1.4636499e-56
-2.7560309e-41
0
-5.9817626e-42
-4.559823e-28
-1.2635801e-40
2.026588e-28
-3.546529e-28
-1.0519035e-40
-7.1998869e-44
-1.519941e-28
-2.026588e-28
1.4399774e-44
7.0126898e-42
1.402538e-41
-4.559823e-28
0
5.06647e-29
-2.8050759e-41
-1.2655241e-40
-2.533235e-28
0
6.2229188e-43
-1.519941e-28
0
0
0
-5.06647e-28
-1.7531725e-41
1.519941e-28
0
0
-5.06647e-28
-3.039882e-28
2.533235e-28
4.559823e-28
0
-2.533235e-28
3.039882e-28
5.06647e-29
1.519941e-28
0
1.519941e-28
-2.8137158e-41
-1.7567724e-41
3.546529e-28
-1.013294e-28
-3.039882e-28
0
6.586411e-28
-9.8580851e-41
7.093058e-28
4.9189627e-41
2.026588e-28
-4.053176e-28
7.0270896e-41
7.0357295e-41
7.0126898e-42
3.546529e-28
-3.039882e-28
2.12938e-41
0
-7.093058e-28
-3.039882e-28
0
-3.039882e-28
-1.6413216e-41
-5.06647e-28
-1.013294e-28
-2.026588e-28
-1.3911508e-41
-2.8108358e-41
1.6014484e-42
2.026588e-28
1.4054179e-41
1.013294e-28
1.013294e-28
-1.0562234e-41
1.0583834e-41
7.1998869e-44
2.4494015e-41
-2.026588e-28
0
0
-5.573117e-28
-7.599705e-28
0
0
0
0
-2.533235e-28
-3.4919451e-41
1.519941e-27
-4.3199321e-43
-6.079764e-28
-3.039882e-28
7.0342895e-41
2.8079559e-41
1.4399774e-44
-5.06647e-29
3.546529e-28
7.093058e-28
-5.06647e-28
1.519941e-28
-7.4357466e-42
3.039882e-28
0
2.026588e-28
-1.013294e-28
1.013294e-28
1.4399774e-44
-1.2959796e-43
1.1519819e-43
4.559823e-28
6.586411e-28
-2.026588e-28
-3.039882e-28
2.026588e-28
-9.7576662e-57
2.533235e-28
1.4039779e-40
-7.093058e-28
0
0
-1.3172822e-27
1.9696011e-40
1.1146234e-27
0
1.519941e-28
1.4753661e-42
1.519941e-28
-1.4399774e-44
7.0342895e-42
-9.3096019e-59
2.533235e-28
-1.519941e-28
-1.519941e-28
0
2.533235e-28
3.5171447e-41
5.06647e-28
-5.06647e-28
5.6216717e-41
-1.519941e-28
-5.6274316e-41
5.06647e-28
-1.013294e-27
-2.026588e-28
-3.039882e-28
-6.4798982e-44
-2.026588e-28
0
0
-4.559823e-28
2.1081269e-41
-1.2159528e-27
1.0079842e-43
-3.039882e-28
5.06647e-28
3.039882e-28
-7.093058e-28
3.546529e-28
-4.053176e-28
-7.093058e-28
1.519941e-28
1.013294e-28
1.519941e-28
-1.519941e-28
-9.7576662e-57
-1.013294e-28
2.026588e-28
1.519941e-28
-2.026588e-28
3.3292073e-54
5.7599095e-44
-5.06647e-29
1.1146234e-27
-1.519941e-28
7.0342895e-41
-1.2648761e-40
-5.06647e-29
5.06647e-28
6.079764e-28
-2.8108358e-41
2.8108358e-40
-1.4039779e-40
5.06647e-28
-3.039882e-28
9.8379254e-41
-4.053176e-28
0
0
-5.06647e-29
1.4054179e-41
-1.013294e-28
-1.519941e-28
-5.06647e-29
3.039882e-28
-2.533235e-28
-1.013294e-28
1.4399774e-44
-2.533235e-28
0
1.2159528e-27
1.2159528e-27
-7.599705e-28
-1.1146234e-27
2.026588e-28
-1.2159528e-27
-9.119646e-28
1.2159528e-27
1.4186116e-27
0
-5.06647e-28
4.559823e-28
9.119646e-28
-1.013294e-28
2.533235e-28
-7.1998869e-44
9.8480053e-41
5.573117e-28
-5.06647e-29
1.519941e-28
5.06647e-29
-3.5135448e-41
1.4399774e-44
4.9189627e-41
2.533235e-28
-5.573117e-28
2.7433729e-40
4.9240026e-41
-2.8122758e-41
-1.519941e-28
5.06647e-29
7.0342895e-42
5.6187917e-41
7.1998869e-45
-1.013294e-28
-2.533235e-28
4.053176e-28
1.013294e-28
2.1102868e-41
-6.079764e-28
-5.06647e-28
4.053176e-28
1.4424679e-41
-4.053176e-28
-8.106352e-28
-1.4061379e-40
1.519941e-28
0
0
-4.559823e-28
0
5.06647e-29
-1.519941e-28
-1.4399774e-44
-1.4061379e-41
0
4.053176e-28
-2.026588e-28
-3.039882e-28
1.013294e-27
3.546529e-28
1.013294e-28
0
0
-2.026588e-28
-4.2227337e-41
2.026588e-28
0
0
-2.026588e-28
1.4777048e-40
-5.8013179e-41
0
0
0
0
0
0
0
0
9.3689136e-42
1.4061379e-40
5.06647e-29
-3.546529e-28
-2.533235e-28
5.06647e-28
-8.4497872e-41
-5.06647e-28
-1.2661721e-40
-5.06647e-29
0
0
-2.533235e-28
-1.1254863e-40
4.559823e-28
0
0
0
0
0
0
0
-1.013294e-28
-4.2176937e-41
1.013294e-28
-7.6975624e-43
2.8799547e-44
3.039882e-28
-2.2475167e-40
-1.013294e-27
-1.013294e-28
9.7576662e-57
-4.559823e-28
0
-2.8145959e-41
0
0
3.039882e-28
-4.2162538e-41
1.519941e-28
-8.5528471e-43
-4.053176e-28
6.586411e-28
-2.533235e-28
-2.533235e-28
1.4054179e-41
-1.519941e-28
-1.519941e-28
0
-1.013294e-28
1.7212605e-42
1.6678052e-42
7.0364898e-42
-2.026588e-28
-2.026588e-28
-1.013294e-28
2.026588e-28
3.039882e-28
-3.4447348e-41
0
-1.013294e-28
5.06647e-29
5.06647e-29
-1.519941e-27
-1.5839751e-43
6.079764e-28
-2.7820806e-41
3.5171447e-41
1.519941e-28
1.4399774e-44
-4.2136364e-41
2.533235e-28
0
-6.8279969e-56
-2.8799547e-44
-3.546529e-28
2.533235e-28
1.4068579e-41
3.5135448e-41
5.0399208e-44
3.546529e-28
2.026588e-28
1.9515332e-56
-8.1996791e-54
4.3199321e-44
6.079764e-28
4.9189627e-41
-3.039882e-28
0
0
5.06647e-29
-4.2162538e-41
1.2283665e-42
-5.06647e-29
1.4068579e-41
-7.806133e-56
-2.1102868e-41
-3.546529e-28
-5.573117e-28
-5.6216717e-41
-1.519941e-28
0
0
-6.079764e-28
2.533235e-28
2.5306162e-40
1.013294e-27
-5.573117e-28
0
-3.039882e-28
-2.026588e-28
5.06647e-28
7.093058e-28
0
2.533235e-28
1.013294e-28
-1.013294e-28
-2.0877954e-41
1.519941e-28
2.026588e-28
1.4054179e-41
3.546529e-28
1.2661721e-40
-1.7225998e-27
0
0
0
-5.06647e-28
-7.093058e-28
0
5.06647e-29
-1.4039779e-41
1.519941e-28
0
0
-1.013294e-28
1.4054179e-41
-3.5099449e-41
3.546529e-28
-4.053176e-28
1.6865015e-40
1.519941e-28
0
-5.06647e-29
-4.2205737e-41
-1.519941e-28
2.026588e-28
1.013294e-28
2.533235e-28
-3.039882e-28
0
2.533235e-28
-2.026588e-28
2.026588e-28
2.533235e-28
0
-3.546529e-28
7.093058e-28
1.013294e-28
7.093058e-28
8.106352e-28
5.6274316e-41
3.1770936e-42
4.8788331e-57
1.519941e-28
-6.079764e-28
1.9675851e-40
1.013294e-28
-1.519941e-28
2.026588e-28
-1.519941e-28
-2.533235e-28
2.026588e-28
0
0
4.053176e-28
7.806133e-56
1.013294e-28
0
0
9.119646e-28
3.9030665e-56
1.142686e-40
0
0
4.053176e-28
1.013294e-28
1.013294e-28
2.026588e-28
0
-4.053176e-28
2.8137158e-41
6.079764e-28
-2.533235e-28
0
-6.079764e-28
4.559823e-28
1.3096518e-60
1.013294e-28
-2.026588e-28
1.519941e-28
1.013294e-28
-5.06647e-29
1.519941e-28
4.2205737e-41
1.519941e-28
2.026588e-28
1.2661721e-40
-4.559823e-28
3.546529e-28
-4.053176e-28
4.278888e-41
1.519941e-28
6.079764e-28
-9.8480053e-41
-5.06647e-28
4.559823e-28
3.5999434e-44
2.026588e-28
-1.013294e-28
2.533235e-28
-1.013294e-28
2.533235e-28
5.06647e-28
-1.1260623e-40
4.053176e-28
-3.546529e-28
1.0079842e-43
1.4186116e-27
1.0079842e-43
-2.026588e-28
0
1.013294e-28
0
-1.519941e-28
0
0
0
-2.026588e-28
9.7576662e-57
1.519941e-28
0
2.026588e-28
-8.4411474e-41
-3.039882e-28
0
0
0
-2.026588e-28
1.4068579e-41
-2.026588e-28
0
4.053176e-28
7.0306895e-41
-3.039882e-28
0
2.533235e-28
-5.06647e-29
1.4075779e-40
1.519941e-28
1.1132938e-41
0
-2.026588e-28
1.4068579e-41
-3.039882e-28
0
1.519941e-28
3.546529e-28
1.9696011e-40
-3.546529e-28
5.6259916e-41
1.4399774e-44
-1.6890935e-40
7.9198756e-44
3.546529e-28
0
-1.013294e-28
1.2655241e-40
1.5467517e-40
-1.9515332e-56
-2.8137158e-41
0
4.053176e-28
-5.6274316e-41
1.013294e-28
4.559823e-28
-8.4368274e-41
-2.026588e-28
5.06647e-29
2.8137158e-41
4.2205737e-41
4.559823e-28
-9.119646e-28
-5.06647e-28
0
-5.06647e-29
1.6882295e-40
5.06647e-28
0
0
0
2.026588e-28
5.6274316e-40
7.093058e-28
0
0
0
0
0
0
0
-4.053176e-28
-1.4075779e-40
-5.06647e-28
3.039882e-28
-3.039882e-28
-1.013294e-28
1.4075779e-41
-1.1243343e-40
-5.573117e-28
4.559823e-28
5.06647e-29
5.06647e-29
1.519941e-28
1.519941e-28
-1.1249103e-40
-3.039882e-28
5.06647e-29
-1.4054179e-40
-1.013294e-28
5.06647e-28
-9.119646e-28
-8.612999e-28
2.026588e-28
2.026588e-28
0
2.533235e-28
2.533235e-28
-2.8108358e-41
2.533235e-28
-1.013294e-28
-1.519941e-28
-2.026588e-28
2.026588e-28
-1.013294e-28
-3.1900662e-54
1.519941e-28
3.546529e-28
7.1998869e-45
2.026588e-28
-1.6877975e-40
4.053176e-28
1.519941e-28
0
5.573117e-28
0
0
0
2.533235e-28
3.039882e-28
-2.533235e-28
-1.519941e-28
0
-2.533235e-28
-7.6257406e-54
-2.026588e-28
0
0
-3.039882e-28
1.6873655e-40
2.533235e-28
0
0
3.039882e-28
-1.1249103e-40
-5.06647e-29
0
-2.533235e-28
7.0342895e-41
-1.4061379e-41
-7.7114044e-54
-1.013294e-28
0
-2.026588e-28
8.4346675e-41
3.546529e-28
0
-1.519941e-28
1.013294e-28
2.026588e-28
7.093058e-28
8.4497872e-41
2.026588e-28
4.2205737e-41
2.533235e-28
0
0
-5.06647e-29
-8.4368274e-41
-1.519941e-28
0
-4.053176e-28
3.546529e-28
-5.06647e-29
1.519941e-28
0
-1.519941e-28
4.053176e-28
8.4368274e-41
2.8122758e-40
-6.079764e-28
-1.2657401e-40
4.559823e-28
5.06647e-29
-5.6245516e-41
2.8137158e-41
2.026588e-28
-1.4054179e-41
-1.013294e-28
0
0
0
-1.013294e-28
5.06647e-29
-2.026588e-28
5.06647e-29
0
0
-3.039882e-28
-1.9515332e-56
2.533235e-28
0
1.1146234e-27
5.573117e-28
-7.093058e-28
2.026588e-28
0
1.1146234e-27
2.0159683e-43
-1.3679469e-27
1.4054179e-40
1.2159528e-27
-5.573117e-28
-3.4559457e-43
9.119646e-28
-2.674398e-40
-3.9351702e-40
-5.06647e-28
0
-1.2666175e-27
7.3137891e-40
3.2425408e-27
-1.5706057e-27
3.1210934e-39
3.039882e-27
-6.9917286e-27
5.1119197e-43
4.2051701e-27
0
0
0
5.8264405e-27
-6.5357463e-27
-1.4895422e-26
8.3090108e-27
2.6026871e-39
2.8951609e-39
1.1551552e-26
0
-1.4135451e-26
2.2607645e-42
3.546529e-26
-1.9607239e-26
-1.2142811e-38
2.4927032e-26
2.781492e-26
-1.7059844e-38
-6.7992027e-26
0
-4.1798377e-26
-4.63582e-26
0
5.735244e-26
6.4192175e-26
-7.1335897e-26
0
8.8257907e-26
0
0
-1.2048066e-25
1.1117417e-37
1.4799159e-25
0
0
-2.0286146e-25
-2.2484994e-25
2.4921966e-25
2.7591995e-25
-3.0581213e-25
-3.3945349e-25
7.5186414e-25
4.1555187e-25
-1.2775177e-37
-5.0978821e-25
3.1332387e-37
3.4663228e-37
-6.9076252e-25
7.6382101e-25
-8.4473254e-25
9.3390241e-25
8.7984058e-40
-1.1403611e-24
2.5203662e-24
1.3918606e-24
1.537319e-24
-3.3948389e-24
-3.7470599e-24
2.0682344e-24
-2.282698e-24
2.5181369e-24
-1.5423383e-36
-6.1238423e-24
3.375485e-24
-1.0326958e-36
1.1392654e-36
4.5181259e-24
0
0
-6.0347231e-24
-6.6433074e-24
0
8.0437811e-24
8.8491978e-24
0
1.0701601e-23
-3.2668506e-36
-1.2930442e-23
1.4208358e-23
-4.3300504e-36
-1.7145188e-23
0
-2.0670286e-23
-1.259713e-35
2.4898052e-23
-2.7316481e-23
8.3074397e-36
3.2858692e-23
3.6025692e-23
1.0959819e-35
-4.3275811e-23
0
5.1939272e-23
-5.688141e-23
1.7700965e-38
-3.7861725e-35
-7.4611218e-23
8.1635879e-23
0
1.9533076e-22
-2.3710106e-34
-1.1673557e-22
-7.0816733e-35
-2.7880045e-22
3.0456051e-22
3.326246e-22
-3.6319041e-22
-3.9647337e-22
-2.1635337e-22
0
2.5752401e-22
5.6172409e-22
-4.3519875e-38
3.3384141e-22
-3.6384069e-22
-3.9644276e-22
4.3186484e-22
-9.4068186e-22
1.0242496e-21
9.2850543e-34
-1.2134587e-21
1.320324e-21
-3.9861656e-34
7.8100279e-22
-8.4917918e-22
-9.2308728e-22
1.0031891e-21
3.0235657e-34
2.368003e-21
-2.5716466e-21
-2.7921339e-21
3.0307972e-21
4.5642097e-34
1.7842482e-21
-1.0748247e-33
-2.0987731e-21
-6.3151785e-34
3.8196775e-50
-2.6726568e-21
-5.7910227e-21
3.1361852e-21
-1.1691093e-49
3.676524e-21
6.6285444e-33
-4.3057516e-21
9.3159103e-21
-2.7963245e-33
-1.0894274e-20
2.2037715e-50
6.3637621e-21
0
0
8.0209941e-21
-8.659999e-21
-1.869518e-20
0
0
0
1.2657417e-20
1.3645364e-20
0
-1.5846685e-20
1.70707e-20
3.061982e-32
-3.9589383e-20
0
0
0
2.6535364e-20
2.8534378e-20
-3.0676167e-20
3.2970302e-20
1.9674717e-32
-7.611379e-20
0
0
9.4209142e-20
-1.4367002e-35
-5.4232139e-20
5.8168139e-20
-6.237364e-20
6.6865839e-20
-3.9798744e-32
-1.5356839e-19
0
0
9.4302457e-20
1.0093596e-19
0
0
-1.235747e-19
-1.3212807e-19
0
1.5093203e-19
1.6125077e-19
-1.7222919e-19
1.8390608e-19
1.9632227e-19
-2.0952073e-19
-2.2354666e-19
1.324243e-31
2.5427346e-19
-2.7107676e-19
-8.018422e-32
3.0783883e-19
0
3.4920836e-19
-2.0642018e-31
-3.9570756e-19
4.2105794e-19
-2.486878e-31
-4.7634452e-19
0
5.383005e-19
-1.5883362e-31
-8.6351765e-35
6.4533407e-19
-6.8516976e-19
-7.2726316e-19
0
1.6373705e-18
-9.643913e-31
-9.2057472e-19
-1.3866553e-34
-2.0679788e-18
2.1907468e-18
2.3201518e-18
-2.4565097e-18
-1.3000746e-18
0
2.9106498e-18
-2.5625423e-30
-3.2545413e-18
0
3.6349299e-18
1.0662482e-30
-2.0275754e-18
-5.9441669e-31
-4.5187779e-18
4.7680532e-18
6.281257e-30
-5.3040358e-18
5.5917955e-18
-1.6352413e-30
-6.2096087e-18
-3.270408e-18
6.8876889e-18
3.6254239e-18
-7.6309309e-18
8.0285947e-18
1.054593e-29
-8.879379e-18
9.3339021e-18
-1.3618559e-30
5.1524268e-18
-6.0043968e-30
-1.7045122e-17
3.3103393e-30
1.2515922e-17
-6.5647319e-18
-1.3768998e-17
7.2176982e-18
-4.2000993e-30
7.9261789e-18
9.2216167e-30
-8.6938297e-18
1.8202043e-17
-7.9315312e-30
1.1063594e-29
-5.7819848e-30
-1.0896958e-17
0
-1.1902285e-17
-1.2433596e-17
0
0
0
0
0
1.605619e-17
1.6737491e-17
0
-1.8171519e-17
1.8925358e-17
3.2823664e-29
-4.101893e-17
0
0
0
2.3998916e-17
2.4941406e-17
-2.591303e-17
-2.691432e-17
5.5891608e-17
4.8329665e-29
-6.0202836e-17
0
6.4767846e-17
5.5927422e-29
-3.4797216e-17
3.6054076e-17
-3.734501e-17
3.867045e-17
2.2220142e-29
-8.2852994e-17
0
0
4.5829249e-17
4.7369894e-17
0
5.0562667e-17
1.4840496e-32
5.3905906e-17
-5.5634551e-17
-1.7220446e-16
0
-1.2210183e-16
-1.2586736e-16
0
2.0044741e-16
1.3763057e-16
-1.4170747e-16
7.2931156e-17
7.5047499e-17
-2.3160809e-16
-7.9396655e-17
-1.1600213e-32
-8.3900297e-17
8.6209636e-17
8.8557039e-17
9.0942256e-17
-1.1721891e-46
9.5824979e-17
9.8321833e-17
-1.008552e-16
0
-2.1205961e-16
-2.1734031e-16
0
1.1405447e-16
2.3359472e-16
6.6355278e-29
1.2238169e-16
2.5044377e-16
-2.5618643e-16
-2.6198997e-16
-1.3392648e-16
-1.3688694e-16
0
1.4289166e-16
4.3780291e-16
-1.4900268e-16
1.6050739e-44
4.6563939e-16
-3.1670681e-16
-1.6151581e-16
-1.646994e-16
-3.3580639e-16
3.4225243e-16
1.7436745e-16
-1.7762589e-16
-1.8090048e-16
-1.841902e-16
5.6248189e-16
1.9081071e-16
-5.8241804e-16
-1.9747878e-16
2.0082792e-16
4.0837126e-16
-2.075508e-16
2.1092232e-16
-3.5679583e-28
3.6254839e-28
6.6319059e-16
-2.2444903e-16
-2.2783517e-16
-4.6244163e-16
-2.3460481e-16
4.7597203e-16
6.8599572e-32
2.4473548e-16
-2.4810147e-16
-7.5438034e-16
7.6443086e-16
2.5815087e-16
-7.8444221e-16
0
8.0431173e-16
2.7139501e-16
-8.2401305e-16
2.7793084e-16
5.6234681e-16
1.5786232e-28
-3.192417e-28
-2.9078709e-16
0
-5.9418173e-16
-6.0041621e-16
3.0330092e-16
3.0636835e-16
6.1881882e-16
-3.1242316e-16
-3.1540867e-16
6.3673002e-16
0
-6.4837309e-16
-6.5409993e-16
3.2988066e-16
6.6535555e-16
-1.8619495e-28
-3.3816792e-16
6.8171862e-16
-3.4351384e-16
1.1527732e-27
6.9741845e-16
-3.5124855e-16
0
-7.1241352e-16
0
8.0163141e-28
3.6333225e-16
7.3124299e-16
-1.1036e-15
1.051794e-31
7.4444448e-16
0
-7.5278783e-16
-3.7840928e-16
7.6075374e-16
-4.2446111e-28
-3.8416645e-16
7.7197467e-16
-3.8775822e-16
6.484599e-28
7.8229575e-16
-3.9276562e-16
3.9433132e-16
-7.9168895e-16
-1.1919138e-15
0
1.2001919e-15
8.0272458e-16
-1.2078173e-15
-8.0758799e-16
4.0492653e-16
8.1200594e-16
-4.0702291e-16
-4.0798595e-16
8.1778342e-16
-4.0973981e-16
-8.2105975e-16
4.1126155e-16
-5.8539411e-32
8.2509664e-16
8.2620547e-16
-1.2407922e-15
4.1403197e-16
6.9019851e-28
-1.244159e-15
0
1.2454903e-15
8.3058625e-16
-4.1536102e-16
-4.1536642e-16
-4.1530644e-16
0
-4.1499341e-16
2.3021345e-28
8.2885538e-16
-2.2977015e-28
-4.1360775e-16
0
-4.1253211e-16
8.23796e-16
1.2335985e-15
-8.2087304e-16
-1.2288267e-15
-4.0871659e-16
4.0775948e-16
8.13475e-16
-4.0565061e-16
4.0449878e-16
4.0328198e-16
-8.0400045e-16
8.0130705e-16
3.9924192e-16
-1.1932964e-15
-7.9244855e-16
3.9461841e-16
1.178844e-15
-8.6861227e-28
8.6461793e-28
3.875512e-16
4.2810166e-28
3.8363401e-16
-3.8158037e-16
-3.7946376e-16
-3.7728451e-16
3.7504299e-16
3.727396e-16
-1.1111242e-15
3.6794891e-16
7.3092514e-16
-1.0887488e-15
-1.0240641e-31
3.5764599e-16
-7.0984652e-16
-3.5214303e-16
0
3.4641291e-16
3.4346456e-16
6.8092355e-16
-3.3740542e-16
1.1133595e-27
9.9340713e-16
-3.279243e-16
-3.2466321e-16
-3.2135353e-16
3.1799639e-16
3.1459295e-16
-9.3343324e-16
3.0765205e-16
6.0823429e-16
5.0055477e-28
2.9692514e-16
-5.8654169e-16
-8.687389e-16
-1.5862952e-28
1.565828e-28
3.9548785e-32
2.7447649e-16
5.4124838e-16
2.6674465e-16
-7.8851884e-16
2.8743041e-28
5.0992043e-16
0
0
-2.4299551e-16
1.3264987e-28
-1.3037851e-28
-2.3090202e-16
4.5370286e-16
2.2279449e-16
2.4276497e-28
-2.1466973e-16
-6.3181807e-16
-2.065442e-16
0
0
0
5.7107219e-16
3.7267244e-16
-5.469882e-16
1.9803407e-28
3.4873407e-16
0
0
-3.2516402e-16
3.5237083e-28
1.7186752e-28
-3.0206889e-16
1.472469e-16
2.8698646e-16
2.7955039e-16
-1.3609452e-16
-3.9735863e-16
-1.2885189e-16
0
0
0
3.4465515e-16
2.2301947e-16
-3.2455085e-16
2.3292738e-28
1.0168367e-16
-1.3999404e-32
9.5394015e-17
-1.8466095e-16
9.9161315e-29
8.6370228e-17
-1.6694998e-16
0
4.3227848e-29
1.5027223e-16
1.4494738e-16
-2.096114e-16
-1.3465341e-16
6.4842577e-17
3.4637974e-29
-6.0053602e-17
1.7324626e-16
1.110071e-16
-5.3317819e-17
-5.1191327e-17
4.9123771e-17
4.7114799e-17
-4.5163978e-17
-4.3270832e-17
2.2999481e-29
-2.2006115e-29
-3.7931849e-17
0
-3.4649729e-17
6.6179272e-17
9.4747323e-17
-6.0254599e-17
-5.7446624e-17
-2.7369561e-17
2.8932508e-29
4.9617865e-17
-2.3600077e-17
2.2437493e-17
2.1320148e-17
-4.0493948e-17
3.8433803e-17
1.822884e-17
-1.7281702e-17
-3.2748771e-17
-1.5505777e-17
2.9349559e-17
-7.7006644e-30
1.3121175e-17
1.2396363e-17
-3.5114248e-17
1.1045252e-17
1.0416784e-17
-2.9454861e-17
1.3143193e-33
2.6120967e-17
8.1921274e-18
-2.310931e-17
7.2389343e-18
2.228959e-45
1.0624455e-29
1.1971779e-17
-1.1223184e-17
-1.0514978e-17
4.9227036e-18
-5.1138058e-30
-8.6155048e-18
4.0259631e-18
1.128076e-17
3.509874e-18
-3.274105e-18
0
-2.8435765e-18
-5.2949711e-18
3.500598e-34
6.8714611e-18
2.1283789e-18
-3.9529015e-18
2.6064781e-34
3.4019038e-18
-3.1527401e-18
2.4315221e-30
2.7023147e-18
-3.7488857e-18
-2.3098715e-18
0
0
9.0791416e-19
2.5101729e-18
7.7055127e-19
-2.1272236e-18
7.2383036e-31
1.1981301e-18
-1.0999425e-18
-1.0089494e-18
4.6232899e-19
8.4661826e-19
-3.8718423e-19
-3.5375564e-19
9.6845306e-19
2.9417964e-19
4.4579866e-31
-1.348673e-31
-2.2031984e-19
1.9917376e-19
-3.590393e-19
-4.8365927e-19
0
3.845704e-19
2.2648412e-19
-2.9769795e-19
2.44698e-35
7.3844525e-20
-1.2526767e-19
5.2828268e-20
4.8965805e-20
5.9303405e-32
-5.5280518e-20
-1.0645834e-19
6.4637417e-20
1.6326905e-19
1.5719175e-19
-7.7210467e-32
-8.3737605e-20
1.0509039e-19
-2.0211253e-19
-2.4447285e-19
0
2.8454865e-19
1.9660658e-19
-2.5956635e-19
9.5024153e-32
9.8450342e-20
-1.0213783e-19
-9.1627468e-20
4.745445e-32
1.8071558e-19
-5.142703e-32
-1.718696e-19
8.8661528e-32
9.2121252e-32
1.728717e-19
2.4530249e-19
-1.4820727e-19
8.0030739e-32
2.4396013e-31
-7.0604312e-20
-6.4157166e-20
-1.2671189e-19
2.037603e-19
6.6360057e-20
-1.1453097e-19
1.1114135e-19
3.5659357e-35
-1.8852279e-19
-5.2082702e-20
5.0958537e-20
1.9214468e-19
-2.3033e-31
-1.1312848e-19
-5.0732272e-20
1.2474555e-19
2.1136991e-19
-1.8354093e-19
-5.251468e-20
-6.5005379e-32
-6.5950271e-20
1.23101e-19
-3.0776717e-32
5.9376111e-20
-6.4507976e-20
2.0117892e-31
1.655033e-19
-1.8333352e-19
-2.113731e-19
0
0
0
6.7854126e-20
2.2885562e-19
6.0847422e-20
4.5744772e-32
3.9945186e-20
-1.5444378e-19
-5.4920488e-20
4.0563379e-20
3.2950016e-20
4.0285143e-20
-8.9041096e-20
3.8342744e-20
-3.5769791e-20
1.4134157e-31
9.3244586e-20
-1.2650943e-19
-8.0863404e-20
0
1.0139796e-19
4.8823696e-32
-4.079754e-20
1.4790153e-19
5.5035517e-20
-4.5980843e-20
0
0
-5.5584203e-20
-1.0219998e-19
7.8374446e-32
6.3811418e-20
4.3604619e-20
-4.8923687e-20
3.6141389e-20
-2.4438747e-20
3.7654851e-47
5.0092697e-32
-8.641998e-20
0
0
4.2863288e-20
4.4029792e-20
2.3439127e-20
-3.0722211e-32
-8.9278416e-20
3.1034112e-32
5.4224774e-20
0
-5.8912303e-20
-2.9667378e-20
6.3591484e-20
-3.8069346e-20
-3.9258633e-20
9.220495e-20
-2.3624781e-20
9.8533291e-32
7.0338375e-20
-8.6414057e-20
-3.7358963e-20
0
0
0
5.3447195e-20
4.2158507e-20
-6.7763388e-20
-5.1387554e-20
0
7.2749562e-20
-4.1957555e-32
-4.2546957e-20
8.9298415e-20
-4.129386e-20
3.7076963e-20
3.7888e-20
-1.1100517e-19
7.0553716e-20
7.2861953e-20
-3.5282419e-20
2.8825594e-20
-3.4709196e-20
-2.984323e-20
0
2.2578821e-20
1.0100065e-20
-2.8854744e-21
-1.7801804e-21
1.1156089e-33
-1.0208907e-21
3.389042e-33
-9.4067152e-22
-1.2208086e-33
-1.3922822e-48
-6.3094423e-21
0
-1.9948741e-21
6.2290011e-21
2.3114813e-20
-3.8003179e-20
-4.7746867e-20
0
2.9693195e-20
2.8360759e-20
-2.6785965e-20
1.3209414e-20
1.3977395e-20
-4.5131255e-20
2.7626488e-20
2.4923608e-20
-1.2057018e-20
-2.3524169e-20
-1.1005408e-20
3.2896127e-20
1.1014447e-20
1.4658695e-32
-1.3818271e-20
-4.0594314e-36
1.994713e-20
-8.7595042e-21
-9.2090269e-21
-2.9923144e-21
6.468682e-21
1.5702022e-21
2.7206411e-21
-6.1790471e-33
-4.2744319e-21
-1.7688466e-21
1.8955298e-33
7.0958698e-21
-2.986682e-33
2.3698451e-21
2.4603623e-21
-5.1909223e-21
-1.1287763e-21
-1.0571786e-33
-1.4642393e-21
5.6123332e-33
3.8593905e-21
-3.6671494e-21
2.7033774e-33
2.7517363e-33
5.4259964e-33
1.8435354e-21
-2.6691077e-21
1.3931848e-21
5.0899138e-33
1.1276777e-32
5.4128971e-21
2.118807e-22
2.5403069e-21
-1.2334722e-33
6.2348294e-22
1.1075392e-21
-5.7327346e-21
-1.0147395e-20
7.5625846e-33
2.0327629e-20
-8.0494642e-33
-8.4277716e-21
1.9104541e-20
-1.1673554e-20
-1.1673997e-20
6.216234e-33
-7.0606218e-33
1.4715729e-20
-2.7886461e-20
1.3335176e-20
-4.60271e-32
-4.6787759e-32
4.6028846e-20
-3.1216349e-20
4.3035688e-36
3.0263714e-20
-1.4489451e-20
-3.4921435e-20
-1.0624525e-20
3.4198639e-20
-1.1318246e-32
-9.5562434e-21
2.0274303e-20
-2.0760026e-20
-4.9857746e-32
9.1853336e-21
-8.6442325e-21
8.1966701e-21
-1.5215187e-20
7.572505e-21
2.3794379e-20
0
0
-1.1661091e-20
-1.8743172e-36
1.4801465e-20
-7.8673852e-21
-2.5026369e-20
-8.5929744e-21
2.5631357e-20
2.532563e-36
1.0895606e-32
2.0715615e-20
-3.0653419e-20
-5.2449983e-32
1.1399977e-20
-1.2273233e-20
-1.2720879e-20
1.43015e-32
1.2952801e-20
-2.5925974e-20
2.6184078e-20
-4.4107988e-32
-2.5950796e-20
3.757064e-20
2.5106448e-20
-1.3073227e-20
-3.9519649e-20
-1.2505314e-20
1.2138967e-20
0
-1.2409541e-20
1.1882324e-20
3.3729124e-20
6.2475468e-33
-2.3070439e-20
1.1431671e-20
1.0993932e-20
-2.0080204e-20
9.9096088e-21
-1.062357e-20
-2.1565063e-20
3.1310679e-20
-3.3015739e-32
2.0281226e-32
1.8044422e-20
-1.9061709e-20
-9.7099274e-21
-9.4129247e-21
-9.7330536e-33
8.4049192e-21
-1.6897913e-20
1.7177135e-20
2.5050835e-20
0
-7.5379107e-21
4.3356435e-33
2.252674e-36
-2.2807568e-20
-7.054997e-21
1.9934896e-20
-6.7619317e-21
-3.3956891e-49
2.1283201e-20
-6.8264397e-21
-1.9723276e-20
-6.6103277e-21
1.375311e-20
-6.9264073e-21
6.7857913e-21
-2.2904456e-32
-1.4435909e-20
2.2127077e-20
8.1276753e-33
-3.2755091e-32
1.5214261e-20
-1.5734308e-20
-8.8888226e-33
8.1073805e-21
-1.6424944e-20
-8.2636213e-21
0
0
1.7652218e-20
-1.967913e-32
-4.9068918e-36
-9.4454382e-33
-8.6705802e-21
-8.9709137e-21
9.168415e-21
9.2045114e-21
-1.8235327e-20
1.7889945e-20
-9.5355311e-33
-1.6981213e-20
1.7313811e-20
2.895421e-32
-9.4185012e-33
8.0251758e-21
-1.5688843e-20
7.9458824e-21
-1.7698259e-32
-1.5453541e-20
0
1.4079988e-20
7.0205489e-21
-1.4006755e-20
-6.7613498e-21
6.3623012e-21
-1.0282099e-32
-6.1659394e-21
0
0
1.1101104e-20
1.0910584e-20
0
-1.1424051e-20
-5.6271463e-21
5.338103e-21
-5.0784428e-21
4.9455302e-21
0
-1.0516999e-20
0
0
5.374061e-21
-5.8016641e-33
-5.2799583e-21
0
5.8564044e-21
3.3107114e-33
-5.9612903e-21
0
1.2257875e-20
1.2469599e-20
-6.2395776e-21
-7.0278852e-33
6.5830198e-21
-1.3647135e-20
-1.376187e-20
1.3582766e-20
1.896392e-36
1.4812805e-32
1.9388471e-36
-1.4041212e-20
7.1179319e-21
-7.8132428e-33
6.8885363e-21
-6.7214784e-21
-1.9990875e-20
2.0326329e-20
6.8874052e-21
-6.8134447e-21
-7.2705898e-33
-6.2876395e-21
1.2072028e-20
1.1855978e-20
-1.2016643e-20
-2.0105194e-32
-5.8861831e-21
-5.6432403e-21
1.0859114e-20
-5.3525474e-21
5.9266216e-33
-2.9075346e-33
5.0407094e-21
9.6761311e-21
-9.5964019e-21
-9.7586639e-21
0
4.7672388e-21
5.0815668e-33
-9.063424e-21
-5.1522082e-33
1.4328964e-20
9.5526958e-21
0
-9.4079922e-21
-1.063163e-32
-4.9328725e-21
-4.9828117e-21
1.4885416e-20
-2.7888276e-33
-1.0405704e-20
5.3559035e-21
1.0783005e-20
-5.3271081e-21
-1.042294e-20
-5.3058009e-21
0
1.176374e-20
-5.9945645e-21
-1.7908472e-20
5.9074762e-21
5.9017468e-21
1.1986804e-20
6.1716721e-21
-1.2527745e-20
-6.2465603e-21
-6.2467009e-21
7.0042745e-33
6.4037826e-21
6.385788e-21
1.25782e-20
6.2490152e-21
0
0
0
-1.2475131e-20
-1.2558805e-20
1.2503914e-20
6.8142663e-33
6.5515564e-33
-6.5010522e-33
-1.3472325e-32
1.2466885e-20
0
-1.2260672e-20
-5.9222076e-21
5.8372567e-21
-5.9638925e-21
-6.1786772e-21
0
0
1.2024738e-20
-1.9410651e-32
-1.2957709e-32
1.2164728e-20
-1.2467036e-20
-1.246686e-20
0
1.1930163e-20
-6.5605384e-33
-1.2086251e-20
1.2338586e-20
6.8773567e-33
-1.2231227e-20
0
1.177399e-20
5.9715454e-21
-1.2151245e-20
6.0571712e-21
1.3224362e-32
-1.1678028e-20
1.153181e-20
1.1555756e-20
0
0
0
-1.0839688e-20
-1.0848872e-20
1.0678234e-20
0
-1.0004037e-20
0
-4.880813e-21
9.6254659e-21
4.6520254e-21
-4.4349691e-21
8.6559314e-21
4.3426295e-21
-8.663835e-21
-4.1630706e-21
-4.3598933e-33
3.7624672e-21
-8.2677316e-33
2.1330853e-36
7.4179312e-21
0
-3.3185119e-21
-6.4126808e-21
-3.2074208e-21
0
0
0
-2.8508125e-21
5.6437515e-21
2.9017171e-21
-2.9675283e-21
-2.9326008e-21
2.7906108e-21
2.6549193e-21
-5.3023916e-21
0
5.7895979e-21
5.9082536e-21
0
0
-5.7621812e-21
-3.2685565e-33
-3.0413373e-21
-3.1294326e-21
3.1870446e-21
-3.2391549e-21
3.2974755e-21
6.7111527e-21
3.4068644e-21
0
-7.0567352e-21
-4.0508304e-33
3.7734851e-21
-3.8187816e-21
-3.8243665e-21
-7.6907626e-21
7.8290501e-21
4.0260222e-21
-1.1689118e-36
4.1248977e-21
-8.1684015e-21
4.0832181e-21
-4.1595068e-21
1.3234022e-49
4.3696161e-21
-8.7457116e-21
8.5702645e-21
8.3819813e-21
0
-4.0408975e-21
-8.3177559e-21
2.3682939e-33
4.2743614e-21
4.1260948e-21
-7.8417931e-21
-7.4510019e-21
3.7025382e-21
7.6769218e-21
7.7774762e-21
-3.8405983e-21
-7.4629679e-21
3.6023222e-21
-3.5092689e-21
5.7500198e-33
3.4161739e-21
-6.6889702e-21
6.46177e-21
3.5054812e-33
-1.7508897e-32
6.2549027e-21
-6.0537743e-21
-1.2676014e-32
2.6651987e-21
-5.2617106e-21
2.7299822e-21
-7.959885e-37
1.2405308e-32
2.7451756e-21
-5.3934117e-21
5.9200588e-33
-1.4652814e-33
2.5716017e-21
-7.066982e-37
-4.9267687e-21
5.0398357e-21
1.4855221e-36
-1.175229e-32
5.1418918e-21
-4.9258229e-21
-5.336708e-33
4.8703124e-21
-2.5352587e-21
-2.6254401e-21
-2.6752158e-21
2.6634092e-21
-2.8741533e-33
-5.025378e-21
0
0
5.1768578e-21
7.5273277e-37
-5.2888143e-21
2.5889046e-21
-2.8101673e-33
2.5223449e-21
5.6728111e-33
-5.1566699e-21
0
-2.4646647e-21
4.8460788e-21
2.4313903e-21
-5.469599e-33
2.4555036e-21
-4.7592898e-21
2.2897061e-21
-2.5019247e-33
-4.5460101e-21
0
0
2.1971413e-21
-1.1700352e-33
2.064028e-21
-2.0622521e-21
-6.2094117e-21
6.1470258e-21
2.0047971e-21
-3.9286774e-21
1.9437079e-21
3.216239e-33
1.9074782e-21
-1.0659087e-36
-6.1584508e-33
1.8282554e-21
-3.6041111e-21
-1.775961e-21
0
-1.7857842e-21
1.8023051e-21
1.7903018e-21
1.7437635e-21
-3.7797154e-33
1.8931406e-33
-1.9361882e-33
-3.5522501e-21
1.7532335e-21
2.853378e-33
-3.4303768e-21
2.5063557e-37
1.835016e-21
3.7191563e-21
3.5860009e-21
-3.4172323e-21
-1.8680606e-33
-1.7366881e-21
-1.8414701e-21
3.852216e-21
-3.8762613e-21
-1.8652882e-21
5.3261585e-21
3.459094e-21
-1.7675054e-21
-3.7315894e-21
-1.9539341e-21
1.9755747e-21
3.8414655e-21
-3.6684381e-21
-5.3163454e-21
1.7940513e-21
1.8812327e-21
3.9253306e-21
1.985146e-21
-3.8600304e-21
-1.8597342e-21
-1.8260464e-21
3.6979847e-21
1.9179391e-21
-3.9235895e-21
3.8785131e-21
1.8329272e-49
5.000761e-37
3.5016263e-21
-3.6486708e-21
-6.3670553e-33
-2.1650197e-33
-6.4193715e-33
1.5028649e-49
-5.3216581e-21
-1.939049e-33
1.7792463e-21
3.6946754e-21
3.7760647e-21
-3.7521353e-21
-4.0303806e-33
-1.7533855e-21
-5.790177e-33
1.7732029e-21
-3.6490188e-21
0
1.809336e-21