/*--------------------------------*- C++ -*----------------------------------*\
  =========                 |
  \\      /  F ield         | OpenFOAM: The Open Source CFD Toolbox
   \\    /   O peration     | Website:  https://openfoam.org
    \\  /    A nd           | Version:  7
     \\/     M anipulation  |
\*---------------------------------------------------------------------------*/
FoamFile
{
    version     2.0;
    format      ascii;
    class       volVectorField;
    location    "0.00095";
    object      U;
}
// * * * * * * * * * * * * * * * * * * * * * * * * * * * * * * * * * * * * * //

dimensions      [0 1 -1 0 0 0 0];

internalField   nonuniform List<vector> 
5000
(
(-1.0933487e-12 -3.3776466e-28 0)
(-1.2697859e-12 1.2666175e-28 0)
(-1.5267528e-12 0 0)
(-1.438276e-12 0 0)
(-1.3252995e-12 -1.5395125e-42 0)
(-1.369585e-12 1.4399774e-43 -1.2666175e-28)
(-1.3981645e-12 6.3330875e-29 -1.3499788e-43)
(-1.5795276e-12 0 -1.8999262e-28)
(-1.381369e-12 0 0)
(-1.3883233e-12 -6.3330875e-29 -1.2666175e-28)
(-1.4480758e-12 2.533235e-28 2.533235e-28)
(-1.1571134e-12 -3.7998525e-28 -3.7998525e-28)
(-1.080361e-12 -3.1665437e-28 2.6999576e-42)
(-1.3251836e-12 6.3330875e-29 5.5799123e-43)
(-1.5297291e-12 0 3.7998525e-28)
(-1.7326569e-12 -6.3330875e-29 -1.2666175e-28)
(-1.4656736e-12 -3.1890567e-71 -1.5945284e-71)
(-1.3515434e-12 6.3330875e-29 -5.5799123e-43)
(-1.3644186e-12 0 -1.2666175e-28)
(-1.1018266e-12 -6.3330875e-29 -1.2666175e-28)
(-1.1713369e-12 6.3330875e-29 -6.3330875e-29)
(-1.2342949e-12 -1.2666175e-28 0)
(-9.5238023e-13 1.2666175e-28 0)
(-1.001105e-12 1.2666175e-28 1.2666175e-28)
(-9.3665202e-13 1.8999262e-28 -1.6199745e-42)
(-8.7055304e-13 3.1319508e-42 3.1319508e-42)
(-1.153363e-12 -3.1665437e-28 3.1665437e-28)
(-1.0288366e-12 -1.2666175e-28 -1.2666175e-28)
(-1.2214338e-12 3.7998525e-28 -1.8999262e-28)
(-1.0604316e-12 -5.4899137e-42 3.1665437e-28)
(-1.1087261e-12 6.6418956e-42 -6.6418956e-42)
(-1.096365e-12 -1.8999262e-28 1.6199745e-42)
(-1.2024981e-12 1.2666175e-28 -6.3330875e-29)
(-1.1258744e-12 5.4782644e-43 -2.7391322e-43)
(-8.173007e-13 -2.1959655e-42 -1.2666175e-28)
(-1.0088522e-12 1.652374e-41 0)
(-1.0537859e-12 -4.391931e-42 0)
(-1.0207363e-12 1.013294e-27 -5.06647e-28)
(-7.6135753e-13 -6.3330875e-28 -3.1665437e-28)
(-5.3339712e-13 -2.533235e-28 1.2666175e-28)
(-6.5519306e-13 3.7998525e-28 -3.1859499e-42)
(-5.9360921e-13 -8.7118631e-42 -1.2666175e-28)
(-5.8874385e-13 -1.2666175e-28 6.3330875e-29)
(-4.4104358e-13 6.3330875e-29 -1.0709832e-42)
(-3.8713444e-13 -3.7998525e-28 1.2666175e-28)
(-1.4434976e-13 6.3330875e-29 -6.3330875e-29)
(-4.016217e-14 6.3330875e-29 2.1779658e-42)
(-2.959539e-13 8.6758637e-42 -4.3379318e-42)
(-3.6983171e-13 2.533235e-28 4.3559316e-42)
(-6.3516552e-13 0 -3.2399491e-42)
(-9.4445615e-13 -3.1665437e-28 -3.1665437e-28)
(-5.0963467e-13 -7.1998869e-44 0)
(-3.7047681e-13 2.533235e-28 0)
(-6.60135e-13 -1.2666175e-28 0)
(-5.1344081e-13 8.8558609e-42 0)
(-3.5232371e-13 8.8663225e-28 0)
(-3.8138755e-13 -5.06647e-28 0)
(-1.7035612e-13 1.0934828e-41 0)
(-1.5097834e-13 1.8999262e-28 0)
(-3.3516933e-13 0 0)
(-4.5665731e-13 4.1695129e-43 0)
(-2.9739436e-13 -2.1599661e-42 0)
(-2.0823646e-13 -7.5728994e-59 0)
(-4.1237548e-13 6.3330875e-29 -6.3330875e-29)
(-5.0949489e-13 -3.7418706e-43 -3.7418706e-43)
(-4.0210657e-13 2.6162188e-57 7.4837412e-44)
(-3.0573729e-13 2.5658541e-43 -4.4120206e-57)
(1.5169135e-14 6.3330875e-29 -6.0985414e-57)
(-6.5317068e-14 6.3330875e-29 -6.3330875e-29)
(-2.0513357e-13 1.8999262e-28 0)
(-6.9922518e-14 2.533235e-28 0)
(-1.4935225e-13 -6.3330875e-29 -6.3330875e-29)
(1.1021224e-13 1.2666175e-28 1.2666175e-28)
(8.7433207e-14 -3.7998525e-28 0)
(6.0306094e-14 -1.2666175e-28 -1.2666175e-28)
(1.7727262e-13 1.2666175e-28 -4.3739313e-42)
(1.49843e-13 0 1.2666175e-28)
(3.900332e-13 -1.2666175e-28 1.2666175e-28)
(2.7241501e-13 1.7999717e-44 -1.2666175e-28)
(3.7073151e-13 1.8999262e-28 -3.7998525e-28)
(4.0140203e-13 -1.2666175e-28 2.533235e-28)
(1.0111327e-13 -1.7999717e-44 3.5999434e-44)
(3.5401115e-13 -3.5999434e-44 -3.7998525e-28)
(4.5803908e-13 -1.8999262e-28 3.7998525e-28)
(5.1570778e-13 -2.533235e-28 2.6351586e-41)
(4.4726873e-13 -1.3229792e-41 -7.599705e-28)
(2.0926941e-13 1.2666175e-28 3.7998525e-28)
(1.1360539e-13 0 1.2666175e-28)
(-3.5340129e-14 -2.533235e-28 2.533235e-28)
(3.0282621e-14 -1.970969e-41 -1.8999262e-28)
(-8.0971159e-15 -2.2139652e-42 6.3330875e-29)
(1.8861352e-14 1.2666175e-28 1.2666175e-28)
(-4.219785e-14 1.8999262e-28 6.6148961e-42)
(-2.0719319e-15 -8.4741445e-42 -8.4741445e-42)
(1.2761514e-13 4.3829311e-42 4.3829311e-42)
(1.0792161e-13 -2.1382118e-44 2.1382118e-44)
(1.5098282e-13 0 1.0691059e-44)
(8.2866416e-14 0 -4.4459301e-42)
(5.5259493e-14 -1.8999262e-28 1.3229792e-41)
(2.0398225e-13 -8.783862e-42 2.533235e-28)
(-4.7748095e-14 3.7998525e-28 1.8999262e-28)
(-3.4444924e-14 -1.8999262e-28 -1.8999262e-28)
(1.5760774e-13 -1.9907581e-43 -4.8774248e-56)
(3.8475174e-13 0 6.3330875e-29)
(2.5522899e-13 1.2666175e-28 0)
(3.0732248e-13 -1.2666175e-28 1.2666175e-28)
(5.9674127e-13 3.1665437e-28 1.1024827e-41)
(4.2382424e-13 1.8999262e-28 -1.8999262e-28)
(2.6460392e-13 0 -1.2666175e-28)
(7.7100282e-14 0 -1.2666175e-28)
(-2.0623072e-14 2.533235e-28 5.06647e-28)
(8.0248078e-14 3.7998525e-28 3.7998525e-28)
(1.5116853e-13 0 -3.7998525e-28)
(1.9125116e-13 6.3330875e-29 6.3330875e-29)
(4.5556241e-13 -8.8558609e-42 -7.599705e-28)
(4.3806607e-13 -1.8999262e-28 1.8999262e-28)
(3.9478614e-13 6.3330875e-29 6.3330875e-29)
(2.961837e-13 1.7999717e-44 -3.5999434e-44)
(3.934502e-13 -2.2139652e-42 -6.3330875e-29)
(4.0799293e-13 6.0985414e-57 -1.8999262e-28)
(4.5652386e-13 -4.2764235e-43 1.4949822e-56)
(2.6002484e-13 -3.1905108e-59 -1.4967482e-43)
(1.8958262e-13 -6.3330875e-29 1.2666175e-28)
(2.7185233e-13 0 -6.3330875e-29)
(3.4020658e-13 1.8999262e-28 1.8999262e-28)
(2.9401016e-13 -2.0359581e-42 -2.0433307e-42)
(4.1062712e-14 1.8999262e-28 -1.8999262e-28)
(2.21464e-14 -1.2666175e-28 -1.2666175e-28)
(-5.7743992e-15 3.1665437e-28 -3.1665437e-28)
(1.5837083e-13 -5.06647e-28 -8.7478626e-42)
(2.0099549e-13 1.2666175e-28 1.2666175e-28)
(1.1586262e-14 -2.533235e-28 5.06647e-28)
(2.1809561e-13 -2.533235e-28 -2.533235e-28)
(3.3795314e-13 -2.533235e-28 -2.533235e-28)
(4.0024305e-13 0 -1.8999262e-28)
(3.7359276e-13 1.8999262e-28 -6.6148961e-42)
(4.6618464e-13 1.8999262e-28 -6.5878965e-42)
(5.8661951e-13 -1.8999262e-28 6.6148961e-42)
(5.9823409e-13 -8.783862e-42 5.06647e-28)
(6.4308417e-13 6.3330875e-29 6.3330875e-29)
(6.3812677e-13 4.1548622e-42 4.1548622e-42)
(5.3477441e-13 -4.9854464e-42 -9.9708927e-42)
(4.4699033e-13 0 6.1281457e-42)
(5.9637126e-13 1.2666175e-28 -1.2666175e-28)
(5.3453975e-13 -1.2666175e-28 -8.783862e-42)
(3.8989093e-13 1.2666175e-28 -2.533235e-28)
(3.3793479e-13 6.3330875e-29 -1.7999717e-44)
(2.9466637e-13 -7.9003124e-59 3.9501562e-59)
(1.9158415e-13 1.2666175e-28 1.0977375e-55)
(1.5450312e-13 -1.8999262e-28 -1.8999262e-28)
(2.5174739e-13 6.3330875e-29 4.391931e-42)
(9.5568903e-14 4.4099307e-42 8.8198614e-42)
(-2.0623354e-15 2.533235e-28 2.533235e-28)
(6.1496124e-14 -2.533235e-28 -2.533235e-28)
(6.1292877e-15 2.533235e-28 2.533235e-28)
(5.4120502e-14 1.2666175e-28 4.391931e-42)
(1.769327e-13 1.8999262e-28 1.8999262e-28)
(1.1507979e-14 0 -2.533235e-28)
(6.04094e-14 0 2.6999576e-44)
(2.3314446e-13 3.7998525e-28 3.7998525e-28)
(2.7289475e-13 5.06647e-28 0)
(4.0828912e-13 -3.1665437e-28 -3.1665437e-28)
(3.0286626e-13 -3.7998525e-28 -2.6297587e-41)
(2.7855229e-13 3.7998525e-28 7.599705e-28)
(1.0878829e-13 1.3175793e-41 -1.8999262e-28)
(2.9039533e-13 -6.3330875e-29 1.7999717e-44)
(2.2491565e-13 -1.2666175e-28 -1.2666175e-28)
(2.6476953e-13 -6.3330875e-29 6.3330875e-29)
(4.2381489e-13 0 1.8999262e-28)
(4.6793846e-13 -6.3330875e-29 -6.3330875e-29)
(3.0656585e-13 -6.3330875e-29 2.6387585e-41)
(1.1168906e-13 0 5.2703172e-41)
(1.361278e-13 6.3330875e-29 -6.3330875e-29)
(8.3906353e-14 0 0)
(-1.9193392e-13 0 0)
(-1.937127e-13 5.6997787e-28 -3.9527379e-41)
(-6.9660761e-14 7.9054758e-41 -7.9054758e-41)
(-1.7033769e-14 -1.8999262e-28 1.8999262e-28)
(-8.3873947e-15 1.2666175e-28 1.2666175e-28)
(-2.6865925e-13 1.2666175e-28 8.7298628e-42)
(-1.3731108e-13 -2.533235e-28 -2.533235e-28)
(-1.2930856e-13 -2.1869656e-41 3.1665437e-28)
(-8.7044832e-14 8.7118631e-42 8.7118631e-42)
(-6.6395483e-14 5.0136598e-59 5.0136598e-59)
(-2.2199318e-14 -6.4146353e-44 -8.8878514e-57)
(4.0646891e-14 -1.2666175e-28 -2.533235e-28)
(-2.6516998e-14 -8.783862e-42 6.3330875e-29)
(-2.4709429e-14 -8.7118631e-42 -1.2666175e-28)
(-6.2928958e-15 4.3559316e-42 4.3559316e-42)
(-1.0974735e-13 6.3330875e-29 4.3649314e-42)
(-1.9182333e-13 0 -1.3166793e-41)
(-2.3070563e-13 0 4.3739313e-42)
(-1.1172963e-13 6.3330875e-29 6.3330875e-29)
(-8.0196147e-14 1.2666175e-28 0)
(-2.5337874e-13 0 0)
(-2.8363801e-13 0 0)
(-4.4354908e-13 1.2666175e-28 0)
(-4.7055315e-13 1.8295624e-56 -1.8999262e-28)
(-4.5903839e-13 -1.2666175e-28 2.6405585e-41)
(-4.7606532e-13 0 1.8999262e-28)
(-5.3952102e-13 1.2666175e-28 1.2666175e-28)
(-4.5364247e-13 -6.3330875e-29 -6.3330875e-29)
(-5.5660401e-13 -3.5099449e-41 -1.2666175e-28)
(-6.1003695e-13 3.5385218e-41 3.5385218e-41)
(-2.0931826e-13 6.3330875e-29 -4.3829311e-42)
(-2.1680889e-13 -2.7505395e-54 -2.7505395e-54)
(-1.3559659e-13 2.6999576e-44 1.8999262e-28)
(-2.2755064e-13 1.2666175e-28 1.2666175e-28)
(-4.5344638e-13 -8.6597577e-43 -8.6597577e-43)
(-4.1383329e-13 -8.9998586e-45 0)
(-4.4183576e-13 -1.7531725e-41 1.2666175e-28)
(-6.2604616e-13 2.7962301e-55 2.7962301e-55)
(-6.2638649e-13 9.1189264e-42 9.1189264e-42)
(-7.8720689e-13 0 -1.2666175e-28)
(-7.5680335e-13 1.8999262e-28 2.6459584e-41)
(-9.3718946e-13 1.7531725e-41 2.533235e-28)
(-9.4415627e-13 5.2730171e-41 -3.7998525e-28)
(-1.0053579e-12 1.8999262e-28 1.8999262e-28)
(-7.8496242e-13 0 6.3330875e-29)
(-7.8154442e-13 -1.2666175e-28 -1.2666175e-28)
(-1.1135998e-12 -4.4331612e-28 4.4331612e-28)
(-1.0652554e-12 0 0)
(-1.2401477e-12 0 0)
(-1.1081582e-12 0 0)
(-9.9574249e-13 6.3330875e-29 6.3330875e-29)
(-1.0024468e-12 1.3148793e-41 -1.8999262e-28)
(-1.360011e-12 -4.4331612e-28 -8.8663225e-28)
(-1.387456e-12 0 5.06647e-28)
(-1.3673923e-12 0 -2.6405585e-41)
(-1.2882608e-12 2.533235e-28 2.533235e-28)
(-1.1404424e-12 1.2666175e-28 1.2666175e-28)
(-1.2276234e-12 -1.2666175e-28 -2.533235e-28)
(-1.3067693e-12 -1.0609973e-42 -2.4088878e-56)
(-1.2562608e-12 0 5.3999152e-44)
(-1.2573382e-12 -1.2666175e-28 -1.2666175e-28)
(-1.1567915e-12 -1.2666175e-28 -1.2666175e-28)
(-1.428366e-12 6.3330875e-29 1.2666175e-28)
(-1.480866e-12 1.8999262e-28 -2.6999576e-44)
(-1.2098099e-12 0 7.9162756e-41)
(-1.4174388e-12 -2.533235e-28 -2.533235e-28)
(-1.2474956e-12 -4.8452107e-54 -9.395383e-54)
(-1.3655035e-12 -3.8008917e-55 -4.7016905e-55)
(-1.2356642e-12 -6.3330875e-29 -6.3330875e-29)
(-1.3580785e-12 6.3330875e-29 6.3330875e-29)
(-1.5963071e-12 1.2666175e-28 0)
(-1.4453873e-12 0 1.2666175e-28)
(-1.2507438e-12 -6.3330875e-29 -6.3330875e-29)
(-1.1927397e-12 4.3090127e-56 -3.1004071e-43)
(-1.0305678e-12 -1.3684555e-42 1.3684555e-42)
(-1.2976547e-12 1.7567724e-41 0)
(-1.4929963e-12 -5.06647e-28 -2.533235e-28)
(-1.3762252e-12 3.1665437e-28 3.1665437e-28)
(-1.2448734e-12 -1.7567724e-41 1.2666175e-28)
(-1.2569311e-12 4.3973309e-41 4.3973309e-41)
(-1.5016612e-12 -8.7658623e-42 -2.533235e-28)
(-1.4129747e-12 -3.1665437e-28 -6.3330875e-28)
(-1.3605057e-12 1.2666175e-28 3.7998525e-28)
(-1.4003819e-12 -6.3330875e-29 -1.2666175e-28)
(-1.5647889e-12 0 0)
(-1.7228848e-12 -1.8999262e-28 -3.7998525e-28)
(-1.5185897e-12 -1.2666175e-28 -1.2666175e-28)
(-1.5501191e-12 0 -2.6941468e-42)
(-1.4638162e-12 -1.8999262e-28 -1.8999262e-28)
(-1.3446479e-12 -1.8999262e-28 -1.8999262e-28)
(-1.6322488e-12 -1.2666175e-28 -1.2666175e-28)
(-1.5138632e-12 -1.2666175e-28 -2.533235e-28)
(-1.508276e-12 1.8999262e-28 1.8999262e-28)
(-1.1648894e-12 1.2666175e-28 2.533235e-28)
(-1.1601369e-12 -8.6597147e-55 -8.6597147e-55)
(-1.3827947e-12 -6.3330875e-29 -1.2666175e-28)
(-1.4412883e-12 1.2666175e-28 1.2666175e-28)
(-1.4441145e-12 4.8769096e-55 6.8369627e-55)
(-1.2395958e-12 1.3189732e-41 1.3182359e-41)
(-1.2871608e-12 6.3330875e-29 1.2666175e-28)
(-1.3434944e-12 4.4009309e-42 6.3330875e-29)
(-1.2380155e-12 -1.7639723e-41 -3.5279446e-41)
(-1.1749201e-12 1.079983e-43 -3.7998525e-28)
(-1.2371146e-12 2.6243588e-41 3.7998525e-28)
(-1.2777799e-12 -3.7998525e-28 -3.7998525e-28)
(-1.1171797e-12 0 5.06647e-28)
(-1.1465871e-12 0 -2.6423585e-41)
(-1.3771268e-12 6.3330875e-29 -1.2666175e-28)
(-1.2486378e-12 1.8999262e-28 3.7998525e-28)
(-1.3355347e-12 0 1.7531725e-41)
(-1.1693067e-12 0 -2.533235e-28)
(-9.3418182e-13 0 0)
(-9.8356481e-13 0 0)
(-7.5906299e-13 -3.7998525e-28 -3.7998525e-28)
(-5.4149695e-13 -2.1824657e-41 3.1665437e-28)
(-3.0438214e-13 2.533235e-28 2.533235e-28)
(-1.9888025e-13 -1.079983e-43 -2.533235e-28)
(-3.7243317e-13 -4.4331612e-28 1.2599802e-43)
(-1.4312928e-13 -5.06647e-28 -5.06647e-28)
(-6.8550701e-14 7.0342895e-41 -5.06647e-28)
(-2.1783671e-14 7.8973759e-41 5.6997787e-28)
(8.1887744e-14 8.0998727e-44 0)
(2.2980257e-13 5.06647e-28 5.06647e-28)
(2.1761124e-13 5.6997787e-28 5.6997787e-28)
(3.3076217e-13 5.06647e-28 0)
(3.9933551e-13 -5.06647e-28 -5.06647e-28)
(4.6923001e-13 -5.6997787e-28 -1.8999262e-28)
(7.4363064e-13 5.06647e-28 1.013294e-27)
(7.7314234e-13 1.6466027e-27 -5.6978105e-41)
(1.0045476e-12 0 2.3399632e-43)
(1.2609029e-12 -8.2330137e-28 -8.2330137e-28)
(1.2553602e-12 -8.2330137e-28 -8.2330137e-28)
(1.4958038e-12 1.013294e-27 1.013294e-27)
(1.7958486e-12 -3.2399491e-43 -1.1399557e-27)
(2.1804876e-12 4.8599236e-43 1.1399557e-27)
(2.5735078e-12 -3.7799406e-43 -7.5598812e-43)
(2.9638217e-12 -1.519941e-27 -3.039882e-27)
(3.2204327e-12 -1.6466027e-27 1.6466027e-27)
(3.874192e-12 1.8365954e-27 1.8365954e-27)
(4.4088216e-12 4.1798377e-27 2.0899189e-27)
(4.8001803e-12 -2.026588e-27 2.8108358e-40)
(5.2447239e-12 1.8295624e-56 -2.0899189e-27)
(5.9085989e-12 -2.3432424e-27 0)
(6.4060505e-12 -7.1953869e-40 0)
(7.0224104e-12 6.079764e-27 3.039882e-27)
(7.709069e-12 0 -4.4843595e-40)
(8.2626969e-12 0 8.9641292e-40)
(9.2099589e-12 -6.7130727e-27 4.6649867e-40)
(1.0180122e-11 2.0399439e-39 -3.6731907e-27)
(1.1082303e-11 7.9796902e-27 3.9898451e-27)
(1.1790129e-11 0 -6.1199038e-43)
(1.3119327e-11 -5.0031391e-27 -5.0031391e-27)
(1.4275201e-11 -5.8264405e-27 0)
(1.58789e-11 6.2064257e-27 0)
(1.721259e-11 -9.0898572e-43 0)
(1.8695804e-11 9.3204336e-40 0)
(2.0053963e-11 -1.0349837e-42 0)
(2.198137e-11 -8.0430211e-27 0)
(2.4127705e-11 8.8029916e-27 0)
(2.6189239e-11 9.6896238e-27 9.6896238e-27)
(2.8550751e-11 0 0)
(3.1005595e-11 -1.1272896e-26 -1.1272896e-26)
(3.411521e-11 1.6794366e-39 0)
(3.7427528e-11 1.3489476e-26 1.3489476e-26)
(4.1153719e-11 -2.9258864e-26 4.0581442e-39)
(4.5081596e-11 4.4094987e-39 -1.589605e-26)
(4.8298043e-11 1.7415991e-26 0)
(5.2425869e-11 5.2229599e-39 0)
(5.7452589e-11 4.0785083e-26 2.0392542e-26)
(6.2820431e-11 -4.4331612e-26 3.0775016e-39)
(6.8234091e-11 -2.4319056e-26 -2.4319056e-26)
(7.3700088e-11 2.6472306e-26 0)
(8.0006164e-11 4.0229368e-42 0)
(8.7167993e-11 3.0715474e-26 3.0715474e-26)
(9.4883795e-11 0 3.3502033e-26)
(1.0294316e-10 0 -3.6161929e-26)
(1.1187846e-10 -3.907515e-26 -3.907515e-26)
(1.2152348e-10 5.9027553e-39 0)
(1.3234495e-10 9.2589739e-26 4.6294869e-26)
(1.4304339e-10 -7.0918886e-42 -7.0918886e-42)
(1.5497956e-10 -1.6187372e-25 -5.3957905e-26)
(1.6824514e-10 5.8327736e-26 5.8327736e-26)
(1.8273839e-10 6.3204213e-26 6.3204213e-26)
(1.9826296e-10 -1.3717467e-25 -6.8587337e-26)
(2.149784e-10 7.4160454e-26 -7.4160454e-26)
(2.3362237e-10 -8.036688e-26 0)
(2.5310434e-10 -1.7403324e-25 8.7016622e-26)
(2.7410205e-10 9.4426334e-26 9.4426334e-26)
(2.9754574e-10 1.0246936e-25 -1.0246936e-25)
(3.2245545e-10 1.1070237e-25 -1.1070237e-25)
(3.4935588e-10 -1.1931537e-25 0)
(3.7864013e-10 9.8796371e-55 1.2887833e-25)
(4.1019796e-10 1.3958125e-25 1.3958125e-25)
(4.4441422e-10 -1.5123413e-25 -1.5123413e-25)
(4.8175312e-10 1.6377364e-25 -1.6377364e-25)
(5.218376e-10 -1.7713646e-25 0)
(5.6512496e-10 -5.3087916e-38 0)
(6.1228458e-10 -5.8877075e-41 0)
(6.6252842e-10 -2.2381131e-25 0)
(7.1743371e-10 4.8384788e-25 0)
(7.7632958e-10 -2.6123986e-25 0)
(8.4055668e-10 -7.8344399e-38 0)
(9.1008861e-10 8.4693997e-38 0)
(9.8457244e-10 3.3008052e-25 3.3008052e-25)
(1.0655416e-09 7.1323231e-25 -2.1369289e-53)
(1.1532363e-09 -1.1557251e-24 -3.8524171e-25)
(1.2474912e-09 -1.1538481e-37 0)
(1.3492024e-09 2.49286e-37 0)
(1.4585928e-09 -1.3446599e-37 0)
(1.5769008e-09 1.0476193e-24 5.2380966e-25)
(1.7055815e-09 -1.1312161e-24 7.8448671e-38)
(1.8442393e-09 1.6937043e-37 -6.1057296e-25)
(1.993484e-09 1.3177888e-24 6.5889442e-25)
(2.1552507e-09 0 -9.8735046e-38)
(2.3293801e-09 0 1.0909629e-40)
(2.5171798e-09 -8.2836784e-25 1.1501063e-37)
(2.7198275e-09 1.2392272e-37 -8.9347198e-25)
(2.9383212e-09 9.6383258e-25 9.6383258e-25)
(3.1742451e-09 1.0396396e-24 -1.0396396e-24)
(3.4280582e-09 -1.1208298e-24 6.2278283e-37)
(3.7019565e-09 -3.6248693e-24 1.2082898e-24)
(3.997531e-09 1.3030327e-24 -1.3030327e-24)
(4.3166176e-09 1.4047421e-24 0)
(4.6600049e-09 4.3031924e-40 0)
(5.0299286e-09 1.63153e-24 1.63153e-24)
(5.428761e-09 0 2.4407226e-37)
(5.8583837e-09 -3.7884529e-24 -1.8942265e-24)
(6.3218675e-09 -4.0815482e-24 2.0407741e-24)
(6.8205992e-09 2.1984047e-24 2.1984047e-24)
(7.3579799e-09 4.7356295e-24 0)
(7.9373759e-09 2.5500177e-24 -2.5500177e-24)
(8.5605204e-09 -5.4912935e-24 -2.7456467e-24)
(9.2313104e-09 -5.9123171e-24 2.9561586e-24)
(9.9541617e-09 6.3653862e-24 8.8331826e-37)
(1.0731988e-08 6.851894e-24 4.854439e-53)
(1.1568627e-08 0 5.1192042e-37)
(1.2469583e-08 -7.9352319e-24 -3.967616e-24)
(1.3438782e-08 4.2690076e-24 4.2690076e-24)
(1.4480745e-08 9.1851301e-24 -2.5809027e-52)
(1.560255e-08 -4.9400615e-24 6.858784e-37)
(1.6809711e-08 -5.3134604e-24 5.3134604e-24)
(1.8107564e-08 8.1207524e-40 0)
(1.9502746e-08 -8.5312742e-37 0)
(2.1003096e-08 -6.6064869e-24 -6.6064869e-24)
(2.2616253e-08 7.1022409e-24 -1.0092891e-39)
(2.4350126e-08 7.6338403e-24 3.1763938e-36)
(2.621356e-08 -8.2042615e-24 -8.2042615e-24)
(2.8216638e-08 1.2228278e-36 0)
(3.0368272e-08 1.3462258e-39 0)
(3.2680849e-08 1.4116105e-36 1.0177588e-23)
(3.5165031e-08 1.0932556e-23 -3.0310923e-36)
(3.7832493e-08 -1.1742051e-23 -1.1742051e-23)
(4.0697972e-08 5.2524512e-36 0)
(4.3775213e-08 1.8800106e-36 0)
(4.7079088e-08 4.03486e-36 0)
(5.0626097e-08 1.5606437e-23 1.5606437e-23)
(5.44337e-08 -1.6751206e-23 -2.3804896e-39)
(5.8520384e-08 2.4960473e-36 -1.7977862e-23)
(6.2905541e-08 5.3487385e-36 1.9291851e-23)
(6.7610513e-08 2.9415678e-39 -2.0699443e-23)
(7.2659623e-08 4.4413309e-23 6.1726576e-36)
(7.8075769e-08 2.3820452e-23 4.7640904e-23)
(8.3884816e-08 -2.5548625e-23 -2.5548625e-23)
(9.011482e-08 -5.4796786e-23 -1.1411983e-35)
(9.6795347e-08 4.078824e-36 -4.078824e-36)
(1.0395802e-07 6.2992941e-23 4.3729716e-36)
(1.116364e-07 3.3763589e-23 3.3763589e-23)
(1.1986712e-07 -7.2378703e-23 0)
(1.2868884e-07 -3.8784018e-23 0)
(1.3814237e-07 4.155924e-23 -4.155924e-23)
(1.4827182e-07 4.4527621e-23 -6.1822172e-36)
(1.5912409e-07 1.3238982e-35 1.3238982e-35)
(1.7074843e-07 -5.1094906e-23 1.6885032e-52)
(1.831986e-07 0 5.4722752e-23)
(1.9653194e-07 0 -5.8600375e-23)
(2.108092e-07 -6.2744494e-23 -6.2744494e-23)
(2.2609507e-07 0 0)
(2.424586e-07 7.1904672e-23 7.1904672e-23)
(2.5997454e-07 -7.6959426e-23 1.0685051e-35)
(2.787197e-07 -1.1703857e-38 -8.2358573e-23)
(2.9877809e-07 2.4457958e-35 0)
(3.2023937e-07 0 0)
(3.4319891e-07 1.0085682e-22 1.0085682e-22)
(3.6775756e-07 -1.0787534e-22 -3.0660016e-38)
(3.9402339e-07 -1.1536675e-22 3.7246842e-52)
(4.2211193e-07 2.467248e-22 1.233624e-22)
(4.5214461e-07 1.3189478e-22 -1.3189478e-22)
(4.8425207e-07 -1.4099859e-22 1.9536178e-35)
(5.1857311e-07 0 -2.0924646e-35)
(5.552552e-07 0 4.4702987e-35)
(5.9445553e-07 1.721185e-22 1.721185e-22)
(6.3634175e-07 -5.1091629e-35 -1.8390045e-22)
(6.8109305e-07 -1.9646257e-22 5.4553746e-35)
(7.2889814e-07 0 -5.8302351e-35)
(7.7995708e-07 0 6.226836e-35)
(8.344856e-07 2.3934429e-22 2.3934429e-22)
(8.9271117e-07 -1.0648069e-34 -2.5555636e-22)
(9.5487604e-07 -2.7282998e-22 7.5759456e-35)
(1.0212384e-06 0 -4.0517514e-35)
(1.0920722e-06 0 0)
(1.1676683e-06 0 3.3171116e-22)
(1.2483349e-06 0 -3.5394182e-22)
(1.3344011e-06 0 5.2427606e-35)
(1.4262173e-06 0 -5.7242701e-38)
(1.524153e-06 0 5.965001e-35)
(1.6286015e-06 0 -6.3678327e-35)
(1.7399817e-06 -9.7710319e-22 -4.885516e-22)
(1.8587372e-06 -2.8912259e-34 5.2087029e-22)
(1.9853392e-06 5.5525155e-22 5.5525155e-22)
(2.1202881e-06 -5.9182139e-22 -5.9182139e-22)
(2.264114e-06 6.3071364e-22 -6.3071364e-22)
(2.4173808e-06 -6.7207035e-22 0)
(2.580686e-06 1.9903391e-34 7.1604123e-22)
(2.7546622e-06 7.6278448e-22 7.6278448e-22)
(2.9399813e-06 2.2560614e-34 0)
(3.137357e-06 8.6526872e-22 -8.6526872e-22)
(3.3475433e-06 0 1.2792373e-34)
(3.5713427e-06 0 -1.3940627e-37)
(3.8096035e-06 -1.0443069e-21 -1.4484321e-34)
(4.0632245e-06 -3.0865914e-34 1.1115638e-21)
(4.3331597e-06 1.1829894e-21 -1.1829894e-21)
(4.6204187e-06 0 -1.7459724e-34)
(4.9260709e-06 0 3.7191066e-34)
(5.25125e-06 0 1.4248213e-21)
(5.5971546e-06 0 1.5155383e-21)
(5.9650543e-06 0 -3.2236158e-21)
(6.3562942e-06 0 2.4356758e-37)
(6.7722973e-06 0 -2.527523e-34)
(7.2145705e-06 -3.8745438e-21 -1.9372719e-21)
(7.684706e-06 1.7142146e-33 2.0591862e-21)
(8.1843896e-06 4.376936e-21 -3.0384701e-34)
(8.7154047e-06 -2.3255421e-21 -2.3255421e-21)
(9.2796377e-06 -3.5112987e-37 0)
(9.8790828e-06 -2.6248848e-21 0)
(1.0515848e-05 1.5460363e-33 0)
(1.119216e-05 5.9222036e-21 2.9611018e-21)
(1.1910377e-05 3.1443691e-21 3.1443691e-21)
(1.2672987e-05 -9.6165584e-51 -3.3385106e-21)
(1.3482622e-05 -1.0632422e-20 -3.5441408e-21)
(1.434206e-05 0 0)
(1.5254236e-05 7.9849843e-21 3.9924921e-21)
(1.622225e-05 0 4.2366127e-21)
(1.7249374e-05 0 -4.4950258e-21)
(1.8339065e-05 -9.5370542e-21 -4.7685271e-21)
(1.9494969e-05 1.4030555e-33 0)
(2.0720939e-05 1.6092561e-20 5.3641869e-21)
(2.2021034e-05 -5.6881549e-21 5.6881549e-21)
(2.3399542e-05 -6.0308324e-21 -6.0308324e-21)
(2.4860985e-05 6.3932452e-21 -1.775277e-33)
(2.6410132e-05 -6.7764725e-21 6.7764725e-21)
(2.8052011e-05 7.1816483e-21 0)
(2.9791927e-05 2.110973e-33 0)
(3.1635472e-05 -8.0626754e-21 0)
(3.3588535e-05 8.5410962e-21 0)
(3.5657329e-05 0 -9.0466107e-21)
(3.7848396e-05 9.5806719e-21 2.6576389e-33)
(4.0168633e-05 -1.0144806e-20 1.0144806e-20)
(4.26253e-05 -2.1481231e-20 -1.0740615e-20)
(4.5226047e-05 1.1369782e-20 -1.5785811e-33)
(4.7978927e-05 1.2034072e-20 1.6725213e-33)
(5.0892419e-05 1.2735338e-20 3.4677762e-50)
(5.3975449e-05 1.3475525e-20 -1.3475525e-20)
(5.7237414e-05 -2.8513347e-20 -1.4256674e-20)
(6.0688199e-05 -1.5080922e-20 3.0161845e-20)
(6.4338205e-05 1.5950516e-20 2.2145704e-33)
(6.8198374e-05 0 -2.3395301e-33)
(7.2280216e-05 -1.7835262e-20 1.7835262e-20)
(7.6595834e-05 1.8855465e-20 0)
(8.1157954e-05 1.9931127e-20 -1.9931127e-20)
(8.5979953e-05 -6.3195255e-20 -2.1065085e-20)
(9.1075891e-05 -6.3267614e-36 2.2260313e-20)
(9.6460548e-05 4.7039848e-20 6.5243301e-33)
(0.00010214945 -2.4847179e-20 -2.4847179e-20)
(0.00010815891 -3.6439256e-33 0)
(0.00011450606 -2.7718439e-20 0)
(0.00012120889 8.3189649e-36 2.9269756e-20)
(0.00012828629 6.1806716e-20 -4.2862321e-33)
(0.00013575811 -3.2623338e-20 -3.2623339e-20)
(0.00014364516 0 0)
(0.00015196929 1.0090827e-32 3.6339757e-20)
(0.00016075342 5.4492027e-36 -5.4492027e-36)
(0.00017002161 4.0455666e-20 1.1233733e-32)
(0.00017979909 -4.2675805e-20 5.9190464e-33)
(0.00019011232 1.2498692e-32 -4.5011117e-20)
(0.00020098904 6.5836009e-33 4.7467185e-20)
(0.00021245834 7.1125103e-36 -7.1125103e-36)
(0.00022455071 5.2765178e-20 1.465184e-32)
(0.00023729809 -5.5619553e-20 5.5619553e-20)
(0.00025073397 1.4803581e-49 -5.8619604e-20)
(0.00026489343 1.7152928e-32 -1.7152928e-32)
(0.00027981321 9.2491002e-36 -9.2491002e-36)
(0.00029553178 1.3712926e-19 9.5195166e-33)
(0.00031208944 1.0016731e-32 7.221975e-20)
(0.00032952836 -7.6058322e-20 -7.6058322e-20)
(0.00034789269 0 0)
(0.00036722864 0 4.6816216e-32)
(0.00038758456 8.8762132e-20 1.2311125e-32)
(0.00040901102 3.8873051e-32 3.8873051e-32)
(0.00043156093 -9.8315389e-20 1.3971457e-35)
(0.00045528961 1.0344752e-19 1.0344752e-19)
(0.00048025491 -1.5110115e-32 -1.088311e-19)
(0.00050651729 1.1133312e-48 1.1133312e-48)
(0.00053413998 1.6716155e-32 1.6716155e-32)
(0.00056318902 -1.2660684e-19 -3.5156199e-32)
(0.00059373343 -1.3311491e-19 1.8481681e-32)
(0.00062584531 -1.9408869e-32 -2.7987249e-19)
(0.00065959996 1.4708473e-19 1.4708473e-19)
(0.000695076 0 1.5457481e-19)
(0.00073235555 0 2.2550613e-32)
(0.0007715243 -1.7064048e-19 -2.3691733e-32)
(0.00081267169 1.792479e-19 -3.584958e-19)
(0.00085589107 -1.5672169e-31 1.8826064e-19)
(0.0009012798 -1.9769623e-19 1.9769623e-19)
(0.00094893946 2.0757283e-19 4.863803e-49)
(0.00099897597 0 0)
(0.0010514998 -2.2872535e-19 5.3255443e-49)
(0.0011066261 -2.400412e-19 2.400412e-19)
(0.0011644749 2.51878e-19 -2.51878e-19)
(0.0012251712 2.6425763e-19 6.093928e-49)
(0.0012888454 0 3.844746e-32)
(0.0013556332 -2.9073709e-19 4.1316225e-35)
(0.001425676 -3.0488485e-19 3.0488485e-19)
(0.0014991212 6.3934281e-19 -6.3934281e-19)
(0.0015761218 3.3512296e-19 -9.3056976e-32)
(0.0016568376 -3.5126665e-19 3.5126665e-19)
(0.0017414345 -3.6813062e-19 -5.105896e-32)
(0.0018300855 -5.3501895e-32 5.3501895e-32)
(0.0019229701 -4.0413686e-19 -4.0413686e-19)
(0.0020202754 -1.1755322e-31 4.2334047e-19)
(0.0021221958 8.8677418e-19 -3.9435773e-48)
(0.0022289335 0 1.934605e-31)
(0.0023406986 0 -1.3506162e-31)
(0.0024577095 0 1.4124594e-31)
(0.0025801931 -5.3268889e-19 1.479171e-31)
(0.0027083852 -5.574748e-19 1.2184544e-48)
(0.0028425307 0 0)
(0.0029828838 6.1027082e-19 -6.1027082e-19)
(0.0031297086 8.8449014e-32 0)
(0.0032832791 -6.6764394e-19 0)
(0.0034438799 0 6.9815636e-19)
(0.003611806 0 2.0269182e-31)
(0.0037873637 7.6306425e-19 -7.6306425e-19)
(0.0039708706 1.1061947e-31 0)
(0.0041626559 -1.1548286e-31 0)
(0.0043630613 8.7087232e-19 1.7417446e-18)
(0.0045724407 -9.0980183e-19 7.5738443e-31)
(0.0047911608 3.9542201e-31 -1.9006387e-18)
(0.0050196019 9.9248212e-19 9.9248212e-19)
(0.0052581576 0 -1.4727407e-34)
(0.0055072358 1.0819811e-18 1.5022231e-31)
(0.0057672588 1.5681157e-31 1.1294405e-18)
(0.0060386638 -1.1787916e-18 0)
(0.0063219034 1.2301006e-18 0)
(0.0066174459 -1.2834356e-18 0)
(0.0069257758 -1.3388665e-18 1.3388665e-18)
(0.0072473943 1.3964652e-18 3.8737369e-31)
(0.0075828199 0 -1.4563056e-18)
(0.0079325884 -1.5184637e-18 0)
(0.008297254 -1.5830175e-18 0)
(0.0086773892 1.650047e-18 1.650047e-18)
(0.0090735859 1.7196344e-18 -2.4437475e-34)
(0.0094864553 0 -1.7918641e-18)
(0.0099166287 1.8668227e-18 0)
(0.010364758 -1.9445989e-18 0)
(0.010831517 -2.0252838e-18 2.0252838e-18)
(0.0113176 2.1089705e-18 5.8501974e-31)
(0.011823723 4.3915095e-18 6.1002944e-31)
(0.012350628 -1.269406e-30 -6.3470298e-31)
(0.012899076 -7.1370298e-18 -2.3790099e-18)
(0.013469854 4.737575e-48 2.4756838e-18)
(0.014063775 2.5758612e-18 -7.1489935e-31)
(0.014681673 5.3592994e-18 7.437046e-31)
(0.015324412 -1.546293e-30 -7.7314649e-31)
(0.015992878 -5.7970045e-18 -2.8985022e-18)
(0.016687988 3.0137937e-18 0)
(0.017410682 -3.1331512e-18 0)
(0.018161931 3.2566947e-18 3.2566947e-18)
(0.018942733 3.3845468e-18 -1.5651881e-46)
(0.019754116 -7.0336651e-18 -3.5168325e-18)
(0.020597137 0 0)
(0.021472885 0 0)
(0.022382476 7.8831641e-18 3.941582e-18)
(0.023327062 -5.9252423e-47 -1.1850485e-46)
(0.024307824 -8.4986544e-18 -4.2493272e-18)
(0.025325979 0 0)
(0.026382773 0 0)
(0.02747949 9.5012015e-18 4.7506007e-18)
(0.028617446 -6.9760494e-47 -1.3952099e-46)
(0.029797994 -1.0225844e-17 -5.1129222e-18)
(0.031022522 0 0)
(0.032292453 0 0)
(0.03360925 1.1403319e-17 5.7016597e-18)
(0.034974412 5.9106059e-18 -8.3994762e-34)
(0.036389475 -1.2252346e-17 -6.1261732e-18)
(0.037856015 -6.3485276e-18 6.3485276e-18)
(0.039375649 0 -1.8274695e-30)
(0.04095003 1.3628551e-17 1.8931571e-30)
(0.042580856 -3.9197397e-30 -1.9598698e-30)
(0.044269863 -1.4618455e-17 -7.3092273e-18)
(0.046018829 7.5680958e-18 0)
(0.047829574 0 0)
(0.049703963 -8.1095195e-18 0)
(0.051643901 8.392442e-18 0)
(0.053651339 -1.2340356e-33 0)
(0.05572827 -8.9836423e-18 8.9836423e-18)
(0.057876734 9.2922999e-18 -2.5789663e-30)
(0.060098815 -9.6099188e-18 -9.6099188e-18)
(0.062396642 -9.9366936e-18 0)
(0.064772389 1.0272821e-17 0)
(0.067228281 1.0618498e-17 0)
(0.069766584 -3.0472407e-30 0)
(0.072389614 -1.1339304e-17 0)
(0.075099735 1.1714836e-17 0)
(0.077899358 3.3601309e-30 0)
(0.080790942 -1.2497179e-17 1.2497179e-17)
(0.083776993 1.2904402e-17 -7.1629234e-30)
(0.086860069 -1.3322601e-17 -1.3322601e-17)
(0.090042773 -1.3751984e-17 0)
(0.093327761 1.4192762e-17 0)
(0.096717736 1.4645144e-17 0)
(0.10021545 -4.1955633e-30 0)
(0.1038237 -1.5585562e-17 0)
(0.10754535 1.607402e-17 0)
(0.1113833 -2.3554386e-33 0)
(0.11534048 -1.708849e-17 1.708849e-17)
(0.11941992 1.7614926e-17 -4.8888111e-30)
(0.12362466 -1.8154443e-17 -1.8154443e-17)
(0.12795779 -1.8707252e-17 0)
(0.13242247 1.9273564e-17 0)
(0.1370219 3.9707177e-17 1.9853589e-17)
(0.14175932 -1.1361558e-29 -5.6807792e-30)
(0.14663804 -4.2111218e-17 -2.1055609e-17)
(0.1516614 2.1678019e-17 0)
(0.15683279 -3.171148e-33 0)
(0.16215566 -4.5933333e-17 0)
(0.1676335 -6.7169906e-33 2.363331e-17)
(0.17326984 2.4315101e-17 6.755275e-30)
(0.17906828 0 -2.5012238e-17)
(0.18503244 -2.5724917e-17 0)
(0.191166 0 0)
(0.19747268 2.7197678e-17 0)
(0.20395626 0 0)
(0.21062053 0 0)
(0.21746937 0 0)
(0.22450667 3.0338072e-17 0)
(0.23173636 -4.0185915e-47 3.116483e-17)
(0.23916243 -3.2008603e-17 -4.5486961e-33)
(0.2467889 0 -3.2869561e-17)
(0.25461983 -3.3747867e-17 0)
(0.26265932 9.6198614e-30 0)
(0.27091151 3.5557165e-17 0)
(0.27938057 0 0)
(0.28807071 0 0)
(0.29698617 0 0)
(0.30613123 3.939073e-17 0)
(0.3155102 -1.1216813e-29 4.039473e-17)
(0.32512741 -4.1417235e-17 5.8857432e-33)
(0.33498723 0 -4.2458367e-17)
(0.34509406 -4.3518242e-17 0)
(0.35545233 -1.2377353e-29 0)
(0.36606647 4.569465e-17 0)
(0.37694096 0 4.6811386e-17)
(0.3880803 -4.7947266e-17 -2.6621189e-29)
(0.399489 4.9102374e-17 -4.9102374e-17)
(0.41117159 -2.7936018e-29 0)
(0.42313263 -5.1470583e-17 5.1470583e-17)