/*--------------------------------*- C++ -*----------------------------------*\
  =========                 |
  \\      /  F ield         | OpenFOAM: The Open Source CFD Toolbox
   \\    /   O peration     | Website:  https://openfoam.org
    \\  /    A nd           | Version:  7
     \\/     M anipulation  |
\*---------------------------------------------------------------------------*/
FoamFile
{
    version     2.0;
    format      ascii;
    class       volScalarField;
    location    "0.00068";
    object      mag(U);
}
// * * * * * * * * * * * * * * * * * * * * * * * * * * * * * * * * * * * * * //

dimensions      [0 1 -1 0 0 0 0];

internalField   nonuniform List<scalar> 
5000
(
1.7489179e-13
2.3390434e-13
2.3152329e-13
2.8180331e-13
2.7708762e-13
1.9017242e-13
6.2103346e-14
3.2907061e-14
7.6325502e-14
2.1588685e-13
2.6336523e-13
2.707442e-13
4.7935916e-13
5.9333812e-13
5.9758679e-13
6.5686937e-13
5.1858236e-13
3.9471372e-13
5.8009091e-13
5.268551e-13
6.1639483e-13
8.7482005e-13
1.0006941e-12
8.3219449e-13
6.0069206e-13
6.7730838e-13
7.8551302e-13
6.5205969e-13
8.1162156e-13
8.0320326e-13
5.5700203e-13
6.1852949e-13
6.7810914e-13
9.1565319e-13
6.8140858e-13
5.6296121e-13
5.4742321e-13
4.4596167e-13
4.623319e-13
2.7547224e-13
3.6016743e-13
4.7412138e-13
2.7519985e-13
1.5699649e-13
5.6125504e-13
4.0041249e-13
4.1647584e-13
5.0244125e-13
4.9191325e-13
6.1412469e-13
7.4263275e-13
6.0196091e-13
7.5771429e-13
7.396248e-13
8.0829714e-13
8.4368928e-13
8.9220931e-13
1.0969931e-12
1.1906114e-12
1.1278042e-12
1.2980949e-12
1.2071172e-12
8.2941806e-13
9.7482081e-13
8.9480026e-13
9.3762781e-13
1.3694042e-12
1.2457411e-12
1.3217508e-12
1.3658697e-12
1.3433116e-12
1.4602432e-12
1.3114281e-12
1.364952e-12
1.3895559e-12
1.3850324e-12
1.3796969e-12
1.5105136e-12
1.2806497e-12
1.2369248e-12
1.4419678e-12
1.1651226e-12
1.1549527e-12
1.3241899e-12
1.3020334e-12
1.5493276e-12
1.6953323e-12
1.7464746e-12
1.8490766e-12
2.0976352e-12
1.9344679e-12
1.6955779e-12
1.9580272e-12
2.1012855e-12
2.0806679e-12
2.1950004e-12
2.171132e-12
2.0919058e-12
1.8619478e-12
1.5178017e-12
1.6433965e-12
1.5692052e-12
1.5621884e-12
1.4909763e-12
1.5572405e-12
1.5253188e-12
1.266266e-12
1.4303243e-12
1.2164232e-12
8.7387248e-13
7.8291679e-13
8.8663503e-13
5.630479e-13
4.6356343e-13
5.4400415e-13
4.7819201e-13
2.7617957e-13
8.9833918e-14
1.3644728e-13
1.2041595e-13
1.0542703e-13
3.8810592e-14
1.9261623e-14
1.2205626e-14
1.3103747e-13
1.8072787e-13
2.8163583e-15
5.9423027e-14
8.9601051e-14
1.8600317e-13
1.1870067e-13
1.6996627e-13
6.5660224e-15
2.1096427e-14
5.109015e-14
5.8079362e-14
1.1113926e-13
1.1611595e-13
1.2844763e-13
1.4314601e-13
2.0808343e-13
1.7880116e-13
2.7389066e-13
2.8329211e-13
4.5932708e-13
4.1679745e-13
4.881276e-13
5.5931707e-13
3.0472482e-13
1.7700944e-13
5.9495269e-14
4.2296083e-14
1.6332534e-13
1.9762191e-13
1.4835217e-13
8.2890483e-14
1.0889422e-13
6.8100252e-14
3.1239557e-13
2.2933698e-13
4.8828344e-13
4.3972537e-13
3.5225455e-13
2.9215307e-13
2.7169583e-14
1.3138592e-13
1.0521764e-13
1.0599463e-13
1.0646877e-13
1.8702092e-13
1.1698086e-13
2.6343887e-13
3.5375708e-13
2.6393325e-13
5.0072019e-13
4.4386348e-13
4.1006127e-13
3.6427852e-13
5.0787878e-13
6.2239936e-13
7.5092659e-13
7.5068476e-13
6.6440237e-13
8.5049463e-13
6.0168928e-13
7.321246e-13
7.4324981e-13
5.5147884e-13
4.8146378e-13
5.4919985e-13
5.2896223e-13
5.6809045e-13
6.7751245e-13
7.2429018e-13
8.690348e-13
7.9217527e-13
7.6036961e-13
7.8107013e-13
5.1997304e-13
4.6540998e-13
6.0908358e-13
4.9681101e-13
4.0289857e-13
5.5724034e-13
3.8178329e-13
2.4026892e-13
2.3315899e-13
2.4171422e-13
4.78745e-13
4.8170564e-13
5.5324705e-13
5.8740185e-13
8.3567622e-13
8.4784729e-13
8.5088543e-13
7.8039227e-13
1.0270245e-12
1.0040484e-12
1.0873856e-12
9.7315779e-13
1.107186e-12
1.3489181e-12
9.6664312e-13
1.1561907e-12
1.2558143e-12
1.1399786e-12
1.2496519e-12
1.3959039e-12
1.1869648e-12
1.2171716e-12
1.4032787e-12
1.4209523e-12
1.3130622e-12
1.6054987e-12
1.6163322e-12
1.8530493e-12
1.7006529e-12
1.6690913e-12
1.7994968e-12
1.8327526e-12
1.883647e-12
1.935079e-12
2.0075744e-12
1.959941e-12
2.1997141e-12
2.2028567e-12
2.011973e-12
2.2343381e-12
2.1552351e-12
1.7795406e-12
2.0172514e-12
2.1598072e-12
1.8263673e-12
1.855952e-12
1.9619565e-12
1.9107114e-12
1.7745133e-12
1.8355473e-12
1.8710733e-12
1.9483444e-12
2.0840606e-12
1.8666826e-12
1.9429818e-12
1.8276034e-12
1.8525387e-12
1.5673953e-12
1.2936233e-12
1.477426e-12
1.6893361e-12
1.3744449e-12
1.3278988e-12
1.5121881e-12
1.6238214e-12
1.5459255e-12
1.3560051e-12
1.4572772e-12
1.6047711e-12
1.4453524e-12
1.7603071e-12
1.9157733e-12
1.8701591e-12
1.7515931e-12
1.6475875e-12
1.3990398e-12
1.2793826e-12
1.5383541e-12
1.5203397e-12
1.5264458e-12
1.4094847e-12
1.5758307e-12
1.3618615e-12
1.065581e-12
9.4870008e-13
1.0269005e-12
1.108552e-12
1.2127811e-12
1.3281788e-12
9.6973995e-13
8.6627845e-13
1.2698897e-12
9.6835369e-13
7.575414e-13
1.1056678e-12
8.3533734e-13
6.9925214e-13
8.1031452e-13
6.4647343e-13
6.4804927e-13
4.9062043e-13
5.634893e-13
2.6949153e-13
2.3870283e-13
2.236004e-13
1.2953287e-13
7.8930589e-14
7.1145065e-14
7.0112997e-14
3.4598996e-14
1.462108e-13
1.6976122e-13
4.5013463e-14
1.2540722e-13
1.9331088e-13
4.3894045e-13
3.7769021e-13
5.9198638e-13
4.571594e-13
5.6340274e-13
6.561529e-13
4.538703e-13
6.5512793e-13
8.4617204e-13
6.9261082e-13
6.4381793e-13
5.1495669e-13
4.1971522e-13
3.7194668e-13
5.1715733e-13
6.8191792e-13
6.0209329e-13
3.1620402e-13
4.329994e-13
4.8606997e-13
5.4490087e-13
4.0206834e-13
4.9637088e-13
6.0058459e-13
5.8781576e-13
5.4316857e-13
4.6139386e-13
6.4979705e-13
4.6410759e-13
4.4816821e-13
3.5004369e-13
2.998395e-13
3.1741751e-13
2.003106e-13
2.3416464e-13
3.7624351e-13
5.0901671e-13
5.5434415e-13
4.4213948e-13
3.0030181e-13
3.8839831e-13
4.2645941e-13
5.3102202e-13
5.5793672e-13
6.556742e-13
3.3699396e-13
4.3361686e-13
5.4445147e-13
5.7207103e-13
6.4867656e-13
7.6295652e-13
7.8251789e-13
5.0407434e-13
8.4310276e-13
7.395905e-13
8.2158398e-13
1.0031639e-12
9.3721381e-13
9.9575423e-13
8.1133651e-13
7.6688417e-13
8.6957321e-13
6.1987192e-13
4.9396339e-13
2.4925659e-13
4.2275672e-13
3.2401785e-13
2.9203039e-13
3.4152923e-13
2.6854755e-13
1.09948e-13
6.7844198e-14
8.4438092e-14
2.9880599e-13
2.3972774e-13
3.4776091e-13
3.7372839e-13
3.7230071e-13
4.3750362e-13
3.3368948e-13
3.0381995e-13
4.3643594e-13
5.8695513e-13
5.8005627e-13
4.273334e-13
2.9223491e-13
2.4301775e-13
9.0833147e-14
4.0743965e-14
1.4992341e-13
1.7856258e-13
2.082294e-13
2.3169074e-13
3.5152657e-13
1.6288254e-13
1.4734438e-13
1.0472924e-13
1.322771e-14
8.5559966e-14
1.5039801e-13
1.3862496e-13
8.9714925e-14
7.3647998e-14
3.3257437e-15
9.3792258e-14
2.0810978e-14
1.1242984e-14
1.7275465e-13
2.1344618e-13
1.6619803e-14
8.3736185e-14
2.0857375e-13
1.5361598e-13
1.6535561e-13
1.9690521e-13
2.6391654e-13
2.4318991e-13
6.6290784e-16
9.6847842e-14
2.3845961e-13
3.0522419e-13
2.9868111e-13
1.9719164e-13
2.0619313e-13
3.5698233e-13
1.970618e-13
4.882214e-14
1.4573807e-13
6.5277922e-14
5.64808e-14
5.409339e-14
1.196438e-13
2.1698631e-13
2.5323843e-13
9.0983335e-14
2.6782877e-13
2.9142628e-13
2.0703149e-13
2.0677811e-13
2.6952519e-14
2.5741968e-14
1.0105097e-13
4.5811662e-14
4.1824532e-14
8.3509027e-15
2.6979375e-13
8.5391662e-14
1.0421063e-13
8.2669422e-14
3.1276297e-14
1.4197679e-13
8.1785293e-14
7.2269891e-14
1.526798e-13
8.1992931e-14
1.4740777e-13
2.4813307e-13
2.6632404e-13
3.9343733e-13
3.1243126e-13
2.4698304e-13
1.9008196e-13
2.5433798e-13
4.4094639e-13
3.0610997e-13
4.8009514e-13
3.6678131e-13
3.8484938e-13
3.9312893e-13
4.5438703e-13
2.2417576e-13
3.2836648e-13
4.3898298e-13
4.3733052e-13
2.7922957e-13
2.2688623e-13
1.2456546e-13
2.3619877e-13
1.0647795e-13
1.3139854e-13
1.3869195e-13
1.6201949e-13
1.1506327e-13
3.1614312e-13
2.3164749e-13
4.7301874e-13
3.1185529e-13
4.0583138e-13
2.9880179e-13
4.4127352e-13
4.7980633e-13
4.3326737e-13
3.844384e-13
3.9695978e-13
1.928205e-13
5.0616819e-13
6.1172844e-13
4.0990064e-13
1.6732584e-13
1.6055099e-13
4.5447837e-14
6.592725e-14
5.1194577e-14
1.0130579e-13
4.5078967e-14
3.9057489e-14
2.2564743e-13
2.1296416e-13
2.169903e-13
2.0850108e-13
1.8424736e-13
3.035138e-13
1.7810539e-13
2.3950017e-13
2.6945863e-13
2.2119169e-13
9.4427906e-14
1.8348437e-13
1.3126279e-13
2.8820866e-13
4.981571e-13
5.5654973e-14
1.5113027e-13
2.7063448e-14
5.5717641e-14
1.0722844e-13
2.8864544e-13
3.1953432e-13
4.4328383e-13
5.1918726e-13
6.661243e-13
8.2481109e-13
7.7743022e-13
9.2678636e-13
9.729322e-13
9.0701811e-13
9.5937737e-13
1.0754036e-12
1.1918956e-12
1.176117e-12
9.9359252e-13
1.2156888e-12
1.3184553e-12
1.2641384e-12
9.3454844e-13
1.0301836e-12
1.0969889e-12
1.2275409e-12
1.430134e-12
1.1843248e-12
1.3334466e-12
9.5089627e-13
1.0227334e-12
1.0986917e-12
1.0338319e-12
1.0395297e-12
1.1423122e-12
9.4095641e-13
8.7909349e-13
1.085611e-12
1.0779959e-12
1.0999051e-12
1.1529386e-12
1.1651485e-12
1.0042997e-12
9.7875862e-13
1.3451972e-12
1.233222e-12
1.3667652e-12
1.5699339e-12
1.3775883e-12
1.2418208e-12
1.0689151e-12
1.0943183e-12
1.0234128e-12
1.1556861e-12
1.0124256e-12
9.8317183e-13
6.6533018e-13
7.8166718e-13
6.1565546e-13
6.6379493e-13
5.1590594e-13
2.6729426e-13
4.0826116e-13
1.0747691e-13
4.6518921e-13
3.1415161e-13
2.1291669e-13
1.6251585e-13
2.4364003e-13
1.3392419e-13
1.8737777e-13
1.0405241e-13
5.4116757e-14
2.1006962e-13
8.2896085e-14
1.5667519e-16
7.8938714e-14
1.786264e-13
3.0404261e-13
3.5329739e-13
1.6493385e-13
2.2241942e-13
2.7691227e-13
1.7723748e-13
1.3370157e-13
2.7079995e-13
2.4266078e-13
3.1381119e-13
4.0902075e-13
3.8347638e-13
6.4221848e-13
6.3505567e-13
4.8443089e-13
4.7828929e-13
5.5340493e-13
3.484164e-13
1.6685465e-13
2.8751932e-14
6.6706576e-15
1.0837917e-13
4.2822892e-14
1.8854999e-13
3.4069863e-13
2.4139091e-13
6.7926314e-14
1.1432297e-13
1.0290572e-13
3.0663227e-13
3.247441e-13
3.5451334e-13
4.3681749e-13
4.2980881e-13
5.2569761e-13
3.3652536e-13
6.1768771e-13
6.1259864e-13
6.3272547e-13
4.989158e-13
5.7795968e-13
6.8086394e-13
5.3659876e-13
9.8009491e-13
1.2058366e-12
1.27935e-12
1.2439913e-12
1.1796812e-12
1.1129226e-12
1.2194512e-12
1.3953351e-12
1.0760282e-12
1.2973538e-12
1.236271e-12
1.2439342e-12
1.156946e-12
9.4715209e-13
1.2275449e-12
1.041968e-12
7.8220556e-13
6.8980062e-13
6.9718508e-13
6.5194678e-13
7.0494503e-13
5.5294161e-13
6.9143704e-13
6.8907007e-13
4.9998621e-13
5.2218308e-13
4.8894566e-13
5.4448624e-13
2.3391537e-13
5.3521593e-14
1.974338e-13
1.4990324e-13
6.5610457e-14
1.1897838e-13
2.2982301e-13
1.3180641e-13
2.3471354e-13
2.4147369e-13
4.4706013e-13
5.8292267e-13
5.4450446e-13
7.1467977e-13
6.21141e-13
6.1373053e-13
7.5275909e-13
8.9027187e-13
6.638095e-13
6.1527548e-13
6.5134988e-13
6.4744397e-13
7.6392213e-13
7.5636257e-13
9.924723e-13
8.5003554e-13
1.0139548e-12
1.1049115e-12
1.1120632e-12
1.3468522e-12
1.3165049e-12
1.1373026e-12
1.1335537e-12
1.2470483e-12
1.0430336e-12
1.1093913e-12
1.062742e-12
9.9200377e-13
1.261273e-12
1.173775e-12
1.1736792e-12
1.0010241e-12
1.1706806e-12
1.0641081e-12
1.0108801e-12
7.8011649e-13
7.6552984e-13
8.6857325e-13
1.078418e-12
1.3502571e-12
1.1563395e-12
1.3474232e-12
1.2163579e-12
1.3291855e-12
1.1262371e-12
1.15218e-12
1.4574389e-12
1.1672498e-12
1.4700649e-12
1.6554735e-12
1.5600303e-12
1.7043925e-12
1.3113238e-12
1.226907e-12
1.3946699e-12
1.6483964e-12
1.7316695e-12
1.4381712e-12
1.5374158e-12
1.628325e-12
1.6354035e-12
1.630754e-12
1.5545857e-12
1.6924796e-12
1.6698993e-12
1.7777118e-12
1.8753849e-12
1.8884577e-12
1.4576561e-12
1.7511737e-12
1.7658172e-12
1.6628673e-12
1.4312707e-12
1.3728064e-12
1.5569816e-12
1.0318164e-12
9.2916392e-13
7.1203718e-13
7.4286175e-13
6.8477477e-13
7.349587e-13
9.5384013e-13
1.0208561e-12
7.0558931e-13
7.1706386e-13
8.3089427e-13
7.7092741e-13
9.9798085e-13
6.8294841e-13
3.17665e-13
7.7367802e-13
6.3086922e-13
4.1897209e-13
1.3281194e-13
2.5294141e-13
2.0209016e-13
1.2580503e-14
2.9832694e-13
2.5589615e-13
2.4718737e-13
3.2953246e-13
4.5356674e-13
2.5843765e-13
2.0982898e-13
2.0343037e-13
1.4607951e-13
2.6944681e-14
4.7387995e-14
2.7375407e-14
8.8894451e-14
1.569011e-13
1.4673146e-13
2.044238e-13
3.557401e-14
1.223609e-13
6.5167323e-14
4.7614777e-14
1.7967771e-13
3.0288362e-13
1.7530967e-13
4.126655e-13
3.8149037e-13
4.2031352e-13
6.5165991e-13
7.0751472e-13
4.7976625e-13
7.9242379e-13
1.0160315e-12
6.1755647e-13
7.8909515e-13
7.4772114e-13
7.2438606e-13
6.5754015e-13
4.5709184e-13
7.5146184e-13
6.5782875e-13
7.0712777e-13
7.5216948e-13
7.3133407e-13
8.0349659e-13
7.6969364e-13
9.9893793e-13
1.109826e-12
8.1097572e-13
7.7554022e-13
9.0711644e-13
7.0415781e-13
8.0109409e-13
7.8179446e-13
8.2523469e-13
8.5143083e-13
6.8948966e-13
8.9179129e-13
7.6380979e-13
6.9115596e-13
7.7186291e-13
9.1237597e-13
6.6980642e-13
6.35891e-13
5.27146e-13
5.9283549e-13
6.1054811e-13
3.6557976e-13
5.5506937e-13
5.1986279e-13
3.2991813e-13
2.0848539e-13
2.1302642e-13
1.794029e-13
4.5192912e-13
4.9064252e-14
3.2138622e-13
2.7009345e-13
2.0065547e-13
2.819582e-13
3.1181061e-13
6.0809104e-14
2.1174097e-15
2.2511642e-13
4.4266829e-16
1.1253481e-13
6.7148336e-15
5.1563989e-15
8.1690348e-14
1.9754176e-13
3.8790711e-13
4.7885964e-13
5.6594365e-13
5.1617371e-13
5.5045157e-13
5.305156e-13
5.9004021e-13
9.7257698e-13
8.9792003e-13
1.2001237e-12
1.7474238e-12
1.475549e-12
1.9110745e-12
2.0790742e-12
2.5802559e-12
2.6385853e-12
3.0411609e-12
3.3645329e-12
3.539923e-12
4.0323371e-12
4.6201532e-12
4.9533264e-12
5.54779e-12
6.5132794e-12
7.161055e-12
7.8723842e-12
8.8636831e-12
9.7709397e-12
1.0829304e-11
1.2156588e-11
1.3173955e-11
1.4602876e-11
1.5941905e-11
1.7664492e-11
2.0251793e-11
2.2368126e-11
2.4924261e-11
2.7830008e-11
3.0744688e-11
3.4274196e-11
3.8626019e-11
4.3300902e-11
4.7686983e-11
5.3595183e-11
5.9757069e-11
6.5842241e-11
7.3454437e-11
8.1803858e-11
9.0794662e-11
1.0109226e-10
1.1282615e-10
1.2550447e-10
1.39604e-10
1.5552087e-10
1.7334781e-10
1.9297579e-10
2.1435874e-10
2.3806828e-10
2.6452822e-10
2.9405441e-10
3.269474e-10
3.6280956e-10
4.0281311e-10
4.4765132e-10
4.9670603e-10
5.5186652e-10
6.1264411e-10
6.8004985e-10
7.5468431e-10
8.370515e-10
9.2866336e-10
1.0294943e-09
1.141669e-09
1.2663079e-09
1.4038383e-09
1.5552147e-09
1.7230352e-09
1.9090945e-09
2.114232e-09
2.3413575e-09
2.5920353e-09
2.8687691e-09
3.1752129e-09
3.5130181e-09
3.8858565e-09
4.2976726e-09
4.7516188e-09
5.2533349e-09
5.8065839e-09
6.4166249e-09
7.0902061e-09
7.8319237e-09
8.6490771e-09
9.5501526e-09
1.0543243e-08
1.1636753e-08
1.284094e-08
1.4167151e-08
1.5627027e-08
1.7234179e-08
1.9002728e-08
2.0947262e-08
2.3086382e-08
2.5438298e-08
2.8024402e-08
3.0867248e-08
3.399131e-08
3.7423719e-08
4.119324e-08
4.5332853e-08
4.9878294e-08
5.4867807e-08
6.0344107e-08
6.6352563e-08
7.294235e-08
8.0171657e-08
8.8097999e-08
9.6786291e-08
1.063098e-07
1.1674527e-07
1.2817726e-07
1.4069825e-07
1.5440955e-07
1.6941957e-07
1.858494e-07
2.0382916e-07
2.2349901e-07
2.4501404e-07
2.6854248e-07
2.9426595e-07
3.2238218e-07
3.5310933e-07
3.8668088e-07
4.2335089e-07
4.6339704e-07
5.0712038e-07
5.54847e-07
6.0693261e-07
6.6376168e-07
7.257514e-07
7.9335573e-07
8.670658e-07
9.4741469e-07
1.0349799e-06
1.1303878e-06
1.2343169e-06
1.3475021e-06
1.4707382e-06
1.6048878e-06
1.7508826e-06
1.9097313e-06
2.0825262e-06
2.2704464e-06
2.4747695e-06
2.6968759e-06
2.9382546e-06
3.2005165e-06
3.4854024e-06
3.7947901e-06
4.1307081e-06
4.4953453e-06
4.8910632e-06
5.3204094e-06
5.7861305e-06
6.2911886e-06
6.8387765e-06
7.4323329e-06
8.0755641e-06
8.7724601e-06
9.5273185e-06
1.0344764e-05
1.1229772e-05
1.2187697e-05
1.3224298e-05
1.4345764e-05
1.5558752e-05
1.6870412e-05
1.8288429e-05
1.9821055e-05
2.147715e-05
2.3266224e-05
2.5198486e-05
2.7284886e-05
2.953717e-05
3.1967931e-05
3.4590667e-05
3.7419847e-05
4.0470972e-05
4.3760641e-05
4.7306629e-05
5.1127962e-05
5.5245005e-05
5.9679538e-05
6.445486e-05
6.9595883e-05
7.5129234e-05
8.1083367e-05
8.7488679e-05
9.4377636e-05
0.0001017849
0.00010974746
0.0001183048
0.00012749904
0.00013737507
0.00014798078
0.00015936721
0.0001715887
0.00018470319
0.00019877235
0.00021386181
0.00023004144
0.00024738557
0.00026597326
0.00028588856
0.0003072208
0.00033006492
0.00035452176
0.00038069843
0.00040870861
0.00043867296
0.00047071951
0.00050498403
0.00054161048
0.00058075148
0.00062256873
0.00066723352
0.00071492725
0.00076584195
0.00082018086
0.00087815897
0.00094000369
0.0010059554
0.0010762683
0.0011512109
0.0012310667
0.0013161351
0.0014067324
0.0015031921
0.0016058659
0.001715125
0.0018313604
0.0019549845
0.0020864313
0.0022261582
0.0023746465
0.002532403
0.0026999606
0.0028778799
0.0030667501
0.0032671906
0.0034798522
0.003705418
0.0039446056
0.004198168
0.0044668949
0.0047516149
0.0050531964
0.0053725497
0.0057106283
0.0060684308
0.0064470026
0.0068474378
0.0072708809
0.0077185285
0.0081916319
0.0086914984
0.0092194935
0.0097770431
0.010365636
0.010986824
0.011642228
0.012333536
0.013062508
0.013830978
0.014640856
0.015494128
0.016392864
0.017339214
0.018335417
0.019383796
0.020486768
0.021646842
0.022866621
0.024148809
0.025496208
0.026911726
0.028398374
0.029959272
0.031597654
0.033316864
0.035120363
0.037011731
0.038994669
0.041073002
0.043250679
0.045531779
0.047920512
0.05042122
0.053038379
0.055776605
0.058640652
0.061635415
0.064765932
0.068037389
0.071455116
0.075024593
0.078751449
0.082641467
0.086700579
0.090934876
0.095350601
0.099954152
0.10475209
0.10975112
0.11495812
0.12038012
0.12602431
0.13189803
0.13800879
0.14436425
0.15097223
0.1578407
0.16497779
0.17239178
0.18009112
0.18808437
0.19638029
0.20498775
0.21391576
0.22317351
0.23277029
0.24271555
0.25301884
0.26368989
0.2747385
0.28617463
0.29800833
0.31024979
0.32290927
0.33599718
0.34952398
0.36350025
0.37793664
0.3928439
0.40823283
0.42411431
0.44049929
0.45739876
0.47482376
0.49278538
0.51129472
0.53036293
0.55000117
0.57022061
0.59103243
0.61244778
0.63447783
0.6571337
0.6804265
0.70436729
0.72896709
0.75423686
0.78018749
0.80682982
0.83417459
0.86223245
0.89101395
0.92052955
0.95078958
0.98180425
1.0135836
1.0461377
1.0794762
1.1136087
1.1485448
1.1842937
1.2208645
1.2582662
1.2965074
1.3355967
1.3755424
1.4163526
1.4580351
1.5005976
1.5440474
1.5883917
1.6336373
1.679791
1.726859
1.7748476
1.8237624
1.8736091
1.9243928
1.9761187
2.0287913
2.0824151
2.1369941
2.1925322
2.2490327
2.306499
2.3649337
2.4243395
2.4847187
2.546073
2.6084041
2.6717133
2.7360015
2.8012693
2.8675171
2.9347448
3.0029521
3.0721383
3.1423024
3.2134431
3.2855588
3.3586475
3.4327069
3.5077345
3.5837273
3.6606822
3.7385956
3.8174636
3.8972821
3.9780467
4.0597526
4.1423947
4.2259677
4.3104659
4.3958834
4.482214
4.5694511
4.657588
4.7466177
4.8365326
4.9273253
5.0189879
5.1115122
5.2048899
5.2991121
5.3941702
5.4900548
5.5867567
5.6842661
5.7825732
5.8816678
5.9815397
6.0821783
6.1835727
6.2857121
6.3885852
6.4921805
6.5964864
6.7014912
6.8071828
6.9135489
7.0205772
7.1282551
7.2365698
7.3455082
7.4550574
7.565204
7.6759344
7.7872352
7.8990923
8.0114919
8.1244199
8.237862
8.3518037
8.4662304
8.5811274
8.6964799
8.8122729
8.9284911
9.0451194
9.1621422
9.2795441
9.3973094
9.5154223
9.6338668
9.752627
9.8716867
9.9910295
10.110639
10.230499
10.350593
10.470904
10.591414
10.712109
10.832969
10.953979
11.07512
11.196377
11.31773
11.439163
11.560659
11.682199
11.803766
11.925342
12.046909
12.168449
12.289944
12.411376
12.532727
12.653979
12.775112
12.89611
13.016953
13.137624
13.258103
13.378372
13.498413
13.618206
13.737735
13.856978
13.975919
14.094538
14.212817
14.330736
14.448278
14.565424
14.682154
14.79845
14.914294
15.029667
15.14455
15.258924
15.372773
15.486075
15.598814
15.710971
15.822528
15.933467
16.043769
16.153417
16.262393
16.370679
16.478257
16.58511
16.691222
16.796573
16.901149
17.004931
17.107903
17.21005
17.311353
17.411799
17.511371
17.610053
17.707831
17.804689
17.900613
17.995588
18.089601
18.182637
18.274684
18.365728
18.455756
18.544757
18.632718
18.719628
18.805475
18.89025
18.973942
19.05654
19.138037
19.218421
19.297687
19.375824
19.452827
19.528688
19.6034
19.676959
19.749358
19.820593
19.89066
19.959555
20.027275
20.093816
20.159179
20.223361
20.286361
20.34818
20.408817
20.468275
20.526553
20.583656
20.639585
20.694344
20.747937
20.800368
20.851644
20.901769
20.950751
20.998595
21.04531
21.090904
21.135384
21.178762
21.221045
21.262244
21.30237
21.341434
21.379448
21.416423
21.452373
21.487309
21.521247
21.554198
21.586178
21.617201
21.647281
21.676434
21.704674
21.732019
21.758483
21.784083
21.808835
21.832756
21.855862
21.87817
21.899697
21.920461
21.940477
21.959765
21.97834
21.99622
22.013423
22.029965
22.045864
22.061137
22.075801
22.089873
22.103369
22.116308
22.128704
22.140575
22.151936
22.162804
22.173195
22.183124
22.192607
22.201659
22.210295
22.218528
22.226375
22.233849
22.240962
22.247731
22.254167
22.260283
22.266092
22.271607
22.276839
22.281799
22.286501
22.290954
22.295169
22.299156
22.302927
22.30649
22.309854
22.31303
22.316026
22.318851
22.321513
22.324018
22.326377
22.328596
22.330681
22.33264
22.334479
22.336206
22.337824
22.339341
22.340761
22.342091
22.343336
22.344498
22.345585
22.3466
22.347547
22.34843
22.349252
22.350019
22.350732
22.351396
22.352012
22.352585
22.353117
22.35361
22.354068
22.354491
22.354884
22.355246
22.355582
22.355892
22.356177
22.356442
22.356684
22.356908
22.357114
22.357304
22.357478
22.357638
22.357785
22.357919
22.358042
22.358155
22.358257
22.358352
22.358437
22.358515
22.358586
22.358651
22.35871
22.358762
22.35881
22.358853
22.358892
22.358926
22.358957
22.358984
22.359007
22.359028
22.359047
22.359062
22.359076
22.359099
22.359128
22.359142
22.35915
22.359178
22.359221
22.359244
22.359252
22.35928
22.359328
22.359359
22.359371
22.359397
22.359439
22.359466
22.35948
22.3595
22.359541
22.359581
22.359609
22.359632
22.359663
22.3597
22.359733
22.359758
22.359783
22.359816
22.359848
22.359871
22.359892
22.35992
22.359949
22.359973
22.359991
22.360013
22.36004
22.360063
22.360079
22.360095
22.360117
22.360139
22.360153
22.360164
22.360182
22.360206
22.36022
22.360228
22.360245
22.360273
22.360291
22.360299
22.360313
22.360343
22.360367
22.360376
22.360388
22.360416
22.360442
22.360455
22.360465
22.36049
22.360518
22.360537
22.360549
22.360571
22.360597
22.360614
22.360627
22.360648
22.360673
22.360689
22.360695
22.360712
22.360736
22.360747
22.360747
22.360754
22.36078
22.360802
22.360811
22.360819
22.360839
22.360861
22.36087
22.360875
22.360892
22.360915
22.360927
22.360928
22.360935
22.360955
22.360974
22.360984
22.360991
22.361004
22.361022
22.361036
22.361045
22.361056
22.361072
22.361084
22.361093
22.361103
22.361119
22.361134
22.361143
22.361151
22.361167
22.361181
22.361187
22.361193
22.361207
22.361221
22.361224
22.361225
22.36124
22.361255
22.361262
22.361266
22.361278
22.361294
22.361308
22.36132
22.361334
22.361351
22.361362
22.361372
22.361383
22.361393
22.361404
22.361415
22.361427
22.361444
22.361469
22.361469
22.361444
22.361428
22.361431
22.361433
22.361439
22.36145
22.361447
22.361428
22.361414
22.361423
22.361418
22.361406
22.361407
22.361408
22.361406
22.361417
22.361432
22.361443
22.361456
22.361472
22.361488
22.361504
22.361521
22.361539
22.361559
22.361581
22.361601
22.361609
22.361612
22.361614
22.361617
22.361624
22.361639
22.36164
22.361629
22.36161
22.361611
22.361611
22.361614
22.361621
22.361632
22.361633
22.361624
22.361615
22.361616
22.361615
22.361616
22.36162
22.361616
22.361605
22.361595
22.361596
22.361598
22.361594
22.361585
22.361582
22.361585
22.361587
22.361584
22.361581
22.361581
22.36158
22.361579
22.361582
22.361585
22.361588
22.361592
22.361596
22.361601
22.361605
22.36161
22.361615
22.36162
22.361622
22.36162
22.36162
22.361622
22.361623
22.361625
22.361629
22.361629
22.361626
22.361618
22.361615
22.361617
22.361616
22.361613
22.361609
22.361604
22.361598
22.361598
22.361596
22.36159
22.361583
22.36158
22.361577
22.36157
22.361564
22.361564
22.361562
22.361558
22.361551
22.361544
22.361542
22.36154
22.361536
22.361528
22.361525
22.361524
22.36152
22.361514
22.361505
22.361499
22.361499
22.361498
22.361495
22.36149
22.361485
22.361478
22.361472
22.36147
22.361468
22.361465
22.361461
22.361456
22.361451
22.361445
22.361442
22.36144
22.361437
22.361431
22.361425
22.361423
22.36142
22.361415
22.36141
22.361408
22.361405
22.3614
22.361393
22.361385
22.361379
22.361379
22.361378
22.361374
22.361369
22.361363
22.361358
22.361356
22.361353
22.361348
22.361342
22.361334
22.361329
22.361328
22.361326
22.361322
22.361315
22.361312
22.36131
22.361307
22.361302
22.361297
22.36129
22.361288
22.361287
22.361285
22.361282
22.361277
22.361271
22.361269
22.361269
22.361268
22.361265
22.361262
22.361257
22.361252
22.36125
22.36125
22.361248
22.361246
22.361241
22.361239
22.361237
22.361235
22.361232
22.361226
22.361223
22.361222
22.361221
22.361218
22.361214
22.361209
22.361204
22.361204
22.361202
22.3612
22.361195
22.36119
22.361186
22.361184
22.361183
22.36118
22.361176
22.36117
22.361167
22.361165
22.361163
22.36116
22.361155
22.361152
22.36115
22.361147
22.361143
22.361138
22.361135
22.361133
22.36113
22.361127
22.361123
22.36112
22.361118
22.361115
22.361112
22.361107
22.361105
22.361102
22.361099
22.361096
22.361091
22.36109
22.361088
22.361086
22.361083
22.361079
22.361075
22.361071
22.361068
22.361065
22.361064
22.361063
22.361061
22.361058
22.361054
22.36105
22.361046
22.361045
22.361043
22.361041
22.361039
22.361036
22.361032
22.36103
22.361028
22.361025
22.361022
22.361019
22.361017
22.361015
22.361013
22.36101
22.361007
22.361004
22.361002
22.360999
22.360997
22.360995
22.360992
22.360989
22.360987
22.360985
22.360982
22.360979
22.360976
22.360974
22.360973
22.360971
22.360969
22.360965
22.360962
22.36096
22.360959
22.360957
22.360955
22.360953
22.36095
22.360948
22.360947
22.360945
22.360943
22.360941
22.360938
22.360937
22.360935
22.360934
22.360932
22.360929
22.360926
22.360924
22.360924
22.360922
22.36092
22.360918
22.360914
22.360911
22.360909
22.360909
22.360908
22.360906
22.360904
22.360901
22.360898
22.360895
22.360893
22.360892
22.36089
22.360887
22.360884
22.360881
22.360879
22.360877
22.360875
22.360872
22.360868
22.360866
22.360864
22.360862
22.360859
22.360856
22.360853
22.36085
22.360848
22.360845
22.360842
22.36084
22.360838
22.360835
22.360832
22.360829
22.360827
22.360825
22.360823
22.360821
22.360818
22.360815
22.360813
22.360812
22.360809
22.360807
22.360804
22.360802
22.360801
22.360799
22.360797
22.360795
22.360792
22.360791
22.360789
22.360787
22.360785
22.360783
22.360781
22.36078
22.360779
22.360777
22.360774
22.360772
22.36077
22.360769
22.360768
22.360766
22.360763
22.360761
22.36076
22.360758
22.360756
22.360753
22.360751
22.36075
22.360748
22.360746
22.360743
22.36074
22.360737
22.360735
22.360734
22.360733
22.360731
22.360728
22.360725
22.360722
22.360719
22.360717
22.360715
22.360713
22.360711
22.360709
22.360706
22.360703
22.3607
22.360697
22.360694
22.360691
22.360689
22.360688
22.360685
22.360683
22.36068
22.360676
22.360673
22.360672
22.36067
22.360668
22.360665
22.360662
22.360659
22.360657
22.360655
22.360653
22.360651
22.360648
22.360645
22.360644
22.360642
22.36064
22.360638
22.360635
22.360633
22.360631
22.36063
22.360629
22.360627
22.360625
22.360622
22.360621
22.36062
22.360619
22.360618
22.360616
22.360614
22.360612
22.360611
22.36061
22.360609
22.360608
22.360606
22.360604
22.360602
22.360601
22.3606
22.3606
22.360598
22.360597
22.360595
22.360593
22.360592
22.360591
22.36059
22.360588
22.360586
22.360584
22.360583
22.360582
22.36058
22.360579
22.360577
22.360574
22.360572
22.360571
22.36057
22.360568
22.360566
22.360564
22.360561
22.36056
22.360558
22.360556
22.360554
22.360551
22.360549
22.360547
22.360545
22.360543
22.360541
22.360538
22.360536
22.360533
22.360531
22.360529
22.360527
22.360525
22.360522
22.360519
22.360516
22.360515
22.360513
22.360512
22.360509
22.360507
22.360504
22.360501
22.360499
22.360497
22.360496
22.360494
22.360492
22.36049
22.360487
22.360484
22.360483
22.360482
22.36048
22.360479
22.360477
22.360475
22.360473
22.360471
22.360469
22.360468
22.360467
22.360465
22.360464
22.360462
22.36046
22.360458
22.360458
22.360457
22.360455
22.360454
22.360452
22.360451
22.36045
22.360449
22.360448
22.360446
22.360444
22.360443
22.360442
22.360441
22.36044
22.360439
22.360437
22.360436
22.360434
22.360433
22.360432
22.360431
22.36043
22.360428
22.360426
22.360425
22.360424
22.360423
22.360421
22.36042
22.360418
22.360417
22.360415
22.360414
22.360413
22.360411
22.360409
22.360407
22.360406
22.360405
22.360403
22.360401
22.360399
22.360398
22.360396
22.360395
22.360393
22.360391
22.360389
22.360388
22.360386
22.360384
22.360382
22.36038
22.360379
22.360378
22.360376
22.360374
22.360372
22.36037
22.360368
22.360367
22.360366
22.360364
22.360362
22.36036
22.360358
22.360356
22.360355
22.360354
22.360353
22.360351
22.360349
22.360347
22.360345
22.360344
22.360343
22.360341
22.36034
22.360338
22.360336
22.360335
22.360334
22.360332
22.360331
22.360329
22.360327
22.360326
22.360325
22.360324
22.360322
22.36032
22.360318
22.360317
22.360316
22.360315
22.360313
22.360312
22.36031
22.360308
22.360307
22.360306
22.360305
22.360303
22.360301
22.3603
22.360299
22.360297
22.360296
22.360294
22.360292
22.360291
22.36029
22.360289
22.360287
22.360286
22.360284
22.360283
22.360281
22.36028
22.360279
22.360277
22.360276
22.360274
22.360272
22.360271
22.36027
22.360269
22.360267
22.360266
22.360264
22.360262
22.360261
22.36026
22.360259
22.360257
22.360256
22.360254
22.360252
22.360251
22.36025
22.360249
22.360247
22.360246
22.360244
22.360243
22.360242
22.360241
22.360239
22.360237
22.360235
22.360234
22.360233
22.360232
22.360231
22.36023
22.360228
22.360226
22.360225
22.360224
22.360222
22.360221
22.360219
22.360218
22.360216
22.360215
22.360214
22.360212
22.360211
22.360209
22.360207
22.360205
22.360205
22.360204
22.360202
22.3602
22.360198
22.360196
22.360194
22.360193
22.360192
22.360191
22.360189
22.360187
22.360185
22.360183
22.360181
22.36018
22.360178
22.360176
22.360174
22.360172
22.36017
22.360169
22.360167
22.360166
22.360164
22.360161
22.360159
22.360157
22.360156
22.360154
22.360152
22.36015
22.360148
22.360146
22.360144
22.360142