/*--------------------------------*- C++ -*----------------------------------*\
  =========                 |
  \\      /  F ield         | OpenFOAM: The Open Source CFD Toolbox
   \\    /   O peration     | Website:  https://openfoam.org
    \\  /    A nd           | Version:  7
     \\/     M anipulation  |
\*---------------------------------------------------------------------------*/
FoamFile
{
    version     2.0;
    format      ascii;
    class       volScalarField;
    location    "0.00249";
    object      T;
}
// * * * * * * * * * * * * * * * * * * * * * * * * * * * * * * * * * * * * * //

dimensions      [0 0 0 1 0 0 0];

internalField   nonuniform List<scalar> 
5000
(
277.93641
277.93642
277.93636
277.93629
277.93624
277.9362
277.93617
277.93615
277.93613
277.93612
277.93612
277.93611
277.93611
277.93611
277.93611
277.93611
277.93611
277.93611
277.93611
277.93611
277.93611
277.93611
277.93611
277.93611
277.93611
277.93611
277.93611
277.93611
277.93611
277.93611
277.93611
277.93612
277.93612
277.93612
277.93612
277.93612
277.93612
277.93612
277.93612
277.93612
277.93612
277.93612
277.93612
277.93612
277.93613
277.93613
277.93613
277.93613
277.93613
277.93613
277.93613
277.93613
277.93613
277.93613
277.93613
277.93613
277.93614
277.93614
277.93614
277.93614
277.93614
277.93614
277.93614
277.93614
277.93614
277.93614
277.93614
277.93615
277.93615
277.93615
277.93615
277.93615
277.93615
277.93615
277.93615
277.93615
277.93615
277.93616
277.93616
277.93616
277.93616
277.93616
277.93616
277.93616
277.93616
277.93616
277.93616
277.93617
277.93617
277.93617
277.93617
277.93617
277.93617
277.93617
277.93617
277.93617
277.93618
277.93618
277.93618
277.93618
277.93618
277.93618
277.93618
277.93618
277.93618
277.93618
277.93619
277.93619
277.93619
277.93619
277.93619
277.93619
277.93619
277.93619
277.93619
277.9362
277.9362
277.9362
277.9362
277.9362
277.9362
277.9362
277.9362
277.9362
277.9362
277.93621
277.93621
277.93621
277.93621
277.93621
277.93621
277.93621
277.93621
277.93621
277.93621
277.93621
277.93622
277.93622
277.93622
277.93622
277.93622
277.93622
277.93622
277.93622
277.93622
277.93622
277.93622
277.93623
277.93623
277.93623
277.93623
277.93623
277.93623
277.93623
277.93623
277.93623
277.93623
277.93624
277.93624
277.93624
277.93624
277.93624
277.93624
277.93624
277.93624
277.93624
277.93624
277.93624
277.93624
277.93624
277.93625
277.93625
277.93625
277.93625
277.93625
277.93625
277.93625
277.93625
277.93625
277.93625
277.93625
277.93625
277.93625
277.93625
277.93626
277.93626
277.93626
277.93626
277.93626
277.93626
277.93626
277.93626
277.93626
277.93626
277.93626
277.93626
277.93626
277.93626
277.93626
277.93626
277.93627
277.93627
277.93627
277.93627
277.93627
277.93627
277.93627
277.93627
277.93627
277.93627
277.93627
277.93627
277.93627
277.93627
277.93627
277.93627
277.93628
277.93628
277.93628
277.93628
277.93628
277.93628
277.93628
277.93628
277.93628
277.93628
277.93628
277.93628
277.93628
277.93628
277.93628
277.93628
277.93628
277.93628
277.93628
277.93628
277.93628
277.93629
277.93629
277.93629
277.93629
277.93629
277.93629
277.93629
277.93629
277.93629
277.93629
277.93629
277.93629
277.93629
277.93629
277.93629
277.93629
277.93629
277.93629
277.93629
277.93629
277.93629
277.93629
277.93629
277.93629
277.93629
277.9363
277.9363
277.9363
277.9363
277.9363
277.9363
277.9363
277.9363
277.9363
277.9363
277.9363
277.9363
277.9363
277.9363
277.9363
277.9363
277.9363
277.9363
277.9363
277.9363
277.9363
277.9363
277.9363
277.9363
277.9363
277.9363
277.93631
277.93631
277.93631
277.93631
277.93631
277.93631
277.93631
277.93631
277.93631
277.93631
277.93631
277.93631
277.93631
277.93631
277.93631
277.93631
277.93631
277.93631
277.93631
277.93631
277.93631
277.93631
277.93631
277.93631
277.93631
277.93631
277.93632
277.93632
277.93632
277.93632
277.93632
277.93632
277.93632
277.93632
277.93632
277.93632
277.93632
277.93632
277.93632
277.93632
277.93632
277.93632
277.93632
277.93632
277.93632
277.93632
277.93632
277.93632
277.93632
277.93632
277.93632
277.93633
277.93633
277.93633
277.93633
277.93633
277.93633
277.93633
277.93633
277.93633
277.93633
277.93633
277.93633
277.93633
277.93633
277.93633
277.93633
277.93633
277.93633
277.93633
277.93633
277.93633
277.93633
277.93633
277.93633
277.93634
277.93634
277.93634
277.93634
277.93634
277.93634
277.93634
277.93634
277.93634
277.93634
277.93634
277.93634
277.93634
277.93634
277.93634
277.93634
277.93634
277.93634
277.93634
277.93634
277.93634
277.93634
277.93634
277.93635
277.93635
277.93635
277.93635
277.93635
277.93635
277.93635
277.93635
277.93635
277.93635
277.93635
277.93635
277.93635
277.93635
277.93635
277.93635
277.93635
277.93635
277.93635
277.93635
277.93635
277.93636
277.93636
277.93636
277.93636
277.93636
277.93636
277.93636
277.93636
277.93636
277.93636
277.93636
277.93636
277.93636
277.93636
277.93636
277.93636
277.93636
277.93636
277.93636
277.93636
277.93636
277.93637
277.93637
277.93637
277.93637
277.93637
277.93637
277.93637
277.93637
277.93637
277.93637
277.93637
277.93637
277.93637
277.93637
277.93637
277.93637
277.93637
277.93638
277.93638
277.93638
277.93638
277.93638
277.93638
277.93638
277.93638
277.93638
277.93638
277.93638
277.93638
277.93638
277.93638
277.93638
277.93638
277.93638
277.93638
277.93639
277.93639
277.93639
277.93639
277.93639
277.93639
277.93639
277.93639
277.93639
277.93639
277.93639
277.93639
277.93639
277.93639
277.93639
277.93639
277.9364
277.9364
277.9364
277.9364
277.9364
277.9364
277.9364
277.9364
277.9364
277.9364
277.9364
277.9364
277.9364
277.9364
277.9364
277.9364
277.93641
277.93641
277.93641
277.93641
277.93641
277.93641
277.93641
277.93641
277.93641
277.93641
277.93641
277.93641
277.93641
277.93641
277.93641
277.93642
277.93642
277.93642
277.93642
277.93642
277.93642
277.93642
277.93642
277.93642
277.93642
277.93642
277.93642
277.93642
277.93642
277.93642
277.93642
277.93643
277.93643
277.93643
277.93643
277.93643
277.93643
277.93643
277.93643
277.93643
277.93643
277.93643
277.93643
277.93643
277.93643
277.93644
277.93644
277.93644
277.93644
277.93644
277.93644
277.93644
277.93644
277.93644
277.93644
277.93644
277.93645
277.93645
277.93645
277.93645
277.93645
277.93645
277.93645
277.93645
277.93645
277.93645
277.93645
277.93645
277.93645
277.93645
277.93645
277.93645
277.93646
277.93646
277.93646
277.93646
277.93646
277.93646
277.93646
277.93646
277.93646
277.93646
277.93646
277.93646
277.93647
277.93647
277.93647
277.93647
277.93647
277.93647
277.93647
277.93647
277.93647
277.93647
277.93648
277.93648
277.93648
277.93648
277.93648
277.93648
277.93648
277.93648
277.93648
277.93648
277.93648
277.93648
277.93648
277.93648
277.93649
277.93649
277.93649
277.93649
277.93649
277.93649
277.93649
277.93649
277.93649
277.93649
277.93649
277.93649
277.93649
277.9365
277.9365
277.9365
277.9365
277.9365
277.9365
277.9365
277.9365
277.9365
277.9365
277.9365
277.9365
277.9365
277.9365
277.9365
277.93651
277.93651
277.93651
277.93651
277.93651
277.93651
277.93651
277.93651
277.93652
277.93652
277.93652
277.93652
277.93652
277.93652
277.93652
277.93652
277.93652
277.93652
277.93652
277.93652
277.93652
277.93652
277.93653
277.93653
277.93653
277.93653
277.93653
277.93653
277.93653
277.93653
277.93653
277.93654
277.93654
277.93654
277.93654
277.93654
277.93654
277.93654
277.93654
277.93654
277.93654
277.93654
277.93654
277.93654
277.93655
277.93655
277.93655
277.93655
277.93655
277.93655
277.93655
277.93655
277.93655
277.93655
277.93655
277.93655
277.93656
277.93656
277.93656
277.93656
277.93656
277.93656
277.93656
277.93656
277.93656
277.93657
277.93657
277.93657
277.93657
277.93657
277.93657
277.93657
277.93657
277.93657
277.93657
277.93658
277.93658
277.93658
277.93658
277.93658
277.93658
277.93658
277.93658
277.93658
277.93658
277.93658
277.93659
277.93659
277.93659
277.93659
277.93659
277.93659
277.93659
277.93659
277.93659
277.9366
277.9366
277.9366
277.9366
277.9366
277.9366
277.9366
277.9366
277.9366
277.9366
277.93661
277.93661
277.93661
277.93661
277.93661
277.93661
277.93661
277.93661
277.93662
277.93662
277.93662
277.93662
277.93662
277.93662
277.93662
277.93662
277.93662
277.93662
277.93663
277.93663
277.93663
277.93663
277.93663
277.93663
277.93663
277.93663
277.93663
277.93664
277.93664
277.93664
277.93664
277.93664
277.93664
277.93664
277.93664
277.93665
277.93665
277.93665
277.93665
277.93665
277.93665
277.93665
277.93665
277.93666
277.93666
277.93666
277.93666
277.93666
277.93666
277.93666
277.93666
277.93667
277.93667
277.93667
277.93667
277.93667
277.93667
277.93667
277.93667
277.93667
277.93668
277.93668
277.93668
277.93668
277.93668
277.93668
277.93668
277.93669
277.93669
277.93669
277.93669
277.93669
277.93669
277.93669
277.93669
277.9367
277.9367
277.9367
277.9367
277.9367
277.9367
277.93671
277.93671
277.93671
277.93671
277.93671
277.93671
277.93671
277.93671
277.93671
277.93672
277.93672
277.93672
277.93672
277.93672
277.93673
277.93673
277.93673
277.93673
277.93673
277.93673
277.93674
277.93674
277.93674
277.93674
277.93674
277.93674
277.93674
277.93675
277.93675
277.93675
277.93675
277.93675
277.93675
277.93676
277.93676
277.93676
277.93676
277.93676
277.93676
277.93677
277.93677
277.93677
277.93677
277.93677
277.93677
277.93677
277.93678
277.93678
277.93678
277.93678
277.93678
277.93679
277.93679
277.93679
277.93679
277.93679
277.9368
277.9368
277.9368
277.9368
277.9368
277.93681
277.93681
277.93681
277.93681
277.93682
277.93682
277.93682
277.93682
277.93682
277.93683
277.93683
277.93683
277.93683
277.93683
277.93683
277.93684
277.93684
277.93684
277.93684
277.93684
277.93685
277.93685
277.93685
277.93685
277.93686
277.93686
277.93686
277.93686
277.93687
277.93687
277.93687
277.93687
277.93688
277.93688
277.93688
277.93688
277.93688
277.93689
277.93689
277.93689
277.9369
277.9369
277.9369
277.9369
277.93691
277.93691
277.93691
277.93691
277.93692
277.93692
277.93692
277.93692
277.93693
277.93693
277.93693
277.93694
277.93694
277.93694
277.93695
277.93695
277.93695
277.93696
277.93696
277.93696
277.93696
277.93697
277.93697
277.93697
277.93697
277.93698
277.93698
277.93698
277.93699
277.93699
277.93699
277.93699
277.937
277.937
277.93701
277.93701
277.93701
277.93702
277.93702
277.93702
277.93703
277.93703
277.93703
277.93704
277.93704
277.93704
277.93705
277.93705
277.93705
277.93706
277.93706
277.93706
277.93707
277.93707
277.93708
277.93708
277.93708
277.93709
277.93709
277.9371
277.9371
277.9371
277.93711
277.93711
277.93711
277.93712
277.93712
277.93713
277.93713
277.93713
277.93714
277.93714
277.93715
277.93715
277.93715
277.93716
277.93716
277.93717
277.93717
277.93718
277.93718
277.93719
277.93719
277.93719
277.9372
277.9372
277.93721
277.93721
277.93722
277.93722
277.93723
277.93723
277.93723
277.93724
277.93724
277.93725
277.93725
277.93726
277.93726
277.93727
277.93727
277.93728
277.93728
277.93729
277.9373
277.9373
277.93731
277.93731
277.93732
277.93732
277.93733
277.93733
277.93734
277.93734
277.93735
277.93735
277.93736
277.93736
277.93737
277.93737
277.93738
277.93739
277.93739
277.9374
277.9374
277.93741
277.93741
277.93742
277.93743
277.93743
277.93744
277.93744
277.93745
277.93746
277.93746
277.93747
277.93747
277.93748
277.93749
277.93749
277.9375
277.9375
277.93751
277.93752
277.93752
277.93753
277.93754
277.93754
277.93755
277.93756
277.93757
277.93757
277.93758
277.93759
277.93759
277.9376
277.93761
277.93761
277.93762
277.93763
277.93764
277.93764
277.93765
277.93766
277.93766
277.93767
277.93768
277.93769
277.9377
277.9377
277.93771
277.93772
277.93773
277.93774
277.93774
277.93775
277.93776
277.93777
277.93778
277.93778
277.93779
277.9378
277.93781
277.93782
277.93783
277.93784
277.93785
277.93786
277.93786
277.93787
277.93788
277.93789
277.9379
277.93791
277.93792
277.93793
277.93794
277.93795
277.93796
277.93797
277.93798
277.93799
277.938
277.93802
277.93803
277.93804
277.93805
277.93806
277.93807
277.93808
277.9381
277.93811
277.93812
277.93813
277.93814
277.93816
277.93817
277.93818
277.9382
277.93821
277.93822
277.93824
277.93825
277.93826
277.93828
277.93829
277.93831
277.93833
277.93834
277.93836
277.93838
277.93839
277.93841
277.93843
277.93845
277.93846
277.93848
277.9385
277.93852
277.93854
277.93856
277.93858
277.9386
277.93862
277.93864
277.93866
277.93869
277.93871
277.93874
277.93876
277.93879
277.93881
277.93884
277.93887
277.93889
277.93892
277.93895
277.93898
277.93901
277.93904
277.93907
277.93911
277.93914
277.93918
277.93921
277.93925
277.93929
277.93933
277.93937
277.93941
277.93945
277.9395
277.93954
277.93959
277.93963
277.93968
277.93973
277.93978
277.93984
277.93989
277.93995
277.94001
277.94007
277.94013
277.94019
277.94026
277.94033
277.94039
277.94047
277.94054
277.94061
277.94069
277.94077
277.94085
277.94094
277.94103
277.94112
277.94121
277.94131
277.9414
277.94151
277.94161
277.94172
277.94183
277.94194
277.94206
277.94218
277.9423
277.94243
277.94256
277.9427
277.94284
277.94299
277.94313
277.94329
277.94344
277.9436
277.94377
277.94394
277.94412
277.9443
277.94448
277.94468
277.94487
277.94508
277.94529
277.9455
277.94572
277.94595
277.94618
277.94642
277.94667
277.94692
277.94719
277.94745
277.94773
277.94801
277.94831
277.9486
277.94891
277.94923
277.94955
277.94989
277.95023
277.95058
277.95095
277.95132
277.9517
277.95209
277.95249
277.95291
277.95333
277.95376
277.95421
277.95466
277.95513
277.95561
277.95611
277.95661
277.95713
277.95766
277.95821
277.95877
277.95934
277.95993
277.96053
277.96115
277.96178
277.96243
277.96309
277.96377
277.96447
277.96518
277.96591
277.96666
277.96742
277.96821
277.96901
277.96983
277.97066
277.97152
277.9724
277.9733
277.97422
277.97515
277.97611
277.9771
277.9781
277.97913
277.98017
277.98124
277.98234
277.98346
277.9846
277.98577
277.98696
277.98818
277.98942
277.99069
277.99198
277.99331
277.99466
277.99603
277.99744
277.99887
278.00034
278.00183
278.00335
278.0049
278.00649
278.0081
278.00974
278.01142
278.01313
278.01487
278.01665
278.01846
278.0203
278.02218
278.02409
278.02604
278.02802
278.03004
278.03209
278.03419
278.03632
278.03849
278.04069
278.04294
278.04522
278.04755
278.04991
278.05231
278.05476
278.05725
278.05977
278.06234
278.06496
278.06761
278.07031
278.07305
278.07584
278.07867
278.08155
278.08447
278.08744
278.09045
278.09351
278.09662
278.09977
278.10298
278.10623
278.10953
278.11287
278.11627
278.11972
278.12322
278.12676
278.13036
278.13401
278.13771
278.14147
278.14527
278.14913
278.15304
278.157
278.16102
278.16509
278.16921
278.17339
278.17763
278.18191
278.18626
278.19066
278.19511
278.19963
278.20419
278.20882
278.2135
278.21824
278.22304
278.22789
278.2328
278.23777
278.2428
278.24789
278.25304
278.25824
278.26351
278.26883
278.27421
278.27966
278.28516
278.29073
278.29635
278.30203
278.30778
278.31359
278.31945
278.32538
278.33137
278.33742
278.34354
278.34971
278.35595
278.36224
278.3686
278.37503
278.38151
278.38805
278.39466
278.40133
278.40807
278.41486
278.42172
278.42864
278.43562
278.44266
278.44977
278.45694
278.46417
278.47147
278.47882
278.48624
278.49372
278.50127
278.50887
278.51654
278.52427
278.53207
278.53992
278.54784
278.55582
278.56386
278.57196
278.58013
278.58836
278.59664
278.60499
278.6134
278.62188
278.63041
278.639
278.64766
278.65638
278.66515
278.67399
278.68289
278.69185
278.70086
278.70994
278.71908
278.72828
278.73753
278.74685
278.75622
278.76566
278.77515
278.7847
278.79431
278.80397
278.8137
278.82348
278.83332
278.84322
278.85317
278.86318
278.87325
278.88337
278.89355
278.90378
278.91407
278.92442
278.93482
278.94528
278.95579
278.96635
278.97697
278.98764
278.99837
279.00915
279.01998
279.03086
279.0418
279.05279
279.06383
279.07492
279.08607
279.09726
279.10851
279.1198
279.13115
279.14254
279.15399
279.16548
279.17703
279.18862
279.20026
279.21195
279.22368
279.23547
279.2473
279.25917
279.2711
279.28307
279.29508
279.30714
279.31925
279.3314
279.3436
279.35584
279.36812
279.38045
279.39282
279.40524
279.41769
279.43019
279.44274
279.45532
279.46794
279.48061
279.49332
279.50606
279.51885
279.53168
279.54454
279.55745
279.57039
279.58338
279.5964
279.60946
279.62255
279.63569
279.64886
279.66207
279.67531
279.68859
279.70191
279.71526
279.72864
279.74206
279.75552
279.769
279.78252
279.79608
279.80967
279.82329
279.83694
279.85063
279.86434
279.87809
279.89187
279.90568
279.91952
279.93339
279.94729
279.96122
279.97518
279.98917
280.00318
280.01723
280.0313
280.0454
280.05953
280.07368
280.08786
280.10207
280.1163
280.13056
280.14484
280.15915
280.17349
280.18784
280.20223
280.21663
280.23106
280.24552
280.25999
280.27449
280.28901
280.30356
280.31812
280.33271
280.34731
280.36194
280.37659
280.39126
280.40595
280.42066
280.43539
280.45013
280.4649
280.47968
280.49449
280.50931
280.52414
280.539
280.55387
280.56876
280.58366
280.59859
280.61352
280.62848
280.64345
280.65843
280.67343
280.68844
280.70347
280.71851
280.73356
280.74863
280.76371
280.77881
280.79391
280.80903
280.82416
280.8393
280.85445
280.86962
280.88479
280.89998
280.91517
280.93038
280.9456
280.96082
280.97606
280.9913
281.00655
281.02181
281.03708
281.05236
281.06764
281.08293
281.09823
281.11354
281.12885
281.14417
281.15949
281.17482
281.19016
281.2055
281.22084
281.23619
281.25155
281.26691
281.28227
281.29764
281.31301
281.32838
281.34375
281.35913
281.37451
281.3899
281.40528
281.42067
281.43606
281.45145
281.46684
281.48223
281.49762
281.51301
281.5284
281.54379
281.55918
281.57457
281.58996
281.60535
281.62073
281.63611
281.65149
281.66687
281.68225
281.69762
281.71299
281.72836
281.74372
281.75908
281.77443
281.78979
281.80513
281.82047
281.83581
281.85114
281.86646
281.88178
281.89709
281.9124
281.9277
281.94299
281.95828
281.97355
281.98882
282.00409
282.01934
282.03459
282.04982
282.06505
282.08027
282.09548
282.11068
282.12587
282.14105
282.15622
282.17138
282.18653
282.20167
282.21679
282.23191
282.24701
282.2621
282.27718
282.29225
282.3073
282.32234
282.33737
282.35238
282.36738
282.38237
282.39734
282.4123
282.42724
282.44216
282.45708
282.47197
282.48685
282.50172
282.51656
282.5314
282.54621
282.56101
282.57579
282.59055
282.6053
282.62002
282.63473
282.64942
282.6641
282.67875
282.69338
282.708
282.72259
282.73716
282.75172
282.76625
282.78076
282.79525
282.80972
282.82417
282.8386
282.85301
282.86739
282.88175
282.89609
282.9104
282.92469
282.93896
282.95321
282.96743
282.98162
282.99579
283.00994
283.02406
283.03816
283.05223
283.06628
283.08029
283.09429
283.10825
283.12219
283.13611
283.14999
283.16385
283.17768
283.19148
283.20525
283.219
283.23272
283.2464
283.26006
283.27369
283.28729
283.30086
283.3144
283.3279
283.34138
283.35483
283.36824
283.38163
283.39498
283.4083
283.42158
283.43484
283.44806
283.46125
283.4744
283.48752
283.50061
283.51367
283.52668
283.53967
283.55262
283.56554
283.57842
283.59126
283.60407
283.61684
283.62958
283.64228
283.65494
283.66757
283.68016
283.69271
283.70522
283.7177
283.73014
283.74254
283.7549
283.76722
283.7795
283.79175
283.80395
283.81611
283.82824
283.84032
283.85237
283.86437
283.87633
283.88825
283.90013
283.91196
283.92376
283.93551
283.94722
283.95889
283.97052
283.9821
283.99364
284.00513
284.01658
284.02799
284.03936
284.05067
284.06195
284.07318
284.08437
284.09551
284.1066
284.11765
284.12865
284.13961
284.15052
284.16139
284.17221
284.18298
284.1937
284.20438
284.21501
284.22559
284.23613
284.24662
284.25706
284.26745
284.27779
284.28808
284.29833
284.30853
284.31867
284.32877
284.33882
284.34882
284.35877
284.36867
284.37852
284.38832
284.39807
284.40776
284.41741
284.42701
284.43655
284.44605
284.45549
284.46489
284.47423
284.48352
284.49275
284.50194
284.51108
284.52016
284.52919
284.53817
284.54709
284.55596
284.56479
284.57355
284.58227
284.59093
284.59954
284.6081
284.6166
284.62505
284.63345
284.64179
284.65008
284.65832
284.6665
284.67463
284.68271
284.69073
284.6987
284.70661
284.71448
284.72228
284.73004
284.73774
284.74538
284.75298
284.76051
284.768
284.77543
284.7828
284.79013
284.7974
284.80461
284.81177
284.81888
284.82593
284.83293
284.83988
284.84677
284.85361
284.86039
284.86712
284.8738
284.88042
284.88699
284.89351
284.89997
284.90638
284.91273
284.91904
284.92529
284.93148
284.93763
284.94372
284.94976
284.95574
284.96167
284.96755
284.97338
284.97916
284.98488
284.99055
284.99617
285.00174
285.00725
285.01272
285.01813
285.02349
285.0288
285.03406
285.03927
285.04443
285.04954
285.0546
285.05961
285.06456
285.06947
285.07433
285.07914
285.0839
285.08861
285.09327
285.09789
285.10245
285.10697
285.11144
285.11586
285.12023
285.12456
285.12883
285.13307
285.13725
285.14139
285.14548
285.14953
285.15353
285.15748
285.16139
285.16526
285.16908
285.17285
285.17658
285.18027
285.18391
285.18751
285.19107
285.19458
285.19805
285.20148
285.20486
285.20821
285.21151
285.21477
285.21799
285.22117
285.22431
285.22741
285.23047
285.23349
285.23647
285.23941
285.24231
285.24517
285.24799
285.25078
285.25353
285.25624
285.25892
285.26156
285.26416
285.26672
285.26926
285.27175
285.27421
285.27664
285.27903
285.28138
285.2837
285.28599
285.28825
285.29047
285.29266
285.29482
285.29695
285.29904
285.3011
285.30313
285.30513
285.30711
285.30905
285.31096
285.31284
285.31469
285.31651
285.3183
285.32007
285.32181
285.32352
285.3252
285.32685
285.32848
285.33008
285.33166
285.33321
285.33473
285.33623
285.33771
285.33916
285.34058
285.34199
285.34336
285.34472
285.34605
285.34736
285.34864
285.34991
285.35115
285.35237
285.35357
285.35474
285.3559
285.35703
285.35815
285.35924
285.36032
285.36137
285.36241
285.36343
285.36443
285.36541
285.36637
285.36732
285.36824
285.36915
285.37004
285.37092
285.37178
285.37262
285.37345
285.37426
285.37505
285.37583
285.37659
285.37734
285.37808
285.3788
285.3795
285.38019
285.38087
285.38154
285.38219
285.38282
285.38345
285.38406
285.38466
285.38525
285.38583
285.38639
285.38694
285.38748
285.38801
285.38853
285.38904
285.38953
285.39002
285.39049
285.39096
285.39141
285.39186
285.39229
285.39272
285.39314
285.39355
285.39395
285.39434
285.39472
285.39509
285.39546
285.39581
285.39616
285.39651
285.39684
285.39717
285.39749
285.3978
285.3981
285.3984
285.39869
285.39898
285.39925
285.39953
285.39979
285.40005
285.4003
285.40055
285.40079
285.40103
285.40126
285.40148
285.4017
285.40192
285.40212
285.40233
285.40253
285.40272
285.40291
285.4031
285.40328
285.40346
285.40363
285.4038
285.40396
285.40412
285.40428
285.40443
285.40458
285.40472
285.40486
285.405
285.40514
285.40527
285.4054
285.40552
285.40564
285.40576
285.40588
285.40599
285.4061
285.40621
285.40631
285.40641
285.40651
285.40661
285.40671
285.4068
285.40689
285.40698
285.40706
285.40715
285.40723
285.40731
285.40738
285.40746
285.40753
285.4076
285.40767
285.40774
285.40781
285.40787
285.40793
285.408
285.40805
285.40811
285.40817
285.40822
285.40828
285.40833
285.40838
285.40843
285.40848
285.40853
285.40858
285.40862
285.40867
285.40871
285.40876
285.4088
285.40884
285.40888
285.40891
285.40895
285.40899
285.40902
285.40906
285.40909
285.40913
285.40916
285.40919
285.40922
285.40925
285.40928
285.40931
285.40934
285.40937
285.40939
285.40942
285.40945
285.40947
285.4095
285.40952
285.40954
285.40957
285.40959
285.40961
285.40964
285.40966
285.40968
285.4097
285.40972
285.40974
285.40976
285.40978
285.4098
285.40982
285.40983
285.40985
285.40987
285.40989
285.4099
285.40992
285.40994
285.40995
285.40997
285.40999
285.41
285.41002
285.41003
285.41005
285.41006
285.41008
285.41009
285.41011
285.41012
285.41013
285.41015
285.41016
285.41018
285.41019
285.4102
285.41022
285.41023
285.41024
285.41026
285.41027
285.41028
285.41029
285.4103
285.41032
285.41033
285.41034
285.41035
285.41036
285.41038
285.41039
285.4104
285.41041
285.41042
285.41044
285.41045
285.41046
285.41047
285.41048
285.41049
285.41051
285.41052
285.41053
285.41054
285.41055
285.41056
285.41057
285.41058
285.4106
285.41061
285.41062
285.41063
285.41064
285.41065
285.41066
285.41067
285.41069
285.4107
285.41071
285.41072
285.41073
285.41074
285.41076
285.41077
285.41078
285.41079
285.4108
285.41081
285.41082
285.41083
285.41085
285.41086
285.41087
285.41088
285.41089
285.4109
285.41091
285.41092
285.41094
285.41095
285.41096
285.41097
285.41098
285.41099
285.41101
285.41102
285.41103
285.41104
285.41105
285.41106
285.41108
285.41109
285.4111
285.41111
285.41112
285.41114
285.41115
285.41116
285.41117
285.41119
285.4112
285.41121
285.41122
285.41124
285.41125
285.41126
285.41127
285.41128
285.4113
285.41131
285.41132
285.41134
285.41135
285.41136
285.41137
285.41139
285.4114
285.41141
285.41143
285.41144
285.41145
285.41147
285.41148
285.41149
285.41151
285.41152
285.41153
285.41155
285.41156
285.41158
285.41159
285.4116
285.41162
285.41163
285.41164
285.41166
285.41167
285.41169
285.4117
285.41171
285.41173
285.41174
285.41176
285.41177
285.41179
285.4118
285.41182
285.41183
285.41185
285.41186
285.41188
285.41189
285.41191
285.41192
285.41194
285.41196
285.41197
285.41199
285.412
285.41202
285.41204
285.41205
285.41207
285.41208
285.4121
285.41211
285.41213
285.41214
285.41216
285.41218
285.41219
285.41221
285.41223
285.41224
285.41226
285.41228
285.4123
285.41231
285.41233
285.41235
285.41237
285.41238
285.4124
285.41242
285.41244
285.41245
285.41247
285.41249
285.41251
285.41252
285.41254
285.41256
285.41258
285.4126
285.41262
285.41263
285.41265
285.41267
285.41269
285.41271
285.41273
285.41275
285.41277
285.41279
285.41281
285.41283
285.41285
285.41287
285.41289
285.41291
285.41293
285.41295
285.41297
285.41299
285.41302
285.41304
285.41306
285.41308
285.4131
285.41312
285.41314
285.41316
285.41319
285.41321
285.41323
285.41325
285.41327
285.41329
285.41332
285.41334
285.41336
285.41339
285.41341
285.41343
285.41346
285.41348
285.4135
285.41353
285.41355
285.41357
285.4136
285.41362
285.41365
285.41367
285.4137
285.41372
285.41375
285.41378
285.4138
285.41383
285.41386
285.41388
285.41391
285.41394
285.41396
285.41399
285.41402
285.41404
285.41407
285.4141
285.41413
285.41415
285.41418
285.41421
285.41424
285.41427
285.4143
285.41433
285.41436
285.41439
285.41442
285.41445
285.41448
285.41451
285.41454
285.41457
285.41461
285.41464
285.41467
285.4147
285.41473
285.41476
285.41479
285.41483
285.41486
285.41489
285.41492
285.41495
285.41499
285.41502
285.41505
285.41509
285.41512
285.41516
285.41519
285.41523
285.41527
285.4153
285.41534
285.41538
285.41542
285.41546
285.4155
285.41554
285.41558
285.41562
285.41566
285.4157
285.41574
285.41578
285.41582
285.41587
285.41591
285.41595
285.41599
285.41604
285.41608
285.41612
285.41617
285.41621
285.41626
285.4163
285.41635
285.4164
285.41644
285.41649
285.41654
285.41659
285.41664
285.41668
285.41673
285.41678
285.41684
285.41689
285.41694
285.41699
285.41704
285.4171
285.41715
285.4172
285.41726
285.41731
285.41737
285.41743
285.41748
285.41754
285.4176
285.41766
285.41772
285.41778
285.41785
285.41791
285.41797
285.41804
285.4181
285.41817
285.41823
285.4183
285.41837
285.41844
285.41851
285.41858
285.41865
285.41872
285.4188
285.41887
285.41895
285.41903
285.41911
285.41919
285.41927
285.41935
285.41943
285.41951
285.4196
285.41968
285.41977
285.41985
285.41994
285.42003
285.42012
285.42022
285.42031
285.42041
285.42051
285.4206
285.42071
285.42081
285.42091
285.42102
285.42112
285.42123
285.42134
285.42145
285.42156
285.42167
285.42178
285.42189
285.42201
285.42212
285.42223
285.42235
285.42247
285.42258
285.4227
285.42281
285.42293
285.42304
285.42315
285.42326
285.42337
285.42347
285.42357
285.42366
285.42375
285.42384
285.42391
285.42399
285.42405
285.42411
285.42416
285.4242
285.42424
285.42426
285.42429
285.4243
285.42431
285.42431
285.42431
285.42431
285.42431
285.42429
285.42428
285.42426
285.42425
285.42424
285.42423
285.42423
285.42423
285.42423
285.42424
285.42425
285.4243
285.42438
285.42448
285.4246
285.42474
285.4249
285.42508
285.42527
285.42548
285.4257
285.42594
285.42618
285.42643
285.42668
285.42694
285.42719
285.42745
285.4277
285.42794
285.42817
285.42839
285.4286
285.42879
285.42895
285.42909
285.4292
285.42928
285.42933
285.42937
285.4294
285.42946
285.42957
285.42982
285.4304
285.43177
285.43509
285.44322
285.46321
285.51246
285.63326
285.90038
286.27644
286.74587
287.30598
287.94985
288.66709
289.44456
290.26713
291.11854
291.98231
292.84249
293.68436
294.49499
295.2636
295.98179
296.64356
297.24526
297.78541
298.26436
298.68406
299.04765
299.35917
299.62322
299.84471
300.02862
300.17981
300.30289
300.40212
300.48135
300.54401
300.5931
300.63116
300.66039
300.68259
300.69927
300.71164
300.72069
300.72721
300.73182
300.73499
300.7371
300.73844
300.73922
300.73962
300.73977
300.73978
300.73972
300.73947
300.73902
300.73856
300.73813
300.7377
300.7373
300.7369
300.73652
300.73614
300.73576
300.73539
300.73501
300.73463
300.73424
300.73384
300.73343
300.733
300.73257
300.73212
300.73166
300.73119
300.73072
300.73024
300.72975
300.72927
300.72878
300.7283
300.72783
300.72736
300.7269
300.72646
300.72603
300.72561
300.72521
300.72482
300.72445
300.7241
300.72376
300.72344
300.72313
300.72284
300.72256
300.7223
300.72205
300.72181
300.72158
300.72136
300.72115
300.72095
300.72076
300.72058
300.7204
300.72023
300.72006
300.7199
300.71975
300.7196
300.71945
300.71931
300.71918
300.71904
300.71891
300.71879
300.71866
300.71854
300.71843
300.71831
300.7182
300.71809
300.71799
300.71788
300.71778
300.71768
300.71759
300.71749
300.7174
300.71731
300.71722
300.71713
300.71705
300.71697
300.71689
300.71681
300.71674
300.71667
300.71659
300.71653
300.71646
300.7164
300.71633
300.71628
300.71622
300.71616
300.71611
300.71606
300.71601
300.71597
300.71592
300.71588
300.71585
300.71581
300.71578
300.71575
300.71572
300.71569
300.71567
300.71565
300.71564
300.71562
300.71561
300.71561
300.7156
300.7156
300.71561
300.71561
300.71563
300.71564
300.71566
300.71568
300.71571
300.71574
300.71577
300.71581
300.71586
300.7159
300.71596
300.71602
300.71608
300.71615
300.71623
300.71631
300.7164
300.7165
300.7166
300.71671
300.71682
300.71694
300.71707
300.71721
300.71736
300.71751
300.71768
300.71785
300.71804
300.71823
300.71843
300.71865
300.71887