-1.25 	300 	0.04511828203474717 	101306.5937723658
-1.247497497497497 	299.9822609177565 	0.04372204310931121 	101307.225002836
-1.244994994994995 	299.9854107069025 	0.04187414124938273 	101307.8610592319
-1.242492492492492 	299.9860425787236 	0.04050038709729913 	101308.5001487793
-1.23998998998999 	299.9865854097618 	0.03883448993273404 	101309.142478157
-1.237487487487487 	299.9871303753814 	0.03728712232276761 	101309.7868690578
-1.234984984984985 	299.9876782155739 	0.03569497505099366 	101310.4344695613
-1.232482482482482 	299.9882292444912 	0.03410081140116447 	101311.0858398826
-1.22997997997998 	299.9887806117939 	0.03250015689297921 	101311.7376124459
-1.227477477477477 	299.9893363786929 	0.03089120204242662 	101312.3945896571
-1.224974974974975 	299.9898948202656 	0.02927939207194699 	101313.0547332913
-1.222472472472472 	299.9904505964071 	0.02766966020913983 	101313.711721409
-1.21996996996997 	299.9910074429903 	0.02605151881294721 	101314.3699804077
-1.217467467467467 	299.9915715659754 	0.02441363641157887 	101315.0368546612
-1.214964964964965 	299.9921393652424 	0.0227708269701665 	101315.7080726734
-1.212462462462462 	299.9927047588257 	0.0211343466433129 	101316.3764414862
-1.20995995995996 	299.9932688450394 	0.01950070518893723 	101317.0432698097
-1.207457457457457 	299.9938325673222 	0.01786678273478148 	101317.7096728121
-1.204954954954955 	299.9943950508331 	0.01623270298115756 	101318.3746142568
-1.202452452452452 	299.9949607818558 	0.01459365230992392 	101319.0434026588
-1.19994994994995 	299.9955353485714 	0.01293400227942724 	101319.7226430779
-1.197447447447447 	299.9961163783112 	0.01125535581022764 	101320.4095246763
-1.194944944944945 	299.9966960465554 	0.009575541587368465 	101321.094795001
-1.192442442442442 	299.9972697832435 	0.007909314966194557 	101321.773051488
-1.18993993993994 	299.9978389410962 	0.006260039612854407 	101322.4458989729
-1.187437437437437 	299.9984072376681 	0.004614225677599769 	101323.1177347797
-1.184934934934935 	299.9989771401175 	0.002963159290752007 	101323.7914718206
-1.182432432432432 	299.9995490686631 	0.001306139728614708 	101324.4676063383
-1.17992992992993 	300.0001224348482 	0.0008474538397414261 	101325.1454452669
-1.177427427427427 	300.0006963469078 	0.002016287636838202 	101325.8239359752
-1.174924924924925 	300.0012701311554 	0.003677311596524446 	101326.5022771689
-1.172422422422422 	300.001843575592 	0.0053383112714982 	101327.1802155155
-1.16991991991992 	300.00241665789 	0.006999073603030357 	101327.8577283384
-1.167417417417417 	300.0029893207006 	0.00865885171745001 	101328.5347525843
-1.164914914914915 	300.0035614014351 	0.01031620165261325 	101329.2110970367
-1.162412412412412 	300.0041327562309 	0.01197140892729153 	101329.8865865999
-1.15990990990991 	300.0047033567233 	0.0136241843440567 	101330.5611818745
-1.157407407407407 	300.005273196053 	0.01527474373788326 	101331.2348739212
-1.154904904904904 	300.0058421383238 	0.01692268125543224 	101331.9075064409
-1.152402402402403 	300.0064099472511 	0.01856741841981749 	101332.5788061173
-1.1498998998999 	300.0069764646161 	0.02020889692765187 	101333.2485882523
-1.147397397397397 	300.0075416710525 	0.02184607521883087 	101333.9168279405
-1.144894894894895 	300.0081055507187 	0.02347941218010702 	101334.5835012706
-1.142392392392392 	300.0086679723266 	0.02510858992683367 	101335.2484477399
-1.13988988988989 	300.0092287518145 	0.02673351185200926 	101335.9114490194
-1.137387387387387 	300.0097877868635 	0.02835367378056055 	101336.5723854039
-1.134884884884885 	300.0103450485661 	0.02996734984241581 	101337.2312257331
-1.132382382382382 	300.0109004560804 	0.03157565277161981 	101337.8878771243
-1.12987987987988 	300.0114538402759 	0.03317839872743272 	101338.5421403629
-1.127377377377377 	300.0120050456243 	0.03477617293277177 	101339.193833065
-1.124874874874875 	300.0125540057035 	0.03636768978983987 	101339.8428763844
-1.122372372372372 	300.0131006835724 	0.03795009139594573 	101340.4892265443
-1.11986986986987 	300.0136449861458 	0.03952585150285345 	101341.1327732902
-1.117367367367367 	300.0141867709194 	0.04109483561670411 	101341.7733463663
-1.114864864864865 	300.0147259173124 	0.04265883677057265 	101342.4108039292
-1.112362362362362 	300.0152623556511 	0.04421507866868896 	101343.0450626659
-1.10985985985986 	300.0157960062688 	0.04575849439459603 	101343.6760284857
-1.107357357357357 	300.0163267394682 	0.04729428374185875 	101344.3035481825
-1.104854854854855 	300.0168544092166 	0.04882253414214615 	101344.9274476074
-1.102352352352353 	300.0173789039183 	0.05034405889512761 	101345.5475960243
-1.09984984984985 	300.0179001771618 	0.05185644288076208 	101346.1639377762
-1.097347347347347 	300.018418206104 	0.05335471727206517 	101346.7764459016
-1.094844844844845 	300.0189329164424 	0.0548439419814731 	101347.3850331177
-1.092342342342342 	300.0194441816851 	0.05632459659595682 	101347.9895488364
-1.08983983983984 	300.0199518739698 	0.05779670662258528 	101348.5898425866
-1.087337337337337 	300.0204558785069 	0.05925889108503263 	101349.185778603
-1.084834834834835 	300.020956085248 	0.06070682307429574 	101349.7772265113
-1.082332332332332 	300.0214523806101 	0.06214283860105624 	101350.364051513
-1.07982982982983 	300.0219446398867 	0.06356826214285601 	101350.9461061444
-1.077327327327327 	300.0224327852075 	0.0649829758239959 	101351.5232990122
-1.074824824824825 	300.0229168227747 	0.06638766445868213 	101352.0956372231
-1.072322322322323 	300.0233967429593 	0.06777850160735756 	101352.6631091507
-1.06981981981982 	300.0238724542822 	0.0691539568486176 	101353.2256059491
-1.067317317317317 	300.0243438299465 	0.07051777623904848 	101353.7829780252
-1.064814814814815 	300.0248107376073 	0.07187068572142136 	101354.3350693728
-1.062312312312312 	300.0252730548876 	0.07321230930745871 	101354.8817352583
-1.05980980980981 	300.0257306726589 	0.07453917730356363 	101355.4228460691
-1.057307307307307 	300.0261834569239 	0.07584871433814534 	101355.9582425937
-1.054804804804805 	300.0266312981551 	0.07714455152510993 	101356.487796043
-1.052302302302302 	300.0270741876571 	0.07842779765483666 	101357.0114963746
-1.0497997997998 	300.0275121431183 	0.07969753441591763 	101357.5293645597
-1.047297297297297 	300.0279451288486 	0.08095223791307309 	101358.0413579193
-1.044794794794795 	300.0283730686265 	0.08219053077158718 	101358.5473853605
-1.042292292292292 	300.0287958573123 	0.08341399855829509 	101359.0473237928
-1.03978978978979 	300.0292133875348 	0.0846235289442315 	101359.541046414
-1.037287287287287 	300.0296255476284 	0.08581803831397275 	101360.0284200411
-1.034784784784785 	300.0300321858446 	0.08699672730002822 	101360.5092652383
-1.032282282282283 	300.0304331679422 	0.08815838263397269 	101360.9834234353
-1.02977977977978 	300.0308284452039 	0.08930277966155234 	101361.450837924
-1.027277277277277 	300.0312180170509 	0.09043106982635979 	101361.9115071509
-1.024774774774775 	300.0316018782448 	0.0915427968296529 	101362.3654235333
-1.022272272272272 	300.0319800017245 	0.0926383831636102 	101362.812556869
-1.01976976976977 	300.032352339739 	0.09371679291188156 	101363.2528514141
-1.017267267267267 	300.032718825524 	0.0947770310884771 	101363.6862268001
-1.014764764764765 	300.0330793455275 	0.09582094549028974 	101364.1125465457
-1.012262262262262 	300.033433731427 	0.09684771095368523 	101364.5316122962
-1.00975975975976 	300.0337818343202 	0.09785852274681854 	101364.9432527128
-1.007257257257257 	300.0341235975795 	0.09885050685560429 	101365.3473992906
-1.004754754754755 	300.0344590290584 	0.0998206768128815 	101365.744056928
-1.002252252252252 	300.0347881413104 	0.1007731830870306 	101366.1332387002
-0.9997497497497498 	300.0351109262037 	0.1017074949082393 	101366.5149382139
-0.9972472472472473 	300.035427355746 	0.1026255718771759 	101366.8891299184
-0.9947447447447449 	300.0357373826124 	0.1035242636730638 	101367.2557554282
-0.9922422422422421 	300.0360409016484 	0.1044000645213968 	101367.6146816893
-0.9897397397397399 	300.036337741614 	0.1052587035669741 	101367.9657016106
-0.9872372372372376 	300.0366277467318 	0.1060994249529826 	101368.3086357537
-0.9847347347347346 	300.0369108602599 	0.106923330762364 	101368.6434298033
-0.9822322322322323 	300.0371871172301 	0.10772667832217 	101368.9701275461
-0.9797297297297296 	300.0374565668623 	0.1085055420249639 	101369.2887767386
-0.9772272272272275 	300.0377192225384 	0.1092653955712183 	101369.5993802003
-0.9747247247247248 	300.0379750677261 	0.1100059166414563 	101369.9019164985
-0.9722222222222224 	300.0382240689646 	0.1107268647524226 	101370.1963595892
-0.9697197197197196 	300.0384661339227 	0.1114274228696513 	101370.4826144919
-0.9672172172172175 	300.0387010735914 	0.1121062348153929 	101370.7604601032
-0.9647147147147147 	300.0389287084751 	0.112765247579821 	101371.0296713692
-0.9622122122122124 	300.0391490144299 	0.1134043830607183 	101371.2902025239
-0.9597097097097099 	300.0393621044398 	0.1140234176954413 	101371.5421804995
-0.9572072072072073 	300.0395680598783 	0.1146214585791618 	101371.7857103317
-0.9547047047047047 	300.0397668140443 	0.1151971176079705 	101372.0207312797
-0.9522022022022023 	300.0399582324894 	0.1157509112999251 	101372.2470987852
-0.9496996996996998 	300.0401422946347 	0.1162835667980128 	101372.4647875734
-0.9471971971971973 	300.0403190795901 	0.1167953655372911 	101372.6738763504
-0.9446946946946947 	300.0404885614084 	0.1172867281805313 	101372.8743155568
-0.9421921921921923 	300.0406505494261 	0.117755991225125 	101373.0658678289
-0.93968968968969 	300.0408048874689 	0.1182021887763847 	101373.2483522174
-0.9371871871871872 	300.0409516308292 	0.1186272549767022 	101373.4218502889
-0.9346846846846848 	300.0410909390121 	0.1190312837742854 	101373.5865672618
-0.9321821821821823 	300.0412228031283 	0.1194149628265886 	101373.742503406
-0.9296796796796799 	300.0413470307448 	0.1197758630262945 	101373.8894321393
-0.9271771771771771 	300.0414635266132 	0.1201116841360729 	101374.0272324269
-0.9246746746746748 	300.0415724031444 	0.1204259322319554 	101374.1560250415
-0.9221721721721724 	300.0416737706442 	0.1207193320206113 	101374.2759263483
-0.9196696696696698 	300.041767553801 	0.12099186042035 	101374.3868362263
-0.9171671671671672 	300.0418535746034 	0.1212421439573223 	101374.4885408968
-0.9146646646646649 	300.0419317965442 	0.1214678872048298 	101374.5810007961
-0.9121621621621623 	300.042002362984 	0.1216711262275524 	101374.6643935359
-0.9096596596596597 	300.0420653244929 	0.1218530545162634 	101374.7387865254
-0.9071571571571573 	300.0421205433967 	0.1220129410140695 	101374.804023219
-0.9046546546546547 	300.0421679383095 	0.1221512184073436 	101374.860011065
-0.9021521521521524 	300.0422075416042 	0.1222660690417036 	101374.9067904001
-0.8996496496496498 	300.042239388114 	0.1223571271561508 	101374.944404387
-0.8971471471471473 	300.0422635120469 	0.1224264022903518 	101374.9728934248
-0.894644644644645 	300.0422798752411 	0.1224732085961993 	101374.9922123341
-0.892142142142142 	300.0422883712839 	0.1224999924817203 	101375.0022359808
-0.8896396396396397 	300.042289042304 	0.1225031988227963 	101375.0030087699
-0.8871371371371374 	300.0422819972683 	0.1224804404129715 	101374.9946598809
-0.8846346346346349 	300.0422672407061 	0.1224368187561473 	101374.9771933924
-0.8821321321321324 	300.0422447472713 	0.1223712642436939 	101374.9505774701
-0.8796296296296297 	300.0422144475023 	0.1222859224626316 	101374.9147329161
-0.8771271271271271 	300.0421762720797 	0.1221768441323647 	101374.8695778616
-0.8746246246246248 	300.0421303252277 	0.1220411243593611 	101374.8152335011
-0.8721221221221224 	300.042076667852 	0.1218845191690179 	101374.7517707786
-0.8696196196196196 	300.0420151974058 	0.1217061614612024 	101374.6790655602
-0.8671171171171175 	300.04194595734 	0.1215076814776538 	101374.597170038
-0.8646146146146148 	300.0418690723502 	0.1212860293680757 	101374.5062329683
-0.8621121121121121 	300.041784551261 	0.1210390763144517 	101374.4062667892
-0.8596096096096097 	300.0416924114576 	0.1207713130634381 	101374.2972932865
-0.857107107107107 	300.0415926319943 	0.120482088336542 	101374.1792880177
-0.8546046046046049 	300.0414851341027 	0.1201717017892605 	101374.0521561304
-0.8521021021021022 	300.041369923476 	0.1198386163778946 	101373.9159010363
-0.8495995995995997 	300.0412470228604 	0.1194817850479709 	101373.7705487282
-0.8470970970970974 	300.0411164695021 	0.1191031391158201 	101373.6161432368
-0.8445945945945946 	300.0409783454381 	0.1187028298889818 	101373.4527836594
-0.8420920920920922 	300.0408327003658 	0.1182814720033574 	101373.2805317314
-0.8395895895895897 	300.0406796019014 	0.117838361687796 	101373.0994685724
-0.8370870870870872 	300.040519142137 	0.117373046474727 	101372.9097028535
-0.8345845845845846 	300.0403513137518 	0.1168863687315857 	101372.7112252095
-0.8320820820820823 	300.0401760331339 	0.1163784363195312 	101372.503935588
-0.8295795795795798 	300.0399932697383 	0.1158494892863065 	101372.2877957731
-0.8270770770770772 	300.0398030590518 	0.1152990747536427 	101372.0628461247
-0.8245745745745746 	300.0396054494096 	0.114726733390244 	101371.8291439452
-0.8220720720720721 	300.0394004856167 	0.1141325792286631 	101371.5867433323
-0.8195695695695699 	300.0391882164644 	0.1135173187955913 	101371.3357041182
-0.817067067067067 	300.0389687639193 	0.1128816899235719 	101371.076171051
-0.8145645645645651 	300.0387422546063 	0.1122261812017213 	101370.8082943444
-0.8120620620620621 	300.0385087350398 	0.111549957554106 	101370.5321296586
-0.8095595595595597 	300.0382681549288 	0.1108521227649046 	101370.2476179185
-0.8070570570570572 	300.0380205145131 	0.1101340668287627 	101369.9547594217
-0.8045545545545546 	300.037765797983 	0.1093963398367805 	101369.6535347691
-0.8020520520520523 	300.0375040348606 	0.1086402576126752 	101369.3439781461
-0.7995495495495494 	300.0372352879889 	0.1078633058302364 	101369.0261621219
-0.7970470470470474 	300.0369596729362 	0.1070630719913422 	101368.7002212614
-0.7945445445445446 	300.0366772466838 	0.1062434448795822 	101368.3662249324
-0.7920420420420423 	300.0363880765516 	0.1054053497204337 	101368.0242547449
-0.7895395395395397 	300.0360921977212 	0.1045490651174071 	101367.6743527243
-0.7870370370370371 	300.0357897627152 	0.1036741279624846 	101367.3166989885
-0.7845345345345348 	300.0354808947437 	0.1027781622287997 	101366.9514389071
-0.7820320320320323 	300.0351655296836 	0.1018630083754807 	101366.5784965246
-0.7795295295295296 	300.0348434667819 	0.1009301617872303 	101366.197634877
-0.7770270270270272 	300.0345147563086 	0.09997859815615023 	101365.8089134548
-0.7745245245245247 	300.0341796670259 	0.09901081685219577 	101365.4126501078
-0.7720220220220222 	300.0338384934912 	0.09802335670704912 	101365.0091925602
-0.7695195195195199 	300.0334912459914 	0.09701478989187057 	101364.598553391
-0.767017017017017 	300.0331376623527 	0.09598932770153402 	101364.1804232035
-0.7645145145145147 	300.0327776780115 	0.09494586855320962 	101363.7547255374
-0.7620120120120122 	300.0324117125261 	0.09388810779142354 	101363.3219574977
-0.7595095095095097 	300.0320402214898 	0.0928123874124398 	101362.8826561591
-0.7570070070070072 	300.0316631579338 	0.0917168895657286 	101362.4367664655
-0.7545045045045048 	300.0312800162914 	0.09060666294240159 	101361.9836908146
-0.7520020020020022 	300.030890343903 	0.08947908173861741 	101361.5228935568
-0.7494994994994997 	300.0304944548678 	0.0883360755615706 	101361.0547467224
-0.7469969969969972 	300.0300933420189 	0.08717543456779338 	101360.5804243379
-0.7444944944944945 	300.0296875812439 	0.08599715356033422 	101360.1006082622
-0.7419919919919924 	300.0292768072813 	0.08480555220063823 	101359.614865987
-0.7394894894894897 	300.0288602225912 	0.08359771063946916 	101359.1222538755
-0.7369869869869872 	300.0284374537554 	0.08237324163971835 	101358.6223303837
-0.7344844844844846 	300.0280090481619 	0.08113212456118533 	101358.1157432475
-0.7319819819819822 	300.0275759879001 	0.07987682520151801 	101357.6036549587
-0.7294794794794797 	300.027138640726 	0.0786108051010761 	101357.0865000624
-0.7269769769769773 	300.0266966259121 	0.0773320992025617 	101356.5638272239
-0.7244744744744747 	300.0262492753312 	0.07603758250626237 	101356.0348463686
-0.721971971971972 	300.0257960519371 	0.07472451580528233 	101355.4989225694
-0.7194694694694695 	300.0253372568123 	0.07339453665106337 	101354.9564127432
-0.7169669669669674 	300.024874018847 	0.07205217911246524 	101354.4086522509
-0.7144644644644647 	300.0244072913747 	0.07070015556815838 	101353.8567682824
-0.711961961961962 	300.023937329762 	0.06933859099765907 	101353.3010630944
-0.7094594594594597 	300.0234634407158 	0.06796447828912926 	101352.7407168793
-0.7069569569569573 	300.0229841455964 	0.06657582752575754 	101352.1739800516
-0.7044544544544545 	300.022498927064 	0.06517175838550332 	101351.6002393453
-0.7019519519519523 	300.0220087554627 	0.06375270440071423 	101351.0206433159
-0.6994494494494495 	300.0215147542604 	0.06232221463549786 	101350.4365226437
-0.6969469469469471 	300.0210180035142 	0.06088350141212527 	101349.8491554148
-0.6944444444444446 	300.020519047729 	0.05943730156551053 	101349.2591855545
-0.6919419419419421 	300.0200168261548 	0.05798172745816627 	101348.6653561507
-0.6894394394394396 	300.019510158833 	0.05651388532836182 	101348.0662709598
-0.6869369369369374 	300.0189986501624 	0.05503160875963229 	101347.461462486
-0.6844344344344344 	300.0184821229145 	0.05353614312592145 	101346.8507218243
-0.6819319319319321 	300.0179615948812 	0.05202961249444397 	101346.2352530949
-0.6794294294294296 	300.0174385297108 	0.0505140121719142 	101345.6167888026
-0.6769269269269272 	300.0169135768535 	0.04899295905082966 	101344.9960976522
-0.6744244244244245 	300.0163868146902 	0.04746683044469217 	101344.3732721804
-0.6719219219219222 	300.0158576852525 	0.04593522928185815 	101343.7476516576
-0.6694194194194195 	300.0153253585714 	0.04439420690760747 	101343.1182505914
-0.6669169169169172 	300.0147891906476 	0.04283924138868889 	101342.484306781
-0.6644144144144146 	300.0142490078599 	0.04127303458516755 	101341.8456185615
-0.661911911911912 	300.0137050246567 	0.03969726980935605 	101341.2024389052
-0.6594094094094097 	300.0131581445827 	0.03811380280310676 	101340.5558387648
-0.656906906906907 	300.012609341922 	0.03652610097734883 	101339.9069719797
-0.6544044044044046 	300.0120590311649 	0.0349318925172202 	101339.256326099
-0.6519019019019021 	300.0115074621559 	0.03333208307695421 	101338.6041970742
-0.6493993993993996 	300.0109544336526 	0.03172941445785506 	101337.9503472939
-0.6468968968968971 	300.0103997989182 	0.03012234284401325 	101337.2945996418
-0.6443943943943946 	300.0098433724943 	0.02851346586407559 	101336.6367357572
-0.6418918918918921 	300.0092849378254 	0.0268964082486789 	101335.9764980434
-0.6393893893893897 	300.0087244490259 	0.02526957245164237 	101335.3138321127
-0.6368868868868871 	300.0081618955209 	0.02363909128760896 	101334.6487264908
-0.6343843843843846 	300.0075972807421 	0.02200324453017083 	101333.9811867343
-0.6318818818818821 	300.0070308301576 	0.02036546468334041 	101333.3114795197
-0.6293793793793795 	300.0064629600481 	0.01872099022751678 	101332.6400978768
-0.6268768768768773 	300.0058934325435 	0.01706798434450457 	101331.9667628808
-0.6243743743743745 	300.0053217743736 	0.01541201932240295 	101331.2910824891
-0.6218718718718721 	300.0047487251943 	0.0137524279824036 	101330.6136148557
-0.6193693693693696 	300.0041749376114 	0.01209101784825006 	101329.9351160924
-0.6168668668668671 	300.0036002843175 	0.0104263539319707 	101329.2557015854
-0.6143643643643645 	300.0030249045285 	0.008758583633280317 	101328.5754726484
-0.6118618618618621 	300.0024493540255 	0.007091025765587508 	101327.8950432383
-0.6093593593593596 	300.0018741622409 	0.005425035564471513 	101327.2150394209
-0.6068568568568571 	300.0012998848355 	0.003762100441803598 	101326.5361174725
-0.6043543543543546 	300.0007266861465 	0.0021012070320853 	101325.8584712399
-0.6018518518518521 	300.0001543315235 	0.0004422589820450726 	101325.1818241864
-0.5993493493493496 	299.9995822800462 	0.001236256287863946 	101324.5055391006
-0.5968468468468471 	299.9990098630967 	0.00287398716652869 	101323.8288284012
-0.5943443443443446 	299.9984370139193 	0.004532925167268736 	101323.1516122888
-0.591841841841842 	299.9978639324293 	0.0061929953465369 	101322.4741268606
-0.5893393393393397 	299.9972908451227 	0.007853432177595817 	101321.7966402739
-0.5868368368368371 	299.9967179639295 	0.009513042971404302 	101321.1194017071
-0.5843343343343346 	299.9961455056912 	0.01117168419735943 	101320.442666653
-0.5818318318318321 	299.9955736883454 	0.01282795752203732 	101319.7666914355
-0.5793293293293297 	299.9950026641353 	0.01448231544882038 	101319.0916551532
-0.5768268268268271 	299.9944325128507 	0.01613404755725067 	101318.4176528206
-0.5743243243243245 	299.993863305086 	0.01778290510414809 	101317.7447682898
-0.5718218218218221 	299.9932951310323 	0.019429092879116 	101317.0731079698
-0.5693193193193196 	299.9927281089596 	0.02107133930419491 	101316.4028118731
-0.5668168168168171 	299.9921623738581 	0.02271016117682316 	101315.7340403559
-0.5643143143143147 	299.9915980421184 	0.02434462098397992 	101315.0669311421
-0.5618118118118121 	299.9910352389037 	0.02597489402428693 	101314.4016318625
-0.5593093093093094 	299.9904741264504 	0.02760105996284441 	101313.7383365517
-0.5568068068068072 	299.9899148404785 	0.02922145652910962 	101313.077204299
-0.5543043043043046 	299.9893574514634 	0.03083650350121069 	101312.4183177096
-0.551801801801802 	299.9888020180978 	0.03244497197187603 	101311.7617462478
-0.5492992992992995 	299.9882486132062 	0.03404791776183318 	101311.1075751696
-0.5467967967967969 	299.9876973337628 	0.03564558099370032 	101310.4559197893
-0.5442942942942947 	299.9871483005652 	0.0372358872068778 	101309.8069226567
-0.5417917917917919 	299.9866016124334 	0.03881946870246267 	101309.1607008018
-0.5392892892892895 	299.9860573735317 	0.04039440930100047 	101308.5173771806
-0.536786786786787 	299.9855157395695 	0.04196328873320687 	101307.8771350495
-0.5342842842842846 	299.984976852103 	0.04352645560695045 	101307.2401430592
-0.531781781781782 	299.9844407936633 	0.04508026757457529 	101306.6064979035
-0.5292792792792794 	299.9839076112663 	0.0466255365946402 	101305.9762550977
-0.526776776776777 	299.9833773493342 	0.04815847965306906 	101305.3494674591
-0.5242742742742745 	299.9828500958204 	0.0496851946643459 	101304.726238018
-0.521771771771772 	299.982325968498 	0.05120665925835592 	101304.1067075882
-0.5192692692692695 	299.981805058061 	0.0527156784311065 	101303.490982501
-0.516766766766767 	299.981287463233 	0.05421445164061178 	101302.8791785764
-0.5142642642642645 	299.9807733445242 	0.0556997951952938 	101302.2714865388
-0.511761761761762 	299.980262877829 	0.05717806955452431 	101301.6681132208
-0.5092592592592596 	299.9797561780931 	0.05865009075498783 	101301.0691962211
-0.506756756756757 	299.9792532766955 	0.06010848454112833 	101300.474771381
-0.5042542542542544 	299.9787541692922 	0.06155524458796293 	101299.8848329249
-0.5017517517517521 	299.9782589094125 	0.06298883893593335 	101299.299444934
-0.4992492492492494 	299.977767603712 	0.06441180686866958 	101298.7187329938
-0.496746746746747 	299.9772803345298 	0.06582419849125778 	101298.1427955838
-0.4942442442442445 	299.9767971826283 	0.06722303619544631 	101297.5717270429
-0.4917417417417421 	299.9763182980176 	0.06860945184946424 	101297.0057038925
-0.4892392392392395 	299.9758438853301 	0.06998251871593443 	101296.4449685218
-0.486736736736737 	299.9753740968209 	0.07134381200861842 	101295.8897010165
-0.4842342342342345 	299.9749089397018 	0.07269291397299439 	101295.3399110052
-0.481731731731732 	299.9744483490482 	0.07402789233584511 	101294.7955202355
-0.4792292292292296 	299.9739923689048 	0.07534912518297543 	101294.2565805994
-0.4767267267267268 	299.9735411860721 	0.07665563234995657 	101293.7233129914
-0.4742242242242246 	299.9730949545025 	0.07794846702293395 	101293.1958991692
-0.471721721721722 	299.9726536880801 	0.07922705182246419 	101292.6743573767
-0.4692192192192195 	299.9722173804745 	0.08049038942457601 	101292.1586786476
-0.4667167167167169 	299.9717861695111 	0.08173902076328597 	101291.6490250142
-0.4642142142142145 	299.971360302159 	0.08297227319093159 	101291.145687671
-0.461711711711712 	299.9709398868933 	0.0841910223392421 	101290.6487960423
-0.4592092092092094 	299.9705247999713 	0.08539431963117533 	101290.1582054231
-0.456706706706707 	299.9701149494094 	0.08658148127682802 	101289.6738064299
-0.4542042042042045 	299.9697105164495 	0.08775285690516058 	101289.1958121657
-0.451701701701702 	299.9693118119403 	0.08890759475188736 	101288.7245880685
-0.4491991991991995 	299.9689189582615 	0.09004631491240214 	101288.2602797559
-0.4466966966966969 	299.968531844725 	0.09116784689347258 	101287.8027584243
-0.4441941941941945 	299.9681504139178 	0.0922721988567981 	101287.3519565813
-0.441691691691692 	299.9677748578644 	0.09335995734876681 	101286.9081005412
-0.4391891891891895 	299.9674053968309 	0.09443025868436893 	101286.4714479087
-0.436686686686687 	299.9670419983448 	0.09548373456623674 	101286.0419596293
-0.4341841841841846 	299.9666845218901 	0.09651901627716282 	101285.6194713096
-0.431681681681682 	299.9663330341181 	0.09753681271105077 	101285.204063905
-0.4291791791791794 	299.9659878039764 	0.0985374267421905 	101284.7960564632
-0.426676676676677 	299.9656490327592 	0.09951908993351333 	101284.3956842812
-0.4241741741741744 	299.9653167078657 	0.100482245725025 	101284.0029296075
-0.421671671671672 	299.9649907685891 	0.1014252010886465 	101283.6177198178
-0.4191691691691694 	299.9646713020899 	0.1023501450653754 	101283.2401598422
-0.4166666666666669 	299.9643584245079 	0.1032576960273603 	101282.870391077
-0.4141641641641645 	299.9640521141608 	0.1041453661385479 	101282.5083886727
-0.411661661661662 	299.9637523085385 	0.1050141041875294 	101282.1540757171
-0.4091591591591594 	299.9634590537888 	0.1058607455890216 	101281.8075033764
-0.406656656656657 	299.9631725111794 	0.106690370382788 	101281.4688598108
-0.4041541541541545 	299.9628928743129 	0.1075033901995951 	101281.1383768085
-0.401651651651652 	299.9626202128642 	0.1082938152732802 	101280.8161409617
-0.3991491491491494 	299.9623544997631 	0.1090636487733818 	101280.5021223848
-0.396646646646647 	299.9620957959529 	0.1098093179753433 	101280.1963923742
-0.3941441441441444 	299.9618441754533 	0.1105378562607409 	101279.8990319447
-0.3916416416416419 	299.9615995839076 	0.1112500196189881 	101279.6099746692
-0.3891391391391395 	299.9613619965506 	0.1119386876917464 	101279.3291895516
-0.3866366366366368 	299.9611314294928 	0.1126067867693374 	101279.0567013581
-0.3841341341341344 	299.9609079103771 	0.1132520988083616 	101278.7925489631
-0.381631631631632 	299.9606916042174 	0.1138784444917831 	101278.5369286101
-0.3791291291291294 	299.9604826621159 	0.1144859045972867 	101278.2900150608
-0.3766266266266269 	299.960281055682 	0.1150701674250427 	101278.0517670653
-0.3741241241241244 	299.9600868312787 	0.1156328775717581 	101277.8222351143
-0.371621621621622 	299.9599000943935 	0.1161729050610222 	101277.601546326
-0.3691191191191194 	299.9597208112322 	0.1166922924822419 	101277.3896669362
-0.366616616616617 	299.9595489402695 	0.117191086469996 	101277.1865557346
-0.3641141141141143 	299.9593844568089 	0.1176676145729196 	101276.9921848371
-0.3616116116116119 	299.9592273240632 	0.1181227509294204 	101276.8065056811
-0.3591091091091095 	299.9590776735084 	0.1185554745770208 	101276.6296652842
-0.356606606606607 	299.9589356340971 	0.1189670884086696 	101276.4618093096
-0.3541041041041044 	299.9588011815443 	0.1193571159483306 	101276.3029099621
-0.3516016016016019 	299.9586743499409 	0.1197245562347599 	101276.153014314
-0.3490990990990994 	299.9585552007885 	0.1200700175605318 	101276.0122052861
-0.346596596596597 	299.9584437475248 	0.120392503916746 	101275.8805041188
-0.3440940940940944 	299.9583400192942 	0.1206931292630833 	101275.7579423647
-0.3415915915915919 	299.9582439645376 	0.1209715416443134 	101275.6444506334
-0.3390890890890895 	299.9581555233374 	0.1212274457223075 	101275.5399472579
-0.3365865865865869 	299.958074773007 	0.121461451646162 	101275.4445187822
-0.3340840840840844 	299.958001777958 	0.1216726287279213 	101275.3582448483
-0.3315815815815819 	299.9579365243935 	0.121861791767393 	101275.2811179493
-0.3290790790790794 	299.957879012029 	0.1220283399033985 	101275.2131492856
-0.3265765765765769 	299.9578292604526 	0.1221724311075538 	101275.1543675482
-0.3240740740740744 	299.9577873121085 	0.1222944298567399 	101275.10482084
-0.3215715715715718 	299.9577532110002 	0.1223932419853464 	101275.0645521046
-0.3190690690690695 	299.95772690992 	0.1224696601441721 	101275.0334934164
-0.3165665665665668 	299.9577083489028 	0.1225228511320586 	101275.0115651027
-0.3140640640640644 	299.9576975779082 	0.122553673527365 	101274.9988260244
-0.311561561561562 	299.9576946424849 	0.122562611237215 	101274.9953402605
-0.3090590590590593 	299.9576994987721 	0.1225483776434227 	101275.0010651917
-0.3065565565565568 	299.9577120976534 	0.122511941025936 	101275.0159540845
-0.3040540540540545 	299.9577324580189 	0.1224521129697386 	101275.040033516
-0.3015515515515518 	299.9577606707712 	0.1223704165714561 	101275.0734073098
-0.2990490490490494 	299.9577968214243 	0.1222671577269408 	101275.1161675002
-0.2965465465465469 	299.9578407868618 	0.1221403464900879 	101275.1681563192
-0.2940440440440444 	299.9578923592973 	0.1219911511442578 	101275.2291195013
-0.2915415415415418 	299.9579515230793 	0.1218176272879136 	101275.2990349657
-0.2890390390390395 	299.9580184395768 	0.1216231073516446 	101275.3780971893