/*--------------------------------*- C++ -*----------------------------------*\
  =========                 |
  \\      /  F ield         | OpenFOAM: The Open Source CFD Toolbox
   \\    /   O peration     | Website:  https://openfoam.org
    \\  /    A nd           | Version:  7
     \\/     M anipulation  |
\*---------------------------------------------------------------------------*/
FoamFile
{
    version     2.0;
    format      ascii;
    class       volScalarField;
    location    "0.00053";
    object      Uz;
}
// * * * * * * * * * * * * * * * * * * * * * * * * * * * * * * * * * * * * * //

dimensions      [0 1 -1 0 0 0 0];

internalField   nonuniform List<scalar> 
5000
(
0
0
0
0
0
2.026588e-28
3.2399491e-43
-3.039882e-28
-1.519941e-28
2.026588e-28
1.013294e-28
2.5696805e-43
-4.3199321e-43
7.3472905e-57
1.013294e-28
-1.013294e-28
-3.9030665e-56
3.1247509e-42
4.053176e-28
-4.053176e-28
-2.026588e-28
0
0
-1.519941e-28
1.2959796e-42
-8.3518688e-43
5.06647e-29
5.06647e-29
2.026588e-28
-1.013294e-28
1.4949822e-57
-4.3199321e-43
8.0585705e-43
3.9446394e-43
-1.013294e-28
0
0
-5.06647e-29
1.013294e-28
-1.519941e-28
-5.7252146e-56
-5.06647e-29
5.06647e-29
8.5678654e-43
1.519941e-28
-5.06647e-29
3.4847452e-42
-6.9406909e-42
1.7423726e-42
-8.6398642e-43
-1.519941e-28
0
0
0
0
0
0
0
0
0
0
0
0
1.013294e-28
-5.06647e-29
1.519941e-28
-8.7118631e-43
4.8788331e-57
2.026588e-28
0
0
5.06647e-29
5.06647e-29
0
3.039882e-28
8.7478626e-42
-1.013294e-28
2.7796753e-43
5.06647e-29
-1.013294e-28
4.053176e-28
-8.6398642e-44
-1.519941e-28
-1.013294e-28
-1.0540634e-41
3.5270921e-42
1.519941e-28
-5.06647e-29
-5.06647e-29
5.06647e-29
5.06647e-29
1.519941e-28
5.2919169e-42
-1.013294e-28
7.0126898e-42
1.519941e-28
1.519941e-28
1.7783721e-42
-7.0558891e-42
-4.053176e-28
-1.013294e-28
2.026588e-28
-6.4798982e-44
-4.559823e-28
0
3.039882e-28
7.0558891e-42
6.4146353e-43
1.013294e-28
2.026588e-28
-1.013294e-28
1.013294e-28
-1.519941e-28
5.06647e-29
-1.519941e-28
1.013294e-28
2.026588e-28
8.6398642e-44
1.013294e-28
-4.559823e-28
1.0627033e-41
1.4746435e-43
3.039882e-28
1.519941e-28
-1.013294e-28
1.8313801e-42
5.06647e-29
2.026588e-28
-5.06647e-29
1.7495725e-42
1.013294e-28
3.039882e-28
-5.06647e-29
1.3898376e-43
5.06647e-29
1.7639723e-42
1.7567724e-42
-3.5279446e-42
-4.053176e-28
-2.026588e-28
2.533235e-28
4.053176e-28
2.533235e-28
4.053176e-28
-1.7567724e-41
-2.026588e-28
-7.9003124e-59
-4.3199321e-44
-1.3172849e-55
-5.06647e-29
7.0270896e-42
-2.8223557e-41
-1.519941e-28
-2.3520329e-42
9.3034078e-57
1.4828279e-57
-1.519941e-28
2.026588e-28
-1.4399774e-44
-5.06647e-29
0
-5.06647e-29
-3.5063449e-42
4.053176e-28
-1.519941e-28
-1.4399774e-44
-2.026588e-28
2.533235e-28
-2.026588e-28
-5.06647e-29
-8.4306024e-54
-3.8577845e-54
5.06647e-29
-4.053176e-28
0
1.0540634e-41
3.1621903e-41
-1.8912335e-43
6.2726317e-42
-1.0475835e-41
1.013294e-28
5.06647e-29
1.7423726e-41
1.2959796e-43
2.8079559e-41
-4.053176e-28
1.013294e-28
2.026588e-28
-2.4393217e-41
1.0475835e-41
-1.0533434e-41
-3.499145e-42
2.533235e-28
0
0
0
0
3.546529e-28
-8.4497872e-41
-4.559823e-28
-3.039882e-28
1.013294e-28
-5.06647e-29
1.013294e-28
5.3272414e-56
1.0519035e-41
5.06647e-29
0
0
0
-1.013294e-28
3.5063449e-42
-1.013294e-28
-5.06647e-29
-9.2312111e-56
1.013294e-28
-3.039882e-28
1.013294e-28
1.519941e-28
-1.519941e-28
5.06647e-29
0
0
0
1.013294e-28
-2.026588e-28
-4.519298e-42
-1.519941e-28
1.4082979e-41
-1.519941e-28
-1.519941e-28
2.026588e-28
1.4399774e-44
-7.1998869e-44
3.039882e-28
2.533235e-28
-3.039882e-28
2.1599661e-44
-7.3885239e-41
3.039882e-28
-1.4068579e-40
-1.4054179e-41
5.06647e-29
-1.519941e-28
0
-1.013294e-28
1.104468e-41
-1.013294e-28
1.013294e-28
0
2.601243e-42
-1.013294e-28
5.06647e-29
-3.5178647e-41
-3.039882e-28
-3.039882e-28
3.039882e-28
3.039882e-28
0
-9.119646e-28
-4.053176e-28
1.013294e-28
-1.013294e-28
5.06647e-29
-4.053176e-28
-6.079764e-28
2.533235e-28
3.039882e-28
4.2162538e-41
2.026588e-28
-2.026588e-28
-5.5704024e-55
-2.026588e-28
7.093058e-28
-3.039882e-28
3.5279446e-41
2.026588e-28
-5.06647e-29
-5.06647e-29
-1.1837443e-41
2.1138868e-41
1.013294e-28
-4.053176e-28
-1.7531725e-41
1.519941e-28
0
0
1.519941e-28
-1.013294e-28
-2.026588e-28
1.519941e-28
-2.8799547e-44
-1.519941e-28
-4.559823e-28
3.039882e-28
0
-4.2764235e-43
-5.06647e-29
0
-2.026588e-28
-1.013294e-28
2.026588e-28
-1.0519035e-41
5.7599095e-44
5.06647e-29
2.533235e-28
-1.519941e-28
7.1519571e-43
5.06647e-29
-8.6398642e-44
-9.119646e-28
5.573117e-28
4.559823e-28
2.026588e-28
-7.0270896e-42
1.013294e-28
0
0
-2.2451224e-43
6.234258e-56
-1.4061379e-41
-7.0414894e-42
1.1284567e-55
1.519941e-28
-7.1998869e-45
-4.0626024e-43
0
0
0
0
0
0
0
5.06647e-29
0
-4.053176e-28
0
1.013294e-28
-2.8108358e-41
2.026588e-28
0
0
1.519941e-28
7.0342895e-42
5.06647e-29
0
0
-2.533235e-28
-2.026588e-28
-7.3203554e-42
5.06647e-29
0
-2.533235e-28
-3.9031552e-56
-5.06647e-29
-4.4902447e-43
-3.8572738e-56
-5.06647e-29
-2.533235e-28
0
5.06647e-29
-5.06647e-29
1.3291427e-41
5.06647e-29
0
-1.013294e-28
-5.06647e-29
-5.06647e-29
-2.026588e-28
0
0
0
0
0
0
0
0
-1.519941e-28
-3.1224532e-55
-2.026588e-28
0
0
0
1.519941e-28
1.4054179e-41
1.013294e-28
-1.519941e-28
1.4068579e-41
-3.5999434e-44
-1.4068579e-41
-2.026588e-28
1.519941e-28
6.7964936e-42
-5.6303115e-41
5.8981473e-45
-7.9286406e-42
0
0
1.013294e-28
2.1102868e-41
-2.026588e-28
3.546529e-28
3.039882e-28
0
-1.013294e-28
-1.013294e-28
-5.06647e-29
-1.4061379e-41
-5.8545997e-56
-2.8137158e-41
7.4796161e-42
-1.013294e-28
-1.5612266e-55
1.0970224e-54
-6.7799043e-42
0
0
-2.533235e-28
-3.5999434e-44
6.3243806e-41
-7.1161201e-42
0
0
1.013294e-28
-1.4046979e-41
5.06647e-29
0
0
0
-2.026588e-28
-7.1998869e-45
-1.013294e-28
5.06647e-29
-5.06647e-29
1.4082979e-41
1.013294e-28
-2.026588e-28
-8.4411474e-41
-3.5171447e-41
3.5171447e-41
5.8981473e-45
0
0
-1.519941e-28
-2.8137158e-41
5.6245516e-41
1.9515332e-56
4.053176e-28
-1.013294e-28
1.013294e-28
0
-1.519941e-28
2.1102868e-41
-1.519941e-28
0
0
-5.06647e-29
-1.0379396e-56
-1.4636499e-56
1.3684555e-42
5.06647e-29
-3.5099449e-41
7.0342895e-42
1.4061379e-41
-1.519941e-28
3.039882e-28
-5.6274316e-41
5.6303115e-41
-2.8151558e-41
1.519941e-28
-2.026588e-28
5.6274316e-41
-2.8194757e-41
0
-5.06647e-29
1.519941e-28
7.0342895e-42
2.6193036e-60
9.7764982e-55
-7.0414894e-42
-1.013294e-28
1.013294e-28
1.519941e-28
-2.533235e-28
-5.06647e-29
0
-1.331502e-41
-1.519941e-28
0
5.06647e-29
1.4068579e-41
1.4399774e-44
2.1081269e-41
-2.533235e-28
4.053176e-28
2.1081269e-41
-1.4068579e-41
-3.546529e-28
-3.039882e-28
4.053176e-28
-2.8799547e-44
-1.0001757e-54
5.06647e-29
-2.026588e-28
4.2205737e-41
3.039882e-28
0
0
0
-7.4641321e-42
-1.519941e-28
5.06647e-29
-5.5114215e-43
0
-5.06647e-29
5.06647e-29
-1.013294e-28
-5.06647e-29
0
-1.519941e-28
-3.039882e-28
1.013294e-28
-2.8137158e-41
1.519941e-28
0
0
0
0
-1.519941e-28
1.0720226e-68
1.519941e-28
-2.026588e-28
-7.0342895e-42
-7.0414894e-42
1.4636499e-56
-1.013294e-28
5.5593506e-43
1.013294e-28
3.5171447e-41
-4.9189627e-41
1.013294e-28
0
-1.013294e-28
-2.026588e-28
2.026588e-28
1.4054179e-41
1.013294e-28
0
0
1.519941e-28
-2.1081269e-41
-3.039882e-28
0
2.026588e-28
2.1599661e-44
-4.2205737e-41
7.3968865e-55
2.026588e-28
-3.546529e-28
2.1599661e-44
2.8137158e-41
-1.3433857e-42
6.1418327e-43
-1.4068579e-41
7.1998869e-45
-7.0342895e-42
1.013294e-28
-1.519941e-28
0
1.5401884e-53
-7.0270896e-42
-4.2162538e-41
7.1998869e-45
5.06647e-29
2.026588e-28
7.806133e-56
2.1102868e-41
-5.6274316e-41
4.2205737e-41
-3.2681048e-41
-3.546529e-28
-4.559823e-28
-2.1102868e-41
-2.1102868e-41
-3.3975462e-42
-2.026588e-28
-2.533235e-28
1.4636499e-56
0
-1.4636499e-56
-6.212173e-42
5.06647e-29
-1.2923727e-69
-4.2162538e-41
-3.5999434e-44
-3.039882e-28
3.039882e-28
-2.8137158e-41
-5.06647e-29
-7.0270896e-42
7.0270896e-42
1.519941e-28
-1.519941e-28
3.9030665e-56
-6.3330205e-41
1.4075779e-41
-5.6245516e-41
-2.8137158e-41
-4.8788331e-57
0
5.06647e-29
0
0
1.3643127e-41
-1.4068579e-41
-7.4837412e-43
0
0
2.026588e-28
3.4677243e-53
1.013294e-28
-5.06647e-29
1.4399774e-44
1.7218427e-55
-5.06647e-29
0
0
0
3.039882e-28
2.8108358e-41
1.519941e-28
0
0
-1.519941e-28
-1.9496261e-56
-1.519941e-28
0
0
2.026588e-28
7.0270896e-41
4.2227337e-41
2.8137158e-41
5.06647e-29
1.013294e-28
-1.4061379e-41
2.8122758e-41
-4.2162538e-41
-1.013294e-28
0
0
-5.06647e-29
-4.8788331e-55
-1.519941e-28
0
0
1.519941e-28
-7.806133e-56
1.4067081e-41
0
0
-1.519941e-28
-2.1207659e-68
-5.06647e-29
0
0
5.06647e-29
1.4399774e-44
1.013294e-28
-1.519941e-28
1.4075779e-41
2.8151558e-41
-2.8137158e-41
5.06647e-29
0
0
0
0
0
4.053176e-28
-2.8122758e-41
-1.013294e-28
0
0
0
0
0
0
0
-1.013294e-28
1.6279083e-53
1.013294e-28
0
0
0
0
0
0
0
1.013294e-28
-5.6245516e-41
-1.519941e-28
0
0
-1.519941e-28
7.0378894e-41
1.519941e-28
0
0
0
1.2593345e-42
2.8151558e-41
-5.06647e-29
0
0
0
0
0
0
0
-6.8422777e-43
-7.1998869e-45
-3.039882e-28
0
0
0
0
0
0
0
1.519941e-28
-7.1998869e-45
3.039882e-28
0
0
0
2.026588e-28
-1.9690971e-40
-1.013294e-28
0
-3.0101318e-41
1.4075779e-41
-5.06647e-29
0
0
-1.013294e-28
-1.013294e-28
1.519941e-28
-1.519941e-28
0
0
0
0
-5.06647e-29
7.1998869e-45
-1.013294e-28
1.1524239e-42
-5.06647e-28
-4.053176e-28
5.06647e-29
2.026588e-28
0
0
0
0
1.013294e-28
2.8151558e-41
1.013294e-28
0
0
0
0
0
0
0
0
0
0
0
0
0
0
5.06647e-29
-1.4068579e-40
-2.533235e-28
0
0
-2.026588e-28
5.6274316e-41
-2.1599661e-44
-5.06647e-29
-5.06647e-29
2.8129958e-41
-1.4075779e-41
1.3907821e-41
0
0
0
0
0
-1.519941e-28
1.1251983e-40
2.026588e-28
0
0
0
0
0
0
0
-1.2718747e-43
2.8122758e-41
-5.06647e-29
0
0
0
0
0
0
0
5.06647e-29
3.537323e-53
-1.013294e-28
0
0
0
0
0
0
0
0
1.013294e-28
-2.1599661e-44
-1.519941e-28
0
0
0
0
1.519941e-28
5.06647e-29
-1.013294e-28
3.039882e-28
-2.8137158e-41
2.533235e-28
0
0
0
0
5.06647e-29
-1.4061379e-41
5.6555879e-41
-1.013294e-28
-1.4527902e-41
1.013294e-28
0
0
0
2.533235e-28
4.2162538e-41
-2.533235e-28
-3.039882e-28
5.06647e-29
-1.519941e-28
1.013294e-28
0
0
-2.1971932e-43
-4.218355e-41
2.026588e-28
2.026588e-28
1.013294e-28
5.6274316e-41
-5.06647e-29
0
0
0
-5.06647e-29
-1.013294e-28
-5.06647e-29
1.3788009e-41
-1.519941e-28
-1.1249103e-40
5.06647e-29
0
0
0
-1.013294e-28
4.2184137e-41
5.06647e-29
0
0
0
0
0
0
0
-2.026588e-28
8.4368274e-41
2.026588e-28
-1.4068579e-41
2.7940618e-41
0
0
2.533235e-28
-1.4399774e-44
-2.8137158e-41
4.2184137e-41
5.06647e-29
2.026588e-28
-7.0342895e-41
-5.5593506e-43
0
0
-1.519941e-28
1.2657401e-40
4.2184137e-41
-4.3199321e-44
2.533235e-28
-5.06647e-29
0
-1.5435567e-55
-2.8108358e-41
-1.519941e-28
1.013294e-28
0
-3.039882e-28
-7.0378894e-41
2.026588e-28
0
-5.06647e-29
1.519941e-28
-3.9381941e-40
-3.546529e-28
1.519941e-28
0
-5.06647e-29
0
1.013294e-28
0
5.06647e-29
1.013294e-28
2.8108358e-41
1.519941e-28
-5.06647e-29
0
5.5338203e-41
-8.1581174e-54
-3.039882e-28
0
1.013294e-28
-1.013294e-28
4.3199321e-44
-5.06647e-29
2.026588e-28
0
3.0045488e-43
1.519941e-28
-1.013294e-28
-1.013294e-28
5.06647e-29
-5.06647e-29
-1.013294e-28
2.026588e-28
0
0
0
0
0
0
-5.06647e-29
-1.4636499e-56
-4.053176e-28
2.026588e-28
1.519941e-28
-5.06647e-29
0
0
-1.013294e-28
2.533235e-28
-2.533235e-28
-1.0101244e-43
0
-5.06647e-29
-2.8151558e-41
1.013294e-28
0
0
2.026588e-28
3.039882e-28
-1.519941e-28
1.519941e-28
0
-1.013294e-28
1.4068579e-41
5.06647e-29
-1.1796295e-44
1.1254863e-40
2.8799547e-44
1.013294e-28
-1.519941e-28
-2.026588e-28
0
0
-1.519941e-28
8.4368274e-41
2.533235e-28
0
-1.3761834e-41
5.06647e-29
2.4589435e-43
1.519941e-28
0
0
0
0
0
0
-5.06647e-29
-1.4061379e-41
-1.519941e-28
0
0
0
0
0
0
-1.013294e-28
-2.4394166e-56
-2.533235e-28
-2.533235e-28
-4.2162538e-41
0
0
0
0
0
2.026588e-28
4.2184137e-41
-1.013294e-28
5.06647e-29
1.519941e-28
-5.06647e-29
-2.8122758e-41
4.2191337e-41
8.4353875e-41
-1.4075779e-41
-2.8137158e-41
-1.4061379e-41
8.4343507e-41
0
-2.533235e-28
2.5310482e-40
-4.3199321e-44
-4.053176e-28
2.533235e-28
2.026588e-28
-2.7875367e-41
-2.8122758e-41
8.4339475e-41
1.4064979e-40
1.4054179e-40
-4.2162538e-41
8.4368274e-41
2.026588e-28
-2.026588e-28
-1.519941e-28
1.013294e-28
-4.2162538e-41
1.1249103e-40
2.8122758e-41
-7.0342895e-41
-2.8108358e-41
2.8122758e-41
-1.4049387e-41
0
1.3944687e-41
1.4061379e-41
-3.9030665e-56
-1.519941e-28
0
-3.039882e-28
2.533235e-28
-5.06647e-29
2.026588e-28
0
0
0
0
1.519941e-28
3.9105993e-54
2.8129958e-41
-2.533235e-28
-2.026588e-28
5.06647e-29
0
0
0
0
1.013294e-28
5.0399208e-44
-2.026588e-28
0
0
0
0
0
0
0
-5.06647e-29
-1.9243906e-43
-1.2829271e-43
1.519941e-28
0
0
0
0
0
0
1.013294e-28
-5.06647e-29
5.06647e-29
5.06647e-29
0
0
0
0
0
0
-5.06647e-29
-2.026588e-28
4.053176e-28
3.546529e-28
0
0
0
0
0
0
-2.533235e-28
1.1251983e-40
1.013294e-28
0
0
0
0
0
0
-1.519941e-28
-2.8137158e-41
-5.06647e-29
0
0
0
0
-1.013294e-28
-3.9031552e-56
-5.06647e-29
-1.013294e-28
9.7576662e-57
3.039882e-28
-1.519941e-28
8.4411474e-41
2.533235e-28
-2.026588e-28
-8.4389874e-41
-5.6259916e-41
1.5612266e-55
-8.4368274e-41
-2.8108358e-41
-5.6148513e-41
-4.2189448e-41
-1.519941e-28
1.013294e-28
5.6216717e-41
1.128102e-40
0
1.013294e-28
-1.4068579e-41
-3.8868376e-54
4.2176937e-41
3.56061e-56
2.8108358e-41
-8.4368274e-41
2.8115558e-41
-1.4075779e-41
5.06647e-29
0
5.06647e-29
3.5999434e-44
2.1088469e-40
1.6873655e-40
-3.5999434e-44
-2.8122758e-41
1.4068579e-41
-5.6405099e-41
0
-5.06647e-29
1.4061379e-40
4.3199321e-44
-5.06647e-28
0
2.026588e-28
-1.519941e-28
-3.039882e-28
5.06647e-28
0
0
1.1146234e-27
-1.4625706e-39
7.3081732e-40
-7.0324895e-40
3.5189447e-40
-1.3172822e-27
-1.4692763e-27
1.7225998e-27
0
0
0
0
3.546529e-27
1.1254863e-39
5.1745875e-39
-5.4717876e-27
-6.1810934e-27
6.9410639e-27
0
0
0
0
1.2463516e-26
1.4135451e-26
-1.595938e-26
-1.7985968e-26
0
0
0
0
0
0
4.139306e-26
4.6408865e-26
-5.2032647e-26
-5.8568393e-26
0
0
0
0
0
0
1.3172822e-25
-1.2286117e-37
-3.3043517e-25
1.8538214e-25
6.2834361e-25
2.3741478e-25
0
-5.9642485e-25
3.7047155e-37
1.2414576e-36
4.1686915e-25
9.3324377e-25
-1.0439968e-24
5.8365734e-25
6.5240934e-25
-7.2921702e-25
8.1509369e-25
-1.2944677e-40
-1.0176512e-24
-1.1363586e-24
1.2687454e-24
1.416585e-24
-1.580992e-24
1.7639422e-24
2.7962201e-40
-2.1943388e-24
0
0
0
-6.7707291e-24
3.7705683e-24
8.3972687e-24
-4.6739199e-24
5.2015927e-24
5.7874287e-24
-1.2875116e-23
2.9241774e-52
7.9592723e-24
-8.8463099e-24
-1.965993e-23
-1.0919965e-23
3.6381764e-23
-1.3465056e-23
8.0955063e-51
4.975998e-23
-3.6803142e-23
-2.0409514e-23
-2.2630705e-23
-5.0173657e-23
5.5604204e-23
3.0803175e-23
3.4118977e-23
-3.7781832e-23
-4.1826598e-23
1.3887518e-22
-5.1219732e-23
-5.6657016e-23
6.2654856e-23
6.9268727e-23
1.0879821e-38
-2.5378728e-22
9.3449569e-23
-1.7182505e-34
1.8976921e-34
3.772869e-22
-1.3877249e-22
-1.5308663e-22
-3.3766128e-22
1.8614236e-22
4.1034556e-22
-4.5217292e-22
2.4906255e-22
-2.7429737e-22
-3.0200523e-22
9.972573e-22
-3.6579326e-22
-4.0240575e-22
8.8511849e-22
4.8658256e-22
-5.3483446e-22
-1.7631176e-21
6.4562154e-22
2.8361767e-21
-4.3211366e-34
-1.7089302e-21
-9.3760418e-22
0
-2.2559458e-21
-2.7454208e-33
4.0663269e-21
-1.4852015e-21
3.6122456e-33
-1.7816369e-21
-1.9505103e-21
4.2695458e-21
0
0
0
3.0542516e-21
-1.8532771e-33
-7.2937638e-21
3.9832663e-21
8.6988035e-21
-1.4243386e-20
1.7255604e-32
1.1304796e-20
-6.1646796e-21
0
0
0
-1.73925e-20
9.4703e-21
2.0620324e-20
-3.3663425e-20
3.4699908e-36
2.6559414e-20
0
0
1.705818e-20
-1.028919e-32
-4.0253207e-20
2.1851997e-20
4.7436128e-20
-7.7206846e-20
4.6478957e-32
6.0544646e-20
-3.2817168e-20
3.5564983e-20
-7.7061949e-20
-4.1731403e-20
1.5046931e-31
4.890629e-20
1.0583832e-19
-1.7173029e-19
3.5187046e-35
6.6918095e-20
-4.0142152e-32
7.8129722e-20
8.4381547e-20
-5.057012e-32
-2.9499826e-19
3.0155555e-35
3.43336e-19
-2.4681455e-19
2.3022962e-47
2.8670823e-19
-1.5443165e-19
1.6631178e-19
-3.5809646e-19
-1.9269792e-19
4.6037502e-31
2.2298202e-19
4.7949608e-19
2.5769091e-19
2.7688643e-19
-8.9224414e-19
0
3.4281315e-19
2.0419427e-31
-2.1904544e-31
2.3483909e-31
-4.5366256e-19
5.3972838e-31
-5.2084501e-19
1.8577333e-30
1.7915432e-18
-1.2782543e-18
-2.0513714e-18
-7.3132946e-19
2.3457315e-18
1.6714163e-18
-2.6787168e-18
9.5369489e-19
3.0548318e-18
0
0
-1.2369404e-18
-1.3189033e-18
0
1.4979396e-18
1.5955516e-18
-3.3978762e-18
4.0151939e-30
5.7727321e-18
-2.272259e-30
-2.1764042e-18
-2.3134082e-18
-2.4581775e-18
2.6110919e-18
2.7725456e-18
-2.9429477e-18
-9.3681676e-18
3.3123097e-18
1.4048658e-17
-3.7227582e-18
-7.8891564e-18
-4.1781283e-18
0
4.6825164e-18
0
5.2402865e-18
-5.5406278e-18
1.3002265e-29
-6.1872484e-18
2.1763829e-29
2.0698064e-17
-7.281617e-18
-7.6822679e-18
8.1020148e-18
8.5415821e-18
-9.0017105e-18
-2.8449471e-17
9.9866943e-18
4.2052443e-17
-1.8425911e-29
-1.163781e-17
-2.4475486e-17
-1.2863854e-17
2.7034006e-17
7.8810018e-30
2.1185409e-33
-1.5647437e-17
3.6451962e-29
1.7219171e-17
-5.4159618e-17
2.1004727e-29
3.9644494e-17
0
0
2.2742295e-17
-1.3205524e-29
-4.9755312e-17
2.6004767e-17
5.4345508e-17
2.8382551e-17
-3.2891029e-29
-9.2793861e-17
-3.227206e-17
3.3658308e-17
-7.0181841e-17
2.0788077e-32
1.2689693e-28
3.9675602e-17
8.2604484e-17
-1.2893832e-16
4.9645344e-29
9.2977151e-17
0
0
-1.0429996e-16
1.2022024e-28
6.2371361e-29
1.6571085e-32
1.8140403e-16
1.2537731e-16
-1.0820283e-28
-2.0190763e-16
-6.969654e-17
7.2149e-17
-1.4932037e-16
-8.5715423e-29
2.6594592e-28
8.2547949e-17
1.7059129e-16
-2.6430783e-16
9.0968795e-17
9.3894096e-17
-9.6878348e-17
9.9921331e-17
-2.0604553e-16
1.1787851e-28
1.0939959e-16
1.6011956e-32
2.3201081e-16
-2.3878572e-16
2.0451478e-28
2.5266738e-16
-1.2988561e-16
0
1.3714842e-16
7.8166601e-29
-4.3385121e-16
1.4842607e-16
3.0456683e-16
1.5618793e-16
1.6013843e-16
-1.6413362e-16
-1.6817221e-16
-1.7225281e-16
1.7637402e-16
-1.002103e-28
1.0251424e-28
-1.8896641e-16
2.1457508e-28
-1.9753632e-16
6.7231529e-28
6.1869245e-16
-4.2124094e-16
1.6911153e-45
2.1947567e-16
2.4857288e-28
-1.2682279e-28
-6.9876133e-16
2.3743765e-16
7.2590827e-16
0
0
-2.5563242e-16
-2.6020264e-16
-5.2955485e-16
2.6935474e-16
5.4786506e-16
-5.5701752e-16
2.8308136e-16
8.629448e-16
-2.9220743e-16
-2.9675678e-16
-3.0129428e-16
-3.0581786e-16
6.2065095e-16
3.148151e-16
-3.1928469e-16
-9.7119673e-16
3.2815574e-16
-2.2312608e-44
5.6095725e-28
6.8252421e-16
-6.9113927e-16
-6.9968663e-16
3.5408123e-16
7.1656299e-16
-7.2488449e-16
-3.6656163e-16
1.1119135e-15
1.1240071e-15
-3.7865348e-16
-7.6517882e-16
-3.8647509e-16
2.1665106e-28
7.8817787e-16
3.9781376e-16
-4.0148168e-16
-8.1018221e-16
5.80713e-32
8.2425633e-16
-8.3110548e-16
6.9770416e-28
8.4441303e-16
-4.2543281e-16
-8.5718029e-16
-8.6335429e-16
0
4.3763472e-16
1.3215079e-15
4.4329495e-16
-4.4601039e-16
0
0
0
0
4.5839234e-16
-2.5567999e-28
-1.3882978e-15
4.6482427e-16
1.4003867e-15
4.6867884e-16
-7.8357866e-28
-9.4435473e-16
-4.7379073e-16
4.7531228e-16
-9.5348225e-16
-4.7807639e-16
1.5964812e-27
4.8046288e-16
9.6302498e-16
-1.4473959e-15
1.3736797e-31
4.8407762e-16
-6.8885085e-32
4.8529414e-16
4.8575231e-16
-5.3965552e-28
-1.4590962e-15
1.3827706e-31
1.4597096e-15
9.730275e-16
-2.698227e-28
-9.7215944e-16
-4.8570512e-16
4.8522536e-16
-9.6928024e-16
-4.8394902e-16
1.6089784e-27
4.8224816e-16
9.6247585e-16
-1.4403627e-15
5.3178447e-28
4.7756589e-16
4.7612776e-16
4.7458249e-16
2.6237774e-28
-2.614686e-28
-9.3860885e-16
-2.5933801e-28
9.3050364e-16
-9.2613203e-16
2.3020137e-27
1.3751312e-15
-9.1174954e-16
5.0332507e-28
9.0111405e-16
-4.477428e-16
-4.4482591e-16
-8.8361425e-16
4.386873e-16
1.306402e-15
0
0
0
-1.2648208e-15
-1.2537079e-15
1.2423157e-15
1.2306488e-15
-8.1247452e-16
1.1430354e-31
-3.9801574e-16
1.31168e-27
1.1683644e-15
-1.1551556e-15
1.901532e-27
7.520229e-16
2.0609044e-28
-2.0358358e-28
-7.2379656e-16
3.5705622e-16
-3.521496e-16
1.1564688e-27
1.0264609e-15
-1.0112097e-15
-3.3193295e-16
7.25475e-28
-6.4302315e-16
6.3246689e-16
3.1091467e-16
3.055586e-16
9.0050582e-16
-3.2721524e-28
-2.8930075e-16
-8.5148987e-16
1.8539942e-27
8.1849811e-16
0
-2.6178576e-16
-5.1250595e-16
2.50719e-16
-2.4518761e-16
7.9818575e-28
4.6829552e-16
-6.8594061e-16
4.954278e-28
2.4180603e-28
2.3564692e-28
2.296436e-28
-2.0148267e-16
5.8843091e-16
5.7253277e-16
-1.8558799e-16
-3.607565e-16
0
1.7011156e-16
-1.8319589e-28
3.5540346e-28
-1.7222976e-28
-1.5027675e-16
1.454806e-16
1.4075486e-16
-4.0830596e-16
-2.3686846e-44
2.1156028e-28
-1.2260347e-16
1.3122405e-28
-2.2801647e-16
2.1967423e-16
2.115047e-16
1.017553e-16
-1.086113e-28
-9.4028924e-17
0
0
0
-1.5934159e-16
7.6312486e-17
1.4609433e-16
-2.0962444e-16
6.6795295e-17
1.9142497e-16
-1.8274048e-16
1.935336e-28
1.1079582e-16
-1.5832713e-16
-1.0048546e-16
0
9.0880594e-17
1.4375858e-28
4.098131e-17
7.7754567e-17
-3.6854974e-17
0
-6.6098464e-17
-8.88534e-33
-3.2806037e-29
2.7912742e-17
7.9038244e-17
-7.4547339e-17
3.9019498e-29
6.6169939e-17
-6.2271898e-17
9.7532166e-29
3.6685312e-17
-1.7223432e-17
1.6160334e-17
-3.0302792e-17
-1.4194694e-17
5.9008048e-29
1.2430252e-17
2.3237452e-17
1.0851826e-17
1.0127728e-17
-1.8889233e-17
-8.8007421e-18
0
7.6237707e-18
-3.9350179e-30
-9.4000167e-47
-6.1105013e-18
1.6106601e-33
-5.25149e-18
-8.6920031e-46
1.3496068e-17
-1.2476077e-17
-1.1523677e-17
7.0901128e-18
6.5379684e-18
0
-5.5452833e-18
2.5502067e-18
7.0307666e-18
-6.4554556e-18
3.2877022e-30
3.6184461e-18
-1.6566974e-18
0
1.3852768e-18
1.264927e-18
-1.1539121e-18
1.7511679e-30
-1.9148431e-18
-4.9498461e-34
2.3735799e-18
0
-1.9534335e-18
-1.1795963e-18
1.6010659e-18
9.6488618e-19
-1.3070798e-18
-3.9312815e-19
1.4176945e-18
3.1930311e-19
-5.7498727e-19
-5.174918e-19
2.5848975e-31
2.0954271e-19
1.8866269e-19
1.6999923e-19
-1.5337896e-19
1.5389913e-31
-2.5116639e-19
3.8005868e-31
3.1329945e-19
0
0
-1.740368e-19
2.0254349e-31
9.5213381e-20
-2.7209273e-19
9.0743326e-20
1.7091814e-31
3.5725841e-31
2.8282501e-19
-8.6316156e-20
5.3385329e-32
-1.1621317e-31
-9.3784593e-20
7.5589395e-20
-1.092219e-35
5.0372747e-32
-9.7323665e-32
-6.5652278e-20
0
8.0605545e-20
-1.6543295e-19
-5.9994941e-20
1.1400748e-19
0
-9.0949146e-20
7.2403213e-20
1.4018473e-19
-2.7732053e-19
3.3694726e-31
2.8602196e-31
-8.1064007e-20
2.9102995e-19
-1.4921126e-35
-9.1524437e-20
-8.0725865e-20
8.882025e-20
9.6499247e-20
-8.618157e-20
0
7.6574303e-20
-1.7301001e-19
1.3671014e-31
6.6716854e-20
1.4020387e-31
1.642386e-31
2.2623019e-35
1.3874374e-19
-1.7130145e-19
-1.7070265e-19
0
1.15902e-19
1.4989536e-19
7.4363502e-36
-5.9940717e-20
-5.7552018e-20
5.1464823e-20
5.5762673e-20
-6.2255533e-20
0
-1.0960058e-19
-1.2654257e-19
2.0337888e-19
5.6765808e-20
-4.6886651e-20
1.6575152e-35
7.9716628e-20
1.6321676e-19
6.0355954e-20
-8.241459e-32
-2.3283572e-19
2.0919063e-31
1.5639157e-19
-4.4001199e-20
-5.0178439e-20
-5.4976117e-20
4.7752659e-20
3.9137997e-20
4.2886002e-20
1.5269174e-35
-5.6229071e-20
4.61149e-20
-1.1256867e-19
-7.4878229e-20
1.1705383e-19
-3.6102666e-20
-5.9819557e-20
5.0498501e-20
-2.354158e-20
2.4205631e-20
5.4727716e-20
-1.06083e-19
4.6882713e-20
-1.7735802e-31
-1.4745079e-19
8.8621994e-20
4.8484152e-20
5.6193008e-20
1.1623301e-19
-5.9846167e-20
4.335109e-74
-1.2588028e-19
-5.1777608e-20
5.1946348e-32
5.1929534e-20
1.0067299e-19
-7.1592802e-20
2.8228259e-20
9.093686e-20
-9.5511873e-20
-3.2586867e-20
6.3777893e-47
-1.2882177e-20
6.7219778e-21
4.701899e-21
-8.1774716e-21
-1.1018865e-20
1.1956444e-21
2.1484458e-23
2.7041456e-33
3.9562851e-21
-9.3475293e-21
-4.900444e-33
2.6522802e-32
-1.6731634e-32
1.8449215e-20
-2.2330203e-20
1.286717e-20
5.8353502e-20
-1.672958e-20
-3.7020762e-20
0
-3.6751248e-20
4.0154216e-32
1.1594845e-35
2.5844546e-32
2.5542448e-20
2.5737888e-20
-2.6827793e-20
-3.1200634e-20
6.7805126e-20
-7.0524491e-20
4.0752075e-32
7.5783742e-20
-6.8516452e-20
-1.009718e-31
3.5404544e-32
3.5122536e-20
6.7850584e-20
-2.7080954e-20
2.1266941e-20
-1.0441127e-32
-1.7032204e-20
-2.7067085e-20
1.086491e-20
1.5700397e-20
-2.1379593e-21
-3.5177675e-21
1.0837712e-32
-7.2898138e-21
-1.7024145e-32
1.4327394e-20
1.3691054e-20
1.7342513e-32
-1.9315983e-32
1.3892026e-32
-5.9607039e-21
-6.3245776e-21
-4.2527634e-21
2.1807124e-21
0
0
4.1097763e-22
-1.2863485e-33
-1.6569122e-37
-6.4540215e-34
-2.6366379e-22
0
-1.6341984e-21
-5.8303582e-21
3.7566767e-21
8.0767947e-21
7.7279772e-21
6.813707e-21
-1.2270287e-20
-1.2358511e-32
8.257881e-21
-6.0386388e-21
-5.6760249e-21
0
-2.3714854e-21
6.8412119e-21
3.6585702e-21
-2.3329183e-21
7.9123113e-22
-2.142612e-34
4.4326421e-21
-2.8647236e-21
-9.6803103e-21
8.5862008e-21
2.4151594e-21
-6.0678339e-21
1.9613786e-33
1.6874398e-21
3.5388501e-21
1.8940663e-33
-3.528334e-21
5.8778452e-21
-4.8284545e-21
-1.8032475e-20
0
5.9428523e-21
1.4156799e-20
-5.1915898e-33
1.0557428e-20
2.095566e-20
-2.3408431e-20
-2.8232402e-20
0
-1.2849037e-20
-1.5461279e-32
-1.7472486e-32
-1.9493411e-32
5.597111e-20
3.3995456e-20
0
-3.5913547e-20
-3.6937863e-32
-1.5651249e-20
-4.9468117e-20
1.7764509e-20
-9.8422633e-33
2.2589013e-36
1.4656906e-20
2.9617532e-20
-1.4644442e-20
-2.5199497e-20
1.1385411e-20
0
2.4463406e-20
-9.8642676e-21
-2.3876042e-20
8.4989797e-21
9.538774e-21
1.9249774e-20
-8.9557221e-21
-2.6387253e-20
9.1228615e-21
-1.0372409e-32
-1.8058804e-20
8.511593e-21
8.3567296e-21
1.7474517e-20
2.8281358e-20
-1.975603e-20
-2.0027594e-20
2.0610904e-20
1.1752708e-32
-2.1082935e-20
2.193295e-20
1.3216598e-32
-2.5302453e-20
0
2.3051857e-20
2.34224e-20
0
-4.215524e-20
-1.446393e-20
-4.1750048e-36
-1.452784e-20
-1.3846226e-20
-1.4819596e-32
2.7238838e-20
2.8024379e-20
-4.6663773e-32
-2.7114805e-20
2.4786252e-20
4.0039784e-32
-2.4898546e-20
0
0
0
0
2.0658481e-20
1.1263743e-32
-1.9164884e-20
-8.7706797e-21
1.682038e-20
-2.8026343e-32
-1.6463334e-20
1.5114698e-20
7.4480413e-33
-6.3157115e-21
1.2849993e-20
-2.1765927e-32
-1.2537608e-20
1.1655681e-20
1.1129509e-20
-1.1487358e-20
-1.2264879e-20
0
0
0
0
-6.2906298e-21
6.8974767e-21
7.19008e-21
-7.9730856e-33
-1.0936344e-75
-7.3788414e-21
-1.6036232e-20
-8.6309037e-21
1.8025178e-20
2.7467408e-20
-9.0830481e-21
-1.8569924e-20
2.9706643e-20
2.1037759e-20
-3.2069339e-20
-2.1051288e-20
-1.0125951e-20
-1.1225143e-32
2.1350616e-20
0
-1.1223199e-20
1.1146813e-20
-2.441553e-32
-3.005304e-36
-3.4330639e-32
-1.0484075e-20
-1.0486586e-20
2.8581136e-36
1.9263813e-20
1.8802647e-20
-3.1037074e-32
-1.8064306e-20
0
0
0
-7.8554123e-21
-7.4254806e-21
6.7582962e-21
6.4183722e-21
-6.4036871e-21
1.2733345e-20
1.8172215e-20
0
-1.0745433e-20
-5.8865793e-33
-5.202726e-21
-1.4969223e-20
4.7873283e-21
-7.7943797e-33
9.2055549e-21
-2.9422181e-32
-8.4773099e-21
-2.4122819e-33
-6.5988421e-37
4.827102e-21
-4.7293623e-21
8.8635415e-21
4.2109552e-21
-8.7140146e-21
9.5839993e-21
1.4828248e-36
-6.0931104e-33
-5.6205039e-21
-1.6955126e-20
1.1381142e-20
-3.063248e-50
6.1236451e-21
-1.0687076e-32
-1.3200478e-20
6.6874981e-21
1.3848717e-20
-8.1040982e-33
-2.2863942e-20
2.1792876e-36
7.5275336e-21
-7.5737038e-21
1.5873829e-20
8.3846199e-21
-1.7329542e-20
1.7475379e-20
9.660381e-33
-4.8380116e-32
1.942108e-32
-1.7506797e-20
1.7360098e-20
-8.4209828e-21
-1.6832662e-20
8.7531142e-21
-8.9350678e-21
1.7780568e-20
-1.4529126e-32
-2.5565114e-20
0
0
2.484852e-20
8.2108874e-21
-1.6107996e-20
1.5654119e-20
4.3403923e-36
-3.3059475e-32
-7.9211649e-33
-1.3971604e-20
1.4161583e-20
1.4267389e-20
-7.0243497e-21
-2.0350759e-20
-6.4888094e-21
6.3790949e-21
0
0
-6.5517551e-21
3.5372121e-33
1.8869197e-20
1.8118835e-36
-1.303432e-20
-6.5722682e-21
7.1936768e-33
1.8903557e-20
1.396634e-32
-1.3020873e-20
0
-6.8070147e-21
1.3540457e-20
6.6643632e-21
-1.4849097e-32
-6.8665867e-21
-1.4117726e-20
7.1170198e-21
0
0
0
0
-7.0900543e-21
3.8706907e-33
2.0740374e-20
-6.9719545e-21
-2.0818151e-20
2.0288568e-20
6.5850864e-21
-1.3044633e-20
-6.4975652e-21
-1.0611759e-32
1.8434221e-20
-3.3199688e-36
-1.8890244e-32
-5.6501786e-21
-1.1178477e-20
-5.359977e-21
-5.5865675e-33
4.7875422e-21
4.6578341e-21
4.5324222e-21
4.3041772e-21
-8.8177062e-33
-7.2745502e-21
0
0
-3.2939042e-21
-5.2818725e-33
-4.2159457e-37
3.8141724e-37
2.3885098e-21
4.3529478e-21
4.250401e-21
-4.3301609e-21
-2.4199423e-33
-2.0817935e-21
-5.5662382e-21
0
0
1.5585687e-21
1.6942567e-21
0
-1.807542e-21
9.3918625e-34
1.5711392e-21
-1.5739872e-21
3.4342269e-21
-6.3984978e-33
-6.1764403e-21
2.072332e-21
2.0367115e-21
4.1575349e-21
-2.2456715e-21
-7.4194097e-21
2.6675121e-21
-1.5487318e-33
5.6934268e-21
2.863706e-21
-5.7929621e-21
5.9674684e-21
-3.7921967e-49
-6.7649174e-21
0
0
7.258043e-21
-3.9786303e-33
-1.2165996e-32
-3.0398491e-49
-1.2013938e-20
-4.5394138e-33
4.0548705e-21
7.9802006e-21
7.9844032e-21
-8.1311201e-21
-9.1801442e-33
-4.1081576e-21
-1.3391378e-32
3.9379548e-21
-7.82694e-21
0
-3.9061103e-21
4.2208208e-33
3.6704251e-21
7.1232006e-21
3.8446275e-33
-6.7301568e-21
0
0
-3.0511536e-21
1.6083454e-33
8.1906968e-21
2.8825269e-33
-4.9710347e-21
0
2.2132585e-21
-2.0701678e-21
-1.9738934e-21
-1.8900792e-21
-1.7597479e-21
3.2245382e-21
4.5399115e-21
-1.46451e-21
-2.8206714e-21
3.9243502e-21
1.7099513e-50
-2.4019853e-21
0
0
0
0
2.0067997e-21
2.289645e-21
-1.3070733e-21
-4.1392769e-21
-1.4801702e-33
1.2656627e-21
-2.6194445e-21
-2.9777778e-21
1.7197149e-21
7.6282495e-21
4.0074221e-21
-6.0872657e-21
-4.1641035e-21
6.643022e-21
5.3411891e-33
-5.2477874e-21
0
0
0
6.6069478e-21
3.7610414e-33
-7.7030382e-33
3.5744537e-21
-1.1243433e-20
4.0066302e-21
4.2135034e-21
-1.2906592e-20
-8.6808015e-21
4.3513902e-21
8.8724391e-21
9.2927253e-21
-1.616841e-32
5.4829825e-33
-1.4049871e-36
-9.8504148e-21
0
-5.0447671e-21
-5.1365089e-21
5.1583821e-21
5.1021859e-21
-5.0592055e-21
-5.104923e-21
1.027348e-20
5.0855245e-21
-4.9920212e-21
4.8911709e-21
-4.8595094e-21
-9.6107164e-21
0
0
1.3309554e-20
4.4718163e-21
-8.7851087e-21
-4.196984e-21
-4.0131881e-21
7.816986e-21
-4.290416e-33
-7.4697837e-21
0
3.3275946e-21
9.7318855e-21
7.1267984e-33
-1.7341356e-32
5.8676721e-21
-8.1036365e-21
-2.5578618e-21
-7.1479742e-37
2.4833121e-21
-3.9772447e-33
-3.6963229e-33
6.1291939e-21
-5.8240648e-21
9.506043e-33
-3.0956906e-33
-3.5156476e-21
1.6326863e-21
-1.5454347e-21
3.030012e-21
1.4996265e-21
-2.8815771e-21
2.6474523e-21
-6.9158946e-37
-9.1782544e-33
-6.7890777e-37
-7.9958402e-33
2.3259496e-21
-3.3032787e-21
-7.0203302e-33
3.0793412e-21
-1.9889149e-21
-1.8893445e-21
1.8141126e-21
-3.0351798e-33
-2.8132075e-21
1.0267723e-33
2.4995802e-21
-4.1718344e-37
-1.4166132e-21
1.4957488e-21
2.6352353e-33
-2.5325824e-33
7.0323431e-34
-1.0124082e-21
9.4091765e-22
1.0270021e-21
0
-1.6466042e-21
-9.0959292e-22
9.9679213e-22