/*--------------------------------*- C++ -*----------------------------------*\
  =========                 |
  \\      /  F ield         | OpenFOAM: The Open Source CFD Toolbox
   \\    /   O peration     | Website:  https://openfoam.org
    \\  /    A nd           | Version:  7
     \\/     M anipulation  |
\*---------------------------------------------------------------------------*/
FoamFile
{
    version     2.0;
    format      ascii;
    class       volScalarField;
    location    "0.00131";
    object      Ux;
}
// * * * * * * * * * * * * * * * * * * * * * * * * * * * * * * * * * * * * * //

dimensions      [0 1 -1 0 0 0 0];

internalField   nonuniform List<scalar> 
5000
(
0.00029670914
0.0011076823
0.0015934504
0.0021297925
0.0026679785
0.0032102166
0.0037573212
0.0043101088
0.0048694013
0.0054360258
0.0060108157
0.0065946109
0.0071882589
0.0077926152
0.008408544
0.009036919
0.0096786238
0.010334553
0.011005612
0.011692719
0.012396804
0.01311881
0.013859697
0.014620434
0.015402011
0.01620543
0.01703171
0.017881889
0.018757021
0.019658179
0.020586453
0.021542956
0.022528818
0.023545192
0.024593249
0.025674185
0.026789218
0.027939587
0.029126556
0.030351413
0.03161547
0.032920064
0.034266558
0.035656341
0.037090828
0.038571463
0.040099714
0.041677081
0.043305089
0.044985294
0.04671928
0.048508661
0.050355082
0.052260217
0.054225772
0.056253482
0.058345117
0.060502475
0.062727387
0.065021719
0.067387366
0.069826257
0.072340355
0.074931655
0.077602186
0.080354009
0.083189222
0.086109952
0.089118364
0.092216655
0.095407056
0.098691831
0.10207328
0.10555374
0.10913557
0.11282117
0.11661298
0.12051347
0.12452514
0.12865051
0.13289216
0.13725269
0.14173472
0.14634093
0.15107401
0.15593668
0.16093171
0.16606188
0.17133001
0.17673895
0.18229157
0.18799079
0.19383954
0.19984078
0.20599749
0.2123127
0.21878945
0.22543079
0.23223982
0.23921966
0.24637343
0.25370429
0.26121543
0.26891004
0.27679133
0.28486255
0.29312694
0.30158778
0.31024834
0.31911193
0.32818187
0.33746146
0.34695405
0.35666299
0.36659162
0.37674331
0.38712143
0.39772934
0.40857044
0.4196481
0.4309657
0.44252662
0.45433426
0.46639198
0.47870316
0.49127118
0.50409941
0.5171912
0.5305499
0.54417886
0.55808141
0.57226085
0.58672051
0.60146365
0.61649356
0.6318135
0.64742668
0.66333634
0.67954565
0.6960578
0.71287593
0.73000314
0.74744255
0.76519721
0.78327015
0.80166438
0.82038286
0.83942855
0.85880433
0.87851308
0.89855763
0.91894076
0.93966523
0.96073376
0.98214901
1.0039136
1.0260301
1.0485011
1.0713291
1.0945165
1.1180657
1.141979
1.1662588
1.1909073
1.2159267
1.2413192
1.2670868
1.2932315
1.3197555
1.3466605
1.3739484
1.4016212
1.4296804
1.4581279
1.4869652
1.516194
1.5458157
1.5758319
1.6062439
1.637053
1.6682606
1.6998678
1.7318758
1.7642858
1.7970986
1.8303153
1.8639368
1.8979639
1.9323974
1.967238
2.0024864
2.0381431
2.0742086
2.1106835
2.1475681
2.1848626
2.2225675
2.2606829
2.2992089
2.3381456
2.377493
2.4172511
2.4574197
2.4979988
2.5389879
2.5803869
2.6221954
2.6644129
2.7070391
2.7500732
2.7935148
2.8373632
2.8816177
2.9262774
2.9713416
3.0168094
3.0626797
3.1089517
3.1556243
3.2026962
3.2501665
3.2980338
3.3462968
3.3949543
3.4440049
3.4934471
3.5432795
3.5935005
3.6441085
3.6951019
3.7464791
3.7982383
3.8503777
3.9028956
3.95579
4.009059
4.0627008
4.1167133
4.1710945
4.2258422
4.2809545
4.3364291
4.3922638
4.4484564
4.5050046
4.5619061
4.6191586
4.6767596
4.7347068
4.7929977
4.8516297
4.9106005
4.9699074
5.0295478
5.0895191
5.1498187
5.2104439
5.271392
5.3326602
5.3942458
5.4561459
5.5183579
5.5808787
5.6437056
5.7068356
5.7702658
5.8339933
5.898015
5.9623281
6.0269295
6.0918161
6.1569848
6.2224327
6.2881566
6.3541534
6.4204199
6.4869529
6.5537494
6.620806
6.6881197
6.755687
6.8235049
6.89157
6.959879
7.0284287
7.0972157
7.1662367
7.2354884
7.3049674
7.3746703
7.4445937
7.5147343
7.5850885
7.6556531
7.7264245
7.7973993
7.8685741
7.9399453
8.0115095
8.0832631
8.1552027
8.2273247
8.2996256
8.3721019
8.44475
8.5175663
8.5905472
8.6636892
8.7369887
8.8104421
8.8840456
8.9577958
9.031689
9.1057216
9.1798898
9.25419
9.3286185
9.4031717
9.4778459
9.5526373
9.6275423
9.7025571
9.777678
9.8529013
9.9282232
10.00364
10.079148
10.154743
10.230421
10.30618
10.382014
10.457921
10.533895
10.609935
10.686035
10.762191
10.838401
10.914659
10.990963
11.067308
11.143691
11.220107
11.296552
11.373024
11.449517
11.526027
11.602552
11.679087
11.755627
11.832169
11.90871
11.985244
12.061768
12.138277
12.214769
12.291239
12.367682
12.444095
12.520473
12.596813
12.673111
12.749362
12.825562
12.901707
12.977793
13.053815
13.129771
13.205655
13.281463
13.357192
13.432836
13.508393
13.583856
13.659223
13.734489
13.80965
13.884702
13.95964
14.03446
14.109157
14.183729
14.258169
14.332474
14.40664
14.480662
14.554537
14.628258
14.701823
14.775227
14.848465
14.921534
14.994428
15.067144
15.139677
15.212023
15.284176
15.356134
15.427891
15.499444
15.570787
15.641916
15.712827
15.783516
15.853978
15.924208
15.994203
16.063957
16.133467
16.202728
16.271736
16.340485
16.408973
16.477194
16.545144
16.612819
16.680214
16.747326
16.814149
16.880679
16.946912
17.012844
17.078471
17.143787
17.20879
17.273474
17.337835
17.40187
17.465573
17.528942
17.591971
17.654657
17.716995
17.778982
17.840614
17.901885
17.962793
18.023334
18.083503
18.143297
18.202712
18.261744
18.32039
18.378645
18.436506
18.493969
18.551031
18.607689
18.663938
18.719775
18.775198
18.830202
18.884785
18.938943
18.992672
19.045971
19.098836
19.151264
19.203252
19.254797
19.305897
19.356548
19.406749
19.456497
19.505789
19.554623
19.602996
19.650907
19.698353
19.745332
19.791843
19.837883
19.883451
19.928545
19.973163
20.017304
20.060966
20.104148
20.14685
20.189069
20.230805
20.272057
20.312825
20.353106
20.392902
20.43221
20.471032
20.509367
20.547214
20.584573
20.621445
20.65783
20.693727
20.729138
20.764063
20.798502
20.832457
20.865928
20.898915
20.931421
20.963446
20.994991
21.026059
21.05665
21.086766
21.116408
21.14558
21.174282
21.202517
21.230286
21.257593
21.284439
21.310828
21.336761
21.362241
21.387271
21.411855
21.435994
21.459693
21.482954
21.50578
21.528176
21.550144
21.571688
21.592811
21.613518
21.633812
21.653696
21.673176
21.692255
21.710936
21.729225
21.747126
21.764642
21.781778
21.798538
21.814928
21.83095
21.846611
21.861915
21.876866
21.891468
21.905728
21.919649
21.933236
21.946494
21.959428
21.972043
21.984343
21.996334
22.008021
22.019408
22.0305
22.041303
22.051821
22.06206
22.072023
22.081717
22.091146
22.100315
22.109228
22.117892
22.12631
22.134488
22.14243
22.150141
22.157626
22.16489
22.171938
22.178773
22.185401
22.191827
22.198054
22.204088
22.209932
22.215592
22.221072
22.226376
22.231508
22.236472
22.241273
22.245916
22.250403
22.254739
22.258927
22.262973
22.266879
22.27065
22.274289
22.277799
22.281185
22.28445
22.287597
22.29063
22.293551
22.296366
22.299076
22.301684
22.304195
22.30661
22.308933
22.311167
22.313315
22.315378
22.317361
22.319265
22.321094
22.322849
22.324533
22.326149
22.327699
22.329186
22.33061
22.331975
22.333283
22.334536
22.335735
22.336883
22.337982
22.339033
22.340038
22.340999
22.341917
22.342795
22.343633
22.344433
22.345198
22.345927
22.346623
22.347287
22.347919
22.348523
22.349097
22.349645
22.350167
22.350663
22.351136
22.351585
22.352013
22.35242
22.352806
22.353174
22.353523
22.353854
22.354168
22.354467
22.35475
22.355019
22.355273
22.355514
22.355743
22.355959
22.356164
22.356358
22.356542
22.356715
22.356879
22.357034
22.35718
22.357318
22.357449
22.357572
22.357688
22.357797
22.3579
22.357997
22.358089
22.358175
22.358256
22.358332
22.358404
22.358472
22.358535
22.358595
22.358651
22.358703
22.358753
22.3588
22.358843
22.358885
22.358923
22.35896
22.358994
22.359027
22.359057
22.359086
22.359113
22.359139
22.359163
22.359186
22.359208
22.359229
22.359248
22.359267
22.359284
22.3593
22.359315
22.359329
22.359342
22.359354
22.359365
22.359377
22.359387
22.359392
22.3594
22.359419
22.359433
22.359437
22.359451
22.359476
22.359489
22.35949
22.359504
22.359534
22.359553
22.359558
22.359572
22.359602
22.359627
22.359638
22.359649
22.359674
22.359701
22.359718
22.359731
22.359751
22.359778
22.359801
22.359818
22.359836
22.359859
22.359882
22.359901
22.35992
22.359941
22.359964
22.359984
22.360003
22.360021
22.36004
22.360059
22.360076
22.360091
22.360107
22.360122
22.360136
22.360148
22.360158
22.360168
22.360177
22.360185
22.360192
22.3602
22.360205
22.36021
22.360216
22.360231
22.360252
22.360263
22.360267
22.360275
22.36029
22.360299
22.360313
22.360332
22.360349
22.360359
22.36037
22.360385
22.360402
22.360413
22.360419
22.360431
22.360448
22.360463
22.360472
22.360481
22.360494
22.360508
22.360516
22.360521
22.360531
22.360546
22.360558
22.360565
22.360571
22.360582
22.360595
22.360606
22.360612
22.360619
22.360631
22.360644
22.360654
22.360659
22.360667
22.36068
22.360692
22.360699
22.360706
22.360717
22.36073
22.36074
22.360749
22.360759
22.360772
22.360784
22.360793
22.360803
22.360816
22.360827
22.360836
22.360844
22.360856
22.360867
22.360874
22.36088
22.36089
22.360901
22.360908
22.360912
22.36092
22.360932
22.36094
22.360944
22.36095
22.36096
22.360969
22.360974
22.360978
22.360985
22.360995
22.361002
22.361005
22.361009
22.361018
22.361028
22.361033
22.361037
22.361044
22.361053
22.361061
22.361067
22.361074
22.361083
22.361092
22.361099
22.361107
22.361115
22.361124
22.361133
22.361141
22.361149
22.361158
22.361167
22.361176
22.361183
22.36119
22.361197
22.361203
22.361208
22.361215
22.361223
22.36123
22.361237
22.361242
22.361249
22.361258
22.361261
22.361258
22.361253
22.361251
22.361255
22.36126
22.361263
22.361264
22.361268
22.361274
22.36128
22.361286
22.361294
22.361303
22.361311
22.361317
22.361321
22.361326
22.361329
22.361334
22.361337
22.361337
22.361337
22.361338
22.361338
22.36134
22.361342
22.36134
22.361334
22.361332
22.361331
22.361331
22.361333
22.361338
22.361345
22.361351
22.361358
22.361365
22.361373
22.361382
22.361391
22.3614
22.361406
22.361413
22.361419
22.361426
22.361432
22.361439
22.361445
22.361449
22.361453
22.361457
22.361461
22.361467
22.361473
22.36148
22.361483
22.36148
22.361478
22.36148
22.361482
22.361486
22.361489
22.361486
22.361482
22.361482
22.361483
22.361485
22.361485
22.361486
22.36149
22.361487
22.361479
22.361475
22.361476
22.361474
22.361472
22.361474
22.361475
22.361472
22.361469
22.361468
22.361468
22.361468
22.361468
22.361467
22.361468
22.361468
22.361467
22.361468
22.361471
22.361474
22.361478
22.361481
22.361481
22.361478
22.361477
22.361477
22.361478
22.361478
22.361479
22.361479
22.361479
22.361479
22.361479
22.36148
22.361479
22.361475
22.361473
22.361473
22.361473
22.361473
22.361472
22.361472
22.361472
22.361471
22.361467
22.361463
22.361462
22.361462
22.361463
22.361462
22.361459
22.361455
22.361456
22.361456
22.361455
22.361451
22.361448
22.361449
22.36145
22.361448
22.361444
22.361439
22.361436
22.361435
22.361434
22.361432
22.36143
22.361428
22.361426
22.361424
22.361422
22.36142
22.361418
22.361415
22.361412
22.361409
22.361406
22.361403
22.3614
22.361397
22.361393
22.36139
22.361387
22.361385
22.361383
22.361381
22.361378
22.361375
22.361372
22.361371
22.36137
22.361368
22.361366
22.361363
22.361363
22.361362
22.361361
22.361359
22.361357
22.361357
22.361356
22.361355
22.361354
22.361352
22.361352
22.361352
22.361351
22.36135
22.361347
22.361347
22.361347
22.361347
22.361345
22.361343
22.361343
22.361343
22.361342
22.36134
22.361337
22.361334
22.361334
22.361335
22.361335
22.361333
22.361331
22.361326
22.361324
22.361325
22.361325
22.361325
22.361324
22.361322
22.36132
22.361318
22.361315
22.361314
22.361313
22.361312
22.36131
22.361308
22.361306
22.361305
22.361303
22.361301
22.361299
22.361298
22.361296
22.361294
22.361292
22.361289
22.361287
22.361286
22.361284
22.361282
22.361279
22.361276
22.361273
22.361271
22.361269
22.361267
22.361263
22.36126
22.361257
22.361255
22.361253
22.36125
22.361247
22.361243
22.36124
22.361237
22.361234
22.361232
22.361228
22.361225
22.361221
22.361218
22.361215
22.361212
22.36121
22.361207
22.361204
22.361201
22.361197
22.361193
22.361191
22.361189
22.361186
22.361183
22.36118
22.361177
22.361173
22.361171
22.361169
22.361166
22.361163
22.36116
22.361157
22.361155
22.361153
22.36115
22.361147
22.361144
22.361142
22.36114
22.361137
22.361134
22.361131
22.361128
22.361126
22.361124
22.361122
22.361119
22.361116
22.361114
22.361112
22.36111
22.361107
22.361105
22.361102
22.3611
22.361098
22.361096
22.361094
22.361092
22.36109
22.361087
22.361085
22.361084
22.361082
22.361081
22.361079
22.361078
22.361077
22.361075
22.361074
22.361073
22.361072
22.361071
22.36107
22.361069
22.361067
22.361067
22.361067
22.361066
22.361066
22.361065
22.361064
22.361063
22.361063
22.361063
22.361062
22.361062
22.361061
22.36106
22.361059
22.361059
22.361059
22.361059
22.361059
22.361058
22.361057
22.361057
22.361056
22.361055
22.361054
22.361054
22.361054
22.361053
22.361052
22.361051
22.36105
22.361049
22.361048
22.361047
22.361046
22.361045
22.361044
22.361042
22.36104
22.361039
22.361038
22.361037
22.361035
22.361033
22.361032
22.36103
22.361029
22.361027
22.361025
22.361023
22.361021
22.361019
22.361018
22.361015
22.361013
22.361011
22.36101
22.361008
22.361006
22.361005
22.361003
22.361001
22.360999
22.360996
22.360995
22.360993
22.360991
22.36099
22.360988
22.360987
22.360985
22.360984
22.360982
22.36098
22.360979
22.360978
22.360977
22.360975
22.360973
22.360971
22.360971
22.36097
22.360969
22.360967
22.360965
22.360964
22.360963
22.360963
22.360962
22.36096
22.360959
22.360957
22.360957
22.360956
22.360955
22.360954
22.360952
22.360951
22.36095
22.360949
22.360948
22.360947
22.360946
22.360944
22.360943
22.360942
22.360941
22.36094
22.360938
22.360937
22.360936
22.360935
22.360933
22.360932
22.36093
22.360929
22.360928
22.360927
22.360925
22.360924
22.360922
22.360921
22.36092
22.360918
22.360917
22.360915
22.360914
22.360912
22.360911
22.36091
22.360908
22.360907
22.360905
22.360904
22.360903
22.360901
22.3609
22.360898
22.360896
22.360895
22.360894
22.360892
22.360891
22.360889
22.360888
22.360887
22.360886
22.360884
22.360883
22.360881
22.36088
22.360878
22.360877
22.360876
22.360875
22.360873
22.360872
22.360871
22.360869
22.360868
22.360867
22.360866
22.360864
22.360863
22.360862
22.36086
22.360859
22.360858
22.360857
22.360856
22.360854
22.360853
22.360853
22.360852
22.360851
22.36085
22.360848
22.360847
22.360846
22.360845
22.360845
22.360844
22.360843
22.360842
22.360841
22.360839
22.360839
22.360838
22.360838
22.360837
22.360836
22.360834
22.360834
22.360833
22.360833
22.360832
22.360831
22.36083
22.360829
22.360828
22.360827
22.360827
22.360826
22.360825
22.360824
22.360823
22.360822
22.360822
22.360821
22.36082
22.360819
22.360818
22.360817
22.360817
22.360816
22.360815
22.360814
22.360812
22.360812
22.360811
22.36081
22.360809
22.360807
22.360806
22.360805
22.360805
22.360804
22.360802
22.360801
22.360799
22.360798
22.360798
22.360797
22.360795
22.360794
22.360793
22.360791
22.36079
22.360789
22.360787
22.360786
22.360785
22.360784
22.360782
22.360781
22.360779
22.360778
22.360777
22.360775
22.360774
22.360772
22.360771
22.360769
22.360768
22.360767
22.360766
22.360764
22.360762
22.360761
22.36076
22.360758
22.360757
22.360755
22.360754
22.360752
22.360751
22.36075
22.360749
22.360747
22.360746
22.360744
22.360743
22.360742
22.36074
22.360739
22.360738
22.360737
22.360736
22.360735
22.360733
22.360732
22.360731
22.36073
22.360729
22.360728
22.360727
22.360726
22.360725
22.360724
22.360723
22.360722
22.360722
22.360721
22.36072
22.360719
22.360719
22.360718
22.360717
22.360717
22.360716
22.360716
22.360715
22.360714
22.360714
22.360714
22.360713
22.360713
22.360712
22.360712
22.360712
22.360711
22.360711
22.36071
22.36071
22.36071
22.360709
22.360709
22.360709
22.360708
22.360708
22.360708
22.360707
22.360707
22.360706
22.360706
22.360706
22.360705
22.360705
22.360704
22.360703
22.360703
22.360703
22.360702
22.360702
22.360701
22.3607
22.360699
22.360699
22.360698
22.360698
22.360697
22.360696
22.360695
22.360694
22.360693
22.360692
22.360691
22.36069
22.360689
22.360688
22.360687
22.360686
22.360685
22.360683
22.360682
22.360681
22.36068
22.360678
22.360677
22.360675
22.360674
22.360673
22.360671
22.36067
22.360668
22.360667
22.360665
22.360664
22.360662
22.360661
22.360659
22.360658
22.360656
22.360655
22.360653
22.360652
22.36065
22.360649
22.360647
22.360646
22.360644
22.360643
22.360641
22.36064
22.360638
22.360637
22.360635
22.360634
22.360633
22.360631
22.36063
22.360629
22.360628
22.360626
22.360625
22.360624
22.360623
22.360622
22.360621
22.360619
22.360618
22.360617
22.360616
22.360615
22.360614
22.360613
22.360612
22.360612
22.360611
22.36061
22.360609
22.360608
22.360607
22.360606
22.360606
22.360605
22.360604
22.360604
22.360603
22.360602
22.360602
22.360601
22.3606
22.3606
22.360599
22.360598
22.360598
22.360597
22.360596
22.360596
22.360595
22.360595
22.360594
22.360593
22.360593
22.360592
22.360592
22.360591
22.36059
22.36059
22.360589
22.360589
22.360588
22.360588
22.360587
22.360586
22.360586
22.360585
22.360585
22.360584
22.360583
22.360583
22.360582
22.360582
22.360581
22.360581
22.36058
22.360579
22.360579
22.360578
22.360578
22.360577
22.360577
22.360576
22.360575
22.360575
22.360575
22.360574
22.360573
22.360573
22.360572
22.360572
22.360571
22.360571
22.36057
22.36057
22.360569
22.360569
22.360568
22.360568
22.360567
22.360567
22.360566
22.360566
22.360565
22.360565
22.360565
22.360564
22.360564
22.360563
22.360563
22.360562
22.360562
22.360561
22.360561
22.36056
22.36056
22.360559
22.360559
22.360558
22.360558
22.360557
22.360556
22.360556
22.360556
22.360555
22.360555
22.360554
22.360553
22.360553
22.360552
22.360552
22.360551
22.36055
22.36055
22.360549
22.360549
22.360548
22.360547
22.360546
22.360546
22.360545
22.360544
22.360544
22.360543
22.360542
22.360541
22.360541
22.36054
22.360539
22.360538
22.360537
22.360536
22.360536
22.360535
22.360534
22.360534
22.360532
22.360531
22.36053
22.36053
22.360529
22.360528
22.360527
22.360526
22.360525
22.360524
22.360523
22.360523
22.360522
22.360521
22.36052
22.360519
22.360518
22.360517
22.360516
22.360515
22.360514
22.360514
22.360513
22.360512
22.360511
22.360509
22.360508
22.360508
22.360507
22.360506
22.360505
22.360504
22.360503
22.360502
22.360501
22.360501
22.3605
22.360499
22.360498
22.360497
22.360496
22.360495
22.360494
22.360494
22.360493
22.360492
22.360491
22.360491
22.36049
22.360489
22.360488
22.360488
22.360487
22.360486
22.360485
22.360484
22.360483
22.360483
22.360482
22.360482
22.360481
22.36048
22.360479
22.360479
22.360478
22.360477
22.360477
22.360476
22.360475
22.360475
22.360474
22.360473
22.360473
22.360472
22.360471
22.360471
22.36047
22.360469
22.360469
22.360468
22.360468
22.360467
22.360466
22.360466
22.360465
22.360464
22.360464
22.360463
22.360463
22.360462
22.360461
22.360461
22.36046
22.360459
22.360459
22.360458
22.360458
22.360457
22.360456
22.360455
22.360455
22.360454
22.360454
22.360453
22.360452
22.360452
22.360451
22.360451
22.36045
22.360449
22.360449
22.360448
22.360447
22.360447
22.360446
22.360446
22.360445
22.360444
22.360443
22.360443
22.360442
22.360441
22.360441
22.36044
22.360439
22.360439
22.360438
22.360437
22.360437
22.360436
22.360435
22.360435
22.360434
22.360433
22.360433
22.360432
22.360431
22.360431
22.36043
22.360429
22.360429
22.360428
22.360427
22.360427
22.360426
22.360425
22.360424
22.360424
22.360423
22.360423
22.360422
22.360421
22.36042
22.36042
22.360419
22.360418
22.360418
22.360417
22.360416
22.360416
22.360415
22.360414
22.360414
22.360413
22.360412
22.360412
22.360411
22.36041
22.36041
22.360409
22.360408
22.360408
22.360407
22.360406
22.360406
22.360405
22.360405
22.360404
22.360403
22.360403
22.360402
22.360401
22.360401
22.360401
22.3604
22.360399
22.360399
22.360398
22.360397
22.360397
22.360396
22.360396
22.360395
22.360395
22.360394
22.360394
22.360393
22.360393
22.360392
22.360392
22.360391
22.360391
22.36039
22.360389
22.360389
22.360389
22.360388
22.360388
22.360387
22.360386
22.360386
22.360386
22.360385
22.360385
22.360384
22.360384
22.360383
22.360383
22.360382
22.360382
22.360381
22.360381
22.36038
22.36038
22.360379
22.360379
22.360378
22.360378
22.360377
22.360377
22.360376
22.360376
22.360375
22.360375
22.360374
22.360374
22.360373
22.360373
22.360372
22.360372
22.360371
22.360371
22.36037
22.36037
22.360369
22.360368
22.360368
22.360367
22.360367
22.360366
22.360365
22.360365
22.360364
22.360363
22.360363
22.360362
22.360362
22.360361
22.36036
22.360359
22.360359
22.360358
22.360357
22.360357
22.360356
22.360355
22.360355
22.360354
22.360353
22.360352
22.360351
22.360351
22.36035
22.360349
22.360348
22.360348
22.360347
22.360346
22.360345
22.360344
22.360343
22.360343
22.360342
22.360341
22.36034
22.36034
22.360339
22.360338
22.360337
22.360336
22.360335
22.360334
22.360333
22.360333
22.360332
22.360331
22.36033
22.360329
22.360328
22.360327
22.360327
22.360326
22.360325
22.360324
22.360324
22.360323
22.360322
22.360321
22.36032
22.360319
22.360319
22.360318
22.360317
22.360316
22.360315
22.360315
22.360314
22.360313
22.360313
22.360312
22.360311
22.36031
22.36031
22.360309
22.360308
22.360308
22.360307
22.360306
22.360306
22.360305
22.360304
22.360304
22.360303
22.360302
22.360302
22.360301
22.3603
22.3603
22.360299
22.360299
22.360298
22.360297
22.360297
22.360296
22.360296
22.360295
22.360295
22.360294
22.360294
22.360293
22.360292
22.360292
22.360291
22.360291
22.36029
22.36029
22.360289
22.360289
22.360288
22.360288
22.360287
22.360287
22.360286
22.360286
22.360285
22.360285
22.360284
22.360284
22.360283
22.360283
22.360282
22.360282
22.360281
22.360281
22.36028
22.36028
22.360279
22.360279
22.360279
22.360278
22.360278
22.360277
22.360276
22.360276
22.360276
22.360275
22.360275
22.360274
22.360274
22.360273
22.360273
22.360272
22.360272
22.360271
22.360271
22.36027
22.36027
22.360269
22.360269
22.360268
22.360268
22.360267
22.360267
22.360266
22.360266
22.360265
22.360265
22.360264
22.360264
22.360263
22.360263
22.360262
22.360262
22.360261
22.360261
22.36026
22.36026
22.360259
22.360259
22.360258
22.360258
22.360257
22.360257
22.360256
22.360256
22.360256
22.360255
22.360254
22.360254
22.360253
22.360253
22.360253
22.360252
22.360252
22.360251
22.36025
22.36025
22.360249
22.360249
22.360248
22.360248
22.360248
22.360247
22.360246
22.360246
22.360245
22.360245
22.360244
22.360244
22.360243
22.360243
22.360242
22.360242
22.360241
22.36024
22.36024
22.36024
22.360239
22.360239
22.360238
22.360238
22.360237
22.360236
22.360236
22.360235
22.360235
22.360234
22.360234
22.360233
22.360233
22.360232
22.360232
22.360231
22.360231
22.36023
22.36023
22.360229
22.360228
22.360228
22.360227
22.360227
22.360226
22.360226
22.360225
22.360225
22.360224
22.360223
22.360223
22.360222
22.360222
22.360221
22.360221
22.36022
22.360219
22.360219
22.360218
22.360218
22.360217
22.360217
22.360216
22.360216
22.360215
22.360214
22.360214
22.360213
22.360213
22.360212
22.360212
22.360211
22.36021
22.36021
22.360209
22.360209
22.360208
22.360207
22.360207
22.360206
22.360205
22.360205
22.360204
22.360204
22.360203
22.360203
22.360202
22.360201
22.360201
22.3602
22.3602
22.360199
22.360198
22.360198
22.360197
22.360197
22.360196
22.360195
22.360195
22.360194
22.360194
22.360193
22.360192
22.360192
22.360191
22.360191
22.36019
22.360189
22.360189
22.360188
22.360188
22.360187
22.360187
22.360186
22.360185
22.360185
22.360184
22.360184
22.360183
22.360182
22.360182
22.360181
22.360181
22.36018
22.36018
22.360179
22.360179
22.360178
22.360178
22.360177
22.360177
22.360176
22.360176
22.360175
22.360174
22.360174
22.360174
22.360173
22.360173
22.360172
22.360172
22.360171
22.360171
22.36017
22.36017
22.36017
22.360169
22.360169
22.360168
22.360168
22.360167
22.360167
22.360167
22.360166
22.360166
22.360166
22.360165
22.360165
22.360164
22.360164
22.360164
22.360163
22.360163
22.360163
22.360162
22.360162
22.360162
22.360161
22.360161
22.360161
22.36016
22.36016
22.36016
22.360159
22.360159
22.360159
22.360158
22.360158
22.360158
22.360158
22.360157
22.360157
22.360156
22.360156
22.360156
22.360155
22.360155
22.360155
22.360154
22.360154
22.360154
22.360153
22.360153
22.360153
22.360152
22.360152
22.360151
22.360151
22.360151
22.36015
22.36015
22.360149
22.360149
22.360148
22.360148
22.360148
22.360147
22.360147
22.360146
22.360146
22.360145
22.360145
22.360144
22.360144
22.360143
22.360143
22.360142
22.360141
22.360141
22.36014
22.36014
22.360139
22.360139
22.360138
22.360138
22.360137
22.360136
22.360136
22.360135
22.360135
22.360134
22.360133
22.360133
22.360132
22.360131
22.360131
22.36013
22.36013
22.360129
22.360128
22.360128
22.360127
22.360126
22.360126
22.360125
22.360124
22.360124
22.360123
22.360122
22.360122
22.360121
22.36012
22.36012
22.360119
22.360119
22.360118
22.360117
22.360117
22.360116
22.360115
22.360115
22.360114
22.360113
22.360113
22.360112
22.360112
22.360111
22.36011
22.36011
22.360109
22.360108
22.360108
22.360107
22.360107
22.360106
22.360105
22.360105
22.360104
22.360104
22.360103
22.360103
22.360102
22.360101
22.360101
22.3601
22.3601
22.360099
22.360099
22.360098
22.360098
22.360097
22.360097
22.360096
22.360096
22.360095
22.360094
22.360094
22.360093
22.360093
22.360092
22.360092
22.360091
22.360091
22.36009
22.36009
22.360089
22.360089
22.360088
22.360088
22.360087
22.360087
22.360086
22.360086
22.360085
22.360085
22.360084
22.360084
22.360083
22.360083
22.360082
22.360082
22.360081
22.360081
22.36008
22.36008
22.360079
22.360079
22.360078
22.360078
22.360077
22.360077
22.360076
22.360076
22.360075
22.360075
22.360074
22.360074
22.360073
22.360073
22.360072
22.360072
22.360071
22.36007
22.36007
22.36007
22.360069
22.360069
22.360068
22.360067
22.360067
22.360066
22.360066
22.360065
22.360065
22.360064
22.360064
22.360063
22.360063
22.360062
22.360062
22.360061
22.360061
22.36006
22.360059
22.360059
22.360058
22.360058
22.360057
22.360057
22.360056
22.360055
22.360055
22.360054
22.360054
22.360053
22.360053
22.360052
22.360052
22.360051
22.360051
22.36005
22.360049
22.360049
22.360048
22.360048
22.360047
22.360047
22.360046
22.360046
22.360045
22.360044
22.360044
22.360043
22.360043
22.360042
22.360042
22.360041
22.36004
22.36004
22.360039
22.360039
22.360038
22.360038
22.360037
22.360036
22.360036
22.360035
22.360035
22.360034
22.360034
22.360033
22.360032
22.360032
22.360031
22.360031
22.36003
22.36003
22.360029
22.360029
22.360028
22.360028
22.360027
22.360027
22.360026
22.360026
22.360025
22.360024
22.360024
22.360023
22.360023
22.360022
22.360021
22.360021
22.36002
22.36002
22.360019
22.360019
22.360018
22.360018
22.360017
22.360017
22.360016
22.360016
22.360016
22.360015
22.360014
22.360014
22.360014
22.360013
22.360013
22.360012
22.360012
22.360011
22.360011
22.360011
22.36001
22.36001
22.36001
22.360011
22.360011
22.360011
22.360011
22.36001
22.360009
22.360008
22.360005
22.360003
22.359999
22.359996
22.359994
22.359992
22.359992
22.359994
22.359998
22.360005
22.360014
22.360025
22.360035
22.360046
22.360057
22.360072
22.360104
22.360198
22.360464
22.361332
22.362174
22.361122
22.359571
22.35978
22.359971
22.359942
22.35993
22.359945
22.359961
22.35997
22.359979
22.359989
22.359997
22.360003
22.360008
22.360011
22.360014
22.360017
22.360019
22.36002
22.360022
22.360023
22.360024
22.360025
22.360025
22.360025
22.360025
22.360025
22.360025
22.360025
22.360024
22.360024
22.360024
22.360023
22.360018
22.360014
22.360019
22.360024
22.360023
22.360022
22.360022
22.360022
22.360022
22.360022
22.360021
22.360021
22.360021
22.360021
22.360021
22.360021
22.360021
22.36002
22.36002
22.36002
22.360019
22.360019
22.360019
22.360019
22.360018
22.360018
22.360017
22.360017
22.360016
22.360016
22.360016
22.360015
22.360015
22.360014
22.360013
22.360013
22.360012
22.360012
22.360011
22.360011
22.36001
22.36001
22.360009
22.360008
22.360008
22.360007
22.360007
22.360006
22.360005
22.360005
22.360004
22.360003
22.360003
22.360002
22.360002
22.360001
22.36
22.36
22.359999
22.359998
22.359997
22.359997
22.359996
22.359995
22.359995
22.359994
22.359993
22.359992
22.359992
22.359991
22.35999
22.359989
22.359989
22.359988
22.359987
22.359986
22.359985
22.359985
22.359984
22.359983
22.359982
22.359981
22.359981
22.35998
22.359979
22.359978
22.359977
22.359977
22.359976
22.359975
22.359974
22.359973
22.359973
22.359972
22.359971
22.35997
22.35997
22.359969
22.359968
22.359967
22.359966
22.359966
22.359965
22.359964
22.359964
22.359963
22.359962
22.359962
22.359961
22.35996
22.359959
22.359959
22.359958
22.359957
22.359957
22.359956
22.359955
22.359955
22.359954
22.359954
22.359953
22.359952
22.359952
22.359951
22.35995
22.35995
22.359949
22.359949
22.359948
22.359947
22.359947
22.359946
22.359946
22.359945
22.359945
22.359944
22.359943
22.359943
22.359942
22.359942
22.359941
22.359941
22.35994
22.35994
22.359939
22.359939
22.359938
22.359937
22.359937
22.359936
22.359936
22.359935
22.359935
22.359934
22.359934
22.359933
22.359933
22.359932
22.359932
22.359931
22.359931
22.35993
22.35993
22.359929
22.359929
22.359929
22.359928
22.359928
22.359927
22.359927
22.359926
22.359926
22.359925
22.359925
22.359924
22.359924
22.359923
22.359923
22.359923
22.359922
22.359922
22.359921
22.359921
22.35992
22.35992
22.359919
22.359919
22.359919
22.359918
22.359918
22.359917
22.359917
22.359916
22.359916
22.359916
22.359915
22.359915
22.359914
22.359914
22.359914
22.359913
22.359913
22.359912
22.359912
22.359912
22.359911
22.359911
22.35991
22.35991
22.35991
22.359909
22.359909
22.359908
22.359908
22.359908
22.359907
22.359907
22.359907
22.359906
22.359906
22.359905
22.359905
22.359905
22.359904
22.359904
22.359904
22.359903
22.359903
22.359902
22.359902
22.359902
22.359901
22.359901
22.359901
22.3599
22.3599
22.3599
22.359899
22.359899
22.359898
22.359898
22.359898
22.359897
22.359897
22.359897
22.359896
22.359896
22.359896
22.359895
22.359895
22.359894
22.359894
22.359894
22.359893
22.359893
22.359893
22.359892
22.359892
22.359891
22.359891
22.359891
22.35989
22.35989
22.35989
22.359889
22.359889