/*--------------------------------*- C++ -*----------------------------------*\
  =========                 |
  \\      /  F ield         | OpenFOAM: The Open Source CFD Toolbox
   \\    /   O peration     | Website:  https://openfoam.org
    \\  /    A nd           | Version:  7
     \\/     M anipulation  |
\*---------------------------------------------------------------------------*/
FoamFile
{
    version     2.0;
    format      ascii;
    class       volScalarField;
    location    "7e-05";
    object      Uy;
}
// * * * * * * * * * * * * * * * * * * * * * * * * * * * * * * * * * * * * * //

dimensions      [0 1 -1 0 0 0 0];

internalField   nonuniform List<scalar> 
5000
(
1.6422424e-16
1.6725668e-16
0
0
-8.4800202e-17
9.6390615e-32
8.4768517e-17
0
0
-8.4713958e-17
-1.6939111e-16
8.4677109e-17
8.4658668e-17
-8.4640242e-17
0
-8.4603452e-17
-9.4101199e-48
8.4566762e-17
0
8.4530184e-17
-8.451194e-17
-8.4493731e-17
1.6895112e-16
-8.4457438e-17
-8.4439374e-17
-6.9582601e-31
8.4403492e-17
8.438573e-17
-1.6873628e-16
1.46241e-30
-1.4740988e-30
8.4317056e-17
1.6860178e-16
-1.6857071e-16
1.4610198e-30
-7.3278496e-30
-2.9211215e-30
1.6846554e-16
-1.6844589e-16
-1.6842968e-16
1.6841727e-16
-5.7916302e-30
-1.6840509e-16
8.4202875e-17
2.5261659e-16
-8.4210517e-17
-8.4217786e-17
-5.7692545e-30
-1.6847729e-16
0
8.426653e-17
1.1977251e-32
-8.4299144e-17
1.6863275e-16
-2.9481981e-30
-1.6870177e-16
8.436748e-17
-2.9139528e-30
-8.4397807e-17
0
8.4422756e-17
2.8796698e-30
2.3999618e-32
8.4447756e-17
-8.4452663e-17
2.9524702e-30
8.4457697e-17
-8.4458046e-17
-8.4457122e-17
8.4455036e-17
8.4451863e-17
-8.4447621e-17
-8.4442244e-17
1.6887112e-16
8.4427259e-17
-8.4416859e-17
0
8.4386822e-17
-1.1989003e-32
-8.4337074e-17
8.4300943e-17
-2.3946596e-32
2.3929811e-32
8.4120923e-17
8.4027507e-17
2.9215188e-30
-8.3769456e-17
0
-8.3388237e-17
-8.6248507e-30
-2.8961832e-30
8.2501373e-17
8.2100986e-17
-1.6327875e-16
-5.6134607e-30
8.0511858e-17
0
0
-7.8239844e-17
-5.3615075e-30
1.5258814e-16
-7.5184238e-17
-1.4796296e-16
0
7.1297449e-17
6.9818559e-17
-6.825154e-17
-6.6599871e-17
0
0
6.1184623e-17
5.9245932e-17
0
-5.5210764e-17
1.8573669e-30
5.1019242e-17
-4.8886285e-17
1.3284388e-32
-1.5588108e-30
-1.0303574e-46
8.0623148e-17
-1.6285625e-32
-3.6117287e-17
0
-3.2067444e-17
3.0113258e-17
2.821387e-17
-5.2748395e-17
-2.4598491e-17
4.5780641e-17
2.125258e-17
-1.9687502e-17
-1.8196673e-17
-1.6781067e-17
0
1.4176553e-17
1.2986847e-17
-1.1870859e-17
-3.7542362e-31
9.8536665e-18
-8.9484374e-18
-8.1089751e-18
0
6.6166514e-18
5.9580678e-18
-5.3538887e-18
4.8010599e-18
-2.4422844e-33
-3.8371916e-18
3.4200846e-18
-3.0422411e-18
1.8806485e-31
2.3929718e-18
-2.1161181e-18
1.8676949e-18
1.6452931e-18
-1.4466369e-18
0
0
-9.724285e-19
-8.4872181e-19
7.3941749e-19
6.4304031e-19
-5.5823648e-19
-3.3548812e-32
4.1850654e-19
-3.6142721e-19
-3.1160192e-19
0
2.3044605e-19
1.9768478e-19
0
-1.4476206e-19
-1.2357938e-19
0
8.9632071e-20
1.5843975e-32
-6.4605808e-20
5.4723767e-20
4.6283112e-20
-3.9085675e-20
-2.2762707e-33
1.9087268e-33
9.9471243e-36
1.9588768e-20
-1.6422425e-20
-1.9068763e-33
7.9054061e-34
-6.5997425e-34
7.9995698e-21
0
0
-4.5978278e-21
-3.8126173e-21
0
0
2.156928e-21
1.6495569e-50
-1.4659873e-21
0
9.9139808e-22
-8.1377276e-22
-1.8487737e-34
1.0925974e-21
-4.4679831e-22
-7.5778842e-35
-4.2320733e-38
-2.4270717e-22
1.975746e-22
-2.2829848e-38
-1.8060152e-35
7.3259151e-36
-8.578248e-23
0
5.6148495e-23
3.1386801e-36
1.0155803e-35
2.949329e-23
0
-1.9099021e-23
-1.5345375e-23
0
0
0
6.3298449e-24
3.5018217e-37
-4.0408138e-24
0
0
2.0464486e-24
1.6278568e-24
-1.2937231e-24
-1.0274294e-24
0
6.4582293e-25
5.118148e-25
-4.0496295e-25
-3.1969426e-25
0
1.9911227e-25
-4.3598526e-38
-8.5625087e-39
9.7174894e-26
-7.6605026e-26
-6.0138999e-26
0
3.7238554e-26
-4.0488564e-39
2.3001774e-26
2.4805626e-39
-2.7460267e-26
1.0740916e-26
-1.173524e-39
-2.3745587e-39
-3.6816622e-40
-3.7491878e-27
2.8878879e-27
2.4319056e-27
0
-1.3172822e-27
-9.626293e-28
0
5.06647e-28
3.546529e-28
-8.106352e-28
-4.053176e-28
2.533235e-28
1.4007728e-41
-4.2162538e-41
-5.06647e-29
2.026588e-28
-1.4054179e-41
-1.013294e-28
1.013294e-28
-1.4082979e-41
1.4111778e-41
-7.1998869e-44
-2.4494015e-41
4.559823e-28
0
0
7.0187953e-42
2.533235e-28
0
0
0
0
-5.3455294e-44
0
1.013294e-28
-2.1599661e-44
-5.06647e-29
-2.533235e-28
6.3308605e-41
5.6159118e-41
3.5999434e-44
2.026588e-28
5.06647e-29
1.013294e-28
-6.079764e-28
-1.2159528e-27
4.053176e-28
4.053176e-28
0
-5.06647e-29
-3.546529e-28
3.546529e-28
-7.1998869e-44
1.079983e-43
-1.4399774e-44
5.06647e-29
5.06647e-29
-2.533235e-28
-2.026588e-28
-1.3910403e-41
4.8788331e-57
1.013294e-28
1.4039779e-41
-2.026588e-28
0
0
3.039882e-28
-8.4411474e-41
-4.053176e-28
0
2.026588e-28
3.039882e-28
-1.013294e-28
-7.1998869e-45
-5.9373886e-56
1.2154327e-59
5.06647e-29
-2.026588e-28
-2.026588e-28
0
1.519941e-28
-2.1102868e-41
-5.06647e-29
-1.013294e-28
-1.95953e-54
5.06647e-29
5.6274316e-41
2.026588e-28
-1.013294e-28
-1.013294e-28
1.013294e-28
2.1599661e-44
2.026588e-28
0
0
1.519941e-28
-7.0270896e-42
2.026588e-28
-2.1599661e-44
-1.519941e-28
5.06647e-29
6.6457135e-42
3.039882e-28
-2.533235e-28
2.533235e-28
4.053176e-28
-1.013294e-28
5.06647e-29
1.013294e-28
-1.519941e-28
-1.9515332e-56
2.1382118e-43
5.06647e-29
-2.026588e-28
1.519941e-28
4.2119338e-41
5.7599095e-44
5.06647e-29
-2.026588e-28
5.06647e-29
-5.6274316e-41
5.6216717e-41
1.519941e-28
2.026588e-28
-1.519941e-28
-1.9353905e-54
-7.7825143e-54
-1.4039779e-41
1.013294e-28
-5.06647e-28
8.4325075e-41
5.06647e-28
0
0
1.519941e-28
-2.1081269e-41
-2.026588e-28
-2.026588e-28
-5.06647e-29
-6.079764e-28
1.519941e-28
5.06647e-29
2.8799547e-44
1.013294e-28
0
2.026588e-28
2.026588e-28
-2.533235e-28
-3.039882e-28
-1.013294e-28
3.039882e-28
-1.013294e-28
3.039882e-28
2.026588e-28
0
-1.4275004e-41
1.013294e-28
4.053176e-28
-1.519941e-28
-1.013294e-28
0
7.0342895e-42
5.06647e-29
5.06647e-29
2.0951686e-41
2.026588e-28
-3.5135448e-41
-2.1599661e-44
-2.1081269e-41
-1.013294e-28
-1.013294e-28
2.1102868e-41
-2.8137158e-41
-4.2184137e-41
0
-1.013294e-28
2.1102868e-41
3.905235e-54
8.7845629e-56
1.013294e-28
-5.06647e-29
2.533235e-28
6.079764e-28
-2.1102868e-41
1.013294e-28
1.519941e-28
-3.039882e-28
-1.519941e-28
-1.519941e-28
-2.533235e-28
-3.9249823e-54
5.06647e-29
0
0
7.0364898e-42
0
0
-1.519941e-28
-2.8799547e-44
-2.8122758e-41
0
2.3592589e-44
-3.039882e-28
-3.039882e-28
4.053176e-28
-5.06647e-29
1.519941e-28
0
0
-1.3890126e-41
2.8151558e-41
5.06647e-29
0
0
1.519941e-28
-2.1110068e-41
-5.06647e-29
0
0
0
0
0
0
0
0
-7.093058e-28
-1.6873655e-40
-2.4110144e-43
1.519941e-28
-1.013294e-28
5.06647e-29
-1.4082979e-41
-5.06647e-29
-4.2205737e-41
-1.013294e-28
0
0
2.026588e-28
-1.4068579e-41
1.519941e-28
0
0
0
0
0
0
0
2.026588e-28
-1.2653081e-40
2.8207895e-41
-1.519941e-28
7.1998869e-45
1.519941e-28
-5.6187917e-41
-3.039882e-28
-1.013294e-28
4.1180461e-72
0
0
2.8145959e-41
0
0
3.039882e-28
1.4054179e-41
4.559823e-28
-1.013294e-28
-5.06647e-29
-5.06647e-29
1.013294e-28
-5.06647e-29
-1.4054179e-41
1.4049387e-41
6.9985184e-42
0
-4.2764235e-44
-1.013294e-28
-3.039882e-28
-1.013294e-28
-1.519941e-28
7.4837412e-44
1.519941e-28
-3.039882e-28
-1.013294e-28
2.026588e-28
0
-5.06647e-29
-2.533235e-28
-2.533235e-28
6.079764e-28
4.3199321e-44
3.039882e-28
-2.533235e-28
-7.0342895e-42
-1.519941e-28
5.7599095e-44
2.026588e-28
-5.06647e-29
0
1.1874777e-56
4.8617307e-59
1.013294e-28
-1.519941e-28
2.8137158e-41
9.8273067e-55
-2.1599661e-44
5.06647e-29
-2.026588e-28
-4.8788331e-57
-4.2205737e-41
-2.8799547e-44
-3.039882e-28
-1.4054179e-41
1.013294e-28
0
0
5.06647e-29
8.4325075e-41
2.3592589e-44
-2.026588e-28
3.5171447e-41
5.8545997e-56
-7.4217358e-57
-1.013294e-28
-1.013294e-28
-7.0270896e-42
1.519941e-28
0
0
-5.06647e-29
-5.06647e-29
-8.4353875e-41
7.3732176e-44
-2.533235e-28
0
1.013294e-28
-7.4837412e-43
1.519941e-28
5.06647e-29
0
1.013294e-28
3.039882e-28
-8.106352e-28
-2.533235e-28
-1.013294e-28
-2.026588e-28
-2.1081269e-41
-1.013294e-28
-1.4068579e-41
-5.0137453e-43
0
0
0
2.026588e-28
2.026588e-28
0
-1.013294e-28
9.7094441e-55
2.7671132e-41
0
0
1.013294e-28
9.7362657e-55
1.4039779e-41
-2.026588e-28
4.053176e-28
-1.4756888e-40
-1.013294e-28
0
1.013294e-28
7.0342895e-42
-1.013294e-28
1.519941e-28
-2.026588e-28
-2.533235e-28
2.026588e-28
0
1.013294e-28
5.06647e-29
-5.06647e-29
1.1870688e-43
0
-3.039882e-28
1.519941e-28
-1.519941e-28
3.546529e-28
6.079764e-28
-1.6882295e-40
-4.559823e-28
-1.7866821e-72
1.4071874e-41
3.039882e-28
-1.1243343e-40
-4.053176e-28
5.06647e-29
1.013294e-28
1.1796295e-44
1.013294e-28
-1.013294e-28
0
0
3.039882e-28
1.0801496e-68
-1.013294e-28
0
0
-1.013294e-28
-2.1701824e-68
1.013294e-28
0
0
-2.026588e-28
1.013294e-28
-3.039882e-28
-1.4067081e-41
0
-1.013294e-28
-5.6274316e-41
-4.053176e-28
1.013294e-28
0
1.013294e-28
-5.06647e-29
1.4399774e-44
1.519941e-28
-1.013294e-28
1.013294e-28
1.519941e-28
-5.06647e-29
0
0
-1.013294e-28
1.519941e-28
-2.8137158e-41
1.013294e-28
1.013294e-28
-5.06647e-29
5.06647e-29
-1.013294e-28
-1.013294e-28
2.8137158e-41
-5.06647e-29
1.013294e-28
-4.8617307e-59
5.06647e-29
-2.533235e-28
3.039882e-28
1.013294e-28
2.1382118e-44
-2.026588e-28
1.1260623e-40
4.053176e-28
-2.533235e-28
5.7599095e-44
6.079764e-28
4.3199321e-44
-1.013294e-28
0
2.533235e-28
0
-1.013294e-28
0
0
0
-5.06647e-29
-6.6387958e-70
-2.026588e-28
0
-3.039882e-28
1.2661721e-40
3.546529e-28
0
0
0
-2.533235e-28
1.2661721e-40
4.053176e-28
0
-1.013294e-28
-2.8122758e-41
5.06647e-29
0
1.013294e-28
-2.026588e-28
2.8151558e-41
-2.533235e-28
4.053176e-28
0
1.519941e-28
1.4068579e-41
-5.06647e-29
0
5.06647e-29
-5.06647e-29
-2.8137158e-41
1.519941e-28
-5.6259916e-41
-7.1998869e-45
-4.7523417e-56
0
-5.06647e-29
0
1.013294e-28
-4.2184137e-41
-5.6245516e-41
-9.7576662e-57
-5.6274316e-41
0
-5.622114e-41
-4.2205737e-41
5.06647e-29
-5.06647e-29
1.4061379e-41
-2.8186513e-41
5.8981473e-45
-1.4068579e-41
2.8137158e-41
-3.039882e-28
3.039882e-28
2.533235e-28
0
-5.06647e-29
2.8137158e-41
5.06647e-29
0
0
0
5.5999944e-41
-1.6882295e-40
-1.013294e-28
0
0
0
0
0
0
0
3.039882e-28
-1.970609e-40
-7.093058e-28
-2.026588e-28
1.013294e-28
-5.06647e-29
1.4075779e-41
5.6216717e-41
5.06647e-29
-2.8128265e-41
1.519941e-28
2.533235e-28
-1.519941e-28
-1.013294e-28
8.4368274e-41
-1.4061183e-41
-1.013294e-28
4.2162538e-41
1.519941e-28
-1.013294e-28
2.026588e-28
-1.4025422e-41
5.06647e-29
5.06647e-29
0
-1.013294e-28
-5.06647e-29
4.2162538e-41
1.519941e-28
4.2221521e-41
-1.519941e-28
-1.013294e-28
-1.013294e-28
5.06647e-29
-1.4068579e-41
0
4.2764235e-44
-6.0771634e-60
0
0
-5.06647e-29
-1.519941e-28
0
1.013294e-28
0
0
0
-1.519941e-28
-5.06647e-29
2.026588e-28
3.546529e-28
0
1.519941e-28
-1.4075779e-41
1.013294e-28
0
0
-4.053176e-28
1.6873655e-40
2.026588e-28
0
0
-2.026588e-28
-3.1587212e-53
5.06647e-29
0
-5.06647e-29
-1.4068579e-41
-5.6245516e-41
4.2205737e-41
-5.06647e-29
0
-5.06647e-29
0
4.2764235e-44
0
3.546529e-28
-1.013294e-28
-1.519941e-28
2.026588e-28
1.4082979e-41
-5.06647e-28
1.2661721e-40
3.546529e-28
0
0
5.06647e-29
-1.4061379e-41
1.0691059e-43
0
1.519941e-28
-2.533235e-28
-1.519941e-28
-5.06647e-29
0
-5.06647e-29
5.3455294e-44
8.4368274e-41
-1.1249103e-40
5.06647e-29
4.2191337e-41
-5.06647e-29
-5.06647e-29
-3.9381589e-54
1.1254863e-40
6.079764e-28
-5.6216717e-41
-1.013294e-28
0
0
0
-2.026588e-28
-5.8211009e-43
-1.013294e-28
-1.013294e-28
0
0
-3.039882e-28
-1.9515332e-56
1.013294e-28
0
-1.013294e-28
5.06647e-29
-2.8198309e-41
1.013294e-28
0
-1.013294e-28
-1.4399774e-44
3.039882e-28
4.0788781e-54
4.053176e-28
-2.533235e-28
-2.8799547e-44
-5.06647e-29
8.9106408e-57
8.303836e-56
7.4837412e-44
0
4.559823e-28
-1.6877975e-40
-1.013294e-28
-1.013294e-28
2.5306162e-40
1.013294e-28
-3.039882e-28
2.8799547e-44
1.013294e-28
0
0
0
-2.026588e-28
2.533235e-28
2.026588e-28
5.06647e-29
-4.2205737e-41
-5.6216717e-41
2.1382118e-44
0
-1.013294e-28
7.1998869e-45
-1.013294e-28
5.06647e-29
-5.6216717e-41
2.026588e-28
2.533235e-28
-5.6303115e-41
1.013294e-28
0
-1.519941e-28
-1.519941e-28
0
4.218355e-41
3.546529e-28
-2.533235e-28
0
-2.026588e-28
0
0
1.013294e-28
-4.2191337e-41
1.013294e-28
0
0
5.06647e-29
5.06647e-29
-5.06647e-29
5.06647e-29
-5.06647e-29
1.519941e-28
-5.06647e-28
-1.013294e-28
-1.4075779e-41
5.06647e-29
-5.6216717e-41
-2.8108358e-41
5.06647e-29
-1.519941e-28
4.053176e-28
-4.053176e-28
-8.6398642e-44
0
3.039882e-28
1.013294e-28
-5.06647e-29
-3.2073177e-43
-5.986993e-43
-5.06647e-29
-1.013294e-28
2.026588e-28
-2.8137158e-41
-2.026588e-28
1.013294e-28
-2.8122758e-41
5.6303115e-41
1.013294e-28
0
0
-2.026588e-28
-2.026588e-28
0
-2.026588e-28
-2.533235e-28
0
-1.519941e-28
0
-9.621953e-44
-1.0691059e-43
0
-5.06647e-29
0
-5.06647e-29
5.6259916e-41
-2.533235e-28
1.519941e-28
7.0234896e-41
3.039882e-28
2.533235e-28
4.2184137e-41
5.06647e-29
0
0
1.013294e-28
-7.1998869e-44
5.6274316e-41
-5.06647e-29
-5.06647e-29
0
-3.2073177e-43
-1.1249103e-40
-5.06647e-29
-2.37374e-56
3.039882e-28
-5.06647e-28
-2.026588e-28
4.2764235e-44
-2.026588e-28
-2.533235e-28
0
1.013294e-28
2.026588e-28
-2.1599661e-44
2.026588e-28
-5.6105749e-41
2.026588e-28
-1.013294e-28
-2.026588e-28
2.026588e-28
-1.6876535e-40
2.026588e-28
-2.026588e-28
1.1249103e-40
-3.039882e-28
2.533235e-28
1.519941e-28
-2.026588e-28
1.4054179e-41
7.093058e-28
-6.079764e-28
-3.039882e-28
1.013294e-28
1.663981e-69
1.013294e-28
-1.4068579e-40
-5.06647e-29
5.6245516e-41
-5.8545997e-56
3.039882e-28
1.013294e-28
0
-1.3172849e-55
3.039882e-28
2.5319122e-40
8.5528471e-44
-3.039882e-28
1.1249103e-40
5.06647e-28
1.9515332e-56
-5.06647e-29
0
0
-5.06647e-29
-5.06647e-29
-1.013294e-28
0
0
0
1.013294e-28
9.621953e-44
0
-5.06647e-29
-5.06647e-29
-8.4382674e-41
3.039882e-28
0
0
0
5.06647e-29
4.2764235e-43
8.8995341e-56
5.06647e-29
2.8137158e-41
-1.013294e-28
0
0
-5.06647e-28
1.7361843e-58
-1.4049387e-41
-5.06647e-29
1.6036588e-43
5.06647e-29
-2.8137158e-41
-3.039882e-28
0
0
3.039882e-28
4.053176e-28
0
0
-1.519941e-28
2.026588e-28
0
5.06647e-29
-5.06647e-29
1.519941e-28
5.06647e-29
3.039882e-28
-2.533235e-28
-5.06647e-29
-2.8137158e-41
-1.519941e-28
3.039882e-28
1.2655241e-40
-3.546529e-28
0
-2.026588e-28
1.4064979e-40
3.039882e-28
-1.519941e-28
-2.8129958e-41
5.06647e-29
0
-1.013294e-28
7.0342895e-41
2.8799547e-44
-1.519941e-28
2.026588e-28
1.519941e-28
0
4.053176e-28
-2.2509726e-40
0
-1.2154327e-59
-1.013294e-28
4.053176e-28
2.949287e-43
3.039882e-28
2.7796753e-43
0
8.106352e-28
-6.74831e-40
-7.093058e-28
0
4.053176e-28
-1.7812166e-55
5.06647e-29
-3.678285e-54
-4.053176e-28
7.093058e-28
1.1389069e-39
-7.093058e-28
4.053176e-28
-8.4346675e-41
-1.013294e-28
-5.06647e-29
-2.8932676e-41
-1.013294e-28
4.053176e-28
-3.039882e-28
-1.0414192e-54
-1.013294e-28
1.013294e-28
1.4068579e-41
-1.519941e-28
1.1243343e-40
3.7385884e-55
6.9340467e-68
-3.039882e-28
4.559823e-28
9.119646e-28
-2.026588e-28
5.6259916e-41
-5.06647e-29
4.6311631e-55
5.06647e-29
-1.013294e-28
-4.2191337e-41
-6.2445866e-53
2.8108358e-41
-1.013294e-28
0
1.013294e-28
5.06647e-29
0
0
0
0
0
5.06647e-29
-5.06647e-29
0
4.6451911e-44
-1.013294e-28
-8.4397074e-41
-1.013294e-28
0
0
0
5.06647e-29
5.06647e-29
-1.519941e-28
-2.026588e-28
2.026588e-28
8.4411474e-41
-5.5572301e-41
0
-1.013294e-28
-1.6879415e-40
-5.06647e-29
5.06647e-29
-5.06647e-29
-4.2109818e-41
-5.6245516e-41
1.013294e-28
0
0
1.519941e-28
1.013294e-28
0
-2.533235e-28
-2.8799547e-44
5.5593506e-43
-5.06647e-29
1.519941e-28
0
-1.013294e-28
-5.06647e-28
0
3.039882e-28
0
-1.013294e-28
-2.8207895e-41
-1.519941e-28
4.559823e-28
1.1796295e-44
-1.4399774e-44
5.06647e-29
-5.06647e-29
0
-5.06647e-29
9.7576662e-57
-5.6137822e-41
1.519941e-28
-1.013294e-28
0
1.013294e-28
3.039882e-28
0
-5.06647e-29
-3.039882e-28
-2.8115558e-41
1.013294e-28
-5.6306669e-41
1.013294e-28
-1.013294e-28
-2.8128265e-41
2.026588e-28
0
-1.519941e-28
-6.079764e-28
1.519941e-28
2.1076559e-54
4.559823e-28
-1.013294e-28
-2.026588e-28
-3.546529e-28
-7.093058e-28
6.079764e-28
2.026588e-28
-1.013294e-28
-5.06647e-29
1.0691059e-43
1.519941e-28
1.519941e-28
-3.039882e-28
3.8487812e-43
-1.7105694e-43
-1.013294e-28
-5.06647e-29
1.519941e-28
-1.6870775e-40
2.5314802e-40
4.559823e-28
-1.013294e-28
-1.519941e-28
-1.013294e-28
1.519941e-28
-5.06647e-28
-1.0079842e-43
-3.039882e-28
2.026588e-28
7.599705e-28
-1.0639587e-27
-2.026588e-28
0
0
-3.039882e-28
2.811057e-41
-1.519941e-28
5.06647e-29
3.039882e-28
5.6245516e-41
-1.4240617e-55
-5.06647e-29
0
-1.013294e-28
1.013294e-28
-1.519941e-28
-1.519941e-28
-1.013294e-28
5.06647e-29
6.4146353e-44
3.039882e-28
0
-3.039882e-28
-3.039882e-28
2.1382118e-44
1.013294e-28
-2.8122758e-41
1.013294e-28
-2.026588e-28
5.06647e-29
-1.6873655e-40
1.013294e-28
-1.013294e-28
0
5.6244733e-41
0
9.4961755e-55
1.013294e-28
3.039882e-28
-1.519941e-28
-3.646298e-59
-3.039882e-28
0
2.026588e-28
1.519941e-28
5.7218724e-41
-2.2501086e-40
-2.533235e-28
-2.2478649e-40
1.519941e-28
-1.6870775e-40
-3.039882e-28
1.013294e-28
8.5528471e-44
-1.453984e-42
1.519941e-28
0
-1.519941e-28
-5.67697e-41
3.039882e-28
2.026588e-28
-5.06647e-29
-3.039882e-28
2.026588e-28
1.519941e-28
2.026588e-28
-3.546529e-28
-5.06647e-28
1.519941e-28
-7.1998869e-45
3.039882e-28
3.039882e-28
3.039882e-28
-1.013294e-28
-8.4382674e-41
-2.3592589e-44
0
7.599705e-28
4.053176e-28
-1.519941e-28
-5.06647e-29
1.519941e-28
0
-1.013294e-28
1.6873655e-40
2.026588e-28
1.4057779e-40
4.053176e-28
0
1.013294e-28
-1.013294e-28
3.2073177e-44
3.039882e-28
6.079764e-28
1.013294e-28
-2.026588e-28
-3.039882e-28
0
5.06647e-29
5.8248206e-44
5.06647e-28
-6.079764e-28
-1.013294e-28
-2.8865859e-43
1.013294e-28
5.06647e-29
1.0639587e-27
-7.8743723e-40
-1.1249103e-40
-2.026588e-28
5.6245516e-41
2.026588e-28
-1.013294e-28
6.4146353e-44
1.519941e-28
-2.026588e-28
5.621266e-41
-4.559823e-28
1.013294e-28
-2.026588e-28
3.039882e-28
-2.8799547e-44
1.013294e-28
-1.013294e-28
-1.013294e-28
0
3.039882e-28
1.013294e-28
-1.013294e-28
4.8662383e-44
-1.6873655e-40
-3.039882e-28
0
-1.013294e-28
-9.7324765e-44
-2.026588e-28
-2.026588e-28
1.519941e-28
1.519941e-28
2.026588e-28
-8.4382674e-41
-5.06647e-29
-3.039882e-28
-6.079764e-28
-5.6231116e-41
8.4368274e-41
3.5999434e-44
1.519941e-28
3.039882e-28
2.533235e-28
-7.599705e-28
2.2498207e-40
1.013294e-28
0
0
-5.06647e-29
2.8122758e-41
-2.8115558e-41
-1.519941e-28
1.013294e-28
-1.519941e-28
-3.373867e-40
4.559823e-28
6.079764e-28
-1.519941e-28
0
0
0
-1.519941e-28
-2.026588e-28
3.039882e-28
-1.6877975e-40
-2.026588e-28
0
0
-5.5593506e-43
2.2498207e-40
1.1246223e-40
-3.039882e-28
1.519941e-28
8.5528471e-44
-4.053176e-28
3.039882e-28
1.519941e-28
-1.519941e-28
0
0
0
9.119646e-28
3.039882e-28
-1.519941e-28
1.1249103e-40
5.06647e-29
-1.4399774e-44
-5.06647e-29
5.06647e-28
-2.8122758e-40
-1.013294e-28
2.5658541e-43
0
-1.566966e-53
1.013294e-28
-2.026588e-28
3.039882e-28
1.013294e-28
-5.06647e-29
-2.8115558e-41
1.519941e-28
-4.559823e-28
-1.013294e-28
1.013294e-28
2.026588e-28
-1.519941e-28
-5.06647e-29
1.013294e-28
2.026588e-28
-1.1249103e-40
1.1246223e-40
1.013294e-28
0
-1.519941e-28
2.026588e-28
-1.519941e-28
-5.6244733e-41
-3.039882e-28
0
-1.1247663e-40
0
5.06647e-29
2.8096191e-41
2.026588e-28
-6.079764e-28
3.039882e-28
-1.013294e-28
2.026588e-28
2.026588e-28
-1.0691059e-43
-1.013294e-28
5.6216717e-41
-5.06647e-29
-2.373458e-56
3.8487812e-43
3.4211388e-43
0
-1.4244233e-55
-1.823149e-59
4.559823e-28
2.533235e-28
-1.519941e-28
0
-5.2691398e-55
2.5306162e-40
3.039882e-28
-1.013294e-28
3.039882e-28
5.6232937e-41
-5.6245516e-41
3.039882e-28
-2.533235e-28
-3.039882e-28
2.026588e-28
-2.026588e-28
0
-2.533235e-28
-1.013294e-28
-2.1599661e-44
-9.119646e-28
-2.533235e-28
1.013294e-28
-7.1998869e-45
-2.026588e-28
3.039882e-28
-3.375307e-40
-2.026588e-28
1.519941e-28
-1.013294e-28
0
0
1.519941e-28
9.119646e-28
2.026588e-28
3.039882e-28
-1.6873655e-40
-8.5528471e-44
2.026588e-28
2.026588e-28
-2.6727647e-43
-1.013294e-28
9.1426618e-44
-1.013294e-28
3.039882e-28
1.013294e-28
2.5314802e-40
-1.1243343e-40
-1.519941e-28
1.013294e-28
-3.039882e-28
-4.559823e-28
0
-1.519941e-28
-1.013294e-28
-1.519941e-28
-6.0771634e-59
5.06647e-29
0
-1.013294e-28
-5.06647e-29
-5.6245516e-41
5.06647e-29
-1.013294e-28
5.06647e-29
-1.013294e-28
-3.039882e-28
3.375595e-40
2.533235e-28
-1.013294e-28
1.013294e-28
-3.039882e-28
0
4.559823e-28
4.7474139e-56
1.519941e-28
3.1638399e-53
-2.8116468e-41
2.533235e-28
2.026588e-28
2.8108358e-41
-1.013294e-28
1.1249103e-40
2.026588e-28
5.9335904e-56
-5.6238316e-41
-2.026588e-28
-4.559823e-28
-2.026588e-28
3.9381941e-40
6.748886e-40
-2.026588e-28
-3.039882e-28
-5.06647e-28
4.559823e-28
-5.06647e-29
2.026588e-28
-4.053176e-28
-1.1519819e-43
-1.0263416e-42
-4.2764235e-43
1.519941e-28
4.559823e-28
2.8487311e-55
3.039882e-28
1.519941e-28
6.4146353e-44
1.519941e-28
-1.519941e-28
-5.06647e-29
3.1544556e-53
-2.795131e-41
4.053176e-28
-5.6245516e-41
-5.06647e-29
-4.2764235e-44
1.6876535e-40
1.519941e-28
3.039882e-28
6.079764e-28
0
0
0
-1.013294e-28
-3.039882e-28
5.06647e-29
-6.2412547e-53
-5.06647e-29
1.519941e-28
-1.1249536e-40
-5.6250631e-41
5.06647e-29
2.026588e-28
-2.026588e-28
1.013294e-28
-2.026588e-28
3.374731e-40
-3.039882e-28
7.599705e-28
3.039882e-28
0
3.039882e-28
6.405049e-53
1.013294e-28
1.519941e-28
1.519941e-28
-5.06647e-29
0
0
5.06647e-29
1.2829271e-43
3.1630581e-67
1.013294e-28
1.013294e-28
-2.533235e-28
2.533235e-28
-1.519941e-28
-5.2691398e-55
-2.5314802e-40
9.119646e-28
0
0
-1.013294e-28
1.013294e-28
-6.4146353e-44
1.1247663e-40
8.4390692e-41
2.2503966e-40
5.06647e-28
0
1.1282199e-40
5.06647e-29
0
5.06647e-29
1.519941e-28
-1.519941e-28
-5.06647e-29
-1.6873655e-40
-1.013294e-28
3.8487812e-43
4.2764235e-44
0
0
0
6.079764e-28
5.06647e-28
-3.039882e-28
0
0
-4.053176e-28
1.1249103e-40
-4.2764235e-44
1.013294e-28
5.06647e-29
-2.026588e-28
-5.6563254e-41
-9.119646e-28
6.079764e-28
5.06647e-28
-1.013294e-28
-5.06647e-29
-5.3455294e-43
-4.559823e-28
0
3.039882e-28
-3.039882e-28
2.533235e-28
1.013294e-28
-1.1249103e-40
1.519941e-28
-5.0629604e-40
-3.546529e-28
-2.8129958e-40
-5.8545997e-56
5.06647e-29
0
5.06647e-29
-3.039882e-28
3.3727596e-40
-6.079764e-28
1.519941e-28
0
-4.053176e-28
-4.053176e-28
2.2497893e-40
1.013294e-28
8.5528471e-44
0
1.013294e-28
1.013294e-28
1.519941e-28
4.053176e-28
5.06647e-29
6.4146353e-44
5.06647e-29
1.6873655e-40
-3.039882e-28
-1.4399774e-43
1.0639587e-27
-5.06647e-28
-3.039882e-28
-8.4330233e-41
-6.079764e-28
-3.039882e-28
-4.559823e-28
2.2501086e-40
5.6050083e-41
-5.06647e-29
8.4368274e-41
2.026588e-28
6.2863558e-53
5.06647e-29
1.519941e-28
-3.039882e-28
-2.026588e-28
-1.6873655e-40
2.026588e-28
-5.0620965e-40
1.519941e-28
-3.039882e-28
3.3764589e-40
3.3773229e-40
3.375163e-40
2.533235e-28
-4.559823e-28
1.013294e-28
3.374155e-40
3.374731e-40
1.519941e-28
-2.533235e-28
-3.039882e-28
-5.6245516e-41
1.013294e-28
1.519941e-28
-1.013294e-28
0
1.1247663e-40
4.559823e-28
-1.6869335e-40
-5.06647e-29
-5.6097269e-41
4.4974707e-44
5.06647e-29
-5.6216717e-41
8.4368274e-41
-1.013294e-28
1.013294e-28
-4.2764235e-44
3.375307e-40
1.6873655e-40
6.079764e-28
-5.06647e-28
2.8799547e-44
-1.013294e-28
1.519941e-28
1.6717773e-40
-1.519941e-28
1.519941e-28
5.6245516e-41
1.013294e-28
1.013294e-28
-3.039882e-28
-5.0629604e-40
1.519941e-28
-1.519941e-28
5.06647e-29
3.039882e-28
-2.026588e-28
-4.559823e-28
0
0
1.687224e-40
-1.4399774e-44
5.06647e-28
-2.026588e-28
8.4367099e-41
1.519941e-28
-6.079764e-28
-5.7599095e-44
-3.9371861e-40
-6.079764e-28
-1.519941e-28
-7.5935767e-40
-5.6250631e-41
5.06647e-29
-4.2764235e-44
0
-1.013294e-28
4.053176e-28
-5.06647e-28
6.749462e-40
1.013294e-28
6.079764e-28
5.06647e-28
-1.013294e-28
-4.559823e-28
-5.06647e-29
-5.06647e-29
0
-1.519941e-28
1.013294e-28
3.039882e-28
2.8122758e-41
3.039882e-28
-1.013294e-28
5.06647e-29
3.039882e-28
-3.039882e-28
2.533235e-28
3.039882e-28
3.039882e-28
-8.4368274e-40
4.5002173e-40
2.026588e-28
-1.013294e-28
-1.013294e-28
-1.013294e-28
-3.1194755e-53
0
-1.1796295e-44
3.039882e-28
7.599705e-28
0
-5.06647e-29
8.4368274e-41
4.3199321e-44
1.6841347e-40
5.06647e-29
-1.519941e-28
2.026588e-28
1.5807419e-54
-1.2829271e-43
-1.013294e-28
-9.119646e-28
-3.039882e-28
-1.131501e-40
-1.1236228e-40
2.026588e-28
-5.0620965e-40
-2.026588e-28
8.4912343e-41
-3.156374e-53
-4.5002173e-40
1.1248947e-40
2.026588e-28
2.8122758e-40
-2.533235e-28
1.013294e-28
-1.013294e-28
0
0
2.026588e-28
1.2335203e-52
5.7599095e-44
-3.1353523e-53
-2.7780253e-41
-5.06647e-29
1.519941e-28
1.519941e-28
-1.013294e-28
1.013294e-28
-2.2498207e-40
-5.06647e-28
2.026588e-28
-5.0620965e-40
2.8122758e-40
-2.533235e-28
4.053176e-28
-1.013294e-28
-1.1249103e-40
1.013294e-28
0
-4.053176e-28
-1.013294e-28
-1.013294e-28
5.6190172e-41
-1.519941e-28
8.4382674e-41
-5.06647e-29
0
0
-1.013294e-28
-4.053176e-28
0
1.013294e-28
-5.06647e-29
-5.06647e-29
2.026588e-28
-2.026588e-28
0
2.026588e-28
0
0
-1.519941e-28
-1.6873655e-40
-2.533235e-28
0
5.06647e-29
-8.4368274e-41
1.519941e-28
0
5.06647e-28
5.06647e-28
-1.013294e-28
9.4937446e-56
-1.013294e-28
2.026588e-28
3.039882e-28
-3.039882e-28
-1.4399774e-44
1.2522501e-52
1.4399774e-44
-1.013294e-28
1.519941e-28
-1.6873655e-40
1.519941e-28
-2.533235e-28
-6.079764e-28
8.4463319e-41
-1.013294e-28
-1.7216218e-43
-5.6238316e-41
-8.5528471e-44
1.7105694e-43
-1.013294e-28
1.013294e-28
-1.3885194e-54
1.013294e-28
2.026588e-28
-7.093058e-28
3.546529e-28
-1.6871495e-40
8.4411474e-41
-2.533235e-28
-2.026588e-28
-4.053176e-28
-8.106352e-28
0
-1.7105694e-43
1.1249103e-40
-3.039882e-28
-1.1249103e-40
1.519941e-28
3.039882e-28
0
5.0137453e-43
3.374299e-40
2.533235e-28
2.026588e-28
3.039882e-28
-1.1246223e-40
-2.026588e-28
1.013294e-28
-1.013294e-28
1.519941e-28
-1.1269591e-40
-1.519941e-28
0
3.039882e-28
-3.039882e-28
-3.039882e-28
-5.06647e-29
-1.519941e-28
-2.026588e-28
1.013294e-28
-1.013294e-28
-1.013294e-28
-2.026588e-28
5.6245516e-41
-5.06647e-29
5.06647e-29
4.2764235e-44
1.013294e-28
0
0
0
4.053176e-28
1.013294e-28
3.039882e-28
1.6873655e-40
2.8122758e-40
-1.6869335e-40
4.5002173e-40
-6.079764e-28
0
6.079764e-28
2.026588e-28
0
-1.013294e-28
-5.06647e-29
0
0
-2.026588e-28
-1.6873655e-40
-1.2589328e-52
-5.5743358e-41
-1.6925917e-40
-1.013294e-28
0
5.06647e-28
9.3834208e-53
6.079764e-28
-3.039882e-28
-5.6259916e-41
-1.013294e-28
0
1.1180524e-40
-1.519941e-28
3.039882e-28
-1.013294e-28
1.1251983e-40
-5.06647e-28
3.039882e-28
-1.013294e-28
0
0
0
5.06647e-28
1.013294e-28
-1.013294e-28
0
-1.013294e-28
0
1.013294e-28
2.026588e-28
3.039882e-28
-2.533235e-28
2.026588e-28
5.06647e-29
-1.013294e-28
1.013294e-28
1.6875815e-40
-5.06647e-29
-1.1249103e-40
8.6398642e-44
3.039882e-28
0
-2.026588e-28
1.013294e-28
1.013294e-28
0
0
0
5.06647e-29
-3.039882e-28
-1.519941e-28
-5.06647e-29
2.026588e-28
-3.039882e-28
-2.026588e-28
2.026588e-28
0
4.053176e-28
-1.013294e-28
0
0
-3.039882e-28
-5.6245516e-41
-5.06647e-29
8.4533363e-41
-5.06647e-29
-1.013294e-28
5.6244733e-41
-3.039882e-28
-5.06647e-29
0
1.013294e-28
1.1246223e-40
-2.026588e-28
2.026588e-28
5.06647e-29
1.013294e-28
-3.039882e-28
-1.013294e-28
4.3199321e-44
-5.06647e-29
-2.026588e-28
-5.8981473e-45
5.06647e-29
2.3418399e-55
2.026588e-28
-6.079764e-28
7.093058e-28
7.093058e-28
0
-1.013294e-28
-1.013294e-28
5.6245516e-41
1.519941e-28
5.06647e-29
-5.5902619e-41
-2.026588e-28
-2.8293423e-41
-8.5528471e-44
1.013294e-28
-5.06647e-29
3.5388884e-44
-1.519941e-28
1.013294e-28
0
-1.519941e-28
5.06647e-28
-3.039882e-28
-1.6869335e-40
1.4062099e-39
-1.013294e-27
1.013294e-27
2.0248386e-39
-6.586411e-28
1.4186116e-27
-8.106352e-28
3.0239525e-43
-6.2994978e-39
-1.8239292e-27
4.8638112e-27
-7.3119171e-39
2.3617069e-39
-5.6744464e-27
2.1455663e-42
1.8847268e-26
-2.4521715e-26
-9.2158552e-42
9.2467629e-38
-5.3907241e-26
7.0018615e-26
1.0101695e-37
-1.1733944e-25
7.5591732e-26
9.7529547e-26
1.2554713e-25
-1.6162039e-25
2.3060662e-37
5.3390461e-25
0
0
-1.1274922e-24
-2.0522558e-40
1.8482482e-24
-1.1817541e-24
1.6759684e-36
-1.9278932e-24
-5.4597523e-36
6.2678313e-24
0
5.0773122e-24
-1.2908656e-23
-8.1974471e-24
2.3099278e-35
-1.3188629e-23
3.3411546e-23
-2.114167e-23
2.9668212e-35
6.7534727e-23
0
0
-6.7684543e-23
4.7280543e-35
-1.0709043e-22
1.3450844e-22
5.063422e-22
-6.3472873e-22
-2.6495839e-22
6.6295124e-22
-4.1427137e-22
-8.6121142e-34
-6.4507836e-22
4.5685563e-37
3.3317214e-33
-1.243643e-21
3.0890716e-21
1.9161539e-21
0
2.9394628e-21
-3.6346636e-21
-4.4892388e-21
-5.5384572e-21
1.5153754e-32
-9.3238689e-33
1.1463219e-32
2.5366711e-20
-1.555666e-20
-3.1733174e-32
4.6638068e-20
-4.0497889e-36
-3.4783754e-20
-8.480627e-20
-1.0325266e-19
1.2555117e-19
8.4675078e-32
9.245827e-20
1.1198753e-19
-2.7092349e-19
3.272734e-19
1.9740389e-19
-7.134387e-19
-5.7219428e-19
3.4370323e-19
8.2464901e-19
4.9393921e-19
-5.9085364e-19
-1.4115021e-18
1.6834933e-18
3.0073477e-18
-1.1920304e-18
-1.4153012e-18
-3.3555953e-18
-1.9858749e-18
4.6936218e-18
2.76892e-18
3.2616764e-18
-7.6716965e-18
-4.5036421e-18
1.0557715e-17
-1.23541e-17
1.7156073e-45
-2.3915246e-33
-1.959023e-17
2.2764317e-17
4.3982087e-29
1.6953012e-29
5.8848929e-29
4.4509958e-45
7.0397321e-17
2.9941727e-29
-3.0932003e-17
-7.0821148e-17
-8.0915925e-17
9.2265969e-17
1.1656238e-28
5.9620786e-17
2.2507898e-28
-7.6421357e-17
1.725008e-16
0
-1.0916483e-16
1.3586605e-28
-1.3697735e-16
-3.0586598e-16
3.4073632e-16
3.7873216e-16
0
-4.6473707e-16
5.6970108e-28
5.6506134e-16
-6.2090756e-16
-3.7782738e-28
3.722216e-16
2.2548958e-28
1.2564339e-31
-4.8003857e-16
5.2001777e-16
5.6196737e-16
-6.0582987e-16
7.2357271e-28
-6.9896321e-16
2.4914481e-27
-8.8650734e-28
-1.7007769e-15
1.8067166e-15
1.9144961e-15
0
-2.1337019e-15
2.4912812e-27
2.3542466e-15
-2.4635607e-15
-2.5713912e-15
1.3385348e-15
2.7799042e-15
7.9949235e-28
2.1132881e-31
8.4999204e-28
4.4742003e-31
1.6131118e-15
-3.2968225e-15
-3.3595364e-15
3.4136932e-15
1.9207992e-27
-3.4938253e-15
3.5186621e-15
3.5326622e-15
0
-3.5255757e-15
4.9789929e-31
-1.9254354e-27
-1.9003399e-27
3.7366492e-27
-3.2955518e-15
3.2141893e-15
1.2290523e-43
-3.0191474e-15
4.3602406e-15
2.7857648e-15
-1.32848e-15
0
-2.3806521e-15
3.7234831e-27
-1.1591968e-27
-1.9385787e-15
0
0
2.2439748e-15
6.772612e-16
-6.0903772e-16
5.4382996e-16
-4.82074e-16
4.2412597e-16
8.2198489e-28
-3.2066246e-16
-2.754339e-16
-2.345916e-16
1.9807756e-16
0
0
2.2586464e-16
-9.1904299e-17
-2.2222669e-16
0
4.6742642e-17