/*--------------------------------*- C++ -*----------------------------------*\
| =========                 |                                                 |
| \\      /  F ield         | OpenFOAM: The Open Source CFD Toolbox           |
|  \\    /   O peration     | Version:  4.x                                   |
|   \\  /    A nd           | Web:      www.OpenFOAM.org                      |
|    \\/     M anipulation  |                                                 |
\*---------------------------------------------------------------------------*/
FoamFile
{
    version     2.0;
    format      ascii;
    class       volScalarField;
    location    "0.3";
    object      T;
}
// * * * * * * * * * * * * * * * * * * * * * * * * * * * * * * * * * * * * * //

dimensions      [0 0 0 1 0 0 0];

internalField   nonuniform List<scalar> 
6279
(
300.0007865
300.0007916
300.0007684
300.0007054
300.0005756
300.0004311
300.000417
300.0005712
300.0007868
300.0009492
300.0010351
300.0010742
300.0007542
300.0007454
300.0007274
300.0007019
300.0006847
300.0006598
300.0006639
300.0007385
300.0008158
300.0008452
300.0008318
300.0008375
300.0006511
300.0006311
300.0006315
300.0006678
300.0007161
300.0007276
300.0007238
300.0007444
300.0007588
300.0007094
300.0006344
300.0006209
300.0005667
300.0005528
300.0005879
300.0006574
300.0007182
300.0007228
300.0006838
300.0006633
300.0006381
300.0005758
300.0004884
300.000479
300.0007733
300.0007675
300.0007434
300.0006826
300.0005517
300.000421
300.0004125
300.0005633
300.0007767
300.0009463
300.0010348
300.0010804
300.0007448
300.0007253
300.0007049
300.0006799
300.0006496
300.0006289
300.0006432
300.0007198
300.0008057
300.0008524
300.0008536
300.0008643
300.0006452
300.000622
300.0006298
300.0006571
300.0006948
300.000717
300.0007199
300.0007445
300.0007744
300.0007482
300.0006894
300.0006737
300.0005474
300.0005366
300.0005833
300.0006504
300.00071
300.0007266
300.0007087
300.0007036
300.0006904
300.0006486
300.0005697
300.0005283
300.0007668
300.0007571
300.0007333
300.0006649
300.0005335
300.0004136
300.0004062
300.0005441
300.0007581
300.0009364
300.0010373
300.0010931
300.0007444
300.0007185
300.0006935
300.0006569
300.0006159
300.0005947
300.0006046
300.0006866
300.0007915
300.0008599
300.0008853
300.0009074
300.000648
300.0006292
300.0006298
300.0006484
300.0006742
300.0006898
300.0007008
300.000736
300.0007787
300.0007781
300.0007511
300.0007372
300.0005448
300.0005443
300.0005852
300.0006477
300.0006987
300.00072
300.00071
300.0007164
300.0007197
300.0006981
300.0006474
300.0006026
300.0007726
300.0007642
300.0007364
300.0006573
300.0005227
300.0004109
300.0004046
300.0005261
300.0007383
300.0009195
300.0010368
300.001105
300.0007479
300.0007211
300.0006881
300.0006485
300.0005948
300.0005605
300.0005699
300.0006539
300.0007788
300.0008723
300.0009195
300.0009528
300.0006622
300.000645
300.0006385
300.0006491
300.0006554
300.0006571
300.0006682
300.0007136
300.000777
300.0008061
300.0008052
300.0008074
300.0005653
300.0005649
300.0005985
300.0006488
300.0006832
300.000697
300.0006985
300.0007141
300.0007358
300.0007295
300.0007081
300.0006843
300.0007947
300.0007841
300.000743
300.000651
300.0005133
300.0004175
300.0004149
300.0005172
300.0007239
300.0009113
300.0010394
300.0011235
300.0007629
300.0007335
300.0006979
300.0006452
300.0005772
300.0005329
300.0005431
300.0006262
300.0007635
300.0008811
300.0009632
300.001017
300.0006958
300.0006806
300.0006653
300.0006495
300.0006395
300.0006316
300.0006427
300.0006942
300.0007698
300.0008363
300.0008726
300.0008963
300.0006059
300.0006107
300.0006328
300.0006565
300.0006736
300.0006795
300.0006851
300.0007058
300.0007429
300.0007681
300.0007785
300.0007739
300.000808
300.0007912
300.0007312
300.0006293
300.0005066
300.0004351
300.0004348
300.0005057
300.0006685
300.0008439
300.0009877
300.0010996
300.0007766
300.000742
300.0006894
300.000623
300.000541
300.000493
300.0005007
300.0005717
300.0007041
300.0008371
300.0009404
300.0010303
300.0007403
300.0007046
300.0006677
300.0006305
300.0005986
300.0005794
300.0005893
300.0006421
300.0007326
300.0008226
300.0008953
300.0009685
300.000668
300.0006608
300.0006511
300.0006472
300.0006416
300.0006361
300.0006464
300.000676
300.0007301
300.0007814
300.0008279
300.0008597
300.0008705
300.0008387
300.0007672
300.0006594
300.0005369
300.0004673
300.000473
300.0005577
300.0007335
300.000913
300.0010505
300.0011154
300.000814
300.0007827
300.0007156
300.0006468
300.0005709
300.0005271
300.0005443
300.0006233
300.0007532
300.0008886
300.0009954
300.0010501
300.0007515
300.0007274
300.0006916
300.0006509
300.0006191
300.0006052
300.0006207
300.0006707
300.0007602
300.0008482
300.000925
300.0009705
300.0006913
300.0006829
300.0006684
300.0006574
300.0006444
300.000637
300.0006476
300.0006803
300.0007384
300.0007998
300.0008542
300.0008922
300.0008899
300.0008669
300.0008136
300.0007106
300.0005893
300.0005186
300.0005408
300.0006562
300.0008249
300.0009771
300.001068
300.0011034
300.0008143
300.0007873
300.0007335
300.0006751
300.0006111
300.0005817
300.0006023
300.0006749
300.0007964
300.0009152
300.0009996
300.001038
300.0007448
300.0007252
300.0006978
300.0006645
300.0006356
300.0006229
300.0006355
300.0006833
300.0007665
300.0008525
300.0009205
300.0009559
300.0006917
300.000684
300.0006734
300.0006599
300.0006432
300.0006334
300.0006427
300.0006752
300.0007304
300.0007948
300.000853
300.000889
300.0008697
300.0008494
300.0008051
300.0007088
300.0005904
300.0005206
300.0005438
300.0006612
300.0008301
300.0009714
300.0010377
300.0010481
300.0007912
300.0007657
300.0007235
300.0006677
300.0006071
300.0005791
300.0005967
300.0006687
300.0007884
300.0009023
300.0009676
300.0009868
300.0007283
300.0007007
300.0006784
300.0006496
300.000621
300.0006053
300.0006136
300.000654
300.0007316
300.0008159
300.0008842
300.0009217
300.0007015
300.0006797
300.0006592
300.0006404
300.0006183
300.0005998
300.0005959
300.0006332
300.0006997
300.0007712
300.0008465
300.0008932
300.0008349
300.0008002
300.0007559
300.000674
300.0005741
300.0005096
300.0005339
300.0006493
300.0008117
300.0009232
300.0009663
300.0009824
300.0007868
300.0007166
300.0006629
300.0006236
300.0005788
300.0005535
300.0005666
300.0006302
300.0007347
300.0008341
300.0009111
300.0009463
300.0007666
300.0006953
300.0006394
300.0006137
300.0005838
300.000562
300.0005679
300.0006183
300.0007052
300.0007991
300.0008802
300.0009286
300.0007926
300.0007247
300.000671
300.0006241
300.000574
300.0005428
300.0005611
300.0006259
300.0007263
300.0008216
300.0009057
300.0009524
300.0007547
300.000806
300.0007917
300.0007114
300.000547
300.0004288
300.0004503
300.0006134
300.0008276
300.0009223
300.0009273
300.0008526
300.0007434
300.0007453
300.0007066
300.0006291
300.0005306
300.0004694
300.0004919
300.0006062
300.0007661
300.0008694
300.000898
300.0008561
300.0007656
300.0007161
300.0006443
300.0005779
300.0005208
300.0004918
300.0005052
300.0005781
300.0006994
300.0008201
300.0008759
300.0008683
300.0007993
300.0007284
300.0006356
300.0005648
300.0005058
300.0004705
300.0004913
300.0005705
300.0006854
300.000804
300.0008701
300.0008933
300.0008133
300.0007441
300.0006395
300.0005383
300.000452
300.0004126
300.000457
300.0005649
300.0006887
300.0008038
300.0008823
300.0009044
300.0002695
300.0003358
300.0005835
300.0006067
300.0004839
300.0003617
300.0003837
300.0005546
300.0007204
300.0006936
300.0004139
300.00034
300.0003269
300.0003458
300.0004644
300.0004634
300.0004219
300.0003666
300.000392
300.0005068
300.0006074
300.0006145
300.0004159
300.0003541
300.000348
300.0002922
300.000318
300.0003335
300.0003052
300.0002652
300.0002891
300.0003858
300.0004644
300.0004577
300.0003609
300.0003424
300.000274
300.0002226
300.000215
300.0001838
300.000119
300.0000965
300.0001477
300.0002533
300.0003338
300.0003404
300.0002863
300.0002824
300.0002134
300.0002141
300.0002071
300.0001558
300.0000995
300.0000933
300.0001604
300.0002538
300.0003152
300.0003277
300.0002705
300.0002356
300.0007407
300.0006969
300.0005685
300.0004559
300.0007219
300.0006603
300.0005173
300.0004341
300.000726
300.0006737
300.000563
300.0005411
300.0008388
300.0008341
300.0007949
300.0008196
300.0009425
300.0009377
300.0008976
300.0008904
300.0006365
300.0006106
300.0005656
300.0005261
300.0007675
300.0007109
300.0005793
300.0004672
300.000758
300.0006902
300.0005558
300.0004709
300.0007642
300.0007144
300.0006186
300.0006005
300.0008635
300.000869
300.0008413
300.000871
300.0009571
300.0009615
300.0009309
300.0009223
300.0006443
300.0006201
300.0005856
300.000551
300.0007901
300.000732
300.0006122
300.0004969
300.0007922
300.0007241
300.0005993
300.0005101
300.0007949
300.0007411
300.0006529
300.0006264
300.0008646
300.0008727
300.000858
300.0008859
300.0009655
300.0009753
300.0009568
300.0009503
300.0006582
300.000636
300.0006021
300.0005769
300.0008119
300.000755
300.0006535
300.0005507
300.0008246
300.0007515
300.000648
300.0005719
300.0008236
300.0007631
300.0006935
300.0006758
300.0008667
300.0008714
300.0008724
300.0009024
300.0009415
300.0009635
300.0009615
300.0009481
300.0006351
300.0006246
300.0006009
300.0005479
300.0008428
300.0007825
300.0007012
300.0006039
300.0008527
300.0007812
300.0006933
300.000618
300.0008425
300.0007838
300.0007161
300.0006834
300.0008592
300.0008566
300.0008534
300.0008768
300.0009347
300.0009676
300.0009656
300.0009598
300.0006664
300.0006727
300.0006667
300.000667
300.0008865
300.0008233
300.0007613
300.0006946
300.0009014
300.0008295
300.0007596
300.0006975
300.0008787
300.0008128
300.0007584
300.0007196
300.0008461
300.0008296
300.0008186
300.0008346
300.0008309
300.000866
300.0008651
300.0008391
300.0004274
300.0004006
300.0004039
300.0002739
300.0004727
300.0005032
300.0005696
300.0006592
300.0007328
300.0007367
300.0006932
300.0006684
300.0006444
300.000587
300.0005184
300.0005115
300.0004928
300.0005509
300.0006331
300.0007186
300.0007726
300.0007515
300.0007154
300.0007206
300.0007265
300.0007113
300.0006884
300.0006723
300.0006742
300.0007658
300.000821
300.0008276
300.0007746
300.0007202
300.0007253
300.000811
300.0008796
300.0008956
300.0008824
300.0008247
300.000928
300.0009783
300.0009688
300.0008741
300.0007326
300.0006703
300.0007456
300.0009218
300.0010238
300.0010443
300.0010132
300.0009386
300.0009438
300.0009756
300.0009427
300.0008348
300.000723
300.00072
300.0008359
300.000964
300.0010125
300.0010149
300.0009874
300.0009493
300.0005373
300.0005519
300.00053
300.0004907
300.0004961
300.0005414
300.0005991
300.0006132
300.0005832
300.000549
300.0005321
300.0005335
300.0004732
300.0005046
300.0005672
300.0006491
300.0007107
300.0007272
300.0007023
300.0006894
300.0006826
300.0006516
300.0005945
300.0005637
300.0005086
300.0005533
300.0006256
300.0006976
300.0007306
300.0007219
300.0006985
300.0007123
300.000728
300.0007269
300.0007167
300.0006988
300.0006926
300.0007471
300.0007886
300.0007881
300.0007398
300.0006933
300.0007055
300.0007894
300.0008631
300.0008927
300.0008933
300.0008524
300.0009404
300.0009639
300.0009402
300.000848
300.0007151
300.0006532
300.0007301
300.0009045
300.0010181
300.0010487
300.0010375
300.0009881
300.0009618
300.0009724
300.000927
300.0008212
300.0007127
300.0006999
300.0008098
300.0009455
300.0010108
300.0010245
300.001012
300.0009848
300.0005553
300.000561
300.0005306
300.0004903
300.0004817
300.0005146
300.0005747
300.0006065
300.000592
300.0005636
300.0005496
300.000546
300.0004927
300.0005208
300.0005752
300.0006474
300.0006941
300.0007112
300.0006983
300.0006936
300.0006993
300.0006908
300.0006602
300.000631
300.000531
300.0005652
300.0006216
300.0006752
300.000695
300.000689
300.000674
300.0006967
300.0007199
300.0007324
300.0007378
300.0007345
300.0006914
300.0007167
300.0007365
300.000733
300.0006902
300.0006468
300.0006712
300.000745
300.0008191
300.000865
300.0008879
300.0008699
300.0009347
300.000928
300.0008864
300.0007999
300.0006859
300.0006313
300.0007036
300.0008643
300.0009858
300.0010332
300.0010415
300.0010137
300.0009752
300.0009724
300.0009188
300.00081
300.0007
300.0006836
300.0007967
300.0009425
300.001014
300.0010317
300.0010274
300.0010123
300.0005776
300.0005744
300.0005493
300.000507
300.0004911
300.0005188
300.00058
300.0006191
300.0006112
300.0005881
300.0005684
300.0005712
300.0005318
300.0005528
300.000594
300.0006485
300.00068
300.0006889
300.0006865
300.0006916
300.000706
300.0007155
300.0007128
300.0007054
300.0005658
300.0005836
300.0006256
300.0006627
300.0006719
300.0006636
300.0006522
300.0006731
300.0007084
300.0007395
300.0007598
300.0007763
300.0006992
300.000692
300.0006995
300.0006896
300.0006471
300.0006055
300.0006295
300.0006999
300.0007733
300.000838
300.0008769
300.0008926
300.0009277
300.0008905
300.000834
300.0007459
300.0006443
300.0005995
300.0006617
300.0008138
300.0009411
300.0010066
300.001031
300.0010281
300.0009499
300.0009261
300.000858
300.0007569
300.000663
300.0006456
300.0007476
300.0008894
300.0009711
300.0010002
300.0010115
300.0010023
300.0005386
300.0005514
300.0005185
300.0004771
300.0004558
300.0004735
300.0005344
300.0005865
300.0005948
300.0005781
300.0005644
300.0005379
300.0005867
300.0006055
300.0006347
300.0006593
300.0006716
300.0006742
300.000676
300.0006872
300.0007166
300.0007474
300.000766
300.0007725
300.000609
300.0006219
300.0006491
300.0006643
300.0006597
300.0006493
300.0006423
300.0006605
300.0007061
300.0007515
300.00078
300.0008099
300.000693
300.0006814
300.0006828
300.0006663
300.0006217
300.0005846
300.0006022
300.0006696
300.0007409
300.0008021
300.0008495
300.000891
300.0008885
300.0008413
300.0007854
300.0007021
300.0006103
300.0005664
300.000622
300.0007562
300.0008879
300.000966
300.0010076
300.0010251
300.0009576
300.0009177
300.0008436
300.0007374
300.0006391
300.000617
300.0007185
300.0008695
300.0009605
300.0010005
300.0010179
300.0010287
300.0006629
300.0006154
300.0005554
300.0004907
300.0004624
300.0004778
300.0005447
300.0006069
300.0006236
300.0006329
300.0006437
300.0006758
300.0006548
300.0006596
300.0006583
300.0006585
300.0006513
300.0006456
300.0006527
300.0006754
300.0007222
300.0007655
300.0008104
300.0008407
300.0006643
300.0006612
300.0006625
300.0006584
300.0006418
300.0006332
300.0006343
300.0006535
300.0006977
300.0007448
300.0008056
300.0008513
300.000698
300.0006742
300.000661
300.0006406
300.0006029
300.0005749
300.0005835
300.0006295
300.0006941
300.0007588
300.0008276
300.0008863
300.0008126
300.0007444
300.0006883
300.0006269
300.000556
300.0005222
300.0005616
300.0006543
300.0007611
300.000859
300.0009271
300.0009751
300.0008032
300.0007556
300.0006832
300.0005978
300.0005272
300.0005166
300.0006047
300.0007426
300.0008453
300.0008787
300.0009009
300.0008847
300.0002059
300.0002956
300.0002705
300.0002783
300.0003
300.0003337
300.0003862
300.0004304
300.0004256
300.0003746
300.000362
300.0002314
300.000532
300.0006296
300.0008216
300.0010033
300.0006099
300.0006365
300.0007607
300.0008811
300.0007047
300.0006667
300.0007098
300.0007769
300.0008508
300.0007802
300.000754
300.0007817
300.0009648
300.0009635
300.0009366
300.0009319
300.0005873
300.0006135
300.0006233
300.0006389
300.0005685
300.0006665
300.0008372
300.0010177
300.0006516
300.0006878
300.0008028
300.0009205
300.0007628
300.0007341
300.0007785
300.0008387
300.0009148
300.0008482
300.0008154
300.0008331
300.0009921
300.0009882
300.0009535
300.0009447
300.0005777
300.0006093
300.0006207
300.0006383
300.0006375
300.0007372
300.0008874
300.0010483
300.00071
300.0007602
300.0008609
300.0009682
300.0008065
300.0007979
300.0008457
300.0008984
300.0009547
300.0008978
300.0008699
300.0008803
300.0010125
300.001
300.0009661
300.0009537
300.0005976
300.0006182
300.0006344
300.0006506
300.0007151
300.0008114
300.0009454
300.0010844
300.0007713
300.0008266
300.000922
300.0010189
300.0008595
300.0008607
300.0009016
300.0009444
300.0009914
300.0009444
300.0009118
300.0009153
300.0010005
300.0009955
300.0009645
300.0009464
300.0005558
300.0006065
300.00062
300.0006302
300.0007957
300.0008977
300.0010138
300.0011201
300.0008289
300.000895
300.0009879
300.0010682
300.0008848
300.0009071
300.00095
300.0009941
300.000993
300.0009586
300.0009472
300.0009447
300.0010223
300.0010047
300.0009747
300.0009518
300.0006859
300.0006753
300.0006673
300.0006629
300.0008909
300.000987
300.0010627
300.001137
300.0008942
300.0009724
300.0010473
300.0011111
300.0009109
300.0009435
300.0009925
300.001038
300.0009692
300.0009462
300.0009474
300.0009444
300.000888
300.0009054
300.0008803
300.0008651
300.0002686
300.0003962
300.0003848
300.0004255
300.0003694
300.0003432
300.000463
300.0005965
300.000673
300.0007305
300.0008375
300.0008875
300.0008332
300.0006452
300.0004569
300.0004989
300.0001702
300.0000551
300.0001934
300.0003327
300.0003892
300.0003921
300.0004056
300.0004181
300.0003656
300.0002312
300.000162
300.000353
300.0001821
299.9999971
300.000136
300.0003736
300.0004376
300.0003936
300.0003202
300.000293
300.0002227
300.0001254
300.0001222
300.0003837
300.0003027
300.0000785
300.0002387
300.0004848
300.0005452
300.0004905
300.0004288
300.0003878
300.0003122
300.0002264
300.0002095
300.0004999
300.0004212
300.000188
300.0003537
300.0005263
300.0005531
300.0005213
300.0005156
300.0005434
300.0005206
300.0004016
300.0003218
300.0005896
300.000472
300.0002261
300.0003856
300.000512
300.0004828
300.0004088
300.0004295
300.0005481
300.0005988
300.0004819
300.0003605
300.0006232
300.0004986
300.0002426
300.0003734
300.0004912
300.0004261
300.000277
300.0002897
300.0004887
300.0005896
300.0004793
300.0003603
300.0006264
300.0005455
300.0002648
300.0003338
300.0004086
300.0003531
300.0002328
300.0002571
300.0004339
300.0005212
300.0004332
300.0003417
300.0006122
300.0005773
300.0002776
300.0002552
300.0002518
300.0002229
300.0001791
300.0002096
300.0003212
300.0003874
300.0003698
300.0003296
300.0006017
300.0005472
300.0002541
300.0001657
300.0001341
300.0000941
300.0000726
300.000117
300.0002148
300.0002737
300.000279
300.000295
300.0005399
300.000479
300.0002365
300.0001665
300.0001134
300.0000653
300.0000535
300.0001128
300.0002119
300.0002667
300.0002781
300.0002873
300.0004857
300.000552
300.0004278
300.0004216
300.0004096
300.0003819
300.0003877
300.0004556
300.0005352
300.0005647
300.0005265
300.0004744
300.0005666
300.0003252
300.0004218
300.0005117
300.0006185
300.0006875
300.0007424
300.0008369
300.0008812
300.0008229
300.0006459
300.0005055
300.0003973
300.0003219
300.0000829
300.0001394
300.0002612
300.0003423
300.0003703
300.0004051
300.000417
300.0003445
300.0002151
300.0001944
300.0004562
300.0003085
299.9999668
299.9999997
300.0002051
300.000295
300.0002635
300.0001976
300.0001686
300.0000881
300.0000094
300.0001039
300.0004743
300.0003636
300.0000124
300.0000597
300.0002959
300.0003863
300.0003426
300.0002743
300.0002268
300.0001449
300.0000718
300.0001543
300.0005414
300.0004648
300.0001313
300.0001856
300.0003645
300.0004113
300.0003868
300.0003749
300.000388
300.0003475
300.0002491
300.0002684
300.0006185
300.0005196
300.0001896
300.0002301
300.0003658
300.0003561
300.0002909
300.0003098
300.0004151
300.0004427
300.0003331
300.0003224
300.0006531
300.000554
300.0002135
300.0002272
300.0003395
300.000296
300.0001555
300.0001696
300.0003614
300.0004349
300.0003315
300.0003232
300.0006583
300.0006085
300.0002404
300.0001917
300.0002503
300.0002101
300.0001001
300.0001284
300.000299
300.0003647
300.0002914
300.0003079
300.0006595
300.0006366
300.00025
300.000114
300.0000969
300.0000675
300.0000292
300.0000656
300.0001746
300.0002282
300.0002185
300.0002857
300.0006521
300.0006124
300.000241
300.0000541
300.0000039
299.9999642
299.9999425
299.9999903
300.0000903
300.0001427
300.0001583
300.0002671
300.0006065
300.0005456
300.0002679
300.0001576
300.0000934
300.0000486
300.0000406
300.0001038
300.0001969
300.0002363
300.0002523
300.0003085
300.0005562
300.0004354
300.000522
300.0005198
300.000497
300.000456
300.0004493
300.0005108
300.0005908
300.0006204
300.0005955
300.0005477
300.0004445
300.000106
300.0003875
300.000486
300.0005838
300.0006475
300.0007013
300.0007896
300.0008251
300.000765
300.0006099
300.0004657
300.0001376
300.0003055
300.0001659
300.0001822
300.0002813
300.0003413
300.0003685
300.0004089
300.0004295
300.0003756
300.0002671
300.0002785
300.0004257
300.0003058
300.0000119
299.9999698
300.0001337
300.000225
300.0001972
300.0001368
300.0001125
300.0000441
300.0000011
300.000154
300.0004581
300.0003463
300.0000359
299.9999996
300.0001859
300.0002821
300.000243
300.0001723
300.00013
300.0000569
300.0000211
300.000183
300.0005146
300.000436
300.0001286
300.0001121
300.0002581
300.0003061
300.0002809
300.000264
300.0002728
300.0002345
300.0001732
300.0002689
300.0005824
300.000491
300.0001855
300.0001583
300.0002638
300.0002544
300.0001878
300.0002055
300.0003089
300.000337
300.0002598
300.0003181
300.0006164
300.0005255
300.0002114
300.0001553
300.000235
300.0001917
300.0000524
300.0000684
300.0002579
300.0003288
300.0002584
300.0003197
300.0006224
300.0005777
300.0002489
300.0001274
300.0001512
300.0001071
299.9999961
300.0000274
300.0001978
300.0002624
300.0002244
300.0003154
300.0006264
300.0006077
300.0002837
300.0000663
300.000014
299.9999705
299.9999299
299.999968
300.0000797
300.000141
300.0001652
300.0003155
300.0006216
300.0005866
300.0002921
300.0000492
299.9999634
299.9999055
299.9998763
299.9999254
300.0000328
300.0000977
300.0001422
300.0003133
300.0005826
300.0005068
300.0003508
300.0002094
300.000129
300.0000593
300.0000426
300.0001063
300.0002075
300.0002679
300.0002999
300.0003797
300.0005172
300.0001639
300.000487
300.000502
300.0004761
300.0004316
300.0004228
300.0004804
300.0005583
300.00059
300.0005711
300.0005096
300.0001722
300.0001084
300.0003083
300.0004227
300.0005071
300.0005634
300.0006144
300.0006904
300.000719
300.0006649
300.0005299
300.0003783
300.0001435
300.0002449
300.0001812
300.0002048
300.000281
300.0003367
300.0003604
300.0004035
300.0004278
300.0003832
300.000295
300.0002942
300.0003448
300.0002762
300.0000389
299.9999911
300.0001122
300.0001977
300.0001738
300.0001188
300.0000974
300.0000448
300.0000289
300.0001834
300.0004078
300.0003053
300.0000416
299.9999832
300.000131
300.0002246
300.0001891
300.00012
300.0000803
300.0000222
300.0000143
300.0001922
300.0004539
300.0003763
300.0001232
300.0000799
300.000198
300.0002385
300.0002102
300.0001902
300.0001988
300.0001733
300.0001408
300.000265
300.000509
300.0004289
300.0001747
300.0001296
300.0002061
300.0001867
300.0001184
300.0001337
300.0002367
300.0002764
300.0002288
300.0003079
300.0005395
300.0004643
300.0002043
300.0001284
300.0001777
300.000122
299.9999838
300.0000004
300.0001882
300.0002698
300.0002289
300.0003113
300.0005489
300.0005112
300.0002512
300.0001052
300.0000983
300.0000398
299.9999294
299.9999615
300.0001327
300.0002066
300.0001985
300.0003155
300.0005562
300.0005382
300.0002951
300.000065
299.9999803
299.9999233
299.9998785
299.9999167
300.0000334
300.0001073
300.0001589
300.0003249
300.0005544
300.0005184
300.0003187
300.0000783
299.9999641
299.9998895
299.9998535
299.9999041
300.0000171
300.0000972
300.0001688
300.0003376
300.0005196
300.0004161
300.0003648
300.0002385
300.000144
300.0000637
300.0000381
300.0001019
300.0002086
300.0002797
300.0003234
300.0003917
300.0004253
300.0001703
300.0003962
300.0004466
300.0004236
300.0003762
300.0003651
300.0004166
300.0004893
300.0005215
300.0005065
300.0004181
300.0001782
300.0000697
300.0002219
300.0003458
300.000434
300.0004874
300.0005345
300.0005982
300.0006216
300.0005694
300.000439
300.0002836
300.0000959
300.0001729
300.0001978
300.0002158
300.0002779
300.0003221
300.0003477
300.0003912
300.0004176
300.0003836
300.000312
300.000306
300.0002549
300.0002221
300.0000588
300.0000044
300.000097
300.0001808
300.000161
300.0001076
300.0000882
300.0000489
300.0000501
300.0002009
300.0003362
300.0002604
300.0000459
299.9999802
300.0001017
300.0001922
300.0001604
300.0000922
300.0000531
300.0000078
300.0000161
300.0001954
300.0003902
300.0003237
300.0001097
300.0000623
300.0001629
300.0002013
300.0001724
300.0001502
300.0001572
300.0001381
300.0001221
300.000252
300.0004406
300.0003685
300.0001662
300.0001151
300.0001751
300.0001508
300.0000831
300.0000959
300.0001969
300.0002432
300.0002126
300.0002936
300.0004679
300.0003991
300.0001961
300.0001142
300.0001449
300.0000845
299.9999503
299.9999669
300.0001503
300.0002373
300.0002146
300.0003008
300.0004796
300.0004421
300.0002452
300.0000944
300.0000674
300.0000032
299.999895
299.9999268
300.0000953
300.0001745
300.0001864
300.0003101
300.0004865
300.0004652
300.0003
300.000068
299.9999682
299.9998994
299.9998524
299.9998911
300.0000103
300.0000948
300.0001609
300.00033
300.0004818
300.0004319
300.0003363
300.0001006
299.9999687
299.9998832
299.999842
299.9998931
300.0000109
300.0001006
300.000186
300.0003551
300.0004366
300.0003156
300.000375
300.0002598
300.0001519
300.000058
300.0000274
300.000091
300.000201
300.0002838
300.0003399
300.0004031
300.0003241
300.0001112
300.0002926
300.0003643
300.0003578
300.0003185
300.0003071
300.0003522
300.0004189
300.0004471
300.00042
300.0003164
300.0001233
300.0000488
300.0001646
300.0002759
300.0003689
300.0004288
300.0004714
300.0005244
300.0005424
300.0004875
300.00036
300.0002217
300.0000732
300.0001262
300.0002046
300.0002269
300.0002789
300.000318
300.0003438
300.0003847
300.0004089
300.0003841
300.0003247
300.0003144
300.0001955
300.0001708
300.0000781
300.0000217
300.0000935
300.0001716
300.0001553
300.0001064
300.0000877
300.0000593
300.0000771
300.000221
300.0002694
300.0002175
300.0000536
299.9999828
300.0000825
300.0001713
300.0001432
300.0000764
300.0000369
299.9999985
300.0000217
300.0002012
300.0003313
300.0002796
300.0001113
300.0000546
300.0001411
300.0001804
300.0001525
300.0001287
300.0001326
300.0001151
300.0001131
300.0002492
300.0003859
300.0003192
300.0001684
300.0001096
300.0001565
300.0001325
300.0000659
300.0000769
300.0001729
300.0002194
300.0002036
300.0002935
300.0004128
300.0003489
300.000198
300.0001096
300.0001251
300.0000644
299.9999338
299.9999517
300.0001286
300.0002151
300.0002078
300.0003022
300.000425
300.0003868
300.0002466
300.0000901
300.0000471
299.9999807
299.9998761
299.9999075
300.0000714
300.0001534
300.0001816
300.0003123
300.0004308
300.0003958
300.0003056
300.0000764
299.9999605
299.9998861
299.9998353
299.9998741
299.9999959
300.0000869
300.0001684
300.0003391
300.0004164
300.000351
300.0003459
300.0001311
299.9999802
299.9998841
299.9998388
299.9998906
300.0000117
300.0001102
300.0002156
300.0003687
300.0003614
300.0002458
300.0003776
300.0002746
300.00016
300.000059
300.0000266
300.0000891
300.0002014
300.0002917
300.0003528
300.0004099
300.0002574
300.0000832
300.0002241
300.0002884
300.0002959
300.0002695
300.0002596
300.0003005
300.0003615
300.0003788
300.0003414
300.0002497
300.0000979
300.0000363
300.0001284
300.0002249
300.0003213
300.000382
300.0004233
300.000468
300.0004788
300.0004262
300.0003004
300.0001799
300.0000577
300.0000955
300.0002098
300.0002304
300.0002819
300.000321
300.0003442
300.0003829
300.0004095
300.0003874
300.0003298
300.0003157
300.0001573
300.0001327
300.0000961
300.0000416
300.0000944
300.0001663
300.0001554
300.0001076
300.0000894
300.0000715
300.0001073
300.0002322
300.0002209
300.0001853
300.0000664
299.9999893
300.0000737
300.0001577
300.0001326
300.0000672
300.0000291
299.9999981
300.0000316
300.0002123
300.0002873
300.0002442
300.0001184
300.0000539
300.0001275
300.0001662
300.000139
300.0001155
300.0001176
300.0001011
300.0001088
300.0002539
300.0003409
300.0002832
300.000174
300.0001103
300.0001443
300.0001206
300.0000547
300.000066
300.000158
300.0002033
300.0001999
300.0002959
300.0003705
300.0003105
300.0002037
300.0001103
300.0001131
300.0000517
299.9999257
299.9999438
300.0001147
300.0001988
300.000205
300.0003067
300.0003828
300.0003389
300.0002535
300.0000909
300.0000357
299.9999668
299.9998666
299.9998969
300.0000546
300.0001388
300.0001819
300.0003201
300.0003841
300.0003407
300.0003137
300.0000872
299.9999606
299.9998775
299.9998269
299.9998652
299.9999871
300.0000848
300.0001785
300.0003489
300.0003667
300.0002901
300.0003514
300.0001604
299.9999934
299.9998871
299.99984
299.9998917
300.0000142
300.0001222
300.000242
300.0003774
300.0003041
300.0001993
300.0003769
300.0002836
300.0001716
300.0000658
300.0000288
300.0000905
300.0002063
300.0003002
300.0003605
300.0004101
300.000215
300.000066
300.0001803
300.000232
300.0002493
300.0002291
300.0002232
300.0002603
300.0003125
300.0003257
300.0002823
300.0002077
300.0000814
300.0000297
300.0001035
300.0001877
300.0002817
300.0003465
300.0003839
300.000423
300.0004305
300.000377
300.000256
300.0001524
300.0000471
300.0000771
300.0002087
300.0002332
300.0002841
300.0003227
300.0003454
300.0003815
300.0004085
300.0003876
300.0003317
300.0003134
300.0001312
300.0001075
300.000108
300.0000622
300.0000982
300.0001673
300.0001564
300.0001112
300.0000954
300.0000866
300.0001347
300.0002403
300.0001838
300.0001598
300.0000793
299.9999997
300.0000669
300.0001489
300.0001254
300.0000628
300.0000259
299.9999999
300.0000448
300.0002208
300.000251
300.0002189
300.0001278
300.0000563
300.0001196
300.0001562
300.0001295
300.0001078
300.0001093
300.0000941
300.0001104
300.0002578
300.0003073
300.0002555
300.0001828
300.0001122
300.0001377
300.0001131
300.0000476
300.0000592
300.0001487
300.0001924
300.0001975
300.0002989
300.0003362
300.0002806
300.0002124
300.000113
300.0001065
300.0000443
299.9999222
299.9999409
300.0001051
300.0001879
300.0002045
300.0003118
300.0003488
300.0003051
300.0002618
300.0000947
300.0000284
299.9999602
299.9998627
299.9998919
300.000045
300.0001313
300.000185
300.0003272
300.0003493
300.0002992
300.0003216
300.0001018
299.9999626
299.9998761
299.9998215
299.9998592
299.9999831
300.0000857
300.0001906
300.0003565
300.0003269
300.0002467
300.0003578
300.0001874
300.0000095
299.999895
299.9998435
299.9998945
300.0000206
300.0001366
300.0002651
300.0003837
300.0002623
300.0001698
300.000374
300.0002905