/*--------------------------------*- C++ -*----------------------------------*\
  =========                 |
  \\      /  F ield         | OpenFOAM: The Open Source CFD Toolbox
   \\    /   O peration     | Website:  https://openfoam.org
    \\  /    A nd           | Version:  7
     \\/     M anipulation  |
\*---------------------------------------------------------------------------*/
FoamFile
{
    version     2.0;
    format      ascii;
    class       volScalarField;
    location    "0.00315";
    object      Ux;
}
// * * * * * * * * * * * * * * * * * * * * * * * * * * * * * * * * * * * * * //

dimensions      [0 1 -1 0 0 0 0];

internalField   nonuniform List<scalar> 
5000
(
23.172829
23.172828
23.172828
23.172827
23.172827
23.172827
23.172827
23.172827
23.172827
23.172827
23.172826
23.172826
23.172826
23.172826
23.172825
23.172825
23.172825
23.172825
23.172824
23.172824
23.172824
23.172824
23.172824
23.172824
23.172823
23.172823
23.172823
23.172823
23.172822
23.172822
23.172822
23.172822
23.172822
23.172821
23.172821
23.172821
23.172821
23.172821
23.17282
23.17282
23.17282
23.17282
23.172819
23.172819
23.172819
23.172819
23.172819
23.172819
23.172818
23.172818
23.172818
23.172818
23.172817
23.172817
23.172817
23.172817
23.172817
23.172816
23.172816
23.172816
23.172816
23.172816
23.172815
23.172815
23.172815
23.172815
23.172815
23.172814
23.172814
23.172814
23.172814
23.172813
23.172813
23.172813
23.172813
23.172813
23.172813
23.172812
23.172812
23.172812
23.172812
23.172811
23.172811
23.172811
23.172811
23.172811
23.17281
23.17281
23.17281
23.17281
23.17281
23.172809
23.172809
23.172809
23.172809
23.172809
23.172808
23.172808
23.172808
23.172808
23.172808
23.172807
23.172807
23.172807
23.172807
23.172807
23.172806
23.172806
23.172806
23.172806
23.172806
23.172805
23.172805
23.172805
23.172805
23.172805
23.172804
23.172804
23.172804
23.172804
23.172804
23.172803
23.172803
23.172803
23.172803
23.172803
23.172802
23.172802
23.172802
23.172802
23.172802
23.172801
23.172801
23.172801
23.172801
23.172801
23.1728
23.1728
23.1728
23.1728
23.1728
23.172799
23.172799
23.172799
23.172799
23.172799
23.172798
23.172798
23.172798
23.172798
23.172797
23.172797
23.172797
23.172797
23.172797
23.172796
23.172796
23.172796
23.172796
23.172796
23.172796
23.172796
23.172795
23.172795
23.172795
23.172795
23.172794
23.172794
23.172794
23.172794
23.172793
23.172793
23.172793
23.172793
23.172793
23.172792
23.172792
23.172792
23.172792
23.172792
23.172791
23.172791
23.172791
23.172791
23.172791
23.17279
23.17279
23.17279
23.17279
23.17279
23.172789
23.172789
23.172789
23.172789
23.172789
23.172788
23.172788
23.172788
23.172788
23.172788
23.172787
23.172787
23.172787
23.172787
23.172787
23.172786
23.172786
23.172786
23.172786
23.172786
23.172785
23.172785
23.172785
23.172785
23.172785
23.172785
23.172784
23.172784
23.172784
23.172784
23.172783
23.172783
23.172783
23.172783
23.172783
23.172782
23.172782
23.172782
23.172782
23.172782
23.172782
23.172781
23.172781
23.172781
23.172781
23.172781
23.17278
23.17278
23.17278
23.17278
23.17278
23.172779
23.172779
23.172779
23.172779
23.172779
23.172778
23.172778
23.172778
23.172778
23.172778
23.172777
23.172777
23.172777
23.172777
23.172777
23.172777
23.172776
23.172776
23.172776
23.172776
23.172776
23.172775
23.172775
23.172775
23.172775
23.172775
23.172774
23.172774
23.172774
23.172774
23.172774
23.172773
23.172773
23.172773
23.172773
23.172773
23.172773
23.172772
23.172772
23.172772
23.172772
23.172772
23.172771
23.172771
23.172771
23.172771
23.172771
23.172771
23.17277
23.17277
23.17277
23.17277
23.17277
23.172769
23.172769
23.172769
23.172769
23.172769
23.172769
23.172768
23.172768
23.172768
23.172768
23.172768
23.172767
23.172767
23.172767
23.172767
23.172767
23.172767
23.172766
23.172766
23.172766
23.172766
23.172766
23.172766
23.172765
23.172765
23.172765
23.172765
23.172765
23.172764
23.172764
23.172764
23.172764
23.172764
23.172764
23.172763
23.172763
23.172763
23.172763
23.172763
23.172763
23.172762
23.172762
23.172762
23.172762
23.172762
23.172762
23.172761
23.172761
23.172761
23.172761
23.172761
23.172761
23.17276
23.17276
23.17276
23.17276
23.17276
23.17276
23.172759
23.172759
23.172759
23.172759
23.172759
23.172759
23.172758
23.172758
23.172758
23.172758
23.172758
23.172758
23.172757
23.172757
23.172757
23.172757
23.172757
23.172757
23.172756
23.172756
23.172756
23.172756
23.172756
23.172756
23.172755
23.172755
23.172755
23.172755
23.172755
23.172755
23.172754
23.172754
23.172754
23.172754
23.172754
23.172754
23.172753
23.172753
23.172753
23.172753
23.172753
23.172753
23.172753
23.172752
23.172752
23.172752
23.172752
23.172752
23.172752
23.172751
23.172751
23.172751
23.172751
23.172751
23.172751
23.17275
23.17275
23.17275
23.17275
23.17275
23.17275
23.17275
23.172749
23.172749
23.172749
23.172749
23.172749
23.172749
23.172748
23.172748
23.172748
23.172748
23.172748
23.172748
23.172748
23.172747
23.172747
23.172747
23.172747
23.172747
23.172747
23.172746
23.172746
23.172746
23.172746
23.172746
23.172746
23.172745
23.172745
23.172745
23.172745
23.172745
23.172745
23.172745
23.172744
23.172744
23.172744
23.172744
23.172744
23.172744
23.172743
23.172743
23.172743
23.172743
23.172743
23.172743
23.172743
23.172742
23.172742
23.172742
23.172742
23.172742
23.172742
23.172741
23.172741
23.172741
23.172741
23.172741
23.172741
23.17274
23.17274
23.17274
23.17274
23.17274
23.17274
23.17274
23.172739
23.172739
23.172739
23.172739
23.172739
23.172739
23.172738
23.172738
23.172738
23.172738
23.172738
23.172738
23.172737
23.172737
23.172737
23.172737
23.172737
23.172737
23.172737
23.172736
23.172736
23.172736
23.172736
23.172736
23.172736
23.172735
23.172735
23.172735
23.172735
23.172735
23.172735
23.172734
23.172734
23.172734
23.172734
23.172734
23.172734
23.172734
23.172733
23.172733
23.172733
23.172733
23.172733
23.172733
23.172732
23.172732
23.172732
23.172732
23.172732
23.172732
23.172731
23.172731
23.172731
23.172731
23.172731
23.172731
23.172731
23.17273
23.17273
23.17273
23.17273
23.17273
23.17273
23.172729
23.172729
23.172729
23.172729
23.172729
23.172729
23.172729
23.172728
23.172728
23.172728
23.172728
23.172728
23.172728
23.172727
23.172727
23.172727
23.172727
23.172727
23.172727
23.172726
23.172726
23.172726
23.172726
23.172726
23.172726
23.172726
23.172725
23.172725
23.172725
23.172725
23.172725
23.172725
23.172724
23.172724
23.172724
23.172724
23.172724
23.172724
23.172724
23.172723
23.172723
23.172723
23.172723
23.172723
23.172723
23.172723
23.172722
23.172722
23.172722
23.172722
23.172722
23.172722
23.172721
23.172721
23.172721
23.172721
23.172721
23.172721
23.172721
23.17272
23.17272
23.17272
23.17272
23.17272
23.17272
23.172719
23.172719
23.172719
23.172719
23.172719
23.172719
23.172719
23.172718
23.172718
23.172718
23.172718
23.172718
23.172718
23.172718
23.172717
23.172717
23.172717
23.172717
23.172717
23.172717
23.172717
23.172716
23.172716
23.172716
23.172716
23.172716
23.172716
23.172716
23.172715
23.172715
23.172715
23.172715
23.172715
23.172715
23.172715
23.172714
23.172714
23.172714
23.172714
23.172714
23.172714
23.172714
23.172713
23.172713
23.172713
23.172713
23.172713
23.172713
23.172713
23.172712
23.172712
23.172712
23.172712
23.172712
23.172712
23.172711
23.172711
23.172711
23.172711
23.172711
23.172711
23.172711
23.172711
23.17271
23.17271
23.17271
23.17271
23.17271
23.17271
23.17271
23.172709
23.172709
23.172709
23.172709
23.172709
23.172709
23.172709
23.172708
23.172708
23.172708
23.172708
23.172708
23.172708
23.172708
23.172707
23.172707
23.172707
23.172707
23.172707
23.172707
23.172707
23.172707
23.172706
23.172706
23.172706
23.172706
23.172706
23.172706
23.172706
23.172705
23.172705
23.172705
23.172705
23.172705
23.172705
23.172705
23.172704
23.172704
23.172704
23.172704
23.172704
23.172704
23.172704
23.172704
23.172703
23.172703
23.172703
23.172703
23.172703
23.172703
23.172703
23.172703
23.172702
23.172702
23.172702
23.172702
23.172702
23.172702
23.172702
23.172701
23.172701
23.172701
23.172701
23.172701
23.172701
23.172701
23.172701
23.1727
23.1727
23.1727
23.1727
23.1727
23.1727
23.1727
23.1727
23.172699
23.172699
23.172699
23.172699
23.172699
23.172699
23.172699
23.172698
23.172698
23.172698
23.172698
23.172698
23.172698
23.172698
23.172698
23.172697
23.172697
23.172697
23.172697
23.172697
23.172697
23.172697
23.172697
23.172696
23.172696
23.172696
23.172696
23.172696
23.172696
23.172696
23.172696
23.172696
23.172695
23.172695
23.172695
23.172695
23.172695
23.172695
23.172695
23.172695
23.172694
23.172694
23.172694
23.172694
23.172694
23.172694
23.172694
23.172694
23.172693
23.172693
23.172693
23.172693
23.172693
23.172693
23.172693
23.172693
23.172693
23.172692
23.172692
23.172692
23.172692
23.172692
23.172692
23.172692
23.172692
23.172692
23.172691
23.172691
23.172691
23.172691
23.172691
23.172691
23.172691
23.172691
23.172691
23.17269
23.17269
23.17269
23.17269
23.17269
23.17269
23.17269
23.17269
23.172689
23.172689
23.172689
23.172689
23.172689
23.172689
23.172689
23.172689
23.172689
23.172688
23.172688
23.172688
23.172688
23.172688
23.172688
23.172688
23.172688
23.172687
23.172687
23.172687
23.172687
23.172687
23.172687
23.172687
23.172687
23.172687
23.172686
23.172686
23.172686
23.172686
23.172686
23.172686
23.172686
23.172686
23.172686
23.172685
23.172685
23.172685
23.172685
23.172685
23.172685
23.172685
23.172685
23.172685
23.172684
23.172684
23.172684
23.172684
23.172684
23.172684
23.172684
23.172684
23.172683
23.172683
23.172683
23.172683
23.172683
23.172683
23.172683
23.172683
23.172683
23.172682
23.172682
23.172682
23.172682
23.172682
23.172682
23.172682
23.172682
23.172681
23.172681
23.172681
23.172681
23.172681
23.172681
23.172681
23.172681
23.172681
23.17268
23.17268
23.17268
23.17268
23.17268
23.17268
23.17268
23.17268
23.172679
23.172679
23.172679
23.172679
23.172679
23.172679
23.172679
23.172679
23.172679
23.172678
23.172678
23.172678
23.172678
23.172678
23.172678
23.172678
23.172678
23.172678
23.172677
23.172677
23.172677
23.172677
23.172677
23.172677
23.172677
23.172677
23.172676
23.172676
23.172676
23.172676
23.172676
23.172676
23.172676
23.172676
23.172676
23.172675
23.172675
23.172675
23.172675
23.172675
23.172675
23.172675
23.172675
23.172675
23.172674
23.172674
23.172674
23.172674
23.172674
23.172674
23.172674
23.172674
23.172674
23.172673
23.172673
23.172673
23.172673
23.172673
23.172673
23.172673
23.172673
23.172672
23.172672
23.172672
23.172672
23.172672
23.172672
23.172672
23.172672
23.172672
23.172672
23.172671
23.172671
23.172671
23.172671
23.172671
23.172671
23.172671
23.172671
23.172671
23.17267
23.17267
23.17267
23.17267
23.17267
23.17267
23.17267
23.17267
23.17267
23.17267
23.172669
23.172669
23.172669
23.172669
23.172669
23.172669
23.172669
23.172669
23.172669
23.172669
23.172668
23.172668
23.172668
23.172668
23.172668
23.172668
23.172668
23.172668
23.172668
23.172668
23.172667
23.172667
23.172667
23.172667
23.172667
23.172667
23.172667
23.172667
23.172667
23.172667
23.172666
23.172666
23.172666
23.172666
23.172666
23.172666
23.172666
23.172666
23.172666
23.172666
23.172666
23.172665
23.172665
23.172665
23.172665
23.172665
23.172665
23.172665
23.172665
23.172665
23.172665
23.172664
23.172664
23.172664
23.172664
23.172664
23.172664
23.172664
23.172664
23.172664
23.172664
23.172664
23.172663
23.172663
23.172663
23.172663
23.172663
23.172663
23.172663
23.172663
23.172663
23.172663
23.172663
23.172662
23.172662
23.172662
23.172662
23.172662
23.172662
23.172662
23.172662
23.172662
23.172662
23.172661
23.172661
23.172661
23.172661
23.172661
23.172661
23.172661
23.172661
23.172661
23.172661
23.172661
23.17266
23.17266
23.17266
23.17266
23.17266
23.17266
23.17266
23.17266
23.17266
23.17266
23.172659
23.172659
23.172659
23.172659
23.172659
23.172659
23.172659
23.172659
23.172659
23.172659
23.172658
23.172658
23.172658
23.172658
23.172658
23.172658
23.172658
23.172658
23.172658
23.172658
23.172657
23.172657
23.172657
23.172657
23.172657
23.172657
23.172657
23.172657
23.172657
23.172656
23.172656
23.172656
23.172656
23.172656
23.172656
23.172656
23.172656
23.172656
23.172656
23.172655
23.172655
23.172655
23.172655
23.172655
23.172655
23.172655
23.172655
23.172655
23.172655
23.172654
23.172654
23.172654
23.172654
23.172654
23.172654
23.172654
23.172654
23.172654
23.172654
23.172653
23.172653
23.172653
23.172653
23.172653
23.172653
23.172653
23.172653
23.172653
23.172652
23.172652
23.172652
23.172652
23.172652
23.172652
23.172652
23.172652
23.172652
23.172652
23.172651
23.172651
23.172651
23.172651
23.172651
23.172651
23.172651
23.172651
23.172651
23.172651
23.17265
23.17265
23.17265
23.17265
23.17265
23.17265
23.17265
23.17265
23.17265
23.17265
23.172649
23.172649
23.172649
23.172649
23.172649
23.172649
23.172649
23.172649
23.172649
23.172649
23.172648
23.172648
23.172648
23.172648
23.172648
23.172648
23.172648
23.172648
23.172648
23.172648
23.172648
23.172647
23.172647
23.172647
23.172647
23.172647
23.172647
23.172647
23.172647
23.172647
23.172647
23.172646
23.172646
23.172646
23.172646
23.172646
23.172646
23.172646
23.172646
23.172646
23.172646
23.172646
23.172645
23.172645
23.172645
23.172645
23.172645
23.172645
23.172645
23.172645
23.172645
23.172645
23.172645
23.172644
23.172644
23.172644
23.172644
23.172644
23.172644
23.172644
23.172644
23.172644
23.172644
23.172644
23.172643
23.172643
23.172643
23.172643
23.172643
23.172643
23.172643
23.172643
23.172643
23.172643
23.172643
23.172642
23.172642
23.172642
23.172642
23.172642
23.172642
23.172642
23.172642
23.172642
23.172642
23.172642
23.172642
23.172641
23.172641
23.172641
23.172641
23.172641
23.172641
23.172641
23.172641
23.172641
23.172641
23.172641
23.172641
23.17264
23.17264
23.17264
23.17264
23.17264
23.17264
23.17264
23.17264
23.17264
23.17264
23.17264
23.17264
23.172639
23.172639
23.172639
23.172639
23.172639
23.172639
23.172639
23.172639
23.172639
23.172639
23.172639
23.172639
23.172638
23.172638
23.172638
23.172638
23.172638
23.172638
23.172638
23.172638
23.172638
23.172638
23.172638
23.172638
23.172638
23.172637
23.172637
23.172637
23.172637
23.172637
23.172637
23.172637
23.172637
23.172637
23.172637
23.172637
23.172637
23.172637
23.172636
23.172636
23.172636
23.172636
23.172636
23.172636
23.172636
23.172636
23.172636
23.172636
23.172636
23.172636
23.172636
23.172635
23.172635
23.172635
23.172635
23.172635
23.172635
23.172635
23.172635
23.172635
23.172635
23.172635
23.172635
23.172635
23.172635
23.172634
23.172634
23.172634
23.172634
23.172634
23.172634
23.172634
23.172634
23.172634
23.172634
23.172634
23.172634
23.172634
23.172634
23.172633
23.172633
23.172633
23.172633
23.172633
23.172633
23.172633
23.172633
23.172633
23.172633
23.172633
23.172633
23.172633
23.172632
23.172632
23.172632
23.172632
23.172632
23.172632
23.172632
23.172632
23.172632
23.172632
23.172632
23.172632
23.172632
23.172632
23.172631
23.172631
23.172631
23.172631
23.172631
23.172631
23.172631
23.172631
23.172631
23.172631
23.172631
23.172631
23.172631
23.172631
23.172631
23.17263
23.17263
23.17263
23.17263
23.17263
23.17263
23.17263
23.17263
23.17263
23.17263
23.17263
23.17263
23.17263
23.17263
23.17263
23.172629
23.172629
23.172629
23.172629
23.172629
23.172629
23.172629
23.172629
23.172629
23.172629
23.172629
23.172629
23.172629
23.172629
23.172629
23.172628
23.172628
23.172628
23.172628
23.172628
23.172628
23.172628
23.172628
23.172628
23.172628
23.172628
23.172628
23.172628
23.172628
23.172628
23.172628
23.172628
23.172628
23.172627
23.172627
23.172627
23.172627
23.172627
23.172627
23.172627
23.172627
23.172627
23.172627
23.172627
23.172627
23.172627
23.172627
23.172627
23.172627
23.172627
23.172627
23.172627
23.172626
23.172626
23.172626
23.172626
23.172626
23.172626
23.172626
23.172626
23.172626
23.172626
23.172626
23.172626
23.172626
23.172626
23.172626
23.172626
23.172626
23.172626
23.172626
23.172626
23.172626
23.172626
23.172625
23.172625
23.172625
23.172625
23.172625
23.172625
23.172625
23.172625
23.172625
23.172625
23.172625
23.172625
23.172625
23.172625
23.172625
23.172625
23.172625
23.172625
23.172625
23.172625
23.172625
23.172625
23.172625
23.172625
23.172625
23.172625
23.172625
23.172624
23.172624
23.172624
23.172624
23.172624
23.172624
23.172624
23.172624
23.172624
23.172624
23.172624
23.172624
23.172624
23.172624
23.172624
23.172624
23.172624
23.172624
23.172624
23.172624
23.172624
23.172624
23.172624
23.172624
23.172624
23.172624
23.172624
23.172624
23.172624
23.172624
23.172624
23.172624
23.172624
23.172624
23.172624
23.172624
23.172624
23.172624
23.172624
23.172624
23.172624
23.172624
23.172624
23.172624
23.172624
23.172624
23.172624
23.172624
23.172624
23.172624
23.172624
23.172624
23.172624
23.172624
23.172624
23.172624
23.172624
23.172624
23.172624
23.172624
23.172624
23.172624
23.172624
23.172624
23.172624
23.172624
23.172624
23.172624
23.172624
23.172624
23.172624
23.172624
23.172624
23.172624
23.172624
23.172624
23.172624
23.172624
23.172624
23.172624
23.172624
23.172624
23.172624
23.172624
23.172624
23.172624
23.172624
23.172624
23.172624
23.172624
23.172624
23.172624
23.172624
23.172624
23.172624
23.172624
23.172624
23.172624
23.172625
23.172625
23.172625
23.172625
23.172625
23.172625
23.172625
23.172625
23.172625
23.172625
23.172625
23.172626
23.172626
23.172626
23.172626
23.172626
23.172626
23.172626
23.172627
23.172627
23.172627
23.172627
23.172627
23.172627
23.172628
23.172628
23.172628
23.172628
23.172629
23.172629
23.172629
23.172629
23.17263
23.17263
23.17263
23.17263
23.172631
23.172631
23.172631
23.172632
23.172632
23.172633
23.172633
23.172633
23.172634
23.172634
23.172635
23.172635
23.172636
23.172636
23.172637
23.172637
23.172638
23.172638
23.172639
23.172639
23.17264
23.172641
23.172641
23.172642
23.172643
23.172644
23.172644
23.172645
23.172646
23.172647
23.172648
23.172649
23.17265
23.172651
23.172652
23.172653
23.172654
23.172655
23.172656
23.172658
23.172659
23.17266
23.172662
23.172663
23.172665
23.172666
23.172668
23.172669
23.172671
23.172673
23.172675
23.172677
23.172679
23.172681
23.172683
23.172685
23.172687
23.17269
23.172692
23.172695
23.172697
23.1727
23.172703
23.172706
23.172709
23.172712
23.172715
23.172718
23.172722
23.172726
23.172729
23.172733
23.172737
23.172741
23.172745
23.17275
23.172754
23.172759
23.172764
23.172769
23.172774
23.172779
23.172785
23.172791
23.172796
23.172803
23.172809
23.172815
23.172822
23.172829
23.172836
23.172844
23.172851
23.172859
23.172868
23.172876
23.172885
23.172894
23.172903
23.172913
23.172923
23.172933
23.172944
23.172955
23.172966
23.172978
23.17299
23.173002
23.173015
23.173028
23.173042
23.173056
23.173071
23.173086
23.173101
23.173117
23.173134
23.173151
23.173168
23.173186
23.173205
23.173224
23.173244
23.173264
23.173285
23.173307
23.173329
23.173352
23.173376
23.173401
23.173426
23.173452
23.173478
23.173506
23.173534
23.173564
23.173594
23.173625
23.173657
23.17369
23.173724
23.173758
23.173794
23.173831
23.173869
23.173908
23.173949
23.17399
23.174033
23.174077
23.174122
23.174168
23.174216
23.174265
23.174316
23.174368
23.174421
23.174476
23.174533
23.174591
23.17465
23.174712
23.174775
23.17484
23.174907
23.174975
23.175046
23.175118
23.175192
23.175269
23.175347
23.175428
23.175511
23.175596
23.175683
23.175773
23.175865
23.175959
23.176056
23.176156
23.176258
23.176363
23.176471
23.176582
23.176695
23.176812
23.176931
23.177054
23.177179
23.177308
23.177441
23.177576
23.177715
23.177858
23.178004
23.178155
23.178308
23.178466
23.178628
23.178793
23.178963
23.179137
23.179315
23.179498
23.179685
23.179877
23.180074
23.180275
23.180481
23.180692
23.180908
23.18113
23.181356
23.181588
23.181826
23.182069
23.182318
23.182573
23.182834
23.1831
23.183374
23.183653
23.183939
23.184231
23.18453
23.184836
23.185149
23.185469
23.185796
23.186131
23.186473
23.186823
23.18718
23.187546
23.187919
23.188301
23.188691
23.18909
23.189497
23.189913
23.190338
23.190772
23.191216
23.191669
23.192131
23.192603
23.193086
23.193578
23.194081
23.194594
23.195117
23.195652
23.196197
23.196754
23.197322
23.197901
23.198493
23.199096
23.199711
23.200338
23.200978
23.20163
23.202296
23.202974
23.203666
23.204371
23.205089
23.205821
23.206568
23.207328
23.208103
23.208893
23.209698
23.210517
23.211352
23.212202
23.213068
23.213949
23.214847
23.215761
23.216692
23.217639
23.218604
23.219585
23.220584
23.2216
23.222635
23.223687
23.224757
23.225846
23.226954
23.228081
23.229227
23.230392
23.231576
23.232781
23.234005
23.23525
23.236515
23.237801
23.239108
23.240436
23.241785
23.243156
23.244549
23.245964
23.247401
23.24886
23.250342
23.251847
23.253375
23.254926
23.256501
23.2581
23.259722
23.261369
23.26304
23.264735
23.266456
23.268201
23.269972
23.271768
23.273589
23.275436
23.27731
23.279209
23.281135
23.283087
23.285066
23.287072
23.289105
23.291165
23.293253
23.295368
23.297511
23.299682
23.301881
23.304109
23.306364
23.308649
23.310962
23.313304
23.315675
23.318075
23.320504
23.322963
23.325451
23.327969
23.330517
23.333094
23.335702
23.338339
23.341007
23.343705
23.346434
23.349193
23.351982
23.354802
23.357653
23.360535
23.363447
23.36639
23.369365
23.37237
23.375406
23.378473
23.381572
23.384701
23.387862
23.391053
23.394276
23.39753
23.400815
23.404131
23.407478
23.410857
23.414266
23.417706
23.421178
23.42468
23.428213
23.431776
23.435371
23.438996
23.442652
23.446338
23.450054
23.453801
23.457578
23.461385
23.465222
23.469088
23.472985
23.47691
23.480865
23.48485
23.488863
23.492905
23.496976
23.501076
23.505203
23.509359
23.513543
23.517754
23.521993
23.526259
23.530552
23.534872
23.539218
23.543591
23.547989
23.552413
23.556863
23.561338
23.565838
23.570363
23.574911
23.579484
23.584081
23.588701
23.593343
23.598009
23.602697
23.607407
23.612139
23.616892
23.621666
23.62646
23.631275
23.63611
23.640964
23.645837
23.650728
23.655638
23.660566
23.665512
23.670474
23.675453
23.680448
23.685459
23.690485
23.695526
23.700581
23.705651
23.710734
23.71583
23.720938
23.726059
23.731191
23.736334
23.741488
23.746653
23.751827
23.75701
23.762202
23.767402
23.77261
23.777826
23.783048
23.788276
23.79351
23.798749
23.803993
23.809241
23.814493
23.819748
23.825005
23.830265
23.835526
23.840788
23.846051
23.851314
23.856577
23.861838
23.867098
23.872356
23.877611
23.882863
23.888111
23.893355
23.898595
23.903829
23.909058
23.91428
23.919496
23.924704
23.929904
23.935096
23.940279
23.945453
23.950617
23.955771
23.960914
23.966045
23.971165
23.976272
23.981366
23.986447
23.991514
23.996567
24.001605
24.006628
24.011635
24.016625
24.021599
24.026556
24.031496
24.036417
24.04132
24.046204
24.051069
24.055913
24.060738
24.065542
24.070325
24.075087
24.079826
24.084544
24.089238
24.09391
24.098558
24.103183
24.107783
24.112359
24.11691
24.121436
24.125936
24.13041
24.134858
24.13928
24.143675
24.148042
24.152382
24.156694
24.160979
24.165234
24.169462
24.17366
24.177829
24.181969
24.186079
24.19016
24.19421
24.19823
24.202219
24.206178
24.210106
24.214003
24.217868
24.221702
24.225504
24.229275
24.233013
24.23672
24.240394
24.244036
24.247645
24.251222
24.254766
24.258277
24.261755
24.265201
24.268613
24.271992
24.275338
24.278651
24.28193
24.285176
24.288389
24.291568
24.294714
24.297827
24.300906
24.303952
24.306964
24.309943
24.312889
24.315801
24.31868
24.321526
24.324339
24.327118
24.329865
24.332579
24.335259
24.337907
24.340522
24.343104
24.345654
24.348171
24.350657
24.35311
24.355531
24.35792
24.360277
24.362603
24.364897
24.367159
24.369391
24.371591
24.373761
24.375899
24.378008
24.380086
24.382134
24.384152
24.38614
24.388098
24.390027
24.391927
24.393798
24.39564
24.397454
24.399239
24.400997
24.402726
24.404428
24.406102
24.407749
24.409369
24.410962
24.412529
24.41407
24.415585
24.417074
24.418537
24.419975
24.421388
24.422777
24.42414
24.42548
24.426796
24.428088
24.429357
24.430602
24.431825
24.433024
24.434201
24.435356
24.436489
24.437601
24.438692
24.439761
24.44081
24.441837
24.442845
24.443832
24.4448
24.445748
24.446678
24.447588
24.448479
24.449352
24.450206
24.451043
24.451862
24.452665
24.45345
24.454217
24.454968
24.455702
24.456421
24.457124
24.457811
24.458483
24.45914
24.459781
24.460408
24.461021
24.461619
24.462205
24.462776
24.463333
24.463877
24.464408
24.464927
24.465433
24.465928
24.466409
24.466879
24.467337
24.467783
24.46822
24.468645
24.469059
24.469461
24.469854
24.470237
24.47061
24.470974
24.471327
24.471671
24.472005
24.472331
24.472649
24.472958
24.473258
24.473549
24.473833
24.474109
24.474377
24.474638
24.474891
24.475136
24.475375
24.475607
24.475832
24.476051
24.476263
24.476468
24.476668
24.476861
24.477049
24.47723
24.477407
24.477578
24.477743
24.477903
24.478058
24.478208
24.478353
24.478494
24.47863
24.478761
24.478888
24.479011
24.479129
24.479244
24.479354
24.479461
24.479564
24.479663
24.479759
24.479851
24.47994
24.480025
24.480108
24.480187
24.480263
24.480336
24.480406
24.480474
24.480539
24.480601
24.480661
24.480718
24.480772
24.480824
24.480874
24.480922
24.480968
24.481011
24.481052
24.481092
24.481129
24.481164
24.481198
24.48123
24.48126
24.481288
24.481315
24.481339
24.481363
24.481385
24.481405
24.481424
24.481441
24.481457
24.481472
24.481486
24.481498
24.481509
24.481518
24.481527
24.481534
24.48154
24.481545
24.481549
24.481552
24.481553
24.481554
24.481555
24.481555
24.481553
24.481551
24.481547
24.481542
24.481536
24.481529
24.481521
24.481513
24.481503
24.481493
24.481482
24.48147
24.481457
24.481443
24.481428
24.481413
24.481397
24.48138
24.481362
24.481343
24.481324
24.481303
24.481282
24.481261
24.481238
24.481214
24.48119
24.481165
24.481139
24.481112
24.481084
24.481056
24.481026
24.480996
24.480965
24.480933
24.4809
24.480866
24.480831
24.480796
24.480759
24.480722
24.480683
24.480644
24.480604
24.480563
24.480521
24.480477
24.480433
24.480387
24.480341
24.480293
24.480244
24.480194
24.480144
24.480092
24.480039
24.479984
24.479929
24.479872
24.479814
24.479755
24.479694
24.479632
24.479569
24.479505
24.479439
24.479371
24.479303
24.479232
24.479161
24.479088
24.479013
24.478937
24.47886
24.47878
24.4787
24.478617
24.478533
24.478448
24.47836
24.478271
24.47818
24.478087
24.477992
24.477896
24.477798
24.477698
24.477596
24.477491
24.477385
24.477277
24.477166
24.477054
24.476939
24.476823
24.476704
24.476583
24.47646
24.476335
24.476207
24.476077
24.475944
24.475809
24.475671
24.475532
24.475389
24.475244
24.475097
24.474946
24.474793
24.474637
24.474479
24.474318
24.474154
24.473987
24.473817
24.473645
24.473469
24.47329
24.473109
24.472924
24.472736
24.472545
24.472351
24.472153
24.471952
24.471748
24.471541
24.47133
24.471116
24.470898
24.470676
24.470451
24.470223
24.46999
24.469755
24.469515
24.469272
24.469024
24.468773
24.468518
24.468259
24.467996
24.467729
24.467458
24.467183
24.466904
24.46662
24.466333
24.46604
24.465744
24.465443
24.465137
24.464828
24.464513
24.464195
24.463871
24.463543
24.46321
24.462873
24.46253
24.462183
24.461831
24.461474
24.461112
24.460745
24.460373
24.459996
24.459613
24.459226
24.458833
24.458435
24.458032
24.457623
24.457209
24.45679
24.456364
24.455934
24.455497
24.455056
24.454608
24.454155
24.453696
24.453231
24.45276
24.452284
24.451801
24.451313
24.450819
24.450318
24.449811
24.449298
24.448779
24.448254
24.447722
24.447184
24.44664
24.446089
24.445532
24.444969
24.444399
24.443822
24.443239
24.442649
24.442052
24.441449
24.440839
24.440222
24.439598
24.438967
24.43833
24.437685
24.437034
24.436376
24.43571
24.435037
24.434358
24.433671
24.432976
24.432275
24.431567
24.430851
24.430128
24.429397
24.428659
24.427914
24.427161
24.426401
24.425633
24.424858
24.424075
24.423285
24.422487
24.421681
24.420867
24.420046
24.419217
24.418381
24.417536
24.416684
24.415825
24.414957
24.414081
24.413198
24.412306
24.411407
24.410499
24.409584
24.408661
24.40773
24.406791
24.405843
24.404888
24.403925
24.402953
24.401974
24.400986
24.39999
24.398986
24.397975
24.396954
24.395926
24.39489
24.393845
24.392792
24.391731
24.390662
24.389584
24.388499
24.387405
24.386303
24.385193
24.384075
24.382948
24.381813
24.38067
24.379519
24.37836
24.377192
24.376017
24.374832
24.37364
24.37244
24.371232
24.370015
24.36879
24.367557
24.366316
24.365067
24.36381
24.362544
24.361271
24.359989
24.358699
24.357402
24.356096
24.354781
24.353459
24.352128
24.350789
24.349442
24.348087
24.346723
24.345352
24.343974
24.342587
24.341193
24.339792
24.338382
24.336964
24.335536
24.334097
24.332648
24.331188
24.329717
24.328238
24.326751
24.32526
24.323766
24.322272
24.320776
24.319274
24.317763
24.316242
24.314712
24.313179
24.311643
24.310116
24.3086
24.307079
24.305543
24.303985
24.302402
24.3008
24.299184
24.297563
24.295939
24.294313
24.292685
24.291055
24.289423
24.287789
24.28615
24.2845
24.282839
24.281171
24.279498
24.277823
24.276144
24.274459
24.272765
24.271062
24.269353
24.267638
24.265921
24.264202
24.262479
24.260761
24.259064
24.257413
24.25592
24.254141
24.251964
24.250163
24.248466
24.246699
24.244892
24.243103
24.241314
24.239513
24.237705
24.235892
24.234077
24.232257
24.230432
24.228603
24.22677
24.224934
24.223094
24.221252
24.219405
24.217555
24.2157
24.213842
24.21198
24.210115
24.208246
24.206374
24.204499
24.20262
24.200738
24.198853
24.196966
24.195075
24.193182
24.191286
24.189387
24.187486
24.185583
24.183677
24.181768
24.179857
24.177945
24.17603
24.174113
24.172194
24.170274
24.168351
24.166426
24.1645
24.162572
24.160643
24.158709
24.156769
24.154837
24.15291
24.150977
24.149037
24.147098
24.145159
24.143219
24.141278
24.139336
24.137393
24.13545
24.133506
24.131561
24.129616
24.127671
24.125725
24.12378
24.121834
24.119888
24.117942
24.115996
24.11405
24.112105
24.11016
24.108215
24.10627
24.104326
24.102383
24.10044
24.098498
24.096557
24.094617
24.092677
24.090739
24.088801
24.086865
24.08493
24.082996
24.081064
24.079133
24.077203
24.075275
24.073348
24.071424
24.0695
24.067579
24.065659
24.063742
24.061826
24.059913
24.058001
24.056092
24.054185
24.05228
24.050378
24.048478
24.04658
24.044685
24.042793
24.040903
24.039016
24.037132
24.03525
24.033372
24.031496
24.029624
24.027754
24.025888
24.024024