/*--------------------------------*- C++ -*----------------------------------*\
  =========                 |
  \\      /  F ield         | OpenFOAM: The Open Source CFD Toolbox
   \\    /   O peration     | Website:  https://openfoam.org
    \\  /    A nd           | Version:  7
     \\/     M anipulation  |
\*---------------------------------------------------------------------------*/
FoamFile
{
    version     2.0;
    format      ascii;
    class       volScalarField;
    location    "0.00315";
    object      Uz;
}
// * * * * * * * * * * * * * * * * * * * * * * * * * * * * * * * * * * * * * //

dimensions      [0 1 -1 0 0 0 0];

internalField   nonuniform List<scalar> 
5000
(
0
0
0
0
0
-8.6048419e-22
-1.6588599e-36
2.3115879e-21
8.4910563e-22
-1.7844269e-21
-1.8173448e-21
9.1317865e-22
-7.7960924e-36
-8.0546737e-36
1.8247775e-21
-1.8180913e-21
-1.9067052e-51
-7.924401e-36
-8.9402655e-22
1.7771601e-21
8.8358048e-22
0
0
-8.6770062e-22
7.4412845e-36
-7.2700507e-36
-8.8997836e-22
8.9505708e-22
8.9792229e-22
-8.9985145e-22
1.572292e-35
-7.6392584e-36
-8.9097359e-22
8.859146e-22
8.8208677e-22
0
0
-8.7341014e-22
-8.7775125e-22
8.8387027e-22
-1.4920257e-35
-8.928652e-22
8.9290334e-22
-1.5043813e-35
-8.8302514e-22
8.7705766e-22
-2.9937413e-35
2.9612294e-35
-2.977296e-35
1.4891177e-35
8.8223043e-22
0
0
0
0
0
0
0
0
0
0
0
0
-8.7227477e-22
-8.6218574e-22
8.5318429e-22
-1.4685914e-35
2.7800139e-52
8.7877959e-22
0
0
-8.7335508e-22
-8.6513572e-22
0
8.5229998e-22
2.9741425e-35
-8.7371081e-22
-8.8242425e-22
8.8203207e-22
1.7490522e-21
-1.7356863e-21
4.8919582e-37
2.5666976e-21
-1.7190234e-21
-9.0382704e-35
1.7561784e-21
-2.6421794e-21
8.7591691e-22
8.6963023e-22
-8.6367967e-22
8.5825919e-22
8.580919e-22
3.010671e-35
-1.7474969e-21
-6.0816827e-35
-8.7617286e-22
-8.6987279e-22
-3.0341651e-35
5.9795179e-35
1.7131335e-21
8.6220992e-22
-8.7102594e-22
1.2452221e-37
8.7509851e-22
0
-8.6687699e-22
-3.0052385e-35
8.6185311e-22
-8.6579663e-22
-8.7028463e-22
1.7439297e-21
8.7071807e-22
-2.6033405e-21
-8.6512529e-22
2.5951203e-21
-8.688422e-22
-8.7186574e-22
-4.9546425e-37
-8.693301e-22
2.5980174e-21
-6.0352011e-35
-1.7265926e-21
1.7345055e-21
8.711594e-22
-8.7225541e-22
8.7090249e-22
-8.6908573e-22
-1.735046e-21
8.6701921e-22
3.0001942e-35
8.7078125e-22
1.7429463e-21
-8.7111765e-22
-8.7027263e-22
-8.6965734e-22
-3.027995e-35
-3.0169117e-35
3.0297575e-35
1.7399428e-21
8.6952663e-22
-8.6930231e-22
-1.7396555e-21
-8.7093061e-22
-8.7179779e-22
6.0513482e-35
1.7433858e-21
-2.4776709e-37
2.4849582e-37
4.7610764e-52
8.7344824e-22
-6.0399331e-35
1.2075093e-34
8.6190841e-22
-8.5598538e-22
8.4976309e-22
2.9261224e-35
-8.4034789e-22
8.3866759e-22
-1.2001221e-37
-7.9669235e-22
0
7.9639043e-22
6.0214158e-35
-1.817381e-21
7.6131081e-22
-2.11348e-37
-8.289033e-22
8.6123735e-22
-8.5344539e-22
8.5501039e-22
-3.5745791e-34
-2.3701706e-34
8.5039793e-22
-1.7018725e-21
0
-6.029738e-35
-1.8169521e-34
8.6963756e-22
8.6441133e-22
5.922914e-35
-8.5561474e-22
8.5702547e-22
5.9345167e-35
3.6983479e-37
1.2025584e-34
-1.7325108e-21
8.642476e-22
8.6310026e-22
-5.9387472e-35
5.9591531e-35
-1.7964628e-34
5.9486511e-35
-8.5795973e-22
0
0
0
0
-8.6032012e-22
1.7805505e-34
8.4874301e-22
8.4954448e-22
-8.5715428e-22
-8.6349234e-22
1.7274313e-21
5.9451369e-35
-1.7707738e-34
-8.4681902e-22
-8.4529876e-22
8.5170166e-22
0
8.6378863e-22
5.9503903e-35
-8.545463e-22
-8.4913365e-22
1.1769201e-34
8.4709889e-22
-1.7077631e-21
8.5893878e-22
8.5845315e-22
-8.5431644e-22
8.496773e-22
0
0
0
8.5424692e-22
-8.5713879e-22
-1.7078984e-21
8.4950211e-22
-5.8722263e-35
8.4155821e-22
8.4272041e-22
-1.6959243e-21
2.4198064e-37
-2.4172993e-37
8.4766528e-22
8.4393051e-22
-1.6817557e-21
1.1949093e-37
-1.7589518e-34
8.4708523e-22
-4.7028084e-34
-1.1717907e-34
8.4250331e-22
-8.4084349e-22
0
-8.4190442e-22
8.4257403e-22
8.4200334e-22
-8.4081659e-22
0
-8.3971862e-22
8.3849911e-22
8.3687983e-22
-2.8945568e-34
-1.6615127e-21
-1.6611084e-21
2.5021137e-21
1.6719836e-21
0
-1.6624001e-21
-8.2659959e-22
8.2278064e-22
8.2309992e-22
8.277358e-22
-1.6617439e-21
-1.6597388e-21
8.267277e-22
1.6451439e-21
2.2720781e-34
-1.6372841e-21
8.2192001e-22
-1.1440789e-34
-8.2487401e-22
1.6455162e-21
-8.2036176e-22
1.1398576e-34
8.1749383e-22
-8.1788147e-22
8.1842367e-22
-1.6364876e-21
3.410927e-34
1.63293e-21
-1.6307087e-21
-5.6329508e-35
8.120609e-22
0
0
8.0955401e-22
-8.0993457e-22
-1.6167879e-21
8.062026e-22
-2.2816444e-37
7.9981592e-22
8.0004268e-22
-8.0308161e-22
0
-8.0235536e-22
-7.9863178e-22
0
1.5825903e-21
7.9260391e-22
-1.5930073e-21
5.5245535e-35
-2.2614227e-37
7.9199207e-22
7.880401e-22
-7.8496632e-22
7.862854e-22
-7.901817e-22
4.501776e-37
1.5791477e-21
-7.8613431e-22
-7.8289269e-22
-7.8026234e-22
-1.0821924e-34
7.8241294e-22
0
0
-7.8126585e-22
1.0815091e-34
-2.1555e-34
-1.076418e-34
7.7409148e-22
-7.7559663e-22
1.1032747e-37
7.7514013e-22
0
0
0
0
0
0
0
-7.6673154e-22
0
7.6266886e-22
0
-7.6336924e-22
-2.1163703e-34
7.6157189e-22
0
0
-7.5827467e-22
-1.0537686e-34
7.5761789e-22
0
0
-7.5012793e-22
-7.5108726e-22
7.5273523e-22
7.5270841e-22
0
-7.4675861e-22
1.0559643e-37
7.4203286e-22
-7.4530053e-22
-7.4815821e-22
7.4779661e-22
7.4503535e-22
0
-7.3762257e-22
-7.3661223e-22
7.3952382e-22
7.4278326e-22
0
-7.4151626e-22
-7.3937311e-22
7.3764329e-22
7.3639723e-22
0
0
0
0
0
0
0
0
-7.2904009e-22
1.1421302e-51
7.3046569e-22
0
0
0
-7.2637958e-22
-1.0037185e-34
7.2403997e-22
-7.2690328e-22
1.0123977e-34
-1.0348415e-37
-1.0074477e-34
7.226678e-22
-7.2084365e-22
7.2316174e-22
-4.0316834e-34
-7.2530413e-22
7.2362236e-22
0
0
-7.1929519e-22
-1.0026496e-34
7.2344741e-22
-7.218588e-22
-7.1772397e-22
0
7.1324716e-22
7.1837721e-22
-7.219821e-22
-2.0021361e-34
8.6851027e-52
-9.9017802e-35
7.0876864e-22
-7.1010173e-22
1.4413984e-51
-1.0016815e-34
-7.2086403e-22
0
0
7.0755695e-22
1.0064459e-37
-2.9733961e-34
7.2050074e-22
0
0
-7.1462663e-22
1.9692121e-34
7.0809553e-22
0
0
0
-7.2013145e-22
1.0184154e-37
7.1296675e-22
-7.1009596e-22
7.1152895e-22
-1.9922134e-34
-1.4408183e-21
7.2037372e-22
2.9922366e-34
9.9329248e-35
-9.8965916e-35
-7.1292736e-22
0
0
7.2083812e-22
9.9926791e-35
-1.9913116e-34
-7.8393064e-53
-7.1574645e-22
7.1874005e-22
7.2158112e-22
0
-7.2042002e-22
-9.9808541e-35
7.1776048e-22
0
0
-7.2215996e-22
2.0521678e-37
-1.2564376e-53
-7.1982459e-22
7.2055519e-22
-1.0004013e-34
1.0037996e-34
-2.0068815e-34
-7.2196374e-22
7.2107193e-22
-2.0053338e-34
2.0099108e-34
-2.0105015e-34
-7.2319427e-22
7.2113443e-22
-1.9986628e-34
1.003249e-34
0
-7.2597605e-22
7.2512948e-22
-1.0035403e-34
1.0230073e-37
-9.9716067e-35
1.002453e-34
7.2564467e-22
-7.2762049e-22
-7.2633805e-22
7.2386853e-22
7.2118844e-22
0
-7.2319011e-22
-7.2680169e-22
0
7.2753852e-22
-1.0074875e-34
1.0289725e-37
1.0044854e-34
-7.263272e-22
7.2858933e-22
1.0111783e-34
-2.0219037e-34
-7.272946e-22
-7.2731858e-22
1.4560166e-21
-1.0354973e-37
1.01073e-34
7.2743891e-22
-7.2627968e-22
1.0094503e-34
7.2849048e-22
0
0
0
-7.2444488e-22
-7.2449463e-22
7.2773623e-22
7.3040251e-22
0
-7.2786055e-22
-7.2513907e-22
7.2302621e-22
7.2462791e-22
0
-7.3023461e-22
-7.2915996e-22
7.2665888e-22
2.0098846e-34
-7.2242052e-22
0
0
0
0
7.2526042e-22
-2.0045667e-34
-7.2237839e-22
7.2573434e-22
1.0113961e-34
-1.0122837e-34
9.4872659e-53
7.2445811e-22
7.225289e-22
-1.4468015e-21
-1.0075824e-34
1.0087275e-34
-7.2667557e-22
0
7.2220329e-22
7.2157142e-22
-7.2406191e-22
-2.0147586e-34
7.2570225e-22
0
0
-7.1921498e-22
9.9923655e-35
7.230596e-22
0
-7.2335105e-22
1.0241862e-37
-1.9936902e-34
-9.9451541e-35
7.1982e-22
-7.2218684e-22
1.0259465e-37
-2.0004617e-34
-7.1752183e-22
7.1517169e-22
1.9880271e-34
1.0213084e-37
-1.0003439e-34
-7.1938769e-22
7.1676454e-22
0
-3.9538414e-34
-9.9122417e-35
-2.984263e-34
-1.0194535e-37
-7.1567885e-22
7.121666e-22
-3.6644196e-52
-9.8436064e-35
1.9797931e-34
-9.9372982e-35
1.4295684e-21
-7.1239474e-22
-7.0806185e-22
-9.78783e-35
9.8133151e-35
1.4217288e-21
-7.1340933e-22
-7.1221634e-22
8.9210802e-53
0
-9.944474e-53
-7.0589754e-22
7.0835458e-22
1.6111416e-52
-9.8077259e-35
-9.9894932e-38
-6.9911711e-22
1.3987242e-21
1.9563318e-34
-7.0747493e-22
9.78482e-35
-9.7365434e-35
6.9583669e-22
-6.9111894e-22
7.7754534e-52
-2.922613e-34
1.9593268e-34
-1.9498144e-34
-1.937067e-34
-1.4069584e-53
0
6.8464257e-22
0
0
-7.0525826e-22
-1.9370012e-34
6.8959851e-22
0
0
-1.3599242e-21
-5.7627516e-34
1.4013765e-21
-7.0196387e-22
9.914005e-38
-9.6071277e-35
-6.876472e-22
0
0
0
-6.8899875e-22
-1.9244387e-34
6.9623718e-22
0
0
-6.9028465e-22
9.7800148e-38
6.8589032e-22
0
0
-6.8767639e-22
-1.914133e-34
-1.918454e-34
1.9151702e-34
6.8898097e-22
-6.8905812e-22
1.9111182e-34
-1.9048009e-34
1.8973542e-34
6.8005541e-22
0
0
-6.8475688e-22
-3.6538838e-51
6.8314954e-22
0
0
-6.5913062e-22
5.291888e-51
6.7503236e-22
0
0
-6.8358248e-22
-6.7561067e-51
6.6427375e-22
0
0
-6.6686745e-22
9.6199091e-38
6.8239018e-22
-6.8304363e-22
1.892997e-34
-1.8887102e-34
1.8851119e-34
6.7805661e-22
0
0
0
0
0
-6.6795375e-22
1.8655018e-34
6.7730882e-22
0
0
0
0
0
0
0
-6.7361565e-22
3.7394416e-34
6.7077322e-22
0
0
0
0
0
0
0
-6.696828e-22
1.8546646e-34
6.6681815e-22
0
0
-6.6889649e-22
1.8603767e-34
6.6848618e-22
0
0
0
-6.6251006e-22
-1.8398575e-34
6.6183617e-22
0
0
0
0
0
0
0
-6.5830194e-22
9.345978e-38
6.5723872e-22
0
0
0
0
0
0
0
-6.5499756e-22
-9.3022819e-38
6.5414706e-22
0
0
0
-6.5206094e-22
3.6172491e-34
6.5096311e-22
0
-6.4991431e-22
-1.8043136e-34
6.4900114e-22
0
0
-6.4764655e-22
-6.4720251e-22
6.4676071e-22
6.4631982e-22
0
0
0
0
6.4412815e-22
-9.1474229e-38
-1.2865157e-21
-6.4282393e-22
1.2847825e-21
1.28392e-21
-6.4153115e-22
-6.4110595e-22
0
0
0
0
-6.3846083e-22
-1.7712474e-34
6.3644855e-22
0
0
0
0
0
0
0
0
0
0
0
0
0
0
-6.2441898e-22
3.466149e-34
6.2383079e-22
0
0
6.2284633e-22
-1.7285567e-34
8.8411954e-38
-6.2177905e-22
-6.2140599e-22
-3.4480599e-34
1.72424e-34
6.2021106e-22
0
0
0
0
0
-6.1671447e-22
3.4206534e-34
6.1557389e-22
0
0
0
0
0
0
0
-6.1289817e-22
3.4001198e-34
6.1220603e-22
0
0
0
0
0
0
0
-6.1050929e-22
5.0830724e-34
6.1028703e-22
0
0
0
0
0
0
0
0
-6.0998446e-22
8.6688869e-38
6.1006579e-22
0
0
0
0
-6.1047902e-22
6.1059517e-22
6.1072141e-22
-1.2217158e-21
-1.6966372e-34
6.1115985e-22
0
0
0
0
-6.1204353e-22
1.6991198e-34
1.2246747e-21
-6.1238535e-22
-6.1238401e-22
6.1233296e-22
0
0
0
-6.1205867e-22
-1.6981669e-34
6.1236148e-22
6.1262099e-22
-6.1297906e-22
-6.1333334e-22
6.1367179e-22
0
0
-6.1475792e-22
-6.1512422e-22
6.154924e-22
6.1586142e-22
6.1622993e-22
3.4243483e-34
-6.1697292e-22
0
0
0
-6.1855853e-22
-6.1897821e-22
6.1940561e-22
6.1983873e-22
6.2027667e-22
1.7227304e-34
-6.2116301e-22
0
0
0
-6.2294631e-22
1.7301424e-34
6.2382941e-22
0
0
0
0
0
0
0
-6.2712046e-22
1.7414742e-34
1.2555705e-21
1.7439416e-34
-6.2822139e-22
0
0
-6.2851666e-22
8.933024e-38
-1.7458497e-34
1.7454196e-34
6.2910219e-22
6.2932818e-22
-1.7481186e-34
-6.2974694e-22
0
0
-6.3031577e-22
5.2507542e-34
1.7505132e-34
-8.9658764e-38
6.3110365e-22
-6.3128484e-22
-6.3145512e-22
1.263228e-21
-3.5049611e-34
-6.318961e-22
6.3201629e-22
0
-6.3221107e-22
-1.7566268e-34
6.3234148e-22
0
-6.3240225e-22
6.3240509e-22
-7.0222767e-34
-6.3235309e-22
6.3229673e-22
0
-6.3212184e-22
0
6.3185208e-22
0
-6.314867e-22
6.3126474e-22
-3.5007881e-34
-6.3070999e-22
6.3036063e-22
0
-6.2955954e-22
-1.7470265e-34
6.2876138e-22
0
-6.2803999e-22
6.2767107e-22
-1.7828504e-37
-6.268837e-22
6.2646945e-22
0
-6.2559817e-22
-6.2514091e-22
6.2466896e-22
6.2418141e-22
-6.2367844e-22
6.2316013e-22
6.2262646e-22
-6.2207731e-22
0
0
0
0
0
0
-6.1779313e-22
-3.2780089e-53
1.2328626e-21
-6.1572809e-22
-6.1501029e-22
6.1427884e-22
0
0
-6.1200396e-22
-6.1121993e-22
6.1042372e-22
6.0961618e-22
0
-6.0796855e-22
-1.6867387e-34
6.0627919e-22
0
0
-6.036756e-22
-6.0279043e-22
6.0189612e-22
6.0099273e-22
0
-5.991555e-22
1.6611423e-34
5.9728073e-22
-5.9633993e-22
-3.3066488e-34
-8.4481317e-38
-5.9357683e-22
5.9267856e-22
5.9178176e-22
0
0
-5.890964e-22
1.6325046e-34
5.87326e-22
0
-5.855723e-22
-5.8470261e-22
5.8383815e-22
5.8297973e-22
0
0
0
0
0
0
-5.7717527e-22
1.5996773e-34
5.7559783e-22
0
0
0
0
0
0
-5.7043147e-22
-3.2821167e-53
5.690685e-22
5.684081e-22
1.5749491e-34
-5.6713165e-22
0
0
0
0
-5.6424852e-22
-1.5645751e-34
5.6323973e-22
-5.627665e-22
-5.623138e-22
5.618817e-22
-3.1165889e-34
-4.6724309e-34
-4.6677575e-34
1.5568103e-34
-3.1102116e-34
1.5534601e-34
5.5944414e-22
0
-5.589413e-22
4.6520129e-34
-7.9371814e-38
-5.5835859e-22
5.5821132e-22
5.5808801e-22
-5.5798924e-22
1.5484252e-34
-4.6432659e-34
-3.0972106e-34
-3.0948141e-34
1.5474618e-34
-3.0967438e-34
-5.5795932e-22
5.5804608e-22
5.5815628e-22
-5.5828939e-22
1.5491035e-34
-6.2015645e-34
-1.5509459e-34
1.5523535e-34
1.5514367e-34
1.5529602e-34
-5.5983165e-22
0
5.6046003e-22
-1.5564434e-34
7.2256374e-53
5.6155202e-22
0
-5.6237844e-22
5.6282086e-22
5.6328274e-22
-5.6376358e-22
0
0
0
0
-5.6644376e-22
1.573727e-34
-3.151611e-34
5.6825335e-22
5.6888568e-22
-5.695321e-22
0
0
0
0
-5.7294596e-22
-8.1521991e-38
5.7438288e-22
0
0
0
0
0
0
0
-5.8039612e-22
-5.8116564e-22
5.819372e-22
5.8270998e-22
0
0
0
0
0
0
-5.8807786e-22
-5.8882953e-22
5.895755e-22
5.9031463e-22
0
0
0
0
0
0
-5.9524085e-22
-5.9590742e-22
5.9656645e-22
5.9721945e-22
0
0
0
0
0
0
-6.0160948e-22
3.3435476e-34
6.0278884e-22
0
0
0
0
0
0
-6.06528e-22
1.6855313e-34
6.0746548e-22
0
0
0
0
-6.0951169e-22
-8.6667068e-38
6.1019805e-22
-6.1051244e-22
1.3746878e-53
6.1108383e-22
-6.1133894e-22
3.3964299e-34
6.1178933e-22
-6.1199899e-22
-3.3990628e-34
-3.4001426e-34
1.3593157e-52
-3.4012342e-34
-1.7001882e-34
6.1305752e-22
-6.1319334e-22
-6.1331769e-22
1.2268595e-21
-3.4038141e-34
-1.2272385e-21
0
6.137634e-22
-1.7044509e-34
-1.7054446e-34
-5.1104992e-34
-5.1115492e-34
-3.4060121e-34
5.1116289e-34
-3.4068112e-34
1.7055212e-34
6.1385463e-22
0
-6.1375057e-22
-8.7209341e-38
-5.1080496e-34
-5.1081551e-34
8.7170075e-38
3.404228e-34
-1.702637e-34
-6.1302889e-22
0
6.127245e-22
-3.4001568e-34
-8.7024425e-38
6.1219309e-22
0
-6.1179249e-22
6.1157918e-22
6.1135771e-22
-6.1112837e-22
0
0
-6.1039773e-22
6.7743605e-34
-3.3835557e-34
3.3846656e-34
-1.6928721e-34
6.090578e-22
6.08774e-22
-6.0848532e-22
0
0
0
0
-6.0697631e-22
-1.6845803e-34
-6.7313446e-34
6.0602334e-22
6.0569829e-22
-6.0536994e-22
0
0
0
0
-6.0367955e-22
-6.0333226e-22
6.0298199e-22
6.0262891e-22
0
0
0
0
0
0
-6.0008217e-22
-5.997085e-22
5.9933245e-22
5.9895451e-22
0
0
0
0
0
0
-5.9625619e-22
4.9620957e-34
1.1909419e-21
-5.9507674e-22
-5.9468156e-22
5.9428534e-22
0
1.1869802e-21
-6.5859021e-34
-1.973767e-33
-5.9229232e-22
-1.1837831e-21
1.1829805e-21
-5.9108868e-22
-5.9068674e-22
5.9028406e-22
-5.8988084e-22
8.3769739e-38
5.8907306e-22
5.8866855e-22
-5.8826301e-22
-5.8785705e-22
5.8745115e-22
-5.8704488e-22
-8.3366282e-38
5.8623082e-22
0
0
0
1.1691927e-21
-5.8418698e-22
-1.1675544e-21
5.8336676e-22
-5.8295629e-22
-5.8254551e-22
1.1642687e-21
1.5846176e-52
-5.8131129e-22
5.8089935e-22
1.1609748e-21
5.8007499e-22
-1.7389866e-21
5.7924923e-22
2.1474714e-51
-1.735269e-21
1.1560193e-21
5.7759631e-22
5.7718243e-22
1.1535364e-21
-1.1527085e-21
-5.7594028e-22
-5.7552628e-22
5.7511227e-22
5.7469814e-22
-1.7228531e-21
5.7387073e-22
5.7345746e-22
-5.7304461e-22
-5.72632e-22
-8.1317354e-38
1.715426e-21
-5.7139839e-22
9.5066448e-34
-9.5030865e-34
-1.7105201e-21
5.6976752e-22
5.6936333e-22
1.137922e-21
-5.6856072e-22
-1.136325e-21
1.135533e-21
-5.6737317e-22
5.6698243e-22
5.6659469e-22
-1.69863e-21
5.6582906e-22
5.6545192e-22
-1.1301564e-21
-5.6470823e-22
5.6434217e-22
1.6919411e-21
-5.6362267e-22
-2.2530781e-21
3.1246421e-34
1.1251562e-21
5.6223948e-22
0
1.1231544e-21
1.2459943e-33
-1.682807e-21
5.6062275e-22
-1.2440696e-33
5.600128e-22
5.5971657e-22
-1.1188529e-21
0
0
0
-5.5832363e-22
3.0984673e-34
1.115618e-21
-5.5756143e-22
-1.1146412e-21
1.6712593e-21
-1.8545943e-33
-1.1132777e-21
5.564261e-22
0
0
0
1.1112966e-21
-5.5547337e-22
-1.1106125e-21
1.6654411e-21
-1.5773933e-37
-1.1097061e-21
0
0
-5.5447434e-22
3.0779343e-34
1.1085269e-21
-5.5417044e-22
-1.1081713e-21
1.6620271e-21
-9.2228059e-34
-1.1077618e-21
5.5382858e-22
-5.5378405e-22
1.1074946e-21
5.5371831e-22
-1.843906e-33
-5.536831e-22
-1.1073523e-21
1.6610294e-21
-3.1473279e-37
-5.5369761e-22
3.0735555e-34
-5.5374472e-22
-5.5377714e-22
3.0740926e-34
1.6615742e-21
-1.5742978e-37
-1.6618807e-21
1.1080364e-21
-1.4785391e-52
-1.1082923e-21
5.5421566e-22
-5.5428848e-22
1.1087281e-21
5.5444196e-22
-1.2313656e-33
-5.5460435e-22
-1.1093755e-21
-5.5477197e-22
-5.548569e-22
1.6648266e-21
0
-5.5511135e-22
-3.0817511e-34
3.0822013e-34
-3.0818514e-34
5.5543124e-22
-6.1669412e-34
5.5557315e-22
-1.8505262e-33
-1.6670913e-21
1.1115009e-21
1.667391e-21
5.5583692e-22
-1.6676077e-21
-1.1117861e-21
1.667723e-21
-5.5591292e-22
-1.6677232e-21
0
0
5.5582428e-22
5.5577194e-22
0
-5.5562645e-22
-5.5553244e-22
1.1108465e-21
-1.2329322e-33
-1.6654752e-21
6.1613658e-34
5.5482892e-22
5.5463827e-22
5.544299e-22
-5.5420362e-22
-5.5395972e-22
5.5369731e-22
1.6602489e-21
-5.5311666e-22
-2.2111918e-21
5.5246047e-22
1.1042083e-21
5.5172872e-22
0
-5.5092148e-22
0
-5.5004034e-22
5.4957241e-22
-1.219138e-33
5.4858141e-22
-1.8252868e-33
-1.6425579e-21
5.4696193e-22
5.4638719e-22
-5.4579473e-22
-5.4518502e-22
5.4455873e-22
1.6317471e-21
-5.4325554e-22
-2.1703145e-21
9.0251761e-34
5.4117739e-22
1.0809066e-21
5.3971413e-22
-1.0779197e-21
-2.9873669e-34
-7.6370174e-38
5.366105e-22
-1.1896393e-33
-5.3497695e-22
1.6024239e-21
-5.9203756e-34
-1.0648712e-21
0
0
-5.2979729e-22
2.9357918e-34
1.0559852e-21
-5.2707836e-22
-1.0523152e-21
-5.2523034e-22
5.8190051e-34
1.5700777e-21
5.2241703e-22
-5.2147093e-22
1.0410428e-21
-2.953407e-37
-1.7273682e-33
-5.1765717e-22
-1.0333981e-21
1.5472194e-21
-5.7162973e-34
-1.0276365e-21
0
0
1.02187e-21
-1.1322985e-33
-5.6493907e-34
-1.4439828e-37
-1.5212984e-21
-1.0122888e-21
8.4140208e-34
1.5127194e-21
5.0329108e-22
-5.0234547e-22
1.0028058e-21
5.5544804e-34
-1.6635102e-33
-4.9859434e-22
-9.9533073e-22
1.4902203e-21
-4.9581905e-22
-4.9490207e-22
4.9398906e-22
-4.9308031e-22
9.8435044e-22
-5.4538761e-34
-4.9037381e-22
-6.9558969e-38
-9.7716892e-22
9.7538822e-22
-8.1050503e-34
-9.7184194e-22
4.8503781e-22
0
-4.8327691e-22
-2.6769948e-34
1.4445671e-21
-4.8064614e-22
-9.5954084e-22
-4.7889481e-22
-4.7801854e-22
4.7714154e-22
4.7626362e-22
4.7538424e-22
-4.7450266e-22
2.628941e-34
-2.6233423e-34
4.7183911e-22
-5.2295232e-34
4.7004208e-22
-1.5624336e-33
-1.4046657e-21
9.346028e-22
3.5944964e-52
-4.6543479e-22
-5.1558554e-34
2.5735983e-34
1.3876773e-21
-4.6157612e-22
-1.3817382e-21
0
0
4.5748794e-22
4.5641962e-22
9.1066092e-22
-4.5421918e-22
-9.061661e-22
9.0383607e-22
-4.5072042e-22
-1.3484666e-21
4.4822259e-22
4.4691799e-22
4.4556927e-22
4.4417066e-22
-8.8543465e-22
-4.4120575e-22
4.3963172e-22
1.3139614e-21
-4.3626206e-22
-9.6778947e-51
-7.2014937e-34
-8.6104504e-22
8.5678551e-22
8.5226241e-22
-4.2372276e-22
-8.4231069e-22
8.3683381e-22
4.1548928e-22
-1.2370474e-21
-1.2269251e-21
4.0534861e-22
8.0289676e-22
3.9724546e-22
-2.179829e-34
-7.7561837e-22
-3.8252343e-22
3.7682593e-22
7.4138337e-22
-5.1778016e-38
-7.1742283e-22
7.008888e-22
-5.8054734e-34
-6.8715892e-22
3.3955685e-22
7.0091122e-22
6.9044616e-22
0
-3.6377301e-22
-1.0998725e-21
-3.5326286e-22
3.5496486e-22
0
0
0
0
-3.3536976e-22
1.9363291e-34
9.8746275e-22
-3.1662295e-22
-9.9675018e-22
-3.4866703e-22
5.8181225e-34
6.7587486e-22
3.3472547e-22
-3.4175382e-22
6.4144752e-22
3.0404814e-22
-1.050889e-33
-3.3400603e-22
-6.2580329e-22
9.1494182e-22
-8.6337583e-38
-3.0197021e-22
4.6112016e-38
-3.075288e-22
-2.8467296e-22
3.3314931e-34
8.7973067e-22
-7.8480428e-38
-8.8740934e-22
-5.7283933e-22
1.4814188e-34
5.3513974e-22
2.7800605e-22
-2.8710922e-22
5.2059142e-22
2.3925342e-22
-8.1660905e-34
-2.5089128e-22
-4.7757659e-22
6.4028976e-22
-2.2367081e-34
-2.0358741e-22
-2.0076291e-22
-1.879658e-22
-9.5956686e-35
9.1603002e-35
3.1692596e-22
7.9555672e-35
-2.5746507e-22
2.4162337e-22
-5.584453e-34
-2.8781679e-22
1.5518207e-22
-7.0593652e-35
-1.0797789e-22
4.4069009e-23
3.1042017e-23
3.2364942e-23
-3.5086265e-25
5.193188e-23
0
0
0
-2.195782e-22
-2.7218161e-22
3.4595612e-22
4.2349386e-22
-3.241772e-22
5.0992168e-38
-1.9885776e-22
7.382994e-34
7.3086467e-22
-7.907693e-22
1.434578e-33
6.298354e-22
1.8777535e-34
-1.9801316e-34
-7.5801824e-22
4.0992587e-22
-4.4660112e-22
1.6000015e-33
1.524295e-21
-1.6024876e-21
-5.6643958e-22
1.3482506e-33
-1.2904756e-21
1.3507713e-21
7.0985307e-22
7.5320377e-22
2.4048605e-21
-9.3739486e-34
-8.7838302e-22
-2.7527699e-21
6.4552999e-33
3.0911113e-21
0
-1.1291331e-21
-2.3543637e-21
1.2376288e-21
-1.3048138e-21
4.5454542e-33
2.8377357e-21
-4.4466524e-21
3.4579819e-33
1.8084095e-33
1.8750689e-33
1.9531699e-33
-1.844393e-21
5.8111833e-21
6.0680975e-21
-2.0954326e-21
-4.3486982e-21
0
2.3786658e-21
-2.7578218e-33
5.7369579e-33
-2.9761535e-33
-2.7859984e-21
2.903145e-21
3.0281121e-21
-9.4640106e-21
6.6615616e-49
5.675967e-33
-3.5436407e-21
4.091519e-33
-7.6697559e-21
7.9697345e-21
8.2831426e-21
4.3061173e-21
-4.9651809e-33
-4.6405258e-21
0
0
0
-1.082369e-20
5.6144114e-21
1.164483e-20
-1.8131605e-20
6.2782893e-21
1.9551857e-20
-2.0268077e-20
2.3317227e-32
1.4525614e-20
-2.2623321e-20
-1.5655817e-20
0
1.6823767e-20
2.9028507e-32
9.0353379e-21
1.8733884e-20
-9.7103937e-21
0
-2.0864635e-20
-3.0725459e-36
-1.2433377e-32
1.1600453e-20
3.6044126e-20
-3.7331862e-20
2.1472822e-32
4.0041978e-20
-4.1466449e-20
7.1518337e-32
2.9641427e-20
-1.5341867e-20
1.587771e-20
-3.2863603e-20
-1.700716e-20
7.8169075e-32
1.8217255e-20
3.7695942e-20
1.9497265e-20
2.0168191e-20
-4.1724692e-20
-2.1579413e-20
0
2.3080256e-20
-1.3250561e-32
1.5854159e-49
-2.551239e-20
7.4962885e-36
-2.7264504e-20
2.1498664e-48
8.7376494e-20
-9.029842e-20
-9.3314824e-20
6.4271965e-20
6.6400449e-20
0
-7.0875261e-20
3.6605568e-20
1.1343352e-19
-1.1714599e-19
6.7164258e-32
8.3284838e-20
-4.2995741e-20
0
4.5827801e-20
4.7307582e-20
-4.8832163e-20
8.3932105e-32
-1.0403784e-19
-3.0514405e-35
1.6617488e-19
0
-1.7689486e-19
-1.2166512e-19
1.8826362e-19
1.2946202e-19
-2.0028924e-19
-6.8852971e-20
2.8401128e-19
7.3214926e-20
-1.5098286e-19
-1.556674e-19
8.9081477e-32
8.271867e-20
8.5263029e-20
8.787839e-20
-9.0568017e-20
1.0361468e-31
-1.9235268e-19
3.3003711e-31
3.0629132e-19
0
0
-2.2322257e-19
2.5527695e-31
1.1839655e-19
-3.6577744e-19
1.255505e-19
2.1523446e-31
4.4328347e-31
4.1108636e-19
-1.4106191e-19
8.0576959e-32
-1.6591136e-31
-1.5381105e-19
1.5829067e-19
-2.3148086e-35
9.3035966e-32
-1.9141969e-31
-1.7741136e-19
0
1.8773289e-19
-3.8619855e-19
-1.9860231e-19
4.0848517e-19
0
-2.1595675e-19
2.220425e-19
4.5656655e-19
-7.0403758e-19
8.0355342e-31
8.2578942e-31
-2.5483796e-19
7.8569284e-19
-3.8245937e-35
-2.7654393e-19
-2.8413834e-19
2.9191893e-19
2.9988816e-19
-3.0804928e-19
0
3.2497299e-19
-6.6749494e-19
5.7082401e-31
3.5192544e-19
8.0237107e-31
8.2354545e-31
1.0823728e-34
7.8185057e-19
-1.2037802e-18
-1.2354934e-18
0
8.6741895e-19
1.3351002e-18
6.4889547e-35
-4.6846938e-19
-4.8058538e-19
4.9297294e-19
5.0563959e-19
-5.185938e-19
0
-1.0907828e-18
-1.1184775e-18
1.7201546e-18
5.8783507e-19
-6.0260235e-19
1.755612e-34
6.3313779e-19
1.2978186e-18
6.6501068e-19
-1.1349562e-30
-2.792917e-18
2.3825339e-30
2.1986978e-18
-7.5079244e-19
-7.6905455e-19
-7.8769025e-19
8.0671123e-19
8.2612874e-19
8.4594807e-19
2.4618061e-34
-8.8680236e-19
9.0785186e-19
-2.7879884e-18
-1.9024809e-18
2.9207614e-18
-9.9637489e-19
-2.0392285e-18
2.0866305e-18
-1.0674811e-18
1.0921105e-18
2.2344147e-18
-3.4283575e-18
1.1688642e-18
-3.9820795e-30
-3.6676382e-18
2.5002805e-18
1.2782387e-18
1.3068589e-18
2.6720406e-18
-1.3657311e-18
1.2018887e-73
-2.8535613e-18
-1.4581199e-18
1.6541518e-30
1.522509e-18
3.111172e-18
-3.1784996e-18
1.623496e-18
4.9749955e-18
-5.0813257e-18
-1.7298431e-18
-1.9218692e-46
-1.8038578e-18
5.5253765e-18
1.8803501e-18
-1.9195518e-18
-3.9188368e-18
1.99996e-18
-2.0411746e-18
6.9375291e-30
4.2512147e-18
-6.5065063e-18
-2.4577505e-30
1.0025381e-29
-5.1120181e-30
4.6974299e-18
-4.7909016e-18
2.4429094e-18
9.9644089e-18
-2.540035e-18
-5.179414e-18
0
-5.3825301e-18
6.0906517e-30
1.5892367e-33
3.1630829e-30
2.9034263e-18
2.958398e-18
-3.0141545e-18
-3.0706979e-18
6.2560518e-18
-6.3722735e-18
3.6024808e-30
6.6094547e-18
-6.730458e-18
-1.1411962e-29
3.8729658e-30
3.5516304e-18
7.2307888e-18
-3.6799752e-18
3.745377e-18
-2.11573e-30
-3.8786599e-18
-7.8930921e-18
4.0152654e-18
8.1696421e-18
-4.1552161e-18
4.2264514e-18
-7.1592472e-30
4.3714373e-18
9.8721889e-30
-9.039543e-18
-9.1904004e-18
-1.0370765e-29
1.5816336e-29
-1.6076017e-29
4.9053655e-18
4.9850074e-18
5.065483e-18
-5.1467922e-18
0
0
5.39574e-18
-3.0420348e-30
-7.9095802e-34
-6.2747664e-30
-5.7392787e-18
0
5.9159395e-18
1.2010983e-17
-6.0958533e-18
-1.2374031e-17
-1.2557936e-17
-1.2743406e-17
1.9395648e-17
2.184614e-29
-1.9963696e-17
1.3500789e-17
1.3693969e-17
0
7.0424053e-18
-1.428243e-17
-7.2407459e-18
1.4681983e-17
7.4419453e-18
-8.3745431e-30
-2.2937843e-17
7.7489754e-18
2.3558012e-17
-2.3871066e-17
-8.0620177e-18
2.4502943e-17
-9.1841121e-30
-8.3807679e-18
-1.697647e-17
-9.5407436e-30
1.7409831e-17
-1.7628203e-17
8.9238341e-18
2.7102301e-17
0
-9.2561764e-18
-1.8735911e-17
5.2649293e-30
-9.5929129e-18
-1.9412118e-17
1.9639258e-17
1.9867215e-17
0
1.0162728e-17
1.140996e-29
1.1539598e-29
1.1666635e-29
-3.1875316e-17
-2.14829e-17
0
2.1949832e-17
2.4624451e-29
1.120928e-17
3.3980235e-17
-1.1444374e-17
6.4162268e-30
-1.6598338e-33
-1.1798038e-17
-2.3832224e-17
1.2034241e-17
2.4304808e-17
-1.227058e-17
0
-2.501376e-17
1.2624956e-17
3.8228852e-17
-1.2860841e-17
-1.2978603e-17
-2.6192431e-17
1.3213653e-17
3.9992679e-17
-1.3447909e-17
1.5056925e-29
2.736234e-17
-1.3797364e-17
-1.3913233e-17
-2.8057508e-17
-4.243171e-17
2.8517309e-17
2.8745963e-17
-2.8973717e-17
-1.6204356e-29
2.9426311e-17
-2.9651049e-17
-1.6582717e-29
3.0097148e-17
0
-3.0538401e-17
-3.0757083e-17
0
4.678544e-17
1.5702355e-17
4.4931311e-33
1.5914455e-17
1.6019297e-17
1.7894731e-29
-3.2452879e-17
-3.265737e-17
5.4719425e-29
3.3060777e-17
-3.3259591e-17
-5.571256e-29
3.3651205e-17
0
0
0
0
-3.4592761e-17
-1.9307284e-29
3.4953319e-17
1.7564984e-17
-3.5304135e-17
5.9085325e-29
3.5644821e-17
-3.5811242e-17
-1.9973963e-29
1.8068003e-17
-3.6294262e-17
6.0707431e-29
3.6602298e-17
-3.6751993e-17
-3.6898748e-17
3.7042524e-17
3.7183276e-17
0
0
0
0
1.8920118e-17
-1.8980999e-17
-1.9040232e-17
2.1201461e-29
2.9940782e-73
1.9207873e-17
3.8520681e-17
1.9311072e-17
-3.8720106e-17
-5.8221805e-17
1.9452706e-17
3.89927e-17
-5.8614559e-17
-3.9156401e-17
5.8849134e-17
3.9305414e-17
1.9687175e-17
2.1891945e-29
-3.9500978e-17
0
1.9806235e-17
-1.9831244e-17
4.4082644e-29
5.6489511e-33
6.6252733e-29
1.9911953e-17
1.9927267e-17
-5.6674664e-33
-3.990404e-17
-3.9922889e-17
6.6499834e-29
3.9948705e-17
0
0
0
1.9975706e-17
1.9970821e-17
-1.9963938e-17
-1.995506e-17
1.994419e-17
-3.9862655e-17
-5.9749426e-17
0
3.9761625e-17
2.2041982e-29
1.9837225e-17
5.943741e-17
-1.9785746e-17
3.2900008e-29
-3.9452836e-17
1.3119004e-28
3.9318591e-17
1.0892162e-29
2.7831163e-33
-1.9544132e-17
1.9501917e-17
-3.8915611e-17
-1.9411811e-17
3.8727886e-17
-3.8628428e-17
-5.4747696e-33
2.1330604e-29
1.9153963e-17
5.7290711e-17
-3.8076102e-17
-5.950654e-48
-1.8915031e-17
3.139639e-29
3.7570035e-17
-1.8717424e-17
-3.7296259e-17
2.0618185e-29
5.5513565e-17
-5.2381917e-33
-1.8354354e-17
1.8276856e-17
-3.6395544e-17
-1.8117123e-17
3.6069857e-17
-3.5902423e-17
-1.9828892e-29
9.8693688e-29
-3.9284775e-29
3.5203173e-17
-3.5021219e-17
1.7418248e-17
3.4649043e-17
-1.7229456e-17
1.7133078e-17
-3.4070836e-17
2.8207952e-29
5.0509069e-17
0
0
-4.9586242e-17
-1.6423906e-17
3.2635922e-17
-3.2421883e-17
-9.153427e-33
7.1022192e-29
1.7633352e-29
3.1545381e-17
-3.1321422e-17
-3.1095637e-17
1.5434044e-17
4.5958263e-17
1.5203981e-17
-1.5087748e-17
0
0
1.4734535e-17
-8.1126509e-30
-4.3486781e-17
-4.0856735e-33
2.8508386e-17
1.413264e-17
-1.554986e-29
-4.1663861e-17
-3.0562206e-29
2.72827e-17
0
1.3393089e-17
-2.6536819e-17
-1.3143393e-17
2.8907756e-29
1.2892451e-17
2.553319e-17
-1.2640532e-17
0
0
0
0
1.2008012e-17
-6.5949896e-30
-3.5263336e-17
1.1627662e-17
3.4502726e-17
-3.4122614e-17
-1.1247574e-17
2.22421e-17
1.0994671e-17
1.8096937e-29
-3.2227414e-17
6.0348865e-33
3.4943208e-29
1.0365811e-17
2.048155e-17
1.0116046e-17
1.1089409e-29
-9.8676053e-18
-9.7439367e-18
-9.6206708e-18
-9.497841e-18
2.08164e-29
1.8507162e-17
0
0
8.8908341e-18
1.46044e-29
1.2294739e-33
-1.2126034e-33
-8.4148278e-18
-1.6594686e-17
-1.636102e-17
1.6128702e-17
8.8289812e-30
7.8340892e-18
2.3159955e-17
0
0
-7.3820047e-18
-7.2708755e-18
0
7.0509848e-18
-3.8534785e-30
-6.8343597e-18
6.7273064e-18
-1.3242172e-17
2.1700227e-29
1.9233418e-17
-6.3074604e-18
-6.2046891e-18
-1.2205692e-17
6.0019344e-18
1.7705842e-17
-5.8028767e-18
3.1673624e-30
-1.1214943e-17
-5.5111497e-18
1.0831552e-17
-1.0642761e-17
-1.4316064e-46
1.0271176e-17
0
0
-9.7285325e-18
5.2963771e-30
1.5616521e-29
-1.3259602e-46
1.3548392e-17
4.9204256e-30
-4.3481833e-18
-8.5314682e-18
-8.3685446e-18
8.2075745e-18
8.9351301e-30
3.9457756e-18
1.2885384e-29
-3.7918608e-18
7.4329433e-18
0
3.5687063e-18
-3.8803967e-30
-3.4247992e-18
-6.7086627e-18
-3.6458058e-30
6.4330347e-18
0
0
3.0172967e-18
-1.6390052e-30
-8.6675564e-18
-3.1379864e-30
5.5302077e-18
0
-2.6450058e-18
2.5863187e-18
2.528519e-18
2.4716493e-18
2.4157581e-18
-4.7217186e-18
-6.9207493e-18
2.2538652e-18
4.4033185e-18
-6.4509153e-18
-1.9254841e-47
4.1006985e-18
0
0
0
0
-3.6317758e-18
-3.5430341e-18
1.728063e-18
5.0564149e-18
1.825635e-30
-1.602547e-18
3.1243992e-18
3.0453713e-18
-1.4840446e-18
-5.7849042e-18
-2.8182598e-18
4.1181012e-18
2.673938e-18
-3.9060313e-18
-2.8146742e-30
2.4689418e-18
0
0
0
-2.2151542e-18
-1.196318e-30
2.3279004e-30
-1.0196391e-18
2.9746315e-18
-9.640847e-19
-9.3730152e-19
2.7335378e-18
1.7713289e-18
-8.6071969e-19
-1.6726999e-18
-1.6251411e-18
2.6294039e-30
-8.5138338e-31
2.1162572e-34
1.4460669e-18
0
6.8158734e-19
6.6162383e-19
-6.4214439e-19
-6.2317249e-19
6.0471606e-19
5.8674985e-19
-1.1384885e-18
-5.5219622e-19
5.3561646e-19
-5.1949866e-19
5.0382266e-19
9.771511e-19
0
0
-1.3360984e-18
-4.317642e-19
8.3710308e-19
4.057295e-19
3.9329671e-19
-7.625016e-19
4.1050808e-31
7.1657343e-19
0
-3.3666252e-19
-9.7899651e-19
-7.0230323e-31
1.7027111e-30
-5.9484463e-19
8.6526349e-19
2.7970389e-19
7.710164e-35