/*--------------------------------*- C++ -*----------------------------------*\
  =========                 |
  \\      /  F ield         | OpenFOAM: The Open Source CFD Toolbox
   \\    /   O peration     | Website:  https://openfoam.org
    \\  /    A nd           | Version:  7
     \\/     M anipulation  |
\*---------------------------------------------------------------------------*/
FoamFile
{
    version     2.0;
    format      ascii;
    class       surfaceScalarField;
    location    "0.0029";
    object      phi;
}
// * * * * * * * * * * * * * * * * * * * * * * * * * * * * * * * * * * * * * //

dimensions      [1 0 -1 0 0 0 0];

internalField   nonuniform List<scalar> 
4999
(
1.2266486
1.2266485
1.2266485
1.2266485
1.2266485
1.2266485
1.2266485
1.2266485
1.2266484
1.2266484
1.2266484
1.2266484
1.2266484
1.2266484
1.2266484
1.2266483
1.2266483
1.2266483
1.2266483
1.2266483
1.2266483
1.2266483
1.2266482
1.2266482
1.2266482
1.2266482
1.2266482
1.2266482
1.2266482
1.2266481
1.2266481
1.2266481
1.2266481
1.2266481
1.2266481
1.2266481
1.226648
1.226648
1.226648
1.226648
1.226648
1.226648
1.226648
1.2266479
1.2266479
1.2266479
1.2266479
1.2266479
1.2266479
1.2266479
1.2266478
1.2266478
1.2266478
1.2266478
1.2266478
1.2266478
1.2266478
1.2266478
1.2266477
1.2266477
1.2266477
1.2266477
1.2266477
1.2266477
1.2266477
1.2266476
1.2266476
1.2266476
1.2266476
1.2266476
1.2266476
1.2266476
1.2266476
1.2266475
1.2266475
1.2266475
1.2266475
1.2266475
1.2266475
1.2266475
1.2266475
1.2266474
1.2266474
1.2266474
1.2266474
1.2266474
1.2266474
1.2266474
1.2266474
1.2266474
1.2266473
1.2266473
1.2266473
1.2266473
1.2266473
1.2266473
1.2266473
1.2266473
1.2266472
1.2266472
1.2266472
1.2266472
1.2266472
1.2266472
1.2266472
1.2266472
1.2266472
1.2266471
1.2266471
1.2266471
1.2266471
1.2266471
1.2266471
1.2266471
1.2266471
1.226647
1.226647
1.226647
1.226647
1.226647
1.2266469
1.2266469
1.2266469
1.2266469
1.2266469
1.2266468
1.2266468
1.2266467
1.2266466
1.2266463
1.2266458
1.2266445
1.2266425
1.2266396
1.2266356
1.2266301
1.2266227
1.2266129
1.2266002
1.226584
1.2265634
1.2265379
1.2265068
1.2264697
1.2264262
1.2263762
1.22632
1.2262581
1.2261913
1.2261206
1.2260473
1.2259725
1.2258977
1.2258242
1.2257531
1.2256854
1.225622
1.2255636
1.2255104
1.2254627
1.2254204
1.2253835
1.2253516
1.2253244
1.2253014
1.2252823
1.2252664
1.2252534
1.2252429
1.2252345
1.2252277
1.2252224
1.2252182
1.2252149
1.2252124
1.2252104
1.2252089
1.2252077
1.2252069
1.2252062
1.2252057
1.2252053
1.2252051
1.2252048
1.2252047
1.2252046
1.2252045
1.2252044
1.2252043
1.2252043
1.2252042
1.2252042
1.2252042
1.2252042
1.2252041
1.2252041
1.2252041
1.2252041
1.2252041
1.225204
1.225204
1.225204
1.225204
1.225204
1.2252039
1.2252039
1.2252039
1.2252039
1.2252039
1.2252039
1.2252038
1.2252038
1.2252038
1.2252038
1.2252038
1.2252038
1.2252037
1.2252037
1.2252037
1.2252037
1.2252037
1.2252036
1.2252036
1.2252036
1.2252036
1.2252036
1.2252036
1.2252035
1.2252035
1.2252035
1.2252035
1.2252035
1.2252035
1.2252034
1.2252034
1.2252034
1.2252034
1.2252034
1.2252033
1.2252033
1.2252033
1.2252033
1.2252033
1.2252033
1.2252032
1.2252032
1.2252032
1.2252032
1.2252032
1.2252032
1.2252031
1.2252031
1.2252031
1.2252031
1.2252031
1.2252031
1.225203
1.225203
1.225203
1.225203
1.225203
1.225203
1.2252029
1.2252029
1.2252029
1.2252029
1.2252029
1.2252029
1.2252028
1.2252028
1.2252028
1.2252028
1.2252028
1.2252028
1.2252027
1.2252027
1.2252027
1.2252027
1.2252027
1.2252027
1.2252026
1.2252026
1.2252026
1.2252026
1.2252026
1.2252026
1.2252025
1.2252025
1.2252025
1.2252025
1.2252025
1.2252025
1.2252024
1.2252024
1.2252024
1.2252024
1.2252024
1.2252024
1.2252023
1.2252023
1.2252023
1.2252023
1.2252023
1.2252023
1.2252023
1.2252022
1.2252022
1.2252022
1.2252022
1.2252022
1.2252022
1.2252021
1.2252021
1.2252021
1.2252021
1.2252021
1.2252021
1.2252021
1.225202
1.225202
1.225202
1.225202
1.225202
1.225202
1.2252019
1.2252019
1.2252019
1.2252019
1.2252019
1.2252019
1.2252019
1.2252018
1.2252018
1.2252018
1.2252018
1.2252018
1.2252018
1.2252018
1.2252017
1.2252017
1.2252017
1.2252017
1.2252017
1.2252017
1.2252017
1.2252016
1.2252016
1.2252016
1.2252016
1.2252016
1.2252016
1.2252016
1.2252015
1.2252015
1.2252015
1.2252015
1.2252015
1.2252015
1.2252015
1.2252015
1.2252014
1.2252014
1.2252014
1.2252014
1.2252014
1.2252014
1.2252014
1.2252014
1.2252013
1.2252013
1.2252013
1.2252013
1.2252013
1.2252013
1.2252013
1.2252013
1.2252012
1.2252012
1.2252012
1.2252012
1.2252012
1.2252012
1.2252012
1.2252012
1.2252011
1.2252011
1.2252011
1.2252011
1.2252011
1.2252011
1.2252011
1.2252011
1.225201
1.225201
1.225201
1.225201
1.225201
1.225201
1.225201
1.225201
1.225201
1.2252009
1.2252009
1.2252009
1.2252009
1.2252009
1.2252009
1.2252009
1.2252009
1.2252009
1.2252008
1.2252008
1.2252008
1.2252008
1.2252008
1.2252008
1.2252008
1.2252008
1.2252008
1.2252007
1.2252007
1.2252007
1.2252007
1.2252007
1.2252007
1.2252007
1.2252007
1.2252007
1.2252007
1.2252006
1.2252006
1.2252006
1.2252006
1.2252006
1.2252006
1.2252006
1.2252006
1.2252006
1.2252005
1.2252005
1.2252005
1.2252005
1.2252005
1.2252005
1.2252005
1.2252005
1.2252005
1.2252005
1.2252004
1.2252004
1.2252004
1.2252004
1.2252004
1.2252004
1.2252004
1.2252004
1.2252004
1.2252004
1.2252003
1.2252003
1.2252003
1.2252003
1.2252003
1.2252003
1.2252003
1.2252003
1.2252003
1.2252002
1.2252002
1.2252002
1.2252002
1.2252002
1.2252002
1.2252002
1.2252002
1.2252002
1.2252002
1.2252001
1.2252001
1.2252001
1.2252001
1.2252001
1.2252001
1.2252001
1.2252001
1.2252001
1.2252
1.2252
1.2252
1.2252
1.2252
1.2252
1.2252
1.2252
1.2252
1.2251999
1.2251999
1.2251999
1.2251999
1.2251999
1.2251999
1.2251999
1.2251999
1.2251999
1.2251998
1.2251998
1.2251998
1.2251998
1.2251998
1.2251998
1.2251998
1.2251998
1.2251998
1.2251997
1.2251997
1.2251997
1.2251997
1.2251997
1.2251997
1.2251997
1.2251997
1.2251996
1.2251996
1.2251996
1.2251996
1.2251996
1.2251996
1.2251996
1.2251996
1.2251995
1.2251995
1.2251995
1.2251995
1.2251995
1.2251995
1.2251995
1.2251995
1.2251995
1.2251995
1.2251994
1.2251994
1.2251994
1.2251994
1.2251994
1.2251994
1.2251994
1.2251993
1.2251993
1.2251993
1.2251993
1.2251993
1.2251993
1.2251993
1.2251993
1.2251992
1.2251992
1.2251992
1.2251992
1.2251992
1.2251992
1.2251992
1.2251992
1.2251992
1.2251991
1.2251991
1.2251991
1.2251991
1.2251991
1.2251991
1.2251991
1.2251991
1.225199
1.225199
1.225199
1.225199
1.225199
1.225199
1.225199
1.2251989
1.2251989
1.2251989
1.2251989
1.2251989
1.2251989
1.2251989
1.2251989
1.2251988
1.2251988
1.2251988
1.2251988
1.2251988
1.2251988
1.2251988
1.2251988
1.2251987
1.2251987
1.2251987
1.2251987
1.2251987
1.2251987
1.2251987
1.2251987
1.2251986
1.2251986
1.2251986
1.2251986
1.2251986
1.2251986
1.2251986
1.2251986
1.2251985
1.2251985
1.2251985
1.2251985
1.2251985
1.2251985
1.2251985
1.2251985
1.2251984
1.2251984
1.2251984
1.2251984
1.2251984
1.2251984
1.2251984
1.2251984
1.2251983
1.2251983
1.2251983
1.2251983
1.2251983
1.2251983
1.2251983
1.2251983
1.2251982
1.2251982
1.2251982
1.2251982
1.2251982
1.2251982
1.2251982
1.2251982
1.2251981
1.2251981
1.2251981
1.2251981
1.2251981
1.2251981
1.2251981
1.2251981
1.225198
1.225198
1.225198
1.225198
1.225198
1.225198
1.225198
1.225198
1.2251979
1.2251979
1.2251979
1.2251979
1.2251979
1.2251979
1.2251979
1.2251978
1.2251978
1.2251978
1.2251978
1.2251978
1.2251978
1.2251978
1.2251978
1.2251977
1.2251977
1.2251977
1.2251977
1.2251977
1.2251977
1.2251977
1.2251977
1.2251976
1.2251976
1.2251976
1.2251976
1.2251976
1.2251976
1.2251976
1.2251976
1.2251975
1.2251975
1.2251975
1.2251975
1.2251975
1.2251975
1.2251975
1.2251975
1.2251974
1.2251974
1.2251974
1.2251974
1.2251974
1.2251974
1.2251974
1.2251974
1.2251973
1.2251973
1.2251973
1.2251973
1.2251973
1.2251973
1.2251973
1.2251973
1.2251972
1.2251972
1.2251972
1.2251972
1.2251972
1.2251972
1.2251972
1.2251972
1.2251971
1.2251971
1.2251971
1.2251971
1.2251971
1.2251971
1.2251971
1.2251971
1.225197
1.225197
1.225197
1.225197
1.225197
1.225197
1.225197
1.2251969
1.2251969
1.2251969
1.2251969
1.2251969
1.2251969
1.2251969
1.2251969
1.2251968
1.2251968
1.2251968
1.2251968
1.2251968
1.2251968
1.2251968
1.2251968
1.2251967
1.2251967
1.2251967
1.2251967
1.2251967
1.2251967
1.2251967
1.2251967
1.2251966
1.2251966
1.2251966
1.2251966
1.2251966
1.2251966
1.2251966
1.2251965
1.2251965
1.2251965
1.2251965
1.2251965
1.2251965
1.2251965
1.2251965
1.2251964
1.2251964
1.2251964
1.2251964
1.2251964
1.2251964
1.2251964
1.2251964
1.2251963
1.2251963
1.2251963
1.2251963
1.2251963
1.2251963
1.2251963
1.2251963
1.2251962
1.2251962
1.2251962
1.2251962
1.2251962
1.2251962
1.2251962
1.2251961
1.2251961
1.2251961
1.2251961
1.2251961
1.2251961
1.2251961
1.2251961
1.225196
1.225196
1.225196
1.225196
1.225196
1.225196
1.225196
1.225196
1.2251959
1.2251959
1.2251959
1.2251959
1.2251959
1.2251959
1.2251959
1.2251959
1.2251958
1.2251958
1.2251958
1.2251958
1.2251958
1.2251958
1.2251958
1.2251958
1.2251957
1.2251957
1.2251957
1.2251957
1.2251957
1.2251957
1.2251957
1.2251957
1.2251956
1.2251956
1.2251956
1.2251956
1.2251956
1.2251956
1.2251956
1.2251956
1.2251956
1.2251955
1.2251955
1.2251955
1.2251955
1.2251955
1.2251955
1.2251955
1.2251955
1.2251954
1.2251954
1.2251954
1.2251954
1.2251954
1.2251954
1.2251954
1.2251954
1.2251953
1.2251953
1.2251953
1.2251953
1.2251953
1.2251953
1.2251953
1.2251953
1.2251952
1.2251952
1.2251952
1.2251952
1.2251952
1.2251952
1.2251952
1.2251952
1.2251952
1.2251951
1.2251951
1.2251951
1.2251951
1.2251951
1.2251951
1.2251951
1.2251951
1.225195
1.225195
1.225195
1.225195
1.225195
1.225195
1.225195
1.225195
1.225195
1.2251949
1.2251949
1.2251949
1.2251949
1.2251949
1.2251949
1.2251949
1.2251949
1.2251949
1.2251948
1.2251948
1.2251948
1.2251948
1.2251948
1.2251948
1.2251948
1.2251948
1.2251948
1.2251947
1.2251947
1.2251947
1.2251947
1.2251947
1.2251947
1.2251947
1.2251947
1.2251947
1.2251946
1.2251946
1.2251946
1.2251946
1.2251946
1.2251946
1.2251946
1.2251946
1.2251945
1.2251945
1.2251945
1.2251945
1.2251945
1.2251945
1.2251945
1.2251945
1.2251945
1.2251944
1.2251944
1.2251944
1.2251944
1.2251944
1.2251944
1.2251944
1.2251944
1.2251944
1.2251943
1.2251943
1.2251943
1.2251943
1.2251943
1.2251943
1.2251943
1.2251943
1.2251943
1.2251942
1.2251942
1.2251942
1.2251942
1.2251942
1.2251942
1.2251942
1.2251942
1.2251942
1.2251942
1.2251941
1.2251941
1.2251941
1.2251941
1.2251941
1.2251941
1.2251941
1.2251941
1.225194
1.225194
1.225194
1.225194
1.225194
1.225194
1.225194
1.225194
1.225194
1.225194
1.2251939
1.2251939
1.2251939
1.2251939
1.2251939
1.2251939
1.2251939
1.2251939
1.2251938
1.2251938
1.2251938
1.2251938
1.2251938
1.2251938
1.2251938
1.2251938
1.2251938
1.2251937
1.2251937
1.2251937
1.2251937
1.2251937
1.2251937
1.2251937
1.2251937
1.2251937
1.2251936
1.2251936
1.2251936
1.2251936
1.2251936
1.2251936
1.2251936
1.2251936
1.2251936
1.2251935
1.2251935
1.2251935
1.2251935
1.2251935
1.2251935
1.2251935
1.2251935
1.2251935
1.2251934
1.2251934
1.2251934
1.2251934
1.2251934
1.2251934
1.2251934
1.2251934
1.2251933
1.2251933
1.2251933
1.2251933
1.2251933
1.2251933
1.2251933
1.2251933
1.2251933
1.2251932
1.2251932
1.2251932
1.2251932
1.2251932
1.2251932
1.2251932
1.2251932
1.2251931
1.2251931
1.2251931
1.2251931
1.2251931
1.2251931
1.2251931
1.2251931
1.2251931
1.225193
1.225193
1.225193
1.225193
1.225193
1.225193
1.225193
1.225193
1.2251929
1.2251929
1.2251929
1.2251929
1.2251929
1.2251929
1.2251929
1.2251929
1.2251928
1.2251928
1.2251928
1.2251928
1.2251928
1.2251928
1.2251928
1.2251928
1.2251928
1.2251927
1.2251927
1.2251927
1.2251927
1.2251927
1.2251927
1.2251927
1.2251927
1.2251926
1.2251926
1.2251926
1.2251926
1.2251926
1.2251926
1.2251926
1.2251926
1.2251925
1.2251925
1.2251925
1.2251925
1.2251925
1.2251925
1.2251925
1.2251925
1.2251925
1.2251924
1.2251924
1.2251924
1.2251924
1.2251924
1.2251924
1.2251924
1.2251924
1.2251923
1.2251923
1.2251923
1.2251923
1.2251923
1.2251923
1.2251923
1.2251923
1.2251922
1.2251922
1.2251922
1.2251922
1.2251922
1.2251922
1.2251922
1.2251922
1.2251922
1.2251921
1.2251921
1.2251921
1.2251921
1.2251921
1.2251921
1.2251921
1.2251921
1.225192
1.225192
1.225192
1.225192
1.225192
1.225192
1.225192
1.225192
1.2251919
1.2251919
1.2251919
1.2251919
1.2251919
1.2251919
1.2251919
1.2251919
1.2251919
1.2251918
1.2251918
1.2251918
1.2251918
1.2251918
1.2251918
1.2251918
1.2251918
1.2251917
1.2251917
1.2251917
1.2251917
1.2251917
1.2251917
1.2251917
1.2251917
1.2251917
1.2251916
1.2251916
1.2251916
1.2251916
1.2251916
1.2251916
1.2251916
1.2251916
1.2251915
1.2251915
1.2251915
1.2251915
1.2251915
1.2251915
1.2251915
1.2251915
1.2251915
1.2251914
1.2251914
1.2251914
1.2251914
1.2251914
1.2251914
1.2251914
1.2251914
1.2251914
1.2251913
1.2251913
1.2251913
1.2251913
1.2251913
1.2251913
1.2251913
1.2251913
1.2251913
1.2251912
1.2251912
1.2251912
1.2251912
1.2251912
1.2251912
1.2251912
1.2251912
1.2251911
1.2251911
1.2251911
1.2251911
1.2251911
1.2251911
1.2251911
1.2251911
1.2251911
1.225191
1.225191
1.225191
1.225191
1.225191
1.225191
1.225191
1.225191
1.225191
1.2251909
1.2251909
1.2251909
1.2251909
1.2251909
1.2251909
1.2251909
1.2251909
1.2251909
1.2251908
1.2251908
1.2251908
1.2251908
1.2251908
1.2251908
1.2251908
1.2251908
1.2251908
1.2251907
1.2251907
1.2251907
1.2251907
1.2251907
1.2251907
1.2251907
1.2251907
1.2251906
1.2251906
1.2251906
1.2251906
1.2251906
1.2251906
1.2251906
1.2251906
1.2251906
1.2251905
1.2251905
1.2251905
1.2251905
1.2251905
1.2251905
1.2251905
1.2251905
1.2251905
1.2251904
1.2251904
1.2251904
1.2251904
1.2251904
1.2251904
1.2251904
1.2251904
1.2251903
1.2251903
1.2251903
1.2251903
1.2251903
1.2251903
1.2251903
1.2251903
1.2251903
1.2251902
1.2251902
1.2251902
1.2251902
1.2251902
1.2251902
1.2251902
1.2251902
1.2251902
1.2251901
1.2251901
1.2251901
1.2251901
1.2251901
1.2251901
1.2251901
1.2251901
1.22519
1.22519
1.22519
1.22519
1.22519
1.22519
1.22519
1.22519
1.22519
1.2251899
1.2251899
1.2251899
1.2251899
1.2251899
1.2251899
1.2251899
1.2251899
1.2251898
1.2251898
1.2251898
1.2251898
1.2251898
1.2251898
1.2251898
1.2251898
1.2251897
1.2251897
1.2251897
1.2251897
1.2251897
1.2251897
1.2251897
1.2251897
1.2251897
1.2251896
1.2251896
1.2251896
1.2251896
1.2251896
1.2251896
1.2251896
1.2251896
1.2251895
1.2251895
1.2251895
1.2251895
1.2251895
1.2251895
1.2251895
1.2251895
1.2251895
1.2251894
1.2251894
1.2251894
1.2251894
1.2251894
1.2251894
1.2251894
1.2251894
1.2251893
1.2251893
1.2251893
1.2251893
1.2251893
1.2251893
1.2251893
1.2251893
1.2251892
1.2251892
1.2251892
1.2251892
1.2251892
1.2251892
1.2251892
1.2251892
1.2251891
1.2251891
1.2251891
1.2251891
1.2251891
1.2251891
1.2251891
1.2251891
1.225189
1.225189
1.225189
1.225189
1.225189
1.225189
1.225189
1.225189
1.225189
1.2251889
1.2251889
1.2251889
1.2251889
1.2251889
1.2251889
1.2251889
1.2251889
1.2251888
1.2251888
1.2251888
1.2251888
1.2251888
1.2251888
1.2251888
1.2251888
1.2251888
1.2251887
1.2251887
1.2251887
1.2251887
1.2251887
1.2251887
1.2251887
1.2251887
1.2251886
1.2251886
1.2251886
1.2251886
1.2251886
1.2251886
1.2251886
1.2251886
1.2251885
1.2251885
1.2251885
1.2251885
1.2251885
1.2251885
1.2251885
1.2251885
1.2251885
1.2251884
1.2251884
1.2251884
1.2251884
1.2251884
1.2251884
1.2251884
1.2251884
1.2251883
1.2251883
1.2251883
1.2251883
1.2251883
1.2251883
1.2251883
1.2251883
1.2251882
1.2251882
1.2251882
1.2251882
1.2251882
1.2251882
1.2251882
1.2251882
1.2251882
1.2251881
1.2251881
1.2251881
1.2251881
1.2251881
1.2251881
1.2251881
1.2251881
1.225188
1.225188
1.225188
1.225188
1.225188
1.225188
1.225188
1.225188
1.2251879
1.2251879
1.2251879
1.2251879
1.2251879
1.2251879
1.2251879
1.2251879
1.2251879
1.2251878
1.2251878
1.2251878
1.2251878
1.2251878
1.2251878
1.2251878
1.2251878
1.2251877
1.2251877
1.2251877
1.2251877
1.2251877
1.2251877
1.2251877
1.2251877
1.2251877
1.2251876
1.2251876
1.2251876
1.2251876
1.2251876
1.2251876
1.2251876
1.2251876
1.2251875
1.2251875
1.2251875
1.2251875
1.2251875
1.2251875
1.2251875
1.2251875
1.2251875
1.2251874
1.2251874
1.2251874
1.2251874
1.2251874
1.2251874
1.2251874
1.2251874
1.2251873
1.2251873
1.2251873
1.2251873
1.2251873
1.2251873
1.2251873
1.2251873
1.2251873
1.2251872
1.2251872
1.2251872
1.2251872
1.2251872
1.2251872
1.2251872
1.2251872
1.2251872
1.2251871
1.2251871
1.2251871
1.2251871
1.2251871
1.2251871
1.2251871
1.2251871
1.225187
1.225187
1.225187
1.225187
1.225187
1.225187
1.225187
1.225187
1.225187
1.2251869
1.2251869
1.2251869
1.2251869
1.2251869
1.2251869
1.2251869
1.2251869
1.2251869
1.2251868
1.2251868
1.2251868
1.2251868
1.2251868
1.2251868
1.2251868
1.2251868
1.2251867
1.2251867
1.2251867
1.2251867
1.2251867
1.2251867
1.2251867
1.2251867
1.2251867
1.2251866
1.2251866
1.2251866
1.2251866
1.2251866
1.2251866
1.2251866
1.2251866
1.2251865
1.2251865
1.2251865
1.2251865
1.2251865
1.2251865
1.2251865
1.2251865
1.2251865
1.2251864
1.2251864
1.2251864
1.2251864
1.2251864
1.2251864
1.2251864
1.2251864
1.2251863
1.2251863
1.2251863
1.2251863
1.2251863
1.2251863
1.2251863
1.2251863
1.2251863
1.2251862
1.2251862
1.2251862
1.2251862
1.2251862
1.2251862
1.2251862
1.2251862
1.2251861
1.2251861
1.2251861
1.2251861
1.2251861
1.2251861
1.2251861
1.2251861
1.225186
1.225186
1.225186
1.225186
1.225186
1.225186
1.225186
1.225186
1.2251859
1.2251859
1.2251859
1.2251859
1.2251859
1.2251859
1.2251859
1.2251858
1.2251858
1.2251858
1.2251858
1.2251858
1.2251858
1.2251858
1.2251858
1.2251857
1.2251857
1.2251857
1.2251857
1.2251857
1.2251857
1.2251857
1.2251856
1.2251856
1.2251856
1.2251856
1.2251856
1.2251856
1.2251856
1.2251855
1.2251855
1.2251855
1.2251855
1.2251855
1.2251855
1.2251855
1.2251854
1.2251854
1.2251854
1.2251854
1.2251854
1.2251854
1.2251853
1.2251853
1.2251853
1.2251853
1.2251853
1.2251853
1.2251853
1.2251852
1.2251852
1.2251852
1.2251852
1.2251852
1.2251852
1.2251851
1.2251851
1.2251851
1.2251851
1.2251851
1.2251851
1.225185
1.225185
1.225185
1.225185
1.225185
1.225185
1.2251849
1.2251849
1.2251849
1.2251849
1.2251849
1.2251849
1.2251848
1.2251848
1.2251848
1.2251848
1.2251848
1.2251848
1.2251847
1.2251847
1.2251847
1.2251847
1.2251847
1.2251846
1.2251846
1.2251846
1.2251846
1.2251846
1.2251845
1.2251845
1.2251845
1.2251845
1.2251845
1.2251844
1.2251844
1.2251844
1.2251844
1.2251844
1.2251843
1.2251843
1.2251843
1.2251843
1.2251843
1.2251842
1.2251842
1.2251842
1.2251842
1.2251842
1.2251841
1.2251841
1.2251841
1.2251841
1.2251841
1.225184
1.225184
1.225184
1.225184
1.2251839
1.2251839
1.2251839
1.2251839
1.2251839
1.2251838
1.2251838
1.2251838
1.2251838
1.2251837
1.2251837
1.2251837
1.2251837
1.2251836
1.2251836
1.2251836
1.2251836
1.2251835
1.2251835
1.2251835
1.2251835
1.2251834
1.2251834
1.2251834
1.2251834
1.2251833
1.2251833
1.2251833
1.2251833
1.2251832
1.2251832
1.2251832
1.2251831
1.2251831
1.2251831
1.2251831
1.225183
1.225183
1.225183
1.2251829
1.2251829
1.2251829
1.2251829
1.2251828
1.2251828
1.2251828
1.2251827
1.2251827
1.2251827
1.2251827
1.2251826
1.2251826
1.2251826
1.2251825
1.2251825
1.2251825
1.2251824
1.2251824
1.2251824
1.2251823
1.2251823
1.2251823
1.2251822
1.2251822
1.2251821
1.2251821
1.2251821
1.225182
1.225182
1.225182
1.2251819
1.2251819
1.2251818
1.2251818
1.2251818
1.2251817
1.2251817
1.2251816
1.2251816
1.2251816
1.2251815
1.2251815
1.2251814
1.2251814
1.2251813
1.2251813
1.2251812
1.2251812
1.2251811
1.2251811
1.225181
1.225181
1.2251809
1.2251809
1.2251808
1.2251808
1.2251807
1.2251807
1.2251806
1.2251806
1.2251805
1.2251804
1.2251804
1.2251803
1.2251803
1.2251802
1.2251801
1.2251801
1.22518
1.2251799
1.2251799
1.2251798
1.2251797
1.2251796
1.2251796
1.2251795
1.2251794
1.2251793
1.2251793
1.2251792
1.2251791
1.225179
1.2251789
1.2251788
1.2251788
1.2251787
1.2251786
1.2251785
1.2251784
1.2251783
1.2251782
1.2251781
1.225178
1.2251779
1.2251778
1.2251776
1.2251775
1.2251774
1.2251773
1.2251772
1.2251771
1.2251769
1.2251768
1.2251767
1.2251765
1.2251764
1.2251762
1.2251761
1.225176
1.2251758
1.2251756
1.2251755
1.2251753
1.2251752
1.225175
1.2251748
1.2251746
1.2251745
1.2251743
1.2251741
1.2251739
1.2251737
1.2251735
1.2251733
1.2251731
1.2251728
1.2251726
1.2251724
1.2251722
1.2251719
1.2251717
1.2251714
1.2251712
1.2251709
1.2251706
1.2251704
1.2251701
1.2251698
1.2251695
1.2251692
1.2251689
1.2251686
1.2251682
1.2251679
1.2251676
1.2251672
1.2251669
1.2251665
1.2251661
1.2251657
1.2251654
1.225165
1.2251645
1.2251641
1.2251637
1.2251633
1.2251628
1.2251623
1.2251619
1.2251614
1.2251609
1.2251604
1.2251599
1.2251593
1.2251588
1.2251582
1.2251577
1.2251571
1.2251565
1.2251559
1.2251553
1.2251546
1.225154
1.2251533
1.2251526
1.2251519
1.2251512
1.2251505
1.2251497
1.2251489
1.2251482
1.2251474
1.2251465
1.2251457
1.2251448
1.2251439
1.225143
1.2251421
1.2251412
1.2251402
1.2251392
1.2251382
1.2251372
1.2251361
1.2251351
1.225134
1.2251328
1.2251317
1.2251305
1.2251293
1.225128
1.2251268
1.2251255
1.2251242
1.2251228
1.2251215
1.2251201
1.2251186
1.2251171
1.2251156
1.2251141
1.2251125
1.2251109
1.2251093
1.2251076
1.2251059
1.2251042
1.2251024
1.2251006
1.2250987
1.2250968
1.2250949
1.2250929
1.2250909
1.2250888
1.2250867
1.2250845
1.2250823
1.2250801
1.2250778
1.2250754
1.225073
1.2250706
1.2250681
1.2250655
1.2250629
1.2250603
1.2250576
1.2250548
1.225052
1.2250491
1.2250462
1.2250432
1.2250402
1.2250371
1.2250339
1.2250306
1.2250273
1.225024
1.2250205
1.225017
1.2250135
1.2250098
1.2250061
1.2250023
1.2249984
1.2249945
1.2249905
1.2249864
1.2249822
1.224978
1.2249737
1.2249692
1.2249648
1.2249602
1.2249555
1.2249508
1.2249459
1.224941
1.224936
1.2249308
1.2249256
1.2249203
1.2249149
1.2249094
1.2249038
1.2248981
1.2248923
1.2248864
1.2248803
1.2248742
1.224868
1.2248616
1.2248552
1.2248486
1.2248419
1.2248351
1.2248282
1.2248211
1.2248139
1.2248066
1.2247992
1.2247917
1.224784
1.2247762
1.2247683
1.2247602
1.224752
1.2247436
1.2247351
1.2247265
1.2247177
1.2247088
1.2246998
1.2246905
1.2246812
1.2246717
1.224662
1.2246522
1.2246422
1.2246321
1.2246218
1.2246113
1.2246007
1.2245899
1.2245789
1.2245678
1.2245565
1.224545
1.2245333
1.2245215
1.2245095
1.2244973
1.2244849
1.2244723
1.2244595
1.2244466
1.2244334
1.2244201
1.2244066
1.2243928
1.2243789
1.2243647
1.2243504
1.2243358
1.2243211
1.2243061
1.2242909
1.2242755
1.2242599
1.2242441
1.224228
1.2242117
1.2241952
1.2241785
1.2241615
1.2241443
1.2241269
1.2241092
1.2240913
1.2240732
1.2240548
1.2240362
1.2240173
1.2239982
1.2239788
1.2239592
1.2239393
1.2239191
1.2238987
1.2238781
1.2238571
1.223836
1.2238145
1.2237928
1.2237708
1.2237485
1.223726
1.2237032
1.2236801
1.2236567
1.2236331
1.2236091
1.2235849
1.2235604
1.2235356
1.2235105
1.2234851
1.2234594
1.2234335
1.2234072
1.2233806
1.2233537
1.2233265
1.223299
1.2232712
1.2232431
1.2232147
1.223186
1.2231569
1.2231275
1.2230979
1.2230679
1.2230375
1.2230069
1.2229759
1.2229446
1.222913
1.222881
1.2228487
1.2228161
1.2227831
1.2227498
1.2227162
1.2226822
1.2226479
1.2226133
1.2225783
1.222543
1.2225073
1.2224713
1.2224349
1.2223982
1.2223611
1.2223237
1.2222859
1.2222478
1.2222094
1.2221705
1.2221313
1.2220918
1.2220519
1.2220117
1.221971
1.2219301
1.2218887
1.221847
1.221805
1.2217625
1.2217198
1.2216766
1.2216331
1.2215892
1.221545
1.2215004
1.2214554
1.22141
1.2213643
1.2213182
1.2212718
1.221225
1.2211778
1.2211302
1.2210823
1.221034
1.2209854
1.2209364
1.220887
1.2208372
1.2207871
1.2207366
1.2206857
1.2206345
1.2205829
1.2205309
1.2204785
1.2204258
1.2203728
1.2203193
1.2202655
1.2202113
1.2201568
1.2201019
1.2200466
1.219991
1.219935
1.2198787
1.219822
1.2197649
1.2197075
1.2196497
1.2195916
1.2195331
1.2194742
1.219415
1.2193555
1.2192956
1.2192353
1.2191748
1.2191138
1.2190525
1.2189909
1.2189289
1.2188666
1.218804
1.218741
1.2186777
1.218614
1.21855
1.2184857
1.2184211
1.2183561
1.2182908
1.2182252
1.2181593
1.2180931
1.2180265
1.2179596
1.2178924
1.2178249
1.2177571
1.217689
1.2176206
1.2175519
1.2174829
1.2174136
1.217344
1.2172742
1.217204
1.2171336
1.2170628
1.2169918
1.2169206
1.216849
1.2167772
1.2167051
1.2166328
1.2165602
1.2164873
1.2164142
1.2163408
1.2162672
1.2161933
1.2161192
1.2160449
1.2159703
1.2158955
1.2158205
1.2157453
1.2156698
1.2155941
1.2155182
1.2154421
1.2153658
1.2152893
1.2152126
1.2151356
1.2150585
1.2149813
1.2149038
1.2148261
1.2147483
1.2146703
1.2145921
1.2145138
1.2144353
1.2143567
1.2142779
1.2141989
1.2141198
1.2140406
1.2139612
1.2138818
1.2138021
1.2137224
1.2136425
1.2135625
1.2134825
1.2134023
1.213322
1.2132416
1.2131611
1.2130805
1.2129999
1.2129191
1.2128383
1.2127574
1.2126765
1.2125955
1.2125144
1.2124333
1.2123521
1.2122709
1.2121896
1.2121083
1.212027
1.2119457
1.2118643
1.2117829
1.2117015
1.2116201
1.2115387
1.2114573
1.2113759
1.2112945
1.2112131
1.2111317
1.2110504
1.210969
1.2108878
1.2108065
1.2107253
1.2106441
1.210563
1.210482
1.210401
1.2103201
1.2102392
1.2101584
1.2100777
1.209997
1.2099165
1.209836
1.2097556
1.2096753
1.2095952
1.2095151
1.2094351
1.2093553
1.2092755
1.2091959
1.2091164
1.2090371
1.2089579
1.2088788
1.2087998
1.2087211
1.2086424
1.2085639
1.2084856
1.2084074
1.2083294
1.2082516
1.2081739
1.2080965
1.2080192
1.207942
1.2078651
1.2077884
1.2077118
1.2076355
1.2075593
1.2074834
1.2074077
1.2073321
1.2072568
1.2071818
1.2071069
1.2070322
1.2069578
1.2068836
1.2068097
1.206736
1.2066625
1.2065893
1.2065163
1.2064435
1.2063711
1.2062988
1.2062268
1.2061551
1.2060837
1.2060125
1.2059415
1.2058709
1.2058005
1.2057303
1.2056605
1.2055909
1.2055216
1.2054526
1.2053839
1.2053155
1.2052473
1.2051795
1.2051119
1.2050446
1.2049776
1.2049109
1.2048446
1.2047785
1.2047127
1.2046472
1.204582
1.2045171
1.2044526
1.2043883
1.2043243
1.2042607
1.2041974
1.2041343
1.2040716
1.2040092
1.2039472
1.2038854
1.203824
1.2037628
1.203702
1.2036415
1.2035814
1.2035215
1.203462
1.2034028
1.2033439
1.2032853
1.2032271
1.2031692
1.2031116
1.2030543
1.2029974
1.2029407
1.2028844
1.2028285
1.2027728
1.2027175
1.2026625
1.2026078
1.2025534
1.2024994
1.2024457
1.2023923
1.2023392
1.2022865
1.2022341
1.202182
1.2021302
1.2020787
1.2020276
1.2019768
1.2019263
1.2018761
1.2018262
1.2017766
1.2017274
1.2016785
1.2016299
1.2015816
1.2015336
1.2014859
1.2014386
1.2013915
1.2013448
1.2012984
1.2012523
1.2012064
1.2011609
1.2011157
1.2010708
1.2010262
1.200982
1.200938
1.2008943
1.2008509
1.2008078
1.200765
1.2007225
1.2006803
1.2006383
1.2005967
1.2005554
1.2005143
1.2004735
1.2004331
1.2003929
1.2003529
1.2003133
1.200274
1.2002349
1.2001961
1.2001576
1.2001194
1.2000814
1.2000437
1.2000063
1.1999692
1.1999323
1.1998957
1.1998593
1.1998233
1.1997874
1.1997519
1.1997166
1.1996816
1.1996468
1.1996123
1.199578
1.199544
1.1995103
1.1994768
1.1994435
1.1994105
1.1993778
1.1993453
1.199313
1.199281
1.1992492
1.1992177
1.1991864
1.1991553
1.1991245
1.1990939
1.1990636
1.1990335
1.1990036
1.1989739
1.1989445
1.1989153
1.1988863
1.1988576
1.1988291
1.1988008
1.1987727
1.1987449
1.1987172
1.1986898
1.1986626
1.1986356
1.1986089
1.1985823
1.198556
1.1985299
1.1985039
1.1984782
1.1984527
1.1984274
1.1984023
1.1983774
1.1983527
1.1983282
1.198304
1.1982799
1.198256
1.1982323
1.1982088
1.1981855
1.1981624
1.1981395
1.1981168
1.1980942
1.1980719
1.1980497
1.1980278
1.198006
1.1979844
1.197963
1.1979418
1.1979207
1.1978999
1.1978792
1.1978587
1.1978383
1.1978182
1.1977982
1.1977784
1.1977588
1.1977394
1.1977201
1.197701
1.1976821
1.1976633
1.1976447
1.1976263
1.197608
1.1975899
1.197572
1.1975542
1.1975366
1.1975191
1.1975018
1.1974847
1.1974677
1.1974509
1.1974343
1.1974178
1.1974014
1.1973852
1.1973692
1.1973533
1.1973375
1.197322
1.1973065
1.1972912
1.1972761
1.1972611
1.1972462
1.1972315
1.1972169
1.1972025
1.1971882
1.1971741
1.1971601
1.1971462
1.1971325
1.1971189
1.1971054
1.1970921
1.1970789
1.1970658
1.1970529
1.1970401
1.1970274
1.1970149
1.1970025
1.1969902
1.196978
1.196966
1.1969541
1.1969423
1.1969306
1.196919
1.1969076
1.1968962
1.196885
1.1968739
1.1968629
1.196852
1.1968412
1.1968306
1.19682
1.1968095
1.1967992
1.1967889
1.1967787
1.1967686
1.1967587
1.1967488
1.196739
1.1967293
1.1967197
1.1967102
1.1967008
1.1966914
1.1966822
1.196673
1.1966639
1.1966549
1.196646
1.1966371
1.1966283
1.1966196
1.196611
1.1966025
1.196594
1.1965856
1.1965773
1.196569
1.1965608
1.1965527
1.1965446
1.1965366
1.1965286
1.1965207
1.1965129
1.1965051
1.1964974
1.1964897
1.1964821
1.1964746
1.1964671
1.1964597
1.1964524
1.1964451
1.1964379
1.1964308
1.1964238
1.1964169
1.1964101
1.1964033
1.1963967
1.1963903
1.1963841
1.196378
1.1963722
1.1963665
1.1963611
1.1963558
1.1963508
1.196346
1.1963412
1.1963368
1.1963327
1.1963286
1.1963245
1.1963203
1.1963159
1.1963116
1.1963072
1.1963024
1.1962966
1.1962885
1.1962749
1.1962483
1.1961905
1.196059
1.1957517
1.1951491
1.1943277
1.1932629
1.1919396
1.1903515
1.1885013
1.186401
1.1840712
1.1815398
1.1788415
1.1760151
1.1731026
1.1701468
1.1671898
1.1642716
1.1614286
1.1586925
1.1560902
1.1536427
1.1513655
1.1492689
1.1473577
1.1456326
1.1440899
1.1427231
1.141523
1.1404784
1.1395769
1.1388055
1.1381509
1.1376
1.1371401
1.1367593
1.1364465
1.1361918
1.135986
1.1358212
1.1356904
1.1355875
1.1355073
1.1354456
1.1353985
1.1353632
1.1353371
1.1353181
1.1353045
1.1352952
1.1352889
1.135285
1.1352825
1.1352808
1.1352797
1.1352804
1.1352822
1.1352839
1.1352855
1.1352871
1.1352885
1.1352899
1.135291
1.1352921
1.1352931
1.1352939
1.1352946
1.1352952
1.1352958
1.1352963
1.1352966
1.135297
1.1352973
1.1352975
1.1352977
1.1352978
1.1352979
1.135298
1.135298
1.1352981
1.1352981
1.135298
1.135298
1.1352979
1.1352979
1.1352978
1.1352977
1.1352976
1.1352975
1.1352974
1.1352973
1.1352972
1.1352971
1.135297
1.1352969
1.1352967
1.1352966
1.1352965
1.1352964
1.1352963
1.1352962
1.1352961
1.135296
1.135296
1.1352959
1.1352958
1.1352958
1.1352957
1.1352957
1.1352956
1.1352956
1.1352956
1.1352955
1.1352955
1.1352955
1.1352955
1.1352955
1.1352955
1.1352955
1.1352955
1.1352956
1.1352956
1.1352956
1.1352956
1.1352957
1.1352957
1.1352957
1.1352958
1.1352958
1.1352958
1.1352959
1.1352959
1.1352959
1.135296
1.135296
1.1352961
1.1352961
1.1352962
1.1352962
1.1352963
1.1352963
1.1352964
1.1352964
1.1352965
1.1352965
1.1352966
1.1352967
1.1352967
1.1352968
1.1352969
1.1352969
1.135297
1.1352971
1.1352972
1.1352972
1.1352973
1.1352974