/*--------------------------------*- C++ -*----------------------------------*\
  =========                 |
  \\      /  F ield         | OpenFOAM: The Open Source CFD Toolbox
   \\    /   O peration     | Website:  https://openfoam.org
    \\  /    A nd           | Version:  7
     \\/     M anipulation  |
\*---------------------------------------------------------------------------*/
FoamFile
{
    version     2.0;
    format      ascii;
    class       volScalarField;
    location    "0.0029";
    object      Uz;
}
// * * * * * * * * * * * * * * * * * * * * * * * * * * * * * * * * * * * * * //

dimensions      [0 1 -1 0 0 0 0];

internalField   nonuniform List<scalar> 
5000
(
0
0
0
0
0
-1.3674029e-21
-2.897e-36
4.0421174e-21
1.3329211e-21
-2.6342836e-21
-2.6035249e-21
1.2829991e-21
-1.0710735e-35
-1.1030599e-35
2.5604925e-21
-2.6195913e-21
4.6072601e-52
-1.1771333e-35
-1.3390492e-21
2.6794136e-21
1.3371903e-21
0
0
-1.3092237e-21
1.1093719e-35
-1.0628603e-35
-1.2792618e-21
1.2834341e-21
1.2971704e-21
-1.3111535e-21
2.3107792e-35
-1.1310818e-35
-1.3220629e-21
1.3117055e-21
1.2998566e-21
0
0
-1.2679562e-21
-1.2741419e-21
1.2895764e-21
-2.1840815e-35
-1.3121954e-21
1.3120205e-21
-2.1934762e-35
-1.2792409e-21
1.2568707e-21
-4.2616905e-35
4.2680206e-35
-4.366638e-35
2.2010563e-35
1.3047202e-21
0
0
0
0
0
0
0
0
0
0
0
0
-1.2379322e-21
-1.223316e-21
1.2285527e-21
-2.1449082e-35
1.0601578e-52
1.2769193e-21
0
0
-1.2452316e-21
-1.2264889e-21
0
1.2222217e-21
4.2894705e-35
-1.2616814e-21
-1.2670448e-21
1.254572e-21
2.4757735e-21
-2.4393958e-21
6.8455312e-37
3.619766e-21
-2.4492114e-21
-1.2947704e-34
2.5093713e-21
-3.7415966e-21
1.2301893e-21
1.2139822e-21
-1.1959609e-21
1.1905163e-21
1.2069927e-21
4.2769142e-35
-2.4819712e-21
-8.5591438e-35
-1.2218366e-21
-1.2092805e-21
-4.1901958e-35
8.2532226e-35
2.3943067e-21
1.2155359e-21
-1.2257716e-21
1.737446e-37
1.2125807e-21
0
-1.1937825e-21
-4.1406884e-35
1.1961575e-21
-1.2067068e-21
-1.2112211e-21
2.413733e-21
1.2006135e-21
-3.585373e-21
-1.1912647e-21
3.5729985e-21
-1.1944977e-21
-1.2006592e-21
-6.8335307e-37
-1.1998123e-21
3.5941196e-21
-8.3649201e-35
-2.3909126e-21
2.3875176e-21
1.1891417e-21
-1.1813958e-21
1.1715414e-21
-1.1616139e-21
-2.3026089e-21
1.1445063e-21
3.6478746e-35
9.8066045e-22
2.1263255e-21
-1.2003437e-21
-1.1944729e-21
-1.0856783e-21
-3.7528206e-35
-3.9428458e-35
4.0285249e-35
2.2964534e-21
1.1513513e-21
-1.1666378e-21
-2.3436266e-21
-1.1662456e-21
-1.1597625e-21
7.9923989e-35
2.295801e-21
-3.2751869e-37
3.2960702e-37
1.9390663e-51
1.1605122e-21
-8.0180467e-35
1.605271e-34
1.1507161e-21
-1.1512069e-21
1.1523618e-21
3.994329e-35
-1.149002e-21
1.1461444e-21
-1.6287531e-37
-1.1470294e-21
0
1.1458621e-21
7.8981079e-35
-2.2743024e-21
1.1379127e-21
-3.2406201e-37
-1.141299e-21
1.1395154e-21
-1.132791e-21
1.1267853e-21
-4.6987521e-34
-3.1506562e-34
1.1414172e-21
-2.273729e-21
0
-7.7628181e-35
-2.3149135e-34
1.1191558e-21
1.1323824e-21
7.8496492e-35
-1.132811e-21
1.1238695e-21
7.659831e-35
4.7179219e-37
1.5412739e-34
-2.2517101e-21
1.1331432e-21
1.1299307e-21
-7.7255757e-35
7.6829339e-35
-2.3033434e-34
7.6607836e-35
-1.1185132e-21
0
0
0
0
-1.1108912e-21
2.3110568e-34
1.1145034e-21
1.1216434e-21
-1.1237164e-21
-1.1199753e-21
2.2286189e-21
7.6692436e-35
-2.2952083e-34
-1.1113749e-21
-1.1181089e-21
1.1204546e-21
0
1.1128606e-21
7.6683982e-35
-1.1076338e-21
-1.113579e-21
1.5581641e-34
1.1167284e-21
-2.2235974e-21
1.1054306e-21
1.1006833e-21
-1.1050255e-21
1.1143088e-21
0
0
0
1.1049474e-21
-1.1011011e-21
-2.2081303e-21
1.1104715e-21
-7.7495109e-35
1.1160091e-21
1.1146492e-21
-2.2286685e-21
3.1632661e-37
-3.1576355e-37
1.1094233e-21
1.104833e-21
-2.2012614e-21
1.5673557e-37
-2.3127427e-34
1.1146176e-21
-6.1704814e-34
-1.5329051e-34
1.0973011e-21
-1.0919066e-21
0
-1.1099879e-21
1.1155372e-21
1.1104747e-21
-1.1031743e-21
0
-1.0884302e-21
1.0944071e-21
1.1068142e-21
-3.8685228e-34
-2.2222745e-21
-2.2095931e-21
3.2933557e-21
2.1854541e-21
0
-2.2090335e-21
-1.1086554e-21
1.1064475e-21
1.0989748e-21
1.0914284e-21
-2.181429e-21
-2.2018456e-21
1.1074216e-21
2.2111392e-21
3.0501147e-34
-2.1725568e-21
1.076144e-21
-1.4996935e-34
-1.0982664e-21
2.2188868e-21
-1.1079438e-21
1.5291125e-34
1.0822773e-21
-1.0681986e-21
1.0698371e-21
-2.1754682e-21
4.6204677e-34
2.2286553e-21
-2.2101777e-21
-7.5635073e-35
1.0788746e-21
0
0
1.0907157e-21
-1.1059257e-21
-2.2194552e-21
1.1014642e-21
-3.1042445e-37
1.0817238e-21
1.0739134e-21
-1.0784146e-21
0
-1.1021046e-21
-1.1030707e-21
0
2.1771581e-21
1.0795459e-21
-2.1487788e-21
7.4868385e-35
-3.112036e-37
1.1012085e-21
1.0962082e-21
-1.0887059e-21
1.0800257e-21
-1.0734382e-21
6.1204575e-37
2.1752939e-21
-1.0945282e-21
-1.0931004e-21
-1.0876496e-21
-1.497676e-34
1.0729522e-21
0
0
-1.0891388e-21
1.5138503e-34
-3.0142621e-34
-1.5011924e-34
1.0739919e-21
-1.0715217e-21
1.530648e-37
1.0835066e-21
0
0
0
0
0
0
0
-1.0809895e-21
0
1.0739183e-21
0
-1.068347e-21
-2.9708909e-34
1.0748286e-21
0
0
-1.0716672e-21
-1.4873999e-34
1.0708717e-21
0
0
-1.0634418e-21
-1.0596909e-21
1.0604349e-21
1.0654268e-21
0
-1.0658037e-21
1.5079714e-37
1.0561908e-21
-1.0521219e-21
-1.053232e-21
1.058765e-21
1.0624844e-21
0
-1.0574532e-21
-1.0535055e-21
1.049742e-21
1.0483316e-21
0
-1.0543767e-21
-1.0552414e-21
1.0530583e-21
1.0497543e-21
0
0
0
0
0
0
0
0
-1.0412518e-21
-1.0987591e-51
1.0413277e-21
0
0
0
-1.0328354e-21
-1.4364842e-34
1.0382499e-21
-1.0384984e-21
1.4395179e-34
-1.4723051e-37
-1.4351928e-34
1.0300133e-21
-1.0258168e-21
1.0183208e-21
-5.6168299e-34
-1.010456e-21
1.0184376e-21
0
0
-1.0274704e-21
-1.4180229e-34
1.0169977e-21
-1.0124309e-21
-1.0072792e-21
0
1.0102319e-21
1.0183552e-21
-1.0209829e-21
-2.8204644e-34
1.6476908e-51
-1.3868355e-34
9.899053e-22
-9.9160502e-22
2.5495229e-51
-1.4060712e-34
-1.0134171e-21
0
0
9.8774366e-22
1.3976643e-37
-4.1265787e-34
1.0041011e-21
0
0
-9.9618811e-22
2.7387952e-34
9.8131393e-22
0
0
0
-9.9746543e-22
1.4102207e-37
9.8487917e-22
-9.7826742e-22
9.7821676e-22
-2.7401208e-34
-1.9826726e-21
9.9100736e-22
4.1113495e-34
1.3610654e-34
-1.3527484e-34
-9.7415365e-22
0
0
9.8436788e-22
1.3614684e-34
-2.7041462e-34
-1.6350268e-52
-9.7115033e-22
9.7703631e-22
9.80764e-22
0
-9.7313029e-22
-1.3424727e-34
9.6308469e-22
0
0
-9.7391902e-22
2.7589398e-37
5.7767261e-53
-9.5764482e-22
9.5719402e-22
-1.3363217e-34
1.3461256e-34
-2.6881303e-34
-9.646208e-22
9.5772132e-22
-2.6436093e-34
2.6476642e-34
-2.6671768e-34
-9.6588643e-22
9.6454747e-22
-2.6658877e-34
1.3286666e-34
0
-9.5400002e-22
9.5778212e-22
-1.3303373e-34
1.3587596e-37
-1.3197447e-34
1.314799e-34
9.4850377e-22
-9.5268957e-22
-9.5428442e-22
9.5148178e-22
9.4343346e-22
0
-9.3564413e-22
-9.4548161e-22
0
9.4997954e-22
-1.311326e-34
1.3264097e-37
1.2822874e-34
-9.276203e-22
9.4049701e-22
1.3162881e-34
-2.632862e-34
-9.4160379e-22
-9.311837e-22
1.843127e-21
-1.3097798e-37
1.2939325e-34
9.443383e-22
-9.4729766e-22
1.3070689e-34
9.3470391e-22
0
0
0
-9.3788059e-22
-9.437649e-22
9.3974479e-22
9.3343604e-22
0
-9.1904995e-22
-9.2179539e-22
9.3171069e-22
9.3770479e-22
0
-9.3175242e-22
-9.241989e-22
9.1769503e-22
2.5509624e-34
-9.2734015e-22
0
0
0
0
9.1667982e-22
-2.5426776e-34
-9.2442056e-22
9.3049822e-22
1.2922506e-34
-1.2885171e-34
4.863668e-53
9.1441644e-22
9.1452417e-22
-1.8421007e-21
-1.287381e-34
1.2849678e-34
-9.2095792e-22
0
9.1039825e-22
9.170556e-22
-9.2533322e-22
-2.5721451e-34
9.2113224e-22
0
0
-8.9707516e-22
1.259471e-34
9.1908197e-22
0
-9.2072197e-22
1.2980148e-37
-2.5172854e-34
-1.2575261e-34
9.1606634e-22
-9.2101298e-22
1.3040145e-37
-2.5304389e-34
-8.9826183e-22
8.884354e-22
2.4809993e-34
1.2903723e-37
-1.278928e-34
-9.2457883e-22
9.1781004e-22
0
-5.0002177e-34
-1.238911e-34
-3.7181013e-34
-1.2808415e-37
-9.0967184e-22
9.1469817e-22
2.1242113e-52
-1.2725302e-34
2.5336302e-34
-1.2603784e-34
1.8027965e-21
-8.9513875e-22
-8.9524907e-22
-1.2533831e-34
1.2637605e-34
1.8248342e-21
-9.0912743e-22
-9.0439285e-22
-9.3335686e-53
0
-1.1869883e-52
-9.0561309e-22
9.0719607e-22
1.9431894e-52
-1.2495368e-34
-1.2743495e-37
-8.9713103e-22
1.803139e-21
2.5139973e-34
-9.0422059e-22
1.2485858e-34
-1.2415761e-34
8.9222797e-22
-8.9667291e-22
-2.3287038e-52
-3.7547744e-34
2.497025e-34
-2.4768638e-34
-2.4630441e-34
-1.932708e-52
0
9.0043552e-22
0
0
-8.8480433e-22
-2.4452952e-34
8.8782383e-22
0
0
-1.7804971e-21
-7.2953445e-34
1.7251826e-21
-8.6324765e-22
1.2494108e-37
-1.2463133e-34
-9.0499183e-22
0
0
0
-8.502785e-22
-2.3788889e-34
8.7570521e-22
0
0
-8.9818964e-22
1.2687612e-37
8.8616547e-22
0
0
-8.6483734e-22
-2.413451e-34
-2.4508148e-34
2.4800789e-34
8.9475915e-22
-8.8734518e-22
2.4424523e-34
-2.4154056e-34
2.3942871e-34
8.686557e-22
0
0
-8.9099186e-22
-9.8579485e-51
8.7806417e-22
0
0
-8.7160038e-22
1.1952974e-51
8.8991286e-22
0
0
-8.7673425e-22
3.0102409e-51
8.7090665e-22
0
0
-8.8496339e-22
1.2535158e-37
8.7491471e-22
-8.6831585e-22
2.4157361e-34
-2.4417844e-34
2.464263e-34
8.8844889e-22
0
0
0
0
0
-8.8309607e-22
2.4712152e-34
8.8974343e-22
0
0
0
0
0
0
0
-8.9166902e-22
4.9344879e-34
8.8546991e-22
0
0
0
0
0
0
0
-8.8800535e-22
2.4552953e-34
8.8191153e-22
0
0
-8.9147666e-22
2.4732587e-34
8.8641208e-22
0
0
0
-8.9241227e-22
-2.4875323e-34
8.9253487e-22
0
0
0
0
0
0
0
-8.8926395e-22
1.2491647e-37
8.6872583e-22
0
0
0
0
0
0
0
-8.9679269e-22
-1.2734563e-37
8.9565374e-22
0
0
0
-8.9398737e-22
4.9825657e-34
9.0104381e-22
0
-9.0263129e-22
-2.5051818e-34
9.0096165e-22
0
0
-9.0184694e-22
-9.026634e-22
9.0233816e-22
9.0178433e-22
0
0
0
0
9.030243e-22
-1.2846177e-37
-1.8077302e-21
-9.0320024e-22
1.8046368e-21
1.8032961e-21
-9.0099903e-22
-9.0034174e-22
0
0
0
0
-9.0266843e-22
-2.5080164e-34
9.0261707e-22
0
0
0
0
0
0
0
0
0
0
0
0
0
0
-8.874619e-22
4.9208863e-34
8.8740676e-22
0
0
8.9480108e-22
-2.486265e-34
1.2715714e-37
-8.9334528e-22
-8.9190638e-22
-4.9442966e-34
2.4700729e-34
8.8833131e-22
0
0
0
0
0
-8.8336915e-22
4.8947582e-34
8.8074629e-22
0
0
0
0
0
0
0
-8.7361863e-22
4.847433e-34
8.7337227e-22
0
0
0
0
0
0
0
-8.682412e-22
7.2226276e-34
8.6632104e-22
0
0
0
0
0
0
0
0
-8.5524821e-22
1.2137714e-37
8.5303677e-22
0
0
0
0
-8.475413e-22
8.4638449e-22
8.4521569e-22
-1.6880698e-21
-2.3404039e-34
8.4163262e-22
0
0
0
0
-8.3521981e-22
2.3141811e-34
1.6648007e-21
-8.3096497e-22
-8.2952321e-22
8.2809716e-22
0
0
0
-8.2279204e-22
-2.2790493e-34
8.2044792e-22
8.1927464e-22
-8.1805122e-22
-8.1681407e-22
8.1557652e-22
0
0
-8.1174614e-22
-8.1040742e-22
8.0903794e-22
8.0765262e-22
8.0627675e-22
4.470422e-34
-8.0369445e-22
0
0
0
-7.9914436e-22
-7.9800466e-22
7.9686103e-22
7.9571066e-22
7.9454907e-22
2.2019214e-34
-7.9219171e-22
0
0
0
-7.8731543e-22
2.1816522e-34
7.8483371e-22
0
0
0
0
0
0
0
-7.7412096e-22
2.1450067e-34
1.543402e-21
2.1398519e-34
-7.6971125e-22
0
0
-7.6707295e-22
1.0888011e-37
-2.1250811e-34
2.1215806e-34
7.6356565e-22
7.6271204e-22
-2.1155594e-34
-7.6103702e-22
0
0
-7.5861045e-22
6.3106005e-34
2.1008766e-34
-1.0745377e-37
7.5529867e-22
-7.5445007e-22
-7.5359288e-22
1.5054479e-21
-4.1712117e-34
-7.5098283e-22
7.501257e-22
0
-7.4847453e-22
-2.0771439e-34
7.4680491e-22
0
-7.4517388e-22
7.4446948e-22
-8.259708e-34
-7.4329994e-22
7.4286537e-22
0
-7.4196533e-22
0
7.410137e-22
0
-7.401301e-22
7.396899e-22
-4.1013627e-34
-7.3884607e-22
7.3844589e-22
0
-7.3770393e-22
-2.0475427e-34
7.3706406e-22
0
-7.365203e-22
7.3630517e-22
-2.0921553e-37
-7.3592898e-22
7.3576556e-22
0
-7.3545742e-22
-7.3532154e-22
7.351893e-22
7.3508541e-22
-7.3495897e-22
7.3483366e-22
7.3470344e-22
-7.3456612e-22
0
0
0
0
0
0
-7.3417599e-22
4.6444291e-55
1.4684734e-21
-7.3429222e-22
-7.3437639e-22
7.3459592e-22
0
0
-7.355526e-22
-7.3589454e-22
7.3625744e-22
7.3663056e-22
0
-7.37403e-22
-2.0497774e-34
7.3821219e-22
0
0
-7.3942743e-22
-7.3980448e-22
7.4018029e-22
7.4055512e-22
0
-7.4137309e-22
2.0598249e-34
7.4223367e-22
-7.4276381e-22
-4.1283474e-34
-1.0572591e-37
-7.4460828e-22
7.452573e-22
7.4592368e-22
0
0
-7.4798109e-22
2.0778717e-34
7.4938175e-22
0
-7.5078372e-22
-7.514813e-22
7.5215442e-22
7.5280032e-22
0
0
0
0
0
0
-7.5782148e-22
2.1054289e-34
7.593999e-22
0
0
0
0
0
0
-7.6483955e-22
4.0089497e-53
7.6644111e-22
7.6726225e-22
2.1306577e-34
-7.689293e-22
0
0
0
0
-7.7311222e-22
-2.1479633e-34
7.7474896e-22
-7.7555318e-22
-7.7634604e-22
7.7712751e-22
-4.3179518e-34
-6.4844933e-34
-6.4887649e-34
2.1676784e-34
-4.3374825e-34
2.1697917e-34
7.8257239e-22
0
-7.8409385e-22
6.5347036e-34
-1.116383e-37
-7.8632434e-22
7.8706141e-22
7.8779658e-22
-7.8853037e-22
2.1905036e-34
-6.5753377e-34
-4.3902053e-34
-4.3908322e-34
2.1973973e-34
-4.4009726e-34
-7.9355962e-22
7.9425047e-22
7.9493162e-22
-7.956031e-22
2.2088024e-34
-8.8469413e-34
-2.2135032e-34
2.2163709e-34
2.2157993e-34
2.2185935e-34
-7.9996758e-22
0
8.010929e-22
-2.2248385e-34
9.8749296e-53
8.0267291e-22
0
-8.0365681e-22
8.0412876e-22
8.0458673e-22
-8.0502973e-22
0
0
0
0
-8.0692498e-22
2.2403504e-34
-4.4832709e-34
8.0768443e-22
8.0783369e-22
-8.0794957e-22
0
0
0
0
-8.0883924e-22
-1.1497216e-37
8.0922438e-22
0
0
0
0
0
0
0
-8.1010162e-22
-8.1013206e-22
8.1014588e-22
8.1014334e-22
0
0
0
0
0
0
-8.097134e-22
-8.0959191e-22
8.0945426e-22
8.0929947e-22
0
0
0
0
0
0
-8.0769453e-22
-8.0738422e-22
8.0705287e-22
8.0670125e-22
0
0
0
0
0
0
-8.0388767e-22
4.4608695e-34
8.0298928e-22
0
0
0
0
0
0
-7.994385e-22
2.2183297e-34
7.9830854e-22
0
0
0
0
-7.9528398e-22
-1.1292609e-37
7.9399897e-22
-7.9334108e-22
-3.2423162e-53
7.9199403e-22
-7.9130472e-22
4.3907037e-34
7.8989386e-22
-7.8917229e-22
-4.3775607e-34
-4.3734332e-34
-5.8484709e-52
-4.3638869e-34
-2.1786805e-34
7.8462241e-22
-7.8383222e-22
-7.8303511e-22
1.5644639e-21
-4.3352725e-34
-1.5612199e-21
0
7.7896871e-22
-2.1607459e-34
-2.1595481e-34
-6.4639924e-34
-6.4581671e-34
-4.2986277e-34
6.4443411e-34
-4.2905431e-34
2.1457343e-34
7.7152292e-22
0
-7.6990108e-22
-1.0929522e-37
-6.3958501e-34
-6.3903013e-34
1.0895512e-37
4.2513847e-34
-2.124581e-34
-7.643265e-22
0
7.627407e-22
-4.229372e-34
-1.0816517e-37
7.6034052e-22
0
-7.5870616e-22
7.578749e-22
7.570282e-22
-7.561727e-22
0
0
-7.5364275e-22
8.3590735e-34
-4.1726972e-34
4.1716513e-34
-2.0852267e-34
7.4975786e-22
7.4896545e-22
-7.4818575e-22
0
0
0
0
-7.4489864e-22
-2.0667323e-34
-8.2560382e-34
7.4310228e-22
7.4252945e-22
-7.419647e-22
0
0
0
0
-7.392537e-22
-7.3873073e-22
7.3821284e-22
7.3770062e-22
0
0
0
0
0
0
-7.3447141e-22
-7.3410558e-22
7.3375044e-22
7.334052e-22
0
0
0
0
0
0
-7.3156484e-22
6.0905893e-34
1.4624145e-21
-7.3105419e-22
-7.3091804e-22
7.3079845e-22
0
1.4612172e-21
-8.112157e-34
-2.4326345e-33
-7.3044391e-22
-1.4608414e-21
1.4608251e-21
-7.3042006e-22
-7.3044308e-22
7.3047997e-22
-7.3053153e-22
1.0382385e-37
7.3066984e-22
7.3075529e-22
-7.3084784e-22
-7.3094685e-22
7.3105668e-22
-7.3118032e-22
-1.0392795e-37
7.3148608e-22
0
0
0
1.4647858e-21
-7.3266458e-22
-1.4658883e-21
7.332304e-22
-7.3353002e-22
-7.3384401e-22
1.4683362e-21
-1.2802099e-52
-7.3484239e-22
7.3519303e-22
1.4711034e-21
7.3591709e-22
-2.2088658e-21
7.366659e-22
-1.9419558e-51
-2.2123128e-21
1.4756469e-21
7.3820982e-22
7.3860075e-22
1.4779921e-21
-1.4787922e-21
-7.398017e-22
-7.4021495e-22
7.406267e-22
7.4103868e-22
-2.2243833e-21
7.4188949e-22
7.4232211e-22
-7.4275829e-22
-7.4319734e-22
-1.0567754e-37
2.2322511e-21
-7.4452848e-22
1.2403383e-33
-1.241501e-33
-2.2375763e-21
7.4629644e-22
7.4672942e-22
1.4943127e-21
-7.4757515e-22
-1.4959655e-21
1.4967525e-21
-7.4875944e-22
7.4913838e-22
7.4951311e-22
-2.2496388e-21
7.5024081e-22
7.5059892e-22
-1.5019006e-21
-7.5129451e-22
7.5163264e-22
2.2558913e-21
-7.5228641e-22
-3.0104004e-21
4.1791903e-34
1.5063969e-21
7.5348189e-22
0
1.5080301e-21
1.6744821e-33
-2.2635038e-21
7.5472576e-22
-1.6761906e-33
7.5513527e-22
7.5531921e-22
-1.5109768e-21
0
0
0
-7.5600783e-22
4.1979765e-34
1.5123298e-21
-7.5621888e-22
-1.5125145e-21
2.268841e-21
-2.5187835e-33
-1.512559e-21
7.5625514e-22
0
0
0
1.5119809e-21
-7.5588065e-22
-1.511505e-21
2.2668186e-21
-2.1470941e-37
-1.5105171e-21
0
0
-7.5459494e-22
4.1881915e-34
1.5080935e-21
-7.5373547e-22
-1.5067994e-21
2.259135e-21
-1.2531667e-33
-1.5046127e-21
7.5193643e-22
-7.5156545e-22
1.502367e-21
7.5078556e-22
-2.4988674e-33
-7.4994381e-22
-1.499001e-21
2.2471226e-21
-4.2550961e-37
-7.4806948e-22
4.1494978e-34
-7.4702412e-22
-7.4648362e-22
4.1405319e-34
2.2361846e-21
-2.1169782e-37
-2.2328584e-21
1.4874303e-21
1.3571802e-51
-1.4850816e-21
7.4193798e-22
-7.4132429e-22
1.4813995e-21
7.4006626e-22
-1.6419652e-33
-7.3878874e-22
-1.4762953e-21
-7.3750152e-22
-7.368476e-22
2.2085566e-21
0
-7.3483568e-22
-4.0750565e-34
4.0711533e-34
-4.0661679e-34
7.3201858e-22
-8.1186638e-34
7.306098e-22
-2.4309452e-33
-2.1876558e-21
1.4570383e-21
2.1834354e-21
7.2709798e-22
-2.1791484e-21
-1.4513401e-21
2.1748845e-21
-7.2425864e-22
-2.1706853e-21
0
0
7.2150945e-22
7.2083911e-22
0
-7.1951799e-22
-7.1886408e-22
1.4364239e-21
-1.5932053e-33
-2.1507473e-21
7.9517486e-34
7.1564237e-22
7.15017e-22
7.1440109e-22
-7.1379684e-22
-7.132057e-22
7.1262726e-22
2.1361811e-21
-7.115033e-22
-2.8438256e-21
7.1042151e-22
1.4197969e-21
7.0938664e-22
0
-7.0839851e-22
0
-7.0746056e-22
7.0701124e-22
-1.568813e-33
7.061547e-22
-2.3504643e-33
-2.1160728e-21
7.0498212e-22
7.0462261e-22
-7.0427914e-22
-7.0395156e-22
7.0364015e-22
2.1100351e-21
-7.0306635e-22
-2.8112163e-21
1.1701196e-33
7.0232974e-22
1.4042357e-21
7.0192292e-22
-1.4034902e-21
-3.8943233e-34
-9.9680467e-38
7.0131047e-22
-1.5568726e-33
-7.01101e-22
2.1030586e-21
-7.7816507e-34
-1.4018056e-21
0
0
-7.0084091e-22
3.8902502e-34
1.4017465e-21
-7.0091138e-22
-1.4019282e-21
-7.0103079e-22
7.7814117e-34
2.1036197e-21
7.013151e-22
-7.0143712e-22
1.4031446e-21
-3.9888164e-37
-2.3377784e-33
-7.0205032e-22
-1.4044647e-21
2.1072747e-21
-7.8022304e-34
-1.4056808e-21
0
0
1.4070707e-21
-1.5626173e-33
-7.8139564e-34
-2.0017712e-37
-2.1137554e-21
-1.409734e-21
1.1744454e-33
2.11635e-21
7.0574948e-22
-7.0605393e-22
1.4127255e-21
7.8431703e-34
-2.3544139e-33
-7.0731902e-22
-1.4152971e-21
2.1239499e-21
-7.0832204e-22
-7.0866331e-22
7.090064e-22
-7.0934936e-22
1.4193822e-21
-7.8824324e-34
-7.1037135e-22
-1.0099786e-37
-1.4220927e-21
1.4227674e-21
-1.1849759e-33
-1.4241178e-21
7.1239517e-22
0
-7.1305575e-22
-3.9587689e-34
2.1410694e-21
-7.1399541e-22
-1.4285882e-21
-7.1458657e-22
-7.1487401e-22
7.151574e-22
7.1543681e-22
7.1571095e-22
-7.1597779e-22
3.9756506e-34
-3.9760025e-34
7.1671756e-22
-7.9611816e-34
7.1715504e-22
-2.3891272e-33
-2.1526483e-21
1.4354615e-21
-6.3515894e-53
-7.1806049e-22
-7.9721846e-34
3.9883796e-34
2.1554075e-21
-7.1858238e-22
-2.1560524e-21
0
0
7.1892132e-22
7.1897738e-22
1.4380422e-21
-7.1905332e-22
-1.4381482e-21
1.4381658e-21
-7.1907947e-22
-2.1571923e-21
7.1903666e-22
7.1899684e-22
7.1894425e-22
7.1887888e-22
-1.437603e-21
-7.1871197e-22
7.1860991e-22
2.1554872e-21
-7.1836922e-22
-7.5239988e-52
-1.1955621e-33
-1.4358333e-21
1.4354832e-21
1.4351095e-21
-7.1735707e-22
-1.4342974e-21
1.4338599e-21
7.1670121e-22
-2.1493882e-21
-2.1486458e-21
7.159586e-22
1.4313856e-21
7.154183e-22
-3.9695443e-34
-1.4296874e-21
-7.1454384e-22
7.1423634e-22
1.4278427e-21
-1.0140849e-37
-1.4265383e-21
1.4258658e-21
-1.1868273e-33
-1.4244813e-21
7.11885e-22
1.4230468e-21
1.4223125e-21
0
-7.1040728e-22
-2.1300788e-21
-7.0964159e-22
7.0925386e-22
0
0
0
0
-7.0727839e-22
3.9237068e-34
2.1194255e-21
-7.0607212e-22
-2.1170051e-21
-7.05264e-22
1.1739516e-33
1.4089085e-21
7.0404913e-22
-7.03644e-22
1.4064796e-21
7.0283699e-22
-2.3396156e-33
-7.0201829e-22
-1.4032036e-21
2.1035472e-21
-1.9916812e-37
-7.0033842e-22
9.9463927e-38
-6.9949075e-22
-6.9906618e-22
7.7559766e-34
2.0946431e-21
-1.9832305e-37
-2.0920768e-21
-1.3938581e-21
3.8641151e-34
1.3921315e-21
6.9563219e-22
-6.9519815e-22
1.3895247e-21
6.9432476e-22
-2.3107554e-33
-6.9344183e-22
-1.385993e-21
2.0776443e-21
-7.6852712e-34
-6.9163609e-22
-6.9117138e-22
-6.9069901e-22
-3.8292767e-34
3.827544e-34
1.3784644e-21
3.8219722e-34
-1.3764208e-21
1.3753748e-21
-3.4330103e-33
-2.0598512e-21
1.372138e-21
-7.612164e-34
-1.3698861e-21
6.8436089e-22
6.8376238e-22
1.3662948e-21
-6.8251364e-22
-2.0455779e-21
0
0
0
2.037165e-21
2.0349417e-21
-2.0326731e-21
-2.0303572e-21
1.3519895e-21
-1.9189754e-37
6.7433638e-22
-2.2433207e-33
-2.0176697e-21
2.0148546e-21
-3.3509205e-33
-1.3392992e-21
-3.7104148e-34
3.706465e-34
1.3329741e-21
-6.6537406e-22
6.6422757e-22
-2.208618e-33
-1.9854712e-21
1.981695e-21
6.5927067e-22
-1.4608354e-33
1.3131722e-21
-1.3103923e-21
-6.5377037e-22
-6.5230326e-22
-1.9523655e-21
7.2073347e-34
6.4759834e-22
1.9377824e-21
-4.2910561e-33
-1.9273953e-21
0
6.3886596e-22
1.2740032e-21
-6.3507936e-22
6.3308935e-22
-2.1016129e-33
-1.2578038e-21
1.880166e-21
-1.386409e-33
-6.9114743e-34
-6.882551e-34
-6.8566353e-34
6.1523055e-22
-1.8382535e-21
-1.8305628e-21
6.0754867e-22
1.2097052e-21
0
-5.9934606e-22
6.6207231e-34
-1.3180984e-33
6.5576525e-34
5.8764949e-22
-5.8451589e-22
-5.8131691e-22
1.7342201e-21
1.7313126e-50
-9.5178575e-34
5.6807046e-22
-6.2644638e-34
1.1219543e-21
-1.114554e-21
-1.1070078e-21
-5.4968866e-22
6.058962e-34
5.4197119e-22
0
0
0
1.0511623e-21
-5.2122898e-22
-1.0336485e-21
1.5371735e-21
-5.079282e-22
-1.5102371e-21
1.4964375e-21
-1.6455944e-33
-9.7856848e-22
1.4530908e-21
9.5873038e-22
0
-9.3838652e-22
-1.5452535e-33
-4.5876546e-22
-9.0686796e-22
4.4801893e-22
0
8.7384128e-22
1.225602e-37
4.7227437e-34
-4.1951372e-22
-1.2406374e-21
1.2226167e-21
-6.689318e-34
-1.1862061e-21
1.1675716e-21
-1.9127387e-33
-7.5249294e-22
3.6952025e-22
-3.6271018e-22
7.1179719e-22
3.4911907e-22
-1.5201584e-33
-3.3544167e-22
-6.5671386e-22
-3.210356e-22
-3.135098e-22
6.1173709e-22
2.9821079e-22
0
-2.8295702e-22
1.5281622e-34
1.5589639e-51
2.5922808e-22
-7.1316006e-38
2.4247351e-22
1.9741056e-50
-6.7594667e-22
6.4980387e-22
6.2325944e-22
-3.9751197e-22
-3.7926088e-22
0
3.4221009e-22
-1.6170341e-22
-4.5640704e-22
4.2700576e-22
-2.2029709e-34
-2.4393495e-22
1.1152369e-22
0
-9.0553023e-23
-8.0020231e-23
6.9295649e-23
-9.6955115e-35
9.3491517e-23
1.9855742e-38
-6.8802245e-23
0
-2.6524672e-24
-2.5441561e-23
7.4695698e-23
7.5080052e-23
-1.5217087e-22
-6.4391666e-23
3.1309545e-22
9.2100474e-23
-2.1155067e-22
-2.3888364e-22
1.4807849e-34
1.4785616e-22
1.6293558e-22
1.7852461e-22
-1.9442192e-22
2.3362855e-34
-4.5309164e-22
8.0865156e-34
7.7813634e-22
0
0
-6.2327552e-22
7.3224795e-34
3.4816991e-22
-1.100948e-21
3.8634081e-22
6.7653839e-34
1.4219143e-33
1.3437823e-21
-4.6902243e-22
2.7196611e-34
-5.6758996e-34
-5.3299105e-22
5.5570429e-22
-8.2372856e-38
3.3562698e-34
-6.9949102e-34
-6.5556441e-22
0
7.055214e-22
-1.4623633e-21
-7.5824679e-22
1.57388e-21
0
-8.4744243e-22
8.7790928e-22
1.8163885e-21
-2.8163429e-21
3.2324186e-33
3.3422014e-33
-1.0381431e-21
3.2214024e-21
-1.5773322e-37
-1.1462849e-21
-1.1829323e-21
1.220339e-21
1.259004e-21
-1.2992372e-21
0
1.3842918e-21
-2.8571304e-21
2.4542485e-33
1.5191643e-21
3.4762894e-33
3.5806023e-33
4.7227893e-37
3.4241103e-21
-5.29144e-21
-5.4499798e-21
0
3.8513809e-21
5.9487907e-21
2.9030339e-37
-2.1053534e-21
-2.1695898e-21
2.2341222e-21
2.2980093e-21
-2.3616718e-21
0
-4.9909979e-21
-5.1376014e-21
7.9393515e-21
2.7268769e-21
-2.8079975e-21
8.2093347e-37
2.9682674e-21
6.098379e-21
3.1330792e-21
-5.3647971e-33
-1.3253791e-20
1.1355531e-32
1.052655e-20
-3.6104329e-21
-3.7136028e-21
-3.8177421e-21
3.9227127e-21
4.0292304e-21
4.1388543e-21
1.2088884e-36
-4.3740043e-21
4.5003615e-21
-1.3891666e-20
-9.5238397e-21
1.4678195e-20
-5.0236349e-21
-1.0314927e-20
1.0594964e-20
-5.445467e-21
5.6008293e-21
1.152203e-20
-1.7768803e-20
6.0848417e-21
-2.0810645e-32
-1.9241384e-20
1.3173436e-20
6.7679e-21
6.9569278e-21
1.4303706e-20
-7.3503027e-21
7.9502648e-76
-1.5506875e-20
-7.9601735e-21
9.0737869e-33
8.3951819e-21
1.7251382e-20
-1.7727389e-20
9.1069335e-21
2.8060527e-20
-2.8809475e-20
-9.8575906e-21
-1.3874449e-48
-1.0391283e-20
3.201954e-20
1.0963769e-20
-1.1260731e-20
-2.3125056e-20
1.1869448e-20
-1.2183333e-20
4.165155e-32
2.5678463e-20
-3.9545372e-20
-1.5031134e-32
6.1694954e-32
-3.1654824e-32
2.9271778e-20
-3.0047902e-20
1.5422741e-20
6.3322714e-20
-1.6246124e-20
-3.3337885e-20
0
-3.5091828e-20
3.9978305e-32
1.0505189e-35
2.1058478e-32
1.9466483e-20
1.9970999e-20
-2.0483221e-20
-2.1006703e-20
4.30915e-20
-4.4205787e-20
2.5175656e-32
4.6534319e-20
-4.7736382e-20
-8.1527683e-32
2.7867123e-32
2.5739158e-20
5.2787029e-20
-2.7066139e-20
2.7756367e-20
-1.5798946e-32
-2.9184119e-20
-5.9842412e-20
3.0675117e-20
6.2894738e-20
-3.2238584e-20
3.3047888e-20
-5.6419612e-32
3.4721199e-20
7.9031421e-32
-7.2941388e-20
-7.4754608e-20
-8.5039188e-32
1.3075068e-31
-1.339825e-31
4.1217225e-20
4.2229782e-20
4.3263964e-20
-4.4321327e-20
0
0
4.7648969e-20
-2.709135e-32
-7.1039212e-36
-5.683476e-32
-5.2430686e-20
0
5.4981712e-20
1.126047e-19
-5.7650937e-20
-1.1805442e-19
-1.2086274e-19
-1.2372994e-19
1.8999043e-19
2.1590792e-31
-1.9907862e-19
1.3584545e-19
1.3903431e-19
0
7.2803954e-20
-1.4900151e-19
-7.6235039e-20
1.5601245e-19
7.9812955e-20
-9.0649146e-32
-2.505984e-19
8.5449778e-20
2.6222372e-19
-2.6822324e-19
-9.144821e-20
2.8058404e-19
-1.061696e-31
-9.7808834e-20
-2.0003082e-19
-1.1350523e-31
2.0913907e-19
-2.1382847e-19
1.093013e-19
3.3519397e-19
0
-1.1673509e-19
-2.3863263e-19
6.7726831e-32
-1.2463692e-19
-2.5474139e-19
2.6030415e-19
2.6596749e-19
0
1.3881425e-19
1.5743879e-31
1.6085701e-31
1.6429581e-31
-4.5349662e-19
-3.0878876e-19
0
3.2206832e-19
3.6507616e-31
1.6792181e-19
5.1437306e-19
-1.7505651e-19
9.9178449e-32
-2.5928304e-35
-1.8625601e-19
-3.8025001e-19
1.9405929e-19
3.9611792e-19
-2.0212708e-19
0
-4.2097337e-19
2.147823e-19
6.5745726e-19
-2.2359338e-19
-2.2810401e-19
-4.6537456e-19
2.3734915e-19
7.2628551e-19
-2.4692734e-19
2.7954854e-31
5.1367697e-19
-2.6190983e-19
-2.6705841e-19
-5.4457864e-19
-8.3282686e-19
5.6604288e-19
5.7705344e-19
-5.8824268e-19
-3.3273987e-31
6.1113093e-19
-6.2283247e-19
-3.5231676e-31
6.4679835e-19
0
-6.7155667e-19
-6.842265e-19
0
1.0651869e-18
3.6167964e-19
1.0470505e-34
3.7522185e-19
3.8215184e-19
4.3194537e-31
-7.9264516e-19
-8.0711896e-19
1.3684817e-30
8.3669288e-19
-8.5181149e-19
-1.4440152e-30
8.8272735e-19
0
0
0
0
-9.6382364e-19
-5.4452832e-31
9.9791691e-19
5.0766132e-19
-1.0329507e-18
1.7501126e-30
1.0688639e-18
-1.0871726e-18
-6.1392633e-31
5.6228608e-19
-1.1436686e-18
1.9370178e-30
1.1826028e-18
-1.2024233e-18
-1.2224831e-18
1.2427945e-18
1.2633702e-18
0
0
0
0
6.8513301e-19
-6.9621393e-19
-7.0742612e-19
7.9794604e-31
4.6527505e-74
7.4187343e-19
1.5072654e-18
7.6553176e-19
-1.5551396e-18
-2.3692355e-18
8.020566e-19
1.6290084e-18
-2.4812705e-18
-1.6796358e-18
2.5580716e-18
1.7314189e-18
8.7887349e-19
9.9045526e-31
-1.8112521e-18
0
9.329389e-19
-9.468122e-19
2.1333464e-30
2.771143e-34
3.2946455e-30
1.0037996e-18
1.0184089e-18
-2.9364179e-34
-2.0961141e-18
-2.126209e-18
3.5909436e-30
2.1873211e-18
0
0
0
1.1565427e-18
1.1726291e-18
-1.1888698e-18
-1.2052658e-18
1.2218145e-18
-2.4770221e-18
-3.7660566e-18
0
2.5789447e-18
1.4503297e-30
1.3242001e-18
4.0253822e-18
-1.3595372e-18
2.2937285e-30
-2.7909203e-18
9.4169446e-30
2.8639464e-18
8.0511396e-31
2.0877057e-34
-1.4878753e-18
1.5068032e-18
-3.0517503e-18
-1.545093e-18
3.1289183e-18
-3.1679496e-18
-4.5578146e-34
1.802734e-30
1.6433969e-18
4.9904664e-18
-3.3674487e-18
1.9673344e-48
-1.7246334e-18
2.9068258e-30
3.5322297e-18
-1.7870621e-18
-3.6162936e-18
2.0303608e-30
5.5522192e-18
-5.3212544e-34
-1.8938985e-18
1.9156804e-18
-3.8751855e-18
-1.9596362e-18
3.9636281e-18
-4.0082583e-18
-2.249237e-30
1.1375011e-29
-4.6007888e-30
4.1894302e-18
-4.2353518e-18
2.1407634e-18
4.3279602e-18
-2.1873255e-18
2.2107962e-18
-4.4687751e-18
3.7608872e-30
6.845768e-18
0
0
-7.0623473e-18
-2.378414e-18
4.8056474e-18
-4.8546861e-18
-1.3937851e-33
1.0998114e-29
2.7771177e-30
5.0530493e-18
-5.1031735e-18
-5.1534961e-18
2.602008e-18
7.8821053e-18
2.6528313e-18
-2.6783956e-18
0
0
2.7556514e-18
-1.5439882e-30
-8.4227938e-18
-8.0538784e-34
5.7198074e-18
2.8861842e-18
-3.232537e-30
-8.8169268e-18
-6.5842776e-30
5.9841468e-18
0
3.045491e-18
-6.1446205e-18
-3.0991929e-18
6.9418571e-30
3.153135e-18
6.3603971e-18
-3.2073283e-18
0
0
0
0
3.3438566e-18
-1.8713324e-30
-1.0196423e-17
3.4263538e-18
1.0361831e-17
-1.044472e-17
-3.5092408e-18
7.073889e-18
3.5646838e-18
5.9817484e-30
-1.0860775e-17
2.0736959e-33
1.2243572e-29
3.7037985e-18
7.4633762e-18
3.7596014e-18
4.2036644e-30
-3.8154873e-18
-3.8434472e-18
-3.8714106e-18
-3.8993757e-18
8.719898e-30
7.9106377e-18
0
0
4.039264e-18
6.7722962e-30
5.8196203e-34
-5.8593307e-34
-4.1510667e-18
-8.3579641e-18
-8.4137658e-18
8.469534e-18
4.7345904e-30
4.2904679e-18
1.2954826e-17
0
0
-4.4014988e-18
-4.4291747e-18
0
4.4844187e-18
-2.5044891e-30
-4.5394816e-18
4.5669366e-18
-9.1886844e-18
1.5392368e-29
1.3947026e-17
-4.6762621e-18
-4.7034539e-18
-9.4611582e-18
4.7576367e-18
1.4353887e-17
-4.8115578e-18
2.6863794e-30
-9.7304321e-18
-4.8919332e-18
9.8371368e-18
-9.8902414e-18
4.0613743e-47
9.9959674e-18
0
0
-1.0153298e-17
5.6589529e-30
1.7083562e-29
3.9627802e-47
1.5540648e-17
5.7800482e-30
-5.2314244e-18
-1.0513734e-17
-1.0564391e-17
1.0614822e-17
1.183981e-29
5.3575192e-18
1.792895e-29
-5.4071932e-18
1.0863701e-17
0
5.4807775e-18
-6.1098779e-30
-5.5292012e-18
-1.110646e-17
-6.1898788e-30
1.12018e-17
0
0
5.671364e-18
-3.1609208e-30
-1.7152935e-17
-6.3729123e-30
1.1526724e-17
0
-5.8084754e-18
5.8308016e-18
5.8529765e-18
5.875001e-18
5.8968734e-18
-1.1837177e-17
-1.7820423e-17
5.9615266e-18
1.196549e-17
-1.8011393e-17
7.9780773e-48
1.2090824e-17
0
0
0
0
-1.2292882e-17
-1.2332232e-17
6.1856127e-18
1.8614785e-17
6.9131902e-30
-6.2430061e-18
1.2523533e-17
1.256068e-17
-6.2987233e-18
-2.5267655e-17
-1.2669819e-17
1.9058136e-17
1.2740644e-17
-1.9163217e-17
-1.4219135e-29
1.2843952e-17
0
0
0
-1.2975973e-17
-7.2204128e-30
1.4477746e-29
-6.5353605e-18
1.9652161e-17
-6.5658618e-18
-6.5807896e-18
1.9786527e-17
1.3220035e-17
-6.6243137e-18
-1.3276777e-17
-1.3304469e-17
2.2204115e-29
-7.4168366e-30
1.9020691e-33
1.3410366e-17
0
6.7302462e-18
6.7424326e-18
-6.7543866e-18
-6.7661069e-18
6.7775933e-18
6.7888449e-18
-1.359972e-17
-6.8106368e-18
6.8211734e-18
-6.8314689e-18
6.841523e-18
1.3702671e-17
0
0
-2.0637918e-17
-6.8881331e-18
1.3793421e-17
6.905038e-18
6.9131158e-18
-1.3841886e-17
7.6956458e-30
1.3871672e-17
0
-6.9496988e-18
-2.0868729e-17
-1.5456952e-29
3.868475e-29
-1.3948651e-17
2.093949e-17