/*--------------------------------*- C++ -*----------------------------------*\
  =========                 |
  \\      /  F ield         | OpenFOAM: The Open Source CFD Toolbox
   \\    /   O peration     | Website:  https://openfoam.org
    \\  /    A nd           | Version:  7
     \\/     M anipulation  |
\*---------------------------------------------------------------------------*/
FoamFile
{
    version     2.0;
    format      ascii;
    class       surfaceScalarField;
    location    "0.00282";
    object      phi;
}
// * * * * * * * * * * * * * * * * * * * * * * * * * * * * * * * * * * * * * //

dimensions      [1 0 -1 0 0 0 0];

internalField   nonuniform List<scalar> 
4999
(
1.2358351
1.2358351
1.2358351
1.2358351
1.2358351
1.2358351
1.2358351
1.235835
1.235835
1.235835
1.235835
1.235835
1.235835
1.235835
1.2358349
1.2358349
1.2358349
1.2358349
1.2358349
1.2358349
1.2358349
1.2358349
1.2358348
1.2358348
1.2358348
1.2358348
1.2358348
1.2358348
1.2358348
1.2358347
1.2358347
1.2358347
1.2358347
1.2358347
1.2358347
1.2358347
1.2358347
1.2358346
1.2358346
1.2358346
1.2358346
1.2358346
1.2358346
1.2358346
1.2358345
1.2358345
1.2358345
1.2358345
1.2358345
1.2358345
1.2358345
1.2358345
1.2358344
1.2358344
1.2358344
1.2358344
1.2358344
1.2358344
1.2358344
1.2358344
1.2358343
1.2358343
1.2358343
1.2358343
1.2358343
1.2358343
1.2358343
1.2358343
1.2358342
1.2358342
1.2358342
1.2358342
1.2358342
1.2358342
1.2358342
1.2358342
1.2358341
1.2358341
1.2358341
1.2358341
1.2358341
1.2358341
1.2358341
1.2358341
1.2358341
1.235834
1.235834
1.235834
1.235834
1.235834
1.235834
1.235834
1.235834
1.2358339
1.2358339
1.2358339
1.2358339
1.2358339
1.2358339
1.2358339
1.2358339
1.2358339
1.2358338
1.2358338
1.2358338
1.2358338
1.2358338
1.2358338
1.2358337
1.2358337
1.2358337
1.2358337
1.2358337
1.2358336
1.2358336
1.2358336
1.2358335
1.2358335
1.2358335
1.2358335
1.2358334
1.2358334
1.2358333
1.2358332
1.235833
1.2358324
1.2358312
1.2358283
1.2358238
1.2358175
1.2358089
1.2357972
1.2357818
1.2357619
1.2357367
1.2357055
1.2356681
1.2356241
1.235574
1.2355181
1.2354576
1.2353934
1.235327
1.2352598
1.2351932
1.2351286
1.2350671
1.2350098
1.2349571
1.2349097
1.2348676
1.2348309
1.2347993
1.2347726
1.2347502
1.2347318
1.2347168
1.2347047
1.2346951
1.2346875
1.2346816
1.234677
1.2346736
1.2346709
1.2346689
1.2346675
1.2346664
1.2346656
1.234665
1.2346645
1.2346642
1.234664
1.2346638
1.2346637
1.2346636
1.2346635
1.2346635
1.2346634
1.2346634
1.2346634
1.2346633
1.2346633
1.2346633
1.2346633
1.2346633
1.2346632
1.2346632
1.2346632
1.2346632
1.2346632
1.2346632
1.2346632
1.2346631
1.2346631
1.2346631
1.2346631
1.2346631
1.2346631
1.2346631
1.234663
1.234663
1.234663
1.234663
1.234663
1.234663
1.234663
1.2346629
1.2346629
1.2346629
1.2346629
1.2346629
1.2346629
1.2346629
1.2346628
1.2346628
1.2346628
1.2346628
1.2346628
1.2346628
1.2346628
1.2346628
1.2346627
1.2346627
1.2346627
1.2346627
1.2346627
1.2346627
1.2346627
1.2346626
1.2346626
1.2346626
1.2346626
1.2346626
1.2346626
1.2346626
1.2346625
1.2346625
1.2346625
1.2346625
1.2346625
1.2346625
1.2346625
1.2346624
1.2346624
1.2346624
1.2346624
1.2346624
1.2346624
1.2346624
1.2346624
1.2346623
1.2346623
1.2346623
1.2346623
1.2346623
1.2346623
1.2346623
1.2346622
1.2346622
1.2346622
1.2346622
1.2346622
1.2346622
1.2346622
1.2346622
1.2346621
1.2346621
1.2346621
1.2346621
1.2346621
1.2346621
1.2346621
1.234662
1.234662
1.234662
1.234662
1.234662
1.234662
1.234662
1.234662
1.2346619
1.2346619
1.2346619
1.2346619
1.2346619
1.2346619
1.2346619
1.2346618
1.2346618
1.2346618
1.2346618
1.2346618
1.2346618
1.2346618
1.2346617
1.2346617
1.2346617
1.2346617
1.2346617
1.2346617
1.2346617
1.2346617
1.2346616
1.2346616
1.2346616
1.2346616
1.2346616
1.2346616
1.2346616
1.2346616
1.2346615
1.2346615
1.2346615
1.2346615
1.2346615
1.2346615
1.2346615
1.2346614
1.2346614
1.2346614
1.2346614
1.2346614
1.2346614
1.2346614
1.2346613
1.2346613
1.2346613
1.2346613
1.2346613
1.2346613
1.2346613
1.2346613
1.2346612
1.2346612
1.2346612
1.2346612
1.2346612
1.2346612
1.2346612
1.2346611
1.2346611
1.2346611
1.2346611
1.2346611
1.2346611
1.2346611
1.2346611
1.234661
1.234661
1.234661
1.234661
1.234661
1.234661
1.234661
1.2346609
1.2346609
1.2346609
1.2346609
1.2346609
1.2346609
1.2346609
1.2346608
1.2346608
1.2346608
1.2346608
1.2346608
1.2346608
1.2346608
1.2346608
1.2346607
1.2346607
1.2346607
1.2346607
1.2346607
1.2346607
1.2346607
1.2346606
1.2346606
1.2346606
1.2346606
1.2346606
1.2346606
1.2346606
1.2346605
1.2346605
1.2346605
1.2346605
1.2346605
1.2346605
1.2346605
1.2346604
1.2346604
1.2346604
1.2346604
1.2346604
1.2346604
1.2346604
1.2346603
1.2346603
1.2346603
1.2346603
1.2346603
1.2346603
1.2346603
1.2346602
1.2346602
1.2346602
1.2346602
1.2346602
1.2346602
1.2346602
1.2346601
1.2346601
1.2346601
1.2346601
1.2346601
1.2346601
1.2346601
1.2346601
1.23466
1.23466
1.23466
1.23466
1.23466
1.23466
1.23466
1.2346599
1.2346599
1.2346599
1.2346599
1.2346599
1.2346599
1.2346599
1.2346598
1.2346598
1.2346598
1.2346598
1.2346598
1.2346598
1.2346598
1.2346597
1.2346597
1.2346597
1.2346597
1.2346597
1.2346597
1.2346597
1.2346597
1.2346596
1.2346596
1.2346596
1.2346596
1.2346596
1.2346596
1.2346596
1.2346595
1.2346595
1.2346595
1.2346595
1.2346595
1.2346595
1.2346595
1.2346595
1.2346594
1.2346594
1.2346594
1.2346594
1.2346594
1.2346594
1.2346594
1.2346593
1.2346593
1.2346593
1.2346593
1.2346593
1.2346593
1.2346593
1.2346593
1.2346592
1.2346592
1.2346592
1.2346592
1.2346592
1.2346592
1.2346592
1.2346592
1.2346591
1.2346591
1.2346591
1.2346591
1.2346591
1.2346591
1.2346591
1.234659
1.234659
1.234659
1.234659
1.234659
1.234659
1.234659
1.234659
1.2346589
1.2346589
1.2346589
1.2346589
1.2346589
1.2346589
1.2346589
1.2346589
1.2346588
1.2346588
1.2346588
1.2346588
1.2346588
1.2346588
1.2346588
1.2346588
1.2346587
1.2346587
1.2346587
1.2346587
1.2346587
1.2346587
1.2346587
1.2346587
1.2346587
1.2346586
1.2346586
1.2346586
1.2346586
1.2346586
1.2346586
1.2346586
1.2346586
1.2346586
1.2346585
1.2346585
1.2346585
1.2346585
1.2346585
1.2346585
1.2346585
1.2346584
1.2346584
1.2346584
1.2346584
1.2346584
1.2346584
1.2346584
1.2346584
1.2346583
1.2346583
1.2346583
1.2346583
1.2346583
1.2346583
1.2346583
1.2346583
1.2346583
1.2346583
1.2346582
1.2346582
1.2346582
1.2346582
1.2346582
1.2346582
1.2346582
1.2346582
1.2346581
1.2346581
1.2346581
1.2346581
1.2346581
1.2346581
1.2346581
1.2346581
1.2346581
1.234658
1.234658
1.234658
1.234658
1.234658
1.234658
1.234658
1.234658
1.2346579
1.2346579
1.2346579
1.2346579
1.2346579
1.2346579
1.2346579
1.2346579
1.2346579
1.2346578
1.2346578
1.2346578
1.2346578
1.2346578
1.2346578
1.2346578
1.2346578
1.2346577
1.2346577
1.2346577
1.2346577
1.2346577
1.2346577
1.2346577
1.2346577
1.2346577
1.2346577
1.2346576
1.2346576
1.2346576
1.2346576
1.2346576
1.2346576
1.2346576
1.2346576
1.2346576
1.2346575
1.2346575
1.2346575
1.2346575
1.2346575
1.2346575
1.2346575
1.2346575
1.2346574
1.2346574
1.2346574
1.2346574
1.2346574
1.2346574
1.2346574
1.2346574
1.2346573
1.2346573
1.2346573
1.2346573
1.2346573
1.2346573
1.2346573
1.2346573
1.2346573
1.2346572
1.2346572
1.2346572
1.2346572
1.2346572
1.2346572
1.2346572
1.2346572
1.2346572
1.2346571
1.2346571
1.2346571
1.2346571
1.2346571
1.2346571
1.2346571
1.2346571
1.2346571
1.234657
1.234657
1.234657
1.234657
1.234657
1.234657
1.234657
1.234657
1.234657
1.2346569
1.2346569
1.2346569
1.2346569
1.2346569
1.2346569
1.2346569
1.2346569
1.2346568
1.2346568
1.2346568
1.2346568
1.2346568
1.2346568
1.2346568
1.2346568
1.2346568
1.2346567
1.2346567
1.2346567
1.2346567
1.2346567
1.2346567
1.2346567
1.2346567
1.2346567
1.2346566
1.2346566
1.2346566
1.2346566
1.2346566
1.2346566
1.2346566
1.2346566
1.2346565
1.2346565
1.2346565
1.2346565
1.2346565
1.2346565
1.2346565
1.2346565
1.2346565
1.2346564
1.2346564
1.2346564
1.2346564
1.2346564
1.2346564
1.2346564
1.2346564
1.2346564
1.2346563
1.2346563
1.2346563
1.2346563
1.2346563
1.2346563
1.2346563
1.2346563
1.2346563
1.2346562
1.2346562
1.2346562
1.2346562
1.2346562
1.2346562
1.2346562
1.2346562
1.2346561
1.2346561
1.2346561
1.2346561
1.2346561
1.2346561
1.2346561
1.2346561
1.2346561
1.234656
1.234656
1.234656
1.234656
1.234656
1.234656
1.234656
1.234656
1.234656
1.2346559
1.2346559
1.2346559
1.2346559
1.2346559
1.2346559
1.2346559
1.2346559
1.2346559
1.2346558
1.2346558
1.2346558
1.2346558
1.2346558
1.2346558
1.2346558
1.2346558
1.2346558
1.2346557
1.2346557
1.2346557
1.2346557
1.2346557
1.2346557
1.2346557
1.2346557
1.2346557
1.2346556
1.2346556
1.2346556
1.2346556
1.2346556
1.2346556
1.2346556
1.2346556
1.2346556
1.2346556
1.2346555
1.2346555
1.2346555
1.2346555
1.2346555
1.2346555
1.2346555
1.2346555
1.2346555
1.2346554
1.2346554
1.2346554
1.2346554
1.2346554
1.2346554
1.2346554
1.2346554
1.2346554
1.2346553
1.2346553
1.2346553
1.2346553
1.2346553
1.2346553
1.2346553
1.2346553
1.2346553
1.2346552
1.2346552
1.2346552
1.2346552
1.2346552
1.2346552
1.2346552
1.2346552
1.2346552
1.2346551
1.2346551
1.2346551
1.2346551
1.2346551
1.2346551
1.2346551
1.2346551
1.2346551
1.2346551
1.234655
1.234655
1.234655
1.234655
1.234655
1.234655
1.234655
1.234655
1.234655
1.2346549
1.2346549
1.2346549
1.2346549
1.2346549
1.2346549
1.2346549
1.2346549
1.2346549
1.2346549
1.2346548
1.2346548
1.2346548
1.2346548
1.2346548
1.2346548
1.2346548
1.2346548
1.2346548
1.2346547
1.2346547
1.2346547
1.2346547
1.2346547
1.2346547
1.2346547
1.2346547
1.2346547
1.2346546
1.2346546
1.2346546
1.2346546
1.2346546
1.2346546
1.2346546
1.2346546
1.2346546
1.2346546
1.2346545
1.2346545
1.2346545
1.2346545
1.2346545
1.2346545
1.2346545
1.2346545
1.2346545
1.2346545
1.2346544
1.2346544
1.2346544
1.2346544
1.2346544
1.2346544
1.2346544
1.2346544
1.2346544
1.2346543
1.2346543
1.2346543
1.2346543
1.2346543
1.2346543
1.2346543
1.2346543
1.2346543
1.2346543
1.2346542
1.2346542
1.2346542
1.2346542
1.2346542
1.2346542
1.2346542
1.2346542
1.2346542
1.2346541
1.2346541
1.2346541
1.2346541
1.2346541
1.2346541
1.2346541
1.2346541
1.2346541
1.2346541
1.234654
1.234654
1.234654
1.234654
1.234654
1.234654
1.234654
1.234654
1.234654
1.2346539
1.2346539
1.2346539
1.2346539
1.2346539
1.2346539
1.2346539
1.2346539
1.2346539
1.2346539
1.2346538
1.2346538
1.2346538
1.2346538
1.2346538
1.2346538
1.2346538
1.2346538
1.2346538
1.2346537
1.2346537
1.2346537
1.2346537
1.2346537
1.2346537
1.2346537
1.2346537
1.2346537
1.2346537
1.2346536
1.2346536
1.2346536
1.2346536
1.2346536
1.2346536
1.2346536
1.2346536
1.2346536
1.2346536
1.2346535
1.2346535
1.2346535
1.2346535
1.2346535
1.2346535
1.2346535
1.2346535
1.2346535
1.2346535
1.2346534
1.2346534
1.2346534
1.2346534
1.2346534
1.2346534
1.2346534
1.2346534
1.2346534
1.2346534
1.2346533
1.2346533
1.2346533
1.2346533
1.2346533
1.2346533
1.2346533
1.2346533
1.2346533
1.2346533
1.2346532
1.2346532
1.2346532
1.2346532
1.2346532
1.2346532
1.2346532
1.2346532
1.2346532
1.2346532
1.2346532
1.2346531
1.2346531
1.2346531
1.2346531
1.2346531
1.2346531
1.2346531
1.2346531
1.2346531
1.2346531
1.234653
1.234653
1.234653
1.234653
1.234653
1.234653
1.234653
1.234653
1.234653
1.234653
1.2346529
1.2346529
1.2346529
1.2346529
1.2346529
1.2346529
1.2346529
1.2346529
1.2346529
1.2346529
1.2346529
1.2346528
1.2346528
1.2346528
1.2346528
1.2346528
1.2346528
1.2346528
1.2346528
1.2346528
1.2346528
1.2346528
1.2346527
1.2346527
1.2346527
1.2346527
1.2346527
1.2346527
1.2346527
1.2346527
1.2346527
1.2346527
1.2346526
1.2346526
1.2346526
1.2346526
1.2346526
1.2346526
1.2346526
1.2346526
1.2346526
1.2346526
1.2346526
1.2346525
1.2346525
1.2346525
1.2346525
1.2346525
1.2346525
1.2346525
1.2346525
1.2346525
1.2346525
1.2346525
1.2346524
1.2346524
1.2346524
1.2346524
1.2346524
1.2346524
1.2346524
1.2346524
1.2346524
1.2346524
1.2346524
1.2346523
1.2346523
1.2346523
1.2346523
1.2346523
1.2346523
1.2346523
1.2346523
1.2346523
1.2346523
1.2346522
1.2346522
1.2346522
1.2346522
1.2346522
1.2346522
1.2346522
1.2346522
1.2346522
1.2346522
1.2346522
1.2346521
1.2346521
1.2346521
1.2346521
1.2346521
1.2346521
1.2346521
1.2346521
1.2346521
1.2346521
1.234652
1.234652
1.234652
1.234652
1.234652
1.234652
1.234652
1.234652
1.234652
1.234652
1.234652
1.2346519
1.2346519
1.2346519
1.2346519
1.2346519
1.2346519
1.2346519
1.2346519
1.2346519
1.2346519
1.2346518
1.2346518
1.2346518
1.2346518
1.2346518
1.2346518
1.2346518
1.2346518
1.2346518
1.2346517
1.2346517
1.2346517
1.2346517
1.2346517
1.2346517
1.2346517
1.2346517
1.2346517
1.2346517
1.2346517
1.2346516
1.2346516
1.2346516
1.2346516
1.2346516
1.2346516
1.2346516
1.2346516
1.2346516
1.2346516
1.2346515
1.2346515
1.2346515
1.2346515
1.2346515
1.2346515
1.2346515
1.2346515
1.2346515
1.2346515
1.2346514
1.2346514
1.2346514
1.2346514
1.2346514
1.2346514
1.2346514
1.2346514
1.2346514
1.2346514
1.2346513
1.2346513
1.2346513
1.2346513
1.2346513
1.2346513
1.2346513
1.2346513
1.2346513
1.2346513
1.2346512
1.2346512
1.2346512
1.2346512
1.2346512
1.2346512
1.2346512
1.2346512
1.2346512
1.2346512
1.2346512
1.2346511
1.2346511
1.2346511
1.2346511
1.2346511
1.2346511
1.2346511
1.2346511
1.2346511
1.234651
1.234651
1.234651
1.234651
1.234651
1.234651
1.234651
1.234651
1.234651
1.234651
1.2346509
1.2346509
1.2346509
1.2346509
1.2346509
1.2346509
1.2346509
1.2346509
1.2346509
1.2346509
1.2346508
1.2346508
1.2346508
1.2346508
1.2346508
1.2346508
1.2346508
1.2346508
1.2346508
1.2346508
1.2346508
1.2346507
1.2346507
1.2346507
1.2346507
1.2346507
1.2346507
1.2346507
1.2346507
1.2346507
1.2346506
1.2346506
1.2346506
1.2346506
1.2346506
1.2346506
1.2346506
1.2346506
1.2346506
1.2346506
1.2346505
1.2346505
1.2346505
1.2346505
1.2346505
1.2346505
1.2346505
1.2346505
1.2346505
1.2346505
1.2346505
1.2346504
1.2346504
1.2346504
1.2346504
1.2346504
1.2346504
1.2346504
1.2346504
1.2346504
1.2346504
1.2346503
1.2346503
1.2346503
1.2346503
1.2346503
1.2346503
1.2346503
1.2346503
1.2346503
1.2346503
1.2346503
1.2346502
1.2346502
1.2346502
1.2346502
1.2346502
1.2346502
1.2346502
1.2346502
1.2346502
1.2346502
1.2346501
1.2346501
1.2346501
1.2346501
1.2346501
1.2346501
1.2346501
1.2346501
1.2346501
1.2346501
1.23465
1.23465
1.23465
1.23465
1.23465
1.23465
1.23465
1.23465
1.23465
1.23465
1.2346499
1.2346499
1.2346499
1.2346499
1.2346499
1.2346499
1.2346499
1.2346499
1.2346499
1.2346499
1.2346498
1.2346498
1.2346498
1.2346498
1.2346498
1.2346498
1.2346498
1.2346498
1.2346498
1.2346497
1.2346497
1.2346497
1.2346497
1.2346497
1.2346497
1.2346497
1.2346497
1.2346497
1.2346497
1.2346496
1.2346496
1.2346496
1.2346496
1.2346496
1.2346496
1.2346496
1.2346496
1.2346496
1.2346496
1.2346495
1.2346495
1.2346495
1.2346495
1.2346495
1.2346495
1.2346495
1.2346495
1.2346495
1.2346494
1.2346494
1.2346494
1.2346494
1.2346494
1.2346494
1.2346494
1.2346494
1.2346494
1.2346494
1.2346493
1.2346493
1.2346493
1.2346493
1.2346493
1.2346493
1.2346493
1.2346493
1.2346493
1.2346492
1.2346492
1.2346492
1.2346492
1.2346492
1.2346492
1.2346492
1.2346492
1.2346492
1.2346492
1.2346492
1.2346491
1.2346491
1.2346491
1.2346491
1.2346491
1.2346491
1.2346491
1.2346491
1.2346491
1.234649
1.234649
1.234649
1.234649
1.234649
1.234649
1.234649
1.234649
1.234649
1.234649
1.2346489
1.2346489
1.2346489
1.2346489
1.2346489
1.2346489
1.2346489
1.2346489
1.2346489
1.2346489
1.2346488
1.2346488
1.2346488
1.2346488
1.2346488
1.2346488
1.2346488
1.2346488
1.2346488
1.2346488
1.2346487
1.2346487
1.2346487
1.2346487
1.2346487
1.2346487
1.2346487
1.2346487
1.2346487
1.2346486
1.2346486
1.2346486
1.2346486
1.2346486
1.2346486
1.2346486
1.2346486
1.2346486
1.2346486
1.2346485
1.2346485
1.2346485
1.2346485
1.2346485
1.2346485
1.2346485
1.2346485
1.2346485
1.2346485
1.2346484
1.2346484
1.2346484
1.2346484
1.2346484
1.2346484
1.2346484
1.2346484
1.2346484
1.2346483
1.2346483
1.2346483
1.2346483
1.2346483
1.2346483
1.2346483
1.2346483
1.2346483
1.2346482
1.2346482
1.2346482
1.2346482
1.2346482
1.2346482
1.2346482
1.2346482
1.2346482
1.2346481
1.2346481
1.2346481
1.2346481
1.2346481
1.2346481
1.2346481
1.2346481
1.2346481
1.234648
1.234648
1.234648
1.234648
1.234648
1.234648
1.234648
1.234648
1.2346479
1.2346479
1.2346479
1.2346479
1.2346479
1.2346479
1.2346479
1.2346479
1.2346478
1.2346478
1.2346478
1.2346478
1.2346478
1.2346478
1.2346478
1.2346477
1.2346477
1.2346477
1.2346477
1.2346477
1.2346477
1.2346477
1.2346476
1.2346476
1.2346476
1.2346476
1.2346476
1.2346476
1.2346476
1.2346475
1.2346475
1.2346475
1.2346475
1.2346475
1.2346475
1.2346475
1.2346474
1.2346474
1.2346474
1.2346474
1.2346474
1.2346474
1.2346473
1.2346473
1.2346473
1.2346473
1.2346473
1.2346473
1.2346472
1.2346472
1.2346472
1.2346472
1.2346472
1.2346472
1.2346471
1.2346471
1.2346471
1.2346471
1.2346471
1.2346471
1.234647
1.234647
1.234647
1.234647
1.234647
1.234647
1.2346469
1.2346469
1.2346469
1.2346469
1.2346469
1.2346468
1.2346468
1.2346468
1.2346468
1.2346468
1.2346467
1.2346467
1.2346467
1.2346467
1.2346467
1.2346467
1.2346466
1.2346466
1.2346466
1.2346466
1.2346466
1.2346465
1.2346465
1.2346465
1.2346465
1.2346465
1.2346464
1.2346464
1.2346464
1.2346464
1.2346464
1.2346463
1.2346463
1.2346463
1.2346463
1.2346463
1.2346462
1.2346462
1.2346462
1.2346462
1.2346461
1.2346461
1.2346461
1.2346461
1.2346461
1.234646
1.234646
1.234646
1.234646
1.2346459
1.2346459
1.2346459
1.2346459
1.2346459
1.2346458
1.2346458
1.2346458
1.2346458
1.2346457
1.2346457
1.2346457
1.2346457
1.2346457
1.2346456
1.2346456
1.2346456
1.2346456
1.2346455
1.2346455
1.2346455
1.2346455
1.2346454
1.2346454
1.2346454
1.2346454
1.2346453
1.2346453
1.2346453
1.2346453
1.2346452
1.2346452
1.2346452
1.2346452
1.2346451
1.2346451
1.2346451
1.2346451
1.234645
1.234645
1.234645
1.234645
1.2346449
1.2346449
1.2346449
1.2346449
1.2346448
1.2346448
1.2346448
1.2346448
1.2346447
1.2346447
1.2346447
1.2346446
1.2346446
1.2346446
1.2346446
1.2346445
1.2346445
1.2346445
1.2346444
1.2346444
1.2346444
1.2346444
1.2346443
1.2346443
1.2346443
1.2346442
1.2346442
1.2346442
1.2346442
1.2346441
1.2346441
1.2346441
1.234644
1.234644
1.234644
1.2346439
1.2346439
1.2346439
1.2346439
1.2346438
1.2346438
1.2346438
1.2346437
1.2346437
1.2346437
1.2346436
1.2346436
1.2346436
1.2346435
1.2346435
1.2346435
1.2346434
1.2346434
1.2346434
1.2346433
1.2346433
1.2346433
1.2346432
1.2346432
1.2346432
1.2346431
1.2346431
1.234643
1.234643
1.234643
1.2346429
1.2346429
1.2346429
1.2346428
1.2346428
1.2346428
1.2346427
1.2346427
1.2346426
1.2346426
1.2346426
1.2346425
1.2346425
1.2346424
1.2346424
1.2346424
1.2346423
1.2346423
1.2346422
1.2346422
1.2346421
1.2346421
1.2346421
1.234642
1.234642
1.2346419
1.2346419
1.2346418
1.2346418
1.2346417
1.2346417
1.2346416
1.2346416
1.2346416
1.2346415
1.2346415
1.2346414
1.2346414
1.2346413
1.2346412
1.2346412
1.2346411
1.2346411
1.234641
1.234641
1.2346409
1.2346409
1.2346408
1.2346408
1.2346407
1.2346406
1.2346406
1.2346405
1.2346405
1.2346404
1.2346403
1.2346403
1.2346402
1.2346401
1.2346401
1.23464
1.2346399
1.2346399
1.2346398
1.2346397
1.2346396
1.2346396
1.2346395
1.2346394
1.2346393
1.2346392
1.2346392
1.2346391
1.234639
1.2346389
1.2346388
1.2346387
1.2346386
1.2346385
1.2346384
1.2346383
1.2346382
1.2346381
1.234638
1.2346379
1.2346378
1.2346377
1.2346376
1.2346375
1.2346374
1.2346372
1.2346371
1.234637
1.2346369
1.2346367
1.2346366
1.2346365
1.2346363
1.2346362
1.234636
1.2346359
1.2346357
1.2346355
1.2346354
1.2346352
1.234635
1.2346348
1.2346347
1.2346345
1.2346343
1.2346341
1.2346339
1.2346337
1.2346334
1.2346332
1.234633
1.2346328
1.2346325
1.2346323
1.234632
1.2346318
1.2346315
1.2346312
1.234631
1.2346307
1.2346304
1.2346301
1.2346298
1.2346294
1.2346291
1.2346288
1.2346284
1.234628
1.2346277
1.2346273
1.2346269
1.2346265
1.2346261
1.2346257
1.2346252
1.2346248
1.2346243
1.2346238
1.2346233
1.2346228
1.2346223
1.2346218
1.2346212
1.2346207
1.2346201
1.2346195
1.2346189
1.2346183
1.2346176
1.2346169
1.2346163
1.2346156
1.2346148
1.2346141
1.2346133
1.2346125
1.2346117
1.2346109
1.23461
1.2346092
1.2346082
1.2346073
1.2346064
1.2346054
1.2346044
1.2346033
1.2346023
1.2346012
1.2346
1.2345989
1.2345977
1.2345965
1.2345952
1.2345939
1.2345926
1.2345913
1.2345899
1.2345884
1.234587
1.2345854
1.2345839
1.2345823
1.2345807
1.234579
1.2345773
1.2345755
1.2345737
1.2345718
1.2345699
1.2345679
1.2345659
1.2345638
1.2345617
1.2345595
1.2345573
1.234555
1.2345527
1.2345503
1.2345478
1.2345453
1.2345427
1.23454
1.2345373
1.2345345
1.2345316
1.2345287
1.2345257
1.2345226
1.2345194
1.2345162
1.2345129
1.2345095
1.234506
1.2345024
1.2344988
1.234495
1.2344912
1.2344873
1.2344833
1.2344792
1.234475
1.2344707
1.2344663
1.2344618
1.2344572
1.2344524
1.2344476
1.2344427
1.2344376
1.2344325
1.2344272
1.2344218
1.2344162
1.2344106
1.2344048
1.2343989
1.2343929
1.2343867
1.2343804
1.234374
1.2343674
1.2343607
1.2343538
1.2343468
1.2343397
1.2343324
1.2343249
1.2343173
1.2343095
1.2343016
1.2342934
1.2342852
1.2342767
1.2342681
1.2342593
1.2342503
1.2342412
1.2342318
1.2342223
1.2342126
1.2342026
1.2341925
1.2341822
1.2341717
1.234161
1.23415
1.2341389
1.2341276
1.234116
1.2341042
1.2340922
1.2340799
1.2340675
1.2340548
1.2340418
1.2340286
1.2340152
1.2340016
1.2339876
1.2339735
1.2339591
1.2339444
1.2339294
1.2339142
1.2338987
1.233883
1.233867
1.2338507
1.2338341
1.2338172
1.2338
1.2337826
1.2337648
1.2337468
1.2337284
1.2337098
1.2336908
1.2336715
1.2336519
1.233632
1.2336118
1.2335912
1.2335703
1.2335491
1.2335275
1.2335056
1.2334834
1.2334608
1.2334378
1.2334145
1.2333909
1.2333669
1.2333425
1.2333177
1.2332926
1.2332671
1.2332412
1.233215
1.2331883
1.2331613
1.2331339
1.233106
1.2330778
1.2330492
1.2330202
1.2329908
1.2329609
1.2329307
1.2329
1.2328689
1.2328374
1.2328054
1.232773
1.2327402
1.232707
1.2326733
1.2326392
1.2326046
1.2325696
1.2325341
1.2324982
1.2324618
1.2324249
1.2323876
1.2323499
1.2323116
1.2322729
1.2322337
1.232194
1.2321539
1.2321133
1.2320722
1.2320306
1.2319885
1.2319459
1.2319028
1.2318592
1.2318152
1.2317706
1.2317255
1.2316799
1.2316339
1.2315873
1.2315401
1.2314925
1.2314444
1.2313957
1.2313466
1.2312969
1.2312466
1.2311959
1.2311446
1.2310928
1.2310405
1.2309876
1.2309342
1.2308803
1.2308259
1.2307709
1.2307153
1.2306593
1.2306026
1.2305455
1.2304878
1.2304296
1.2303708
1.2303115
1.2302516
1.2301912
1.2301302
1.2300687
1.2300067
1.2299441
1.2298809
1.2298172
1.229753
1.2296882
1.2296228
1.2295569
1.2294905
1.2294235
1.229356
1.2292879
1.2292193
1.2291501
1.2290804
1.2290101
1.2289393
1.2288679
1.228796
1.2287236
1.2286506
1.2285771
1.228503
1.2284284
1.2283533
1.2282776
1.2282013
1.2281246
1.2280473
1.2279695
1.2278911
1.2278123
1.2277328
1.2276529
1.2275725
1.2274915
1.22741
1.227328
1.2272454
1.2271624
1.2270789
1.2269948
1.2269102
1.2268252
1.2267396
1.2266535
1.2265669
1.2264799
1.2263923
1.2263043
1.2262157
1.2261267
1.2260372
1.2259473
1.2258568
1.2257659
1.2256745
1.2255827
1.2254904
1.2253976
1.2253044
1.2252108
1.2251167
1.2250221
1.2249271
1.2248317
1.2247358
1.2246395
1.2245428
1.2244457
1.2243482
1.2242502
1.2241518
1.2240531
1.2239539
1.2238543
1.2237544
1.2236541
1.2235533
1.2234522
1.2233508
1.2232489
1.2231467
1.2230442
1.2229413
1.222838
1.2227344
1.2226305
1.2225262
1.2224216
1.2223166
1.2222114
1.2221058
1.2219999
1.2218937
1.2217872
1.2216804
1.2215734
1.221466
1.2213584
1.2212505
1.2211423
1.2210338
1.2209251
1.2208162
1.220707
1.2205976
1.2204879
1.220378
1.2202678
1.2201575
1.2200469
1.2199361
1.2198252
1.219714
1.2196026
1.219491
1.2193793
1.2192674
1.2191553
1.2190431
1.2189307
1.2188181
1.2187054
1.2185926
1.2184796
1.2183665
1.2182533
1.2181399
1.2180265
1.2179129
1.2177992
1.2176855
1.2175716
1.2174577
1.2173437
1.2172296
1.2171154
1.2170012
1.2168869
1.2167726
1.2166583
1.2165439
1.2164294
1.216315
1.2162005
1.216086
1.2159715
1.215857
1.2157425
1.215628
1.2155136
1.2153991
1.2152847
1.2151703
1.2150559
1.2149416
1.2148273
1.2147131
1.2145989
1.2144848
1.2143708
1.2142568
1.2141429
1.2140291
1.2139154
1.2138018
1.2136883
1.2135749
1.2134616
1.2133484
1.2132354
1.2131224
1.2130097
1.212897
1.2127845
1.2126721
1.2125599
1.2124478
1.2123359
1.2122242
1.2121127
1.2120013
1.2118901
1.2117791
1.2116683
1.2115576
1.2114472
1.211337
1.211227
1.2111172
1.2110077
1.2108983
1.2107892
1.2106803
1.2105717
1.2104633
1.2103551
1.2102472
1.2101396
1.2100322
1.2099251
1.2098182
1.2097117
1.2096054
1.2094993
1.2093936
1.2092882
1.209183
1.2090782
1.2089736
1.2088694
1.2087654
1.2086618
1.2085585
1.2084555
1.2083528
1.2082505
1.2081485
1.2080468
1.2079455
1.2078446
1.2077439
1.2076437
1.2075437
1.2074442
1.207345
1.2072462
1.2071477
1.2070496
1.2069519
1.2068546
1.2067576
1.2066611
1.2065649
1.2064692
1.2063738
1.2062788
1.2061843
1.2060901
1.2059964
1.2059031
1.2058102
1.2057177
1.2056256
1.205534
1.2054428
1.2053521
1.2052618
1.2051719
1.2050825
1.2049936
1.2049051
1.2048171
1.2047295
1.2046424
1.2045557
1.2044696
1.2043839
1.2042987
1.204214
1.2041298
1.2040461
1.2039628
1.2038801
1.2037979
1.2037162
1.203635
1.2035543
1.2034742
1.2033945
1.2033154
1.2032369
1.2031589
1.2030814
1.2030045
1.2029281
1.2028523
1.202777
1.2027023
1.2026282
1.2025547
1.2024818
1.2024094
1.2023376
1.2022665
1.2021959
1.202126
1.2020566
1.2019879
1.2019198
1.2018524
1.2017856
1.2017194
1.2016539
1.201589
1.2015248
1.2014612
1.2013984
1.2013362
1.2012747
1.2012139
1.2011538
1.2010945
1.2010358
1.2009779
1.2009207
1.2008642
1.2008085
1.2007535
1.2006993
1.2006459
1.2005932
1.2005414
1.2004903
1.2004401
1.2003906
1.200342
1.2002942
1.2002473
1.2002012
1.2001559
1.2001115
1.2000681
1.2000255
1.1999837
1.1999429
1.1999031
1.1998641
1.1998261
1.1997891
1.199753
1.1997178
1.1996837
1.1996506
1.1996184
1.1995873
1.1995572
1.1995282
1.1995002
1.1994732
1.1994474
1.1994226
1.199399
1.1993764
1.199355
1.1993347
1.1993156
1.1992976
1.1992808
1.1992653
1.1992509
1.1992377
1.1992258
1.1992151
1.1992057
1.1991975
1.1991907
1.1991851
1.1991808
1.1991779
1.1991763
1.1991761
1.1991773
1.1991798
1.1991838
1.1991892
1.199196
1.1992042
1.1992139
1.1992251
1.1992378
1.1992519
1.1992676
1.1992849
1.1993036
1.199324
1.1993459
1.1993694
1.1993945
1.1994213
1.1994496
1.1994797
1.1995114
1.1995447
1.1995798
1.1996166
1.1996551
1.1996953
1.1997373
1.199781
1.1998265
1.1998738
1.1999229
1.1999739
1.2000266
1.2000812
1.2001376
1.200196
1.2002561
1.2003182
1.2003822
1.2004481
1.2005159
1.2005857
1.2006574
1.2007311
1.2008067
1.2008843
1.2009639
1.2010455
1.2011291
1.2012148
1.2013024
1.2013921
1.2014838
1.2015775
1.2016733
1.2017712
1.2018712
1.2019732
1.2020772
1.2021834
1.2022917
1.202402
1.2025145
1.202629
1.2027456
1.2028644
1.2029852
1.2031082
1.2032333
1.2033605
1.2034898
1.2036212
1.2037547
1.2038903
1.204028
1.2041678
1.2043097
1.2044537
1.2045998
1.204748
1.2048983
1.2050506
1.205205
1.2053615
1.20552
1.2056806
1.2058432
1.2060078
1.2061745
1.2063431
1.2065138
1.2066864
1.206861
1.2070376
1.2072161
1.2073965
1.2075789
1.2077631
1.2079493
1.2081373
1.2083272
1.2085189
1.2087124
1.2089077
1.2091048
1.2093036
1.2095042
1.2097065
1.2099105
1.2101161
1.2103234
1.2105324
1.2107429
1.210955
1.2111687
1.2113839
1.2116006
1.2118187
1.2120384
1.2122594
1.2124818
1.2127056
1.2129307
1.2131571
1.2133847
1.2136137
1.2138438
1.2140751
1.2143075
1.2145411
1.2147757
1.2150114
1.2152481
1.2154857
1.2157243
1.2159638
1.2162042
1.2164455
1.2166875
1.2169303
1.2171738
1.217418
1.2176629
1.2179084
1.2181545
1.2184011
1.2186482
1.2188958
1.2191438
1.2193922
1.219641
1.2198901
1.2201394
1.220389
1.2206387
1.2208887
1.2211387
1.2213888
1.221639
1.2218891
1.2221393
1.2223893
1.2226392
1.222889
1.2231385
1.2233878
1.2236369
1.2238856
1.224134
1.224382
1.2246295
1.2248766
1.2251232
1.2253693
1.2256147
1.2258596
1.2261038
1.2263473
1.22659
1.226832
1.2270732
1.2273136
1.2275531
1.2277917
1.2280294
1.2282661
1.2285017
1.2287364
1.22897
1.2292024
1.2294338
1.2296639
1.2298929
1.2301207
1.2303472
1.2305724
1.2307963
1.2310189
1.2312401
1.2314599
1.2316783
1.2318952
1.2321107
1.2323247
1.2325372
1.2327482
1.2329576
1.2331655
1.2333718
1.2335764
1.2337795
1.2339809
1.2341806
1.2343786
1.234575
1.2347696
1.2349625
1.2351537
1.2353431
1.2355307
1.2357166
1.2359006
1.2360828
1.2362632
1.2364417
1.2366183
1.2367931
1.236966
1.237137
1.237306
1.2374732
1.2376384
1.2378016
1.2379629
1.2381223
1.2382796
1.2384348
1.2385881
1.2387393
1.2388885
1.2390356
1.2391807
1.2393237
1.2394648
1.2396038
1.2397408
1.2398758
1.2400089
1.2401399
1.240269
1.2403962
1.2405214
1.2406447
1.2407661
1.2408857
1.2410034
1.2411192
1.2412333
1.2413456
1.2414562
1.2415651
1.2416723
1.2417773
1.2418807
1.2419837
1.2420849
1.2421821
1.2422759
1.2423667
1.2424537
1.2425356
1.2426078
1.2426585
1.242657
1.2425274
1.2420854
1.2410646
1.2396934
1.2379742
1.2359147
1.2335361
1.2308723
1.2279676
1.2248741
1.2216489
1.2183507
1.2150374
1.2117635
1.208578
1.2055233
1.2026341
1.1999369
1.1974502
1.195185
1.1931453
1.191329
1.1897295
1.1883359
1.1871344
1.1861094
1.1852443
1.1845217
1.1839248
1.1834374
1.1830443
1.1827314
1.1824858
1.1822964
1.1821536
1.1820489
1.1819745
1.1819242
1.1818931
1.1818774
1.1818738
1.1818795
1.1818916
1.1819083
1.1819281
1.1819499
1.1819734
1.181998
1.1820233
1.1820487
1.1820743
1.1821007
1.1821262
1.1821512
1.1821756
1.1821994
1.1822226
1.1822453
1.1822674
1.1822889
1.1823098
1.1823303
1.1823503
1.1823698
1.1823888
1.1824074
1.1824255
1.1824433
1.1824606
1.1824776
1.1824941
1.1825103
1.1825261
1.1825415
1.1825566
1.1825713
1.1825856
1.1825995
1.1826131
1.1826264
1.1826392
1.1826517
1.1826639
1.1826757
1.1826872
1.1826984
1.1827092
1.1827197
1.18273
1.1827399
1.1827496
1.1827589
1.1827681
1.1827769
1.1827855
1.1827939
1.1828021
1.18281
1.1828177
1.1828253
1.1828326
1.1828398
1.1828468
1.1828536
1.1828603
1.1828668
1.1828732
1.1828794
1.1828855
1.1828915
1.1828973
1.1829031
1.1829087
1.1829142
1.1829196
1.1829249
1.1829302
1.1829353
1.1829404
1.1829453
1.1829502
1.182955
1.1829598
1.1829644
1.182969
1.1829736
1.1829781
1.1829825
1.1829869
1.1829912
1.1829954
1.1829997
1.1830038
1.183008
1.1830121
1.1830161
1.1830201
1.1830241
1.1830281
1.183032
1.1830359
1.1830397
1.1830436
1.1830473
1.1830511
1.1830549
1.1830586
1.1830623
1.1830659
1.1830696
1.1830732
1.1830768
1.1830804
1.183084
1.1830876
1.1830911
1.1830946
1.1830981
1.1831016
1.1831051
1.1831085