/*--------------------------------*- C++ -*----------------------------------*\
  =========                 |
  \\      /  F ield         | OpenFOAM: The Open Source CFD Toolbox
   \\    /   O peration     | Website:  https://openfoam.org
    \\  /    A nd           | Version:  7
     \\/     M anipulation  |
\*---------------------------------------------------------------------------*/
FoamFile
{
    version     2.0;
    format      ascii;
    class       volScalarField;
    location    "0.00344";
    object      rho;
}
// * * * * * * * * * * * * * * * * * * * * * * * * * * * * * * * * * * * * * //

dimensions      [1 -3 0 0 0 0 0];

internalField   nonuniform List<scalar> 
5000
(
1.2479606
1.2479605
1.2479607
1.247961
1.2479613
1.2479615
1.2479616
1.2479617
1.2479618
1.2479619
1.2479619
1.2479619
1.2479619
1.2479619
1.2479619
1.2479619
1.247962
1.247962
1.247962
1.247962
1.247962
1.247962
1.247962
1.247962
1.2479619
1.2479619
1.2479619
1.2479619
1.2479619
1.2479619
1.2479619
1.2479619
1.2479619
1.2479619
1.2479619
1.2479619
1.2479619
1.2479619
1.2479619
1.2479619
1.2479619
1.2479619
1.2479619
1.2479619
1.2479619
1.2479619
1.2479619
1.2479619
1.2479619
1.2479619
1.2479619
1.2479619
1.2479619
1.2479619
1.2479619
1.2479619
1.2479619
1.2479619
1.2479619
1.2479619
1.2479619
1.2479619
1.2479619
1.2479619
1.2479619
1.2479619
1.2479619
1.2479619
1.2479619
1.2479619
1.2479618
1.2479618
1.2479618
1.2479618
1.2479618
1.2479618
1.2479618
1.2479618
1.2479618
1.2479618
1.2479618
1.2479618
1.2479618
1.2479618
1.2479618
1.2479618
1.2479618
1.2479618
1.2479618
1.2479618
1.2479618
1.2479618
1.2479618
1.2479618
1.2479618
1.2479618
1.2479618
1.2479618
1.2479618
1.2479618
1.2479618
1.2479617
1.2479617
1.2479617
1.2479617
1.2479617
1.2479617
1.2479617
1.2479617
1.2479617
1.2479617
1.2479617
1.2479617
1.2479617
1.2479617
1.2479617
1.2479617
1.2479617
1.2479617
1.2479617
1.2479617
1.2479617
1.2479617
1.2479617
1.2479617
1.2479617
1.2479617
1.2479617
1.2479617
1.2479617
1.2479617
1.2479617
1.2479617
1.2479616
1.2479616
1.2479616
1.2479616
1.2479616
1.2479616
1.2479616
1.2479616
1.2479616
1.2479616
1.2479616
1.2479616
1.2479616
1.2479616
1.2479616
1.2479616
1.2479616
1.2479616
1.2479616
1.2479616
1.2479616
1.2479616
1.2479616
1.2479616
1.2479616
1.2479616
1.2479616
1.2479616
1.2479616
1.2479616
1.2479616
1.2479616
1.2479616
1.2479616
1.2479616
1.2479616
1.2479616
1.2479616
1.2479616
1.2479616
1.2479616
1.2479616
1.2479616
1.2479616
1.2479615
1.2479615
1.2479615
1.2479615
1.2479615
1.2479615
1.2479615
1.2479615
1.2479615
1.2479615
1.2479615
1.2479615
1.2479615
1.2479615
1.2479615
1.2479615
1.2479615
1.2479615
1.2479615
1.2479615
1.2479615
1.2479615
1.2479615
1.2479615
1.2479615
1.2479615
1.2479615
1.2479615
1.2479615
1.2479615
1.2479615
1.2479615
1.2479615
1.2479615
1.2479615
1.2479615
1.2479615
1.2479615
1.2479615
1.2479615
1.2479615
1.2479615
1.2479615
1.2479615
1.2479615
1.2479615
1.2479615
1.2479615
1.2479615
1.2479615
1.2479615
1.2479615
1.2479615
1.2479615
1.2479615
1.2479615
1.2479615
1.2479615
1.2479615
1.2479615
1.2479615
1.2479615
1.2479615
1.2479615
1.2479615
1.2479615
1.2479615
1.2479615
1.2479615
1.2479615
1.2479615
1.2479615
1.2479615
1.2479615
1.2479615
1.2479615
1.2479615
1.2479615
1.2479615
1.2479615
1.2479615
1.2479615
1.2479615
1.2479615
1.2479615
1.2479615
1.2479615
1.2479615
1.2479615
1.2479615
1.2479615
1.2479615
1.2479615
1.2479615
1.2479615
1.2479615
1.2479615
1.2479615
1.2479615
1.2479615
1.2479615
1.2479615
1.2479615
1.2479615
1.2479615
1.2479615
1.2479615
1.2479615
1.2479615
1.2479615
1.2479615
1.2479615
1.2479615
1.2479615
1.2479615
1.2479615
1.2479615
1.2479615
1.2479615
1.2479615
1.2479615
1.2479615
1.2479615
1.2479615
1.2479615
1.2479615
1.2479615
1.2479615
1.2479615
1.2479615
1.2479615
1.2479615
1.2479615
1.2479615
1.2479615
1.2479615
1.2479615
1.2479615
1.2479615
1.2479615
1.2479615
1.2479615
1.2479615
1.2479615
1.2479615
1.2479615
1.2479615
1.2479615
1.2479615
1.2479615
1.2479615
1.2479615
1.2479615
1.2479615
1.2479615
1.2479615
1.2479615
1.2479615
1.2479615
1.2479615
1.2479615
1.2479615
1.2479615
1.2479615
1.2479615
1.2479615
1.2479615
1.2479615
1.2479615
1.2479615
1.2479615
1.2479615
1.2479615
1.2479615
1.2479615
1.2479615
1.2479615
1.2479615
1.2479615
1.2479615
1.2479615
1.2479615
1.2479615
1.2479615
1.2479615
1.2479615
1.2479615
1.2479615
1.2479615
1.2479615
1.2479615
1.2479615
1.2479615
1.2479615
1.2479615
1.2479615
1.2479615
1.2479615
1.2479615
1.2479615
1.2479615
1.2479615
1.2479615
1.2479615
1.2479615
1.2479615
1.2479615
1.2479615
1.2479615
1.2479615
1.2479615
1.2479615
1.2479615
1.2479615
1.2479615
1.2479615
1.2479615
1.2479615
1.2479615
1.2479615
1.2479615
1.2479615
1.2479615
1.2479615
1.2479615
1.2479615
1.2479615
1.2479615
1.2479615
1.2479615
1.2479615
1.2479615
1.2479615
1.2479615
1.2479615
1.2479615
1.2479614
1.2479614
1.2479614
1.2479614
1.2479614
1.2479614
1.2479614
1.2479614
1.2479614
1.2479614
1.2479614
1.2479614
1.2479614
1.2479614
1.2479614
1.2479614
1.2479614
1.2479614
1.2479614
1.2479614
1.2479614
1.2479614
1.2479614
1.2479614
1.2479614
1.2479614
1.2479614
1.2479614
1.2479614
1.2479614
1.2479614
1.2479614
1.2479614
1.2479614
1.2479614
1.2479614
1.2479614
1.2479614
1.2479614
1.2479614
1.2479614
1.2479614
1.2479614
1.2479614
1.2479614
1.2479614
1.2479614
1.2479614
1.2479614
1.2479614
1.2479614
1.2479614
1.2479614
1.2479614
1.2479614
1.2479614
1.2479614
1.2479614
1.2479614
1.2479614
1.2479614
1.2479614
1.2479614
1.2479614
1.2479614
1.2479614
1.2479614
1.2479614
1.2479614
1.2479614
1.2479614
1.2479614
1.2479614
1.2479614
1.2479614
1.2479614
1.2479614
1.2479614
1.2479614
1.2479614
1.2479614
1.2479614
1.2479614
1.2479614
1.2479614
1.2479614
1.2479614
1.2479614
1.2479614
1.2479614
1.2479614
1.2479614
1.2479614
1.2479614
1.2479614
1.2479614
1.2479614
1.2479614
1.2479614
1.2479614
1.2479614
1.2479614
1.2479614
1.2479614
1.2479614
1.2479614
1.2479614
1.2479614
1.2479614
1.2479614
1.2479614
1.2479614
1.2479614
1.2479614
1.2479614
1.2479614
1.2479614
1.2479614
1.2479614
1.2479614
1.2479614
1.2479614
1.2479614
1.2479614
1.2479614
1.2479614
1.2479613
1.2479613
1.2479613
1.2479613
1.2479613
1.2479613
1.2479613
1.2479613
1.2479613
1.2479613
1.2479613
1.2479613
1.2479613
1.2479613
1.2479613
1.2479613
1.2479613
1.2479613
1.2479613
1.2479613
1.2479613
1.2479613
1.2479613
1.2479613
1.2479613
1.2479613
1.2479613
1.2479613
1.2479613
1.2479613
1.2479613
1.2479613
1.2479613
1.2479613
1.2479613
1.2479613
1.2479613
1.2479613
1.2479613
1.2479613
1.2479613
1.2479613
1.2479613
1.2479613
1.2479613
1.2479613
1.2479613
1.2479613
1.2479613
1.2479613
1.2479613
1.2479613
1.2479613
1.2479613
1.2479613
1.2479613
1.2479613
1.2479613
1.2479613
1.2479613
1.2479613
1.2479613
1.2479613
1.2479613
1.2479613
1.2479613
1.2479613
1.2479613
1.2479613
1.2479613
1.2479613
1.2479613
1.2479613
1.2479613
1.2479613
1.2479613
1.2479613
1.2479613
1.2479613
1.2479613
1.2479613
1.2479613
1.2479613
1.2479613
1.2479613
1.2479613
1.2479613
1.2479613
1.2479613
1.2479613
1.2479613
1.2479613
1.2479613
1.2479613
1.2479613
1.2479613
1.2479613
1.2479613
1.2479613
1.2479612
1.2479612
1.2479612
1.2479612
1.2479612
1.2479612
1.2479612
1.2479612
1.2479612
1.2479612
1.2479612
1.2479612
1.2479612
1.2479612
1.2479612
1.2479612
1.2479612
1.2479612
1.2479612
1.2479612
1.2479612
1.2479612
1.2479612
1.2479612
1.2479612
1.2479612
1.2479612
1.2479612
1.2479612
1.2479612
1.2479612
1.2479612
1.2479612
1.2479612
1.2479612
1.2479612
1.2479612
1.2479612
1.2479612
1.2479612
1.2479612
1.2479612
1.2479612
1.2479612
1.2479612
1.2479612
1.2479612
1.2479612
1.2479612
1.2479612
1.2479612
1.2479612
1.2479612
1.2479612
1.2479612
1.2479612
1.2479612
1.2479612
1.2479612
1.2479612
1.2479612
1.2479612
1.2479612
1.2479612
1.2479612
1.2479612
1.2479612
1.2479612
1.2479612
1.2479612
1.2479612
1.2479612
1.2479612
1.2479612
1.2479612
1.2479612
1.2479612
1.2479612
1.2479612
1.2479612
1.2479611
1.2479611
1.2479611
1.2479611
1.2479611
1.2479611
1.2479611
1.2479611
1.2479611
1.2479611
1.2479611
1.2479611
1.2479611
1.2479611
1.2479611
1.2479611
1.2479611
1.2479611
1.2479611
1.2479611
1.2479611
1.2479611
1.2479611
1.2479611
1.2479611
1.2479611
1.2479611
1.2479611
1.2479611
1.2479611
1.2479611
1.2479611
1.2479611
1.2479611
1.2479611
1.2479611
1.2479611
1.2479611
1.2479611
1.2479611
1.2479611
1.2479611
1.2479611
1.2479611
1.2479611
1.2479611
1.2479611
1.2479611
1.2479611
1.2479611
1.2479611
1.2479611
1.2479611
1.2479611
1.2479611
1.2479611
1.2479611
1.2479611
1.2479611
1.2479611
1.2479611
1.247961
1.247961
1.247961
1.247961
1.247961
1.247961
1.247961
1.247961
1.247961
1.247961
1.247961
1.247961
1.247961
1.247961
1.247961
1.247961
1.247961
1.247961
1.247961
1.247961
1.247961
1.247961
1.247961
1.247961
1.247961
1.247961
1.247961
1.247961
1.247961
1.247961
1.247961
1.247961
1.247961
1.247961
1.247961
1.247961
1.247961
1.247961
1.247961
1.247961
1.247961
1.247961
1.247961
1.247961
1.247961
1.247961
1.247961
1.247961
1.247961
1.247961
1.247961
1.2479609
1.2479609
1.2479609
1.2479609
1.2479609
1.2479609
1.2479609
1.2479609
1.2479609
1.2479609
1.2479609
1.2479609
1.2479609
1.2479609
1.2479609
1.2479609
1.2479609
1.2479609
1.2479609
1.2479609
1.2479609
1.2479609
1.2479609
1.2479609
1.2479609
1.2479609
1.2479609
1.2479609
1.2479609
1.2479609
1.2479609
1.2479609
1.2479609
1.2479609
1.2479609
1.2479609
1.2479609
1.2479609
1.2479609
1.2479609
1.2479609
1.2479609
1.2479608
1.2479608
1.2479608
1.2479608
1.2479608
1.2479608
1.2479608
1.2479608
1.2479608
1.2479608
1.2479608
1.2479608
1.2479608
1.2479608
1.2479608
1.2479608
1.2479608
1.2479608
1.2479608
1.2479608
1.2479608
1.2479608
1.2479608
1.2479608
1.2479608
1.2479608
1.2479608
1.2479608
1.2479608
1.2479608
1.2479608
1.2479608
1.2479608
1.2479608
1.2479608
1.2479608
1.2479607
1.2479607
1.2479607
1.2479607
1.2479607
1.2479607
1.2479607
1.2479607
1.2479607
1.2479607
1.2479607
1.2479607
1.2479607
1.2479607
1.2479607
1.2479607
1.2479607
1.2479607
1.2479607
1.2479607
1.2479607
1.2479607
1.2479607
1.2479607
1.2479607
1.2479607
1.2479607
1.2479607
1.2479607
1.2479606
1.2479606
1.2479606
1.2479606
1.2479606
1.2479606
1.2479606
1.2479606
1.2479606
1.2479606
1.2479606
1.2479606
1.2479606
1.2479606
1.2479606
1.2479606
1.2479606
1.2479606
1.2479606
1.2479606
1.2479606
1.2479606
1.2479606
1.2479606
1.2479606
1.2479606
1.2479606
1.2479606
1.2479606
1.2479606
1.2479605
1.2479605
1.2479605
1.2479605
1.2479605
1.2479605
1.2479605
1.2479605
1.2479605
1.2479605
1.2479605
1.2479605
1.2479605
1.2479605
1.2479605
1.2479605
1.2479605
1.2479605
1.2479605
1.2479605
1.2479605
1.2479605
1.2479605
1.2479605
1.2479605
1.2479604
1.2479604
1.2479604
1.2479604
1.2479604
1.2479604
1.2479604
1.2479604
1.2479604
1.2479604
1.2479604
1.2479604
1.2479604
1.2479604
1.2479604
1.2479604
1.2479604
1.2479604
1.2479604
1.2479604
1.2479604
1.2479604
1.2479604
1.2479603
1.2479603
1.2479603
1.2479603
1.2479603
1.2479603
1.2479603
1.2479603
1.2479603
1.2479603
1.2479603
1.2479603
1.2479603
1.2479603
1.2479603
1.2479603
1.2479603
1.2479603
1.2479603
1.2479603
1.2479602
1.2479602
1.2479602
1.2479602
1.2479602
1.2479602
1.2479602
1.2479602
1.2479602
1.2479602
1.2479602
1.2479602
1.2479602
1.2479602
1.2479602
1.2479602
1.2479602
1.2479602
1.2479602
1.2479602
1.2479601
1.2479601
1.2479601
1.2479601
1.2479601
1.2479601
1.2479601
1.2479601
1.2479601
1.2479601
1.2479601
1.2479601
1.2479601
1.2479601
1.2479601
1.2479601
1.2479601
1.2479601
1.2479601
1.24796
1.24796
1.24796
1.24796
1.24796
1.24796
1.24796
1.24796
1.24796
1.24796
1.24796
1.24796
1.24796
1.24796
1.24796
1.24796
1.24796
1.24796
1.24796
1.2479599
1.2479599
1.2479599
1.2479599
1.2479599
1.2479599
1.2479599
1.2479599
1.2479599
1.2479599
1.2479599
1.2479599
1.2479599
1.2479599
1.2479599
1.2479599
1.2479599
1.2479599
1.2479599
1.2479599
1.2479598
1.2479598
1.2479598
1.2479598
1.2479598
1.2479598
1.2479598
1.2479598
1.2479598
1.2479598
1.2479598
1.2479598
1.2479598
1.2479598
1.2479598
1.2479598
1.2479598
1.2479598
1.2479598
1.2479598
1.2479597
1.2479597
1.2479597
1.2479597
1.2479597
1.2479597
1.2479597
1.2479597
1.2479597
1.2479597
1.2479597
1.2479597
1.2479597
1.2479597
1.2479597
1.2479597
1.2479597
1.2479597
1.2479597
1.2479597
1.2479597
1.2479597
1.2479597
1.2479597
1.2479597
1.2479597
1.2479597
1.2479597
1.2479597
1.2479597
1.2479597
1.2479597
1.2479597
1.2479597
1.2479597
1.2479597
1.2479597
1.2479597
1.2479597
1.2479597
1.2479597
1.2479597
1.2479597
1.2479597
1.2479597
1.2479597
1.2479597
1.2479597
1.2479598
1.2479598
1.2479598
1.2479598
1.2479598
1.2479598
1.2479598
1.2479598
1.2479598
1.2479598
1.2479599
1.2479599
1.2479599
1.2479599
1.2479599
1.24796
1.24796
1.24796
1.24796
1.24796
1.2479601
1.2479601
1.2479601
1.2479602
1.2479602
1.2479602
1.2479603
1.2479603
1.2479603
1.2479604
1.2479604
1.2479605
1.2479605
1.2479605
1.2479606
1.2479606
1.2479607
1.2479608
1.2479608
1.2479609
1.2479609
1.247961
1.2479611
1.2479612
1.2479612
1.2479613
1.2479614
1.2479615
1.2479616
1.2479617
1.2479618
1.2479619
1.247962
1.2479621
1.2479622
1.2479623
1.2479625
1.2479626
1.2479628
1.2479629
1.2479631
1.2479632
1.2479634
1.2479636
1.2479637
1.2479639
1.2479641
1.2479643
1.2479645
1.2479648
1.247965
1.2479652
1.2479655
1.2479657
1.247966
1.2479663
1.2479666
1.2479669
1.2479672
1.2479675
1.2479679
1.2479682
1.2479686
1.247969
1.2479694
1.2479698
1.2479702
1.2479707
1.2479711
1.2479716
1.2479721
1.2479726
1.2479732
1.2479738
1.2479743
1.247975
1.2479756
1.2479763
1.247977
1.2479777
1.2479784
1.2479792
1.24798
1.2479808
1.2479817
1.2479826
1.2479835
1.2479845
1.2479855
1.2479865
1.2479876
1.2479887
1.2479899
1.2479911
1.2479924
1.2479937
1.2479951
1.2479965
1.247998
1.2479995
1.2480011
1.2480027
1.2480044
1.2480062
1.248008
1.2480099
1.2480119
1.248014
1.2480161
1.2480183
1.2480206
1.248023
1.2480254
1.248028
1.2480307
1.2480334
1.2480363
1.2480393
1.2480423
1.2480455
1.2480488
1.2480523
1.2480558
1.2480595
1.2480634
1.2480673
1.2480715
1.2480757
1.2480802
1.2480848
1.2480895
1.2480945
1.2480996
1.2481049
1.2481104
1.2481161
1.248122
1.2481281
1.2481345
1.2481411
1.2481479
1.2481549
1.2481623
1.2481698
1.2481777
1.2481858
1.2481943
1.248203
1.2482121
1.2482214
1.2482311
1.2482412
1.2482516
1.2482624
1.2482736
1.2482852
1.2482971
1.2483096
1.2483224
1.2483357
1.2483495
1.2483638
1.2483785
1.2483938
1.2484096
1.248426
1.2484429
1.2484605
1.2484786
1.2484974
1.2485168
1.2485369
1.2485577
1.2485792
1.2486015
1.2486245
1.2486483
1.2486729
1.2486984
1.2487247
1.2487519
1.2487801
1.2488092
1.2488393
1.2488704
1.2489026
1.2489359
1.2489702
1.2490057
1.2490424
1.2490804
1.2491196
1.2491601
1.2492019
1.2492451
1.2492898
1.2493359
1.2493835
1.2494327
1.2494835
1.249536
1.2495901
1.249646
1.2497038
1.2497633
1.2498248
1.2498883
1.2499538
1.2500214
1.2500911
1.250163
1.2502373
1.2503138
1.2503927
1.2504741
1.2505581
1.2506446
1.2507338
1.2508258
1.2509206
1.2510183
1.251119
1.2512227
1.2513295
1.2514396
1.251553
1.2516697
1.2517899
1.2519137
1.2520411
1.2521722
1.2523072
1.2524461
1.252589
1.2527359
1.2528871
1.2530426
1.2532024
1.2533668
1.2535357
1.2537093
1.2538877
1.254071
1.2542592
1.2544526
1.2546511
1.2548549
1.2550641
1.2552788
1.2554991
1.2557251
1.2559569
1.2561946
1.2564382
1.256688
1.2569439
1.2572061
1.2574747
1.2577498
1.2580314
1.2583196
1.2586145
1.2589163
1.2592249
1.2595405
1.2598632
1.2601929
1.2605298
1.2608739
1.2612253
1.261584
1.2619501
1.2623236
1.2627045
1.263093
1.2634889
1.2638924
1.2643034
1.264722
1.2651481
1.2655817
1.2660229
1.2664715
1.2669276
1.2673911
1.267862
1.2683402
1.2688257
1.2693184
1.2698181
1.2703249
1.2708386
1.2713591
1.2718863
1.2724201
1.2729603
1.2735068
1.2740595
1.2746181
1.2751825
1.2757526
1.2763282
1.276909
1.2774949
1.2780857
1.278681
1.2792809
1.2798849
1.2804928
1.2811045
1.2817197
1.282338
1.2829594
1.2835834
1.2842099
1.2848385
1.285469
1.2861011
1.2867346
1.2873691
1.2880044
1.2886402
1.2892762
1.2899121
1.2905477
1.2911826
1.2918166
1.2924494
1.2930808
1.2937104
1.294338
1.2949633
1.2955861
1.2962062
1.2968231
1.2974369
1.298047
1.2986535
1.2992559
1.2998542
1.300448
1.3010372
1.3016216
1.3022009
1.3027751
1.3033439
1.3039072
1.3044648
1.3050165
1.3055622
1.3061018
1.3066351
1.307162
1.3076825
1.3081963
1.3087035
1.3092039
1.3096975
1.3101841
1.3106638
1.3111364
1.3116019
1.3120603
1.3125116
1.3129556
1.3133925
1.3138221
1.3142445
1.3146597
1.3150677
1.3154684
1.315862
1.3162484
1.3166276
1.3169998
1.3173649
1.3177229
1.318074
1.3184181
1.3187554
1.3190858
1.3194095
1.3197265
1.3200368
1.3203406
1.3206379
1.3209288
1.3212134
1.3214917
1.3217639
1.3220299
1.3222899
1.3225441
1.3227923
1.3230349
1.3232718
1.3235031
1.3237289
1.3239493
1.3241645
1.3243744
1.3245792
1.324779
1.3249739
1.3251639
1.3253492
1.3255299
1.3257059
1.3258775
1.3260447
1.3262076
1.3263663
1.3265208
1.3266714
1.3268179
1.3269606
1.3270996
1.3272348
1.3273664
1.3274944
1.3276191
1.3277403
1.3278582
1.3279729
1.3280845
1.328193
1.3282984
1.328401
1.3285007
1.3285976
1.3286918
1.3287833
1.3288722
1.3289587
1.3290426
1.3291242
1.3292034
1.3292804
1.3293551
1.3294277
1.3294981
1.3295665
1.329633
1.3296974
1.32976
1.3298208
1.3298797
1.3299369
1.3299924
1.3300463
1.3300986
1.3301493
1.3301984
1.3302462
1.3302924
1.3303373
1.3303808
1.330423
1.3304639
1.3305036
1.3305421
1.3305793
1.3306155
1.3306505
1.3306845
1.3307174
1.3307493
1.3307802
1.3308102
1.3308392
1.3308673
1.3308946
1.330921
1.3309465
1.3309713
1.3309953
1.3310185
1.331041
1.3310628
1.331084
1.3311044
1.3311242
1.3311434
1.3311619
1.3311799
1.3311973
1.3312142
1.3312305
1.3312463
1.3312615
1.3312763
1.3312906
1.3313045
1.3313179
1.3313309
1.3313435
1.3313556
1.3313674
1.3313788
1.3313898
1.3314004
1.3314107
1.3314207
1.3314304
1.3314397
1.3314487
1.3314575
1.3314659
1.3314741
1.331482
1.3314897
1.3314971
1.3315043
1.3315112
1.3315179
1.3315244
1.3315307
1.3315367
1.3315426
1.3315483
1.3315537
1.3315591
1.3315642
1.3315692
1.331574
1.3315786
1.3315831
1.3315874
1.3315916
1.3315957
1.3315996
1.3316034
1.3316071
1.3316107
1.3316141
1.3316175
1.3316207
1.3316238
1.3316268
1.3316297
1.3316326
1.3316353
1.3316379
1.3316405
1.331643
1.3316454
1.3316477
1.33165
1.3316521
1.3316542
1.3316563
1.3316583
1.3316602
1.331662
1.3316638
1.3316656
1.3316673
1.3316689
1.3316705
1.331672
1.3316735
1.3316749
1.3316763
1.3316777
1.331679
1.3316803
1.3316816
1.3316828
1.3316839
1.3316851
1.3316862
1.3316873
1.3316883
1.3316893
1.3316903
1.3316913
1.3316922
1.3316931
1.331694
1.3316949
1.3316957
1.3316966
1.3316974
1.3316982
1.3316989
1.3316997
1.3317004
1.3317011
1.3317018
1.3317025
1.3317032
1.3317038
1.3317045
1.3317051
1.3317058
1.3317064
1.331707
1.3317076
1.3317081
1.3317087
1.3317093
1.3317098
1.3317104
1.3317109
1.3317114
1.331712
1.3317125
1.331713
1.3317135
1.331714
1.3317145
1.331715
1.3317155
1.331716
1.3317164
1.3317169
1.3317174
1.3317179
1.3317183
1.3317188
1.3317193
1.3317197
1.3317202
1.3317206
1.3317211
1.3317216
1.331722
1.3317225
1.3317229
1.3317234
1.3317238
1.3317243
1.3317248
1.3317252
1.3317257
1.3317261
1.3317266
1.331727
1.3317275
1.331728
1.3317284
1.3317289
1.3317294
1.3317298
1.3317303
1.3317308
1.3317312
1.3317317
1.3317322
1.3317327
1.3317332
1.3317337
1.3317341
1.3317346
1.3317351
1.3317356
1.3317361
1.3317366
1.3317371
1.3317376
1.3317381
1.3317387
1.3317392
1.3317397
1.3317402
1.3317408
1.3317413
1.3317418
1.3317424
1.3317429
1.3317435
1.331744
1.3317446
1.3317451
1.3317457
1.3317463
1.3317468
1.3317474
1.331748
1.3317486
1.3317492
1.3317497
1.3317503
1.331751
1.3317516
1.3317522
1.3317528
1.3317534
1.331754
1.3317547
1.3317553
1.3317559
1.3317566
1.3317572
1.3317579
1.3317585
1.3317592
1.3317599
1.3317605
1.3317612
1.3317619
1.3317626
1.3317633
1.331764
1.3317647
1.3317654
1.3317661
1.3317668
1.3317675
1.3317683
1.331769
1.3317697
1.3317705
1.3317712
1.331772
1.3317727
1.3317735
1.3317743
1.331775
1.3317758
1.3317766
1.3317774
1.3317782
1.331779
1.3317798
1.3317806
1.3317814
1.3317823
1.3317831
1.3317839
1.3317848
1.3317856
1.3317865
1.3317873
1.3317882
1.3317891
1.3317899
1.3317908
1.3317917
1.3317926
1.3317935
1.3317944
1.3317953
1.3317962
1.3317971
1.331798
1.331799
1.3317999
1.3318009
1.3318018
1.3318028
1.3318037
1.3318047
1.3318056
1.3318066
1.3318076
1.3318086
1.3318096
1.3318106
1.3318116
1.3318126
1.3318136
1.3318146
1.3318157
1.3318167
1.3318177
1.3318188
1.3318198
1.3318209
1.3318219
1.331823
1.3318241
1.3318251
1.3318262
1.3318273
1.3318284
1.3318295
1.3318306
1.3318317
1.3318328
1.331834
1.3318351
1.3318362
1.3318374
1.3318385
1.3318397
1.3318408
1.331842
1.3318431
1.3318443
1.3318455
1.3318467
1.3318479
1.3318491
1.3318503
1.3318515
1.3318527
1.3318539
1.3318551
1.3318564
1.3318576
1.3318588
1.3318601
1.3318613
1.3318626
1.3318639
1.3318651
1.3318664
1.3318677
1.331869
1.3318703
1.3318716
1.3318729
1.3318742
1.3318755
1.3318768
1.3318781
1.3318794
1.3318808
1.3318821
1.3318835
1.3318848
1.3318862
1.3318875
1.3318889
1.3318903
1.3318916
1.331893
1.3318944
1.3318958
1.3318972
1.3318986
1.3319
1.3319014
1.3319029
1.3319043
1.3319057
1.3319072
1.3319086
1.33191
1.3319115
1.3319129
1.3319144
1.3319159
1.3319173
1.3319188
1.3319203
1.3319218
1.3319233
1.3319248
1.3319263
1.3319278
1.3319293
1.3319308
1.3319323
1.3319339
1.3319354
1.3319369
1.3319385
1.33194
1.3319416
1.3319431
1.3319447
1.3319463
1.3319479
1.3319494
1.331951
1.3319526
1.3319542
1.3319558
1.3319574
1.331959
1.3319606
1.3319623
1.3319639
1.3319655
1.3319671
1.3319688
1.3319704
1.3319721
1.3319737
1.3319754
1.3319771
1.3319787
1.3319804
1.3319821
1.3319838
1.3319855
1.3319872
1.3319889
1.3319906
1.3319923
1.331994
1.3319957
1.3319975
1.3319992
1.332001
1.3320027
1.3320044
1.3320062
1.332008
1.3320097
1.3320115
1.3320133
1.332015
1.3320168
1.3320186
1.3320204
1.3320222
1.332024
1.3320258
1.3320276
1.3320294
1.3320312
1.3320331
1.3320349
1.3320367
1.3320385
1.3320404
1.3320422
1.3320441
1.3320459
1.3320478
1.3320496
1.3320515
1.3320533
1.3320552
1.332057
1.3320589
1.3320608
1.3320627
1.3320645
1.3320664
1.3320683
1.3320702
1.332072
1.3320739
1.3320758
1.3320777
1.3320796
1.3320814
1.3320833
1.3320852
1.3320871
1.332089
1.3320908
1.3320927
1.3320946
1.3320965
1.3320983
1.3321002
1.3321021
1.332104
1.3321058
1.3321077
1.3321095
1.3321114
1.3321133
1.3321151
1.332117
1.3321188
1.3321207
1.3321225
1.3321243
1.3321262
1.332128
1.3321298
1.3321317
1.3321335
1.3321353
1.3321371
1.3321389
1.3321407
1.3321425
1.3321444
1.3321461
1.332148
1.3321497
1.3321515
1.3321533
1.3321551
1.3321569
1.3321587
1.3321604
1.3321622
1.332164
1.3321657
1.3321675
1.3321693
1.332171
1.3321728
1.3321745
1.3321763
1.3321781
1.3321798
1.3321816
1.3321833
1.3321851
1.3321868
1.3321886
1.3321903
1.3321921
1.3321938
1.3321956
1.3321973
1.3321991
1.3322008
1.3322026
1.3322043
1.3322061
1.3322079
1.3322096
1.3322114
1.3322131
1.3322149
1.3322167
1.3322184
1.3322202
1.3322219
1.3322237
1.3322255
1.3322273
1.332229
1.3322308
1.3322326
1.3322344
1.3322361
1.3322379
1.3322397
1.3322415
1.3322433
1.3322451
1.3322469
1.3322487
1.3322505
1.3322523
1.3322541
1.3322559
1.3322577
1.3322595
1.3322613
1.3322631
1.332265
1.3322668
1.3322686
1.3322704
1.3322723
1.3322741
1.3322759
1.3322777
1.3322796
1.3322814
1.3322832
1.3322851
1.3322869
1.3322888
1.3322906
1.3322925
1.3322943
1.3322962
1.332298
1.3322999
1.3323017
1.3323036
1.3323055
1.3323073
1.3323092
1.332311
1.3323129
1.3323148
1.3323166
1.3323185
1.3323204
1.3323222
1.3323241
1.332326
1.3323278
1.3323297
1.3323316
1.3323334
1.3323353
1.3323372
1.332339
1.3323409
1.3323428
1.3323447
1.3323465
1.3323484
1.3323503
1.3323521
1.332354
1.3323559
1.3323577
1.3323596
1.3323615
1.3323634
1.3323652
1.3323671
1.332369
1.3323708
1.3323727
1.3323746
1.3323764
1.3323783
1.3323802
1.332382
1.3323839
1.3323858
1.3323876
1.3323895
1.3323913
1.3323932
1.332395
1.3323969
1.3323988
1.3324006
1.3324025
1.3324043
1.3324062
1.332408
1.3324099
1.3324117
1.3324135
1.3324154
1.3324172
1.332419
1.3324209
1.3324227
1.3324245
1.3324264
1.3324282
1.33243
1.3324318
1.3324336
1.3324355
1.3324373
1.3324391
1.3324409
1.3324427
1.3324445
1.3324463
1.3324481
1.3324499
1.3324517
1.3324534
1.3324552
1.332457
1.3324588
1.3324605
1.3324623
1.3324641
1.3324658
1.3324676
1.3324693
1.3324711
1.3324728
1.3324746
1.3324763
1.332478
1.3324798
1.3324815
1.3324832
1.3324849
1.3324866
1.3324883
1.33249
1.3324917
1.3324934
1.3324951
1.3324968
1.3324985
1.3325002
1.3325018
1.3325035
1.3325052
1.3325068
1.3325085
1.3325101
1.3325118
1.3325134
1.332515
1.3325167
1.3325183
1.3325199
1.3325215
1.3325231
1.3325247
1.3325263
1.3325279
1.3325295
1.3325311
1.3325327
1.3325343
1.3325358
1.3325374
1.332539
1.3325405
1.3325421
1.3325436
1.3325452
1.3325467
1.3325483
1.3325498
1.3325513
1.3325529
1.3325544
1.3325559
1.3325575
1.332559
1.3325605
1.332562
1.3325636
1.3325651
1.3325666
1.3325681
1.3325696
1.3325711
1.3325726
1.3325742
1.3325757
1.3325772
1.3325787
1.3325802
1.3325817
1.3325832
1.3325847
1.3325862
1.3325877
1.3325892
1.3325907
1.3325922
1.3325937
1.3325952
1.3325967
1.3325982
1.3325997
1.3326013
1.3326028
1.3326043
1.3326058
1.3326073
1.3326088
1.3326103
1.3326118
1.3326133
1.3326148
1.3326163
1.3326178
1.3326193
1.3326208
1.3326223
1.3326238
1.3326253
1.3326268
1.3326283
1.3326298
1.3326312
1.3326327
1.3326342
1.3326357
1.3326371
1.3326386
1.3326401
1.3326415
1.332643
1.3326445
1.3326459
1.3326474
1.3326488
1.3326502
1.3326517
1.3326531
1.3326545
1.3326559
1.3326573
1.3326587
1.3326601
1.3326615
1.3326629
1.3326643
1.3326657
1.3326671
1.3326685
1.3326698
1.3326712
1.3326725
1.3326739
1.3326752
1.3326766
1.3326779
1.3326793
1.3326806
1.3326819
1.3326832
1.3326846
1.3326859
1.3326872
1.3326885
1.3326898
1.3326911
1.3326924
1.3326937
1.332695
1.3326962
1.3326975
1.3326988
1.3327
1.3327013
1.3327026
1.3327038
1.3327051
1.3327063
1.3327075
1.3327088
1.33271
1.3327112
1.3327124
1.3327137
1.3327149
1.3327161
1.3327173
1.3327184
1.3327196
1.3327208
1.332722
1.3327231
1.3327243
1.3327254
1.3327266
1.3327277
1.3327288
1.33273
1.3327311
1.3327322
1.3327333
1.3327344
1.3327355
1.3327366
1.3327377
1.3327387
1.3327398
1.3327408
1.3327418
1.3327429
1.3327439
1.3327449
1.3327459
1.3327469
1.3327479
1.3327489
1.3327498
1.3327508
1.3327518
1.3327527
1.3327536
1.3327546
1.3327555
1.3327564
1.3327573
1.3327582
1.3327591
1.33276
1.3327608
1.3327617
1.3327625
1.3327633
1.3327642
1.332765
1.3327658
1.3327666
1.3327674
1.3327681
1.3327689
1.3327697
1.3327704
1.3327711
1.3327719
1.3327726
1.3327733
1.332774
1.3327747
1.3327753
1.332776
1.3327767
1.3327773
1.3327779
1.3327786
1.3327792
1.3327798
1.3327804
1.332781
1.3327816
1.3327822
1.3327827
1.3327833
1.3327839
1.3327844
1.3327849
1.3327855
1.332786
1.3327865
1.332787
1.3327875
1.332788
1.3327884
1.3327889
1.3327894
1.3327898
1.3327902
1.3327907
1.3327911
1.3327915
1.3327919
1.3327923
1.3327927
1.3327931
1.3327935
1.3327938
1.3327942
1.3327946
1.3327949
1.3327952
1.3327956
1.3327959
1.3327962
1.3327965
1.3327968
1.3327971
1.3327974
1.3327976
1.3327979
1.3327982
1.3327984
1.3327987
1.3327989
1.3327991
1.3327993
1.3327996
1.3327998
1.3328
1.3328001
1.3328003
1.3328005
1.3328007
1.3328008
1.332801
1.3328011
1.3328013
1.3328014
1.3328016
1.3328017
1.3328018
1.3328019
1.332802
1.3328021
1.3328022
1.3328022
1.3328023
1.3328024
1.3328025
1.3328025
1.3328026
1.3328026
1.3328026
1.3328026
1.3328027
1.3328027
1.3328027
1.3328028
1.3328028
1.3328028
1.3328028
1.3328028
1.3328028
1.3328028
1.3328028
1.3328028
1.3328028
1.3328028
1.3328028
1.3328028
1.3328029
1.3328029
1.332803
1.332803
1.3328031
1.3328032
1.3328034
1.3328036
1.3328037
1.3328039
1.3328042
1.3328045
1.3328049
1.3328053
1.3328057
1.3328061
1.3328066
1.3328071
1.3328077
1.3328084
1.3328091
1.3328098
1.3328106
1.3328113
1.3328122
1.332813
1.3328138
1.3328147
1.3328156
1.3328165
1.3328174
1.3328183
1.3328191
1.3328199
1.3328207
1.3328214
1.3328221
1.3328228
1.3328233
1.3328238
1.3328242
1.3328245
1.3328248
1.332825
1.3328253
1.3328254
1.3328256
1.3328258
1.3328259
1.3328261
1.3328264
1.3328266
1.332827
1.3328273
1.3328278
1.3328284
1.332829
1.3328298
1.3328306
1.3328315
1.3328324
1.332833
1.3328329
1.3328314
1.332827
1.3328175
1.3327987
1.3327642
1.3327036
1.3326014
1.3324352
1.3321738
1.3317769
1.3311951
1.3303725
1.3292518
1.327782
1.3259274
1.3236766
1.3210475
1.3180866
1.3148622
1.3114512
1.3079272
1.3043519
1.300775
1.2972408
1.2937958
1.2904902
1.2873716
1.2844749
1.2818173
1.2794021
1.2772278
1.2752939
1.2735981
1.2721295
1.270868
1.2697913
1.2688817
1.2681242
1.2675012
1.2669911
1.2665752
1.266241
1.2659774
1.2657709
1.2656087
1.2654832
1.2653894
1.2653201
1.2652681
1.2652302
1.265205
1.265189
1.2651779
1.2651716
1.265171
1.2651722
1.2651742
1.2651797
1.2651857
1.265191
1.2651984
1.2652059
1.2652131
1.2652216
1.2652294
1.2652377
1.2652468
1.2652546
1.2652633
1.2652727
1.2652809
1.2652899
1.2652996
1.2653084
1.2653185
1.2653277
1.2653382
1.2653476
1.2653585
1.2653684
1.2653797
1.2653898
1.2654015
1.2654122
1.2654239
1.2654352
1.2654469
1.2654587
1.2654706
1.2654827
1.2654949
1.2655072
1.2655197
1.2655322
1.2655449
1.2655577
1.2655706
1.2655837
1.2655969
1.2656102
1.2656237
1.2656373
1.265651
1.265665
1.2656791
1.2656933
1.2657077
1.2657224
1.2657372
1.2657521
1.2657673
1.2657827
1.2657982
1.265814
1.26583
1.2658462
1.2658627
1.2658793
1.2658962
1.2659133
1.2659306
1.2659482
1.265966
1.2659841
1.2660024
1.266021
1.2660398
1.2660589
1.2660782
1.2660978
1.2661176
1.2661377
1.2661581
1.2661788
1.2661997
1.2662209
1.2662424
1.2662642
1.2662862
1.2663086
1.2663312
1.2663541
1.2663774
1.2664009
1.2664247
1.2664488
1.2664732
1.266498
1.266523
1.2665483
1.266574
1.2666
1.2666263
1.2666529
1.2666799
1.2667071
1.2667347
1.2667626
1.2667909
1.2668195
1.2668484
1.2668777
1.2669073
1.2669372
1.2669675
1.2669982
1.2670292
1.2670605
1.2670922
1.2671242
1.2671566
1.2671894
1.2672225
1.267256
1.2672899
1.2673241
1.2673587
1.2673937
1.267429
1.2674647
1.2675008
1.2675372
1.2675741
1.2676113
1.2676489
1.2676869
1.2677252
1.267764
1.2678031
1.2678427
1.2678826
1.2679229
1.2679636
1.2680047
1.2680462
1.2680881
1.2681304
1.2681731
1.2682162
1.2682598
1.2683037
1.268348
1.2683927
1.2684379
1.2684834
1.2685293
1.2685757
1.2686225
1.2686697
1.2687173
1.2687653
1.2688138
1.2688626
1.2689119
1.2689616