/*--------------------------------*- C++ -*----------------------------------*\
  =========                 |
  \\      /  F ield         | OpenFOAM: The Open Source CFD Toolbox
   \\    /   O peration     | Website:  https://openfoam.org
    \\  /    A nd           | Version:  7
     \\/     M anipulation  |
\*---------------------------------------------------------------------------*/
FoamFile
{
    version     2.0;
    format      ascii;
    class       surfaceScalarField;
    location    "0.00287";
    object      phi;
}
// * * * * * * * * * * * * * * * * * * * * * * * * * * * * * * * * * * * * * //

dimensions      [1 0 -1 0 0 0 0];

internalField   nonuniform List<scalar> 
4999
(
0.0037655445
0.0037655288
0.0037655143
0.0037654995
0.0037654846
0.0037654695
0.0037654544
0.0037654391
0.0037654237
0.0037654084
0.003765393
0.0037653775
0.0037653621
0.0037653467
0.0037653313
0.0037653159
0.0037653005
0.0037652851
0.0037652698
0.0037652544
0.0037652391
0.0037652238
0.0037652085
0.0037651932
0.003765178
0.0037651628
0.0037651475
0.0037651324
0.0037651172
0.0037651021
0.003765087
0.003765072
0.003765057
0.003765042
0.0037650271
0.0037650123
0.0037649975
0.0037649828
0.0037649682
0.0037649537
0.0037649392
0.0037649248
0.0037649105
0.0037648963
0.0037648822
0.0037648682
0.0037648544
0.0037648406
0.0037648269
0.0037648133
0.0037647998
0.0037647864
0.0037647731
0.0037647599
0.0037647468
0.0037647337
0.0037647208
0.0037647079
0.0037646952
0.0037646825
0.0037646698
0.0037646573
0.0037646448
0.0037646323
0.00376462
0.0037646077
0.0037645954
0.0037645832
0.003764571
0.0037645589
0.0037645468
0.0037645348
0.0037645228
0.0037645108
0.0037644989
0.003764487
0.0037644752
0.0037644634
0.0037644516
0.0037644398
0.0037644281
0.0037644164
0.0037644048
0.0037643931
0.0037643816
0.00376437
0.0037643584
0.0037643469
0.0037643354
0.003764324
0.0037643126
0.0037643012
0.0037642898
0.0037642785
0.0037642671
0.0037642559
0.0037642446
0.0037642334
0.0037642222
0.003764211
0.0037641998
0.0037641887
0.0037641776
0.0037641666
0.0037641555
0.0037641445
0.0037641335
0.0037641226
0.0037641116
0.0037641007
0.0037640899
0.003764079
0.0037640682
0.0037640574
0.0037640466
0.0037640359
0.0037640252
0.0037640145
0.0037640039
0.0037639932
0.0037639826
0.003763972
0.0037639615
0.003763951
0.0037639405
0.00376393
0.0037639195
0.0037639091
0.0037638987
0.0037638883
0.003763878
0.0037638677
0.0037638574
0.0037638471
0.0037638368
0.0037638266
0.0037638164
0.0037638062
0.0037637961
0.0037637859
0.0037637758
0.0037637657
0.0037637557
0.0037637456
0.0037637356
0.0037637256
0.0037637156
0.0037637056
0.0037636957
0.0037636858
0.0037636759
0.003763666
0.0037636561
0.0037636463
0.0037636364
0.0037636266
0.0037636168
0.003763607
0.0037635973
0.0037635875
0.0037635778
0.003763568
0.0037635583
0.0037635486
0.0037635389
0.0037635293
0.0037635196
0.00376351
0.0037635003
0.0037634907
0.0037634811
0.0037634715
0.0037634619
0.0037634524
0.0037634428
0.0037634332
0.0037634237
0.0037634142
0.0037634046
0.0037633951
0.0037633856
0.0037633761
0.0037633666
0.0037633572
0.0037633477
0.0037633382
0.0037633288
0.0037633193
0.0037633099
0.0037633005
0.0037632911
0.0037632817
0.0037632722
0.0037632629
0.0037632535
0.0037632441
0.0037632347
0.0037632253
0.003763216
0.0037632066
0.0037631972
0.0037631879
0.0037631785
0.0037631692
0.0037631599
0.0037631505
0.0037631412
0.0037631319
0.0037631226
0.0037631133
0.003763104
0.0037630947
0.0037630854
0.0037630761
0.0037630668
0.0037630575
0.0037630483
0.003763039
0.0037630297
0.0037630205
0.0037630112
0.003763002
0.0037629927
0.0037629835
0.0037629743
0.003762965
0.0037629558
0.0037629466
0.0037629374
0.0037629282
0.003762919
0.0037629098
0.0037629006
0.0037628914
0.0037628823
0.0037628731
0.0037628639
0.0037628548
0.0037628457
0.0037628365
0.0037628274
0.0037628183
0.0037628092
0.0037628001
0.003762791
0.003762782
0.0037627729
0.0037627639
0.0037627548
0.0037627458
0.0037627368
0.0037627277
0.0037627187
0.0037627098
0.0037627008
0.0037626918
0.0037626829
0.0037626739
0.003762665
0.0037626561
0.0037626472
0.0037626383
0.0037626294
0.0037626205
0.0037626117
0.0037626028
0.003762594
0.0037625852
0.0037625764
0.0037625676
0.0037625589
0.0037625501
0.0037625414
0.0037625327
0.0037625239
0.0037625153
0.0037625066
0.0037624979
0.0037624893
0.0037624807
0.0037624721
0.0037624635
0.0037624549
0.0037624464
0.0037624379
0.0037624294
0.0037624209
0.0037624124
0.0037624039
0.0037623955
0.0037623871
0.0037623787
0.0037623703
0.003762362
0.0037623536
0.0037623453
0.003762337
0.0037623287
0.0037623205
0.0037623122
0.003762304
0.0037622958
0.0037622877
0.0037622795
0.0037622714
0.0037622633
0.0037622552
0.0037622472
0.0037622392
0.0037622312
0.0037622232
0.0037622152
0.0037622073
0.0037621994
0.0037621915
0.0037621837
0.0037621759
0.0037621681
0.0037621603
0.0037621526
0.0037621448
0.0037621372
0.0037621295
0.0037621219
0.0037621143
0.0037621067
0.0037620992
0.0037620917
0.0037620842
0.0037620767
0.0037620693
0.0037620619
0.0037620545
0.0037620472
0.0037620399
0.0037620326
0.0037620254
0.0037620182
0.003762011
0.0037620038
0.0037619967
0.0037619896
0.0037619826
0.0037619756
0.0037619686
0.0037619617
0.0037619548
0.0037619479
0.003761941
0.0037619342
0.0037619274
0.0037619207
0.003761914
0.0037619073
0.0037619006
0.003761894
0.0037618875
0.0037618809
0.0037618744
0.0037618679
0.0037618615
0.0037618551
0.0037618487
0.0037618424
0.0037618361
0.0037618298
0.0037618236
0.0037618174
0.0037618112
0.0037618051
0.003761799
0.0037617929
0.0037617869
0.0037617809
0.003761775
0.003761769
0.0037617631
0.0037617573
0.0037617515
0.0037617457
0.0037617399
0.0037617342
0.0037617285
0.0037617229
0.0037617173
0.0037617117
0.0037617061
0.0037617006
0.0037616951
0.0037616897
0.0037616843
0.0037616789
0.0037616735
0.0037616682
0.0037616629
0.0037616577
0.0037616525
0.0037616473
0.0037616421
0.003761637
0.0037616319
0.0037616268
0.0037616218
0.0037616168
0.0037616118
0.0037616069
0.0037616019
0.0037615971
0.0037615922
0.0037615874
0.0037615826
0.0037615778
0.003761573
0.0037615683
0.0037615636
0.0037615589
0.0037615543
0.0037615497
0.0037615452
0.0037615408
0.0037615363
0.0037615318
0.0037615274
0.003761523
0.0037615186
0.0037615143
0.00376151
0.0037615057
0.0037615014
0.0037614972
0.003761493
0.0037614888
0.0037614847
0.0037614806
0.0037614765
0.0037614724
0.0037614684
0.0037614643
0.0037614603
0.0037614563
0.0037614524
0.0037614485
0.0037614446
0.0037614407
0.0037614368
0.003761433
0.0037614292
0.0037614254
0.0037614217
0.0037614179
0.0037614142
0.0037614106
0.0037614069
0.0037614033
0.0037613997
0.0037613961
0.0037613926
0.003761389
0.0037613855
0.003761382
0.0037613786
0.0037613751
0.0037613717
0.0037613683
0.0037613649
0.0037613616
0.0037613583
0.0037613549
0.0037613517
0.0037613484
0.0037613452
0.003761342
0.0037613388
0.0037613356
0.0037613325
0.0037613293
0.0037613262
0.0037613232
0.0037613201
0.0037613171
0.0037613141
0.0037613111
0.0037613081
0.0037613052
0.0037613023
0.0037612994
0.0037612966
0.0037612937
0.0037612909
0.0037612881
0.0037612854
0.0037612826
0.0037612799
0.0037612772
0.0037612745
0.0037612719
0.0037612693
0.0037612667
0.0037612641
0.0037612615
0.003761259
0.0037612565
0.003761254
0.0037612515
0.0037612491
0.0037612467
0.0037612443
0.0037612419
0.0037612395
0.0037612372
0.0037612349
0.0037612326
0.0037612304
0.0037612281
0.0037612259
0.0037612237
0.0037612216
0.0037612194
0.0037612173
0.0037612152
0.0037612131
0.0037612111
0.0037612091
0.0037612071
0.0037612051
0.0037612031
0.0037612011
0.0037611992
0.0037611973
0.0037611955
0.0037611936
0.0037611918
0.00376119
0.0037611882
0.0037611865
0.0037611848
0.0037611831
0.0037611814
0.0037611797
0.0037611781
0.0037611765
0.003761175
0.0037611734
0.0037611719
0.0037611704
0.003761169
0.0037611676
0.0037611662
0.0037611649
0.0037611636
0.0037611623
0.0037611611
0.0037611599
0.0037611587
0.0037611576
0.0037611565
0.0037611554
0.0037611544
0.0037611534
0.0037611524
0.0037611515
0.0037611506
0.0037611497
0.0037611489
0.0037611481
0.0037611473
0.0037611466
0.0037611459
0.0037611452
0.0037611446
0.0037611441
0.0037611435
0.003761143
0.0037611426
0.0037611422
0.0037611418
0.0037611414
0.0037611411
0.0037611409
0.0037611407
0.0037611405
0.0037611404
0.0037611403
0.0037611402
0.0037611402
0.0037611402
0.0037611403
0.0037611404
0.0037611406
0.0037611408
0.003761141
0.0037611413
0.0037611417
0.003761142
0.0037611425
0.003761143
0.0037611435
0.003761144
0.0037611447
0.0037611453
0.003761146
0.0037611468
0.0037611476
0.0037611484
0.0037611493
0.0037611503
0.0037611513
0.0037611524
0.0037611535
0.0037611546
0.0037611559
0.0037611571
0.0037611584
0.0037611598
0.0037611612
0.0037611627
0.0037611643
0.0037611658
0.0037611675
0.0037611692
0.003761171
0.0037611728
0.0037611746
0.0037611765
0.0037611785
0.0037611806
0.0037611826
0.0037611848
0.003761187
0.0037611892
0.0037611915
0.0037611939
0.0037611963
0.0037611988
0.0037612013
0.0037612039
0.0037612065
0.0037612092
0.0037612119
0.0037612147
0.0037612176
0.0037612205
0.0037612235
0.0037612265
0.0037612296
0.0037612327
0.0037612359
0.0037612391
0.0037612425
0.0037612458
0.0037612492
0.0037612527
0.0037612562
0.0037612598
0.0037612634
0.0037612671
0.0037612709
0.0037612747
0.0037612785
0.0037612824
0.0037612864
0.0037612904
0.0037612945
0.0037612986
0.0037613028
0.003761307
0.0037613113
0.0037613157
0.0037613201
0.0037613245
0.003761329
0.0037613336
0.0037613382
0.0037613429
0.0037613476
0.0037613524
0.0037613572
0.0037613621
0.0037613671
0.0037613721
0.0037613771
0.0037613822
0.0037613874
0.0037613926
0.0037613979
0.0037614032
0.0037614085
0.0037614139
0.0037614194
0.0037614249
0.0037614305
0.0037614361
0.0037614417
0.0037614475
0.0037614532
0.003761459
0.0037614649
0.0037614708
0.0037614767
0.0037614827
0.0037614888
0.0037614948
0.003761501
0.0037615071
0.0037615134
0.0037615196
0.0037615259
0.0037615323
0.0037615387
0.0037615451
0.0037615516
0.0037615581
0.0037615647
0.0037615713
0.0037615779
0.0037615846
0.0037615913
0.0037615981
0.0037616049
0.0037616118
0.0037616187
0.0037616256
0.0037616326
0.0037616396
0.0037616467
0.0037616538
0.003761661
0.0037616682
0.0037616754
0.0037616827
0.00376169
0.0037616974
0.0037617048
0.0037617122
0.0037617196
0.0037617272
0.0037617347
0.0037617423
0.0037617499
0.0037617576
0.0037617653
0.003761773
0.0037617808
0.0037617886
0.0037617964
0.0037618043
0.0037618122
0.0037618202
0.0037618282
0.0037618362
0.0037618442
0.0037618523
0.0037618604
0.0037618686
0.0037618767
0.0037618849
0.0037618932
0.0037619015
0.0037619098
0.0037619181
0.0037619265
0.0037619349
0.0037619433
0.0037619518
0.0037619603
0.0037619688
0.0037619774
0.003761986
0.0037619946
0.0037620033
0.003762012
0.0037620207
0.0037620295
0.0037620383
0.0037620471
0.003762056
0.0037620649
0.0037620739
0.0037620828
0.0037620918
0.0037621009
0.0037621099
0.003762119
0.0037621282
0.0037621374
0.0037621466
0.0037621558
0.0037621651
0.0037621744
0.0037621838
0.0037621932
0.0037622026
0.0037622121
0.0037622216
0.0037622311
0.0037622407
0.0037622503
0.00376226
0.0037622696
0.0037622794
0.0037622891
0.0037622989
0.0037623088
0.0037623187
0.0037623286
0.0037623386
0.0037623486
0.0037623586
0.0037623687
0.0037623788
0.0037623889
0.0037623991
0.0037624093
0.0037624196
0.0037624299
0.0037624402
0.0037624506
0.003762461
0.0037624715
0.003762482
0.0037624925
0.0037625031
0.0037625137
0.0037625243
0.003762535
0.0037625458
0.0037625565
0.0037625673
0.0037625782
0.0037625891
0.0037626
0.003762611
0.003762622
0.003762633
0.0037626441
0.0037626553
0.0037626664
0.0037626776
0.0037626889
0.0037627001
0.0037627115
0.003762723
0.0037627346
0.0037627463
0.0037627579
0.0037627696
0.0037627814
0.0037627932
0.003762805
0.0037628169
0.0037628288
0.0037628408
0.0037628528
0.0037628649
0.003762877
0.0037628892
0.0037629015
0.0037629137
0.0037629261
0.0037629385
0.003762951
0.0037629635
0.003762976
0.0037629886
0.0037630013
0.003763014
0.0037630268
0.0037630397
0.0037630525
0.0037630655
0.0037630785
0.0037630916
0.0037631047
0.0037631179
0.0037631311
0.0037631444
0.0037631578
0.0037631712
0.0037631847
0.0037631982
0.0037632118
0.0037632254
0.0037632391
0.0037632529
0.0037632667
0.0037632806
0.0037632945
0.0037633085
0.0037633226
0.0037633367
0.0037633509
0.0037633651
0.0037633794
0.0037633937
0.0037634081
0.0037634226
0.0037634371
0.0037634516
0.0037634663
0.0037634809
0.0037634957
0.0037635104
0.0037635253
0.0037635402
0.0037635551
0.0037635701
0.0037635852
0.0037636003
0.0037636154
0.0037636306
0.0037636459
0.0037636612
0.0037636766
0.003763692
0.0037637075
0.003763723
0.0037637386
0.0037637542
0.0037637699
0.0037637857
0.0037638014
0.0037638173
0.0037638332
0.0037638491
0.0037638651
0.0037638811
0.0037638972
0.0037639134
0.0037639295
0.0037639458
0.0037639621
0.0037639784
0.0037639948
0.0037640112
0.0037640277
0.0037640442
0.0037640608
0.0037640774
0.003764094
0.0037641107
0.0037641275
0.0037641443
0.0037641612
0.0037641781
0.003764195
0.003764212
0.0037642291
0.0037642461
0.0037642633
0.0037642805
0.0037642977
0.003764315
0.0037643323
0.0037643496
0.003764367
0.0037643845
0.003764402
0.0037644195
0.0037644371
0.0037644548
0.0037644724
0.0037644902
0.003764508
0.0037645258
0.0037645437
0.0037645616
0.0037645796
0.0037645976
0.0037646157
0.0037646338
0.003764652
0.0037646702
0.0037646885
0.0037647068
0.0037647252
0.0037647436
0.0037647621
0.0037647807
0.0037647993
0.003764818
0.0037648367
0.0037648555
0.0037648743
0.0037648933
0.0037649122
0.0037649313
0.0037649503
0.0037649695
0.0037649887
0.0037650079
0.0037650273
0.0037650466
0.0037650661
0.0037650856
0.0037651052
0.0037651249
0.0037651446
0.0037651644
0.0037651841
0.0037652037
0.0037652235
0.0037652434
0.0037652633
0.0037652833
0.0037653034
0.0037653236
0.0037653438
0.0037653641
0.0037653845
0.0037654049
0.0037654254
0.0037654459
0.0037654665
0.0037654872
0.003765508
0.0037655289
0.0037655499
0.003765571
0.0037655921
0.0037656133
0.0037656346
0.0037656559
0.0037656773
0.0037656987
0.0037657201
0.0037657416
0.0037657631
0.0037657847
0.0037658063
0.003765828
0.0037658497
0.0037658714
0.0037658933
0.0037659152
0.0037659372
0.0037659593
0.0037659815
0.0037660037
0.0037660261
0.0037660485
0.0037660709
0.0037660934
0.0037661159
0.0037661384
0.0037661609
0.0037661835
0.0037662063
0.0037662291
0.0037662519
0.0037662749
0.003766298
0.0037663212
0.0037663444
0.0037663677
0.0037663912
0.0037664147
0.0037664383
0.003766462
0.0037664857
0.0037665096
0.0037665335
0.0037665575
0.0037665816
0.0037666058
0.00376663
0.0037666544
0.0037666788
0.0037667033
0.0037667279
0.0037667525
0.0037667773
0.0037668021
0.003766827
0.003766852
0.0037668771
0.0037669023
0.0037669276
0.0037669529
0.0037669784
0.0037670039
0.0037670295
0.0037670551
0.0037670809
0.0037671067
0.0037671326
0.0037671586
0.0037671847
0.0037672109
0.0037672372
0.0037672635
0.00376729
0.0037673165
0.0037673431
0.0037673698
0.0037673966
0.0037674235
0.0037674504
0.0037674774
0.0037675044
0.0037675316
0.0037675588
0.003767586
0.0037676133
0.0037676406
0.003767668
0.0037676955
0.003767723
0.0037677505
0.0037677781
0.0037678058
0.0037678336
0.0037678614
0.0037678893
0.0037679173
0.0037679454
0.0037679736
0.0037680018
0.0037680302
0.0037680586
0.0037680871
0.0037681156
0.0037681443
0.003768173
0.0037682018
0.0037682306
0.0037682596
0.0037682886
0.0037683177
0.0037683469
0.0037683761
0.0037684055
0.0037684349
0.0037684643
0.0037684939
0.0037685236
0.0037685533
0.0037685831
0.003768613
0.0037686429
0.003768673
0.0037687031
0.0037687333
0.0037687636
0.003768794
0.0037688245
0.0037688551
0.0037688858
0.0037689166
0.0037689475
0.0037689784
0.0037690095
0.0037690406
0.0037690719
0.0037691033
0.0037691347
0.0037691663
0.0037691979
0.0037692297
0.0037692615
0.0037692935
0.0037693255
0.0037693577
0.0037693899
0.0037694223
0.0037694547
0.0037694873
0.0037695199
0.0037695527
0.0037695855
0.0037696185
0.0037696515
0.0037696847
0.003769718
0.0037697513
0.0037697848
0.0037698184
0.0037698521
0.0037698859
0.0037699198
0.0037699539
0.003769988
0.0037700222
0.0037700566
0.0037700911
0.0037701257
0.0037701604
0.0037701952
0.0037702301
0.0037702651
0.0037703003
0.0037703355
0.0037703709
0.0037704064
0.0037704421
0.0037704778
0.0037705137
0.0037705497
0.0037705858
0.003770622
0.0037706584
0.0037706949
0.0037707315
0.0037707682
0.003770805
0.003770842
0.0037708791
0.0037709164
0.0037709538
0.0037709913
0.0037710289
0.0037710667
0.0037711046
0.0037711426
0.0037711808
0.0037712191
0.0037712576
0.0037712962
0.0037713349
0.0037713738
0.0037714128
0.003771452
0.0037714913
0.0037715307
0.0037715703
0.00377161
0.0037716499
0.0037716899
0.0037717301
0.0037717704
0.0037718108
0.0037718515
0.0037718922
0.0037719331
0.0037719742
0.0037720154
0.0037720568
0.0037720984
0.00377214
0.0037721819
0.0037722239
0.0037722661
0.0037723084
0.0037723509
0.0037723936
0.0037724364
0.0037724793
0.0037725225
0.0037725658
0.0037726093
0.0037726529
0.0037726967
0.0037727407
0.0037727848
0.0037728292
0.0037728736
0.0037729183
0.0037729631
0.0037730081
0.0037730533
0.0037730986
0.0037731442
0.0037731899
0.0037732358
0.0037732818
0.0037733281
0.0037733745
0.0037734211
0.0037734679
0.0037735149
0.003773562
0.0037736094
0.0037736569
0.0037737046
0.0037737525
0.0037738006
0.0037738489
0.0037738974
0.0037739461
0.0037739949
0.003774044
0.0037740933
0.0037741427
0.0037741924
0.0037742422
0.0037742923
0.0037743425
0.003774393
0.0037744436
0.0037744945
0.0037745456
0.0037745968
0.0037746483
0.0037747
0.0037747519
0.003774804
0.0037748563
0.0037749089
0.0037749616
0.0037750146
0.0037750678
0.0037751212
0.0037751748
0.0037752287
0.0037752827
0.003775337
0.0037753915
0.0037754463
0.0037755013
0.0037755565
0.0037756119
0.0037756676
0.0037757235
0.0037757796
0.003775836
0.0037758926
0.0037759494
0.0037760065
0.0037760639
0.0037761214
0.0037761793
0.0037762373
0.0037762957
0.0037763542
0.0037764131
0.0037764721
0.0037765315
0.0037765911
0.0037766509
0.0037767111
0.0037767714
0.0037768321
0.003776893
0.0037769542
0.0037770156
0.0037770774
0.0037771394
0.0037772017
0.0037772642
0.0037773271
0.0037773902
0.0037774536
0.0037775173
0.0037775813
0.0037776456
0.0037777101
0.003777775
0.0037778401
0.0037779056
0.0037779714
0.0037780374
0.0037781038
0.0037781705
0.0037782375
0.0037783048
0.0037783725
0.0037784404
0.0037785087
0.0037785773
0.0037786462
0.0037787155
0.0037787851
0.0037788551
0.0037789253
0.003778996
0.0037790669
0.0037791382
0.0037792099
0.0037792819
0.0037793543
0.003779427
0.0037795001
0.0037795736
0.0037796474
0.0037797217
0.0037797963
0.0037798712
0.0037799466
0.0037800223
0.0037800985
0.003780175
0.0037802519
0.0037803293
0.003780407
0.0037804852
0.0037805638
0.0037806428
0.0037807222
0.003780802
0.0037808823
0.003780963
0.0037810442
0.0037811258
0.0037812078
0.0037812904
0.0037813733
0.0037814568
0.0037815407
0.003781625
0.0037817099
0.0037817952
0.0037818811
0.0037819674
0.0037820542
0.0037821415
0.0037822294
0.0037823178
0.0037824066
0.0037824961
0.003782586
0.0037826765
0.0037827676
0.0037828591
0.0037829513
0.003783044
0.0037831373
0.0037832312
0.0037833256
0.0037834207
0.0037835163
0.0037836126
0.0037837094
0.0037838069
0.003783905
0.0037840037
0.0037841031
0.0037842032
0.0037843038
0.0037844052
0.0037845072
0.0037846099
0.0037847133
0.0037848174
0.0037849222
0.0037850277
0.0037851339
0.0037852409
0.0037853486
0.003785457
0.0037855662
0.0037856762
0.0037857869
0.0037858985
0.0037860108
0.0037861239
0.0037862378
0.0037863526
0.0037864682
0.0037865846
0.0037867019
0.00378682
0.003786939
0.0037870589
0.0037871796
0.0037873013
0.0037874239
0.0037875474
0.0037876719
0.0037877973
0.0037879236
0.0037880509
0.0037881792
0.0037883085
0.0037884388
0.0037885701
0.0037887024
0.0037888358
0.0037889702
0.0037891056
0.0037892422
0.0037893798
0.0037895185
0.0037896583
0.0037897992
0.0037899413
0.0037900845
0.0037902289
0.0037903744
0.0037905211
0.0037906691
0.0037908182
0.0037909686
0.0037911202
0.003791273
0.0037914271
0.0037915825
0.0037917392
0.0037918971
0.0037920564
0.003792217
0.003792379
0.0037925423
0.003792707
0.0037928731
0.0037930406
0.0037932095
0.0037933798
0.0037935515
0.0037937248
0.0037938995
0.0037940756
0.0037942533
0.0037944325
0.0037946133
0.0037947956
0.0037949794
0.0037951648
0.0037953518
0.0037955405
0.0037957307
0.0037959226
0.0037961161
0.0037963113
0.0037965082
0.0037967068
0.0037969071
0.0037971092
0.0037973129
0.0037975185
0.0037977258
0.0037979349
0.0037981458
0.0037983586
0.0037985732
0.0037987896
0.003799008
0.0037992282
0.0037994503
0.0037996744
0.0037999003
0.0038001283
0.0038003582
0.0038005901
0.003800824
0.0038010599
0.0038012979
0.0038015379
0.00380178
0.0038020241
0.0038022704
0.0038025188
0.0038027693
0.003803022
0.0038032769
0.0038035339
0.0038037932
0.0038040546
0.0038043183
0.0038045843
0.0038048525
0.003805123
0.0038053959
0.003805671
0.0038059485
0.0038062283
0.0038065106
0.0038067952
0.0038070822
0.0038073716
0.0038076635
0.0038079579
0.0038082547
0.0038085541
0.0038088559
0.0038091603
0.0038094672
0.0038097767
0.0038100888
0.0038104035
0.0038107208
0.0038110407
0.0038113633
0.0038116886
0.0038120165
0.0038123472
0.0038126806
0.0038130168
0.0038133557
0.0038136974
0.0038140419
0.0038143892
0.0038147394
0.0038150924
0.0038154482
0.003815807
0.0038161687
0.0038165333
0.0038169009
0.0038172715
0.003817645
0.0038180215
0.0038184011
0.0038187837
0.0038191694
0.0038195581
0.00381995
0.003820345
0.0038207431
0.0038211444
0.0038215489
0.0038219566
0.0038223675
0.0038227816
0.003823199
0.0038236197
0.0038240437
0.0038244711
0.0038249017
0.0038253358
0.0038257732
0.0038262141
0.0038266584
0.0038271061
0.0038275573
0.003828012
0.0038284703
0.0038289321
0.0038293974
0.0038298664
0.0038303389
0.0038308151
0.003831295
0.0038317785
0.0038322658
0.0038327568
0.0038332515
0.0038337501
0.0038342524
0.0038347586
0.0038352687
0.0038357826
0.0038363004
0.0038368222
0.003837348
0.0038378777
0.0038384115
0.0038389493
0.0038394913
0.0038400373
0.0038405875
0.0038411419
0.0038417004
0.0038422632
0.0038428303
0.0038434017
0.0038439774
0.0038445575
0.003845142
0.003845731
0.0038463244
0.0038469223
0.0038475248
0.0038481319
0.0038487436
0.00384936
0.0038499811
0.0038506069
0.0038512375
0.003851873
0.0038525134
0.0038531587
0.0038538089
0.0038544642
0.0038551246
0.0038557901
0.0038564608
0.0038571367
0.0038578179
0.0038585044
0.0038591963
0.0038598937
0.0038605966
0.0038613051
0.0038620193
0.0038627391
0.0038634648
0.0038641963
0.0038649337
0.0038656771
0.0038664266
0.0038671822
0.0038679441
0.0038687123
0.0038694869
0.0038702681
0.0038710558
0.0038718501
0.0038726513
0.0038734594
0.0038742744
0.0038750966
0.003875926
0.0038767627
0.0038776068
0.0038784585
0.0038793179
0.0038801852
0.0038810604
0.0038819437
0.0038828353
0.0038837353
0.0038846438
0.0038855611
0.0038864872
0.0038874225
0.0038883669
0.0038893208
0.0038902844
0.0038912577
0.0038922411
0.0038932348
0.0038942389
0.0038952537
0.0038962794
0.0038973163
0.0038983647
0.0038994247
0.0039004967
0.003901581
0.0039026778
0.0039037874
0.0039049103
0.0039060466
0.0039071967
0.003908361
0.0039095398
0.0039107336
0.0039119427
0.0039131674
0.0039144083
0.0039156657
0.0039169401
0.003918232
0.0039195418
0.00392087
0.0039222172
0.0039235838
0.0039249705
0.0039263777
0.0039278062
0.0039292564
0.003930729
0.0039322247
0.0039337442
0.0039352881
0.0039368571
0.0039384521
0.0039400738
0.0039417229
0.0039434004
0.0039451071
0.0039468438
0.0039486115
0.0039504111
0.0039522436
0.00395411
0.0039560114
0.0039579488
0.0039599234
0.0039619363
0.0039639887
0.0039660818
0.0039682169
0.0039703953
0.0039726184
0.0039748876
0.0039772043
0.00397957
0.0039819863
0.0039844547
0.003986977
0.0039895547
0.0039921896
0.0039948836
0.0039976386
0.0040004563
0.0040033388
0.0040062882
0.0040093066
0.004012396
0.0040155589
0.0040187974
0.0040221139
0.0040255109
0.004028991
0.0040325567
0.0040362106
0.0040399557
0.0040437946
0.0040477304
0.0040517659
0.0040559045
0.0040601491
0.0040645031
0.00406897
0.0040735531
0.004078256
0.0040830824
0.0040880362
0.0040931211
0.0040983412
0.0041037006
0.0041092035
0.0041148543
0.0041206574
0.0041266175
0.0041327391
0.0041390273
0.0041454868
0.0041521229
0.0041589408
0.0041659458
0.0041731436
0.0041805397
0.0041881399
0.0041959503
0.004203977
0.0042122262
0.0042207043
0.0042294181
0.0042383743
0.0042475798
0.0042570417
0.0042667673
0.0042767641
0.0042870399
0.0042976023
0.0043084595
0.0043196197
0.0043310913
0.004342883
0.0043550036
0.0043674622
0.004380268
0.0043934304
0.0044069593
0.0044208644
0.004435156
0.0044498445
0.0044649403
0.0044804545
0.0044963981
0.0045127823
0.0045296189
0.0045469197
0.0045646966
0.0045829622
0.004601729
0.0046210099
0.004640818
0.0046611668
0.0046820701
0.0047035418
0.0047255961
0.0047482477
0.0047715115
0.0047954025
0.0048199363
0.0048451286
0.0048709955
0.0048975534
0.004924819
0.0049528093
0.0049815417
0.0050110339
0.0050413037
0.0050723697
0.0051042504
0.0051369648
0.0051705323
0.0052049726
0.0052403057
0.005276552
0.0053137323
0.0053518677
0.0053909795
0.0054310898
0.0054722205
0.0055143944
0.0055576343
0.0056019634
0.0056474056
0.0056939848
0.0057417255
0.0057906524
0.0058407909
0.0058921663
0.0059448047
0.0059987325
0.0060539764
0.0061105635
0.0061685213
0.0062278778
0.0062886612
0.0063509002
0.0064146241
0.0064798621
0.0065466443
0.006615001
0.0066849627
0.0067565606
0.0068298261
0.0069047912
0.0069814882
0.0070599495
0.0071402084
0.0072222983
0.007306253
0.0073921068
0.0074798943
0.0075696505
0.0076614109
0.0077552112
0.0078510875
0.0079490765
0.0080492151
0.0081515406
0.0082560907
0.0083629034
0.0084720172
0.0085834709
0.0086973035
0.0088135546
0.0089322641
0.0090534722
0.0091772195
0.0093035467
0.0094324952
0.0095641066
0.0096984226
0.0098354856
0.009975338
0.010118023
0.010263583
0.010412062
0.010563504
0.010717952
0.010875451
0.011036046
0.011199781
0.011366702
0.011536854
0.011710282
0.011887032
0.012067151
0.012250684
0.012437679
0.012628182
0.012822239
0.013019899
0.013221208
0.013426214
0.013634964
0.013847506
0.014063889
0.01428416
0.014508367
0.01473656
0.014968785
0.015205093
0.015445531
0.015690148
0.015938993
0.016192115
0.016449563
0.016711386
0.016977632
0.017248351
0.017523592
0.017803403
0.018087834
0.018376933
0.018670751
0.018969334
0.019272733
0.019580996
0.019894172
0.020212309
0.020535456
0.020863661
0.021196973
0.021535439
0.021879108
0.022228027
0.022582245
0.022941808
0.023306764
0.02367716
0.024053043
0.02443446
0.024821456
0.025214079
0.025612374
0.026016387
0.026426163
0.026841747
0.027263184
0.02769052
0.028123797
0.02856306
0.029008352
0.029459716
0.029917196
0.030380834
0.030850671
0.03132675
0.031809112
0.032297798
0.032792848
0.033294302
0.033802199
0.03431658
0.034837483
0.035364945
0.035899006
0.036439702
0.036987069
0.037541145
0.038101965
0.038669565
0.039243979
0.039825241
0.040413386
0.041008447
0.041610456
0.042219445
0.042835446
0.043458491
0.044088609
0.044725831
0.045370185
0.046021701
0.046680406
0.047346329
0.048019496
0.048699933
0.049387667
0.050082722
0.050785123
0.051494893
0.052212057
0.052936637
0.053668654
0.05440813
0.055155086
0.055909543
0.056671519
0.057441033
0.058218104
0.059002749
0.059794985
0.060594829
0.061402296
0.0622174
0.063040158
0.063870581
0.064708684
0.065554478
0.066407975
0.067269187
0.068138124
0.069014796
0.069899212
0.07079138
0.071691308
0.072599004
0.073514474
0.074437725
0.075368761
0.076307588
0.077254208
0.078208627
0.079170847
0.080140869
0.081118696
0.082104328
0.083097766
0.08409901
0.085108059
0.086124911
0.087149564
0.088182017
0.089222264
0.090270304
0.09132613
0.09238974
0.093461125
0.094540282
0.095627203
0.096721881
0.097824308
0.098934475
0.10005238
0.101178
0.10231133
0.10345237
0.1046011
0.10575751
0.10692158
0.10809331
0.10927269
0.11045969
0.11165431
0.11285652
0.11406633
0.1152837
0.11650863
0.11774109
0.11898108
0.12022857
0.12148354
0.12274599
0.12401588
0.12529321
0.12657795
0.12787007
0.12916957
0.13047643
0.13179061
0.1331121
0.13444088
0.13577692
0.13712021
0.13847071
0.13982842
0.14119329
0.14256532
0.14394447
0.14533073
0.14672406
0.14812444
0.14953185
0.15094625
0.15236764
0.15379597
0.15523122
0.15667337
0.15812238
0.15957824
0.16104091
0.16251036
0.16398657
0.16546951
0.16695915
0.16845546
0.16995841
0.17146798
0.17298413
0.17450683
0.17603606
0.17757178
0.17911397
0.18066259
0.18221761
0.18377901
0.18534674
0.18692079
0.18850111
0.19008768
0.19168047
0.19327944
0.19488457
0.19649581
0.19811315
0.19973654
0.20136595
0.20300135
0.20464272
0.20629001
0.20794319
0.20960223
0.2112671
0.21293777
0.2146142
0.21629635
0.2179842
0.21967771
0.22137684
0.22308158
0.22479187
0.22650769
0.228229
0.22995577
0.23168797
0.23342555
0.2351685
0.23691677
0.23867033
0.24042914
0.24219318
0.2439624
0.24573678
0.24751627
0.24930085
0.25109049
0.25288513
0.25468476
0.25648934
0.25829883
0.2601132
0.26193241
0.26375644
0.26558524
0.26741878
0.26925703
0.27109995
0.27294752
0.27479968
0.27665641
0.27851768
0.28038346
0.28225369
0.28412836
0.28600743
0.28789086
0.28977862
0.29167068
0.29356699
0.29546753
0.29737226
0.29928115
0.30119417
0.30311127
0.30503242
0.3069576
0.30888676
0.31081987
0.3127569
0.31469781
0.31664257
0.31859114
0.32054349
0.32249959
0.32445939
0.32642288
0.32839
0.33036073
0.33233504
0.33431288
0.33629423
0.33827905
0.3402673
0.34225895
0.34425397
0.34625232
0.34825396
0.35025887
0.352267
0.35427833
0.35629281
0.35831042
0.36033111
0.36235486
0.36438162
0.36641136
0.36844405
0.37047966
0.37251813
0.37455945
0.37660357
0.37865045
0.38070007
0.38275239
0.38480736
0.38686496
0.38892514
0.39098787
0.39305311
0.39512083
0.39719099
0.39926354
0.40133846
0.4034157
0.40549523
0.407577
0.40966099
0.41174714
0.41383542
0.41592579
0.41801821
0.42011264
0.42220904
0.42430736
0.42640757
0.42850962
0.43061347
0.43271908
0.43482641
0.4369354
0.43904602
0.44115822
0.44327196
0.44538718
0.44750385
0.44962191
0.45174132
0.45386203
0.45598398
0.45810713
0.46023143
0.46235683
0.46448326
0.46661069
0.46873904
0.47086828
0.47299834
0.47512916
0.47726069
0.47939287
0.48152563
0.48365891
0.48579265
0.48792679
0.49006125
0.49219597
0.49433089
0.49646593
0.49860101
0.50073607
0.50287103
0.50500581
0.50714033