/*--------------------------------*- C++ -*----------------------------------*\
  =========                 |
  \\      /  F ield         | OpenFOAM: The Open Source CFD Toolbox
   \\    /   O peration     | Website:  https://openfoam.org
    \\  /    A nd           | Version:  7
     \\/     M anipulation  |
\*---------------------------------------------------------------------------*/
FoamFile
{
    version     2.0;
    format      ascii;
    class       volScalarField;
    location    "0.00236";
    object      T;
}
// * * * * * * * * * * * * * * * * * * * * * * * * * * * * * * * * * * * * * //

dimensions      [0 0 0 1 0 0 0];

internalField   nonuniform List<scalar> 
5000
(
254.60885
254.62323
254.62974
254.64123
254.64792
254.65936
254.66606
254.6775
254.68421
254.69566
254.70236
254.71381
254.72052
254.73197
254.73868
254.75013
254.75683
254.76828
254.77498
254.78643
254.79313
254.80458
254.81127
254.82273
254.82941
254.84086
254.84754
254.859
254.86567
254.87712
254.88379
254.89524
254.9019
254.91335
254.92001
254.93146
254.93811
254.94956
254.9562
254.96765
254.97429
254.98574
254.99237
255.00382
255.01045
255.02189
255.02851
255.03996
255.04657
255.05802
255.06463
255.07607
255.08268
255.09412
255.10072
255.11216
255.11875
255.13019
255.13678
255.14822
255.1548
255.16624
255.17281
255.18426
255.19082
255.20226
255.20882
255.22026
255.22682
255.23826
255.24481
255.25625
255.26279
255.27423
255.28076
255.2922
255.29873
255.31016
255.31668
255.32811
255.33463
255.34606
255.35256
255.36399
255.3705
255.38192
255.38842
255.39985
255.40635
255.41778
255.42428
255.43571
255.4422
255.45365
255.46013
255.47158
255.47806
255.4895
255.49598
255.50743
255.5139
255.52535
255.53182
255.54326
255.54972
255.56117
255.56763
255.57908
255.58552
255.59697
255.60341
255.61486
255.6213
255.63274
255.63917
255.65062
255.65705
255.66849
255.67491
255.68635
255.69277
255.70421
255.71062
255.72206
255.72846
255.73991
255.7463
255.75775
255.76414
255.77558
255.78196
255.79341
255.79978
255.81123
255.8176
255.82904
255.8354
255.84685
255.8532
255.86465
255.871
255.88244
255.88879
255.90023
255.90657
255.91801
255.92435
255.93579
255.94212
255.95356
255.95988
255.97132
255.97764
255.98908
255.99539
256.00683
256.01313
256.02458
256.03087
256.04232
256.0486
256.06005
256.06633
256.07778
256.08405
256.0955
256.10176
256.11321
256.11947
256.13092
256.13717
256.14862
256.15487
256.16631
256.17255
256.18401
256.19023
256.20169
256.20791
256.21936
256.22559
256.23703
256.24325
256.2547
256.2609
256.27237
256.27854
256.29002
256.29619
256.30765
256.31386
256.32527
256.33151
256.3429
256.34912
256.36056
256.3667
256.37823
256.38427
256.39588
256.40186
256.41346
256.41953
256.43096
256.43728
256.44837
256.45509
256.46572
256.47292
256.48306
256.49073
256.50041
256.50851
256.5178
256.52623
256.53524
256.54389
256.55272
256.5615
256.57022
256.57908
256.58774
256.59664
256.60527
256.61418
256.62281
256.63171
256.64034
256.64923
256.65786
256.66675
256.67538
256.68427
256.6929
256.70179
256.71042
256.7193
256.72793
256.73681
256.74544
256.75431
256.76295
256.77182
256.78045
256.78932
256.79795
256.80682
256.81544
256.82431
256.83293
256.8418
256.85041
256.85929
256.86789
256.87676
256.88537
256.89422
256.90285
256.91168
256.92033
256.92912
256.9378
256.94657
256.95526
256.964
256.97272
256.98144
256.99017
256.99887
257.00761
257.0163
257.02504
257.03372
257.04247
257.05114
257.05989
257.06855
257.0773
257.08596
257.09471
257.10336
257.11211
257.12075
257.1295
257.13814
257.14689
257.15553
257.16427
257.17291
257.18165
257.19028
257.19902
257.20765
257.21638
257.22501
257.23374
257.24237
257.25109
257.25972
257.26844
257.27706
257.28578
257.2944
257.30312
257.31173
257.32045
257.32906
257.33777
257.34638
257.35509
257.36369
257.3724
257.381
257.38971
257.39831
257.40701
257.41561
257.4243
257.4329
257.44159
257.45019
257.45888
257.46747
257.47616
257.48474
257.49343
257.50201
257.51069
257.51928
257.52796
257.53653
257.54521
257.55379
257.56246
257.57103
257.5797
257.58827
257.59694
257.60551
257.61417
257.62274
257.6314
257.63996
257.64862
257.65718
257.66584
257.67439
257.68305
257.6916
257.70025
257.7088
257.71745
257.72599
257.73464
257.74318
257.75183
257.76037
257.76901
257.77754
257.78618
257.79472
257.80335
257.81188
257.82051
257.82904
257.83767
257.8462
257.85482
257.86334
257.87197
257.88049
257.88911
257.89763
257.90625
257.91476
257.92338
257.9319
257.94051
257.94902
257.95764
257.96615
257.97476
257.98327
257.99188
258.00038
258.00899
258.0175
258.02611
258.03461
258.04321
258.05171
258.06032
258.06882
258.07742
258.08592
258.09452
258.10301
258.11161
258.1201
258.1287
258.13719
258.14579
258.15427
258.16287
258.17135
258.17994
258.18842
258.19702
258.20549
258.21408
258.22255
258.23114
258.23961
258.2482
258.25666
258.26524
258.27371
258.28229
258.29076
258.29932
258.3078
258.31635
258.32483
258.33338
258.34186
258.35039
258.35889
258.36741
258.3759
258.38442
258.39291
258.40142
258.40992
258.41842
258.42692
258.43542
258.44391
258.45241
258.4609
258.46939
258.47788
258.48637
258.49486
258.50335
258.51183
258.52032
258.5288
258.53728
258.54576
258.55424
258.56271
258.57119
258.57966
258.58814
258.59661
258.60508
258.61355
258.62201
258.63048
258.63894
258.64741
258.65587
258.66433
258.67279
258.68125
258.6897
258.69816
258.70661
258.71507
258.72352
258.73197
258.74042
258.74886
258.75731
258.76576
258.7742
258.78264
258.79108
258.79952
258.80796
258.8164
258.82483
258.83326
258.8417
258.85013
258.85856
258.86699
258.87541
258.88384
258.89226
258.90069
258.90911
258.91753
258.92595
258.93437
258.94278
258.9512
258.95961
258.96803
258.97644
258.98485
258.99326
259.00166
259.01007
259.01847
259.02688
259.03528
259.04368
259.05208
259.06047
259.06887
259.07727
259.08566
259.09405
259.10244
259.11083
259.11922
259.12761
259.13599
259.14438
259.15276
259.16115
259.16953
259.17791
259.18629
259.19467
259.20304
259.21142
259.21979
259.22817
259.23654
259.24491
259.25329
259.26166
259.27003
259.27839
259.28676
259.29513
259.30349
259.31186
259.32022
259.32859
259.33695
259.34531
259.35367
259.36203
259.37039
259.37875
259.38711
259.39546
259.40382
259.41217
259.42053
259.42888
259.43723
259.44558
259.45393
259.46228
259.47062
259.47897
259.48731
259.49566
259.504
259.51234
259.52068
259.52902
259.53736
259.5457
259.55403
259.56236
259.5707
259.57903
259.58736
259.59569
259.60402
259.61234
259.62067
259.62899
259.63732
259.64564
259.65396
259.66228
259.6706
259.67892
259.68723
259.69555
259.70386
259.71217
259.72048
259.72879
259.7371
259.7454
259.75371
259.76201
259.77032
259.77862
259.78692
259.79522
259.80352
259.81181
259.82011
259.8284
259.8367
259.84499
259.85328
259.86157
259.86985
259.87814
259.88643
259.89471
259.90299
259.91128
259.91956
259.92783
259.93611
259.94439
259.95266
259.96094
259.96921
259.97748
259.98575
259.99402
260.00229
260.01056
260.01882
260.02709
260.03535
260.04361
260.05187
260.06013
260.06839
260.07664
260.0849
260.09315
260.10141
260.10966
260.11791
260.12616
260.1344
260.14265
260.1509
260.15914
260.16738
260.17562
260.18386
260.1921
260.20034
260.20858
260.21681
260.22505
260.23328
260.24151
260.24974
260.25797
260.2662
260.27442
260.28265
260.29087
260.29909
260.30732
260.31553
260.32375
260.33197
260.34019
260.3484
260.35662
260.36483
260.37304
260.38125
260.38946
260.39767
260.40587
260.41408
260.42228
260.43048
260.43868
260.44689
260.45508
260.46328
260.47148
260.47968
260.48787
260.49607
260.50426
260.51245
260.52064
260.52883
260.53702
260.54521
260.5534
260.56158
260.56977
260.57795
260.58614
260.59432
260.6025
260.61068
260.61886
260.62704
260.63522
260.6434
260.65158
260.65975
260.66793
260.6761
260.68427
260.69245
260.70062
260.70879
260.71696
260.72513
260.73329
260.74146
260.74963
260.75779
260.76595
260.77412
260.78228
260.79044
260.7986
260.80676
260.81492
260.82307
260.83123
260.83938
260.84754
260.85569
260.86384
260.87199
260.88014
260.88829
260.89643
260.90458
260.91272
260.92087
260.92901
260.93715
260.94529
260.95343
260.96156
260.9697
260.97783
260.98597
260.9941
261.00223
261.01036
261.01849
261.02661
261.03474
261.04286
261.05099
261.05911
261.06723
261.07535
261.08347
261.09158
261.0997
261.10781
261.11593
261.12404
261.13215
261.14026
261.14836
261.15647
261.16458
261.17268
261.18078
261.18888
261.19698
261.20508
261.21318
261.22127
261.22937
261.23746
261.24555
261.25364
261.26173
261.26982
261.2779
261.28598
261.29407
261.30215
261.31023
261.31831
261.32638
261.33446
261.34253
261.3506
261.35867
261.36674
261.3748
261.38287
261.39093
261.399
261.40705
261.41511
261.42317
261.43122
261.43928
261.44733
261.45537
261.46342
261.47147
261.47951
261.48755
261.49559
261.50363
261.51166
261.51969
261.52773
261.53575
261.54378
261.5518
261.55983
261.56784
261.57586
261.58388
261.59189
261.5999
261.60791
261.61591
261.62391
261.63191
261.63991
261.6479
261.6559
261.66389
261.67187
261.67985
261.68784
261.69581
261.70379
261.71176
261.71973
261.72769
261.73565
261.74361
261.75157
261.75952
261.76747
261.77541
261.78336
261.79129
261.79923
261.80716
261.81509
261.82301
261.83093
261.83884
261.84675
261.85465
261.86256
261.87045
261.87835
261.88623
261.89412
261.90199
261.90987
261.91773
261.9256
261.93345
261.9413
261.94915
261.95699
261.96482
261.97265
261.98048
261.98829
261.9961
262.00391
262.0117
262.01949
262.02727
262.03505
262.04282
262.05058
262.05833
262.06607
262.07381
262.08154
262.08927
262.09698
262.10469
262.11238
262.12007
262.12775
262.13542
262.14308
262.15073
262.15837
262.16601
262.17363
262.18124
262.18884
262.19643
262.20401
262.21158
262.21913
262.22668
262.23421
262.24174
262.24925
262.25675
262.26423
262.27171
262.27917
262.28661
262.29405
262.30147
262.30888
262.31628
262.32366
262.33102
262.33838
262.34572
262.35304
262.36035
262.36764
262.37492
262.38218
262.38943
262.39666
262.40388
262.41108
262.41826
262.42543
262.43258
262.43971
262.44683
262.45392
262.461
262.46806
262.47511
262.48213
262.48913
262.49612
262.50309
262.51004
262.51697
262.52387
262.53076
262.53763
262.54448
262.55131
262.55812
262.5649
262.57167
262.57841
262.58514
262.59184
262.59851
262.60517
262.6118
262.61842
262.62501
262.63157
262.63812
262.64464
262.65113
262.65761
262.66406
262.67048
262.67688
262.68326
262.68961
262.69594
262.70224
262.70852
262.71477
262.721
262.7272
262.73338
262.73953
262.74565
262.75175
262.75782
262.76387
262.76989
262.77588
262.78185
262.78779
262.7937
262.79959
262.80545
262.81128
262.81708
262.82286
262.82861
262.83434
262.84003
262.8457
262.85134
262.85695
262.86253
262.86809
262.87362
262.87912
262.88459
262.89004
262.89545
262.90084
262.9062
262.91153
262.91683
262.9221
262.92735
262.93257
262.93776
262.94292
262.94805
262.95316
262.95823
262.96328
262.96829
262.97329
262.97825
262.98318
262.98809
262.99297
262.99782
263.00263
263.00743
263.01219
263.01693
263.02164
263.02632
263.03097
263.03559
263.04019
263.04476
263.0493
263.05381
263.05829
263.06275
263.06718
263.07158
263.07595
263.0803
263.08462
263.08891
263.09318
263.09741
263.10162
263.10581
263.10996
263.11409
263.1182
263.12227
263.12633
263.13035
263.13435
263.13832
263.14226
263.14618
263.15007
263.15394
263.15778
263.1616
263.16539
263.16916
263.1729
263.17661
263.1803
263.18397
263.18761
263.19122
263.19481
263.19838
263.20193
263.20545
263.20894
263.21241
263.21586
263.21928
263.22268
263.22606
263.22941
263.23274
263.23605
263.23934
263.2426
263.24584
263.24906
263.25225
263.25543
263.25858
263.26171
263.26482
263.2679
263.27097
263.27401
263.27704
263.28004
263.28302
263.28598
263.28892
263.29184
263.29474
263.29761
263.30047
263.30331
263.30613
263.30893
263.31172
263.31448
263.31722
263.31995
263.32265
263.32534
263.328
263.33065
263.33328
263.3359
263.33849
263.34107
263.34363
263.34617
263.34869
263.3512
263.35368
263.35616
263.35861
263.36105
263.36347
263.36588
263.36827
263.37065
263.373
263.37534
263.37766
263.37998
263.38227
263.38455
263.38681
263.38905
263.39129
263.3935
263.39571
263.3979
263.40007
263.40223
263.40438
263.4065
263.40863
263.41072
263.41281
263.41488
263.41695
263.41899
263.42103
263.42304
263.42505
263.42704
263.42902
263.43099
263.43295
263.43489
263.43682
263.43873
263.44064
263.44253
263.44441
263.44628
263.44813
263.44998
263.45181
263.45364
263.45544
263.45724
263.45903
263.46081
263.46257
263.46433
263.46607
263.4678
263.46952
263.47124
263.47294
263.47463
263.47631
263.47797
263.47964
263.48128
263.48293
263.48455
263.48618
263.48779
263.48939
263.49098
263.49257
263.49414
263.4957
263.49726
263.49881
263.50034
263.50187
263.50339
263.50491
263.50641
263.50791
263.5094
263.51088
263.51235
263.51381
263.51527
263.51671
263.51816
263.51959
263.52101
263.52243
263.52384
263.52524
263.52664
263.52803
263.52941
263.53079
263.53216
263.53352
263.53487
263.53622
263.53756
263.5389
263.54022
263.54155
263.54286
263.54418
263.54548
263.54678
263.54807
263.54936
263.55064
263.55192
263.55318
263.55445
263.55571
263.55696
263.55821
263.55945
263.56069
263.56193
263.56315
263.56438
263.56559
263.56681
263.56801
263.56921
263.57041
263.57161
263.5728
263.57398
263.57516
263.57634
263.57751
263.57868
263.57984
263.581
263.58216
263.58331
263.58445
263.5856
263.58673
263.58787
263.589
263.59013
263.59126
263.59238
263.59349
263.59461
263.59572
263.59682
263.59793
263.59903
263.60013
263.60122
263.60231
263.6034
263.60448
263.60556
263.60664
263.60772
263.60879
263.60986
263.61093
263.61199
263.61305
263.61411
263.61517
263.61622
263.61728
263.61832
263.61937
263.62041
263.62146
263.6225
263.62353
263.62457
263.6256
263.62663
263.62766
263.62869
263.62971
263.63074
263.63176
263.63278
263.63379
263.63481
263.63582
263.63684
263.63785
263.63885
263.63986
263.64087
263.64187
263.64287
263.64388
263.64488
263.64587
263.64687
263.64787
263.64886
263.64986
263.65085
263.65184
263.65283
263.65382
263.65481
263.6558
263.65678
263.65777
263.65876
263.65974
263.66072
263.66171
263.66269
263.66367
263.66465
263.66564
263.66661
263.6676
263.66858
263.66956
263.67054
263.67152
263.67251
263.67348
263.67446
263.67545
263.67642
263.67741
263.67839
263.67938
263.68035
263.68134
263.68232
263.68331
263.6843
263.68528
263.68627
263.68725
263.68825
263.68924
263.69023
263.69123
263.69222
263.69322
263.69421
263.69522
263.69621
263.69722
263.69821
263.69923
263.70023
263.70124
263.70225
263.70327
263.70428
263.7053
263.70632
263.70734
263.70836
263.7094
263.71042
263.71146
263.71249
263.71353
263.71457
263.71561
263.71666
263.71771
263.71876
263.71981
263.72087
263.72193
263.72299
263.72406
263.72513
263.7262
263.72728
263.72836
263.72944
263.73053
263.73162
263.73271
263.73381
263.73491
263.73602
263.73712
263.73824
263.73935
263.74047
263.7416
263.74272
263.74385
263.74499
263.74613
263.74727
263.74842
263.74957
263.75072
263.75188
263.75304
263.75421
263.75538
263.75656
263.75774
263.75892
263.76011
263.7613
263.7625
263.7637
263.76491
263.76612
263.76733
263.76855
263.76977
263.771
263.77223
263.77346
263.7747
263.77595
263.7772
263.77845
263.77971
263.78097
263.78223
263.7835
263.78478
263.78606
263.78734
263.78863
263.78992
263.79121
263.79251
263.79382
263.79513
263.79644
263.79776
263.79908
263.8004
263.80173
263.80307
263.8044
263.80575
263.80709
263.80844
263.8098
263.81115
263.81252
263.81388
263.81525
263.81663
263.818
263.81938
263.82077
263.82216
263.82355
263.82495
263.82635
263.82775
263.82916
263.83057
263.83198
263.8334
263.83482
263.83624
263.83767
263.8391
263.84053
263.84197
263.84341
263.84485
263.84629
263.84774
263.84919
263.85065
263.8521
263.85356
263.85502
263.85649
263.85796
263.85942
263.8609
263.86237
263.86385
263.86533
263.86681
263.86829
263.86977
263.87126
263.87275
263.87424
263.87573
263.87723
263.87873
263.88022
263.88172
263.88323
263.88473
263.88623
263.88774
263.88925
263.89076
263.89227
263.89378
263.89529
263.8968
263.89832
263.89983
263.90135
263.90287
263.90439
263.90591
263.90743
263.90895
263.91047
263.91199
263.91351
263.91504
263.91656
263.91808
263.91961
263.92113
263.92266
263.92419
263.92571
263.92724
263.92876
263.93029
263.93182
263.93334
263.93487
263.9364
263.93792
263.93945
263.94097
263.9425
263.94403
263.94555
263.94708
263.9486
263.95013
263.95165
263.95317
263.9547
263.95622
263.95774
263.95926
263.96078
263.9623
263.96382
263.96534
263.96686
263.96837
263.96989
263.9714
263.97292
263.97443
263.97594
263.97746
263.97897
263.98048
263.98198
263.98349
263.985
263.9865
263.98801
263.98951
263.99101
263.99251
263.99401
263.99551
263.99701
263.9985
264
264.00149
264.00299
264.00448
264.00597
264.00745
264.00894
264.01042
264.01191
264.01339
264.01487
264.01635
264.01783
264.0193
264.02078
264.02225
264.02372
264.02519
264.02666
264.02813
264.02959
264.03106
264.03253
264.03399
264.03545
264.03691
264.03836
264.03982
264.04127
264.04273
264.04418
264.04562
264.04707
264.04852
264.04996
264.0514
264.05284
264.05428
264.05572
264.05715
264.05858
264.06002
264.06145
264.06288
264.0643
264.06573
264.06715
264.06857
264.06999
264.07141
264.07283
264.07424
264.07566
264.07707
264.07848
264.07989
264.08129
264.0827
264.0841
264.0855
264.0869
264.0883
264.0897
264.0911
264.09249
264.09388
264.09527
264.09665
264.09804
264.09942
264.1008
264.10218
264.10356
264.10493
264.10631
264.10768
264.10906
264.11043
264.1118
264.11317
264.11453
264.1159
264.11726
264.11862
264.11997
264.12133
264.12268
264.12404
264.12539
264.12674
264.12808
264.12943
264.13078
264.13212
264.13346
264.1348
264.13614
264.13747
264.13881
264.14014
264.14147
264.1428
264.14412
264.14545
264.14677
264.14809
264.14941
264.15073
264.15205
264.15336
264.15468
264.15599
264.1573
264.15861
264.15991
264.16122
264.16252
264.16382
264.16512
264.16641
264.16771
264.169
264.1703
264.17159
264.17288
264.17416
264.17545
264.17673
264.17801
264.17929
264.18057
264.18185
264.18312
264.18439
264.18567
264.18694
264.18821
264.18947
264.19074
264.192
264.19326
264.19452
264.19578
264.19703
264.19829
264.19954
264.20079
264.20204
264.20328
264.20453
264.20578
264.20702
264.20826
264.2095
264.21074
264.21197
264.21321
264.21444
264.21567
264.2169
264.21812
264.21935
264.22057
264.22179
264.22301
264.22423
264.22545
264.22666
264.22788
264.22909
264.2303
264.23151
264.23272
264.23392
264.23513
264.23633
264.23753
264.23873
264.23993
264.24113
264.24232
264.24351
264.2447
264.24589
264.24708
264.24827
264.24945
264.25064
264.25182
264.253
264.25418
264.25536
264.25653
264.2577
264.25888
264.26005
264.26122
264.26238
264.26355
264.26471
264.26588
264.26704
264.2682
264.26936
264.27052
264.27167
264.27283
264.27398
264.27513
264.27628
264.27743
264.27857
264.27971
264.28086
264.282
264.28314
264.28427
264.28541
264.28655
264.28768
264.28881
264.28994
264.29107
264.2922
264.29332
264.29445
264.29557
264.29669
264.29781
264.29893
264.30004
264.30116
264.30227
264.30338
264.30449
264.3056
264.3067
264.30781
264.30891
264.31002
264.31112
264.31222
264.31331
264.31441
264.3155
264.31659
264.31769
264.31878
264.31986
264.32095
264.32204
264.32312
264.3242
264.32529
264.32637
264.32744
264.32852
264.32959
264.33066
264.33173
264.3328
264.33387
264.33493
264.336
264.33706
264.33812
264.33918
264.34024
264.3413
264.34235
264.34341
264.34446
264.34551
264.34656
264.34761
264.34865
264.3497
264.35074
264.35178
264.35282
264.35386
264.3549
264.35593
264.35696
264.35799
264.35902
264.36005
264.36108
264.3621
264.36313
264.36415
264.36517
264.36619
264.36721
264.36822
264.36924
264.37025
264.37126
264.37227
264.37328
264.37429
264.37529
264.37629
264.3773
264.37829
264.37929
264.38029
264.38128
264.38228
264.38327
264.38426
264.38525
264.38624
264.38722
264.38821
264.38919
264.39017
264.39115
264.39212
264.3931
264.39407
264.39504
264.39601
264.39698
264.39795
264.39891
264.39988
264.40084
264.4018
264.40276
264.40372
264.40467
264.40563
264.40658
264.40753
264.40848
264.40943
264.41037
264.41132
264.41226
264.4132
264.41414
264.41508
264.41602
264.41695
264.41788
264.41881
264.41974
264.42067
264.4216
264.42252
264.42344
264.42436
264.42528
264.4262
264.42711
264.42803
264.42894
264.42985
264.43076
264.43167
264.43257
264.43348
264.43438
264.43528
264.43618
264.43707
264.43797
264.43886
264.43975
264.44064
264.44152
264.44241
264.44329
264.44418
264.44506
264.44594
264.44681
264.44769
264.44856
264.44943
264.4503
264.45117
264.45203
264.4529
264.45376
264.45462
264.45548
264.45634
264.4572
264.45805
264.4589
264.45975
264.4606
264.46145
264.4623
264.46314
264.46398
264.46482
264.46566
264.46649
264.46733
264.46816
264.46899
264.46982
264.47065
264.47148
264.4723
264.47313
264.47395
264.47477
264.47558
264.4764
264.47721
264.47802
264.47883
264.47964
264.48045
264.48125
264.48206
264.48286
264.48366
264.48446
264.48525
264.48605
264.48684
264.48763
264.48842
264.48921
264.49
264.49078
264.49157
264.49235
264.49313
264.4939
264.49468
264.49546
264.49623
264.497
264.49777
264.49854
264.4993
264.50007
264.50083
264.50159
264.50235
264.50311
264.50386
264.50462
264.50537
264.50612
264.50687
264.50761
264.50836
264.5091
264.50985
264.51059
264.51132
264.51206
264.51279
264.51353
264.51426
264.51499
264.51572
264.51644
264.51717
264.51789
264.51861
264.51934
264.52006
264.52077
264.52149
264.5222
264.52291
264.52362
264.52433
264.52504
264.52574
264.52644
264.52714
264.52784
264.52854
264.52923
264.52993
264.53062
264.53131
264.53199
264.53268
264.53337
264.53405
264.53474
264.53542
264.5361
264.53678
264.53745
264.53813
264.5388
264.53947
264.54014
264.5408
264.54147
264.54213
264.54279
264.54345
264.54411
264.54476
264.54541
264.54606
264.54672
264.54737
264.54801
264.54866
264.5493
264.54994
264.55058
264.55122
264.55186
264.55249
264.55312
264.55375
264.55438
264.55501
264.55564
264.55626
264.55689
264.55751
264.55812
264.55874
264.55936
264.55997
264.56058
264.56119
264.56179
264.5624
264.563
264.5636
264.5642
264.5648
264.56539
264.56598
264.56658
264.56717
264.56775
264.56834
264.56892
264.5695
264.57008
264.57066
264.57124
264.57181
264.57239
264.57296
264.57352
264.57409
264.57466
264.57522
264.57578
264.57634
264.5769
264.57745
264.578
264.57855
264.5791
264.57965
264.58019
264.58074
264.58128
264.58182
264.58235
264.58289
264.58342
264.58395
264.58448
264.58501
264.58553
264.58606
264.58658
264.5871
264.58761
264.58813
264.58864
264.58915
264.58966
264.59017
264.59068
264.59118
264.59168
264.59218
264.59268
264.59317
264.59367
264.59416
264.59465
264.59514
264.59562
264.59611
264.59659
264.59707
264.59755
264.59803
264.5985
264.59898
264.59945
264.59992
264.60039
264.60085
264.60132
264.60178
264.60224
264.6027
264.60316
264.60361
264.60406
264.60451
264.60496
264.6054
264.60585
264.60629
264.60673
264.60717
264.60761
264.60804
264.60848
264.60891
264.60935
264.60978
264.6102
264.61063
264.61106
264.61148
264.6119
264.61232
264.61273
264.61315
264.61356
264.61397
264.61438
264.61479
264.61519
264.61559
264.61599
264.61639
264.61679
264.61719
264.61758
264.61797
264.61836
264.61875
264.61914
264.61953
264.61991
264.6203
264.62068
264.62106
264.62143
264.62181
264.62218
264.62255
264.62292
264.62329
264.62365
264.62402
264.62438
264.62473
264.62509
264.62545
264.6258
264.62615
264.6265
264.62685
264.6272
264.62754
264.62789
264.62823
264.62857
264.62891
264.62924
264.62958
264.62991
264.63024
264.63057
264.63089
264.63122
264.63154
264.63186
264.63218
264.63249
264.6328
264.63312
264.63343
264.63373
264.63404
264.63434
264.63465
264.63495
264.63525
264.63554
264.63584
264.63613
264.63642
264.63671
264.63699
264.63728
264.63756
264.63784
264.63812
264.63839
264.63867
264.63894
264.63921
264.63948
264.63974
264.64001
264.64027
264.64053
264.64079
264.64104
264.6413
264.64155
264.6418
264.64205
264.64229
264.64253
264.64278
264.64301
264.64325
264.64349
264.64372
264.64395
264.64418
264.64441
264.64463
264.64486
264.64508
264.6453
264.64552
264.64574
264.64595
264.64617
264.64638
264.64658
264.64679
264.64699
264.64719
264.64739
264.64759
264.64778
264.64798
264.64817
264.64836
264.64855
264.64873
264.64892
264.6491
264.64928
264.64946
264.64964
264.64981
264.64998
264.65015
264.65032
264.65049
264.65065
264.65081
264.65098
264.65114
264.6513
264.65145
264.65161
264.65176
264.65191
264.65206
264.65221
264.65236
264.6525
264.65264
264.65278
264.65292
264.65305
264.65319
264.65332
264.65345
264.65358
264.65371
264.65384
264.65396
264.65409
264.65421
264.65433
264.65445
264.65456
264.65468
264.65479
264.6549
264.65501
264.65512
264.65523
264.65534
264.65544
264.65555
264.65565
264.65575
264.65584
264.65594
264.65603
264.65613
264.65622
264.65631
264.6564
264.65649
264.65657
264.65666
264.65674
264.65682
264.6569
264.65698
264.65706
264.65713
264.65721
264.65728
264.65735
264.65742
264.65749
264.65756
264.65763
264.65769
264.65775
264.65781
264.65787
264.65793
264.65799
264.65805
264.6581
264.65815
264.6582
264.65825
264.6583
264.65835
264.6584
264.65844
264.65848
264.65853
264.65857
264.65861
264.65864
264.65868
264.65871
264.65875
264.65878
264.65881
264.65884
264.65886
264.65889
264.65891
264.65893
264.65895
264.65897
264.65898
264.659
264.65901
264.65903
264.65904
264.65905
264.65905
264.65906
264.65906
264.65907
264.65907
264.65907
264.65906
264.65906
264.65905
264.65904
264.65903
264.65902
264.65901
264.65899
264.65897
264.65895
264.65893
264.65891
264.65888
264.65885
264.65883
264.65879
264.65876
264.65873
264.65869
264.65866
264.65861
264.65858
264.65853
264.65849
264.65844
264.65839
264.65834
264.65829
264.65824
264.65818
264.65812
264.65806
264.658
264.65794
264.65787
264.65781
264.65774
264.65767
264.65759
264.65752
264.65744
264.65736
264.65727
264.65718
264.6571
264.65701
264.65691
264.65682
264.65672
264.65663
264.65653
264.65643
264.65632
264.65622
264.65611
264.656
264.65589
264.65578
264.65566
264.65554
264.65542
264.6553
264.65518
264.65505
264.65493
264.6548
264.65467
264.65453
264.6544
264.65427
264.65413
264.65399
264.65385
264.6537
264.65356
264.65341
264.65326
264.6531
264.65295
264.65279
264.65264
264.65247
264.65231
264.65215
264.65198
264.65182
264.65165
264.65148
264.65131
264.65113
264.65096
264.65078
264.6506
264.65042
264.65024
264.65005
264.64986
264.64968
264.64948
264.6493
264.6491
264.64891
264.6487
264.64852
264.64831
264.64812
264.64791
264.6477
264.64751
264.64729
264.64709
264.64687
264.64666
264.64645
264.64623
264.64602
264.6458
264.64558
264.64537
264.64514
264.64493
264.6447
264.64447
264.64425
264.64402
264.64379
264.64356
264.64332
264.64308
264.64285
264.64261
264.64237
264.64214
264.64189
264.64165
264.64141
264.64116
264.64092
264.64067
264.64042
264.64018
264.63993
264.63968
264.63943
264.63917
264.63891
264.63866
264.6384
264.63814
264.63788
264.63763
264.63736
264.6371
264.63684
264.63657
264.6363
264.63604
264.63577
264.6355
264.63523
264.63496
264.63469
264.63441
264.63414
264.63387
264.63359
264.63331
264.63304
264.63276
264.63248
264.6322
264.63192
264.63164
264.63135
264.63107
264.63078
264.6305
264.63021
264.62992
264.62963
264.62934
264.62904
264.62875
264.62846
264.62816
264.62786
264.62757
264.62727
264.62697
264.62667
264.62638
264.62608
264.62578
264.62548
264.62518
264.62488
264.62459
264.62428
264.62398
264.62368
264.62338
264.62307
264.62276
264.62245
264.62215
264.62184
264.62152
264.6212
264.62089
264.62058
264.62026
264.61993
264.61961
264.61928
264.61897
264.61865
264.61831
264.61798
264.61765
264.61732
264.61699
264.61664
264.61629
264.61594
264.6156
264.61526
264.6149
264.61453
264.61416
264.6138
264.61343
264.61305
264.61265
264.61224
264.61183
264.61142
264.61103
264.61062
264.61019
264.60975
264.6093
264.60886
264.60842
264.60796
264.60748
264.60698
264.60647
264.60598
264.6055
264.60503
264.60454
264.60402
264.60348
264.60293
264.6024
264.60189
264.60138
264.60086
264.6003
264.59972
264.59916
264.59864
264.59817
264.59773
264.59728
264.59681
264.59631
264.59581
264.59536
264.59495
264.5946
264.59427
264.59392
264.59354
264.59312
264.59269
264.59228
264.59191
264.59161
264.59136
264.59111
264.59083
264.5905
264.59011
264.58967
264.58921
264.58877
264.58837
264.58802
264.5877
264.5874
264.58707
264.58671
264.58628
264.58577
264.58517
264.58449
264.58376
264.58302
264.58229
264.58162
264.58105
264.58059
264.58025
264.58002
264.57988
264.57981
264.57977
264.57976
264.57985
264.58028
264.58169
264.5859
264.59804
264.63269
264.73163
265.01503
265.64311
266.37934
267.16817
267.99397
268.84146
269.69559
270.54229
271.36896
272.16474
272.92067
273.62983
274.28726
274.88988
275.4363
275.92661
276.36215
276.74526
277.07907
277.36725
277.61382
277.82296
277.99887
278.14561
278.26704
278.36675
278.44798
278.51366
278.56633
278.60822
278.64123
278.667
278.68689
278.70205
278.71343
278.72182
278.72787
278.73211
278.73497
278.73677
278.73781
278.73832
278.73849
278.73849
278.7384
278.73796
278.73676
278.73534
278.734
278.73272
278.73149
278.73031
278.72915
278.72803
278.72694
278.72587
278.72482
278.72378
278.72276
278.72175
278.72076
278.71977
278.71878
278.7178
278.71682
278.71583
278.71484
278.71384
278.71284
278.71182
278.71079
278.70975
278.70869
278.70762
278.70653
278.70544
278.70433
278.70321
278.70208
278.70094
278.6998
278.69865
278.6975
278.69635
278.6952
278.69406
278.69292
278.69178
278.69065
278.68952
278.68841
278.6873
278.6862
278.68512
278.68404
278.68297
278.68191
278.68086
278.67983
278.6788
278.67777
278.67676
278.67575
278.67476
278.67376
278.67278
278.67179
278.67082
278.66984
278.66888
278.66791
278.66695
278.66599
278.66503
278.66407
278.66312
278.66216
278.66121
278.66026
278.65931
278.65836
278.65742
278.65647
278.65552
278.65457
278.65363
278.65268
278.65174
278.65079
278.64984
278.6489
278.64795
278.647
278.64605
278.6451
278.64415
278.6432
278.64224
278.64129
278.64034
278.63938
278.63843
278.63747
278.63651
278.63556
278.6346
278.63364
278.63268
278.63172
278.63076
278.6298
278.62884
278.62788
278.62691
278.62594
278.62498
278.62401
278.62304
278.62207
278.6211
278.62012
278.61915
278.61817
278.61719
278.61621
278.61523
278.61425
278.61327
278.61229
278.6113
278.61032
278.60933
278.60834
278.60735
278.60636
278.60537
278.60438
278.60338
278.60239
278.60139
278.60039
278.59939
278.59839
278.59739
278.59639
278.59539
278.59438