-1.25 	324.0876837050772 	0.001363492864579344 	101325.0113097335
-1.247497497497497 	299.9983545846782 	0.001273552230599113 	101325.0276152256
-1.244994994994995 	300.001079648865 	0.001012557468424582 	101325.0134495742
-1.242492492492492 	300.0000302451606 	0.0007797572419676593 	101325.0265959767
-1.23998998998999 	300.0000123307097 	0.0005703680735225833 	101325.0145324644
-1.237487487487487 	300.0000215874895 	0.0003876111169647623 	101325.0255322823
-1.234984984984985 	300.0000129712115 	0.0002245400171526138 	101325.0153252223
-1.232482482482482 	300.0000202593427 	8.581742646140527e-05 	101325.0239519914
-1.22997997997998 	300.0000125811516 	0.0001062576231182994 	101325.0148712423
-1.227477477477477 	300.0000183774072 	0.0001402902627092605 	101325.0217239305
-1.224974974974975 	300.0000128419865 	0.0002337650124851198 	101325.0151840985
-1.222472472472472 	300.0000187550364 	0.0003165617331685499 	101325.0221712209
-1.21996996996997 	300.0000136321779 	0.0003940391103503295 	101325.0161246252
-1.217467467467467 	300.000019212941 	0.0004573562454300341 	101325.0227071366
-1.214964964964965 	300.0000143601482 	0.0005157008838851605 	101325.0169855286
-1.212462462462462 	300.0000196793884 	0.0005540284278169323 	101325.0232526167
-1.20995995995996 	300.0000155717111 	0.0005775145363081713 	101325.0184194021
-1.207457457457457 	300.0000174677644 	0.000569906996227567 	101325.0206403288
-1.204954954954955 	300.0000159441822 	0.0005531103824990442 	101325.0188651601
-1.202452452452452 	300.000017426495 	0.0005229547293115034 	101325.020589288
-1.19994994994995 	300.00001646231 	0.0004974035363898418 	101325.0194750839
-1.197447447447447 	300.0000174453457 	0.0004615751080354992 	101325.0206074868
-1.194944944944945 	300.0000160132684 	0.0004313298930597573 	101325.0189412664
-1.192442442442442 	300.0000166654407 	0.0003941665232107881 	101325.0196869877
-1.18993993993994 	300.0000152644536 	0.0003621961915213015 	101325.0180640999
-1.187437437437437 	300.0000160527062 	0.0003216075289410635 	101325.0189670642
-1.184934934934935 	300.0000157867453 	0.0002901843927759374 	101325.0186819213
-1.182432432432432 	300.0000166988981 	0.0002465678996431878 	101325.0197261395
-1.17992992992993 	300.0000167334106 	0.0002163526585892248 	101325.0197961964
-1.177427427427427 	300.0000173478037 	0.0001745074500996201 	101325.0204906406
-1.174924924924925 	300.0000165322311 	0.0001450229490882911 	101325.0195594011
-1.172422422422422 	300.0000167541378 	0.0001067208360119178 	101325.019789534
-1.16991991991992 	300.0000156126753 	7.832062476831551e-05 	101325.0184734542
-1.167417417417417 	300.000015741204 	5.799731358094616e-05 	101325.0185961615
-1.164914914914915 	300.0000153050971 	3.01677757066301e-05 	101325.0181094801
-1.162412412412412 	300.0000155782045 	6.103764001928497e-05 	101325.0183996369
-1.15990990990991 	300.0000156486315 	4.321173039789676e-05 	101325.0185144875
-1.157407407407407 	300.0000158889287 	7.75558498474704e-05 	101325.0187683266
-1.154904904904904 	300.000015900006 	9.5837385959169e-05 	101325.0188117183
-1.152402402402403 	300.0000159187713 	0.0001265363549114431 	101325.0188057451
-1.1498998998999 	300.0000159197175 	0.0001409638211821311 	101325.0188355798
-1.147397397397397 	300.000015811447 	0.0001679955102250197 	101325.0186810851
-1.144894894894895 	300.0000159153934 	0.0001777696806017951 	101325.0188285613
-1.142392392392392 	300.0000156919677 	0.0002003939370883644 	101325.0185380615
-1.13988988988989 	300.0000157448538 	0.0002050719776984779 	101325.0186237373
-1.137387387387387 	300.0000153389024 	0.0002217980302269398 	101325.0181220874
-1.134884884884885 	300.0000153863261 	0.0002186639176739801 	101325.0181971857
-1.132382382382382 	300.0000151297325 	0.0002249523968973856 	101325.0178764528
-1.12987987987988 	300.0000151450823 	0.0002117721012717041 	101325.0179169599
-1.127377377377377 	300.0000150908493 	0.0002141023320196457 	101325.0178319984
-1.124874874874875 	300.0000152814247 	0.0001980650620363013 	101325.0180734637
-1.122372372372372 	300.0000153483206 	0.0001999433110264311 	101325.0181382439
-1.11986986986987 	300.000015529034 	0.0001825897469629411 	101325.0183655545
-1.117367367367367 	300.000015480129 	0.0001840754363485111 	101325.0182933744
-1.114864864864865 	300.0000154645773 	0.0001665809027000974 	101325.0182885774
-1.112362362362362 	300.0000152036977 	0.0001675637949516178 	101325.0179689224
-1.10985985985986 	300.0000150304153 	0.0001503535623805337 	101325.0177755834
-1.107357357357357 	300.0000146970905 	0.0001512137455887771 	101325.0173704861
-1.104854854854855 	300.0000145441263 	0.0001340451529236838 	101325.0171984732
-1.102352352352353 	300.0000143151866 	0.0001354091665548547 	101325.0169180343
-1.09984984984985 	300.0000142924056 	0.0001179632133207604 	101325.0168988882
-1.097347347347347 	300.0000142099232 	0.000120216049821995 	101325.0167932877
-1.094844844844845 	300.0000142818764 	0.0001025145360908066 	101325.0168858856
-1.092342342342342 	300.0000142568928 	0.0001056393458681467 	101325.0168511943
-1.08983983983984 	300.000014318103 	8.799403250054618e-05 	101325.0169306908
-1.087337337337337 	300.0000142516367 	9.177599128053882e-05 	101325.0168471474
-1.084834834834835 	300.0000142356454 	7.450688067298246e-05 	101325.0168323402
-1.082332332332332 	300.0000140934046 	7.878700928178319e-05 	101325.0166596147
-1.07982982982983 	300.0000139978985 	6.2063728484211e-05 	101325.016549258
-1.077327327327327 	300.0000138011334 	6.680916567497748e-05 	101325.0163131344
-1.074824824824825 	300.0000136592626 	5.066494166399221e-05 	101325.0161480142
-1.072322322322323 	300.0000134510764 	5.594349910478591e-05 	101325.015899914
-1.06981981981982 	300.000013311298 	4.029955052509074e-05 	101325.015736789
-1.067317317317317 	300.000013144356 	4.627034670007911e-05 	101325.0155376706
-1.064814814814815 	300.0000130553456 	3.451663874527998e-05 	101325.01543371
-1.062312312312312 	300.0000129682551 	4.045651334511996e-05 	101325.0153296232
-1.05980980980981 	300.0000129531565 	3.503721143944187e-05 	101325.0153130703
-1.057307307307307 	300.0000129491139 	3.965021480156222e-05 	101325.0153081028
-1.054804804804805 	300.000012995466 	3.586207282150443e-05 	101325.015363637
-1.052302302302302 	300.0000130450087 	3.928481139042146e-05 	101325.0154214257
-1.0497997997998 	300.0000131146897 	3.678805662287775e-05 	101325.0155041081
-1.047297297297297 	300.0000131712771 	3.912532882254062e-05 	101325.0155710748
-1.044794794794795 	300.0000132212164 	3.755850050451181e-05 	101325.015630307
-1.042292292292292 	300.0000132434598 	3.892050173858749e-05 	101325.015656456
-1.03978978978979 	300.000013238482 	3.794816703459652e-05 	101325.0156504972
-1.037287287287287 	300.0000131965511 	3.847958712861902e-05 	101325.0156004602
-1.034784784784785 	300.000013118783 	3.783646896891555e-05 	101325.0155082177
-1.032282282282283 	300.0000130063407 	3.773548986983048e-05 	101325.0153755759
-1.02977977977978 	300.000012866201 	3.725577254134483e-05 	101325.0152100611
-1.027277277277277 	300.0000127079962 	3.677142946715593e-05 	101325.0150230289
-1.024774774774775 	300.0000125407995 	3.638720737172765e-05 	101325.0148251262
-1.022272272272272 	300.0000123754647 	3.578040137765742e-05 	101325.0146296346
-1.01976976976977 	300.0000122192702 	3.54683003597184e-05 	101325.0144454409
-1.017267267267267 	300.0000120792922 	3.495150786343371e-05 	101325.0142807902
-1.014764764764765 	300.0000119582187 	3.466343528964342e-05 	101325.0141380708
-1.012262262262262 	300.0000118562793 	3.434540539639566e-05 	101325.0140171664
-1.00975975975976 	300.0000117701567 	3.409580665786928e-05 	101325.0139144116
-1.007257257257257 	300.0000116945559 	3.387306923847251e-05 	101325.013824262
-1.004754754754755 	300.0000116233653 	3.366573401357113e-05 	101325.0137401295
-1.002252252252252 	300.0000115509002 	3.34564594854679e-05 	101325.0136553435
-0.9997497497497498 	300.0000114733568 	3.323106642790021e-05 	101325.0135644161
-0.9972472472472473 	300.0000113888007 	3.298623902598737e-05 	101325.0134642018
-0.9947447447447449 	300.0000112966502 	3.271800193374371e-05 	101325.0133541373
-0.9922422422422421 	300.0000111974506 	3.242852468388681e-05 	101325.0132357204
-0.9897397397397399 	300.000011092282 	3.212551449442824e-05 	101325.0131114669
-0.9872372372372376 	300.0000109832119 	3.181265005290824e-05 	101325.0129838944
-0.9847347347347346 	300.000010872928 	3.149835712328576e-05 	101325.0128551863
-0.9822322322322323 	300.0000107641454 	3.118642307932536e-05 	101325.0127271224
-0.9797297297297296 	300.0000106583012 	3.087620498413661e-05 	101325.012601046
-0.9772272272272275 	300.000010555457 	3.057452205785319e-05 	101325.0124778372
-0.9747247247247248 	300.0000104549084 	3.028086390368774e-05 	101325.0123578818
-0.9722222222222224 	300.0000103561478 	2.999530686934245e-05 	101325.012241473
-0.9697197197197196 	300.0000102600326 	2.972211133379918e-05 	101325.0121291052
-0.9672172172172175 	300.000010167377 	2.945736002312309e-05 	101325.012020972
-0.9647147147147147 	300.0000100784343 	2.920039455999901e-05 	101325.0119165199
-0.9622122122122124 	300.0000099923211 	2.894977881419236e-05 	101325.0118144695
-0.9597097097097099 	300.000009907377 	2.869966505965426e-05 	101325.0117131037
-0.9572072072072073 	300.000009821995 	2.845056895852421e-05 	101325.0116110168
-0.9547047047047047 	300.000009735505 	2.819885816136352e-05 	101325.0115076412
-0.9522022022022023 	300.0000096477027 	2.794227777156225e-05 	101325.0114033101
-0.9496996996996998 	300.0000095597701 	2.768842711362821e-05 	101325.011299184
-0.9471971971971973 	300.0000094733478 	2.743887705548213e-05 	101325.0111969028
-0.9446946946946947 	300.0000093898621 	2.719708304014193e-05 	101325.0110982437
-0.9421921921921923 	300.0000093107209 	2.696795319034268e-05 	101325.0110045356
-0.93968968968969 	300.0000092356175 	2.674726483258322e-05 	101325.0109155698
-0.9371871871871872 	300.0000091625955 	2.653389566850848e-05 	101325.0108292612
-0.9346846846846848 	300.0000090888105 	2.632046955531349e-05 	101325.0107423263
-0.9321821821821823 	300.0000090111589 	2.609465743208408e-05 	101325.0106509091
-0.9296796796796799 	300.0000089265831 	2.585148368588797e-05 	101325.0105512963
-0.9271771771771771 	300.0000088325156 	2.558019632916495e-05 	101325.0104405489
-0.9246746746746748 	300.0000087277783 	2.527591102664954e-05 	101325.010317041
-0.9221721721721724 	300.00000861285 	2.494445465531007e-05 	101325.0101813154
-0.9196696696696698 	300.0000084903268 	2.459166934639542e-05 	101325.010036609
-0.9171671671671672 	300.0000083653736 	2.423223425513903e-05 	101325.009888913
-0.9146646646646649 	300.0000082450155 	2.388603962418888e-05 	101325.0097463452
-0.9121621621621623 	300.0000081360944 	2.357101431935944e-05 	101325.0096173393
-0.9096596596596597 	300.0000080441309 	2.330678475098016e-05 	101325.0095086186
-0.9071571571571573 	300.0000079722847 	2.309976084414386e-05 	101325.0094235947
-0.9046546546546547 	300.0000079189851 	2.294208466675696e-05 	101325.0093605761
-0.9021521521521524 	300.0000078777689 	2.281995093905312e-05 	101325.0093120914
-0.8996496496496498 	300.0000078389033 	2.270301780560887e-05 	101325.0092662933
-0.8971471471471473 	300.0000077910557 	2.255979325738815e-05 	101325.0092097935
-0.894644644644645 	300.0000077245043 	2.236637782401164e-05 	101325.0091312728
-0.892142142142142 	300.0000076338659 	2.210428818371518e-05 	101325.0090243276
-0.8896396396396397 	300.0000075191645 	2.177514506315862e-05 	101325.00888892
-0.8871371371371374 	300.0000073858035 	2.139335306089108e-05 	101325.0087315397
-0.8846346346346349 	300.000007243674 	2.098373928772169e-05 	101325.0085635343
-0.8821321321321324 	300.0000071039722 	2.05834315922396e-05 	101325.0083982295
-0.8796296296296297 	300.0000069771838 	2.021952020775781e-05 	101325.0082482648
-0.8771271271271271 	300.0000068708908 	1.991145758100688e-05 	101325.008122632
-0.8746246246246248 	300.0000067877337 	1.966990218490513e-05 	101325.00802429
-0.8721221221221224 	300.000006724749 	1.948467772503672e-05 	101325.0079497928
-0.8696196196196196 	300.0000066745445 	1.933635447214554e-05 	101325.0078903734
-0.8671171171171175 	300.0000066271235 	1.919629972354281e-05 	101325.0078342223
-0.8646146146146148 	300.0000065720366 	1.903333878894568e-05 	101325.0077693167
-0.8621121121121121 	300.0000065016633 	1.882880604192902e-05 	101325.0076863038
-0.8596096096096097 	300.0000064126575 	1.857142928001033e-05 	101325.0075811045
-0.857107107107107 	300.0000063067769 	1.826543736361271e-05 	101325.0074559064
-0.8546046046046049 	300.000006190438 	1.793193109178094e-05 	101325.0073181352
-0.8521021021021022 	300.0000060724423 	1.759359237927176e-05 	101325.0071785089
-0.8495995995995997 	300.0000059614295 	1.72742649411368e-05 	101325.0070474574
-0.8470970970970974 	300.0000058630987 	1.699118069801298e-05 	101325.0069316065
-0.8445945945945946 	300.0000057794603 	1.674764556491581e-05 	101325.0068327793
-0.8420920920920922 	300.0000057080557 	1.653876723225456e-05 	101325.0067479549
-0.8395895895895897 	300.0000056425901 	1.634623777756405e-05 	101325.0066701538
-0.8370870870870872 	300.0000055758263 	1.614842731967302e-05 	101325.006590977
-0.8345845845845846 	300.0000055016812 	1.59326057562556e-05 	101325.0065033818
-0.8320820820820823 	300.0000054167969 	1.568800636491154e-05 	101325.0064034876
-0.8295795795795798 	300.0000053214998 	1.541428273049882e-05 	101325.0062913362
-0.8270770770770772 	300.0000052187781 	1.511939447246278e-05 	101325.0061700846
-0.8245745745745746 	300.0000051127473 	1.48129191779285e-05 	101325.0060447757
-0.8220720720720721 	300.0000050075249 	1.45087948226355e-05 	101325.0059201564
-0.8195695695695699 	300.0000049052626 	1.421271149872675e-05 	101325.0057989721
-0.817067067067067 	300.0000048071965 	1.392832038828495e-05 	101325.0056829776
-0.8145645645645651 	300.0000047149294 	1.366194870230965e-05 	101325.0055739385
-0.8120620620620621 	300.0000046291768 	1.341237451933335e-05 	101325.0054724767
-0.8095595595595597 	300.0000045480875 	1.317624252766304e-05 	101325.0053766773
-0.8070570570570572 	300.0000044685723 	1.294599450255252e-05 	101325.0052829447
-0.8045545545545546 	300.0000043883707 	1.271335549564582e-05 	101325.0051881854
-0.8020520520520523 	300.0000043068906 	1.247714559578313e-05 	101325.0050914189
-0.7995495495495494 	300.000004223663 	1.223421483312444e-05 	101325.0049924009
-0.7970470470470474 	300.0000041376981 	1.198293323788043e-05 	101325.0048904235
-0.7945445445445446 	300.0000040487132 	1.172613789332674e-05 	101325.0047853248
-0.7920420420420423 	300.0000039574333 	1.146420905759044e-05 	101325.0046781669
-0.7895395395395397 	300.0000038650129 	1.119915020733394e-05 	101325.0045700415
-0.7870370370370371 	300.0000037709692 	1.09273877297099e-05 	101325.0044597273
-0.7845345345345348 	300.0000036723326 	1.06395537385109e-05 	101325.0043431442
-0.7820320320320323 	300.0000035661635 	1.033016391800752e-05 	101325.0042166342
-0.7795295295295296 	300.0000034521468 	9.99810371561495e-06 	101325.0040804879
-0.7770270270270272 	300.0000033335575 	9.652854343894509e-06 	101325.003939066
-0.7745245245245247 	300.0000032155713 	9.312457290461557e-06 	101325.0037991529
-0.7720220220220222 	300.0000031045689 	8.994390349757535e-06 	101325.0036683662
-0.7695195195195199 	300.0000030076944 	8.719626226596346e-06 	101325.0035549558
-0.767017017017017 	300.0000029323165 	8.506335851634761e-06 	101325.0034668945
-0.7645145145145147 	300.0000028821271 	8.36090668815672e-06 	101325.0034081244
-0.7620120120120122 	300.0000028521861 	8.269829734877233e-06 	101325.003372998
-0.7595095095095097 	300.0000028282854 	8.194291029592998e-06 	101325.003345235
-0.7570070070070072 	300.0000027922857 	8.085558268877623e-06 	101325.0033034341
-0.7545045045045048 	300.0000027298316 	7.905977985451316e-06 	101325.0032306059
-0.7520020020020022 	300.0000026368589 	7.641364682850172e-06 	101325.0031217984
-0.7494994994994997 	300.000002519796 	7.307089068643306e-06 	101325.002983753
-0.7469969969969972 	300.0000023899197 	6.933237088139406e-06 	101325.0028294683
-0.7444944944944945 	300.0000022578535 	6.549725307616345e-06 	101325.0026719687
-0.7419919919919924 	300.0000021310452 	6.180338363784999e-06 	101325.0025204666
-0.7394894894894897 	300.000002014021 	5.84080281137871e-06 	101325.0023810927
-0.7369869869869872 	300.000001911969 	5.545360932286299e-06 	101325.0022599226
-0.7344844844844846 	300.0000018294947 	5.307854859605304e-06 	101325.0021626025
-0.7319819819819822 	300.0000017694919 	5.133853614488262e-06 	101325.0020921486
-0.7294794794794797 	300.0000017289931 	5.015403355925139e-06 	101325.0020450708
-0.7269769769769773 	300.0000016981974 	4.923214108836153e-06 	101325.0020094802
-0.7244744744744747 	300.0000016622905 	4.814173340036766e-06 	101325.001967708
-0.721971971971972 	300.0000016060217 	4.647091127437057e-06 	101325.0019014213
-0.7194694694694695 	300.0000015188133 	4.391172524068797e-06 	101325.0017974799
-0.7169669669669674 	300.000001398326 	4.040865627453172e-06 	101325.001653471
-0.7144644644644647 	300.0000012525879 	3.61917897062352e-06 	101325.0014789773
-0.711961961961962 	300.0000010967216 	3.169652842110601e-06 	101325.0012928038
-0.7094594594594597 	300.0000009486786 	2.74477344435093e-06 	101325.0011168838
-0.7069569569569573 	300.0000008239134 	2.387734981058711e-06 	101325.0009695229
-0.7044544544544545 	300.000000731976 	2.124036938750449e-06 	101325.0008617193
-0.7019519519519523 	300.0000006738567 	1.956409902488773e-06 	101325.0007941898
-0.6994494494494495 	300.00000064159 	1.860398539301455e-06 	101325.0007571975
-0.6969469469469471 	300.0000006206593 	1.795454729564538e-06 	101325.0007331176
-0.6944444444444446 	300.0000005944549 	1.715720672527593e-06 	101325.0007026301
-0.6919419419419421 	300.000000549704 	1.583374720724311e-06 	101325.0006500956
-0.6894394394394396 	300.0000004782148 	1.376970800514198e-06 	101325.0005662594
-0.6869369369369374 	300.0000003787111 	1.09027346443088e-06 	101325.0004491801
-0.6844344344344344 	300.0000002551446 	7.357117044764521e-07 	101325.0003035444
-0.6819319319319321 	300.0000001162404 	3.37751675026931e-07 	101325.0001396716
-0.6794294294294296 	299.9999999740724 	1.933788712001794e-07 	101324.9999714237
-0.6769269269269272 	299.9999998415778 	4.498660249466369e-07 	101324.9998142768
-0.6744244244244245 	299.9999997308796 	7.691339481345012e-07 	101324.9996824389
-0.6719219219219222 	299.9999996492788 	1.005430117168194e-06 	101324.9995852156
-0.6694194194194195 	299.999999597437 	1.159113675683349e-06 	101324.99952333
-0.6669169169169172 	299.9999995667173 	1.253661966309365e-06 	101324.9994870064
-0.6644144144144146 	299.9999995425089 	1.327463329906356e-06 	101324.9994590078
-0.661911911911912 	299.9999995103798 	1.423421963294645e-06 	101324.999421719
-0.6594094094094097 	299.999999460172 	1.569356433905546e-06 	101324.9993628524
-0.656906906906907 	299.9999993881374 	1.777408872608353e-06 	101324.9992778302
-0.6544044044044046 	299.9999992966511 	2.041661749568274e-06 	101324.9991693995
-0.6519019019019021 	299.9999991916525 	2.344302337886149e-06 	101324.9990447648
-0.6493993993993996 	299.999999079465 	2.668653530311451e-06 	101324.9989116988
-0.6468968968968971 	299.9999989650784 	2.99878867620092e-06 	101324.9987762506
-0.6443943943943946 	299.999998852653 	3.323366781330682e-06 	101324.9986431309
-0.6418918918918921 	299.9999987470018 	3.62850624515425e-06 	101324.9985177032
-0.6393893893893897 	299.9999986543899 	3.895500753479472e-06 	101324.9984074602
-0.6368868868868871 	299.9999985820135 	4.104726884390208e-06 	101324.9983212424
-0.6343843843843846 	299.9999985353573 	4.24015565964114e-06 	101324.9982659112
-0.6318818818818821 	299.9999985143431 	4.302510514033574e-06 	101324.9982417522
-0.6293793793793795 	299.9999985113523 	4.314278988840786e-06 	101324.998239231
-0.6268768768768773 	299.9999985109761 	4.319307778099744e-06 	101324.9982398935
-0.6243743743743745 	299.9999984950168 	4.370510438893302e-06 	101324.9982215797
-0.6218718718718721 	299.9999984477345 	4.510994877262034e-06 	101324.998165503
-0.6193693693693696 	299.9999983614675 	4.759711635596018e-06 	101324.998063371
-0.6168668668668671 	299.9999982422788 	5.099371454291378e-06 	101324.9979219891
-0.6143643643643645 	299.999998106885 	5.483270932909869e-06 	101324.9977618388
-0.6118618618618621 	299.9999979773083 	5.850991457397622e-06 	101324.9976091128
-0.6093593593593596 	299.999997872812 	6.148917407520218e-06 	101324.9974860462
-0.6068568568568571 	299.9999978035123 	6.349626997865733e-06 	101324.9974042842
-0.6043543543543546 	299.9999977688412 	6.453875325793359e-06 	101324.9973628913
-0.6018518518518521 	299.9999977593616 	6.488406651357746e-06 	101324.997350795
-0.5993493493493496 	299.9999977612453 	6.490578507105092e-06 	101324.9973521696
-0.5968468468468471 	299.9999977613401 	6.495018045580936e-06 	101324.997351884
-0.5943443443443446 	299.9999977497349 	6.530681277979755e-06 	101324.9973383162
-0.591841841841842 	299.9999977196034 	6.616963396939925e-06 	101324.9973034584
-0.5893393393393397 	299.9999976671821 	6.767133551416729e-06 	101324.997242308
-0.5868368368368371 	299.9999975913664 	6.984935003371038e-06 	101324.9971531594
-0.5843343343343346 	299.999997494999 	7.260030156783501e-06 	101324.9970394655
-0.5818318318318321 	299.9999973869852 	7.567482336107149e-06 	101324.9969117732
-0.5793293293293297 	299.9999972813599 	7.867184332747347e-06 	101324.9967870173
-0.5768268268268271 	299.9999971948753 	8.113322462270712e-06 	101324.996684687
-0.5743243243243245 	299.9999971414007 	8.267074705917224e-06 	101324.996621218
-0.5718218218218221 	299.9999971270499 	8.311454001123092e-06 	101324.9966037767
-0.5693193193193196 	299.9999971467029 	8.261923096835357e-06 	101324.9966261303
-0.5668168168168171 	299.999997184024 	8.163667343864002e-06 	101324.9966693628
-0.5643143143143147 	299.9999972172195 	8.077477963709082e-06 	101324.9967076905
-0.5618118118118121 	299.9999972259657 	8.058800153881305e-06 	101324.9967171324
-0.5593093093093094 	299.9999971977357 	8.141025841073802e-06 	101324.9966834471
-0.5568068068068072 	299.9999971320063 	8.326509063736831e-06 	101324.9966061135
-0.5543043043043046 	299.9999970394073 	8.586504872585533e-06 	101324.9964975244
-0.551801801801802 	299.9999969373781 	8.872569812754319e-06 	101324.9963782866
-0.5492992992992995 	299.9999968451841 	9.131590287339209e-06 	101324.9962704002
-0.5467967967967969 	299.9999967777462 	9.32081961072546e-06 	101324.9961915789
-0.5442942942942947 	299.999996743593 	9.41782411444993e-06 	101324.9961517945
-0.5417917917917919 	299.9999967429849 	9.421320848942053e-06 	101324.9961514886
-0.5392892892892895 	299.9999967691581 	9.349565637787114e-06 	101324.9961825374
-0.536786786786787 	299.9999968106981 	9.233984719146872e-06 	101324.996231582
-0.5342842842842846 	299.9999968542086 	9.112509867996815e-06 	101324.9962829633
-0.531781781781782 	299.9999968864764 	9.023454763984509e-06 	101324.9963209798
-0.5292792792792794 	299.9999968966243 	8.997551946266326e-06 	101324.9963325236
-0.526776776776777 	299.999996877904 	9.053637809886819e-06 	101324.9963097155
-0.5242742742742745 	299.999996830407 	9.190847980725474e-06 	101324.9962525014
-0.521771771771772 	299.9999967616122 	9.387737816270555e-06 	101324.9961700363
-0.5192692692692695 	299.9999966848583 	9.607509152630745e-06 	101324.9960783839
-0.516766766766767 	299.9999966162095 	9.802892587635567e-06 	101324.9959962452
-0.5142642642642645 	299.9999965704112 	9.932682050676643e-06 	101324.9959415033
-0.511761761761762 	299.9999965584414 	9.967195346379368e-06 	101324.9959270153
-0.5092592592592596 	299.9999965834418 	9.896556068057451e-06 	101324.9959565572
-0.506756756756757 	299.9999966393462 	9.738493593143538e-06 	101324.9960232489
-0.5042542542542544 	299.9999967124068 	9.5308395168175e-06 	101324.996110406
-0.5017517517517521 	299.999996783756 	9.327202960411692e-06 	101324.9961958456
-0.4992492492492494 	299.999996836023 	9.177502511038484e-06 	101324.9962588476
-0.496746746746747 	299.9999968571556 	9.115477671530926e-06 	101324.9962850408
-0.4942442442442445 	299.9999968430955 	9.153020509947297e-06 	101324.9962694026
-0.4917417417417421 	299.9999967988578 	9.273934770649465e-06 	101324.9962178437
-0.4892392392392395 	299.9999967373311 	9.444755772296264e-06 	101324.9961455381
-0.486736736736737 	299.9999966753664 	9.617054427745747e-06 	101324.9960725676
-0.4842342342342345 	299.999996630111 	9.74288355027246e-06 	101324.9960192012
-0.481731731731732 	299.9999966151286 	9.785524325225231e-06 	101324.9960011423
-0.4792292292292296 	299.99999663644 	9.723794374849218e-06 	101324.9960261075
-0.4767267267267268 	299.9999966931295 	9.562777221554577e-06 	101324.9960929544
-0.4742242242242246 	299.9999967774048 	9.323741102712425e-06 	101324.9961921237
-0.471721721721722 	299.9999968757405 	9.044739017865434e-06 	101324.9963081358
-0.4692192192192195 	299.9999969741306 	8.765972499242056e-06 	101324.9964241112
-0.4667167167167169 	299.9999970604744 	8.51896282026448e-06 	101324.9965260486
-0.4642142142142145 	299.9999971270029 	8.329069397862878e-06 	101324.996604261
-0.461711711711712 	299.9999971697129 	8.20455686242272e-06 	101324.9966545473
-0.4592092092092094 	299.9999971888285 	8.148760998254042e-06 	101324.9966770114
-0.456706706706707 	299.999997187016 	8.153857194203202e-06 	101324.9966747079
-0.4542042042042045 	299.9999971689035 	8.202863347055512e-06 	101324.9966534774
-0.451701701701702 	299.9999971426653 	8.276123543480852e-06 	101324.9966224046
-0.4491991991991995 	299.9999971175856 	8.344837735542112e-06 	101324.9965926881
-0.4466966966966969 	299.999997103675 	8.38243162953863e-06 	101324.9965761584
-0.4441941941941945 	299.9999971089327 	8.36630091733443e-06 	101324.9965821133
-0.441691691691692 	299.9999971363197 	8.287503992539062e-06 	101324.9966144668
-0.4391891891891895 	299.9999971844567 	8.151440052553606e-06 	101324.996671229
-0.436686686686687 	299.9999972471133 	7.972397541002659e-06 	101324.9967454009
-0.4341841841841846 	299.999997317088 	7.772365374542151e-06 	101324.9968281743
-0.431681681681682 	299.9999973872792 	7.568831274480816e-06 	101324.9969114318
-0.4291791791791794 	299.9999974538964 	7.37595329210048e-06 	101324.9969903619
-0.426676676676677 	299.9999975158196 	7.196710210297053e-06 	101324.9970636938
-0.4241741741741744 	299.9999975752721 	7.023527154027219e-06 	101324.9971338277
-0.421671671671672 	299.9999976354717 	6.848344641308277e-06 	101324.9972047938
-0.4191691691691694 	299.9999976994792 	6.662832128810759e-06 	101324.9972801855
-0.4166666666666669 	299.9999977681738 	6.464907930744064e-06 	101324.9973611719
-0.4141641641641645 	299.9999978399738 	6.258160811246296e-06 	101324.9974461488
-0.411661661661662 	299.999997912633 	6.049249748048823e-06 	101324.9975318183
-0.4091591591591594 	299.9999979832182 	5.845054903782227e-06 	101324.9976152643
-0.406656656656657 	299.9999980507612 	5.649117385346607e-06 	101324.9976952756
-0.4041541541541545 	299.9999981154967 	5.461784919682771e-06 	101324.997771715
-0.401651651651652 	299.9999981775569 	5.280436692622407e-06 	101324.9978454833
-0.3991491491491494 	299.999998238902 	5.101943447087683e-06 	101324.9979180839
-0.396646646646647 	299.9999983004837 	4.921692372455169e-06 	101324.9979912821
-0.3941441441441444 	299.9999983648569 	4.733478600425577e-06 	101324.9980676692
-0.3916416416416419 	299.9999984340283 	4.532024453032079e-06 	101324.9981499003
-0.3891391391391395 	299.999998508941 	4.314377195240524e-06 	101324.9982386818
-0.3866366366366368 	299.9999985885403 	4.084145312677342e-06 	101324.9983329164
-0.3841341341341344 	299.9999986705634 	3.848270135023917e-06 	101324.9984297721
-0.381631631631632 	299.9999987523565 	3.612251897923429e-06 	101324.9985263546
-0.3791291291291294 	299.9999988328897 	3.38004541247938e-06 	101324.9986210921
-0.3766266266266269 	299.9999989120784 	3.151432386512875e-06 	101324.9987142417
-0.3741241241241244 	299.9999989901908 	2.926026195675632e-06 	101324.9988060914
-0.371621621621622 	299.999999067421 	2.703212270164526e-06 	101324.9988970049
-0.3691191191191194 	299.9999991444409 	2.480561111422202e-06 	101324.9989877136
-0.366616616616617 	299.9999992225185 	2.254217686825563e-06 	101324.9990797975
-0.3641141141141143 	299.9999993036769 	2.017985364808271e-06 	101324.9991757608
-0.3616116116116119 	299.999999389987 	1.767943981962375e-06 	101324.9992778167
-0.3591091091091095 	299.9999994812609 	1.504372092028183e-06 	101324.9993857907
-0.356606606606607 	299.9999995752201 	1.232577778156991e-06 	101324.9994971301
-0.3541041041041044 	299.9999996694165 	9.598356507560144e-07 	101324.9996087477
-0.3516016016016019 	299.9999997623128 	6.896671884253813e-07 	101324.9997188316
-0.3490990990990994 	299.9999998539339 	4.230518225636491e-07 	101324.9998274589
-0.346596596596597 	299.9999999449615 	1.5935910616509e-07 	101324.9999352245
-0.3440940940940944 	300.0000000350272 	1.355332021279919e-07 	101325.0000418698
-0.3415915915915919 	300.000000123849 	3.598881841303876e-07 	101325.0001470511
-0.3390890890890895 	300.0000002127849 	6.187143480775384e-07 	101325.0002522924
-0.3365865865865869 	300.0000003044704 	8.846962683444328e-07 	101325.0003605453
-0.3340840840840844 	300.0000004004248 	1.162340436589022e-06 	101325.0004739477
-0.3315815815815819 	300.0000005000888 	1.44962613459448e-06 	101325.0005916519
-0.3290790790790794 	300.0000006002768 	1.738653755673026e-06 	101325.0007100575
-0.3265765765765769 	300.0000006979439 	2.02184045106566e-06 	101325.0008256744
-0.3240740740740744 	300.0000007931712 	2.298189236236062e-06 	101325.0009380637
-0.3215715715715718 	300.000000888001 	2.573885897816848e-06 	101325.0010501093
-0.3190690690690695 	300.000000985368 	2.85659070878462e-06 	101325.0011653343
-0.3165665665665668 	300.000001086671 	3.149041557683892e-06 	101325.0012849224