/*--------------------------------*- C++ -*----------------------------------*\
  =========                 |
  \\      /  F ield         | OpenFOAM: The Open Source CFD Toolbox
   \\    /   O peration     | Website:  https://openfoam.org
    \\  /    A nd           | Version:  7
     \\/     M anipulation  |
\*---------------------------------------------------------------------------*/
FoamFile
{
    version     2.0;
    format      ascii;
    class       volScalarField;
    location    "0.00166";
    object      Uy;
}
// * * * * * * * * * * * * * * * * * * * * * * * * * * * * * * * * * * * * * //

dimensions      [0 1 -1 0 0 0 0];

internalField   nonuniform List<scalar> 
5000
(
1.6906765e-18
6.6371082e-18
0
0
-7.4033222e-18
1.0086752e-32
1.0325528e-17
0
0
-1.4697982e-17
-3.230838e-17
1.7609586e-17
1.9064162e-17
-2.051779e-17
0
-2.3421935e-17
1.1173371e-45
2.6321475e-17
0
2.9215837e-17
-3.0660897e-17
-3.2104446e-17
6.7092822e-17
-3.4986716e-17
-3.6425287e-17
-3.120702e-31
3.9296923e-17
4.0729832e-17
-8.4321395e-17
7.5572069e-31
-7.8685007e-31
4.6440227e-17
9.5724217e-17
-9.8563075e-17
8.7897098e-31
-4.5322639e-30
-1.8559263e-30
1.0986606e-16
-1.1267784e-16
-1.1548368e-16
1.1828342e-16
-4.1638664e-30
-1.2386388e-16
6.332213e-17
1.9412675e-16
-6.6092221e-17
-6.7471956e-17
-4.715837e-30
-1.4044074e-16
0
7.2953497e-17
1.0560672e-32
-7.5670674e-17
1.5404616e-16
-2.7397574e-30
-1.5943025e-16
8.1054604e-17
-2.8451094e-30
-8.3720096e-17
0
8.6367117e-17
2.9905384e-30
2.5293919e-32
9.0301699e-17
-9.1603344e-17
3.2476609e-30
9.4191371e-17
-9.547761e-17
-9.6758572e-17
9.8034185e-17
9.930438e-17
-1.0056909e-16
-1.0182824e-16
2.0616353e-16
1.043296e-16
-1.0557168e-16
0
1.080383e-16
-1.5527165e-32
-1.1048111e-16
1.1169342e-16
-3.2087996e-32
3.2429045e-32
1.1529324e-16
1.1648061e-16
4.096576e-30
-1.1883614e-16
0
-1.2116564e-16
-1.2689435e-29
-4.3163049e-30
1.2461014e-16
1.2574482e-16
-2.5374534e-16
-8.8580379e-30
1.2910767e-16
0
0
-1.3240766e-16
-9.2576345e-30
2.691442e-16
-1.3564351e-16
-2.7341533e-16
0
1.3881401e-16
1.3985613e-16
-1.4089081e-16
-1.4191803e-16
0
0
1.4495453e-16
1.4595153e-16
0
-1.4792249e-16
5.2052263e-30
1.4986268e-16
-1.5082114e-16
4.3136133e-32
-5.338704e-30
4.5854478e-47
3.0915332e-16
-6.629187e-32
-1.5640712e-16
0
-1.582058e-16
1.5909316e-16
1.5997251e-16
-3.2168768e-16
-1.6170713e-16
3.251247e-16
1.634095e-16
-1.6424855e-16
-1.650795e-16
-1.6590233e-16
0
1.675236e-16
1.6832203e-16
-1.6911233e-16
-5.8910019e-30
1.7066829e-16
-1.7143397e-16
-1.7219155e-16
0
1.7368213e-16
1.7441507e-16
-1.7513982e-16
1.758564e-16
-1.0036545e-31
-1.7726493e-16
1.7795689e-16
-1.7864065e-16
1.248636e-29
1.7998359e-16
-1.8064278e-16
1.8129377e-16
1.8193659e-16
-1.8257124e-16
0
0
-1.8442621e-16
-1.8502826e-16
1.856222e-16
1.8620801e-16
-1.8678562e-16
-1.2992882e-29
1.8791653e-16
-1.8847001e-16
-1.8901539e-16
0
1.9008182e-16
1.9060303e-16
0
-1.9162145e-16
-1.9211865e-16
0
1.930892e-16
4.0270093e-29
-1.94028e-16
1.9448553e-16
1.9493518e-16
-1.9537695e-16
-1.352363e-29
1.3497285e-29
8.3839184e-32
1.9706578e-16
-1.9746852e-16
-2.7443243e-29
1.363577e-29
-1.3661866e-29
1.9900166e-16
0
0
-2.0007069e-16
-2.0041173e-16
0
0
2.0138919e-16
-1.6509672e-47
-2.0200291e-16
0
2.0258647e-16
-2.0286698e-16
-5.6292464e-29
4.0681112e-16
-2.0366369e-16
-4.2336821e-29
-2.9012547e-32
-2.0439357e-16
2.0462199e-16
-2.9109929e-32
-2.8382648e-29
1.4205618e-29
-2.0546233e-16
0
2.0583849e-16
1.4257701e-29
5.7224368e-29
2.0634846e-16
0
-2.0665226e-16
-2.0679339e-16
0
0
0
2.0728622e-16
1.4352927e-29
-2.0749001e-16
0
0
2.0774264e-16
2.0781251e-16
-2.0787535e-16
-2.0793151e-16
0
2.0802278e-16
2.0805775e-16
-2.0808586e-16
-2.0810707e-16
0
2.0812853e-16
-5.7793138e-29
-1.4433008e-29
2.0810752e-16
-2.0808671e-16
-2.0805905e-16
0
2.0798317e-16
-2.8899253e-29
2.0787998e-16
2.8823954e-29
-4.1549917e-16
2.0767416e-16
-2.8792574e-29
-7.203905e-29
-1.4354007e-29
-2.0730483e-16
2.0719563e-16
2.0707968e-16
0
-2.0682766e-16
-2.0669158e-16
0
2.0639936e-16
2.0624322e-16
-4.1216085e-16
-2.0591096e-16
2.0573484e-16
2.055521e-16
5.696677e-29
-2.051667e-16
2.0496408e-16
-1.4199537e-29
-2.0453895e-16
2.0431648e-16
-1.4182257e-29
1.4194855e-29
-5.7869353e-32
-1.4045072e-29
2.0310562e-16
0
0
-2.0230045e-16
-2.0201899e-16
0
0
0
0
2.0051408e-16
1.3797875e-29
-3.9973341e-16
8.506617e-32
1.9919346e-16
1.9884713e-16
-2.7558965e-29
-2.7452783e-29
-2.8104745e-32
-1.9739752e-16
-1.9701906e-16
-1.9663419e-16
3.9248587e-16
5.8753587e-16
-1.9544126e-16
-3.9006173e-16
0
1.94191e-16
1.9376154e-16
-1.9332576e-16
5.482083e-32
-8.2040073e-32
5.4564143e-32
1.915195e-16
1.910522e-16
-1.9057861e-16
-3.8019758e-16
1.8961273e-16
2.2334224e-47
1.8862192e-16
5.212947e-29
-3.7521256e-16
0
0
3.7207306e-16
-1.0301987e-28
-3.6991867e-16
0
1.8385774e-16
1.8329784e-16
-1.8273189e-16
2.588648e-32
-2.5210843e-29
2.5721352e-32
1.8040796e-16
-1.7981205e-16
-1.7921022e-16
0
1.7798884e-16
-2.4625969e-29
-1.7674401e-16
3.5222574e-16
-4.8676302e-29
-1.7483324e-16
-4.8367654e-29
-3.4706132e-16
3.4574167e-16
1.7220536e-16
-1.7153426e-16
-2.4280322e-32
-1.7017532e-16
0
0
1.6809551e-16
-2.3216835e-29
-3.3336357e-16
2.358531e-32
4.9573987e-16
-1.645211e-16
-1.6379033e-16
3.2610873e-16
-1.6231323e-16
1.6156698e-16
3.216313e-16
-1.6005929e-16
-1.5929793e-16
-1.5853163e-16
1.5776044e-16
7.2882936e-47
-1.5620353e-16
1.5541793e-16
-1.5462762e-16
1.5383267e-16
4.2407262e-29
4.3266089e-32
1.5142043e-16
-3.0121482e-16
1.4979001e-16
4.1365531e-29
-4.1094069e-29
-1.4731214e-16
-2.9295565e-16
4.369183e-16
4.01661e-29
-7.9862648e-29
3.9654799e-29
-2.8449275e-16
2.8277713e-16
-3.8981633e-29
-2.7932396e-16
0
0
1.3704573e-16
-1.8886069e-29
-1.3528483e-16
-1.3439959e-16
1.3351125e-16
3.978597e-16
-1.3172562e-16
-1.3082848e-16
-3.6927919e-32
-1.2902596e-16
0
2.5442603e-16
2.5260569e-16
-1.2539033e-16
-2.4895109e-16
-1.2355859e-16
2.4527909e-16
2.4343702e-16
-2.4159114e-16
-2.3974164e-16
0
2.3603251e-16
-1.1708663e-16
-2.3231114e-16
1.1522317e-16
1.1428952e-16
-1.6108675e-32
1.5608241e-29
1.1148205e-16
-1.1054437e-16
-1.0960594e-16
1.0866685e-16
-1.4941544e-29
-1.517537e-32
-1.4680734e-29
-1.0490622e-16
1.0396553e-16
-4.2911916e-29
-1.4173378e-29
-2.8071238e-29
-1.0020358e-16
9.9263813e-17
-1.3651396e-29
-2.7000657e-29
-1.3706111e-32
-1.9102207e-16
-9.4574848e-17
9.3639799e-17
1.8541187e-16
-1.2741803e-29
-1.8168369e-16
-8.9911938e-17
1.7796741e-16
8.8057168e-17
-8.7132327e-17
-8.6209296e-17
-2.367074e-29
8.4369465e-17
0
0
8.1626559e-17
0
-7.9810462e-17
7.8906505e-17
1.1085225e-32
-2.1400149e-29
0
-7.5319932e-17
7.443116e-17
7.3545745e-17
-1.4532764e-16
-7.178546e-17
7.0910686e-17
0
0
-6.8309101e-17
1.8739084e-29
6.6594775e-17
0
0
-6.4054784e-17
2.6340151e-29
6.238375e-17
0
0
0
0
0
0
0
0
1.1020474e-16
3.0151192e-29
-5.3541099e-17
5.2768686e-17
-5.2001856e-17
5.1240609e-17
-1.4033019e-29
-4.9735031e-17
-1.3603811e-29
-4.8252771e-17
0
0
4.6073673e-17
1.2595395e-29
-4.4651238e-17
0
0
0
0
0
0
0
7.8420945e-17
-3.2099348e-29
-7.5828382e-17
3.7275778e-17
5.2074071e-33
3.601854e-17
-1.9629472e-29
-6.9575451e-17
-3.4182221e-17
-2.862766e-47
9.8973455e-17
0
-6.3653487e-17
0
0
6.0260434e-17
-8.2048386e-30
-8.7097822e-17
2.8493808e-17
2.7961713e-17
-2.7436311e-17
2.6917573e-17
-2.6405487e-17
-7.1845695e-30
2.5401274e-17
-2.4909109e-17
0
-2.3944593e-17
2.3472198e-17
4.6012689e-17
-2.2547027e-17
-2.2094232e-17
-2.1647915e-17
-2.1208023e-17
4.1549085e-17
2.0347467e-17
-1.9926735e-17
0
1.9104085e-17
-1.8702179e-17
-1.8306522e-17
5.3751138e-17
4.9833754e-33
-3.4312866e-17
1.678524e-17
2.2797633e-30
1.6060868e-17
-4.464369e-33
-3.0720484e-17
1.5018756e-17
0
-3.9856076e-30
-1.9936529e-33
-1.3710603e-17
1.3397642e-17
-3.634868e-30
-1.7736862e-30
-1.7751572e-33
-1.2200241e-17
1.1914123e-17
1.3386817e-47
-3.1538282e-30
-1.5756175e-33
-2.1644275e-17
-1.4649098e-30
1.0306594e-17
0
0
-9.5701586e-18
-3.8839477e-30
9.1031914e-18
-8.8767893e-18
1.2016619e-30
4.1392435e-47
-1.1419565e-30
8.0164391e-18
7.8120053e-18
1.0557401e-30
-7.4159048e-18
0
0
6.852924e-18
-6.6732654e-18
5.4090398e-30
6.3257313e-18
-6.1577061e-18
0
5.8326942e-18
5.6754878e-18
-5.5218382e-18
-5.3717583e-18
0
5.0820192e-18
4.9421987e-18
-9.6113122e-18
-4.6722523e-18
4.5418605e-18
4.4144921e-18
5.9504302e-31
4.1689855e-18
1.1248057e-30
-7.8706904e-18
0
0
0
3.5017931e-18
3.3999493e-18
0
-3.2036292e-18
-4.308175e-31
3.0175564e-18
0
0
-2.7558655e-18
-3.7077074e-31
3.5923149e-31
-2.5141471e-18
2.4377007e-18
-9.834169e-31
-2.291277e-18
0
-2.1522665e-18
-2.8954757e-31
2.020636e-18
-1.9576619e-18
1.8964487e-18
1.8369658e-18
-1.7791142e-18
0
1.6679118e-18
1.6146882e-18
-1.5631406e-18
-1.5131288e-18
0
-1.4169161e-18
1.3707585e-18
1.3260634e-18
-1.2828511e-18
-2.4819643e-18
6.6657519e-31
3.4818138e-18
1.8277367e-48
-1.0846858e-18
-2.0968949e-18
5.621839e-31
1.9585755e-18
-9.4631008e-19
9.1436504e-19
-8.8341934e-19
-8.5342491e-19
1.6486735e-18
0
0
-1.4844665e-18
-9.7136693e-48
1.3835344e-18
0
0
-1.2435718e-18
-8.2487625e-48
1.1578366e-18
0
0
-1.039161e-18
-5.0099417e-19
9.6609731e-19
4.6575342e-19
0
-8.6586201e-19
2.3175106e-31
8.0431754e-19
-3.874991e-19
0
3.5965077e-19
-3.4648279e-19
4.7431579e-35
3.2147213e-19
-3.0958558e-19
2.9811072e-19
2.8701711e-19
-2.7628085e-19
-2.6592836e-19
7.1081772e-32
2.4640985e-19
-2.3713482e-19
-6.3345958e-32
2.1941352e-19
-2.1105671e-19
2.0306136e-19
1.9535656e-19
-1.8786935e-19
-1.8060165e-19
4.8208688e-32
1.6692993e-19
-1.6051163e-19
2.1926481e-35
1.4825045e-19
-1.4241141e-19
1.3682696e-19
1.3149509e-19
-1.2636028e-19
-2.4274829e-19
6.4748705e-32
2.2372408e-19
-1.0741018e-19
1.4659372e-35
1.9809283e-19
2.7015403e-35
-9.1196014e-20
0
8.3982616e-20
0
-7.7270252e-20
0
0
0
-6.5333037e-20
-1.2940553e-49
5.9972149e-20
0
5.5035846e-20
-1.463093e-32
-5.043759e-20
0
0
0
-4.2374933e-20
1.1241666e-32
3.8679387e-20
0
3.5390127e-20
9.3919541e-33
-3.2313543e-20
0
2.9388153e-20
-2.8058691e-20
1.489376e-32
2.5585476e-20
-2.4375197e-20
0
-2.2053631e-20
-5.835099e-33
2.0037133e-20
0
1.8139581e-20
-1.7216657e-20
-9.0807108e-33
1.5549807e-20
-8.2095865e-33
-1.9945809e-36
3.6949586e-33
-1.790754e-36
-1.1949814e-20
0
1.0717746e-20
-2.8149516e-33
-2.6690578e-33
2.3208475e-50
-2.2172834e-33
0
-1.3667645e-20
-1.9356416e-33
6.3355233e-21
-5.7963631e-21
1.6168813e-33
5.7059265e-21
5.4513124e-21
1.41638e-33
-1.3125009e-33
4.4385409e-21
-4.2415553e-21
-4.0616016e-21
0
-3.5990982e-21
9.295595e-34
3.1771938e-21
0
0
0
-5.2343843e-21
2.7511932e-33
4.8002991e-21
0
0
0
0
0
0
0
-3.9520453e-21
1.067813e-33
3.7503505e-21
1.8814001e-21
-1.9346865e-21
-1.9983818e-21
5.654606e-34
1.1278312e-33
2.0321355e-21
-2.0774932e-21
2.1750513e-21
2.2960506e-21
-2.3863598e-21
-2.4147076e-21
1.351418e-33
2.5017341e-21
2.6298982e-21
-7.7724519e-34
-2.9576995e-21
-3.0929668e-21
3.2050616e-21
3.2972414e-21
-3.3779892e-21
3.4510731e-21
0
-3.7019099e-21
-3.8804252e-21
1.1158241e-33
4.1345958e-21
-4.2165302e-21
4.308911e-21
4.4330073e-21
-4.5869064e-21
4.6986354e-21
1.2947147e-33
-4.6623625e-21
-4.821472e-21
-7.1065979e-37
1.0314241e-20
2.9168113e-33
-5.2407898e-21
-5.146541e-21
0
5.3082676e-21
0
0
0
4.9163964e-21
5.1880261e-21
-5.3962108e-21
-5.53635e-21
0
4.695967e-21
-1.308953e-33
-4.8899037e-21
0
0
5.3055506e-21
-2.6893083e-33
-4.4141665e-21
0
0
4.8089019e-21
-2.7013462e-33
-4.8409729e-21
0
4.5959999e-21
-1.2251079e-33
1.1960087e-33
-1.1935347e-33
-4.2618614e-21
0
-4.0710047e-21
2.1349339e-33
3.6990369e-21
0
3.7230001e-21
-3.6751221e-21
-3.5685535e-21
6.8308888e-21
9.1212822e-34
-6.4273058e-21
8.8646677e-34
3.1576688e-21
0
0
2.9465807e-21
-7.9524997e-34
-2.7750243e-21
0
2.6245193e-21
-2.5887509e-21
-2.5523842e-21
2.4863002e-21
0
-2.332075e-21
2.3059997e-21
1.2748033e-33
-1.2564725e-33
2.1870163e-21
-1.7514368e-33
2.0400804e-21
-2.0087332e-21
5.5817902e-34
-1.1202238e-33
-4.0160991e-21
5.4713587e-34
1.9065691e-21
0
0
0
-3.6975836e-21
-1.8594205e-21
3.6495259e-21
1.7669896e-21
0
0
1.7796269e-21
-5.8883062e-52
-1.8343282e-21
0
-3.5586907e-21
-1.7886164e-21
3.6729987e-21
1.8967019e-21
0
-3.838192e-21
-5.4081743e-37
5.7416706e-21
-5.4464711e-34
-4.0910948e-21
2.105737e-21
1.2088472e-36
-2.1290364e-21
5.9291698e-34
1.2046262e-33
2.246694e-21
0
2.3816429e-21
-1.3305186e-33
-4.8056224e-21
2.4229602e-21
-4.117824e-33
-2.5603461e-21
5.260145e-21
-3.7761289e-37
-2.6678221e-21
0
0
0
-2.8239948e-21
2.8560047e-21
5.7366188e-21
-2.8723993e-21
-8.0124151e-34
-8.082149e-34
-2.9464815e-21
0
2.9531189e-21
-4.1872521e-37
-5.911068e-21
2.9788457e-21
1.6533586e-33
-2.9549174e-21
-2.9266625e-21
1.6192024e-33
5.8395263e-21
0
2.8814998e-21
2.8320903e-21
0
-2.7847023e-21
-2.7752795e-21
2.7359526e-21
0
-2.5899812e-21
0
0
2.6011214e-21
-2.1033336e-33
-2.4300824e-21
0
0
2.3154343e-21
2.3474769e-21
-2.3303889e-21
-2.2600276e-21
2.1676886e-21
2.0736488e-21
-4.0402592e-21
-2.0262682e-21
5.6998289e-34
2.0555846e-21
-1.122963e-33
-1.0876748e-33
1.8967517e-21
-1.8500145e-21
1.833371e-21
-1.8479214e-21
-1.5792884e-36
1.8310126e-21
-3.5865285e-21
-1.7552333e-21
-1.7409133e-21
3.5072436e-21
3.54021e-21
-1.7669643e-21
1.7361617e-21
-1.7012669e-21
9.3882434e-34
3.4214551e-21
-1.7507082e-21
4.9277345e-34
-4.9224361e-34
-1.7542959e-21
0
0
1.7728867e-21
1.8062457e-21
0
-1.8471549e-21
-1.8485258e-21
0
-1.8617162e-21
5.2254792e-34
1.9083237e-21
-1.9309766e-21
5.3971143e-34
1.955239e-21
0
1.9950167e-21
1.1189631e-33
-2.0168918e-21
2.0068968e-21
-5.5702713e-34
-2.0371222e-21
-2.0838937e-21
-5.8695658e-34
2.1063874e-21
0
-2.071318e-21
2.0850113e-21
-6.069693e-37
1.2060916e-33
2.1740802e-21
-2.1531955e-21
0
-4.2254666e-21
4.7477798e-33
2.1841907e-21
1.2252914e-33
4.3961336e-21
-4.3539357e-21
-4.3056701e-21
4.2882426e-21
4.3261647e-21
2.1869779e-21
0
-2.1799107e-21
-4.308384e-21
3.0359318e-37
-2.1377795e-21
2.1570072e-21
2.1697079e-21
-2.1570667e-21
4.2682387e-21
-4.228105e-21
-3.5039504e-33
4.2266381e-21
-4.2483914e-21
1.1772594e-33
-2.1057955e-21
2.0872384e-21
2.0725586e-21
-2.0582023e-21
-5.6548833e-34
-4.0443328e-21
4.0404059e-21
4.0632373e-21
-4.0745477e-21
-5.617053e-34
-2.0006126e-21
1.1001031e-33
1.9678615e-21
5.4339833e-34
2.8670258e-52
1.9440102e-21
3.8948988e-21
-1.9384595e-21
-1.7952956e-50
-1.881297e-21
-3.0684088e-33
1.8273166e-21
-3.7033363e-21
1.0473868e-33
3.7826365e-21
3.076092e-51
-1.7969794e-21
0
0
-1.7765775e-21
1.8161187e-21
3.6501939e-21
0
0
0
-1.695206e-21
-1.7104558e-21
0
1.765006e-21
-1.7594763e-21
-2.8795719e-33
3.3977577e-21
0
0
0
-1.7165746e-21
-1.7273591e-21
1.7260577e-21
-1.7151216e-21
-9.4563053e-34
3.386491e-21
0
0
-3.4410357e-21
4.9319625e-37
1.7289487e-21
-1.7167686e-21
1.7099522e-21
-1.717488e-21
9.7094296e-34
3.5452341e-21
0
0
-1.7561946e-21
-1.7656169e-21
0
0
1.8510031e-21
1.8411123e-21
0
-1.8187924e-21
-1.853286e-21
1.9110675e-21
-1.9530371e-21
-1.9656255e-21
1.9580773e-21
1.9478782e-21
-1.0806888e-33
-1.9694219e-21
2.0201861e-21
5.7385647e-34
-2.0918801e-21
0
-2.0919212e-21
1.1607208e-33
2.0991236e-21
-2.1358289e-21
1.2079589e-33
2.200024e-21
0
-2.2049394e-21
6.1203694e-34
3.150361e-37
-2.2471685e-21
2.2767683e-21
2.289386e-21
0
-4.5760417e-21
2.5490749e-33
2.3097554e-21
3.2996511e-37
4.651411e-21
-4.6268042e-21
-4.6049563e-21
4.6267974e-21
2.3299778e-21
0
-4.6537252e-21
3.8349477e-33
4.5669937e-21
0
-4.5912322e-21
-1.2721456e-33
2.2544524e-21
6.1515722e-34
4.4087674e-21
-4.4542292e-21
-5.583075e-33
4.4270781e-21
-4.3565761e-21
1.1765585e-33
4.15939e-21
2.087563e-21
-4.2150209e-21
-2.107076e-21
4.1447641e-21
-4.0489837e-21
-4.9263103e-33
3.8764368e-21
-3.8811546e-21
5.4126381e-34
-1.9362701e-21
2.100015e-33
5.5259102e-21
-9.9416758e-34
-3.5065233e-21
1.7444585e-21
3.4923607e-21
-1.7305859e-21
9.3836913e-34
-1.6425253e-21
-1.7702822e-33
1.5596427e-21
-3.1018888e-21
1.2905629e-33
-1.6988704e-33
8.2056877e-34
1.4219792e-21
0
1.3484059e-21
1.3525281e-21
0
0
0
0
0
-1.1664517e-21
-1.1571704e-21
0
1.1444494e-21
-1.127313e-21
-1.8319652e-33
2.122287e-21
0
0
0
-9.5422405e-22
-9.5328919e-22
9.4670449e-22
9.2915875e-22
-1.8014686e-21
-1.4483444e-33
1.6866082e-21
0
-1.617862e-21
-1.3323937e-33
7.9196789e-22
-7.7767795e-22
7.5431891e-22
-7.287652e-22
-3.9372833e-34
1.4020478e-21
0
0
-6.9750151e-22
-6.828922e-22
0
-6.4311976e-22
-1.770032e-37
-6.0605697e-22
6.0026607e-22
1.8250914e-21
0
1.2753768e-21
1.2702481e-21
0
-1.748348e-21
-1.1334363e-21
1.1475955e-21
-5.9640346e-22
-6.1991528e-22
1.9013633e-21
6.3572423e-22
8.9504967e-38
6.2374171e-22
-6.241971e-22
-6.3309922e-22
-6.4959756e-22
1.0304346e-51
-6.9218426e-22
-7.0744017e-22
7.1452362e-22
0
1.4616943e-21
1.5031415e-21
0
-8.0612306e-22
-1.6515674e-21
-4.6482502e-34
-8.514898e-22
-1.7509258e-21
1.8167955e-21
1.8886119e-21
9.7216071e-22
9.8733494e-22
0
-1.0262876e-21
-3.1793519e-21
1.1018509e-21
-1.247958e-49
-3.4758663e-21
2.3498178e-21
1.1966543e-21
1.2283032e-21
2.5398769e-21
-2.6200759e-21
-1.3392456e-21
1.3586475e-21
1.3775975e-21
1.4032056e-21
-4.3119122e-21
-1.4782733e-21
4.5380841e-21
1.531849e-21
-1.5462827e-21
-3.1293235e-21
1.5878516e-21
-1.6188107e-21
2.7488686e-33
-2.7901155e-33
-5.0804718e-21
1.7119251e-21
1.728962e-21
3.4875964e-21
1.7557024e-21
-3.5298972e-21
-5.038444e-37
-1.7840596e-21
1.8018103e-21
5.4536724e-21
-5.4671462e-21
-1.8204921e-21
5.4513507e-21
0
-5.4727741e-21
-1.8318022e-21
5.488366e-21
-1.8167799e-21
-3.6077887e-21
-9.9886676e-34
2.0031683e-33
1.8078523e-21
0
3.5579508e-21
3.51981e-21
-1.7445297e-21
-1.7352764e-21
-3.4477859e-21
1.7062966e-21
1.6803174e-21
-3.3171276e-21
0
3.2840814e-21
3.2440207e-21
-1.592624e-21
-3.1115509e-21
8.4732237e-34
1.5149601e-21
-3.02959e-21
1.5066383e-21
-4.9407692e-33
-2.9021021e-21
1.4169073e-21
0
2.7506356e-21
0
-3.0263915e-33
-1.3448896e-21
-2.6371476e-21
3.8714804e-21
-3.60713e-37
-2.5161485e-21
0
2.4875124e-21
1.2256499e-21
-2.4069719e-21
1.3193669e-33
1.1838587e-21
-2.3723581e-21
1.1823857e-21
-1.937442e-33
-2.2842924e-21
1.1289565e-21
-1.1295879e-21
2.2890617e-21
3.4668472e-21
0
-3.4108705e-21
-2.2441439e-21
3.3574673e-21
2.2630116e-21
-1.1544527e-21
-2.3398409e-21
1.1709041e-21
1.1632763e-21
-2.3142881e-21
1.1621135e-21
2.3622472e-21
-1.209044e-21
1.7451937e-37
-2.4641689e-21
-2.4577187e-21
3.6809151e-21
-1.2359218e-21
-2.0976109e-33
3.8743496e-21
0
-3.9659432e-21
-2.6487872e-21
1.3282626e-21
1.3395103e-21
1.3615588e-21
0
1.4087679e-21
-7.8633609e-34
-2.8430027e-21
7.9283922e-34
1.4402627e-21
0
1.4825722e-21
-2.9866681e-21
-4.4962516e-21
3.0064582e-21
4.5324945e-21
1.5251831e-21
-1.5418633e-21
-3.0991709e-21
1.550798e-21
-1.550863e-21
-1.5547958e-21
3.1369943e-21
-3.1623381e-21
-1.5791415e-21
4.7102161e-21
3.1159999e-21
-1.5535925e-21
-4.7110977e-21
3.5218877e-33
-3.5249951e-33
-1.5743543e-21
-1.7238479e-33
-1.5339776e-21
1.5317663e-21
1.5475103e-21
1.5594884e-21
-1.556333e-21
-1.5400607e-21
4.5633306e-21
-1.5025944e-21
-2.9781619e-21
4.4602211e-21
4.2281005e-37
-1.4823442e-21
2.9352989e-21
1.4479303e-21
0
-1.4069357e-21
-1.3913656e-21
-2.7684432e-21
1.3758513e-21
-4.5338741e-33
-4.0208309e-21
1.3143533e-21
1.292331e-21
1.2799894e-21
-1.2727776e-21
-1.2614443e-21
3.7171768e-21
-1.2110421e-21
-2.3748761e-21
-1.9543256e-33
-1.168606e-21
2.3194618e-21
3.4190106e-21
6.188749e-34
-6.0613101e-34
-1.5280886e-37
-1.0677174e-21
-2.1201834e-21
-1.0460618e-21
3.0824462e-21
-1.1199445e-33
-1.9895296e-21
0
0
9.5654254e-22
-5.2209505e-34
5.1646115e-34
9.2896603e-22
-1.8540976e-21
-9.1699944e-22
-9.9601714e-34
8.7771104e-22
2.6054312e-21
8.7143797e-22
0
0
0
-2.5802407e-21
-1.6947667e-21
2.5342499e-21
-9.4607773e-34
-1.7275078e-21
0
0
1.7184153e-21
-1.8980472e-33
-9.5182413e-34
1.7335936e-21
-8.7729768e-22
-1.7665188e-21
-1.7659e-21
8.8223959e-22
2.6594237e-21
8.9601372e-22
0
0
0
-2.7579892e-21
-1.8498536e-21
2.8095646e-21
-2.1166206e-33
-9.6521727e-22
1.3715744e-37
-9.6208805e-22
1.9277719e-21
-1.0799479e-33
-9.8980375e-22
2.0159976e-21
0
-5.6937795e-34
-2.0492751e-21
-2.0502047e-21
3.0846786e-21
2.0691497e-21
-1.0461106e-21
-5.8892003e-34
1.0716137e-21
-3.220384e-21
-2.1409416e-21
1.0674962e-21
1.0693767e-21
-1.0786113e-21
-1.0930238e-21
1.1023786e-21
1.0997397e-21
-6.0694932e-34
6.0474686e-34
1.0907376e-21
0
1.1073132e-21
-2.2143493e-21
-3.3047299e-21
2.1884384e-21
2.1824598e-21
1.0955116e-21
-1.2234725e-33
-2.2085106e-21
1.0984e-21
-1.0899601e-21
-1.0840371e-21
2.163843e-21
-2.1659045e-21
-1.0810195e-21
1.0752112e-21
2.1360385e-21
1.064433e-21
-2.1345907e-21
5.9141346e-34
-1.0540028e-21
-1.0391045e-21
3.0746734e-21
-1.0189509e-21
-1.0262809e-21
3.1104517e-21
-1.4747697e-37
-3.0731925e-21
-1.0081218e-21
2.9875387e-21
-9.9025448e-22
1.710096e-50
-1.6634543e-33
-1.9948322e-21
1.9786033e-21
1.9582778e-21
-9.7314665e-22
1.0806622e-33
1.956378e-21
-9.7848663e-22
-2.909128e-21
-9.5898254e-22
9.5070172e-22
0
9.533526e-22
1.9247517e-21
-1.3746311e-37
-2.8896689e-21
-9.5331371e-22
1.8907821e-21
-1.337664e-37
-1.8852725e-21
1.901896e-21
-1.6002531e-33
-1.932491e-21
2.8943858e-21
1.9233992e-21
0
0
-9.6936803e-22
-2.925208e-21
-9.7919953e-22
2.947774e-21
-1.0973269e-33
-1.9954886e-21
2.0098857e-21
2.0114516e-21
-1.005251e-21
-2.0136064e-21
1.0134958e-21
1.0283023e-21
-3.1312795e-21
-1.0535223e-21
-1.7606957e-33
5.8796263e-34
1.0663488e-21
-1.0782446e-21
2.1897991e-21
3.3315288e-21
0
-3.3833608e-21
-2.2745744e-21
3.4456918e-21
-3.2979995e-37
-1.1723554e-21
2.3703294e-21
-1.1998521e-21
-1.2137544e-21
-1.3607493e-33
1.2363095e-21
2.4920039e-21
-1.2576759e-21
-2.5474389e-21
-2.5834996e-21
1.4522941e-33
1.3201402e-21
-1.330635e-21
2.685442e-21
4.0736732e-21
0
-4.1712745e-21
-2.8065477e-21
4.2441954e-21
-1.5848992e-33
-1.4417085e-21
1.4562776e-21
1.4662096e-21
-8.1671729e-34
-2.9540605e-21
8.2528223e-34
3.0162977e-21
-1.6974283e-33
-1.7105348e-33
-3.0933427e-21
-4.652674e-21
3.1128308e-21
-1.7387565e-33
-5.259298e-33
1.589229e-21
1.5931556e-21
3.1896401e-21
-4.8021457e-21
-1.6061951e-21
3.2145376e-21
-3.2103189e-21
-9.0579386e-37
4.7478578e-21
1.5870233e-21
-1.6031303e-21
-4.8409782e-21
5.35087e-33
3.1839574e-21
1.573583e-21
-3.1128191e-21
-4.6617217e-21
4.6848202e-21
1.5620813e-21
1.7175855e-33
1.5272463e-21
-3.0075314e-21
8.2161847e-34
-1.4650587e-21
1.4582084e-21
-4.8285148e-33
-4.2969774e-21
4.2243648e-21
4.1426556e-21
0
0
0
-1.280091e-21
-3.7541072e-21
-1.2212036e-21
-1.3249493e-33
-1.165005e-21
3.3974799e-21
1.0959424e-21
-1.0556878e-21
-1.0179117e-21
-9.8717154e-22
1.9160968e-21
-9.2388476e-22
8.8158913e-22
-2.783108e-33
-1.5871666e-21
2.2731569e-21
1.4506841e-21
0
-1.2892504e-21
-6.6227594e-34
5.5248401e-22
-1.5423962e-21
-4.7872059e-22
4.3882576e-22
0
0
2.9621035e-22
5.1847609e-22
-5.0350439e-34
-3.8320436e-22
-1.4955535e-22
1.0186627e-22
-5.5703557e-23
1.5744915e-23
1.7689226e-49
9.3772359e-35
-2.9068745e-22
0
0
3.9563417e-22
4.5501126e-22
2.6413094e-22
-3.4244681e-34
-1.0495979e-21
4.1803973e-34
7.8106575e-22
0
-8.5243178e-22
-4.6010866e-22
1.0079541e-21
-5.4282964e-22
-5.6014319e-22
1.6789424e-21
-5.5947148e-22
1.8963793e-33
1.1794423e-21
-1.854363e-21
-1.2976446e-21
0
0
0
1.949664e-21
1.2994503e-21
-1.9694789e-21
-1.3361029e-21
0
1.3788244e-21
-7.566475e-34
-6.6105024e-22
1.2800268e-21
-6.2531109e-22
6.17171e-22
6.1480396e-22
-1.8475929e-21
1.2225259e-21
1.1825466e-21
-5.5941428e-22
5.2748856e-22
-1.0040902e-21
-1.4495395e-21
0
1.378896e-21
8.817059e-22
-4.08388e-22
-3.6859184e-22
3.669196e-34
-2.9808586e-22
9.0576167e-34
2.5101542e-22
1.2717678e-34
7.0891747e-51
-1.565936e-22
0
-7.1783368e-23
7.2505386e-23
2.2714218e-23
5.4333177e-23
1.4911766e-22
0
-2.7065559e-22
-3.5992628e-22
4.3934385e-22
-2.5172283e-22
-2.7930488e-22
9.318613e-22
-6.9782078e-22
-7.8361397e-22
4.360428e-22
9.5163453e-22
5.0793895e-22
-1.6081471e-21
-5.6678323e-22
-1.0021075e-33
1.2795152e-21
3.8622376e-37
-2.1436294e-21
1.4832668e-21
2.2998403e-21
7.940971e-22
-2.4733539e-21
-1.71729e-21
2.6768535e-21
-2.0419013e-33
-1.88051e-21
-9.604084e-22
5.4452418e-34
2.0085602e-21
-1.1491633e-33
1.0650345e-21
1.0861012e-21
-3.3002396e-21
-1.1137344e-21
-1.2523521e-33
2.2859193e-21
-3.867918e-33
-3.5444538e-21
2.3992099e-21
-1.3480386e-33
-1.3596254e-33
-2.7326817e-33
-1.2364112e-21
3.7158385e-21
-1.2397209e-21
-2.0806833e-33
-4.2083298e-33
-3.8220336e-21
1.276185e-21
2.5405773e-21
-1.3988821e-33
1.2574741e-21
1.2711385e-21
-2.5632718e-21
-2.5653979e-21
1.4185652e-33
3.7835492e-21
-1.3821045e-33
-1.2463043e-21
2.5192825e-21
-1.2681791e-21
-1.2615554e-21
6.9262483e-34
-6.8209299e-34
1.2119997e-21
-2.4258699e-21
1.2204459e-21
-4.0711087e-33
-4.0361623e-33
3.5865572e-21
-2.351793e-21
3.3000041e-37
2.3218786e-21
-1.1613689e-21
-3.466593e-21
-1.1439607e-21
3.3757151e-21
-1.2303146e-33
-1.1013392e-21
2.1999823e-21
-2.1915394e-21
-5.4080593e-33
1.0627813e-21
-1.0433296e-21
1.0316721e-21
-2.0631739e-21
1.0311945e-21
3.0694792e-21
0
0
-1.9364388e-21
-2.7240291e-37
1.9173645e-21
-9.5845992e-22
-2.853123e-21
-9.3571734e-22
2.7546762e-21
2.5656329e-37
9.9119812e-34
1.7817557e-21
-2.6648014e-21
-4.3971096e-33
8.6649392e-22
-8.5071996e-22
-8.3812407e-22
9.237401e-34
8.3034383e-22
-1.6538934e-21
1.6305067e-21
-2.6657345e-33
-1.5749307e-21
2.3384339e-21
1.5579119e-21
-7.7644257e-22
-2.3001103e-21
-7.5084374e-22
7.3351811e-22
0
-7.2434674e-22
7.3064232e-22
2.1929934e-21
3.9960429e-34
-1.4006883e-21
6.8134691e-22
6.7104367e-22
-1.3448468e-21
6.8081576e-22
-6.8670556e-22
-1.3652808e-21
2.0018066e-21
-2.1645931e-33
1.415176e-33
1.2645334e-21
-1.2710206e-21
-6.4160699e-22
-6.4419511e-22
-7.0936632e-34
6.2529256e-22
-1.2258537e-21
1.2103095e-21
1.8107866e-21
0
-6.1484749e-22
3.4085863e-34
1.7179134e-37
-1.7780436e-21
-5.8445892e-22
1.7496635e-21
-5.8879394e-22
1.1722488e-50
1.7945129e-21
-5.9177964e-22
-1.7462448e-21
-5.7495367e-22
1.1490999e-21
-5.8063001e-22
5.8909552e-22
-1.9744116e-33
-1.1784224e-21
1.7455549e-21
6.402628e-34
-2.5617691e-33
1.1658866e-21
-1.1836163e-21
-6.6255394e-34
5.9528953e-22
-1.1805744e-21
-5.8682319e-22
0
0
1.2088017e-21
-1.3545658e-33
-3.4637232e-37
-6.7192135e-34
-6.0270676e-22
-6.0484914e-22
6.1176957e-22
6.2131291e-22
-1.2570185e-21
1.2609276e-21
-6.9815912e-34
-1.2565458e-21
1.2601227e-21
2.1103101e-33
-7.0934528e-34
6.4461145e-22
-1.2988662e-21
6.5274569e-22
-1.452224e-33
-1.30724e-21
0
1.3084793e-21
6.5684125e-22
-1.3249688e-21
-6.6922115e-22
6.7239766e-22
-1.1152768e-33
-6.657232e-22
0
0
1.3408166e-21
1.3511704e-21
0
-1.346801e-21
-6.6915041e-22
6.6712453e-22
-6.6831177e-22
6.7253191e-22
0
-1.3468188e-21
0
0
6.533398e-22
-7.1990597e-34
-6.4375992e-22
0
6.4341543e-22
3.5949415e-34
-6.5068874e-22
0
1.272401e-21
1.2427056e-21
-6.0993468e-22
-6.687696e-34
5.9808389e-22
-1.1898053e-21
-1.1810256e-21
1.1720658e-21
1.6596257e-37
1.2965014e-33
1.6494986e-37
-1.1347473e-21
5.4577086e-22
-5.8339284e-34
5.1428046e-22
-5.1501586e-22
-1.5684758e-21
1.5805159e-21
5.22766e-22
-5.086731e-22
-5.4203829e-34
-4.7065324e-22
9.1732819e-22
9.0734185e-22
-9.1029203e-22
-1.5239026e-33
-4.5694251e-22
-4.4857375e-22
8.6276418e-22
-4.1265056e-22
4.4357907e-34
-2.1966194e-34
3.984213e-22
8.041452e-22
-8.0259462e-22
-7.8524748e-22
0
3.6289224e-22
3.9415452e-34
-7.0849526e-22
-3.9760619e-34
1.0846409e-21
7.2055407e-22
0
-6.8572133e-22
-7.4433005e-34
-3.3296975e-22
-3.3494437e-22
1.0160698e-21
-1.8884067e-34
-6.7617102e-22
3.339574e-22
6.6344424e-22
-3.3342396e-22
-6.7586533e-22
-3.4273813e-22
0
6.8355003e-22
-3.3969257e-22
-1.0255581e-21
3.484653e-22
3.5805234e-22
7.3329208e-22
3.7022917e-22
-7.3715233e-22
-3.6758894e-22
-3.7135741e-22
4.2156837e-34
3.9124186e-22
4.0248985e-22
8.2029849e-22
4.1323481e-22
0
0
0
-8.7183567e-22
-8.9400202e-22
9.1634003e-22
5.180921e-34
5.2292663e-34
-5.2582206e-34
-1.0624518e-33
9.7175186e-22
0
-1.0144046e-21
-5.1721805e-22
5.2343838e-22
-5.2731346e-22
-5.3200818e-22
0
0
1.1043969e-21
-1.8592805e-33
-1.2517185e-33
1.1383565e-21
-1.1503096e-21
-1.1591267e-21
0
1.161185e-21
-6.4481078e-34
-1.167091e-21
1.1791337e-21
6.6234341e-34
-1.1978517e-21
0
1.1781069e-21
5.8522972e-22
-1.169287e-21
5.8908887e-22
1.3166075e-33
-1.1821769e-21
1.1673679e-21
1.1502032e-21
0
0
0
-1.1244012e-21
-1.107654e-21
1.0856285e-21
0
-1.0504407e-21
0
-5.1479171e-22
1.0065604e-21
4.8811327e-22
-4.7257927e-22
9.2246707e-22
4.5511017e-22
-9.016511e-22
-4.4167845e-22
-4.7203494e-34
4.0443488e-22
-8.548295e-34
2.1113061e-37
7.2693239e-22
0
-3.460756e-22
-6.5866298e-22
-3.0958514e-22
0
0
0
-2.5552916e-22
4.7958355e-22
2.1951739e-22
-2.0009873e-22
-1.8667293e-22
1.7845496e-22
1.7101655e-22
-3.1812854e-22
0
2.2448711e-22
1.7884919e-22
0
0
-1.5263152e-22
-7.7887611e-35
-5.6354774e-23
-3.4401505e-23
9.0698971e-24
1.0273816e-23
-1.7920124e-23
-3.3546144e-23
-1.4538292e-23
0
4.9656304e-23
4.4509268e-35
-6.1158866e-23
7.9783307e-23
8.6548315e-23
1.6243666e-22
-1.4514364e-22
-6.8257934e-23
2.0134628e-38
-8.1264073e-23
1.9605073e-22
-1.1278967e-22
1.1547503e-22
3.0536897e-50
-9.3057216e-23
1.6826248e-22
-1.6282385e-22
-1.6825645e-22
0
9.7923042e-23
1.9748047e-22
-5.005201e-35
-7.6372554e-23
-6.3222098e-23
1.0722087e-22
9.5388355e-23
-4.4661921e-23
-8.6374996e-23
-8.1034808e-23
3.3179311e-23
4.0950888e-23
-4.9685161e-24
-1.0252053e-23
3.8945043e-35
3.3463099e-23
-8.0740331e-23
9.3512262e-23
6.2983324e-35
-3.9851503e-34
1.7968821e-22
-2.1581357e-22
-5.4806659e-34
1.347593e-22
-2.8666207e-22
1.5399426e-22
-4.814445e-38
8.3627449e-34
2.0826052e-22
-4.5205223e-22
5.3173371e-34
-1.3869242e-34
2.6198534e-22
-7.896796e-38
-5.9294345e-22
6.3244791e-22
1.8983321e-37
-1.5451817e-33
7.2110832e-22
-7.4988095e-22
-8.690848e-34
8.1741605e-22
-4.250532e-22
-4.3925815e-22
-4.5299311e-22
4.6795853e-22
-5.3741965e-34
-1.0016317e-21
0
0
1.075152e-21
1.5633971e-37
-1.1295433e-21
5.8202849e-22
-6.6379471e-34
6.09495e-22
1.3699184e-33
-1.2493537e-21
0
-6.4862213e-22
1.3318344e-21
6.8002087e-22
-1.5271297e-33
6.9252327e-22
-1.3951444e-21
7.051985e-22
-7.9580069e-34
-1.4641935e-21
0
0
7.4961337e-22
-4.1753929e-34
7.5681927e-22
-7.6616804e-22
-2.3319853e-21
2.3547066e-21
7.8654736e-22
-1.5731911e-21
7.8659403e-22
1.3124216e-33
7.9557816e-22
-4.560078e-37
-2.6775909e-33
8.0230064e-22
-1.5970616e-21
-7.9592314e-22
0
-8.0270265e-22
8.0504787e-22
8.0180818e-22
7.9523836e-22
-1.7508117e-33
8.7138919e-34
-8.7461655e-34
-1.5802335e-21
7.8452887e-22
1.2909236e-33
-1.5290514e-21
1.0744725e-37
7.5595219e-22
1.5127167e-21
1.5030505e-21
-1.4803894e-21
-8.0441577e-34
-7.1062705e-22
-7.0560908e-22
1.4166382e-21
-1.4125529e-21
-6.9538323e-22
2.0357361e-21