/*--------------------------------*- C++ -*----------------------------------*\
  =========                 |
  \\      /  F ield         | OpenFOAM: The Open Source CFD Toolbox
   \\    /   O peration     | Website:  https://openfoam.org
    \\  /    A nd           | Version:  7
     \\/     M anipulation  |
\*---------------------------------------------------------------------------*/
FoamFile
{
    version     2.0;
    format      ascii;
    class       volScalarField;
    location    "0.00123";
    object      Ux;
}
// * * * * * * * * * * * * * * * * * * * * * * * * * * * * * * * * * * * * * //

dimensions      [0 1 -1 0 0 0 0];

internalField   nonuniform List<scalar> 
5000
(
-52.155467
-52.11137
-52.087447
-52.058605
-52.030993
-52.002961
-51.974988
-51.946783
-51.91858
-51.890175
-51.861775
-51.833227
-51.804684
-51.776048
-51.747416
-51.71873
-51.690048
-51.661344
-51.632636
-51.603927
-51.575213
-51.546502
-51.517793
-51.489088
-51.460386
-51.431689
-51.402996
-51.374309
-51.345627
-51.31695
-51.288279
-51.259613
-51.230953
-51.202298
-51.173648
-51.145005
-51.116366
-51.087733
-51.059104
-51.030481
-51.001861
-50.973247
-50.944636
-50.91603
-50.887428
-50.85883
-50.830235
-50.801647
-50.773064
-50.74449
-50.715924
-50.68737
-50.658828
-50.6303
-50.601787
-50.573289
-50.544807
-50.51634
-50.487885
-50.459443
-50.431007
-50.40258
-50.374151
-50.345728
-50.317293
-50.288862
-50.260414
-50.231966
-50.203498
-50.175028
-50.146539
-50.118045
-50.089536
-50.061023
-50.032497
-50.003969
-49.97543
-49.946891
-49.918345
-49.889799
-49.86125
-49.8327
-49.804149
-49.775599
-49.747048
-49.718498
-49.689947
-49.661398
-49.632848
-49.6043
-49.575751
-49.547202
-49.518653
-49.490104
-49.461554
-49.433004
-49.404451
-49.375899
-49.347343
-49.318788
-49.290229
-49.261669
-49.233105
-49.204541
-49.175971
-49.147402
-49.118826
-49.090249
-49.061666
-49.033082
-49.004489
-48.975896
-48.947292
-48.918688
-48.890068
-48.86145
-48.832814
-48.804178
-48.775519
-48.746861
-48.718175
-48.68949
-48.660771
-48.632052
-48.603297
-48.574537
-48.545739
-48.516934
-48.488088
-48.459232
-48.430332
-48.401421
-48.372463
-48.343492
-48.314472
-48.285438
-48.256353
-48.227251
-48.198097
-48.168925
-48.1397
-48.110455
-48.081151
-48.05183
-48.022453
-47.993051
-47.963588
-47.934102
-47.904552
-47.874976
-47.845335
-47.815665
-47.785928
-47.756157
-47.726318
-47.69644
-47.666494
-47.636501
-47.606442
-47.576329
-47.546148
-47.515907
-47.485597
-47.45522
-47.424772
-47.394252
-47.363657
-47.332986
-47.302234
-47.271401
-47.240483
-47.209479
-47.178385
-47.147199
-47.115917
-47.084537
-47.053057
-47.021472
-46.989781
-46.957979
-46.926064
-46.894032
-46.861881
-46.829606
-46.797205
-46.764674
-46.73201
-46.699209
-46.666269
-46.633185
-46.599955
-46.566575
-46.533041
-46.499351
-46.4655
-46.431487
-46.397306
-46.362955
-46.32843
-46.293729
-46.258847
-46.223782
-46.188529
-46.153086
-46.117449
-46.081615
-46.04558
-46.00934
-45.972893
-45.936234
-45.899361
-45.862268
-45.824954
-45.787414
-45.749644
-45.711641
-45.673401
-45.634921
-45.596196
-45.557224
-45.517999
-45.478519
-45.438779
-45.398777
-45.358507
-45.317967
-45.277152
-45.236059
-45.194684
-45.153024
-45.111074
-45.06883
-45.02629
-44.983449
-44.940303
-44.896849
-44.853083
-44.809002
-44.764601
-44.719877
-44.674826
-44.629445
-44.58373
-44.537677
-44.491283
-44.444544
-44.397456
-44.350016
-44.302221
-44.254067
-44.20555
-44.156668
-44.107416
-44.057792
-44.007792
-43.957414
-43.906654
-43.855509
-43.803976
-43.752052
-43.699735
-43.647022
-43.593911
-43.540398
-43.486482
-43.432149
-43.377395
-43.322228
-43.26665
-43.210661
-43.154258
-43.097437
-43.040195
-42.982533
-42.924449
-42.865942
-42.807011
-42.747658
-42.687876
-42.627665
-42.567026
-42.505956
-42.444455
-42.382524
-42.320163
-42.25737
-42.194141
-42.130479
-42.066383
-42.001852
-41.936886
-41.871489
-41.805657
-41.739389
-41.672685
-41.605546
-41.537971
-41.469962
-41.40152
-41.332646
-41.263335
-41.19359
-41.123412
-41.0528
-40.981758
-40.910286
-40.838383
-40.766048
-40.693284
-40.620091
-40.546469
-40.472422
-40.397951
-40.323055
-40.247734
-40.171992
-40.095828
-40.019242
-39.94224
-39.864822
-39.78699
-39.708743
-39.630083
-39.551014
-39.471534
-39.391648
-39.311358
-39.230667
-39.149576
-39.068085
-38.986198
-38.903917
-38.821243
-38.738179
-38.654729
-38.570898
-38.486684
-38.40209
-38.317118
-38.231772
-38.146056
-38.059971
-37.973522
-37.886709
-37.799536
-37.712005
-37.624125
-37.535896
-37.447318
-37.358393
-37.269126
-37.17952
-37.089581
-36.999311
-36.90871
-36.817782
-36.726532
-36.634965
-36.543083
-36.450887
-36.358381
-36.265568
-36.172455
-36.079045
-35.985337
-35.891335
-35.797044
-35.702469
-35.607615
-35.51248
-35.417069
-35.321386
-35.225436
-35.129223
-35.03275
-34.936017
-34.839029
-34.741791
-34.644309
-34.546584
-34.448617
-34.350415
-34.25198
-34.153316
-34.05443
-33.955322
-33.855995
-33.756452
-33.656699
-33.556742
-33.456582
-33.356222
-33.255666
-33.154915
-33.053978
-32.952859
-32.851558
-32.750079
-32.648426
-32.546602
-32.444614
-32.342465
-32.240157
-32.137693
-32.035076
-31.932312
-31.829408
-31.726363
-31.623182
-31.519867
-31.416421
-31.312853
-31.209165
-31.105359
-31.00144
-30.897409
-30.79327
-30.689031
-30.584695
-30.480264
-30.375743
-30.271132
-30.166435
-30.061663
-29.956818
-29.851899
-29.746909
-29.641857
-29.536748
-29.431582
-29.32636
-29.221091
-29.115781
-29.010429
-28.90504
-28.799618
-28.694169
-28.588699
-28.483204
-28.377693
-28.272175
-28.166649
-28.061116
-27.955583
-27.850059
-27.744546
-27.639041
-27.533555
-27.428093
-27.322659
-27.217253
-27.111881
-27.006551
-26.901265
-26.796026
-26.690839
-26.585709
-26.480643
-26.375641
-26.270708
-26.165851
-26.061074
-25.956381
-25.851774
-25.74726
-25.642845
-25.538532
-25.434324
-25.330227
-25.226246
-25.122387
-25.018651
-24.915043
-24.81157
-24.708237
-24.605046
-24.502002
-24.399111
-24.296378
-24.193808
-24.091403
-23.989169
-23.887112
-23.785236
-23.683544
-23.582043
-23.480737
-23.379631
-23.27873
-23.178037
-23.077559
-22.977299
-22.877264
-22.777457
-22.677883
-22.578547
-22.479454
-22.380608
-22.282016
-22.183681
-22.085609
-21.987804
-21.890271
-21.793015
-21.69604
-21.599352
-21.502956
-21.406856
-21.311057
-21.215564
-21.120382
-21.025515
-20.930969
-20.836749
-20.74286
-20.649305
-20.55609
-20.463219
-20.370698
-20.278531
-20.186723
-20.09528
-20.004204
-19.913501
-19.823176
-19.733234
-19.643678
-19.554515
-19.465748
-19.377382
-19.289421
-19.201869
-19.114731
-19.028013
-18.941717
-18.855849
-18.770412
-18.685411
-18.600849
-18.516732
-18.433063
-18.349846
-18.267085
-18.184784
-18.102947
-18.021577
-17.940678
-17.860254
-17.780309
-17.700845
-17.621866
-17.543376
-17.465378
-17.387875
-17.310869
-17.234364
-17.158363
-17.082868
-17.007883
-16.933409
-16.859449
-16.786006
-16.713082
-16.640678
-16.568797
-16.497441
-16.426612
-16.356311
-16.286539
-16.217299
-16.148592
-16.080418
-16.012778
-15.945675
-15.879108
-15.813077
-15.747585
-15.68263
-15.618214
-15.554337
-15.490997
-15.428196
-15.365933
-15.304206
-15.243017
-15.182365
-15.122247
-15.062664
-15.003615
-14.945097
-14.887109
-14.829649
-14.772717
-14.71631
-14.660426
-14.605063
-14.550218
-14.49589
-14.442075
-14.388771
-14.33598
-14.283701
-14.231926
-14.180649
-14.129868
-14.079579
-14.029779
-13.980463
-13.931629
-13.883273
-13.835389
-13.787975
-13.741026
-13.694538
-13.648505
-13.602924
-13.55779
-13.513098
-13.468843
-13.42502
-13.381624
-13.338651
-13.296094
-13.253949
-13.212211
-13.170873
-13.129931
-13.089379
-13.049211
-13.009421
-12.970005
-12.930955
-12.892267
-12.853935
-12.815953
-12.778315
-12.741015
-12.704048
-12.667407
-12.631086
-12.59508
-12.559382
-12.523986
-12.488888
-12.454081
-12.419558
-12.385315
-12.351345
-12.317642
-12.284202
-12.251017
-12.218083
-12.185392
-12.152941
-12.120723
-12.088733
-12.056965
-12.025415
-11.994075
-11.962942
-11.932009
-11.901273
-11.870727
-11.840367
-11.810187
-11.780183
-11.75035
-11.720683
-11.691177
-11.661829
-11.632633
-11.603585
-11.574679
-11.545913
-11.517282
-11.488782
-11.460408
-11.432157
-11.404025
-11.376008
-11.348103
-11.320306
-11.292613
-11.265021
-11.237527
-11.210126
-11.182817
-11.155596
-11.12846
-11.101406
-11.07443
-11.047531
-11.020705
-10.99395
-10.967263
-10.940642
-10.914085
-10.887588
-10.86115
-10.834768
-10.80844
-10.782165
-10.75594
-10.729763
-10.703632
-10.677546
-10.651502
-10.6255
-10.599536
-10.573611
-10.547722
-10.521867
-10.496046
-10.470256
-10.444497
-10.418767
-10.393065
-10.36739
-10.341741
-10.316116
-10.290514
-10.264934
-10.239376
-10.213839
-10.188322
-10.162823
-10.137342
-10.111877
-10.086429
-10.060996
-10.035579
-10.010175
-9.9847854
-9.9594084
-9.9340434
-9.9086901
-9.883348
-9.8580167
-9.8326957
-9.8073844
-9.7820824
-9.756789
-9.7315041
-9.7062271
-9.6809578
-9.6556961
-9.6304417
-9.605194
-9.5799527
-9.5547175
-9.5294881
-9.5042643
-9.4790461
-9.4538333
-9.4286259
-9.4034234
-9.3782253
-9.3530316
-9.3278425
-9.3026579
-9.2774778
-9.2523017
-9.2271294
-9.201961
-9.1767965
-9.151636
-9.1264793
-9.1013261
-9.0761761
-9.0510297
-9.0258872
-9.0007483
-8.9756128
-8.9504803
-8.9253513
-8.9002258
-8.8751041
-8.8499857
-8.8248704
-8.7997585
-8.7746501
-8.7495453
-8.7244441
-8.6993461
-8.6742514
-8.6491601
-8.6240726
-8.598989
-8.5739091
-8.5488326
-8.5237593
-8.4986897
-8.473624
-8.4485624
-8.4235045
-8.39845
-8.373399
-8.3483517
-8.3233084
-8.2982694
-8.2732343
-8.2482031
-8.2231759
-8.1981526
-8.1731335
-8.1481184
-8.1231073
-8.0981003
-8.0730978
-8.0480998
-8.0231061
-7.9981165
-7.9731309
-7.9481496
-7.923173
-7.8982011
-7.8732339
-7.8482711
-7.8233126
-7.7983587
-7.7734095
-7.748465
-7.7235253
-7.6985903
-7.6736603
-7.6487352
-7.6238148
-7.5988991
-7.5739881
-7.5490824
-7.5241819
-7.4992864
-7.474396
-7.4495107
-7.4246304
-7.3997551
-7.3748849
-7.3500199
-7.3251604
-7.3003062
-7.2754572
-7.2506134
-7.2257749
-7.2009416
-7.1761135
-7.1512909
-7.1264739
-7.1016625
-7.0768564
-7.0520555
-7.02726
-7.0024699
-6.9776853
-6.9529063
-6.928133
-6.9033653
-6.8786029
-6.8538459
-6.8290942
-6.8043481
-6.7796075
-6.7548725
-6.730143
-6.7054189
-6.6807003
-6.6559868
-6.6312786
-6.6065758
-6.5818783
-6.5571862
-6.5324993
-6.5078176
-6.4831409
-6.4584691
-6.4338022
-6.4091402
-6.3844831
-6.359831
-6.3351836
-6.3105406
-6.2859016
-6.261267
-6.2366372
-6.2120118
-6.1873876
-6.1627632
-6.1381482
-6.113551
-6.088961
-6.0642688
-6.0395337
-6.0148818
-5.990309
-5.9657716
-5.9412189
-5.9166467
-5.8920849
-5.8675306
-5.8429811
-5.8184202
-5.7938512
-5.7693221
-5.7448337
-5.7202899
-5.6955897
-5.6710219
-5.6465693
-5.6221327
-5.5975652
-5.5730459
-5.5485355
-5.5240015
-5.4994733
-5.474963
-5.450426
-5.4258965
-5.4014025
-5.3769241
-5.3524307
-5.3279075
-5.3033815
-5.2788623
-5.2543512
-5.2298661
-5.2053984
-5.1808731
-5.1563591
-5.1318823
-5.1073389
-5.0828137
-5.0583958
-5.0340073
-5.0093957
-4.9848398
-4.9604173
-4.936027
-4.9114292
-4.8869203
-4.8625173
-4.8381666
-4.8137047
-4.7891656
-4.7646723
-4.7402393
-4.7158307
-4.6913774
-4.6669216
-4.642435
-4.617967
-4.5935257
-4.5691002
-4.5446671
-4.5202072
-4.4957528
-4.4712995
-4.4468622
-4.4224474
-4.3980401
-4.373614
-4.349175
-4.3247001
-4.3002616
-4.2758726
-4.2514996
-4.2271083
-4.2027044
-4.1781235
-4.1536499
-4.129339
-4.1050763
-4.0806856
-4.0563157
-4.0317999
-4.0073222
-3.9829934
-3.9587234
-3.934356
-3.9100106
-3.8855957
-3.8611904
-3.8368474
-3.8125346
-3.7881884
-3.7638469
-3.7394715
-3.7150967
-3.6907608
-3.6664488
-3.6421282
-3.6178123
-3.593498
-3.5690505
-3.5446257
-3.520368
-3.496184
-3.4718767
-3.447588
-3.4232907
-3.3989954
-3.374703
-3.3504154
-3.3261231
-3.3017712
-3.2774504
-3.2532159
-3.2290136
-3.2047508
-3.1804789
-3.1561881
-3.131949
-3.1077514
-3.0835253
-3.0592159
-3.0349446
-3.0107476
-2.9865748
-2.9623581
-2.9381453
-2.9139324
-2.8897243
-2.8655207
-2.8412783
-2.817004
-2.7928244
-2.7687062
-2.7445404
-2.7203682
-2.6961957
-2.6720229
-2.6478552
-2.6236994
-2.5994654
-2.5751634
-2.5510658
-2.5270766
-2.5029347
-2.4788067
-2.4546754
-2.4305468
-2.4064198
-2.3822912
-2.3581211
-2.3339769
-2.3099004
-2.2858474
-2.2617507
-2.2376594
-2.213566
-2.189472
-2.1653865
-2.1412698
-2.1170832
-2.0930304
-2.0690695
-2.0450244
-2.0209688
-1.9969084
-1.9728581
-1.9488125
-1.9247719
-1.9006814
-1.8764832
-1.8524937
-1.828634
-1.8046108
-1.7805995
-1.7565831
-1.7325735
-1.7085679
-1.6845651
-1.660568
-1.6365751
-1.612584
-1.5886036
-1.5646322
-1.5406614
-1.516694
-1.4927314
-1.4687707
-1.4448141
-1.420863
-1.3969143
-1.3729693
-1.3490297
-1.3250925
-1.3011577
-1.2772276
-1.2532982
-1.2293678
-1.2054359
-1.1814567
-1.1574069
-1.1335494
-1.1097969
-1.0859113
-1.0620332
-1.0381507
-1.0142685
-0.99039212
-0.96651659
-0.94264599
-0.91878051
-0.89491623
-0.87105912
-0.84720418
-0.82335309
-0.79950791
-0.77566301
-0.75182408
-0.72798811
-0.70415238
-0.68031895
-0.65647296
-0.63254562
-0.6086791
-0.58497519
-0.56125791
-0.53747978
-0.51370022
-0.4899237
-0.46614702
-0.44237616
-0.41860999
-0.39484628
-0.37109072
-0.34733781
-0.32359047
-0.29985105
-0.27611507
-0.25238792
-0.22866676
-0.20495072
-0.18124443
-0.15753822
-0.13382668
-0.11008553
-0.086205856
-0.062525557
-0.039034731
-0.015396628
0.0083049465
0.03204602
0.055779104
0.079505942
0.10322519
0.12693695
0.15064334
0.17434773
0.19804694
0.22174286
0.24543419
0.26911248
0.29278353
0.31645228
0.3401203
0.36378298
0.38743751
0.41108766
0.43473262
0.45837298
0.48200961
0.50563869
0.52926696
0.55288768
0.57650286
0.60011494
0.62371874
0.64732097
0.6709125
0.69449985
0.71808169
0.74166122
0.76524173
0.78882562
0.81241397
0.83600387
0.85959396
0.88316862
0.90669946
0.9302284
0.95376609
0.97731582
1.0008756
1.0244196
1.0479391
1.0714593
1.0949828
1.1185094
1.142028
1.1655396
1.1890469
1.2125487
1.2360459
1.2595386
1.2830294
1.3065187
1.3300005
1.3534785
1.3769564
1.4004351
1.4239085
1.4473819
1.4708426
1.4942876
1.5177322
1.5411794
1.5646293
1.5880814
1.6115255
1.6349586
1.6583881
1.6818074
1.7052227
1.7286383
1.7520539
1.7754703
1.7988764
1.8222731
1.8456689
1.8690649
1.8924592
1.9158462
1.9392259
1.9626026
1.9859765
2.009345
2.0327112
2.0560757
2.0794347
2.102789
2.1261383
2.1494837
2.1728291
2.1961674
2.2195018
2.2428335
2.2661599
2.2894845
2.3128043
2.3361183
2.3594311
2.3827394
2.4060424
2.4293434
2.4526395
2.4759317
2.4992225
2.5225052
2.5457867
2.5690636
2.5923372
2.6156061
2.6388709
2.6621341
2.6853908
2.7086455
2.7318939
2.7551411
2.7783831
2.8016212
2.8248568
2.8480869
2.8713158
2.8945378
2.9177594
2.9409743
2.9641867
2.9873939
3.0105986
3.0337996
3.0569955
3.0801899
3.1033777
3.1265649
3.1497449
3.1729237
3.1960964
3.2192674
3.2424333
3.2655959
3.288755
3.3119102
3.3350616
3.3582088
3.3813523
3.4044914
3.4276286
3.4507596
3.4738891
3.497013
3.5201351
3.5432523
3.5663655
3.5894748
3.6125806
3.6356837
3.6587807
3.6818766
3.7049663
3.7280545
3.7511374
3.7742174
3.7972944
3.8203651
3.8434349
3.8664986
3.8895607
3.912618
3.9356713
3.9587221
3.9817675
4.0048111
4.0278496
4.0508848
4.0739173
4.0969442
4.1199695
4.14299
4.1660066
4.1890212
4.21203
4.2350369
4.2580398
4.2810377
4.3040344
4.3270257
4.3500129
4.3729994
4.3959795
4.4189572
4.4419325
4.4649015
4.487869
4.5108326
4.5337912
4.556749
4.5797024
4.6026505
4.6255975
4.6485398
4.6714773
4.6944141
4.7173467
4.740275
4.7632009
4.786122
4.8090391
4.8319559
4.8548683
4.8777746
4.9006798
4.9235828
4.9464795
4.9693741
4.9922671
5.0151542
5.0380381
5.0609213
5.0837994
5.1066726
5.1295456
5.1524149
5.1752782
5.1981398
5.2210002
5.2438548
5.2667053
5.2895558
5.3124023
5.3352431
5.3580822
5.3809203
5.4037527
5.4265805
5.4494078
5.4722334
5.4950527
5.5178681
5.5406833
5.563496
5.5863023
5.6091059
5.631909
5.654709
5.677503
5.7002942
5.7230851
5.7458731
5.7686553
5.791434
5.8142121
5.8369889
5.8597595
5.8825257
5.9052915
5.9280559
5.9508161
5.9735709
5.9963231
6.0190755
6.041825
6.0645691
6.0873092
6.1100482
6.1327859
6.1555204
6.1782499
6.2009756
6.2237009
6.246424
6.2691437
6.2918593
6.314571
6.3372819
6.3599907
6.3826963
6.4053979
6.4280961
6.4507924
6.4734868
6.496179
6.5188667
6.5415512
6.5642335
6.5869136
6.6095918
6.6322664
6.6549377
6.6776058
6.7002719
6.722936
6.7455971
6.7682556
6.7909102
6.8135624
6.8362126
6.8588601
6.8815051
6.9041469
6.9267859
6.9494219
6.9720558
6.9946875
7.017316
7.0399421
7.0625649
7.0851851
7.107803
7.1304184
7.1530314
7.1756411
7.1982485
7.2208529
7.2434547
7.2660543
7.2886511
7.3112455
7.3338368
7.3564256
7.3790118
7.4015952
7.4241766
7.4467548
7.4693308
7.4919037
7.5144742
7.5370421
7.5596073
7.5821703
7.6047303
7.6272878
7.6498425
7.6723947
7.6949444
7.7174914
7.7400359
7.7625777
7.7851168
7.8076534
7.8301873
7.8527187
7.8752474
7.8977736
7.9202972
7.942818
7.9653363
7.9878519
8.0103649
8.0328754
8.0553832
8.0778884
8.1003909
8.1228909
8.1453882
8.167883
8.1903751
8.2128648
8.2353518
8.2578365
8.2803187
8.3027986
8.3252764
8.3477517
8.3702251
8.3926963
8.4151653
8.4376321
8.4600963
8.4825579
8.5050168
8.5274728
8.5499261
8.5723766
8.5948244
8.6172696
8.639712
8.6621517
8.6845882
8.7070219
8.7294528
8.751881
8.7743067
8.7967297
8.8191493
8.8415658
8.8639796
8.8863913
8.9088005
8.9312062
8.953608
8.9760073
8.9984045
9.0207993
9.0431903
9.0655776
9.0879624
9.1103453
9.1327255
9.1551021
9.1774752
9.199846
9.222215
9.2445814
9.2669442
9.2893036
9.3116604
9.334015
9.356367
9.3787156
9.4010602
9.4234015
9.4457404
9.468077
9.4904106
9.5127407
9.5350675
9.5573915
9.5797129
9.6020315
9.6243469
9.6466594
9.668969
9.6912761
9.7135804
9.7358816
9.7581793
9.7804739
9.8027656
9.825054
9.8473386
9.86962
9.8918986
9.9141743
9.9364465
9.958715
9.9809803
10.003243
10.025501
10.047757
10.070009
10.092258
10.114503
10.136746
10.158985
10.181221
10.203453
10.225682
10.247908
10.270132
10.292352
10.314568
10.336782
10.358993
10.381201
10.403405
10.425606
10.447805
10.470001
10.492193
10.514382
10.536568
10.558751
10.580931
10.603108
10.625281
10.647452
10.66962
10.691785
10.713946
10.736105
10.75826
10.780412
10.802561
10.824707
10.846849
10.868987
10.891122
10.913253
10.93538
10.957502
10.979619
11.00173
11.023836
11.045936
11.068031
11.090121
11.112206
11.134286
11.156364
11.178439
11.200511
11.222582
11.244651
11.266716
11.288777
11.310834
11.332887
11.354934
11.376979
11.399022
11.421063
11.443099
11.46513
11.487157
11.509183
11.531205
11.553223
11.575238
11.597249
11.619257
11.641262
11.663263
11.685259
11.707252
11.729241
11.751225
11.773206
11.795182
11.817154
11.839122
11.861087
11.883049
11.905007
11.926962
11.948913
11.97086
11.992804
12.014744
12.036681
12.058614
12.080544
12.10247
12.124392
12.146311
12.168226
12.190138
12.212047
12.233951
12.255852
12.27775
12.299644
12.321534
12.34342
12.365303
12.387183
12.409059
12.430931
12.4528
12.474665
12.496527
12.518386
12.54024
12.562091
12.583938
12.605782
12.627623
12.64946
12.671293
12.693122
12.714948
12.736772
12.758591
12.780407
12.802218
12.824025
12.84583
12.867632
12.88943
12.911225
12.933015
12.954802
12.976585
12.998364
13.020142
13.041915
13.063684
13.08545
13.107211
13.12897
13.150726
13.172478
13.194226
13.21597
13.237711
13.259449
13.281183
13.302914
13.32464
13.346363
13.368083
13.389799
13.411513
13.433222
13.454927
13.476629
13.498328
13.520024
13.541716
13.563404
13.585088
13.606769
13.628447
13.650122
13.671792
13.693459
13.715122
13.736782
13.758439
13.780092
13.801741
13.823387
13.845029
13.866669
13.888305
13.909936
13.931564
13.953189
13.974812
13.99643
14.018045
14.039655
14.061262
14.082865
14.104466
14.126064
14.147658
14.169248
14.190834
14.212417
14.233996
14.255572
14.277145
14.298715
14.32028
14.341842
14.3634
14.384955
14.406508
14.428056
14.449601
14.471141
14.492679
14.514213
14.535745
14.557272
14.578796
14.600316
14.621832
14.643346
14.664856
14.686363
14.707866
14.729365
14.750861
14.772354
14.793843
14.815329
14.836811
14.858289
14.879764
14.901236
14.922705
14.94417
14.965631
14.987089
15.008543
15.029994
15.051442
15.072886
15.094327
15.115764
15.137197
15.158628
15.180054
15.201478
15.222898
15.244314
15.265727
15.287137
15.308543
15.329945
15.351345
15.37274
15.394132
15.415521
15.436907
15.458289
15.479667
15.501042
15.522413
15.543782
15.565146
15.586508
15.607865
15.629219
15.65057
15.671918
15.693262
15.714602
15.735939
15.757273
15.778603
15.79993
15.821253
15.842573
15.86389
15.885203
15.906513
15.927819
15.949121
15.97042
15.991716
16.013008
16.034297
16.055583
16.076865
16.098144
16.119419
16.14069
16.161958
16.183223
16.204485
16.225743
16.246997
16.268249
16.289496
16.31074
16.331981
16.353218
16.374452
16.395682
16.416909
16.438133
16.459353
16.48057
16.501783
16.522993
16.544199
16.565402
16.586601
16.607797
16.62899
16.650179
16.671364
16.692547
16.713725
16.734901
16.756073
16.777241
16.798406
16.819567
16.840725
16.86188
16.883031
16.904178
16.925322
16.946462
16.9676
16.988733
17.009863
17.03099
17.052113
17.073233
17.094348
17.115461
17.13657
17.157676
17.178778
17.199876
17.220971
17.242062
17.26315
17.284234
17.305314
17.326391
17.347464
17.368534
17.3896
17.410662
17.431721
17.452776
17.473827
17.494875
17.515918
17.536959
17.557995
17.579028
17.600057
17.621081
17.642102
17.663119
17.684133
17.705142
17.726148
17.747149
17.768146
17.78914
17.810129
17.831114
17.852096
17.873072
17.894045
17.915013
17.935978
17.956937
17.977893
17.998843
18.01979
18.040732
18.061669
18.082602
18.10353
18.124453
18.145371
18.166285
18.187193
18.208097
18.228995
18.249888
18.270776
18.291658
18.312536
18.333407
18.354273
18.375133
18.395988
18.416836
18.437678
18.458515
18.479345
18.500168
18.520986
18.541796
18.5626
18.583397
18.604187
18.624969
18.645745
18.666513
18.687274
18.708026
18.72877
18.749507
18.770235
18.790954
18.811665
18.832368
18.853061
18.873744
18.894418
18.915082
18.935737
18.956381
18.977015
18.997638
19.01825
19.038851
19.05944
19.080017
19.100583
19.121136
19.141677
19.162205
19.182719
19.20322
19.223707
19.244179
19.264637
19.285081
19.305508
19.32592
19.346316
19.366696
19.387059
19.407405
19.427732
19.448042
19.468333
19.488605
19.508858
19.529091
19.549303
19.569495
19.589665
19.609814
19.62994
19.650043
19.670123
19.690178
19.71021
19.730216
19.750197
19.770151
19.790078
19.809978
19.829851
19.849694
19.869508
19.889292
19.909046
19.928768
19.948458
19.968116
19.987741
20.007331
20.026887
20.046407
20.065891
20.085339
20.104749
20.12412
20.143452
20.162744
20.181995
20.201205
20.220372
20.239496
20.258576
20.277612
20.296601
20.315545
20.33444
20.353288
20.372086
20.390835
20.409532
20.428178
20.446771
20.465311
20.483796
20.502226
20.520599
20.538915
20.557172
20.575371
20.59351
20.611588
20.629603
20.647556
20.665445
20.683268
20.701026
20.718718
20.736341
20.753896
20.771381
20.788796
20.806138
20.823408
20.840604
20.857726
20.874773
20.891743
20.908635
20.925449
20.942183
20.958837
20.97541
20.9919
21.008307
21.02463
21.040867
21.057019
21.073083
21.08906
21.104948
21.120746
21.136453
21.152069
21.167592
21.183022
21.198358
21.213599
21.228743
21.243792
21.258742
21.273594
21.288347
21.303
21.317552
21.332003
21.346351
21.360597
21.374739
21.388776
21.402708
21.416535
21.430255
21.443868
21.457373
21.47077
21.484058
21.497237
21.510305
21.523263
21.53611
21.548845
21.561468
21.573979
21.586377
21.598661
21.610832
21.622889
21.634831
21.646658
21.65837
21.669967
21.681448
21.692813
21.704062
21.715195
21.72621
21.73711
21.747892
21.758558
21.769107
21.779538
21.789853
21.80005
21.81013
21.820093
21.829939
21.839668
21.849281
21.858776
21.868155
21.877418
21.886565
21.895595
21.90451
21.913309
21.921993
21.930562
21.939017
21.947357
21.955584
21.963697
21.971697
21.979585
21.98736
21.995024
22.002577
22.010019
22.017351
22.024574
22.031688
22.038694
22.045592
22.052382
22.059067
22.065646
22.07212
22.078489
22.084755
22.090919
22.09698
22.10294
22.108799
22.114559
22.12022
22.125783
22.131248
22.136618
22.141892
22.147071
22.152157
22.15715
22.162051
22.166861
22.171581
22.176212
22.180755
22.185211
22.189581
22.193865
22.198066
22.202183
22.206217
22.210171
22.214044
22.217839
22.221555
22.225194
22.228756
22.232244
22.235657
22.238997
22.242265
22.245463
22.24859
22.251648
22.254638
22.257561
22.260418
22.263211
22.265939
22.268604
22.271208
22.273751
22.276234
22.278658
22.281024
22.283333
22.285587
22.287785
22.28993
22.292022
22.294062
22.29605
22.297989
22.299878
22.301719
22.303513
22.30526
22.306962
22.30862
22.310233
22.311804
22.313333
22.314821
22.316269
22.317677
22.319047
22.320379
22.321674
22.322933
22.324157
22.325347
22.326502
22.327625
22.328715
22.329774
22.330802
22.3318
22.332769
22.33371
22.334622
22.335507
22.336365
22.337198
22.338005
22.338788
22.339547
22.340282
22.340994
22.341684
22.342353
22.343
22.343627
22.344234
22.344821
22.34539
22.34594
22.346472
22.346987
22.347485
22.347967
22.348432
22.348882
22.349317
22.349737
22.350143
22.350535
22.350914
22.35128
22.351633
22.351974
22.352303
22.35262
22.352927
22.353222
22.353507
22.353782
22.354047
22.354302
22.354549
22.354786
22.355014
22.355235
22.355447
22.355651
22.355848
22.356037
22.356219
22.356395
22.356564
22.356726
22.356882
22.357033
22.357177
22.357316
22.35745
22.357578
22.357701
22.35782
22.357934
22.358043
22.358148
22.358249
22.358346
22.358439
22.358528
22.358614
22.358696
22.358775
22.35885
22.358923
22.358992
22.359059
22.359123
22.359184
22.359243
22.359299
22.359353
22.359405
22.359454
22.359502
22.359547
22.359591
22.359632
22.359672
22.35971
22.359747
22.359782
22.359815
22.359847
22.359877
22.359907
22.359935
22.359961
22.359987
22.360011
22.360035
22.360057
22.360078
22.360099
22.360118
22.360137
22.360155
22.360172
22.360188
22.360203
22.360218
22.360232
22.360246
22.360259
22.360271
22.360283
22.360294
22.360305
22.360315
22.360324
22.360334
22.360343
22.360351
22.360359
22.360367
22.360374
22.360381
22.360388
22.360394
22.3604
22.360406
22.360411
22.360417
22.360421
22.360426
22.360431
22.360435
22.360439
22.360443
22.360446
22.36045
22.360453
22.360456
22.360459
22.360462
22.360464
22.360467
22.360469
22.360471
22.360473
22.360475
22.360477
22.360479
22.36048
22.360481
22.360483
22.360484
22.360485
22.360486
22.360487
22.360488
22.360488
22.360489
22.36049
22.36049
22.36049
22.36049
22.360491
22.360491
22.360491
22.360491
22.36049
22.36049
22.36049
22.360489
22.360489
22.360489
22.360488
22.360487
22.360486
22.360486
22.360485
22.360484
22.360483
22.360482
22.36048
22.360479
22.360478
22.360476
22.360475
22.360473
22.360472
22.36047
22.360469
22.360467
22.360465
22.360463
22.360461
22.360459
22.360457
22.360455
22.360453
22.360451
22.360449
22.360446
22.360444
22.360442
22.360439
22.360437
22.360434
22.360432
22.360429
22.360426
22.360424
22.360421
22.360418
22.360416
22.360413
22.36041
22.360407
22.360404
22.360401
22.360398
22.360395
22.360392
22.360389
22.360386
22.360383
22.36038
22.360376
22.360373
22.36037
22.360367
22.360363
22.36036
22.360357
22.360353
22.36035
22.360346
22.360343
22.360339
22.360336
22.360332
22.360329
22.360325
22.360321
22.360318
22.360314
22.360311
22.360307
22.360304
22.3603
22.360296
22.360293
22.360289
22.360286
22.360282
22.360279
22.360275
22.360271
22.360268
22.360265
22.360261
22.360258
22.360254
22.360251
22.360247
22.360244
22.36024
22.360237
22.360233
22.36023
22.360227
22.360223
22.36022
22.360216
22.360213
22.36021
22.360207
22.360204
22.360202
22.360199
22.360196
22.360193
22.36019
22.360186
22.360183
22.36018
22.360176
22.360173
22.36017
22.360167
22.360165
22.360162
22.36016
22.360158
22.360157
22.360155
22.360152
22.360149
22.360146
22.360143
22.360138
22.360134
22.360131
22.360128
22.360125
22.360123
22.360122
22.360122
22.360122
22.360122
22.360123
22.360122
22.360121
22.360118
22.360113
22.360108
22.3601
22.360093
22.360087
22.360083
22.360082
22.360083
22.360087
22.360093
22.360101
22.360108
22.360114
22.360116
22.360114
22.360107
22.360095
22.360078
22.36006
22.360043
22.360031
22.360025
22.360028
22.360041
22.360063
22.360092
22.360124
22.360153
22.360173
22.36018
22.360171
22.360142
22.360096
22.360035
22.359972
22.359921
22.359899
22.359923
22.360009
22.360204
22.360649
22.361741
22.365202
22.364355
22.359938
22.359476
22.360045
22.360033
22.359922
22.359907
22.359929
22.359956
22.359995
22.360045
22.360093
22.360133
22.360163
22.360182
22.36019
22.360189
22.360181
22.36017
22.360159
22.360149
22.360143
22.36014
22.360142
22.360147
22.360155
22.360165
22.360176
22.360186
22.360195
22.3602
22.360197
22.360201
22.360213
22.360216
22.360216
22.360217
22.360219
22.360222
22.360226
22.360231
22.360236
22.360242
22.360248
22.360254
22.360259
22.360265
22.360269
22.360274
22.360278
22.360282
22.360286
22.36029
22.360294
22.360299
22.360303
22.360308
22.360313
22.360318
22.360323
22.360328
22.360333
22.360338
22.360342
22.360347
22.360352
22.360357
22.360362
22.360366
22.360371
22.360376
22.360382
22.360387
22.360392
22.360398
22.360404
22.360409
22.360415
22.360421
22.360428
22.360434
22.360441
22.360448
22.360454
22.360462
22.360469
22.360477
22.360486
22.360495
22.360503
22.360513
22.360523
22.360533
22.360545
22.360556
22.360569
22.360581
22.360595
22.360609
22.360625
22.360641
22.360658
22.360675
22.360694
22.360714
22.360736
22.360758
22.360782
22.360807
22.360834
22.360862
22.360892
22.360924
22.360957
22.360992
22.361029
22.361069
22.361111
22.361155
22.361201
22.36125
22.361302
22.361357
22.361414
22.361475
22.361539
22.361606
22.361677
22.361752
22.36183
22.361913
22.361999
22.36209
22.362186
22.362286
22.362392
22.362502
22.362618
22.36274
22.362867
22.363001
22.363141
22.363287
22.36344
22.363599
22.363767
22.363942
22.364125
22.364316
22.364516
22.364725
22.364943
22.36517
22.365407
22.365655
22.365912
22.366181
22.366461
22.366753
22.367056
22.367372
22.367702
22.368044
22.3684
22.36877
22.369156
22.369556
22.369972
22.370404
22.370852
22.371318
22.371802
22.372304
22.372824
22.373364
22.373924
22.374505
22.375107
22.375731
22.376377
22.377046
22.37774
22.378457
22.3792
22.379968
22.380763
22.381586
22.382437
22.383317
22.384226
22.385165
22.386136
22.387138
22.388175
22.389244
22.390349
22.391488
22.392663
22.393876
22.395127
22.396418
22.397749
22.399121
22.400534
22.401991
22.403491
22.405037
22.406629