-1.25 	300 	0.1165727701595694 	101277.4471741852
-1.247497497497497 	299.9554140920633 	0.1159497842477077 	101277.6571072539
-1.244994994994995 	299.9599156175081 	0.1153831156264632 	101277.8801916244
-1.242492492492492 	299.9603301545579 	0.1150005781875156 	101278.1117719228
-1.23998998998999 	299.9605352080612 	0.1143080167345982 	101278.3518640427
-1.237487487487487 	299.960744835475 	0.1137269770671688 	101278.6006131854
-1.234984984984985 	299.960962548208 	0.1130879252168199 	101278.8579418467
-1.232482482482482 	299.9611874915928 	0.1124387712312481 	101279.1238000509
-1.22997997997998 	299.9614195967239 	0.1117656794724633 	101279.3981206574
-1.227477477477477 	299.9616588127209 	0.1110728186479739 	101279.6808454813
-1.224974974974975 	299.9619050808789 	0.1103607171976545 	101279.9719098477
-1.222472472472472 	299.9621583785749 	0.1096273661609671 	101280.2712747536
-1.21996996996997 	299.9624186456513 	0.1088720539653308 	101280.5788752117
-1.217467467467467 	299.9626858197079 	0.1080962150437647 	101280.8946491523
-1.214964964964965 	299.9629598609543 	0.1073036470774732 	101281.2185391278
-1.212462462462462 	299.963240756101 	0.1064905295254952 	101281.5505226496
-1.20995995995996 	299.9635284171416 	0.1056570684561013 	101281.8905034419
-1.207457457457457 	299.9638228076601 	0.1048036247359146 	101282.2384403404
-1.204954954954955 	299.9641238630373 	0.1039297548708527 	101282.5942530733
-1.202452452452452 	299.9644314872336 	0.1030396765998611 	101282.9578310957
-1.19994994994995 	299.9647456809612 	0.1021308257630985 	101283.3291770229
-1.197447447447447 	299.9650663402307 	0.1012020339631941 	101283.7081668372
-1.194944944944945 	299.9653934472416 	0.1002529494164933 	101284.0947771795
-1.192442442442442 	299.9657269380136 	0.09928473673917207 	101284.4889287028
-1.18993993993994 	299.9660667432973 	0.09830145975778413 	101284.8905430525
-1.187437437437437 	299.9664128473315 	0.09730010801225922 	101285.2996038647
-1.184934934934935 	299.9667650913304 	0.09627989641897081 	101285.7159210791
-1.182432432432432 	299.9671234834681 	0.09524137080775293 	101286.1395052257
-1.17992992992993 	299.9674879183049 	0.09418474520477371 	101286.5702343417
-1.177427427427427 	299.9678582588645 	0.09311203532418061 	101287.0079482493
-1.174924924924925 	299.9682346214712 	0.09202216371340737 	101287.4527793042
-1.172422422422422 	299.9686167794113 	0.09091511886053032 	101287.9044567096
-1.16991991991992 	299.9690046528876 	0.08979094782634686 	101288.3628904143
-1.167417417417417 	299.9693983790887 	0.0886499546906348 	101288.8282468758
-1.164914914914915 	299.9697976247123 	0.08749358563107162 	101289.3001331445
-1.162412412412412 	299.970202406361 	0.08632117651802659 	101289.7785644138
-1.15990990990991 	299.9706128231259 	0.08513257503831427 	101290.2636516248
-1.157407407407407 	299.9710284303659 	0.08392815566640907 	101290.7548685749
-1.154904904904904 	299.9714493925266 	0.08270809654089264 	101291.2524143686
-1.152402402402403 	299.9718758952208 	0.0814725637455752 	101291.7565140815
-1.1498998998999 	299.972307324355 	0.08022236322197226 	101292.2664443359
-1.147397397397397 	299.9727437812199 	0.07895771825913803 	101292.7823232754
-1.144894894894895 	299.9731856530577 	0.07767783302523983 	101293.3046031579
-1.142392392392392 	299.973632289946 	0.07638454516039656 	101293.8325106077
-1.13988988988989 	299.9740835198481 	0.07507756168671691 	101294.3658421328
-1.137387387387387 	299.9745398907771 	0.07375560758143536 	101294.9052466487
-1.134884884884885 	299.975000851879 	0.07241990876694607 	101295.4500758066
-1.132382382382382 	299.9754658096065 	0.0710716181657899 	101295.9996310849
-1.12987987987988 	299.9759356004713 	0.0697111836669505 	101296.5549024249
-1.127377377377377 	299.976410486532 	0.06833611048697488 	101297.1162005064
-1.124874874874875 	299.9768892637866 	0.06694837539183623 	101297.6821019629
-1.122372372372372 	299.9773717411762 	0.06555055622468131 	101298.2523819869
-1.11986986986987 	299.9778590224161 	0.06413934278479738 	101298.828344406
-1.117367367367367 	299.9783508715268 	0.06271598886772053 	101299.4097078241
-1.114864864864865 	299.9788459327239 	0.06128083746973762 	101299.9948709841
-1.112362362362362 	299.9793442985638 	0.05983518080759122 	101300.5839434756
-1.10985985985986 	299.9798470304165 	0.05838024985254409 	101301.1781803095
-1.107357357357357 	299.9803540930117 	0.05691202649753867 	101301.7775382941
-1.104854854854855 	299.9808645910214 	0.0554334907702457 	101302.3809577785
-1.102352352352353 	299.9813779757316 	0.05394487239138034 	101302.9877923651
-1.09984984984985 	299.9818945387395 	0.05244643313511507 	101303.5983862116
-1.097347347347347 	299.9824149246138 	0.05094045887028867 	101304.2135016803
-1.094844844844845 	299.9829391504943 	0.04942286355587632 	101304.8331589707
-1.092342342342342 	299.9834667180664 	0.04789512615491025 	101305.4567676195
-1.08983983983984 	299.9839966846945 	0.04635943203432129 	101306.0832143447
-1.087337337337337 	299.9845283733805 	0.04481825024338947 	101306.7116996796
-1.084834834834835 	299.9850624120223 	0.04327155742721137 	101307.342966788
-1.082332332332332 	299.9856005761185 	0.04171230745719785 	101307.9791132404
-1.07982982982983 	299.9861433949836 	0.04013997129219179 	101308.620763458
-1.077327327327327 	299.986689207847 	0.03855942741646453 	101309.2659544157
-1.074824824824825 	299.9872353842646 	0.03697623856603242 	101309.9115769128
-1.072322322322323 	299.9877811179898 	0.03539434323334199 	101310.5566798966
-1.06981981981982 	299.9883282933245 	0.0338091767800763 	101311.2034913423
-1.067317317317317 	299.9888798343936 	0.03221150482765862 	101311.8554673062
-1.064814814814815 	299.9894368257507 	0.0305982004627012 	101312.5138887413
-1.062312312312312 	299.9899975692533 	0.02897338038853886 	101313.1767467812
-1.05980980980981 	299.9905590443628 	0.02734671437387519 	101313.8404709238
-1.057307307307307 	299.9911190775372 	0.02572541833698949 	101314.5024925644
-1.054804804804805 	299.9916775731436 	0.02410751601397648 	101315.1627001499
-1.052302302302302 	299.9922363677522 	0.022487753472366 	101315.8232658241
-1.0497997997998 	299.9927976887608 	0.02086071942402452 	101316.4868222991
-1.047297297297297 	299.9933628063753 	0.01922350865642826 	101317.1548702544
-1.044794794794795 	299.9939317538267 	0.01757651652131929 	101317.8274476837
-1.042292292292292 	299.9945036311377 	0.01592093166548007 	101318.5034911009
-1.03978978978979 	299.9950770099401 	0.01425992203532266 	101319.1813122382
-1.037287287287287 	299.9956504890475 	0.01259819790550181 	101319.8592537335
-1.034784784784785 	299.9962232717356 	0.01093830572564437 	101320.5363744519
-1.032282282282283 	299.9967953325215 	0.009280799173468404 	101321.2126451481
-1.02977977977978 	299.9973670193866 	0.007624790282113766 	101321.8884779175
-1.027277277277277 	299.9979386321888 	0.005968765558988788 	101322.5642263994
-1.024774774774775 	299.9985103427744 	0.004312852670146724 	101323.2400922583
-1.022272272272272 	299.9990822615906 	0.002656097522233614 	101323.9162078741
-1.01976976976977 	299.9996544685584 	0.0009986143112831454 	101324.5926687213
-1.017267267267267 	300.0002269932548 	0.0009224308657286258 	101325.2695084148
-1.014764764764765 	300.0007997863224 	0.002318895990849585 	101325.9466662108
-1.012262262262262 	300.0013727006326 	0.003978338127477882 	101326.6239688806
-1.00975975975976 	300.0019455386972 	0.005639038066629695 	101327.3011876371
-1.007257257257257 	300.0025181210397 	0.007298881820502561 	101327.9781090154
-1.004754754754755 	300.0030903071429 	0.008955977891733925 	101328.6545630584
-1.002252252252252 	300.0036619857059 	0.01061204446081481 	101329.3304158728
-0.9997497497497498 	300.0042330449483 	0.01226501911354536 	101330.005538453
-0.9972472472472473 	300.0048033555061 	0.01391784426562261 	101330.6797854664
-0.9947447447447449 	300.0053727876623 	0.01556838108902275 	101331.3530015256
-0.9922422422422421 	300.0059412235777 	0.01721334914584857 	101332.0250390388
-0.9897397397397399 	300.0065085584405 	0.01885652566060175 	101332.6957688416
-0.9872372372372376 	300.0070746893435 	0.02049653112819535 	101333.3650741645
-0.9847347347347346 	300.00763950793 	0.02213451442933557 	101334.0328396724
-0.9822322322322323 	300.008202912111 	0.0237679892141323 	101334.6989472512
-0.9797297297297296 	300.0087648075959 	0.02539390319673144 	101335.3632755451
-0.9772272272272275 	300.0093251000056 	0.02701606433467009 	101336.025699436
-0.9747247247247248 	300.0098836813198 	0.02863369749455493 	101336.6860893148
-0.9722222222222224 	300.0104404290635 	0.03024661805872794 	101337.3443140287
-0.9697197197197196 	300.0109952257201 	0.0318542070148122 	101338.0002484912
-0.9672172172172175 	300.0115479729776 	0.03345508398904463 	101338.6537791327
-0.9647147147147147 	300.0120985927175 	0.03505018584375248 	101339.3048009618
-0.9622122122122124 	300.0126470095426 	0.03663904633654382 	101339.9532077961
-0.9597097097097099 	300.0131931308912 	0.03822152492962321 	101340.5988836219
-0.9572072072072073 	300.0137368435545 	0.03979705781820306 	101341.2417031608
-0.9547047047047047 	300.0142780246426 	0.04136446743424752 	101341.8815389255
-0.9522022022022023 	300.0148165550335 	0.04292378331294153 	101342.5182645581
-0.9496996996996998 	300.0153523288184 	0.04447529360481767 	101343.1517538717
-0.9471971971971973 	300.0158852532737 	0.04601910250630725 	101343.7818829373
-0.9446946946946947 	300.0164152452637 	0.04755537585992637 	101344.4085346828
-0.9421921921921923 	300.0169422228285 	0.04908249409880625 	101345.0316000135
-0.93968968968969 	300.0174660943051 	0.05059926649357194 	101345.6509742428
-0.9371871871871872 	300.0179867563326 	0.05210699597314246 	101346.2665511026
-0.9346846846846848 	300.0185041014505 	0.05360567071495412 	101346.8782201055
-0.9321821821821823 	300.0190180273221 	0.05509574425282852 	101347.4858706117
-0.9296796796796799 	300.019528441651 	0.05657514509667028 	101348.0893948369
-0.9271771771771771 	300.0200352587765 	0.05804177810367117 	101348.6886837833
-0.9246746746746748 	300.0205383929938 	0.05949828350510786 	101349.2836235862
-0.9221721721721724 	300.0210377577216 	0.06094497331989576 	101349.8740977884
-0.9196696696696698 	300.0215332642848 	0.06238136605314809 	101350.4599902279
-0.9171671671671672 	300.022024819442 	0.06380613909835728 	101351.0411874497
-0.9146646646646649 	300.0225123283887 	0.0652173805174316 	101351.6175810152
-0.9121621621621623 	300.022995697825 	0.06661665508305627 	101352.1890683577
-0.9096596596596597 	300.0234748397295 	0.06800463045955601 	101352.7555529338
-0.9071571571571573 	300.023949668926 	0.06938007409217513 	101353.3169399581
-0.9046546546546547 	300.024420097227 	0.07074310972222293 	101353.8731291297
-0.9021521521521524 	300.0248860329746 	0.07209252717617792 	101354.4240143836
-0.8996496496496498 	300.0253473859085 	0.07342810948477059 	101354.9694906935
-0.8971471471471473 	300.025804072934 	0.07475096202231335 	101355.5094596047
-0.894644644644645 	300.0262560159638 	0.07605976798167248 	101356.0438285819
-0.892142142142142 	300.0267031357234 	0.07735623389193511 	101356.5725045602
-0.8896396396396397 	300.027145352293 	0.07863778634184398 	101357.095388603
-0.8871371371371374 	300.0275825772947 	0.07990306068121264 	101357.6123754089
-0.8846346346346349 	300.0280147191965 	0.08115465005269488 	101358.1233547306
-0.8821321321321324 	300.02844168688 	0.08239056941150688 	101358.6282178118
-0.8796296296296297 	300.0288633962747 	0.08361354381435593 	101359.1268682713
-0.8771271271271271 	300.0292797796703 	0.08482064295033925 	101359.6192258088
-0.8746246246246248 	300.0296907783122 	0.086009665927644 	101360.105219254
-0.8721221221221224 	300.0300963312854 	0.08718419753216897 	101360.5847748746
-0.8696196196196196 	300.0304963680718 	0.0883424938809598 	101361.0578062223
-0.8671171171171175 	300.0308908056447 	0.0894862322339896 	101361.5242160832
-0.8646146146146148 	300.0312795628952 	0.0906130615338583 	101361.9839098943
-0.8621121121121121 	300.0316625663432 	0.09172105198746802 	101362.4368026621
-0.8596096096096097 	300.0320397492958 	0.09281320006443697 	101362.8828163225
-0.857107107107107 	300.0324110481018 	0.09388844746689406 	101363.3218759583
-0.8546046046046049 	300.0327763979498 	0.09494707579615869 	101363.7539034414
-0.8521021021021022 	300.0331357280866 	0.09598819493178606 	101364.1788117186
-0.8495995995995997 	300.0334889620431 	0.09701099786742354 	101364.5965093424
-0.8470970970970974 	300.0338360276526 	0.0980163486805245 	101365.0069105181
-0.8445945945945946 	300.0341768591979 	0.09900364122019217 	101365.4099393938
-0.8420920920920922 	300.0345113985954 	0.09997304624301954 	101365.8055303621
-0.8395895895895897 	300.0348395938962 	0.1009239119243364 	101366.1936232363
-0.8370870870870872 	300.0351613880053 	0.101855759525444 	101366.5741502121
-0.8345845845845846 	300.0354767162731 	0.1027689495970434 	101366.9470337749
-0.8320820820820823 	300.0357855214571 	0.1036633961950942 	101367.3122051809
-0.8295795795795798 	300.036087762619 	0.104539302598108 	101367.6696138648
-0.8270770770770772 	300.0363833971223 	0.1053961614975274 	101368.0192075906
-0.8245745745745746 	300.0366723609864 	0.1062332891831922 	101368.360910733
-0.8220720720720721 	300.0369545745669 	0.1070503866680035 	101368.6946299307
-0.8195695695695699 	300.0372299642716 	0.1078476798320358 	101369.0202802014
-0.817067067067067 	300.0374984843681 	0.1086254150497743 	101369.3378082022
-0.8145645645645651 	300.0377601135174 	0.1093836824733648 	101369.6471888649
-0.8120620620620621 	300.0380148221362 	0.1101217309684227 	101369.9483876743
-0.8095595595595597 	300.0382625510683 	0.1108388074676467 	101370.2413350759
-0.8070570570570572 	300.0385032395245 	0.1115358884460749 	101370.5259593553
-0.8045545545545546 	300.0387368563829 	0.1122129989978926 	101370.8022226118
-0.8020520520520523 	300.0389633701386 	0.1128707863271613 	101371.0700866054
-0.7995495495495494 	300.0391827137263 	0.1135071925229793 	101371.3294705154
-0.7970470470470474 	300.039394820065 	0.1141201184121242 	101371.5802926192
-0.7945445445445446 	300.039599667723 	0.1147124005693623 	101371.8225296816
-0.7920420420420423 	300.0397972619914 	0.1152844788007773 	101372.056189653
-0.7895395395395397 	300.0399875826683 	0.1158360889572221 	101372.2812487824
-0.7870370370370371 	300.040170582745 	0.1163667021141721 	101372.497651468
-0.7845345345345348 	300.0403462119105 	0.116874516880222 	101372.7053375152
-0.7820320320320323 	300.0405144121859 	0.1173610100053697 	101372.9042386411
-0.7795295295295296 	300.0406751270822 	0.1178271149496429 	101373.0942879781
-0.7770270270270272 	300.0408283313801 	0.1182712845921178 	101373.2754554532
-0.7745245245245247 	300.040974017331 	0.1186949565495448 	101373.4477318951
-0.7720220220220222 	300.041112156984 	0.1190954455762231 	101373.611083837
-0.7695195195195199 	300.0412427245716 	0.1194720204108145 	101373.7654813826
-0.767017017017017 	300.0413657338558 	0.1198278128230197 	101373.9109408662
-0.7645145145145147 	300.0414811900349 	0.1201613505128862 	101374.0474681019
-0.7620120120120122 	300.0415890440323 	0.1204751405543291 	101374.1750061527
-0.7595095095095097 	300.0416892448619 	0.1207658954475544 	101374.2934929008
-0.7570070070070072 	300.0417817728149 	0.1210329859997588 	101374.4029059761
-0.7545045045045048 	300.0418666109273 	0.1212791455625355 	101374.5032248784
-0.7520020020020022 	300.0419437322707 	0.1215018127458113 	101374.5944173923
-0.7494994994994997 	300.0420131243501 	0.1217041180290035 	101374.676469281
-0.7469969969969972 	300.0420747947728 	0.121883229404597 	101374.7493890978
-0.7444944944944945 	300.0421287404138 	0.1220378695725704 	101374.8131744504
-0.7419919919919924 	300.0421749276403 	0.122171127490869 	101374.8677849734
-0.7394894894894897 	300.0422133247349 	0.1222818378394321 	101374.9131827642
-0.7369869869869872 	300.042243947995 	0.122370974525383 	101374.9493866935
-0.7344844844844846 	300.042266816761 	0.1224375578099613 	101374.9764193637
-0.7319819819819822 	300.0422819094173 	0.1224811263187556 	101374.994256187
-0.7294794794794797 	300.0422892183317 	0.1225025645921088 	101375.0028883161
-0.7269769769769773 	300.0422887762548 	0.1225012821257963 	101375.0023536486
-0.7244744744744747 	300.0422805995507 	0.1224778135624783 	101374.9926731821
-0.721971971971972 	300.0422646556411 	0.1224314565649582 	101374.973806639
-0.7194694694694695 	300.0422408939265 	0.1223620629787984 	101374.9456936784
-0.7169669669669674 	300.0422093209891 	0.1222702263216534 	101374.9083427726
-0.7144644644644647 	300.0421699836655 	0.1221559871911739 	101374.8618096839
-0.711961961961962 	300.0421228888278 	0.1220198536885585 	101374.8061039718
-0.7094594594594597 	300.0420680154289 	0.1218612912160114 	101374.7412006869
-0.7069569569569573 	300.0420053811805 	0.121680096816161 	101374.6671189989
-0.7044544544544545 	300.041935049555 	0.1214763480385699 	101374.5839322215
-0.7019519519519523 	300.0418570528969 	0.1212501844627907 	101374.4916792394
-0.6994494494494495 	300.0417713596381 	0.1210019675285082 	101374.3903245928
-0.6969469469469471 	300.0416779423436 	0.1207314485865665 	101374.2798370797
-0.6944444444444446 	300.041576835257 	0.1204385656493785 	101374.1602580003
-0.6919419419419421 	300.041468102161 	0.1201231719931851 	101374.03166043
-0.6894394394394396 	300.0413517572372 	0.1197857781418742 	101373.8940605789
-0.6869369369369374 	300.0412277770824 	0.1194267294613794 	101373.7474302684
-0.6844344344344344 	300.0410961634072 	0.1190461415315624 	101373.5917710787
-0.6819319319319321 	300.0409569666319 	0.118643490011294 	101373.4271434073
-0.6794294294294296 	300.0408102449603 	0.1182179303254496 	101373.253617506
-0.6769269269269272 	300.0406560255334 	0.1177706798566791 	101373.0712272649
-0.6744244244244245 	300.0404943171225 	0.1173021116892913 	101372.8799835108
-0.6719219219219222 	300.0403251382868 	0.1168132754858352 	101372.6799074989
-0.6694194194194195 	300.0401485310139 	0.1163026271244047 	101372.4710440647
-0.6669169169169172 	300.0399645395256 	0.1157681471970314 	101372.2534448795
-0.6644144144144146 	300.0397732059491 	0.1152129472265551 	101372.0271632419
-0.661911911911912 	300.0395745641002 	0.1146379820342133 	101371.7922380725
-0.6594094094094097 	300.0393686222087 	0.1140419684557405 	101371.5486810347
-0.656906906906907 	300.0391553787563 	0.113425297466926 	101371.296492927
-0.6544044044044046 	300.0389348851016 	0.1127860695489659 	101371.0357319516
-0.6519019019019021 	300.0387072454968 	0.1121252661239354 	101370.7665227126
-0.6493993993993996 	300.0384725524158 	0.1114453458764932 	101370.4889745371
-0.6468968968968971 	300.0382307957874 	0.1107446686134987 	101370.2030719698
-0.6443943943943946 	300.0379818976206 	0.1100256218533795 	101369.9087240722
-0.6418918918918921 	300.0377258684388 	0.1092843927576268 	101369.605941488
-0.6393893893893897 	300.0374628918173 	0.1085207533172228 	101369.2949409629
-0.6368868868868871 	300.0371931885413 	0.1077393119932929 	101368.975985012
-0.6343843843843846 	300.0369168000566 	0.1069380323779485 	101368.6491233077
-0.6318818818818821 	300.0366335454417 	0.1061190623630926 	101368.3141427244
-0.6293793793793795 	300.0363432623862 	0.1052784580285584 	101367.9708520414
-0.6268768768768773 	300.0360460784214 	0.1044166445174127 	101367.6194062066
-0.6243743743743745 	300.0357422729765 	0.1035370407543539 	101367.2602567711
-0.6218718718718721 	300.0354323223035 	0.1026381557714652 	101366.8937294851
-0.6193693693693696 	300.0351161046161 	0.1017221851214718 	101366.5196800482
-0.6168668668668671 	300.0347930925805 	0.1007864897986979 	101366.1376704461
-0.6143643643643645 	300.0344631616678 	0.09983045783000506 	101365.7475101605
-0.6118618618618621 	300.034126679449 	0.0988561106832451 	101365.3496026641
-0.6093593593593596 	300.0337842529846 	0.09786425996224901 	101364.9446651285
-0.6068568568568571 	300.0334361879549 	0.09685626493614902 	101364.5330587791
-0.6043543543543546 	300.0330821928588 	0.09583042086978202 	101364.1144379315
-0.6018518518518521 	300.0327216743025 	0.09478536491164895 	101363.688102201
-0.5993493493493496 	300.0323543862237 	0.09372125321930054 	101363.2537639174
-0.5968468468468471 	300.0319807976982 	0.09263926996818118 	101362.8119803237
-0.5943443443443446 	300.0316017734018 	0.09154205148864469 	101362.3637731873
-0.591841841841842 	300.0312178211759 	0.09042995524644455 	101361.9097421618
-0.5893393393393397 	300.0308285942242 	0.0893019743899499 	101361.449476958
-0.5868368368368371 	300.0304331965706 	0.08815613510651152 	101360.9819168008
-0.5843343343343346 	300.0300310832301 	0.08699125819812231 	101360.5064171192
-0.5818318318318321 	300.0296226866062 	0.08580878698142769 	101360.0234887862
-0.5793293293293297 	300.0292091194673 	0.08461110499649237 	101359.534447004
-0.5768268268268271 	300.0287912662259 	0.08340081659560891 	101359.0403375611
-0.5743243243243245 	300.0283691474917 	0.08217787708059875 	101358.541184613
-0.5718218218218221 	300.0279419591224 	0.08094011552556413 	101358.0360369918
-0.5693193193193196 	300.0275086554946 	0.0796851136958209 	101357.5236589899
-0.5668168168168171 	300.0270688616357 	0.07841165370065502 	101357.0036087832
-0.5643143143143147 	300.0266233198254 	0.07712149204213564 	101356.4767646901
-0.5618118118118121 	300.0261733199289 	0.07581763956119121 	101355.9446514245
-0.5593093093093094 	300.0257198624112 	0.07450349418450825 	101355.4084541233
-0.5568068068068072 	300.0252630615935 	0.07317967877150189 	101354.8683062262
-0.5543043043043046 	300.0248019730839 	0.07184393696437193 	101354.3230899028
-0.551801801801802 	300.0243353694973 	0.07049263367996871 	101353.7713540918
-0.5492992992992995 	300.0238626185795 	0.06912285182678442 	101353.2123508361
-0.5467967967967969 	300.023384114645 	0.06773704214571039 	101352.6465481857
-0.5442942942942947 	300.0229011682023 	0.06633890939296226 	101352.0754959581
-0.5417917917917919 	300.0224151217801 	0.06493269326719019 	101351.5007817205
-0.5392892892892895 	300.0219266749937 	0.06351885535402092 	101350.9232315713
-0.536786786786787 	300.0214354690655 	0.06209375988995187 	101350.3424197011
-0.5342842842842846 	300.0209404146973 	0.06065760578952673 	101349.7570600682
-0.531781781781782 	300.0204403689436 	0.05920900758995904 	101349.1658003194
-0.5292792792792794 	300.0199348344231 	0.05774452762571407 	101348.5680531079
-0.526776776776777 	300.019424190288 	0.05626741899494959 	101347.96426811
-0.5242742742742745 	300.0189095219362 	0.05477705931790781 	101347.3557272931
-0.521771771771772 	300.0183920933646 	0.05327673273687569 	101346.7439269768
-0.5192692692692695 	300.0178728137471 	0.05177286912286025 	101346.129941331
-0.516766766766767 	300.0173518047471 	0.0502632568579671 	101345.5139126687
-0.5142642642642645 	300.0168285220362 	0.04874904501951432 	101344.8951987684
-0.511761761761762 	300.0163020060266 	0.04722338521535281 	101344.2726630014
-0.5092592592592596 	300.0157714735001 	0.04568414027409442 	101343.6453816047
-0.506756756756757 	300.0152365295431 	0.04413430278165682 	101343.0128872457
-0.5042542542542544 	300.0146973957947 	0.04257226934679328 	101342.3754416515
-0.5017517517517521 	300.0141547806738 	0.04100162621391515 	101341.7338839964
-0.4992492492492494 	300.0136095853369 	0.0394228381589342 	101341.0892787621
-0.496746746746747 	300.0130626803032 	0.03783849900152551 	101340.4426565376
-0.4942442442442445 	300.012514564727 	0.03625085352168531 	101339.7946061772
-0.4917417417417421 	300.0119652850465 	0.0346591026602139 	101339.1451815936
-0.4892392392392395 	300.0114146266198 	0.03306391311408131 	101338.4941298198
-0.486736736736737 	300.0108621522535 	0.03146297698913274 	101337.8409336905
-0.4842342342342345 	300.0103074000569 	0.02985535625838514 	101337.185048395
-0.481731731731732 	300.0097501047067 	0.02824086504746062 	101336.5261587641
-0.4792292292292296 	300.0091901760596 	0.02661885996563711 	101335.8641586612
-0.4767267267267268 	300.008627682168 	0.02499008618111132 	101335.1991291193
-0.4742242242242246 	300.0080629373947 	0.02335448741136814 	101334.5314412552
-0.471721721721722 	300.007496382443 	0.02171338601513828 	101333.8616183337
-0.4692192192192195 	300.0069284063493 	0.02006801295925143 	101333.1901186095
-0.4667167167167169 	300.0063592926377 	0.01841912381238007 	101332.5172768021
-0.4642142142142145 	300.0057892997032 	0.01676796579943969 	101331.8433977407
-0.461711711711712 	300.0052186427114 	0.01511466812539912 	101331.1687371218
-0.4592092092092094 	300.0046474395718 	0.01345983229155542 	101330.4934355091
-0.456706706706707 	300.0040757103556 	0.01180344355688512 	101329.8175160079
-0.4542042042042045 	300.0035034523833 	0.01014555955752721 	101329.1409748171
-0.451701701701702 	300.0029306790893 	0.008486599871997758 	101328.4638257506
-0.4491991991991995 	300.0023574303128 	0.006826222800143632 	101327.786117133
-0.4466966966966969 	300.001783768688 	0.005164690912058597 	101327.10792481
-0.4441941941941945 	300.001209763143 	0.003501707332020307 	101326.429330578
-0.441691691691692 	300.0006354905261 	0.001837767186192077 	101325.7504251481
-0.4391891891891895 	300.0000610412108 	0.0003689353935235552 	101325.0713127728
-0.436686686686687 	299.9994864914519 	0.001490840474156394 	101324.3920828969
-0.4341841841841846 	299.9989119234038 	0.003155025729741183 	101323.7128343314
-0.431681681681682 	299.998337442085 	0.004819527340592988 	101323.0336932019
-0.4291791791791794 	299.9977631691384 	0.006483409381415711 	101322.3548048898
-0.426676676676677 	299.9971892352556 	0.008145822701558173 	101321.6763212256
-0.4241741741741744 	299.9966157717163 	0.009806442957858765 	101320.9983945931
-0.421671671671672 	299.9960429009713 	0.0114651991791269 	101320.3211689575
-0.4191691691691694 	299.9954707309796 	0.01312350416627991 	101319.6447740403
-0.4166666666666669 	299.9948993646301 	0.0147795575741427 	101318.9693357114
-0.4141641641641645 	299.9943289106986 	0.01643221815612938 	101318.2949833252
-0.411661661661662 	299.9937594836339 	0.01808078055097907 	101317.6218488664
-0.4091591591591594 	299.9931912038379 	0.01972491996313456 	101316.9500717799
-0.406656656656657 	299.9926241932263 	0.02136868008963347 	101316.2797934029
-0.4041541541541545 	299.9920585583868 	0.02300915147187011 	101315.6111426245
-0.401651651651652 	299.9914943924655 	0.02464346748009468 	101314.9442343349
-0.3991491491491494 	299.9909317843119 	0.02627342494661081 	101314.2791752952
-0.396646646646647 	299.9903708263653 	0.02789607158644963 	101313.6160749645
-0.3941441441441444 	299.9898116291339 	0.0295161498583956 	101312.9550561762
-0.3916416416416419 	299.9892543041919 	0.03113291479561767 	101312.2962493773
-0.3891391391391395 	299.988698962226 	0.03274164686673083 	101311.6397838132
-0.3866366366366368 	299.9881457080573 	0.0343444975274349 	101310.9857892541
-0.3841341341341344 	299.987594646416 	0.03593959182389564 	101310.3343953636
-0.381631631631632 	299.9870458784009 	0.03752949218880952 	101309.6857229382
-0.3791291291291294 	299.9864994993239 	0.0391129103449419 	101309.0398803441
-0.3766266266266269 	299.9859556019822 	0.04068850178365457 	101308.3969700519
-0.3741241241241244 	299.9854142866126 	0.04225741081605189 	101307.7571065551
-0.371621621621622 	299.9848756667046 	0.04381731705792673 	101307.1204266271
-0.3691191191191194 	299.9843398566794 	0.04536975991518476 	101306.4870710768
-0.366616616616617 	299.9838069534763 	0.04691392761040646 	101305.8571627893
-0.3641141141141143 	299.9832770434731 	0.04844899267389312 	101305.2308047853
-0.3616116116116119 	299.9827502141581 	0.0499752752460378 	101304.6080951949
-0.3591091091091095 	299.9822265644793 	0.051491781567797 	101303.9891428878
-0.356606606606607 	299.9817061979155 	0.05299936005308139 	101303.3740634978
-0.3541041041041044 	299.9811892068395 	0.05449735890958111 	101302.7629671338
-0.3516016016016019 	299.9806756778014 	0.0559852052039997 	101302.1559628802
-0.3490990990990994 	299.9801657072584 	0.05746274110151131 	101301.5531750042
-0.346596596596597 	299.9796594112578 	0.05892912769033676 	101300.9547458606
-0.3440940940940944 	299.979156906396 	0.06038478616023288 	101300.3608102727
-0.3415915915915919 	299.9786582836466 	0.06182915377670634 	101299.7714672394
-0.3390890890890895 	299.9781636107102 	0.06326210021321842 	101299.1867857623
-0.3365865865865869 	299.9776729558879 	0.06468349452615405 	101298.6068419897
-0.3340840840840844 	299.9771864096265 	0.06609277708735317 	101298.0317465735
-0.3315815815815819 	299.9767040742837 	0.06749026449171522 	101297.4616291457
-0.3290790790790794 	299.9762260396273 	0.06887531741536024 	101296.8966073342
-0.3265765765765769 	299.9757523887926 	0.07024783651123533 	101296.3367845448
-0.3240740740740744 	299.9752832175602 	0.07160723353562518 	101295.782271722
-0.3215715715715718 	299.9748186401041 	0.07295275994876599 	101295.2331948256
-0.3190690690690695 	299.9743587627357 	0.07428463876675916 	101294.689667507
-0.3165665665665668 	299.9739036559378 	0.07560245260313389 	101294.151764406
-0.3140640640640644 	299.9734533628383 	0.07690679176168735 	101293.61953623
-0.311561561561562 	299.9730079355209 	0.07819720144436877 	101293.0930536791
-0.3090590590590593 	299.9725674618754 	0.07947303565632306 	101292.5724312136
-0.3065565565565568 	299.9721320505768 	0.08073441342174902 	101292.0578081758
-0.3040540540540545 	299.9717018092917 	0.08198067069047428 	101291.5493161348
-0.3015515515515518 	299.9712768341022 	0.08321259990857299 	101291.0470639436
-0.2990490490490494 	299.9708572108454 	0.08442907136988227 	101290.5511448367
-0.2965465465465469 	299.9704430190834 	0.08562901610097637 	101290.0616397464
-0.2940440440440444 	299.9700343168145 	0.08681243198328031 	101289.5786088838
-0.2915415415415418 	299.9696311448615 	0.08797887384586045 	101289.1020976188