/*--------------------------------*- C++ -*----------------------------------*\
  =========                 |
  \\      /  F ield         | OpenFOAM: The Open Source CFD Toolbox
   \\    /   O peration     | Website:  https://openfoam.org
    \\  /    A nd           | Version:  7
     \\/     M anipulation  |
\*---------------------------------------------------------------------------*/
FoamFile
{
    version     2.0;
    format      ascii;
    class       volScalarField;
    location    "0.00331";
    object      Ux;
}
// * * * * * * * * * * * * * * * * * * * * * * * * * * * * * * * * * * * * * //

dimensions      [0 1 -1 0 0 0 0];

internalField   nonuniform List<scalar> 
5000
(
0.07529631
0.075756369
0.074544755
0.075755383
0.075144596
0.075258289
0.075268438
0.07525643
0.075299035
0.075298668
0.075281723
0.075280263
0.075281771
0.075280006
0.075276222
0.075273509
0.075272304
0.075271359
0.075270409
0.075269472
0.075268562
0.075267665
0.075266772
0.075265909
0.075265073
0.075264249
0.075263439
0.075262645
0.075261869
0.075261108
0.075260362
0.075259627
0.075258902
0.075258194
0.075257499
0.075256816
0.075256146
0.075255486
0.075254834
0.075254193
0.075253564
0.075252947
0.075252341
0.075251742
0.07525115
0.075250569
0.075249991
0.075249419
0.075248861
0.075248314
0.075247904
0.07524782
0.075247924
0.075247941
0.075248002
0.075248086
0.075248254
0.075248527
0.075248418
0.075248241
0.075248259
0.075248286
0.075248394
0.075248561
0.07524912
0.075250584
0.075250275
0.075247499
0.075245733
0.075245959
0.075246241
0.075247102
0.075246493
0.075245163
0.075245236
0.075244985
0.075244937
0.075245058
0.075245296
0.075245753
0.075244942
0.075242778
0.075243227
0.07524533
0.075244545
0.075241009
0.075240568
0.075242012
0.075239943
0.075238791
0.07524168
0.075241718
0.075238209
0.075237615
0.075239438
0.075237762
0.075236667
0.075239555
0.075239562
0.075235895
0.07523522
0.07523696
0.075235051
0.075234316
0.075235975
0.075234065
0.07523333
0.075234978
0.075233107
0.075232119
0.075235095
0.075235114
0.075231592
0.075230835
0.075233947
0.075233957
0.075230341
0.075229565
0.075232704
0.075232665
0.075229291
0.075227092
0.075227291
0.075227504
0.075228247
0.075229735
0.075229655
0.075226955
0.075226234
0.075229224
0.075229213
0.075225705
0.075225111
0.0752267
0.075225178
0.07522336
0.075223481
0.075223658
0.07522418
0.075223013
0.075222958
0.075225626
0.07522553
0.075222162
0.075221559
0.075223512
0.075222773
0.075221916
0.07522233
0.075220584
0.075220245
0.075221413
0.075219682
0.075219073
0.075221776
0.075221739
0.075218523
0.075218016
0.075219449
0.075217821
0.075217262
0.075218591
0.075216991
0.07521636
0.075218918
0.075218861
0.075215818
0.075215202
0.075217724
0.075217661
0.075214729
0.075214173
0.075216626
0.07521657
0.075213643
0.07521319
0.07521447
0.07521294
0.075212449
0.075213668
0.075212153
0.075211687
0.07521288
0.075211482
0.075210002
0.07521013
0.075210307
0.075210854
0.075210242
0.075210242
0.075212165
0.075211874
0.075208996
0.075208575
0.075209828
0.075208319
0.075207861
0.07520907
0.075207568
0.075207098
0.075208297
0.075206815
0.075206294
0.075208691
0.075208627
0.075205752
0.075205313
0.075206554
0.075205075
0.075204629
0.075205821
0.075204347
0.075203817
0.075206187
0.07520612
0.075203271
0.075202835
0.075204137
0.075202812
0.075202096
0.075203076
0.075201795
0.075201454
0.075202477
0.075201195
0.075199705
0.07519982
0.075199964
0.075200488
0.075201577
0.075201447
0.075199392
0.075197765
0.07519783
0.075197899
0.075198143
0.075198553
0.075199729
0.075199654
0.075197386
0.075196803
0.075198921
0.075198845
0.075196304
0.075194736
0.075194808
0.075194883
0.075195153
0.075195602
0.075196901
0.075196802
0.075194206
0.075193772
0.07519505
0.075193498
0.075192922
0.075195398
0.075195332
0.075192349
0.075191891
0.075193215
0.075191931
0.075190322
0.075190428
0.07519057
0.075191093
0.075192211
0.075192085
0.075189751
0.075189232
0.0751918
0.075191733
0.07518866
0.075188193
0.075189536
0.07518795
0.075187456
0.075188738
0.075187146
0.075186659
0.075187938
0.07518642
0.075185551
0.07518654
0.075185528
0.075184612
0.075184823
0.075185108
0.075185995
0.075185027
0.075182231
0.075181779
0.075182067
0.075182378
0.075183306
0.075182336
0.075182309
0.075183417
0.075181859
0.075180555
0.075181156
0.07518062
0.075180209
0.075180306
0.075180424
0.075180837
0.075181826
0.075181571
0.075178994
0.075178565
0.07517992
0.075178288
0.075177694
0.075180329
0.07518026
0.0751771
0.075176599
0.07517795
0.075176377
0.075175769
0.075176954
0.075175668
0.075174178
0.075174301
0.075174451
0.075174994
0.075176123
0.075175962
0.075173592
0.075173037
0.075174233
0.075172866
0.075171522
0.07517187
0.075172335
0.075173831
0.075173796
0.075171077
0.075169262
0.075169855
0.075169341
0.075168909
0.075168978
0.075169071
0.075169313
0.075168402
0.075167718
0.07516808
0.07516858
0.075170192
0.075170135
0.075167316
0.075166835
0.075168693
0.075168056
0.075166894
0.075167008
0.075165696
0.075165494
0.075166311
0.075164715
0.075164361
0.075166889
0.075166794
0.075163716
0.075163262
0.075164584
0.075162976
0.075162504
0.075163773
0.075162157
0.075161663
0.075162924
0.07516133
0.075160782
0.075163305
0.075163188
0.075160258
0.07515881
0.075159199
0.075159706
0.075161347
0.075161305
0.075158524
0.075157997
0.075160564
0.075160467
0.075157411
0.075156957
0.075158229
0.075156752
0.075155291
0.07515549
0.075155747
0.075156515
0.075156159
0.075156187
0.075156478
0.075154434
0.075154008
0.075155262
0.075153665
0.075153184
0.075154408
0.075152838
0.075152365
0.075153561
0.075152029
0.075151463
0.075153763
0.075153653
0.075150908
0.07515045
0.075151521
0.075150258
0.075149001
0.075149084
0.075149191
0.075149464
0.075148794
0.075148542
0.075148988
0.075148365
0.075148168
0.07514865
0.07514835
0.07514798
0.075148018
0.075147988
0.075147971
0.075147986
0.075148005
0.075148056
0.075148167
0.075148354
0.075148621
0.075148986
0.075149416
0.075149891
0.075150402
0.075150935
0.07515146
0.075152016
0.075152585
0.075153182
0.075153818
0.075154487
0.075155212
0.075155993
0.075156839
0.075157764
0.075158769
0.075159873
0.075161075
0.075162369
0.075163755
0.075165209
0.075166761
0.075168436
0.075170221
0.075172094
0.07517391
0.075175608
0.075177329
0.075179123
0.075180995
0.075182923
0.075184841
0.075186606
0.075188102
0.075189302
0.075190397
0.075191656
0.075193301
0.075195124
0.075196478
0.075197469
0.075198704
0.075200712
0.07520311
0.075204781
0.075205762
0.075206521
0.075207635
0.075209322
0.075210737
0.075211571
0.075212235
0.075213012
0.075213688
0.075213772
0.07521363
0.075213581
0.075213462
0.075213207
0.075212939
0.075212305
0.075211591
0.075211931
0.075212353
0.075211967
0.075211465
0.075210291
0.075210819
0.075213551
0.075214023
0.075213169
0.075212156
0.075211952
0.075213718
0.07521493
0.075213886
0.075212367
0.075212517
0.075214876
0.075216035
0.075215116
0.075213895
0.075213705
0.075215419
0.075216617
0.075215829
0.075214806
0.075214339
0.075216083
0.075218858
0.075218677
0.075218238
0.075218249
0.07521799
0.075217739
0.07521673
0.075216066
0.075217311
0.075218656
0.075218422
0.075218378
0.075218235
0.075218035
0.075217801
0.07521731
0.075216788
0.075215813
0.075214968
0.07521675
0.075220491
0.075220973
0.075220261
0.075220122
0.075219631
0.075219079
0.075217724
0.075217188
0.075218784
0.075219712
0.075219329
0.075219301
0.0752192
0.075219088
0.075218804
0.075218368
0.075217669
0.075216362
0.075213976
0.075213801
0.075216926
0.075218934
0.075218507
0.075218413
0.075218097
0.075217688
0.075217043
0.075215511
0.075214895
0.075216347
0.075217539
0.075217168
0.075217124
0.075216963
0.075216782
0.075216308
0.075215604
0.075214103
0.075211003
0.075210974
0.075214544
0.075215489
0.07521484
0.075214684
0.075214173
0.07521335
0.075212112
0.075212343
0.075212736
0.075212329
0.075211796
0.075210803
0.075211484
0.075212483
0.075212289
0.075212106
0.075211451
0.075210491
0.075209091
0.075208886
0.075210189
0.075210183
0.075210177
0.075210108
0.075209988
0.075209539
0.075208681
0.075206565
0.075206366
0.075209268
0.075210121
0.075209402
0.075209344
0.075209144
0.075208891
0.075208412
0.075207435
0.075206025
0.07520598
0.075206287
0.075205855
0.075205311
0.075202929
0.075202696
0.075205872
0.075206845
0.075206112
0.075206035
0.075205768
0.075205461
0.0752049
0.075204109
0.075203451
0.075203052
0.075202439
0.075201756
0.075200334
0.075197578
0.07519775
0.075201481
0.075203217
0.075202436
0.075202113
0.075201127
0.075199549
0.075199302
0.075200362
0.07520047
0.075200331
0.075200214
0.075199797
0.075199301
0.075199801
0.075200329
0.075199883
0.075199555
0.075198366
0.075197244
0.075197252
0.075197193
0.075197216
0.075197098
0.075196923
0.075196624
0.075196161
0.075195273
0.075195175
0.075194912
0.075194604
0.07519617
0.075197347
0.075196764
0.075196496
0.07519558
0.075194368
0.07519452
0.075195379
0.075195377
0.075195368
0.075195176
0.075194936
0.075193923
0.075192912
0.075193058
0.075192762
0.075192763
0.075192725
0.075192611
0.075192228
0.075191054
0.075190858
0.075191623
0.075191622
0.07519162
0.075191473
0.075191284
0.075190304
0.075190052
0.075191759
0.075191986
0.075191432
0.075191005
0.075189552
0.07518854
0.075188434
0.075188187
0.075187882
0.075186646
0.075186657
0.075188857
0.075189796
0.075189315
0.075189037
0.075188162
0.075187486
0.075187117
0.075186269
0.075185962
0.075185224
0.075183925
0.075184367
0.075186143
0.075186122
0.075186065
0.075185754
0.075185292
0.075186523
0.075186882
0.075186282
0.075185612
0.075183406
0.075183296
0.075185574
0.075185982
0.075185821
0.075185737
0.075185457
0.075185161
0.075184217
0.075183655
0.075184618
0.075184931
0.075184511
0.075184287
0.075183586
0.075183153
0.075182775
0.075181918
0.075181554
0.075180662
0.075179132
0.075179406
0.075181157
0.075181091
0.07518087
0.075180052
0.075177385
0.075177711
0.075181499
0.075182809
0.075182117
0.075181622
0.075179767
0.0751793
0.075181374
0.075182163
0.07518171
0.075181256
0.075179756
0.075179465
0.075179901
0.075179561
0.075179524
0.075180208
0.075180911
0.075180495
0.075180238
0.07517936
0.075178123
0.075178346
0.075179153
0.075179082
0.075178942
0.075178453
0.075177601
0.075177119
0.07517713
0.075177093
0.075177043
0.075176231
0.075174277
0.075174823
0.075178174
0.075178979
0.075178342
0.075178067
0.075177167
0.07517673
0.075176359
0.075175426
0.075175183
0.075174547
0.075173612
0.075174253
0.075175634
0.075175538
0.075175382
0.075174876
0.0751738
0.075173538
0.075173961
0.075173941
0.075173913
0.075173344
0.075171996
0.075173311
0.075176989
0.075177192
0.075176088
0.075175678
0.075174322
0.075171891
0.075171855
0.075174969
0.075176802
0.075176274
0.075176196
0.075175938
0.075175631
0.075174819
0.075173457
0.075173047
0.075173224
0.075172933
0.075173116
0.07517311
0.075173088
0.075174119
0.075174359
0.075173961
0.075173668
0.075172665
0.075172069
0.075171788
0.07517093
0.075170836
0.075170555
0.075170157
0.075171209
0.075172619
0.075172476
0.075172298
0.075171652
0.075170572
0.075170674
0.075171475
0.075171427
0.075171265
0.075170496
0.07516882
0.075169785
0.075173214
0.07517359
0.075172588
0.075172326
0.075171505
0.075170179
0.075169627
0.075170044
0.075170029
0.075169998
0.075169991
0.075169663
0.075169296
0.075169773
0.075170711
0.075170691
0.075170656
0.075170535
0.0751702
0.075169542
0.075169737
0.075170714
0.075170699
0.075170645
0.075170417
0.075169852
0.075168188
0.075168561
0.075171768
0.075172338
0.075171504
0.075171273
0.075170378
0.075169877
0.075170698
0.075171281
0.075171062
0.075170998
0.07517077
0.075170505
0.075169829
0.075168668
0.075168069
0.075168082
0.075168055
0.075168015
0.075167186
0.07516526
0.075165702
0.075169025
0.075170532
0.07517015
0.075169986
0.075169462
0.075168595
0.07516756
0.075167961
0.075169167
0.075169117
0.075169011
0.075168628
0.07516776
0.075167169
0.075168055
0.075169216
0.075168932
0.07516861
0.075167407
0.075165402
0.075166158
0.075169303
0.07516954
0.07516856
0.075168285
0.075167194
0.075166642
0.075167803
0.075168721
0.075168369
0.075168061
0.075166952
0.075165123
0.075165176
0.075166749
0.075166995
0.075166938
0.075166903
0.075166303
0.075166238
0.07516737
0.075168369
0.075168015
0.075167631
0.075166298
0.075163744
0.075163791
0.075166877
0.075168384
0.075167758
0.075167576
0.075166844
0.075166119
0.075166846
0.075167893
0.07516769
0.075167504
0.075166695
0.075165593
0.075165997
0.075167003
0.075167001
0.075166997
0.075166546
0.075165938
0.075166668
0.075167715
0.075167701
0.075167684
0.075167535
0.075167367
0.075166855
0.075165954
0.075164448
0.075164019
0.075165999
0.07516755
0.075167057
0.075166859
0.075166051
0.075165489
0.075166674
0.075167756
0.075167537
0.07516731
0.075166579
0.07516516
0.07516474
0.075166441
0.075168146
0.075167965
0.075167844
0.075167381
0.07516687
0.075165494
0.075165145
0.075167208
0.075168079
0.075167542
0.075167259
0.075166199
0.075164449
0.075165082
0.075167961
0.075168363
0.075167474
0.075167282
0.075166451
0.075165897
0.075166976
0.075168186
0.075168056
0.075167905
0.075167395
0.075166342
0.075165862
0.075167111
0.075168633
0.075168546
0.075168442
0.075168041
0.07516744
0.075166159
0.075166042
0.075167554
0.075167448
0.075167065
0.07516744
0.075167398
0.075167401
0.075168323
0.075168675
0.075168371
0.075167979
0.075166883
0.075167156
0.075168473
0.075168527
0.075168551
0.07516816
0.075167721
0.075168651
0.075169685
0.075169478
0.075169238
0.075168272
0.075166723
0.075167828
0.075170908
0.075171048
0.075170106
0.075169957
0.075169194
0.075168736
0.075169918
0.075171274
0.075171163
0.075171024
0.075170529
0.07516938
0.075169143
0.075170622
0.075171867
0.075171634
0.0751714
0.075170441
0.075168896
0.07516982
0.075172881
0.075173565
0.075173041
0.075172925
0.075172483
0.075171723
0.075171145
0.07517244
0.075174438
0.075174439
0.075174443
0.075174441
0.075174379
0.075174213
0.075173482
0.075172557
0.075173237
0.075174857
0.075174881
0.07517485
0.075174808
0.075174684
0.075174164
0.075173895
0.075175525
0.075177176
0.075177135
0.075177089
0.075176827
0.075176474
0.075175478
0.075175363
0.075176541
0.07517649
0.075176318
0.075176549
0.075176406
0.075175777
0.075177018
0.075180183
0.075181016
0.075180585
0.075180556
0.075180313
0.075179913
0.075179041
0.075179878
0.075182032
0.075182165
0.07518216
0.075182155
0.075182058
0.075181824
0.075180954
0.07518212
0.075184624
0.075184667
0.075184453
0.075184505
0.075184457
0.075184237
0.07518415
0.075185665
0.075187318
0.075187231
0.075187113
0.075186476
0.075184997
0.075185152
0.075187645
0.075189273
0.075189037
0.075189078
0.075188616
0.075188545
0.075190148
0.075191602
0.075191497
0.075191361
0.075190569
0.075188822
0.075189288
0.075192534
0.075194648
0.075194605
0.075194549
0.075194109
0.07519312
0.07519325
0.075195567
0.075197619
0.075197615
0.075197608
0.075197434
0.075196879
0.075196979
0.07519888
0.075200838
0.075200825
0.07520088
0.075200912
0.07520077
0.075200313
0.075201522
0.075204441
0.07520498
0.075204607
0.075204542
0.075203492
0.075203669
0.075205904
0.07520724
0.075206993
0.075207071
0.075206793
0.075207039
0.075209064
0.075210748
0.075210722
0.075210739
0.075210206
0.075210474
0.075212495
0.075213428
0.075213426
0.075213422
0.075213388
0.075214972
0.075216468
0.075216169
0.075216292
0.075216205
0.075216514
0.075218641
0.075220609
0.075220607
0.075220604
0.075220096
0.075218545
0.075219067
0.07522253
0.075225106
0.075225085
0.075225105
0.075224645
0.075223237
0.075223789
0.075227183
0.075229697
0.075229663
0.075229698
0.075229302
0.075227975
0.075228573
0.075231969
0.075234443
0.075234396
0.075234438
0.075234065
0.075232741
0.075233295
0.075236991
0.075239914
0.075239902
0.075240518
0.07524097
0.075240963
0.075240946
0.075240764
0.075242884
0.07524646
0.07524695
0.075246433
0.075247126
0.075247531
0.075247378
0.075246904
0.075247482
0.075250449
0.075253078
0.075253069
0.075253054
0.075253103
0.075252952
0.07525228
0.075252845
0.075256538
0.075259808
0.075259814
0.07526011
0.075260409
0.075260352
0.075260369
0.075260669
0.075263402
0.075267128
0.075267159
0.075266415
0.075267582
0.075268554
0.075268535
0.075268392
0.075268467
0.075270623
0.075274143
0.075274892
0.075274479
0.075275135
0.075275529
0.075275276
0.075274547
0.07527541
0.075279104
0.075282057
0.075282024
0.075281998
0.075282368
0.075282414
0.075282014
0.075283144
0.075286579
0.075288956
0.075288941
0.075288926
0.075288681
0.075287936
0.075288934
0.075292498
0.07529527
0.075295233
0.075295187
0.075294947
0.075294105
0.075295208
0.075298908
0.075301666
0.075301617
0.075301563
0.075301349
0.075300779
0.075302345
0.075305827
0.075307528
0.075307389
0.075307231
0.075306364
0.075307113
0.075310473
0.075312432
0.075312093
0.075313025
0.07531385
0.075313833
0.075316012
0.075319196
0.075319011
0.075318214
0.07531923
0.075319609
0.075319197
0.075321201
0.075324861
0.075325923
0.075325315
0.075325822
0.075325961
0.075325254
0.075326572
0.075329657
0.075330944
0.075330294
0.075329485
0.075329834
0.075332321
0.075334425
0.075333739
0.07533273
0.075333763
0.075336417
0.075337696
0.075337234
0.075336747
0.075335753
0.07533619
0.075339636
0.075342548
0.075342056
0.075341338
0.075340692
0.075339222
0.075339667
0.07534274
0.075344866
0.075343776
0.075342364
0.075343214
0.075344804
0.07534436
0.07534314
0.075341782
0.075341238
0.075343557
0.075345808
0.075344704
0.075343398
0.075342032
0.075339641
0.075339193
0.075341698
0.075343378
0.075341765
0.075339825
0.075338108
0.075335808
0.075335192
0.075336936
0.075337443
0.075335219
0.075332931
0.07533032
0.075327532
0.07532711
0.075327791
0.075325706
0.075322318
0.075319892
0.075316923
0.075314174
0.075313576
0.075312241
0.075308378
0.075304405
0.075299878
0.075295393
0.075293478
0.075292137
0.07528798
0.075282801
0.075277405
0.075271114
0.075266054
0.075263244
0.075259639
0.075253095
0.075245803
0.075238837
0.075231114
0.07522394
0.075218798
0.075213112
0.075204714
0.075195335
0.07518562
0.075174922
0.075164887
0.075156787
0.075148118
0.075136787
0.075124219
0.075111168
0.075097094
0.075083389
0.075071379
0.075058834
0.075043752
0.075027094
0.075009392
0.074990582
0.074971828
0.074954342
0.07493682
0.074917132
0.074895595
0.074872677
0.074848283
0.074823413
0.074798861
0.074773328
0.07474545
0.074715584
0.074684813
0.074654053
0.074622473
0.074588427
0.074551841
0.074513359
0.074474228
0.074435398
0.074395453
0.074352465
0.074306703
0.074258485
0.074207792
0.07415584
0.074103607
0.074049707
0.073992426
0.073932111
0.073869117
0.073803029
0.073734008
0.073663156
0.073590519
0.073514599
0.073434859
0.073351663
0.07326479
0.073174036
0.073080103
0.072983385
0.072882809
0.072777537
0.072667765
0.072553304
0.072433945
0.072310342
0.072182698
0.072049868
0.07191113
0.071766627
0.071616068
0.071459321
0.071297039
0.071129145
0.070954384
0.070772183
0.070582646
0.070385441
0.070180201
0.069967154
0.069746404
0.069517077
0.069278369
0.06903017
0.06877225
0.068504223
0.068225709
0.067936223
0.067635329
0.067322859
0.066998613
0.066661833
0.066311744
0.06594797
0.065569953
0.06517716
0.06476955
0.06434678
0.063907662
0.063451276
0.062977222
0.062484815
0.061973422
0.061442826
0.060892381
0.060320761
0.059727021
0.059110561
0.058470504
0.057806013
0.057116537
0.056401206
0.055658654
0.05488777
0.054087634
0.05325719
0.052395523
0.051501614
0.050574002
0.049611313
0.048612349
0.047575815
0.046500579
0.045385411
0.044228528
0.043028207
0.041783037
0.040491369
0.039151531
0.037762121
0.036321439
0.034827251
0.033277513
0.031670392
0.03000383
0.028275691
0.026483964
0.024626525
0.022700819
0.020704255
0.018634445
0.016488833
0.014264697
0.01195938
0.0095701876
0.0070940681
0.004527778
0.0018681704
-0.00088807964
-0.0037447333
-0.0067171286
-0.009785719
-0.012954759
-0.016290551
-0.019704714
-0.023200915
-0.026885874
-0.030680014
-0.03458744
-0.038665888
-0.042880482
-0.047236863
-0.051762063
-0.056441968
-0.061283102
-0.06630379
-0.071497345
-0.076871313
-0.082439832
-0.088200328
-0.09416143
-0.1003348
-0.10672067
-0.11332886
-0.12016934
-0.12724446
-0.13456537
-0.14214079
-0.14997497
-0.15808067
-0.16646536
-0.17513481
-0.18410373
-0.19337833
-0.20296593
-0.21288375
-0.22313635
-0.2337324
-0.24469235
-0.25601828
-0.26772036
-0.27982408
-0.29232716
-0.30524112
-0.31860007
-0.33239235
-0.34663093
-0.36137437
-0.376577
-0.3922536
-0.40850933
-0.42525308
-0.44250199
-0.46036555
-0.47879119
-0.49779754
-0.51743562
-0.5376941
-0.55859254
-0.58016718
-0.6024197
-0.62537114
-0.64905202
-0.67347058
-0.6986495
-0.7246164
-0.7513838
-0.77897614
-0.80741933
-0.8367291
-0.8669317
-0.89805183
-0.93010785
-0.96312801
-0.99713597
-1.0321523
-1.0682073
-1.1053235
-1.1435233
-1.1828396
-1.2232931
-1.2649081
-1.3077202
-1.3517478
-1.3970166
-1.443566
-1.4914103
-1.5405768
-1.5911105
-1.6430183
-1.6963292
-1.7511
-1.8073194
-1.8650201
-1.9242978
-1.9850755
-2.0473918
-2.1113831
-2.1769655
-2.2441773
-2.3131118
-2.3837365
-2.4560836
-2.5302038
-2.6060937
-2.6837815
-2.7633043
-2.8446665
-2.9278933
-3.0130135
-3.1000339
-3.1889764
-3.279863
-3.3727003
-3.467507
-3.5642983
-3.6630791
-3.7638643
-3.8666621
-3.9714747
-4.0783126
-4.1871768
-4.2980655
-4.410985
-4.5259278
-4.6428881
-4.7618671
-4.8828482
-5.005821
-5.130782
-5.2577038
-5.3865716
-5.5173777
-5.6500815
-5.7846648
-5.9211175
-6.0593802
-6.1994354
-6.3412765
-6.4848075
-6.630023
-6.7769379
-6.9253823
-7.0753657
-7.2269173
-7.3798728
-7.5342254
-7.6899553
-7.8469487
-8.0051719
-8.1645772
-8.3250729
-8.4866101
-8.6491292
-8.8125444
-8.9767982
-9.1418229
-9.3075347
-9.4738703
-9.640756
-9.8081093
-9.9758629
-10.143939
-10.312256
-10.480745
-10.649326
-10.817919
-10.986452
-11.154845
-11.323022
-11.490911
-11.658433
-11.825515
-11.992086
-12.158069
-12.323397
-12.488
-12.651805
-12.814751
-12.97677
-13.137793
-13.297767
-13.456625
-13.614308
-13.77077
-13.92594
-14.079774
-14.23224
-14.383257
-14.532774
-14.68078
-14.827218
-14.97204
-15.115226
-15.256734
-15.396528
-15.534585
-15.670872
-15.805363
-15.938036
-16.068869
-16.197841
-16.324938
-16.450143
-16.573443
-16.694828
-16.814287
-16.931816
-17.047407
-17.161058
-17.272768
-17.382536
-17.490364
-17.596255
-17.700215
-17.802249
-17.902365
-18.000574
-18.096884
-18.191307
-18.283857
-18.374546
-18.463391
-18.550407
-18.635611
-18.71902
-18.800652
-18.880529
-18.95867
-19.035093
-19.109819
-19.182874
-19.254283
-19.324065
-19.39224
-19.458832
-19.523866
-19.587362
-19.649344
-19.709838
-19.768873
-19.826474
-19.882665
-19.937471
-19.990916
-20.043025
-20.093824
-20.143336
-20.191587
-20.238602
-20.284404
-20.329018
-20.372469
-20.414781
-20.455977
-20.496081
-20.535118
-20.573109
-20.610078
-20.646047
-20.68104
-20.715078
-20.748182
-20.780376
-20.81168
-20.842114
-20.8717
-20.900458
-20.928407
-20.955568
-20.98196
-21.007602
-21.032512
-21.056709
-21.080211
-21.103035
-21.125199
-21.146721
-21.167615
-21.1879
-21.207592
-21.226707
-21.24526
-21.263263
-21.280731
-21.297677
-21.314115
-21.330061
-21.345527
-21.360529
-21.375079
-21.38919
-21.402874
-21.416143
-21.429009
-21.441482
-21.453574
-21.465295
-21.476656
-21.487668
-21.498339
-21.508681
-21.518703
-21.528413
-21.537821
-21.546936
-21.555766
-21.56432
-21.572606
-21.580631
-21.588404
-21.595932
-21.603222
-21.610281
-21.617117
-21.623735
-21.630143
-21.636348
-21.642354
-21.648168
-21.653797
-21.659245
-21.664517
-21.669621
-21.674561
-21.679342
-21.683968
-21.688444
-21.692775
-21.696967
-21.701023
-21.704949
-21.708749
-21.712426
-21.715984
-21.719424
-21.722749
-21.725963
-21.72907
-21.732074
-21.73498
-21.73779
-21.740508
-21.743138
-21.745681
-21.74814
-21.750519
-21.75282
-21.755044
-21.757195
-21.759275
-21.761286
-21.763231
-21.765111
-21.766929
-21.768686
-21.770385
-21.772028
-21.773616
-21.775152
-21.776636
-21.778071
-21.779458
-21.780799
-21.782096
-21.783349
-21.784561
-21.785732
-21.786865
-21.78796
-21.789018
-21.790041
-21.791031
-21.791987
-21.792912
-21.793806
-21.79467
-21.795506
-21.796314
-21.797096
-21.797851
-21.798582
-21.79929
-21.799974
-21.800635
-21.801274
-21.801893
-21.802491
-21.803071
-21.803634
-21.804178
-21.804705
-21.805215
-21.805708
-21.806186
-21.806647
-21.807094
-21.807525
-21.807942
-21.808345
-21.808734
-21.809111
-21.809476
-21.80983
-21.810173
-21.810506
-21.810829
-21.811142
-21.811446
-21.811742
-21.812028
-21.812307
-21.812577
-21.81284
-21.813095
-21.813343
-21.813584
-21.813819
-21.814047
-21.814269
-21.814484
-21.814695
-21.814899
-21.815099
-21.815293
-21.815483
-21.815668
-21.815848
-21.816024
-21.816197
-21.816365
-21.816529
-21.81669
-21.816847
-21.817001
-21.817152
-21.8173
-21.817445
-21.817587
-21.817727
-21.817864
-21.817999
-21.818132
-21.818262
-21.818391
-21.818517
-21.818642
-21.818765
-21.818886
-21.819006
-21.819124
-21.819241
-21.819357
-21.819472
-21.819585
-21.819697
-21.819809
-21.819919
-21.820029
-21.820138
-21.820246
-21.820354
-21.820461
-21.820567
-21.820673
-21.820779
-21.820884
-21.82099
-21.821094
-21.821199
-21.821303
-21.821408
-21.821512
-21.821616
-21.821721
-21.821825
-21.82193
-21.822034
-21.822139
-21.822245
-21.822351
-21.822457
-21.822563
-21.82267
-21.822778
-21.822886
-21.822995
-21.823103
-21.823212
-21.823322
-21.823432
-21.823542
-21.823652
-21.823763
-21.823875
-21.823987
-21.824099
-21.824213
-21.824326
-21.824441
-21.824556
-21.824672
-21.824788
-21.824904
-21.825022
-21.82514
-21.825259
-21.825379
-21.8255
-21.825622
-21.825746
-21.82587
-21.825996
-21.826123
-21.826251
-21.826381
-21.826511
-21.826643
-21.826776
-21.826909
-21.827044
-21.827179
-21.827315
-21.827452
-21.82759
-21.827728
-21.827868
-21.828008
-21.828149
-21.828291
-21.828434
-21.828578
-21.828724
-21.828871
-21.82902
-21.82917
-21.829321
-21.829473
-21.829627
-21.829781
-21.829937
-21.830095
-21.830253
-21.830413
-21.830575
-21.830737
-21.830901
-21.831066
-21.831232
-21.8314
-21.831569
-21.831739
-21.83191
-21.832083
-21.832257
-21.832432
-21.832608
-21.832785
-21.832963
-21.833143
-21.833324
-21.833506
-21.83369
-21.833875
-21.834061
-21.834249
-21.834438
-21.834629
-21.834821
-21.835015
-21.83521
-21.835406
-21.835604
-21.835804
-21.836004
-21.836206
-21.83641
-21.836614
-21.83682
-21.837027
-21.837235
-21.837444
-21.837654
-21.837866
-21.838079
-21.838294
-21.83851
-21.838728
-21.838947
-21.839168
-21.83939
-21.839613
-21.839838
-21.840065
-21.840293
-21.840522
-21.840753
-21.840985
-21.841219
-21.841454
-21.84169
-21.841928
-21.842168
-21.842408
-21.84265
-21.842894
-21.843139
-21.843385
-21.843633
-21.843883
-21.844133
-21.844386
-21.844639
-21.844894
-21.845151
-21.845409
-21.845668
-21.845929
-21.846191
-21.846455
-21.84672
-21.846986
-21.847254
-21.847523
-21.847794
-21.848066
-21.84834
-21.848614
-21.848891
-21.849169
-21.849448
-21.849728
-21.85001
-21.850294
-21.850579
-21.850865
-21.851152
-21.851441
-21.851732
-21.852024
-21.852317
-21.852611
-21.852907
-21.853204
-21.853503
-21.853803
-21.854104
-21.854407
-21.854711
-21.855017
-21.855323
-21.855631
-21.855941
-21.856251
-21.856563
-21.856876
-21.857191
-21.857507
-21.857824
-21.858142
-21.858462
-21.858782
-21.859104
-21.859427
-21.859751
-21.860076
-21.860402
-21.860729
-21.861057
-21.861386
-21.861715
-21.862046
-21.862376
-21.862708
-21.86304
-21.863373
-21.863706
-21.86404
-21.864374
-21.864709
-21.865046
-21.865383
-21.86572
-21.866057
-21.866395
-21.866737
-21.867081
-21.867431
-21.867785
-21.868143
-21.868505
-21.86887
-21.869238
-21.869608
-21.86998
-21.870353
-21.870727
-21.871102
-21.871478
-21.871855
-21.872233
-21.872612
-21.872991
-21.873369
-21.873748
-21.87413
-21.874513
-21.874899
-21.875287
-21.875676
-21.876065
-21.876455
-21.876846
-21.87724
-21.877634
-21.87803
-21.878427
-21.878824
-21.879222
-21.87962
-21.880018
-21.880417
-21.880817
-21.881217
-21.881618
-21.88202
-21.882423
-21.882825
-21.883229
-21.883632
-21.884035
-21.884437
-21.884839
-21.885244
-21.885652
-21.886062
-21.886477
-21.886892
-21.887309
-21.887727
-21.888145
-21.888563
-21.888982
-21.889401
-21.88982
-21.890238
-21.890657
-21.891075
-21.891494
-21.891915
-21.892336
-21.892756
-21.893177
-21.893599
-21.894026
-21.894453
-21.894882
-21.895311
-21.89574
-21.896166
-21.896592
-21.897017
-21.897448
-21.897883
-21.898321
-21.898763
-21.899206
-21.89965
-21.900093
-21.900537
-21.90098
-21.901423
-21.901866
-21.902308
-21.902751
-21.903193
-21.903637
-21.904081
-21.904526
-21.904972
-21.905418
-21.905864
-21.906311
-21.906757
-21.907204
-21.907651
-21.908098
-21.908545
-21.908992
-21.909439
-21.909886
-21.910335
-21.910786
-21.911237
-21.91169
-21.912144
-21.912599
-21.913054
-21.913509
-21.913964
-21.914419
-21.914874
-21.91533
-21.915786
-21.916243
-21.916699
-21.917157
-21.917614
-21.918073
-21.918532
-21.918992
-21.919452
-21.919913
-21.920374
-21.920836
-21.921297
-21.921758
-21.92222
-21.922682
-21.923144
-21.923606
-21.924068
-21.92453
-21.924993
-21.925456
-21.925919
-21.926382
-21.926845
-21.927307
-21.927769
-21.928231
-21.928694
-21.929156
-21.929619
-21.930082
-21.930546
-21.931009
-21.931472
-21.931936
-21.932399
-21.932863
-21.933327
-21.933791
-21.934255
-21.934719
-21.935183
-21.935646
-21.936109
-21.936572
-21.937034
-21.937496
-21.937957
-21.938418
-21.938878
-21.939338
-21.939798
-21.940257
-21.940717
-21.941176
-21.941636
-21.942095
-21.942554
-21.943013
-21.943472
-21.943929
-21.944386
-21.944841
-21.945296
-21.945751
-21.946207
-21.946662
-21.947117
-21.947571
-21.948024
-21.948476
-21.948925
-21.949373
-21.949819
-21.950264
-21.950707
-21.951149
-21.951591
-21.952032
-21.952473
-21.952913
-21.953352
-21.95379
-21.954226
-21.95466
-21.955092
-21.955524
-21.955954
-21.956382
-21.956808
-21.957233
-21.957656
-21.958077
-21.958496
-21.958914
-21.959329
-21.959741
-21.960151
-21.960558
-21.960962
-21.961364
-21.961763
-21.962159
-21.962552
-21.962942
-21.96333
-21.963717
-21.964101
-21.964483
-21.964862
-21.965237
-21.965607
-21.965974
-21.966337
-21.966696
-21.967052
-21.967404
-21.967752
-21.968096
-21.968435
-21.968769
-21.969099
-21.969423
-21.969742
-21.970056
-21.970366
-21.97067
-21.970968
-21.971262
-21.971551
-21.971833
-21.972109
-21.97238
-21.972645
-21.972904
-21.973156
-21.973402
-21.973641
-21.973874
-21.974102
-21.974322
-21.974531
-21.97473
-21.974923
-21.975111
-21.975288
-21.975456
-21.975617