/*--------------------------------*- C++ -*----------------------------------*\
  =========                 |
  \\      /  F ield         | OpenFOAM: The Open Source CFD Toolbox
   \\    /   O peration     | Website:  https://openfoam.org
    \\  /    A nd           | Version:  7
     \\/     M anipulation  |
\*---------------------------------------------------------------------------*/
FoamFile
{
    version     2.0;
    format      ascii;
    class       volScalarField;
    location    "0.0018";
    object      Ux;
}
// * * * * * * * * * * * * * * * * * * * * * * * * * * * * * * * * * * * * * //

dimensions      [0 1 -1 0 0 0 0];

internalField   nonuniform List<scalar> 
5000
(
-51.039498
-50.991906
-50.968457
-50.941109
-50.914687
-50.887729
-50.860834
-50.833724
-50.806633
-50.779447
-50.752269
-50.725044
-50.697821
-50.670571
-50.643321
-50.616053
-50.58878
-50.5615
-50.534209
-50.50692
-50.479622
-50.452327
-50.425032
-50.397738
-50.370446
-50.343157
-50.315871
-50.288589
-50.26131
-50.234036
-50.206765
-50.1795
-50.152238
-50.124982
-50.09773
-50.070483
-50.043241
-50.016006
-49.988775
-49.96155
-49.93433
-49.907115
-49.879905
-49.8527
-49.8255
-49.798306
-49.771116
-49.743931
-49.716752
-49.689577
-49.662408
-49.635244
-49.608086
-49.580933
-49.553786
-49.526645
-49.499511
-49.472383
-49.445262
-49.418148
-49.391042
-49.363942
-49.336849
-49.309762
-49.282681
-49.255606
-49.228534
-49.201465
-49.174398
-49.147333
-49.120268
-49.093203
-49.066138
-49.039073
-49.012006
-48.98494
-48.957873
-48.930807
-48.903742
-48.876679
-48.849618
-48.82256
-48.795506
-48.768455
-48.741407
-48.714364
-48.687325
-48.66029
-48.63326
-48.606236
-48.579216
-48.552201
-48.525191
-48.498186
-48.471186
-48.444191
-48.4172
-48.390214
-48.363233
-48.336256
-48.309284
-48.282317
-48.255355
-48.228399
-48.201447
-48.174501
-48.14756
-48.120624
-48.093693
-48.066768
-48.039847
-48.01293
-47.986019
-47.959112
-47.932209
-47.905312
-47.878419
-47.851531
-47.824647
-47.797769
-47.770896
-47.744027
-47.717163
-47.690304
-47.663449
-47.636599
-47.609753
-47.582912
-47.556077
-47.529246
-47.50242
-47.475599
-47.448783
-47.421972
-47.395165
-47.368363
-47.341566
-47.314773
-47.287985
-47.261202
-47.234424
-47.207651
-47.180882
-47.154118
-47.127359
-47.100604
-47.073854
-47.047108
-47.020368
-46.993631
-46.9669
-46.940173
-46.913451
-46.886733
-46.860019
-46.833311
-46.806607
-46.779907
-46.753213
-46.726524
-46.699839
-46.673159
-46.646483
-46.619812
-46.593144
-46.566482
-46.539824
-46.51317
-46.486522
-46.459878
-46.433239
-46.406605
-46.379975
-46.35335
-46.326729
-46.300112
-46.273499
-46.246891
-46.220287
-46.193688
-46.167094
-46.140505
-46.113921
-46.087342
-46.060767
-46.034197
-46.007631
-45.981069
-45.954511
-45.927957
-45.901408
-45.874864
-45.848325
-45.821792
-45.795263
-45.768738
-45.742218
-45.715702
-45.689191
-45.662684
-45.636182
-45.609685
-45.583193
-45.556707
-45.530226
-45.50375
-45.477279
-45.450813
-45.424352
-45.397896
-45.371445
-45.344998
-45.318557
-45.29212
-45.265688
-45.23926
-45.212837
-45.186417
-45.160001
-45.133588
-45.107178
-45.080771
-45.054367
-45.027964
-45.001564
-44.975167
-44.948772
-44.92238
-44.895991
-44.869604
-44.843219
-44.816835
-44.790453
-44.764073
-44.737696
-44.711322
-44.68495
-44.658581
-44.632215
-44.605852
-44.579493
-44.553138
-44.526787
-44.50044
-44.474097
-44.447758
-44.421423
-44.395093
-44.368768
-44.342448
-44.316133
-44.289824
-44.263519
-44.23722
-44.210926
-44.184639
-44.158357
-44.132082
-44.105813
-44.07955
-44.053293
-44.027042
-44.000798
-43.97456
-43.94833
-43.922106
-43.895889
-43.869679
-43.843475
-43.81728
-43.791091
-43.764911
-43.738739
-43.712574
-43.686418
-43.660269
-43.634128
-43.607996
-43.581873
-43.555759
-43.529654
-43.503558
-43.477472
-43.451394
-43.425326
-43.399267
-43.373219
-43.347182
-43.321155
-43.295138
-43.269131
-43.243135
-43.21715
-43.191177
-43.165215
-43.139264
-43.113326
-43.087399
-43.061484
-43.035582
-43.009691
-42.983814
-42.957949
-42.932098
-42.90626
-42.880435
-42.854624
-42.828827
-42.803044
-42.777274
-42.751519
-42.725779
-42.700054
-42.674344
-42.64865
-42.62297
-42.597307
-42.571658
-42.546026
-42.520409
-42.494809
-42.469224
-42.443657
-42.418106
-42.392572
-42.367055
-42.341556
-42.316074
-42.29061
-42.265163
-42.239735
-42.214325
-42.188932
-42.163557
-42.1382
-42.112861
-42.087541
-42.062239
-42.036957
-42.011695
-41.986451
-41.961228
-41.936024
-41.910839
-41.885673
-41.860527
-41.835401
-41.810295
-41.785209
-41.760143
-41.735097
-41.710072
-41.685067
-41.660083
-41.635119
-41.610175
-41.585253
-41.560352
-41.535472
-41.510613
-41.485775
-41.460959
-41.436164
-41.411391
-41.386639
-41.361909
-41.337201
-41.312516
-41.287852
-41.263211
-41.238591
-41.213994
-41.189418
-41.164865
-41.140333
-41.115824
-41.091337
-41.066872
-41.042429
-41.018008
-40.993608
-40.969231
-40.944875
-40.920541
-40.896229
-40.871938
-40.847669
-40.823421
-40.799194
-40.774988
-40.750802
-40.726637
-40.702493
-40.678368
-40.654265
-40.630181
-40.606117
-40.582073
-40.558048
-40.534043
-40.510057
-40.48609
-40.462143
-40.438214
-40.414303
-40.390411
-40.366537
-40.34268
-40.318842
-40.295022
-40.271219
-40.247434
-40.223666
-40.199915
-40.176181
-40.152463
-40.128763
-40.105079
-40.081412
-40.05776
-40.034125
-40.010505
-39.986902
-39.963314
-39.939741
-39.916183
-39.89264
-39.869112
-39.845599
-39.8221
-39.798616
-39.775146
-39.75169
-39.728249
-39.704821
-39.681407
-39.658006
-39.634617
-39.611242
-39.58788
-39.56453
-39.541194
-39.517869
-39.494557
-39.471257
-39.447968
-39.424692
-39.401427
-39.378174
-39.354932
-39.331701
-39.308481
-39.285271
-39.262072
-39.238883
-39.215705
-39.192536
-39.169377
-39.146228
-39.123089
-39.099959
-39.076838
-39.053727
-39.030624
-39.00753
-38.984444
-38.961367
-38.938297
-38.915236
-38.892183
-38.869137
-38.846099
-38.823068
-38.800044
-38.777026
-38.754016
-38.731012
-38.708015
-38.685024
-38.662038
-38.639059
-38.616085
-38.593117
-38.570154
-38.547197
-38.524244
-38.501296
-38.478353
-38.455414
-38.43248
-38.409549
-38.386623
-38.363701
-38.340783
-38.317868
-38.294956
-38.272049
-38.249144
-38.226243
-38.203344
-38.180449
-38.157557
-38.134667
-38.111779
-38.088894
-38.066011
-38.043131
-38.020252
-37.997376
-37.974501
-37.951629
-37.928758
-37.905888
-37.88302
-37.860153
-37.837287
-37.814423
-37.791559
-37.768695
-37.745833
-37.72297
-37.700107
-37.677245
-37.654382
-37.631518
-37.608653
-37.585788
-37.562921
-37.540052
-37.517181
-37.494308
-37.471433
-37.448555
-37.425674
-37.40279
-37.379902
-37.35701
-37.334113
-37.311212
-37.288305
-37.265393
-37.242476
-37.219552
-37.196622
-37.173684
-37.15074
-37.127788
-37.104828
-37.081859
-37.058883
-37.035897
-37.012901
-36.989896
-36.966881
-36.943855
-36.920819
-36.897772
-36.874713
-36.851643
-36.828561
-36.805466
-36.78236
-36.75924
-36.736107
-36.71296
-36.689799
-36.666625
-36.643436
-36.620232
-36.597014
-36.573781
-36.550532
-36.527268
-36.503987
-36.48069
-36.457376
-36.434046
-36.410699
-36.387335
-36.363953
-36.340553
-36.317136
-36.293701
-36.270248
-36.246776
-36.223286
-36.199777
-36.176249
-36.152702
-36.129135
-36.105549
-36.081943
-36.058317
-36.034671
-36.011004
-35.987318
-35.96361
-35.939883
-35.916134
-35.892365
-35.868574
-35.844762
-35.820929
-35.797075
-35.773199
-35.749302
-35.725383
-35.701443
-35.67748
-35.653496
-35.62949
-35.605461
-35.581411
-35.557338
-35.533243
-35.509125
-35.484985
-35.460823
-35.436638
-35.412431
-35.388201
-35.363949
-35.339673
-35.315376
-35.291055
-35.266711
-35.242345
-35.217957
-35.193545
-35.169111
-35.144655
-35.120175
-35.095673
-35.071148
-35.046601
-35.022031
-34.997439
-34.972824
-34.948187
-34.923528
-34.898846
-34.874143
-34.849417
-34.82467
-34.799901
-34.77511
-34.750297
-34.725464
-34.700609
-34.675732
-34.650835
-34.625917
-34.600979
-34.57602
-34.551041
-34.526042
-34.501023
-34.475985
-34.450927
-34.42585
-34.400755
-34.375641
-34.350508
-34.325357
-34.300189
-34.275003
-34.2498
-34.22458
-34.199343
-34.17409
-34.148821
-34.123535
-34.098234
-34.072918
-34.047586
-34.02224
-33.99688
-33.971506
-33.946118
-33.920717
-33.895302
-33.869875
-33.844436
-33.818984
-33.79352
-33.768045
-33.742559
-33.717061
-33.691553
-33.666034
-33.640506
-33.614967
-33.589419
-33.563861
-33.538294
-33.512718
-33.487134
-33.461541
-33.435941
-33.410332
-33.384716
-33.359092
-33.333461
-33.307823
-33.282178
-33.256526
-33.230869
-33.205205
-33.179535
-33.153859
-33.128177
-33.102491
-33.076799
-33.051102
-33.025401
-32.999694
-32.973983
-32.948269
-32.92255
-32.896827
-32.871101
-32.845371
-32.819637
-32.793901
-32.768162
-32.74242
-32.716675
-32.690928
-32.665179
-32.639428
-32.613675
-32.587921
-32.562164
-32.536407
-32.510649
-32.484889
-32.459129
-32.433368
-32.407607
-32.381845
-32.356083
-32.330321
-32.304559
-32.278797
-32.253036
-32.227275
-32.201515
-32.175756
-32.149997
-32.12424
-32.098483
-32.072728
-32.046973
-32.02122
-31.995469
-31.969718
-31.943969
-31.918222
-31.892477
-31.866733
-31.840991
-31.81525
-31.789512
-31.763775
-31.73804
-31.712307
-31.686575
-31.660846
-31.635119
-31.609393
-31.58367
-31.557948
-31.532229
-31.506511
-31.480796
-31.455082
-31.429371
-31.403661
-31.377954
-31.352249
-31.326545
-31.300844
-31.275145
-31.249449
-31.223755
-31.198062
-31.172373
-31.146685
-31.121
-31.095317
-31.069636
-31.043958
-31.018282
-30.992609
-30.966938
-30.941269
-30.915604
-30.88994
-30.86428
-30.838622
-30.812967
-30.787315
-30.761665
-30.736018
-30.710374
-30.684733
-30.659095
-30.63346
-30.607828
-30.582199
-30.556572
-30.530949
-30.505329
-30.479712
-30.454097
-30.428487
-30.402879
-30.377274
-30.351672
-30.326073
-30.300477
-30.274884
-30.249294
-30.223708
-30.198124
-30.172543
-30.146965
-30.12139
-30.095818
-30.070249
-30.044683
-30.019119
-29.993559
-29.968001
-29.942446
-29.916894
-29.891344
-29.865797
-29.840253
-29.814711
-29.789173
-29.763637
-29.738104
-29.712573
-29.687044
-29.661517
-29.635994
-29.610475
-29.58496
-29.559446
-29.533932
-29.508419
-29.482909
-29.457404
-29.431906
-29.406413
-29.380922
-29.355426
-29.329925
-29.304429
-29.278942
-29.253467
-29.228003
-29.202542
-29.177067
-29.151573
-29.126085
-29.100611
-29.075159
-29.049728
-29.024306
-28.998874
-28.973396
-28.94792
-28.92245
-28.896998
-28.87157
-28.84616
-28.820759
-28.795359
-28.769948
-28.744537
-28.71912
-28.6937
-28.66827
-28.642827
-28.617382
-28.591934
-28.566493
-28.541065
-28.515659
-28.490277
-28.464916
-28.439565
-28.414215
-28.388841
-28.363466
-28.338093
-28.312729
-28.287376
-28.262033
-28.236695
-28.211359
-28.186023
-28.160689
-28.135361
-28.11004
-28.084726
-28.059417
-28.034103
-28.008778
-27.983456
-27.958143
-27.932842
-27.907554
-27.882271
-27.856977
-27.831664
-27.806355
-27.781051
-27.755756
-27.730469
-27.705187
-27.679906
-27.654624
-27.629343
-27.604064
-27.578786
-27.5535
-27.528208
-27.502921
-27.477647
-27.45239
-27.427146
-27.401906
-27.376651
-27.351389
-27.326139
-27.300908
-27.275696
-27.250494
-27.225272
-27.200009
-27.174757
-27.149522
-27.124314
-27.099124
-27.073938
-27.048704
-27.023454
-26.998216
-26.972999
-26.947808
-26.922632
-26.897459
-26.872254
-26.847048
-26.821845
-26.796651
-26.771461
-26.746271
-26.721077
-26.695889
-26.67071
-26.645543
-26.620384
-26.595221
-26.570037
-26.544856
-26.519686
-26.494533
-26.469397
-26.444271
-26.419146
-26.394002
-26.368853
-26.343703
-26.318558
-26.293423
-26.268304
-26.243202
-26.218109
-26.193018
-26.1679
-26.142761
-26.117617
-26.092473
-26.067336
-26.042213
-26.017104
-25.99201
-25.966927
-25.94185
-25.916776
-25.891703
-25.866617
-25.841516
-25.816409
-25.791307
-25.766216
-25.741138
-25.716072
-25.691011
-25.66595
-25.640883
-25.615817
-25.59074
-25.56566
-25.540585
-25.515524
-25.490484
-25.465465
-25.440458
-25.415449
-25.390398
-25.365327
-25.340256
-25.315192
-25.290148
-25.26513
-25.240131
-25.215142
-25.190153
-25.16514
-25.14012
-25.115078
-25.09003
-25.064989
-25.039964
-25.014963
-24.989985
-24.96502
-24.940056
-24.915069
-24.890075
-24.865078
-24.840076
-24.815078
-24.79009
-24.765121
-24.740173
-24.71524
-24.690311
-24.665344
-24.64034
-24.615337
-24.590343
-24.565371
-24.540427
-24.515503
-24.49059
-24.465674
-24.440736
-24.415791
-24.390828
-24.365867
-24.34091
-24.315964
-24.291032
-24.26611
-24.241195
-24.216281
-24.191367
-24.166457
-24.141551
-24.116652
-24.091753
-24.066843
-24.041924
-24.017011
-23.992111
-23.967229
-23.94236
-23.917491
-23.892589
-23.867676
-23.84277
-23.817881
-23.793015
-23.768168
-23.74333
-23.718488
-23.693619
-23.66874
-23.643836
-23.618937
-23.594046
-23.569173
-23.544318
-23.519474
-23.494635
-23.469797
-23.444965
-23.420146
-23.395342
-23.370547
-23.34575
-23.320917
-23.296077
-23.271244
-23.246428
-23.221633
-23.196856
-23.172086
-23.147305
-23.1225
-23.097688
-23.072854
-23.048026
-23.023208
-22.998408
-22.973626
-22.948857
-22.92409
-22.899319
-22.874555
-22.849805
-22.82507
-22.800346
-22.775615
-22.750838
-22.726064
-22.7013
-22.676557
-22.651836
-22.627125
-22.602414
-22.577675
-22.552938
-22.528195
-22.503445
-22.478683
-22.453912
-22.429149
-22.404408
-22.379699
-22.355022
-22.330364
-22.305709
-22.281014
-22.25629
-22.231546
-22.206789
-22.18204
-22.157303
-22.132586
-22.107888
-22.083208
-22.058541
-22.033882
-22.009228
-21.984576
-21.959924
-21.935268
-21.910608
-21.885949
-21.861291
-21.836636
-21.811983
-21.78733
-21.76267
-21.738009
-21.713351
-21.688701
-21.66406
-21.639426
-21.614796
-21.590165
-21.565524
-21.540884
-21.516244
-21.491607
-21.466972
-21.44234
-21.417712
-21.393087
-21.368467
-21.343851
-21.319237
-21.294623
-21.270009
-21.245397
-21.220791
-21.196192
-21.171596
-21.146997
-21.122386
-21.097779
-21.073183
-21.048602
-21.024033
-20.999466
-20.97487
-20.950259
-20.925657
-20.901073
-20.876514
-20.851973
-20.827437
-20.802863
-20.778259
-20.753659
-20.729067
-20.704489
-20.679922
-20.655359
-20.630798
-20.606242
-20.5817
-20.557176
-20.53267
-20.508172
-20.48366
-20.459098
-20.434535
-20.409975
-20.385427
-20.360892
-20.336363
-20.311831
-20.287294
-20.262766
-20.238257
-20.213771
-20.189303
-20.164837
-20.140326
-20.115784
-20.091248
-20.066723
-20.042215
-20.017718
-19.993221
-19.968713
-19.944212
-19.919729
-19.895274
-19.870843
-19.846422
-19.82197
-19.797458
-19.772952
-19.748453
-19.723973
-19.699509
-19.675051
-19.650584
-19.626121
-19.601675
-19.577254
-19.552858
-19.528474
-19.504078
-19.479622
-19.455158
-19.430695
-19.406245
-19.381814
-19.357399
-19.332989
-19.308581
-19.284175
-19.25978
-19.235406
-19.211053
-19.186713
-19.16236
-19.137934
-19.113495
-19.089066
-19.064671
-19.040321
-19.016005
-18.991698
-18.967331
-18.942924
-18.918531
-18.89416
-18.869823
-18.845514
-18.821217
-18.796898
-18.772538
-18.74818
-18.723827
-18.699495
-18.675191
-18.65091
-18.626637
-18.602331
-18.577993
-18.553666
-18.529359
-18.505083
-18.480833
-18.456591
-18.432307
-18.40798
-18.383662
-18.359356
-18.335076
-18.310822
-18.286583
-18.262345
-18.238076
-18.213792
-18.18951
-18.165242
-18.140999
-18.11678
-18.092573
-18.068347
-18.044066
-18.019796
-17.995542
-17.971318
-17.947121
-17.922937
-17.898732
-17.874473
-17.850215
-17.82596
-17.801722
-17.777511
-17.753325
-17.729151
-17.704967
-17.680731
-17.656502
-17.632289
-17.608106
-17.583947
-17.559795
-17.535595
-17.511373
-17.487165
-17.462971
-17.438792
-17.414618
-17.390444
-17.366267
-17.342092
-17.317916
-17.293745
-17.269579
-17.245419
-17.221261
-17.197101
-17.172939
-17.148782
-17.124634
-17.100494
-17.076356
-17.052209
-17.028062
-17.003923
-16.979791
-16.955663
-16.931527
-16.907389
-16.883261
-16.859145
-16.835035
-16.810915
-16.786783
-16.762665
-16.738564
-16.714476
-16.69038
-16.666248
-16.642133
-16.618041
-16.593974
-16.569913
-16.545806
-16.521691
-16.497598
-16.47353
-16.449474
-16.425404
-16.401309
-16.377229
-16.353166
-16.329115
-16.305068
-16.281011
-16.256958
-16.232914
-16.20888
-16.184852
-16.160825
-16.136795
-16.112769
-16.08875
-16.064738
-16.04073
-16.016723
-15.992711
-15.968701
-15.944693
-15.920691
-15.896696
-15.872707
-15.848722
-15.824742
-15.800765
-15.776792
-15.752822
-15.728854
-15.70489
-15.68093
-15.656973
-15.63302
-15.609069
-15.585124
-15.561183
-15.537245
-15.513308
-15.489375
-15.465449
-15.44153
-15.417612
-15.39369
-15.369773
-15.345866
-15.321967
-15.298069
-15.274167
-15.250271
-15.226381
-15.202494
-15.178603
-15.154715
-15.130836
-15.106965
-15.083098
-15.05923
-15.035365
-15.011505
-14.987651
-14.963804
-14.939963
-14.916128
-14.892298
-14.868473
-14.844651
-14.820832
-14.797016
-14.773203
-14.749393
-14.725586
-14.701782
-14.67798
-14.654182
-14.630387
-14.606595
-14.582807
-14.559021
-14.535239
-14.51146
-14.487684
-14.463912
-14.440143
-14.416377
-14.392614
-14.368854
-14.345097
-14.321344
-14.297594
-14.273845
-14.250099
-14.226358
-14.202623
-14.178889
-14.15515
-14.131416
-14.107692
-14.083976
-14.060259
-14.036523
-14.012797
-13.989087
-13.965391
-13.941698
-13.917974
-13.894245
-13.870525
-13.84682
-13.823131
-13.799454
-13.775783
-13.75211
-13.728425
-13.704747
-13.681077
-13.657415
-13.63375
-13.610051
-13.586352
-13.562661
-13.538985
-13.515324
-13.491672
-13.468024
-13.444379
-13.420737
-13.397096
-13.373447
-13.349789
-13.326139
-13.302501
-13.278874
-13.25525
-13.231602
-13.20794
-13.184285
-13.160638
-13.137003
-13.113379
-13.089763
-13.066151
-13.042541
-13.018929
-12.995319
-12.971713
-12.948109
-12.924503
-12.90089
-12.877281
-12.853683
-12.830098
-12.806517
-12.782918
-12.759299
-12.735688
-12.712089
-12.688505
-12.664931
-12.641363
-12.617797
-12.594233
-12.570668
-12.547103
-12.523539
-12.499977
-12.476418
-12.452862
-12.429309
-12.405757
-12.382208
-12.358658
-12.33511
-12.311564
-12.288023
-12.264487
-12.240958
-12.217432
-12.19391
-12.17039
-12.146874
-12.123361
-12.099848
-12.076335
-12.052824
-12.02932
-12.005823
-11.982331
-11.958837
-11.935335
-11.911837
-11.888346
-11.864862
-11.841386
-11.817915
-11.794447
-11.770982
-11.747519
-11.724059
-11.700601
-11.677147
-11.653696
-11.630249
-11.606804
-11.583364
-11.559926
-11.536493
-11.513062
-11.489634
-11.466209
-11.442788
-11.419371
-11.395957
-11.372546
-11.349138
-11.325733
-11.302331
-11.278932
-11.255538
-11.232146
-11.208757
-11.18537
-11.161988
-11.138609
-11.115234
-11.091862
-11.068495
-11.045132
-11.021772
-10.998415
-10.975059
-10.951705
-10.928354
-10.905008
-10.881665
-10.858324
-10.834985
-10.811652
-10.78833
-10.765015
-10.741695
-10.71836
-10.69504
-10.671744
-10.648469
-10.625204
-10.601921
-10.57862
-10.555323
-10.532029
-10.508738
-10.485452
-10.46217
-10.438894
-10.415621
-10.39235
-10.369081
-10.345822
-10.32257
-10.299321
-10.276052
-10.252791
-10.229551
-10.206334
-10.183128
-10.159902
-10.136647
-10.113399
-10.090152
-10.066911
-10.043678
-10.020451
-9.9972269
-9.974003
-9.9507825
-9.9275701
-9.9043663
-9.8811654
-9.8579523
-9.8347416
-9.8115417
-9.7883523
-9.7651671
-9.7419792
-9.7187902
-9.6956006
-9.6724009
-9.649206
-9.6260218
-9.6028482
-9.5796787
-9.5565075
-9.5333369
-9.5101667
-9.4869872
-9.4638103
-9.4406432
-9.4174858
-9.3943319
-9.3711778
-9.3480254
-9.324874
-9.3017144
-9.2785555
-9.2554058
-9.2322648
-9.209127
-9.1859899
-9.1628556
-9.1397232
-9.1165838
-9.0934426
-9.0703104
-9.0471863
-9.0240652
-9.0009456
-8.9778296
-8.9547163
-8.9315975
-8.908475
-8.885361
-8.8622543
-8.8391502
-8.816048
-8.7929512
-8.7698583
-8.7467616
-8.7236579
-8.7005625
-8.6774741
-8.6543883
-8.6313052
-8.6082285
-8.5851569
-8.5620824
-8.5389988
-8.5159234
-8.4928549
-8.469789
-8.4467257
-8.4236701
-8.4006208
-8.3775701
-8.3545084
-8.3314548
-8.3084078
-8.2853629
-8.2623206
-8.2392874
-8.216263
-8.1932388
-8.1702005
-8.1471696
-8.1241453
-8.101123
-8.0781039
-8.0550952
-8.0320973
-8.0091006
-7.9860866
-7.9630801
-7.9400808
-7.9170833
-7.894088
-7.8711045
-7.8481343
-7.8251673
-7.8021802
-7.7791989
-7.7562251
-7.7332526
-7.7102825
-7.6873257
-7.664385
-7.6414491
-7.6184885
-7.5955322
-7.572585
-7.5496391
-7.526694
-7.5037637
-7.4808526
-7.4579487
-7.4350174
-7.4120862
-7.3891658
-7.3662463
-7.3433259
-7.3204225
-7.2975423
-7.2746716
-7.2517695
-7.2288617
-7.2059676
-7.1830749
-7.1601791
-7.1373023
-7.1144529
-7.0916157
-7.0687422
-7.045856
-7.0229874
-7.0001209
-6.9772478
-6.9543955
-6.9315756
-6.9087715
-6.8859262
-6.8630581
-6.8402124
-6.8173696
-6.7945148
-6.7716829
-6.7488902
-6.7261185
-6.7033003
-6.680444
-6.6576163
-6.6347927
-6.6119518
-6.5891358
-6.5663677
-6.5436271
-6.520833
-6.4979792
-6.4751621
-6.4523524
-6.4295259
-6.4067201
-6.3839627
-6.3612353
-6.3384577
-6.3156091
-6.2927999
-6.2699997
-6.2471807
-6.2243774
-6.2016222
-6.1788989
-6.1561296
-6.1332781
-6.1104674
-6.0876668
-6.0648464
-6.0420357
-6.0192715
-5.9965401
-5.9737732
-5.9509142
-5.928081
-5.9052416
-5.8824182
-5.8596381
-5.8368895
-5.8141101
-5.7912262
-5.7683726
-5.7455293
-5.7226912
-5.6998306
-5.6769736
-5.6541549
-5.631367
-5.6085486
-5.5856185
-5.5627162
-5.5398139
-5.5169157
-5.4940302
-5.4711543
-5.4482674
-5.4253303
-5.4023953
-5.379448
-5.3564961
-5.3335395
-5.3105779
-5.2876137
-5.2646472
-5.2416605
-5.2186292
-5.1956007
-5.1725509
-5.1494829
-5.1264451
-5.1034382
-5.0804077
-5.0572324
-5.0340822
-5.0109257
-4.9877575
-4.9645981
-4.9414508
-4.918287
-4.8950264
-4.871769
-4.8484951
-4.8252048
-4.8019032
-4.7785892
-4.7552572
-4.7318993
-4.7085197
-4.6850863
-4.6616416
-4.6381754
-4.6146656
-4.5911673
-4.5676931
-4.5442015
-4.5205283
-4.4968691
-4.4732024
-4.4494948
-4.425788
-4.4020958
-4.3783886
-4.3545157
-4.3306419
-4.3067503
-4.2828251
-4.2588739
-4.2348979
-4.210892
-4.186828
-4.162734
-4.138577
-4.1143799
-4.0901583
-4.0658735
-4.041567
-4.0172727
-3.9929639
-3.9684421
-3.9439018
-3.9193556
-3.8947471
-3.8701066
-3.8454744
-3.8208274
-3.7959735
-3.7710828
-3.7461786
-3.7212139
-3.6962078
-3.6711526
-3.6460559
-3.620874
-3.5956474
-3.5703379
-3.5449576
-3.5195432
-3.4940515
-3.4684975
-3.442939
-3.4173647
-3.391557
-3.3656779
-3.3397975
-3.3138377
-3.2878168
-3.2617479
-3.2356447
-3.2093863
-3.1830493
-3.1566682
-3.130191
-3.1036651
-3.0770503
-3.0503568
-3.02363
-2.9968911
-2.969909
-2.9428177
-2.9157292
-2.8885405
-2.8612883
-2.8339428
-2.8065258
-2.7790269
-2.7515043
-2.7237802
-2.6959304
-2.6680708
-2.6400995
-2.6120583
-2.5839154
-2.5556939
-2.5273719
-2.4989758
-2.4704817
-2.4419755
-2.4132451
-2.3843699
-2.3554871
-2.3264742
-2.2973944
-2.2682033
-2.2389244
-2.2095415
-2.1800633
-2.1504841
-2.1208051
-2.0910279
-2.061147
-2.031172
-2.0010913
-1.9709697
-1.9406703
-1.9102495
-1.8797619
-1.8491264
-1.8184374
-1.7876285
-1.7567897
-1.7257662
-1.6945985
-1.6633982
-1.6320621
-1.6006498
-1.5691236
-1.5374662
-1.505733
-1.4739185
-1.4419556
-1.4098699
-1.3777262
-1.3455815
-1.3132186
-1.2806421
-1.2480574
-1.2153684
-1.1825827
-1.149697
-1.1167286
-1.0837568
-1.0505174
-1.017093
-0.98370043
-0.95021341
-0.91661849
-0.88289428
-0.84920702
-0.81528144
-0.78128557
-0.74717091
-0.71282611
-0.67860574
-0.64421125
-0.60964115
-0.57503398
-0.54044892
-0.5056151
-0.47059372
-0.43567395
-0.40058916
-0.36536207
-0.33009696
-0.29472996
-0.25939784
-0.22382516
-0.18805284
-0.15232752
-0.11661608
-0.080714705
-0.044694442
-0.0085464844
0.027808329
0.064108684
0.10047381
0.13691751
0.1734473
0.21006328
0.24676269
0.28354303
0.32040314
0.35734293
0.39436276
0.43146284
0.46864292
0.50590226
0.54323975
0.58065418
0.61814449
0.65570979
0.6933495
0.73106312
0.7688502
0.80671025
0.84464267
0.88264684
0.92072209
0.95886767
0.99708277
1.0353665
1.0737178
1.1121358
1.1506194
1.1891677
1.2277798
1.2664545
1.3051906
1.3439867
1.3828414
1.4217536
1.460722
1.4997455
1.5388229
1.5779529
1.6171344
1.6563664
1.6956478
1.7349777
1.7743556
1.8137807
1.8532525
1.8927703
1.9323338
1.9719423
2.0115955
2.0512929
2.0910341
2.1308187
2.1706465
2.2105168
2.2504291
2.290383
2.3303777
2.3704129
2.4104879
2.4506022
2.490755
2.5309457
2.5711734
2.6114375
2.6517372
2.692072
2.732441
2.7728437
2.8132791
2.8537465
2.8942452
2.9347745
2.9753336
3.0159219
3.0565388
3.0971834
3.1378553
3.1785535
3.2192777
3.2600269
3.3008008
3.3415986
3.3824198
3.4232638
3.4641301
3.505018
3.5459269
3.5868564
3.6278059
3.668775
3.7097631
3.7507697
3.7917944
3.8328367
3.873896
3.9149719
3.9560639
3.9971718
4.038295
4.0794331
4.1205857
4.1617524
4.2029328
4.2441266
4.2853332
4.3265524
4.3677838
4.4090269
4.4502816
4.4915474
4.5328242
4.5741116
4.615409
4.6567163
4.698033
4.7393589
4.7806938
4.8220375
4.8633897
4.90475
4.946118
4.9874937
5.0288766
5.0702666
5.1116635
5.153067
5.1944769
5.2358929
5.2773149
5.3187425
5.3601756
5.401614
5.4430574
5.4845058
5.5259588
5.5674164
5.6088783
5.6503444
5.6918144
5.7332883
5.7747658
5.8162467
5.8577311
5.8992186
5.9407091
5.9822026
6.0236988
6.0651976
6.106699
6.1482028
6.1897088
6.231217
6.2727271
6.3142391
6.355753
6.3972686
6.4387859
6.4803046
6.5218247
6.5633461
6.6048687
6.6463925
6.6879174
6.7294434
6.7709702
6.8124978
6.8540261
6.8955551
6.9370848
6.9786151
7.0201459
7.0616772
7.1032088
7.1447407
7.1862729
7.2278053
7.269338
7.3108709
7.3524038
7.3939368
7.4354697
7.4770026
7.5185354
7.5600682
7.601601
7.6431335
7.6846658
7.7261978
7.7677295
7.809261
7.8507923
7.8923233
7.9338539
7.9753842
8.016914
8.0584434
8.0999723
8.1415009
8.1830291
8.2245568
8.266084
8.3076107
8.3491368
8.3906625
8.4321876
8.4737123
8.5152363
8.5567598
8.5982828
8.6398052
8.6813271
8.7228484
8.7643691
8.8058892
8.8474087
8.8889277
8.9304461
8.9719639
9.0134812
9.0549978
9.0965138
9.1380293
9.1795442
9.2210585
9.2625723
9.3040856
9.3455982
9.3871103
9.4286218
9.4701327
9.5116432
9.5531531
9.5946626
9.6361715
9.6776798
9.7191877
9.7606951
9.802202
9.8437085
9.8852145
9.92672
9.9682251
10.00973
10.051234
10.092738
10.134241
10.175744
10.217247
10.258749
10.300251
10.341753
10.383254
10.424755
10.466256
10.507756
10.549256
10.590756
10.632256
10.673755
10.715254
10.756753
10.798252
10.83975
10.881248
10.922747
10.964245
11.005742
11.04724
11.088738
11.130235
11.171733
11.21323
11.254727
11.296225
11.337722
11.379219
11.420716
11.462213
11.50371
11.545208
11.586705
11.628202
11.6697
11.711197
11.752695
11.794192
11.83569
11.877188
11.918686
11.960184
12.001683
12.043181
12.08468
12.126179
12.167678
12.209178
12.250678
12.292178
12.333678
12.375178
12.416679
12.45818
12.499682
12.541184
12.582686
12.624188
12.665691
12.707195
12.748698
12.790202
12.831707
12.873212
12.914717
12.956223
12.997729
13.039236
13.080743
13.122251
13.163759
13.205268
13.246777
13.288287
13.329797
13.371308
13.412819
13.454332
13.495844
13.537357
13.578871
13.620386
13.661901
13.703417
13.744933
13.78645
13.827968
13.869486
13.911005
13.952525
13.994046
14.035567
14.077089
14.118611
14.160135
14.201659
14.243184
14.28471
14.326236
14.367763
14.409291
14.45082
14.49235
14.53388
14.575411
14.616943
14.658476
14.70001
14.741544
14.78308
14.824616
14.866153
14.907691
14.94923
14.99077
15.03231
15.073852
15.115394
15.156938
15.198482
15.240027
15.281573
15.323121
15.364669
15.406218
15.447767
15.489318
15.53087
15.572423
15.613976
15.655531
15.697086
15.73864
15.780195
15.821752
15.86331
15.90487
15.946432
15.987996
16.02956
16.071125
16.11269
16.154258
16.195829
16.237402
16.278971
16.32054
16.36211
16.403683
16.445257
16.486832
16.528407
16.569983
16.61156
16.653139
16.694718
16.736298
16.77788
16.819462
16.861045
16.902629
16.944214
16.985801
17.027388
17.068976
17.110565
17.152155
17.193746
17.235338
17.276931
17.318525
17.360121
17.401717
17.443314
17.484912
17.526511
17.568111
17.609712
17.651314
17.692917
17.734521
17.776126
17.817732
17.859339
17.900947
17.942556
17.984166
18.025777
18.067389
18.109002
18.150616
18.192231
18.233846
18.275463
18.317081
18.3587
18.400319
18.44194
18.483562
18.525184
18.566808
18.608432
18.650058
18.691684
18.733311
18.774939
18.816569
18.858199
18.89983
18.941462
18.983095
19.024728
19.066363
19.107999
19.149635
19.191273
19.232911
19.27455
19.31619
19.357831
19.399473
19.441116
19.48276
19.524404
19.56605
19.607696
19.649343
19.690991
19.73264
19.774289
19.81594
19.857591
19.899243
19.940896
19.98255
20.024205
20.06586
20.107516
20.149173
20.190831
20.232489
20.274148
20.315808
20.357469
20.399131
20.440793
20.482456
20.52412
20.565784
20.607449
20.649114
20.69078
20.732447
20.774114
20.815781
20.857448
20.899115
20.94078
20.982445
21.024106
21.065765
21.10742
21.149068
21.190711
21.232348
21.27398
21.315616
21.357259
21.398919
21.440603
21.482318
21.524065
21.565839
21.607627
21.649419
21.691179
21.732877
21.774518
21.816095
21.857676
21.899291
21.940963
21.982693
22.024458
22.066233
22.107972
22.149591
22.191203
22.232842
22.274528
22.316252
22.357994
22.399715
22.441374
22.483033
22.524707
22.566402
22.608109
22.64982
22.691507
22.733188
22.774874
22.816566
22.858262
22.89996
22.941652
22.983343
23.025035
23.066729
23.108424
23.150119
23.191813
23.233507
23.275201
23.316896
23.35859
23.400285
23.441979
23.483673
23.525368
23.567064
23.608759
23.650455
23.692151
23.733848
23.775543
23.817239
23.858933
23.900628
23.942321
23.984015
24.025709
24.067403
24.109098
24.150793
24.192488
24.234183
24.275878
24.31757
24.359261
24.400947
24.442632
24.484309
24.525985
24.567652
24.609314
24.650968
24.69261
24.734244
24.775861
24.817473
24.859064
24.900651
24.942219
24.983779
25.025318
25.066841
25.108337
25.149809
25.191257
25.232687
25.274121
25.315568
25.357035
25.398519
25.440014
25.481511
25.523
25.564472
25.605919
25.647366
25.688829
25.730316
25.771824
25.813343
25.854861
25.896365
25.937854
25.979335
26.020817
26.062309
26.103821
26.145358
26.186928
26.228531
26.270163
26.311814
26.35347
26.395113
26.43673
26.478313
26.51986
26.561379
26.602891
26.644427
26.68602
26.727686
26.769416
26.811188
26.853007
26.89497
26.937362
26.982197
27.024127
27.061752
27.101974
27.145313
27.187776
27.229566
27.271751
27.314151
27.356375
27.398602
27.440841
27.483036
27.525178
27.567254
27.609258
27.651191
27.693061
27.734881
27.77666
27.818411
27.860145
27.901869
27.943587
27.985301
28.027011
28.068713
28.110407
28.152091
28.193766
28.235432
28.277092
28.318749
28.360404
28.40206
28.443719
28.48538
28.527034
28.568686
28.61036
28.652039
28.693697
28.735354
28.777012
28.818669
28.860324
28.901979
28.943635
28.985291
29.026948
29.068605
29.110263