-1.25 	318.406227634235 	0.001204249552803888 	101325.0150796445
-1.247497497497497 	300.1671972776758 	0.001267418488980803 	101324.9986272263
-1.244994994994995 	300.0014410036374 	0.001365019371824845 	101325.012896645
-1.242492492492492 	300.0000126995026 	0.001450703496821089 	101324.9998468404
-1.23998998998999 	300.0000092890736 	0.001506281460967201 	101325.010878102
-1.237487487487487 	300.0000001246725 	0.001547881562626189 	101325.0001693005
-1.234984984984985 	300.0000097397278 	0.001573396207669116 	101325.0114951965
-1.232482482482482 	300.0000043015268 	0.001574350943352268 	101325.0051003741
-1.22997997997998 	300.000008955235 	0.00155400360712152 	101325.0105732498
-1.227477477477477 	300.0000033376883 	0.001528346726710456 	101325.0039594474
-1.224974974974975 	300.0000084674967 	0.001496984006875655 	101325.0100026367
-1.222472472472472 	300.0000029924986 	0.00145458969316265 	101325.0035524598
-1.21996996996997 	300.0000068037294 	0.001405925927179124 	101325.0080401716
-1.217467467467467 	300.0000036166485 	0.001352258876027181 	101325.0042841624
-1.214964964964965 	300.0000072222842 	0.001291368174404999 	101325.008534093
-1.212462462462462 	300.0000044404123 	0.001230272251971487 	101325.0052513142
-1.20995995995996 	300.0000068284226 	0.001165024681443117 	101325.0080697961
-1.207457457457457 	300.0000042036601 	0.001099955897044498 	101325.0049731654
-1.204954954954955 	300.0000062998901 	0.001032312710390999 	101325.0074510864
-1.202452452452452 	300.0000046521158 	0.0009686424998529749 	101325.005499509
-1.19994994994995 	300.000006849207 	0.0009009555191458335 	101325.0080988676
-1.197447447447447 	300.000005656692 	0.0008401273962136138 	101325.0066825508
-1.194944944944945 	300.0000072481714 	0.0007763835839320011 	101325.0085691176
-1.192442442442442 	300.0000058946998 	0.0007187744465143146 	101325.0069640984
-1.18993993993994 	300.0000068547657 	0.0006609234058469423 	101325.0081135717
-1.187437437437437 	300.0000055668831 	0.0006079492388922584 	101325.0065809475
-1.184934934934935 	300.0000063978558 	0.0005559432810318345 	101325.0075742606
-1.182432432432432 	300.0000054744123 	0.0005093419721977225 	101325.0064654875
-1.17992992992993 	300.0000063208789 	0.0004628206497047561 	101325.0074783165
-1.177427427427427 	300.000005718775 	0.0004232073870760604 	101325.0067506083
-1.174924924924925 	300.0000064271958 	0.000382631884854716 	101325.0076047248
-1.172422422422422 	300.00000618012 	0.0003498676406764404 	101325.0072958887
-1.16991991991992 	300.0000064516726 	0.0003128926923318441 	101325.0076355695
-1.167417417417417 	300.0000065187595 	0.0002832826933381197 	101325.0076996259
-1.164914914914915 	300.0000063449729 	0.0002497210915089045 	101325.0075110943
-1.162412412412412 	300.0000067088134 	0.0002241641292550934 	101325.0079208654
-1.15990990990991 	300.0000062902938 	0.0001944027770716122 	101325.0074471351
-1.157407407407407 	300.0000070267137 	0.000173466735966891 	101325.0082969466
-1.154904904904904 	300.0000064176405 	0.0001492162769865947 	101325.0075986821
-1.152402402402403 	300.0000073365924 	0.0001342949529420023 	101325.0086633336
-1.1498998998999 	300.0000066301261 	0.0001165932168081295 	101325.007851035
-1.147397397397397 	300.0000074151708 	0.0001090646101027377 	101325.0087561032
-1.144894894894895 	300.000006656702 	0.0001022219741256319 	101325.007881129
-1.142392392392392 	300.0000070844717 	0.0001089476792778605 	101325.0083618367
-1.13988988988989 	300.0000069321461 	0.0001109654154356377 	101325.0082046794
-1.137387387387387 	300.0000072194072 	0.0001217431813420334 	101325.008522472
-1.134884884884885 	300.000007125669 	0.0001249706535540971 	101325.0084323076
-1.132382382382382 	300.0000072535653 	0.0001361453301537404 	101325.0085649065
-1.12987987987988 	300.0000072240787 	0.0001390067502369647 	101325.0085543227
-1.127377377377377 	300.00000729678 	0.0001496801631586601 	101325.0086176477
-1.124874874874875 	300.0000074482363 	0.0001507478171590205 	101325.008814483
-1.122372372372372 	300.0000075278223 	0.0001600153658522237 	101325.0088922429
-1.11986986986987 	300.0000078252382 	0.0001571991862336047 	101325.0092588043
-1.117367367367367 	300.0000079352562 	0.0001615400648984257 	101325.0093727494
-1.114864864864865 	300.0000081776978 	0.0001527283320153684 	101325.0096742519
-1.112362362362362 	300.000008192285 	0.0001539467517192889 	101325.0096788925
-1.10985985985986 	300.0000083060119 	0.0001436966008825472 	101325.0098264647
-1.107357357357357 	300.0000081695504 	0.0001436643339736389 	101325.0096529243
-1.104854854854855 	300.0000081961089 	0.0001327620519603522 	101325.0096945825
-1.102352352352353 	300.0000080380069 	0.0001321927747625253 	101325.0094966261
-1.09984984984985 	300.0000081362403 	0.0001205231043973617 	101325.0096217224
-1.097347347347347 	300.0000081294798 	0.000120233851009022 	101325.0096043073
-1.094844844844845 	300.0000083815369 	0.0001075661117796982 	101325.0099109109
-1.092342342342342 	300.0000085326601 	0.0001080139028040013 	101325.010083329
-1.08983983983984 	300.0000088505096 	9.459450515462859e-05 	101325.0104673831
-1.087337337337337 	300.0000090045083 	9.566441547626741e-05 	101325.0106436406
-1.084834834834835 	300.0000092316598 	8.21196782535407e-05 	101325.0109173057
-1.082332332332332 	300.0000092534345 	8.347220558615847e-05 	101325.010937663
-1.07982982982983 	300.0000093360283 	7.024961024367425e-05 	101325.0110385329
-1.077327327327327 	300.0000092590464 	7.186207082574803e-05 	101325.0109430941
-1.074824824824825 	300.0000092957611 	5.888580709655837e-05 	101325.0109895169
-1.072322322322323 	300.0000092608278 	6.11459031533109e-05 	101325.0109454028
-1.06981981981982 	300.0000093689389 	4.808067620597837e-05 	101325.0110757231
-1.067317317317317 	300.0000094479359 	5.137259030348742e-05 	101325.0111669517
-1.064814814814815 	300.0000096295861 	3.810668076786517e-05 	101325.0113836068
-1.062312312312312 	300.0000097617223 	4.246377441425336e-05 	101325.0115386203
-1.05980980980981 	300.0000099302146 	2.920954881847049e-05 	101325.011739709
-1.057307307307307 	300.0000100260875 	3.443014553007275e-05 	101325.0118528504
-1.054804804804805 	300.0000101304809 	2.699448531881844e-05 	101325.011977281
-1.052302302302302 	300.0000101851888 	3.147935520879646e-05 	101325.0120408895
-1.0497997997998 	300.0000102646854 	2.809724400166238e-05 	101325.0121350553
-1.047297297297297 	300.000010339232 	3.128723313734113e-05 	101325.0122227888
-1.044794794794795 	300.0000104536797 	2.924029867126387e-05 	101325.0123580608
-1.042292292292292 	300.0000105794618 	3.145889026385222e-05 	101325.0125063631
-1.03978978978979 	300.0000107226891 	3.047219892892602e-05 	101325.0126755993
-1.037287287287287 	300.0000108534971 	3.184023951000876e-05 	101325.0128298534
-1.034784784784785 	300.0000109615196 	3.148140913031185e-05 	101325.012957467
-1.032282282282283 	300.0000110321562 	3.207532079442516e-05 	101325.0130415343
-1.02977977977978 	300.0000110686801 	3.200948020593572e-05 	101325.0130851598
-1.027277277277277 	300.0000110852425 	3.20845881129756e-05 	101325.0131050155
-1.024774774774775 	300.0000111029361 	3.223675536102132e-05 	101325.0131257897
-1.022272272272272 	300.0000111487121 	3.222992129363279e-05 	101325.0131798041
-1.01976976976977 	300.0000112407178 	3.266979950828009e-05 	101325.0132888262
-1.017267267267267 	300.0000113900558 	3.295104321732228e-05 	101325.0134659283
-1.014764764764765 	300.0000115905523 	3.362443595920771e-05 	101325.013703021
-1.012262262262262 	300.000011822534 	3.423951907436541e-05 	101325.0139765817
-1.00975975975976 	300.0000120528948 	3.490038092500261e-05 	101325.0142478238
-1.007257257257257 	300.0000122449937 	3.544213414666123e-05 	101325.0144741552
-1.004754754754755 	300.0000123696286 	3.579961411544804e-05 	101325.014621688
-1.002252252252252 	300.000012414785 	3.593714306842254e-05 	101325.0146762629
-0.9997497497497498 	300.0000123904139 	3.58788355912739e-05 	101325.0146485271
-0.9972472472472473 	300.0000123258348 	3.570743793726435e-05 	101325.0145722113
-0.9947447447447449 	300.0000122614905 	3.553431209973227e-05 	101325.0144952154
-0.9922422422422421 	300.0000122382232 	3.547561581142263e-05 	101325.0144665592
-0.9897397397397399 	300.0000122871376 	3.562360333760801e-05 	101325.0145243001
-0.9872372372372376 	300.0000124231459 	3.601728642513298e-05 	101325.0146861924
-0.9847347347347346 	300.0000126399829 	3.663852278005162e-05 	101325.0149439362
-0.9822322322322323 	300.0000129103494 	3.740751599875321e-05 	101325.0152638537
-0.9797297297297296 	300.0000131919944 	3.820290235517709e-05 	101325.0155956901
-0.9772272272272275 	300.0000134395966 	3.890384268671652e-05 	101325.0158867151
-0.9747247247247248 	300.0000136174046 	3.941084246973445e-05 	101325.0160958701
-0.9722222222222224 	300.000013708559 	3.967747813122183e-05 	101325.016204141
-0.9697197197197196 	300.0000137195652 	3.972320215081328e-05 	101325.0162186016
-0.9672172172172175 	300.0000136762599 	3.961518462907886e-05 	101325.0161690316
-0.9647147147147147 	300.0000136158562 	3.945599200433918e-05 	101325.016098521
-0.9622122122122124 	300.0000135757717 	3.93506800702867e-05 	101325.0160510405
-0.9597097097097099 	300.0000135840131 	3.937610316902002e-05 	101325.0160599209
-0.9572072072072073 	300.0000136529754 	3.957170461833681e-05 	101325.016140302
-0.9547047047047047 	300.0000137780929 	3.992462738766813e-05 	101325.0162869271
-0.9522022022022023 	300.00001394019 	4.038169476011433e-05 	101325.0164778321
-0.9496996996996998 	300.0000141139038 	4.087583949281849e-05 	101325.0166827602
-0.9471971971971973 	300.0000142752376 	4.133692771731787e-05 	101325.0168730918
-0.9446946946946947 	300.0000144081519 	4.171991965945783e-05 	101325.0170301191
-0.9421921921921923 	300.0000145092461 	4.201619637454312e-05 	101325.0171494415
-0.93968968968969 	300.0000145858286 	4.224222594729019e-05 	101325.0172398628
-0.9371871871871872 	300.0000146510678 	4.243650562751842e-05 	101325.017317224
-0.9346846846846848 	300.0000147173337 	4.263263697362721e-05 	101325.0173961511
-0.9321821821821823 	300.0000147905293 	4.284359640155661e-05 	101325.0174833143
-0.9296796796796799 	300.0000148674059 	4.306436684669306e-05 	101325.0175747234
-0.9271771771771771 	300.0000149372445 	4.326355555159599e-05 	101325.0176578344
-0.9246746746746748 	300.0000149873915 	4.340510728706539e-05 	101325.0177173771
-0.9221721721721724 	300.000015009028 	4.346869692471933e-05 	101325.0177429293
-0.9196696696696698 	300.0000150031217 	4.345662452621511e-05 	101325.0177359064
-0.9171671671671672 	300.0000149837684 	4.340888933640303e-05 	101325.0177128597
-0.9146646646646649 	300.0000149752839 	4.339353488388502e-05 	101325.0177023167
-0.9121621621621623 	300.0000150036001 	4.348097468356847e-05 	101325.017735403
-0.9096596596596597 	300.0000150868811 	4.372368955052933e-05 	101325.0178338361
-0.9071571571571573 	300.0000152276909 	4.412620274788273e-05 	101325.0180002424
-0.9046546546546547 	300.000015409071 	4.463901188604306e-05 	101325.0182147764
-0.9021521521521524 	300.000015598696 	4.517594583395205e-05 	101325.0184394398
-0.8996496496496498 	300.0000157583656 	4.562708226448613e-05 	101325.0186286109
-0.8971471471471473 	300.0000158545897 	4.589899970358221e-05 	101325.0187426376
-0.894644644644645 	300.0000158698827 	4.594667944016561e-05 	101325.0187610159
-0.892142142142142 	300.0000158105593 	4.578584812217959e-05 	101325.0186910975
-0.8896396396396397 	300.0000157067731 	4.550262538800778e-05 	101325.0185684538
-0.8871371371371374 	300.0000156042669 	4.522437867033556e-05 	101325.0184473431
-0.8846346346346349 	300.0000155510369 	4.508144693584704e-05 	101325.0183841322
-0.8821321321321324 	300.0000155813319 	4.517279255238285e-05 	101325.0184194934
-0.8796296296296297 	300.0000157046576 	4.552293083520786e-05 	101325.0185650289
-0.8771271271271271 	300.000015902336 	4.607905309186117e-05 	101325.0187987112
-0.8746246246246248 	300.0000161327201 	4.672774201768095e-05 	101325.0190711176
-0.8721221221221224 	300.0000163435865 	4.73214455482571e-05 	101325.0193206117
-0.8696196196196196 	300.0000164884885 	4.773175752777003e-05 	101325.019492171
-0.8671171171171175 	300.0000165406689 	4.78841382806869e-05 	101325.0195540669
-0.8646146146146148 	300.0000165007809 	4.777919843077098e-05 	101325.0195073664
-0.8621121121121121 	300.0000163967541 	4.749562189445509e-05 	101325.0193846439
-0.8596096096096097 	300.000016272669 	4.715319448199022e-05 	101325.0192378873
-0.857107107107107 	300.0000161735838 	4.687686988776623e-05 	101325.0191205797
-0.8546046046046049 	300.0000161322686 	4.676067599688902e-05 	101325.0190712784
-0.8521021021021022 	300.0000161601512 	4.683666664737893e-05 	101325.0191038569
-0.8495995995995997 	300.0000162470732 	4.707901690457166e-05 	101325.0192066298
-0.8470970970970974 	300.0000163681375 	4.742023835727996e-05 	101325.0193500882
-0.8445945945945946 	300.0000164948311 	4.777842763537748e-05 	101325.0194998955
-0.8420920920920922 	300.0000166046526 	4.809216108478341e-05 	101325.019629292
-0.8395895895895897 	300.0000166862426 	4.832823291037876e-05 	101325.0197254214
-0.8370870870870872 	300.000016738986 	4.848123545415484e-05 	101325.019787639
-0.8345845845845846 	300.0000167664379 	4.856216847755937e-05 	101325.0198202555
-0.8320820820820823 	300.0000167699212 	4.857237336776681e-05 	101325.019824973
-0.8295795795795798 	300.0000167465565 	4.8504156587265e-05 	101325.0197979826
-0.8270770770770772 	300.0000166917692 	4.834665745075845e-05 	101325.0197334889
-0.8245745745745746 	300.0000166053636 	4.810000504043173e-05 	101325.0196314689
-0.8220720720720721 	300.0000164984404 	4.779891643148465e-05 	101325.0195048593
-0.8195695695695699 	300.0000163941971 	4.750763853359207e-05 	101325.0193812718
-0.817067067067067 	300.0000163229771 	4.731038482239169e-05 	101325.019296951
-0.8145645645645651 	300.0000163124824 	4.728507966046312e-05 	101325.0192844626
-0.8120620620620621 	300.0000163755295 	4.74631277956134e-05 	101325.0193587175
-0.8095595595595597 	300.0000165015375 	4.781564836514233e-05 	101325.0195075943
-0.8070570570570572 	300.0000166577294 	4.825209268175206e-05 	101325.019692473
-0.8045545545545546 	300.0000167991597 	4.864562802214326e-05 	101325.0198597495
-0.8020520520520523 	300.000016883313 	4.887979099470662e-05 	101325.0199588243
-0.7995495495495494 	300.0000168843878 	4.888222899685613e-05 	101325.0199595298
-0.7970470470470474 	300.0000168025824 	4.865369850547117e-05 	101325.0198625971
-0.7945445445445446 	300.0000166640481 	4.826867313628126e-05 	101325.0196990027
-0.7920420420420423 	300.0000165104693 	4.784108234458907e-05 	101325.0195181981
-0.7895395395395397 	300.0000163845111 	4.748960507208138e-05 	101325.0193704079
-0.7870370370370371 	300.0000163162445 	4.729710660464061e-05 	101325.0192905676
-0.7845345345345348 	300.000016315201 	4.728898341913609e-05 	101325.0192893421
-0.7820320320320323 	300.0000163700716 	4.743635357922175e-05 	101325.0193531941
-0.7795295295295296 	300.0000164547437 	4.766775581816237e-05 	101325.0194519803
-0.7770270270270272 	300.0000165386708 	4.789816750450348e-05 	101325.0195500202
-0.7745245245245247 	300.00001659489 	4.805430454605461e-05 	101325.0196160785
-0.7720220220220222 	300.0000166059151 	4.808497651083289e-05 	101325.0196295587
-0.7695195195195199 	300.0000165652916 	4.797149471579633e-05 	101325.0195826834
-0.767017017017017 	300.0000164773188 	4.772353491973895e-05 	101325.0194797247
-0.7645145145145147 	300.0000163541509 	4.737377287828327e-05 	101325.0193346373
-0.7620120120120122 	300.0000162130688 	4.697298828398842e-05 	101325.0191681164
-0.7595095095095097 	300.0000160741727 	4.657905655232911e-05 	101325.0190044185
-0.7570070070070072 	300.000015957976 	4.624998688776888e-05 	101325.0188677673
-0.7545045045045048 	300.0000158813639 	4.603416416741872e-05 	101325.0187780949
-0.7520020020020022 	300.00001585361 	4.595613671723164e-05 	101325.018746361
-0.7494994994994997 	300.0000158738982 	4.601120361109798e-05 	101325.0187706387
-0.7469969969969972 	300.0000159288252 	4.616008006275824e-05 	101325.0188347992
-0.7444944944944945 	300.0000159946446 	4.633701698816536e-05 	101325.0189112734
-0.7419919919919924 	300.0000160437783 	4.646686619044029e-05 	101325.0189678286
-0.7394894894894897 	300.0000160518064 	4.648273049467556e-05 	101325.0189764041
-0.7369869869869872 	300.0000160055828 	4.634762581566135e-05 	101325.0189213004
-0.7344844844844846 	300.0000159062994 	4.606626161580494e-05 	101325.018804178
-0.7319819819819822 	300.0000157705169 	4.568337951643603e-05 	101325.0186441113
-0.7294794794794797 	300.0000156245841 	4.527391798653412e-05 	101325.0184723675
-0.7269769769769773 	300.0000154979934 	4.49184184808366e-05 	101325.0183234428
-0.7244744744744747 	300.0000154144585 	4.468184532989402e-05 	101325.0182252874
-0.721971971971972 	300.0000153858211 	4.459825070413919e-05 	101325.0181915973
-0.7194694694694695 	300.0000154092084 	4.465747967569483e-05 	101325.0182183344
-0.7169669669669674 	300.0000154672726 	4.481231517363071e-05 	101325.0182854142
-0.7144644644644647 	300.0000155345738 	4.499206302760132e-05 	101325.0183627948
-0.711961961961962 	300.0000155834651 	4.512047672781473e-05 	101325.0184187239
-0.7094594594594597 	300.0000155916088 	4.513768736496173e-05 	101325.0184275737
-0.7069569569569573 	300.0000155472335 	4.500988074849127e-05 	101325.0183753675
-0.7044544544544545 	300.0000154504519 	4.47356054336287e-05 	101325.0182618796
-0.7019519519519523 	300.0000153117419 	4.43436271697832e-05 	101325.0180991428
-0.6994494494494495 	300.0000151484328 	4.388034120169715e-05 	101325.0179072613
-0.6969469469469471 	300.0000149803549 	4.340129734757344e-05 	101325.0177091632
-0.6944444444444446 	300.000014824984 	4.295711049910426e-05 	101325.017525876
-0.6919419419419421 	300.000014695594 	4.258515849730136e-05 	101325.0173731162
-0.6894394394394396 	300.0000145987582 	4.23062861123852e-05 	101325.0172592659
-0.6869369369369374 	300.0000145352872 	4.212077120511444e-05 	101325.01718472
-0.6844344344344344 	300.0000144992749 	4.201356867544265e-05 	101325.0171426029
-0.6819319319319321 	300.0000144803466 	4.195543660515987e-05 	101325.0171206509
-0.6794294294294296 	300.0000144661004 	4.19093801209517e-05 	101325.0171037319
-0.6769269269269272 	300.0000144433572 	4.183893965116408e-05 	101325.0170764573
-0.6744244244244245 	300.0000144010968 	4.171115049122112e-05 	101325.0170255911
-0.6719219219219222 	300.0000143310359 	4.150557353335567e-05 	101325.0169420943
-0.6694194194194195 	300.0000142303063 	4.121325320068477e-05 	101325.0168224168
-0.6669169169169172 	300.000014100326 	4.08385373628722e-05 	101325.0166687021
-0.6644144144144146 	300.0000139469145 	4.039869677692746e-05 	101325.0164879261
-0.661911911911912 	300.0000137793371 	3.991778896018611e-05 	101325.0162904368
-0.6594094094094097 	300.0000136081993 	3.942706613228889e-05 	101325.0160885077
-0.656906906906907 	300.0000134444634 	3.895707687357769e-05 	101325.0158950318
-0.6544044044044046 	300.0000132985382 	3.853681393323728e-05 	101325.0157222109
-0.6519019019019021 	300.0000131789794 	3.819176993861917e-05 	101325.0155803432
-0.6493993993993996 	300.0000130918477 	3.793917321784211e-05 	101325.0154768649
-0.6468968968968971 	300.0000130402594 	3.77896722624267e-05 	101325.0154156756
-0.6443943943943946 	300.0000130243709 	3.774225851897398e-05 	101325.0153967432
-0.6418918918918921 	300.0000130410007 	3.778638078090202e-05 	101325.0154158807
-0.6393893893893897 	300.0000130830516 	3.790236574310511e-05 	101325.0154648345
-0.6368868868868871 	300.0000131404724 	3.806237828148103e-05 	101325.0155320677
-0.6343843843843846 	300.0000132016174 	3.823482591692914e-05 	101325.0156041292
-0.6318818818818821 	300.0000132543885 	3.838553762277311e-05 	101325.0156671581
-0.6293793793793795 	300.0000132884508 	3.848350729290905e-05 	101325.0157083554
-0.6268768768768773 	300.0000132950954 	3.850354198087991e-05 	101325.0157173233
-0.6243743743743745 	300.0000132691052 	3.842929509873982e-05 	101325.0156872609
-0.6218718718718721 	300.0000132089357 	3.825599321869162e-05 	101325.0156159808
-0.6193693693693696 	300.0000131160971 	3.798882864492802e-05 	101325.0155061394
-0.6168668668668671 	300.0000129966102 	3.764407732890587e-05 	101325.0153644631
-0.6143643643643645 	300.0000128579372 	3.724493755938965e-05 	101325.0152004842
-0.6118618618618621 	300.0000127090608 	3.681764961761609e-05 	101325.0150250218
-0.6093593593593596 	300.0000125593762 	3.638824491499236e-05 	101325.0148485333
-0.6068568568568571 	300.000012416372 	3.597635028250978e-05 	101325.0146796703
-0.6043543543543546 	300.0000122851504 	3.559589057278879e-05 	101325.0145241121
-0.6018518518518521 	300.0000121675218 	3.525271061136991e-05 	101325.0143840855
-0.5993493493493496 	300.0000120624196 	3.494554972306148e-05 	101325.0142589348
-0.5968468468468471 	300.0000119673779 	3.466855543071469e-05 	101325.0141461141
-0.5943443443443446 	300.0000118792349 	3.441205314835203e-05 	101325.0140420247
-0.591841841841842 	300.0000117946068 	3.416678216911794e-05 	101325.0139427532
-0.5893393393393397 	300.0000117109024 	3.392484172833544e-05 	101325.0138446523
-0.5868368368368371 	300.0000116260791 	3.367983200794786e-05 	101325.0137448437
-0.5843343343343346 	300.0000115385039 	3.342681189506304e-05 	101325.013641522
-0.5818318318318321 	300.0000114472231 	3.316247491418171e-05 	101325.0135336309
-0.5793293293293297 	300.0000113513452 	3.288472021597219e-05 	101325.0134204486
-0.5768268268268271 	300.0000112510114 	3.259438158012894e-05 	101325.0133017738
-0.5743243243243245 	300.0000111467386 	3.229320597800436e-05 	101325.0131782517
-0.5718218218218221 	300.0000110398195 	3.198329126528555e-05 	101325.0130514286
-0.5693193193193196 	300.000010932346 	3.166986333266511e-05 	101325.0129234733
-0.5668168168168171 	300.0000108257004 	3.135832474235437e-05 	101325.0127965665
-0.5643143143143147 	300.0000107215259 	3.10543783171368e-05 	101325.0126725212
-0.5618118118118121 	300.0000106210035 	3.07613104073593e-05 	101325.0125526739
-0.5593093093093094 	300.0000105239048 	3.047887250650808e-05 	101325.0124374979
-0.5568068068068072 	300.0000104296078 	3.02059598991044e-05 	101325.0123263556
-0.5543043043043046 	300.000010337099 	2.993963012783086e-05 	101325.0122178449
-0.551801801801802 	300.00001024496 	2.967635528414882e-05 	101325.0121103256
-0.5492992992992995 	300.000010152837 	2.941298547865192e-05 	101325.0120024922
-0.5467967967967969 	300.0000100599986 	2.914575138792115e-05 	101325.0118936436
-0.5442942942942947 	300.0000099662442 	2.887487911477114e-05 	101325.0117834445
-0.5417917917917919 	300.0000098716163 	2.860223167970998e-05 	101325.0116720882
-0.5392892892892895 	300.0000097774109 	2.833033369492987e-05 	101325.0115609081
-0.536786786786787 	300.0000096856075 	2.806557478091641e-05 	101325.0114523397
-0.5342842842842846 	300.0000095984648 	2.781309170581779e-05 	101325.0113493292
-0.531781781781782 	300.0000095182857 	2.758035929019618e-05 	101325.0112544341
-0.5292792792792794 	300.00000944618 	2.737103421282062e-05 	101325.0111687112
-0.526776776776777 	300.0000093811902 	2.718063180013781e-05 	101325.0110911217
-0.5242742742742745 	300.0000093205491 	2.700102288847582e-05 	101325.0110182457
-0.521771771771772 	300.0000092587813 	2.681561177237845e-05 	101325.0109439382
-0.5192692692692695 	300.0000091888936 	2.660783598871631e-05 	101325.0108603704
-0.516766766766767 	300.0000091052834 	2.636263297321704e-05 	101325.010760484
-0.5142642642642645 	300.0000090040137 	2.606796164129001e-05 	101325.010640271
-0.511761761761762 	300.0000088858168 	2.572663947819904e-05 	101325.0105002682
-0.5092592592592596 	300.000008755008 	2.534934135813036e-05 	101325.0103457188
-0.506756756756757 	300.000008618701 	2.49589511258853e-05 	101325.0101853199
-0.5042542542542544 	300.0000084865702 	2.458336039515169e-05 	101325.0100299585
-0.5017517517517521 	300.0000083679525 	2.42449932239245e-05 	101325.0098908082
-0.4992492492492494 	300.0000082699399 	2.396497037653825e-05 	101325.0097761402
-0.496746746746747 	300.0000081950961 	2.374922835384662e-05 	101325.0096888053
-0.4942442442442445 	300.0000081407679 	2.359105112851705e-05 	101325.0096255006
-0.4917417417417421 	300.0000080996107 	2.347139395073286e-05 	101325.0095774634
-0.4892392392392395 	300.0000080615609 	2.335800380569082e-05 	101325.0095328108
-0.486736736736737 	300.0000080158327 	2.322248061715009e-05 	101325.0094789706
-0.4842342342342345 	300.0000079528491 	2.303718075282145e-05 	101325.009404672
-0.481731731731732 	300.0000078670296 	2.278708181996827e-05 	101325.0093028462
-0.4792292292292296 	300.0000077573922 	2.247219043630859e-05 	101325.0091731114
-0.4767267267267268 	300.0000076293646 	2.210344777020843e-05 	101325.0090217543
-0.4742242242242246 	300.0000074929533 	2.171161027046063e-05 	101325.0088601262
-0.471721721721722 	300.0000073589378 	2.132629044984585e-05 	101325.0087015511
-0.4692192192192195 	300.0000072374352 	2.097633413254387e-05 	101325.0085575962
-0.4667167167167169 	300.0000071344109 	2.068020191348721e-05 	101325.0084356544
-0.4642142142142145 	300.0000070517255 	2.043632001291194e-05 	101325.0083373271
-0.461711711711712 	300.0000069845767 	2.023833182977955e-05 	101325.0082576305
-0.4592092092092094 	300.0000069251841 	2.006186687970687e-05 	101325.0081871855
-0.456706706706707 	300.000006864839 	1.988335565528089e-05 	101325.0081155793
-0.4542042042042045 	300.0000067956979 	1.968280176307485e-05 	101325.008034065
-0.451701701701702 	300.0000067145063 	1.944579427223409e-05 	101325.0079380059
-0.4491991991991995 	300.0000066211977 	1.91771248396225e-05 	101325.0078276916
-0.4466966966966969 	300.0000065189427 	1.88823976061143e-05 	101325.0077067796
-0.4441941941941945 	300.0000064127419 	1.857736655380968e-05 	101325.0075810275
-0.441691691691692 	300.0000063074478 	1.827511154635807e-05 	101325.0074566269
-0.4391891891891895 	300.0000062075253 	1.798493882674238e-05 	101325.0073384043
-0.436686686686687 	300.0000061153201 	1.771969265283604e-05 	101325.0072295392
-0.4341841841841846 	300.000006032156 	1.747718066040051e-05 	101325.0071312798
-0.431681681681682 	300.0000059560107 	1.725565866698002e-05 	101325.0070415194
-0.4291791791791794 	300.0000058831871 	1.704351736882761e-05 	101325.0069555581
-0.426676676676677 	300.0000058090934 	1.682601548052169e-05 	101325.0068680233
-0.4241741741741744 	300.0000057303193 	1.65978891784893e-05 	101325.0067746388
-0.421671671671672 	300.0000056452108 	1.635082147469875e-05 	101325.0066737143
-0.4191691691691694 	300.0000055542956 	1.608730304836677e-05 	101325.0065659206
-0.4166666666666669 	300.0000054582257 	1.580918833738706e-05 	101325.0064521164
-0.4141641641641645 	300.000005357763 	1.551916240561098e-05 	101325.0063335929
-0.411661661661662 	300.0000052560708 	1.522645595614471e-05 	101325.0062131696
-0.4091591591591594 	300.0000051556773 	1.493589251531644e-05 	101325.0060945998
-0.406656656656657 	300.0000050596069 	1.465839283977605e-05 	101325.0059812835
-0.4041541541541545 	300.0000049694527 	1.439557304607351e-05 	101325.0058746076
-0.401651651651652 	300.0000048821973 	1.414177031178235e-05 	101325.0057719291
-0.3991491491491494 	300.0000047949034 	1.388992850051809e-05 	101325.0056687742
-0.396646646646647 	300.0000047043262 	1.362739419637999e-05 	101325.0055620668
-0.3941441441441444 	300.0000046108799 	1.335822696226797e-05 	101325.0054517877
-0.3916416416416419 	300.0000045176947 	1.309158964054876e-05 	101325.0053420091
-0.3891391391391395 	300.0000044308865 	1.284164177470067e-05 	101325.0052394753
-0.3866366366366368 	300.0000043539937 	1.262029637763745e-05 	101325.0051486075
-0.3841341341341344 	300.0000042863172 	1.242108666702591e-05 	101325.0050684467
-0.381631631631632 	300.0000042216355 	1.222985070017969e-05 	101325.004991966
-0.3791291291291294 	300.0000041505987 	1.201894966781151e-05 	101325.0049075977
-0.3766266266266269 	300.0000040642316 	1.176735444748071e-05 	101325.0048051758
-0.3741241241241244 	300.0000039590273 	1.146310153040473e-05 	101325.0046804565
-0.371621621621622 	300.000003836499 	1.110778216451337e-05 	101325.0045353429
-0.3691191191191194 	300.0000037030416 	1.072434292636933e-05 	101325.0043772382
-0.366616616616617 	300.000003568081 	1.033502545497377e-05 	101325.0042174298
-0.3641141141141143 	300.0000034404633 	9.968834450248035e-06 	101325.004066515
-0.3616116116116119 	300.0000033277697 	9.645527912893987e-06 	101325.003933148
-0.3591091091091095 	300.0000032345244 	9.374109906185991e-06 	101325.0038227937
-0.356606606606607 	300.000003161401 	9.162649604985719e-06 	101325.0037365303
-0.3541041041041044 	300.0000031066233 	9.002829190752999e-06 	101325.0036719525
-0.3516016016016019 	300.0000030659843 	8.883140314336237e-06 	101325.0036241824
-0.3490990990990994 	300.0000030315344 	8.780106871554204e-06 	101325.0035838349
-0.346596596596597 	300.0000029931123 	8.664175078236148e-06 	101325.0035386599
-0.3440940940940944 	300.0000029402354 	8.509284215099449e-06 	101325.0034764798
-0.3415915915915919 	300.0000028646749 	8.288811716620014e-06 	101325.0033874988
-0.3390890890890895 	300.0000027628962 	7.997204211424798e-06 	101325.0032674079
-0.3365865865865869 	300.000002638716 	7.640256556881835e-06 	101325.0031204802
-0.3340840840840844 	300.000002500711 	7.244164888753258e-06 	101325.0029572672
-0.3315815815815819 	300.0000023621211 	6.84976222770929e-06 	101325.0027931721
-0.3290790790790794 	300.0000022372984 	6.491179903104974e-06 	101325.0026454153
-0.3265765765765769 	300.0000021363471 	6.200296093115522e-06 	101325.002526128
-0.3240740740740744 	300.0000020634927 	5.985531615379653e-06 	101325.0024396396
-0.3215715715715718 	300.0000020147396 	5.839275552841468e-06 	101325.0023818671
-0.3190690690690695 	300.0000019797551 	5.734860790763392e-06 	101325.0023407297
-0.3165665665665668 	300.0000019452389 	5.630614722103991e-06 	101325.0022998386