/*--------------------------------*- C++ -*----------------------------------*\
  =========                 |
  \\      /  F ield         | OpenFOAM: The Open Source CFD Toolbox
   \\    /   O peration     | Website:  https://openfoam.org
    \\  /    A nd           | Version:  7
     \\/     M anipulation  |
\*---------------------------------------------------------------------------*/
FoamFile
{
    version     2.0;
    format      ascii;
    class       volScalarField;
    location    "0.00125";
    object      p;
}
// * * * * * * * * * * * * * * * * * * * * * * * * * * * * * * * * * * * * * //

dimensions      [1 -1 -2 0 0 0 0];

internalField   nonuniform List<scalar> 
5000
(
119999.9
119999.9
119999.89
119999.89
119999.88
119999.88
119999.87
119999.86
119999.86
119999.85
119999.84
119999.83
119999.83
119999.82
119999.81
119999.8
119999.79
119999.78
119999.77
119999.76
119999.75
119999.73
119999.72
119999.71
119999.69
119999.68
119999.66
119999.65
119999.63
119999.61
119999.6
119999.58
119999.56
119999.54
119999.52
119999.49
119999.47
119999.45
119999.42
119999.39
119999.37
119999.34
119999.31
119999.28
119999.24
119999.21
119999.17
119999.14
119999.1
119999.06
119999.02
119998.97
119998.93
119998.88
119998.83
119998.78
119998.73
119998.67
119998.62
119998.56
119998.49
119998.43
119998.36
119998.29
119998.22
119998.14
119998.07
119997.98
119997.9
119997.81
119997.72
119997.62
119997.52
119997.42
119997.31
119997.2
119997.09
119996.97
119996.84
119996.72
119996.58
119996.44
119996.3
119996.15
119996
119995.84
119995.67
119995.5
119995.32
119995.13
119994.94
119994.74
119994.54
119994.32
119994.1
119993.87
119993.63
119993.39
119993.13
119992.87
119992.6
119992.32
119992.02
119991.72
119991.41
119991.09
119990.75
119990.41
119990.05
119989.68
119989.3
119988.9
119988.5
119988.08
119987.64
119987.19
119986.73
119986.25
119985.75
119985.24
119984.71
119984.17
119983.61
119983.03
119982.43
119981.81
119981.17
119980.52
119979.84
119979.14
119978.42
119977.68
119976.92
119976.13
119975.32
119974.48
119973.62
119972.73
119971.82
119970.87
119969.9
119968.91
119967.88
119966.82
119965.74
119964.62
119963.47
119962.28
119961.07
119959.82
119958.53
119957.21
119955.85
119954.45
119953.01
119951.54
119950.02
119948.46
119946.86
119945.22
119943.53
119941.8
119940.03
119938.2
119936.33
119934.41
119932.44
119930.42
119928.34
119926.22
119924.04
119921.8
119919.51
119917.16
119914.76
119912.29
119909.76
119907.18
119904.52
119901.81
119899.03
119896.18
119893.27
119890.28
119887.23
119884.11
119880.91
119877.64
119874.29
119870.87
119867.37
119863.79
119860.14
119856.4
119852.58
119848.67
119844.68
119840.6
119836.44
119832.18
119827.84
119823.4
119818.87
119814.25
119809.53
119804.71
119799.79
119794.78
119789.66
119784.44
119779.12
119773.69
119768.15
119762.51
119756.75
119750.89
119744.91
119738.82
119732.62
119726.29
119719.85
119713.3
119706.62
119699.82
119692.89
119685.85
119678.67
119671.37
119663.94
119656.38
119648.7
119640.87
119632.92
119624.83
119616.6
119608.24
119599.74
119591.1
119582.32
119573.39
119564.32
119555.11
119545.75
119536.25
119526.6
119516.79
119506.84
119496.74
119486.48
119476.07
119465.51
119454.79
119443.91
119432.88
119421.69
119410.34
119398.82
119387.15
119375.31
119363.32
119351.15
119338.83
119326.33
119313.67
119300.85
119287.85
119274.69
119261.35
119247.85
119234.18
119220.33
119206.31
119192.12
119177.76
119163.22
119148.51
119133.62
119118.56
119103.32
119087.91
119072.32
119056.55
119040.61
119024.49
119008.19
118991.71
118975.05
118958.21
118941.2
118924.01
118906.63
118889.08
118871.35
118853.43
118835.34
118817.07
118798.62
118779.99
118761.18
118742.19
118723.02
118703.67
118684.14
118664.43
118644.55
118624.48
118604.24
118583.82
118563.22
118542.44
118521.48
118500.35
118479.04
118457.56
118435.9
118414.07
118392.06
118369.87
118347.51
118324.98
118302.28
118279.41
118256.36
118233.14
118209.75
118186.2
118162.47
118138.58
118114.51
118090.29
118065.89
118041.33
118016.61
117991.72
117966.68
117941.47
117916.09
117890.56
117864.87
117839.03
117813.02
117786.86
117760.54
117734.07
117707.45
117680.68
117653.75
117626.68
117599.45
117572.08
117544.56
117516.9
117489.09
117461.14
117433.05
117404.81
117376.44
117347.93
117319.28
117290.5
117261.58
117232.53
117203.35
117174.03
117144.59
117115.02
117085.32
117055.5
117025.55
116995.48
116965.29
116934.98
116904.55
116874
116843.34
116812.56
116781.67
116750.67
116719.56
116688.34
116657.02
116625.59
116594.05
116562.41
116530.68
116498.84
116466.9
116434.87
116402.74
116370.52
116338.21
116305.8
116273.31
116240.73
116208.07
116175.32
116142.48
116109.57
116076.58
116043.51
116010.37
115977.15
115943.85
115910.49
115877.05
115843.55
115809.98
115776.35
115742.65
115708.9
115675.08
115641.2
115607.27
115573.29
115539.25
115505.15
115471.01
115436.82
115402.59
115368.31
115333.99
115299.62
115265.22
115230.77
115196.3
115161.78
115127.24
115092.66
115058.06
115023.42
114988.76
114954.08
114919.37
114884.65
114849.9
114815.14
114780.36
114745.57
114710.77
114675.95
114641.13
114606.3
114571.47
114536.63
114501.79
114466.96
114432.12
114397.29
114362.47
114327.65
114292.84
114258.04
114223.26
114188.49
114153.74
114119
114084.29
114049.6
114014.93
113980.29
113945.67
113911.09
113876.53
113842.01
113807.52
113773.07
113738.66
113704.29
113669.96
113635.67
113601.43
113567.24
113533.09
113499
113464.96
113430.97
113397.05
113363.18
113329.37
113295.62
113261.94
113228.32
113194.77
113161.29
113127.88
113094.55
113061.29
113028.1
112995
112961.98
112929.04
112896.18
112863.41
112830.72
112798.13
112765.63
112733.22
112700.91
112668.69
112636.58
112604.56
112572.65
112540.84
112509.14
112477.54
112446.06
112414.68
112383.42
112352.28
112321.25
112290.34
112259.55
112228.89
112198.35
112167.93
112137.64
112107.48
112077.45
112047.56
112017.8
111988.17
111958.69
111929.34
111900.13
111871.07
111842.15
111813.38
111784.75
111756.28
111727.96
111699.79
111671.77
111643.91
111616.21
111588.66
111561.28
111534.06
111507
111480.11
111453.38
111426.82
111400.43
111374.21
111348.17
111322.29
111296.6
111271.07
111245.73
111220.56
111195.58
111170.78
111146.15
111121.72
111097.46
111073.4
111049.52
111025.83
111002.33
110979.01
110955.89
110932.97
110910.23
110887.69
110865.35
110843.2
110821.25
110799.49
110777.94
110756.58
110735.43
110714.47
110693.72
110673.16
110652.81
110632.67
110612.72
110592.98
110573.45
110554.12
110534.99
110516.07
110497.36
110478.85
110460.55
110442.46
110424.57
110406.89
110389.41
110372.15
110355.08
110338.23
110321.58
110305.14
110288.9
110272.88
110257.05
110241.43
110226.02
110210.81
110195.81
110181.01
110166.41
110152.02
110137.83
110123.84
110110.05
110096.46
110083.07
110069.88
110056.89
110044.09
110031.5
110019.09
110006.88
109994.87
109983.04
109971.41
109959.97
109948.71
109937.65
109926.77
109916.07
109905.56
109895.23
109885.09
109875.12
109865.33
109855.72
109846.29
109837.02
109827.94
109819.02
109810.27
109801.69
109793.27
109785.02
109776.94
109769.01
109761.25
109753.64
109746.19
109738.89
109731.74
109724.75
109717.9
109711.2
109704.65
109698.24
109691.97
109685.84
109679.84
109673.99
109668.27
109662.68
109657.22
109651.88
109646.68
109641.6
109636.64
109631.8
109627.08
109622.47
109617.98
109613.61
109609.34
109605.19
109601.14
109597.19
109593.35
109589.61
109585.97
109582.43
109578.98
109575.63
109572.37
109569.2
109566.11
109563.12
109560.21
109557.38
109554.63
109551.96
109549.37
109546.86
109544.42
109542.06
109539.76
109537.54
109535.38
109533.29
109531.26
109529.3
109527.4
109525.56
109523.77
109522.05
109520.38
109518.76
109517.2
109515.69
109514.23
109512.82
109511.45
109510.13
109508.86
109507.63
109506.44
109505.3
109504.19
109503.13
109502.1
109501.11
109500.15
109499.23
109498.34
109497.49
109496.66
109495.87
109495.11
109494.37
109493.67
109492.99
109492.33
109491.7
109491.1
109490.52
109489.96
109489.43
109488.91
109488.42
109487.94
109487.49
109487.05
109486.63
109486.23
109485.85
109485.48
109485.13
109484.79
109484.47
109484.16
109483.86
109483.58
109483.31
109483.05
109482.8
109482.56
109482.34
109482.12
109481.91
109481.72
109481.53
109481.35
109481.18
109481.01
109480.86
109480.71
109480.57
109480.43
109480.31
109480.18
109480.07
109479.96
109479.85
109479.75
109479.66
109479.57
109479.48
109479.4
109479.32
109479.25
109479.18
109479.12
109479.05
109479
109478.94
109478.89
109478.84
109478.79
109478.74
109478.7
109478.66
109478.62
109478.59
109478.56
109478.52
109478.49
109478.47
109478.44
109478.41
109478.39
109478.37
109478.35
109478.33
109478.31
109478.29
109478.28
109478.26
109478.25
109478.24
109478.23
109478.21
109478.2
109478.19
109478.18
109478.18
109478.17
109478.16
109478.15
109478.15
109478.14
109478.14
109478.13
109478.13
109478.12
109478.12
109478.11
109478.11
109478.1
109478.09
109478.09
109478.08
109478.07
109478.07
109478.06
109478.05
109478.05
109478.04
109478.03
109478.02
109478.02
109478.01
109478
109478
109477.99
109477.98
109477.98
109477.97
109477.97
109477.96
109477.95
109477.95
109477.94
109477.94
109477.93
109477.93
109477.92
109477.92
109477.91
109477.91
109477.9
109477.89
109477.89
109477.89
109477.88
109477.87
109477.87
109477.86
109477.86
109477.85
109477.85
109477.84
109477.84
109477.83
109477.83
109477.83
109477.82
109477.82
109477.81
109477.81
109477.8
109477.8
109477.79
109477.79
109477.79
109477.78
109477.78
109477.77
109477.77
109477.76
109477.76
109477.76
109477.75
109477.75
109477.74
109477.74
109477.74
109477.73
109477.73
109477.73
109477.72
109477.72
109477.72
109477.71
109477.71
109477.71
109477.7
109477.7
109477.7
109477.7
109477.69
109477.69
109477.69
109477.68
109477.68
109477.68
109477.68
109477.67
109477.67
109477.67
109477.67
109477.66
109477.66
109477.66
109477.66
109477.65
109477.65
109477.65
109477.65
109477.64
109477.64
109477.64
109477.64
109477.63
109477.63
109477.63
109477.63
109477.62
109477.62
109477.62
109477.62
109477.61
109477.61
109477.61
109477.61
109477.61
109477.61
109477.61
109477.6
109477.6
109477.6
109477.6
109477.6
109477.6
109477.6
109477.6
109477.6
109477.6
109477.59
109477.59
109477.59
109477.59
109477.59
109477.59
109477.58
109477.58
109477.58
109477.58
109477.58
109477.57
109477.57
109477.57
109477.57
109477.57
109477.57
109477.57
109477.57
109477.57
109477.57
109477.57
109477.57
109477.57
109477.56
109477.56
109477.56
109477.56
109477.56
109477.56
109477.56
109477.56
109477.56
109477.56
109477.56
109477.56
109477.56
109477.56
109477.56
109477.56
109477.55
109477.55
109477.55
109477.55
109477.55
109477.55
109477.55
109477.55
109477.55
109477.56
109477.56
109477.56
109477.56
109477.56
109477.56
109477.56
109477.56
109477.56
109477.56
109477.56
109477.56
109477.56
109477.56
109477.56
109477.56
109477.56
109477.56
109477.56
109477.56
109477.56
109477.56
109477.56
109477.56
109477.56
109477.56
109477.56
109477.56
109477.56
109477.57
109477.57
109477.57
109477.57
109477.57
109477.57
109477.57
109477.57
109477.57
109477.57
109477.57
109477.57
109477.57
109477.57
109477.57
109477.57
109477.57
109477.58
109477.58
109477.58
109477.58
109477.58
109477.58
109477.58
109477.58
109477.58
109477.58
109477.59
109477.59
109477.59
109477.59
109477.59
109477.59
109477.59
109477.59
109477.6
109477.6
109477.6
109477.6
109477.6
109477.6
109477.6
109477.61
109477.61
109477.61
109477.61
109477.61
109477.61
109477.61
109477.61
109477.62
109477.62
109477.62
109477.62
109477.62
109477.62
109477.62
109477.62
109477.62
109477.63
109477.63
109477.63
109477.63
109477.63
109477.63
109477.63
109477.63
109477.63
109477.63
109477.64
109477.64
109477.64
109477.64
109477.64
109477.64
109477.64
109477.64
109477.64
109477.64
109477.64
109477.65
109477.65
109477.65
109477.65
109477.65
109477.65
109477.65
109477.65
109477.65
109477.65
109477.66
109477.66
109477.66
109477.66
109477.66
109477.66
109477.66
109477.66
109477.66
109477.67
109477.67
109477.67
109477.67
109477.67
109477.67
109477.67
109477.67
109477.67
109477.68
109477.68
109477.68
109477.68
109477.68
109477.68
109477.68
109477.68
109477.68
109477.69
109477.69
109477.69
109477.69
109477.69
109477.69
109477.69
109477.69
109477.69
109477.69
109477.7
109477.7
109477.7
109477.7
109477.7
109477.7
109477.7
109477.7
109477.7
109477.7
109477.7
109477.7
109477.71
109477.71
109477.71
109477.71
109477.71
109477.71
109477.71
109477.71
109477.71
109477.71
109477.71
109477.71
109477.72
109477.72
109477.72
109477.72
109477.72
109477.72
109477.72
109477.72
109477.72
109477.72
109477.72
109477.73
109477.73
109477.73
109477.73
109477.73
109477.73
109477.73
109477.73
109477.73
109477.73
109477.73
109477.74
109477.74
109477.74
109477.74
109477.74
109477.74
109477.74
109477.74
109477.74
109477.74
109477.74
109477.75
109477.75
109477.75
109477.75
109477.75
109477.75
109477.75
109477.75
109477.75
109477.75
109477.75
109477.75
109477.76
109477.76
109477.76
109477.76
109477.76
109477.76
109477.76
109477.76
109477.76
109477.76
109477.76
109477.76
109477.76
109477.76
109477.77
109477.77
109477.77
109477.77
109477.77
109477.77
109477.77
109477.77
109477.77
109477.77
109477.77
109477.77
109477.77
109477.77
109477.77
109477.78
109477.78
109477.78
109477.78
109477.78
109477.78
109477.78
109477.78
109477.78
109477.78
109477.78
109477.78
109477.78
109477.78
109477.78
109477.79
109477.79
109477.79
109477.79
109477.79
109477.79
109477.79
109477.79
109477.79
109477.79
109477.79
109477.79
109477.79
109477.79
109477.8
109477.8
109477.8
109477.8
109477.8
109477.8
109477.8
109477.8
109477.8
109477.8
109477.8
109477.8
109477.8
109477.8
109477.8
109477.81
109477.81
109477.81
109477.81
109477.81
109477.81
109477.81
109477.81
109477.81
109477.81
109477.81
109477.81
109477.81
109477.81
109477.81
109477.81
109477.81
109477.81
109477.82
109477.82
109477.82
109477.82
109477.82
109477.82
109477.82
109477.82
109477.82
109477.82
109477.82
109477.82
109477.82
109477.82
109477.82
109477.82
109477.82
109477.82
109477.82
109477.82
109477.83
109477.83
109477.83
109477.83
109477.83
109477.83
109477.83
109477.83
109477.83
109477.83
109477.83
109477.83
109477.83
109477.83
109477.83
109477.83
109477.83
109477.84
109477.84
109477.84
109477.84
109477.84
109477.84
109477.84
109477.84
109477.84
109477.84
109477.84
109477.84
109477.84
109477.84
109477.84
109477.84
109477.84
109477.85
109477.85
109477.85
109477.85
109477.85
109477.85
109477.85
109477.85
109477.85
109477.85
109477.85
109477.85
109477.85
109477.85
109477.85
109477.85
109477.85
109477.86
109477.86
109477.86
109477.86
109477.86
109477.86
109477.86
109477.86
109477.86
109477.86
109477.86
109477.86
109477.86
109477.86
109477.86
109477.86
109477.86
109477.86
109477.86
109477.86
109477.87
109477.87
109477.87
109477.87
109477.87
109477.87
109477.87
109477.87
109477.87
109477.87
109477.87
109477.87
109477.87
109477.87
109477.87
109477.87
109477.87
109477.87
109477.87
109477.87
109477.87
109477.87
109477.88
109477.88
109477.88
109477.88
109477.88
109477.88
109477.88
109477.88
109477.88
109477.88
109477.88
109477.88
109477.88
109477.88
109477.88
109477.88
109477.88
109477.88
109477.88
109477.88
109477.88
109477.88
109477.89
109477.89
109477.89
109477.89
109477.89
109477.89
109477.89
109477.89
109477.89
109477.89
109477.89
109477.89
109477.89
109477.89
109477.89
109477.89
109477.89
109477.89
109477.89
109477.89
109477.89
109477.89
109477.9
109477.9
109477.9
109477.9
109477.9
109477.9
109477.9
109477.9
109477.9
109477.9
109477.9
109477.9
109477.9
109477.9
109477.9
109477.9
109477.9
109477.9
109477.9
109477.9
109477.9
109477.9
109477.91
109477.91
109477.91
109477.91
109477.91
109477.91
109477.91
109477.91
109477.91
109477.91
109477.91
109477.91
109477.91
109477.91
109477.91
109477.91
109477.91
109477.91
109477.91
109477.91
109477.91
109477.91
109477.91
109477.92
109477.92
109477.92
109477.92
109477.92
109477.92
109477.92
109477.92
109477.92
109477.92
109477.92
109477.92
109477.92
109477.92
109477.92
109477.92
109477.92
109477.92
109477.92
109477.92
109477.92
109477.92
109477.92
109477.92
109477.93
109477.93
109477.93
109477.93
109477.93
109477.93
109477.93
109477.93
109477.93
109477.93
109477.93
109477.93
109477.93
109477.93
109477.93
109477.93
109477.93
109477.93
109477.93
109477.93
109477.93
109477.93
109477.93
109477.93
109477.93
109477.93
109477.93
109477.94
109477.94
109477.94
109477.94
109477.94
109477.94
109477.94
109477.94
109477.94
109477.94
109477.94
109477.94
109477.94
109477.94
109477.94
109477.94
109477.94
109477.94
109477.94
109477.94
109477.94
109477.94
109477.94
109477.94
109477.94
109477.94
109477.94
109477.95
109477.95
109477.95
109477.95
109477.95
109477.95
109477.95
109477.95
109477.95
109477.95
109477.95
109477.95
109477.95
109477.95
109477.95
109477.95
109477.95
109477.95
109477.95
109477.95
109477.95
109477.95
109477.95
109477.95
109477.95
109477.95
109477.95
109477.96
109477.96
109477.96
109477.96
109477.96
109477.96
109477.96
109477.96
109477.96
109477.96
109477.96
109477.96
109477.96
109477.96
109477.96
109477.96
109477.96
109477.96
109477.96
109477.96
109477.96
109477.96
109477.96
109477.96
109477.96
109477.96
109477.96
109477.96
109477.96
109477.96
109477.96
109477.96
109477.97
109477.97
109477.97
109477.97
109477.97
109477.97
109477.97
109477.97
109477.97
109477.97
109477.97
109477.97
109477.97
109477.97
109477.97
109477.97
109477.97
109477.97
109477.97
109477.97
109477.97
109477.97
109477.97
109477.97
109477.97
109477.97
109477.97
109477.97
109477.97
109477.97
109477.97
109477.97
109477.97
109477.97
109477.97
109477.97
109477.97
109477.97
109477.98
109477.98
109477.98
109477.98
109477.98
109477.98
109477.98
109477.98
109477.98
109477.98
109477.98
109477.98
109477.98
109477.98
109477.98
109477.98
109477.98
109477.98
109477.98
109477.98
109477.98
109477.98
109477.98
109477.98
109477.98
109477.98
109477.98
109477.98
109477.98
109477.98
109477.98
109477.98
109477.98
109477.98
109477.98
109477.99
109477.99
109477.99
109477.99
109477.99
109477.99
109477.99
109477.99
109477.99
109477.99
109477.99
109477.99
109477.99
109477.99
109477.99
109477.99
109477.99
109477.99
109477.99
109477.99
109477.99
109477.99
109477.99
109477.99
109477.99
109477.99
109477.99
109477.99
109477.99
109477.99
109477.99
109477.99
109477.99
109477.99
109477.99
109477.99
109477.99
109477.99
109478
109478
109478
109478
109478
109478
109478
109478
109478
109478
109478
109478
109478
109478
109478
109478
109478
109478
109478
109478
109478
109478
109478
109478
109478
109478
109478
109478
109478
109478
109478
109478
109478
109478
109478
109478
109478
109478
109478
109478
109478
109478.01
109478.01
109478.01
109478.01
109478.01
109478.01
109478.01
109478.01
109478.01
109478.01
109478.01
109478.01
109478.01
109478.01
109478.01
109478.01
109478.01
109478.01
109478.01
109478.01
109478.01
109478.01
109478.01
109478.01
109478.01
109478.01
109478.01
109478.01
109478.01
109478.01
109478.01
109478.01
109478.01
109478.01
109478.01
109478.01
109478.01
109478.01
109478.01
109478.01
109478.01
109478.01
109478.01
109478.01
109478.01
109478.01
109478.01
109478.01
109478.01
109478.01
109478.01
109478.01
109478.02
109478.02
109478.02
109478.02
109478.02
109478.02
109478.02
109478.02
109478.02
109478.02
109478.02
109478.02
109478.02
109478.02
109478.02
109478.02
109478.02
109478.02
109478.02
109478.02
109478.02
109478.02
109478.02
109478.02
109478.02
109478.02
109478.02
109478.02
109478.02
109478.02
109478.02
109478.02
109478.02
109478.02
109478.02
109478.02
109478.02
109478.02
109478.02
109478.02
109478.02
109478.02
109478.02
109478.02
109478.02
109478.02
109478.02
109478.02
109478.02
109478.02
109478.02
109478.02
109478.02
109478.02
109478.02
109478.03
109478.03
109478.03
109478.03
109478.03
109478.03
109478.03
109478.03
109478.03
109478.03
109478.03
109478.03
109478.03
109478.03
109478.03
109478.03
109478.03
109478.03
109478.03
109478.03
109478.03
109478.03
109478.03
109478.03
109478.03
109478.03
109478.03
109478.03
109478.03
109478.03
109478.03
109478.03
109478.03
109478.03
109478.03
109478.03
109478.03
109478.03
109478.03
109478.03
109478.03
109478.03
109478.03
109478.03
109478.03
109478.03
109478.03
109478.03
109478.03
109478.03
109478.04
109478.04
109478.04
109478.04
109478.04
109478.04
109478.04
109478.04
109478.04
109478.04
109478.04
109478.04
109478.04
109478.04
109478.04
109478.04
109478.04
109478.04
109478.04
109478.04
109478.04
109478.04
109478.04
109478.04
109478.04
109478.04
109478.04
109478.04
109478.04
109478.04
109478.04
109478.04
109478.04
109478.04
109478.04
109478.04
109478.04
109478.04
109478.04
109478.04
109478.04
109478.04
109478.04
109478.04
109478.04
109478.04
109478.04
109478.04
109478.04
109478.04
109478.04
109478.04
109478.04
109478.04
109478.04
109478.04
109478.04
109478.04
109478.04
109478.05
109478.05
109478.05
109478.05
109478.05
109478.05
109478.05
109478.05
109478.05
109478.05
109478.05
109478.05
109478.05
109478.05
109478.05
109478.05
109478.05
109478.05
109478.05
109478.05
109478.05
109478.05
109478.05
109478.05
109478.05
109478.05
109478.05
109478.05
109478.05
109478.05
109478.05
109478.05
109478.05
109478.05
109478.05
109478.05
109478.05
109478.05
109478.05
109478.05
109478.05
109478.05
109478.05
109478.05
109478.05
109478.05
109478.05
109478.05
109478.05
109478.05
109478.05
109478.05
109478.05
109478.05
109478.05
109478.05
109478.05
109478.05
109478.05
109478.05
109478.05
109478.05
109478.05
109478.05
109478.05
109478.05
109478.05
109478.05
109478.05
109478.05
109478.05
109478.05
109478.05
109478.05
109478.06
109478.06
109478.06
109478.06
109478.06
109478.06
109478.06
109478.06
109478.06
109478.06
109478.06
109478.06
109478.06
109478.06
109478.06
109478.06
109478.06
109478.06
109478.06
109478.06
109478.06
109478.06
109478.06
109478.06
109478.06
109478.06
109478.06
109478.06
109478.06
109478.06
109478.06
109478.06
109478.06
109478.06
109478.06
109478.06
109478.06
109478.06
109478.06
109478.06
109478.06
109478.06
109478.06
109478.06
109478.06
109478.06
109478.06
109478.06
109478.06
109478.06
109478.06
109478.06
109478.06
109478.06
109478.06
109478.06
109478.06
109478.06
109478.06
109478.06
109478.06
109478.06
109478.06
109478.06
109478.06
109478.06
109478.06
109478.06
109478.06
109478.06
109478.07
109478.07
109478.07
109478.07
109478.07
109478.07
109478.07
109478.07
109478.07
109478.07
109478.07
109478.07
109478.07
109478.07
109478.07
109478.07
109478.07
109478.07
109478.07
109478.07
109478.07
109478.07
109478.07
109478.07
109478.07
109478.07
109478.07
109478.07
109478.07
109478.07
109478.07
109478.07
109478.07
109478.07
109478.07
109478.07
109478.07
109478.07
109478.07
109478.07
109478.07
109478.07
109478.07
109478.07
109478.07
109478.07
109478.07
109478.07
109478.07
109478.07
109478.07
109478.07
109478.07
109478.07
109478.07
109478.07
109478.07
109478.07
109478.07
109478.07
109478.07
109478.07
109478.07
109478.07
109478.07
109478.07
109478.07
109478.07
109478.07
109478.07
109478.07
109478.07
109478.07
109478.07
109478.07
109478.07
109478.07
109478.07
109478.07
109478.07
109478.07
109478.07
109478.07
109478.07
109478.07
109478.07
109478.07
109478.07
109478.07
109478.07
109478.07
109478.07
109478.07
109478.07
109478.07
109478.07
109478.07
109478.07
109478.07
109478.07
109478.07
109478.07
109478.07
109478.07
109478.07
109478.07
109478.07
109478.07
109478.07
109478.07
109478.07
109478.07
109478.07
109478.07
109478.07
109478.07
109478.07
109478.07
109478.07
109478.07
109478.07
109478.07
109478.07
109478.08
109478.08
109478.08
109478.08
109478.08
109478.08
109478.08
109478.08
109478.08
109478.08
109478.08
109478.08
109478.08
109478.08
109478.08
109478.08
109478.08
109478.08
109478.08
109478.08
109478.08
109478.08
109478.08
109478.08
109478.08
109478.08
109478.08
109478.08
109478.08
109478.08
109478.08
109478.08
109478.08
109478.08
109478.08
109478.08
109478.08
109478.08
109478.08
109478.08
109478.08
109478.08
109478.08
109478.08
109478.08
109478.08
109478.08
109478.08
109478.08
109478.08
109478.08
109478.08
109478.08
109478.08
109478.08
109478.08
109478.08
109478.08
109478.08
109478.08
109478.08
109478.08
109478.08
109478.08
109478.08
109478.08
109478.08
109478.08
109478.08
109478.08
109478.08
109478.08
109478.08
109478.08
109478.08
109478.08
109478.08
109478.08
109478.08
109478.08
109478.08
109478.08
109478.08
109478.08
109478.08
109478.08
109478.08
109478.08
109478.08
109478.08
109478.08
109478.08
109478.08
109478.08
109478.08
109478.08
109478.08
109478.08
109478.08
109478.08
109478.08
109478.08
109478.08
109478.08
109478.08
109478.08
109478.08
109478.08
109478.08
109478.08
109478.08
109478.08
109478.09
109478.09
109478.09
109478.09
109478.09
109478.09
109478.09
109478.09
109478.09
109478.09
109478.09
109478.09
109478.09
109478.09
109478.09
109478.09
109478.09
109478.09
109478.09
109478.09
109478.09
109478.09
109478.09
109478.09
109478.09
109478.09
109478.09
109478.09
109478.09
109478.09
109478.09
109478.09
109478.09
109478.09
109478.09
109478.09
109478.09
109478.09
109478.09
109478.09
109478.09
109478.09
109478.09
109478.09
109478.09
109478.09
109478.09
109478.09
109478.09
109478.09
109478.09
109478.09
109478.09
109478.09
109478.09
109478.09
109478.09
109478.09
109478.09
109478.09
109478.09
109478.09
109478.09
109478.09
109478.09
109478.09
109478.09
109478.09
109478.09
109478.09
109478.09
109478.09
109478.09
109478.09
109478.09
109478.09
109478.09
109478.09
109478.09
109478.09
109478.09
109478.09
109478.09
109478.09
109478.09
109478.09
109478.09
109478.09
109478.09
109478.09
109478.09
109478.09
109478.09
109478.09
109478.09
109478.09
109478.09
109478.09
109478.09
109478.09
109478.09
109478.09
109478.09
109478.09
109478.09
109478.09
109478.09
109478.09
109478.09
109478.09
109478.09
109478.09
109478.09
109478.09
109478.09
109478.09
109478.09
109478.09
109478.09
109478.09
109478.09
109478.09
109478.09
109478.09
109478.09
109478.09
109478.09
109478.09
109478.09
109478.09
109478.09
109478.09
109478.09
109478.09
109478.09
109478.09
109478.09
109478.09
109478.09
109478.09
109478.09
109478.09
109478.09
109478.09
109478.09
109478.09
109478.09
109478.09
109478.09
109478.09
109478.09
109478.09
109478.09
109478.09
109478.09
109478.09
109478.09
109478.09
109478.09
109478.09
109478.09
109478.09
109478.09
109478.09
109478.09
109478.09
109478.09
109478.09
109478.09
109478.09
109478.09
109478.09
109478.09
109478.09
109478.09
109478.09
109478.09
109478.09
109478.09
109478.09
109478.09
109478.09
109478.09
109478.09
109478.09
109478.09
109478.09
109478.09
109478.09
109478.09
109478.09
109478.09
109478.09
109478.09
109478.09
109478.09
109478.09
109478.09
109478.09
109478.09
109478.09
109478.09
109478.09
109478.09
109478.09
109478.09
109478.09
109478.09
109478.09
109478.09
109478.09
109478.09
109478.09
109478.09
109478.09
109478.09
109478.09
109478.09
109478.09
109478.09
109478.09
109478.09
109478.09
109478.09
109478.09
109478.09
109478.1
109478.1
109478.11
109478.12
109478.12
109478.14
109478.03
109478.07
109478.08
109478.08
109478.08
109478.09
109478.09
109478.09
109478.09
109478.09
109478.09
109478.09
109478.09
109478.09
109478.09
109478.09
109478.09
109478.09
109478.09
109478.09
109478.09
109478.09
109478.09
109478.09
109478.09
109478.09
109478.09
109478.09
109478.09
109478.09
109478.09
109478.09
109478.09
109478.09
109478.09
109478.09
109478.09
109478.09
109478.09
109478.09
109478.09
109478.09
109478.09
109478.09
109478.09
109478.09
109478.09
109478.09
109478.09
109478.09
109478.09
109478.09
109478.09
109478.09
109478.09
109478.09
109478.09
109478.09
109478.09
109478.09
109478.09
109478.09
109478.09
109478.09
109478.09
109478.09
109478.09
109478.09
109478.09
109478.09
109478.09
109478.09
109478.09
109478.09
109478.09
109478.09
109478.09
109478.09
109478.09
109478.09
109478.09
109478.09
109478.09
109478.09
109478.09
109478.09
109478.09
109478.09
109478.09
109478.09
109478.09
109478.09
109478.09
109478.09
109478.09
109478.09
109478.09
109478.09
109478.09
109478.09
109478.09
109478.09
109478.09
109478.09
109478.09
109478.09
109478.09
109478.09
109478.09
109478.09
109478.09
109478.09
109478.09
109478.09
109478.09
109478.09
109478.09
109478.09
109478.09
109478.09
109478.09
109478.09
109478.09
109478.09
109478.09
109478.09
109478.09
109478.09
109478.09
109478.09
109478.09
109478.09
109478.09
109478.09
109478.09
109478.09
109478.09
109478.09
109478.09
109478.09
109478.09
109478.09
109478.09
109478.09
109478.09
109478.09
109478.09
109478.09
109478.09
109478.09
109478.09
109478.09
109478.09
109478.09
109478.09
109478.09
109478.09
109478.09
109478.09
109478.09
109478.09
109478.09
109478.09
109478.09
109478.09
109478.09
109478.09
109478.09
109478.09
109478.09
109478.09
109478.09
109478.09
109478.09
109478.09
109478.09
109478.09
109478.09
109478.09
109478.09
109478.09
109478.09
109478.09
109478.09
109478.09
109478.09
109478.09
109478.09
109478.09
109478.09
109478.09
109478.09
109478.09
109478.09
109478.09
109478.09
109478.09
109478.09
109478.09
109478.09
109478.09
109478.09
109478.09
109478.09
109478.09
109478.09
109478.09
109478.09
109478.09
109478.09
109478.09
109478.09
109478.09
109478.09
109478.09
109478.09
109478.09
109478.09
109478.09
109478.09
109478.09
109478.09
109478.09
109478.09
109478.09
109478.09
109478.09
109478.09
109478.09
109478.09
109478.09
109478.09
109478.09
109478.09
109478.09
109478.09
109478.09
109478.09
109478.09
109478.09
109478.09
109478.09
109478.09
109478.09
109478.09
109478.09
109478.09
109478.09
109478.09
109478.09
109478.09
109478.09
109478.09
109478.09
109478.09
109478.09
109478.09
109478.09
109478.09
109478.09
109478.09
109478.09
109478.09
109478.09
109478.09
109478.09
109478.09
109478.09
109478.09
109478.09
109478.09
109478.09
109478.09
109478.09
109478.09
109478.09
109478.09
109478.09
109478.09
109478.09
109478.09
109478.09
109478.09
109478.09
109478.09
109478.09
109478.09
109478.09
109478.09
109478.09
109478.09
109478.09
109478.09
109478.09
109478.09
109478.09
109478.09
109478.09
109478.09
109478.09
109478.09
109478.09
109478.09
109478.09
109478.09
109478.09
109478.09
109478.09
109478.09
109478.09
109478.09
109478.09
109478.09
109478.09
109478.09
109478.09
109478.09
109478.09
109478.09
109478.09
109478.09
109478.09
109478.09
109478.09
109478.09
109478.09
109478.09
109478.09