-1.25 	300.0274065666924 	1.073194488498665 	101354.3892626144
-1.247497497497497 	300.0295339354519 	1.082269464193534 	101359.9526624975
-1.244994994994995 	300.0334406583719 	1.096576879409607 	101364.5334762323
-1.242492492492492 	300.0367008924111 	1.106126368452049 	101368.4027989441
-1.23998998998999 	300.0393074783466 	1.113670137602924 	101371.4800761612
-1.237487487487487 	300.0411920257496 	1.119097883873059 	101373.705696633
-1.234984984984985 	300.0423196298596 	1.122353986107104 	101375.0383906998
-1.232482482482482 	300.042672268186 	1.123372186869238 	101375.4549798211
-1.22997997997998 	300.0422437404402 	1.122131474919974 	101374.9480477713
-1.227477477477477 	300.0410406162973 	1.118654410896578 	101373.5258486503
-1.224974974974975 	300.0390857563786 	1.113004890785147 	101371.2145973834
-1.222472472472472 	300.0364155226667 	1.10528652114729 	101368.0570327411
-1.21996996996997 	300.0330782235387 	1.095639754397216 	101364.1106041818
-1.217467467467467 	300.0291342553382 	1.084239797057858 	101359.446914186
-1.214964964964965 	300.0246556936306 	1.07129460253902 	101354.1511919645
-1.212462462462462 	300.0197243281929 	1.057040392191062 	101348.3202170537
-1.20995995995996 	300.0144298201863 	1.041737033568068 	101342.060210541
-1.207457457457457 	300.0088693025955 	1.025664900521192 	101335.4859483504
-1.204954954954955 	300.0031450919449 	1.009119485431017 	101328.7184794569
-1.202452452452452 	299.9973622601527 	0.9924043964668333 	101321.8819785993
-1.19994994994995 	299.9916266979561 	0.9758263222791712 	101315.101718213
-1.197447447447447 	299.9860441798287 	0.9596909727028886 	101308.5027545073
-1.194944944944945 	299.9807181300549 	0.9442965997269228 	101302.2071879911
-1.192442442442442 	299.9757464888888 	0.9299266340884318 	101296.3307645918
-1.18993993993994 	299.9712205255578 	0.9168451453524458 	101290.9812891249
-1.187437437437437 	299.967223643293 	0.9052933048135136 	101286.2573797078
-1.184934934934935 	299.9638296801951 	0.895484427618693 	101282.2462207284
-1.182432432432432 	299.9611012315409 	0.8875990881065066 	101279.0215950687
-1.17992992992993 	299.9590881019164 	0.8817812881283591 	101276.6423778054
-1.177427427427427 	299.9578264137364 	0.8781355710437182 	101275.1512293234
-1.174924924924925 	299.9573379586539 	0.8767261047173341 	101274.5741657052
-1.172422422422422 	299.9576315348937 	0.8775777707096121 	101274.9214118266
-1.16991991991992 	299.9587027699583 	0.8806746592294581 	101276.1869774976
-1.167417417417417 	299.9605302555542 	0.8859572001395728 	101278.3462885524
-1.164914914914915 	299.9630787052678 	0.8933251020786335 	101281.3580835082
-1.162412412412412 	299.9663014858907 	0.9026419527828701 	101285.1669026409
-1.15990990990991 	299.9701394848253 	0.9137364433144932 	101289.7028542246
-1.157407407407407 	299.9745219196824 	0.9264043984733985 	101294.8824582039
-1.154904904904904 	299.9793682921917 	0.9404135570384422 	101300.6107590843
-1.152402402402403 	299.9845904720357 	0.9555084948230645 	101306.7834512244
-1.1498998998999 	299.9900934207751 	0.971414406525415 	101313.2882692254
-1.147397397397397 	299.995776688839 	0.987841182734488 	101320.0065741418
-1.144894894894895 	300.0015364533498 	1.004488791283868 	101326.8156409767
-1.142392392392392 	300.0072675040624 	1.021053383812516 	101333.5911511829
-1.13988988988989 	300.012865553961 	1.037233403069256 	101340.2097138067
-1.137387387387387 	300.018228989051 	1.052734923794679 	101346.5511431928
-1.134884884884885 	300.0232602271504 	1.06727587603375 	101352.5000723723
-1.132382382382382 	300.0278671799105 	1.080590448164665 	101357.9476199286
-1.12987987987988 	300.0319654319806 	1.092434760467723 	101362.7938601263
-1.127377377377377 	300.0354802347777 	1.10259238907189 	101366.9502026086
-1.124874874874875 	300.038347369475 	1.110878041923532 	101370.3408049207
-1.122372372372372 	300.0405144044869 	1.117140182120872 	101372.9035854426
-1.11986986986987 	300.0419415116417 	1.121263797123889 	101374.5914193092
-1.117367367367367 	300.0426025200746 	1.123172433755707 	101375.3730725064
-1.114864864864865 	300.0424846821662 	1.122828035784882 	101375.2331251423
-1.112362362362362 	300.0415868571001 	1.120232003242285 	101374.171505854
-1.10985985985986 	300.0399248621144 	1.115428889405213 	101372.2065900981
-1.107357357357357 	300.0375297956062 	1.108505738470043 	101369.3744455446
-1.104854854854855 	300.0344446297131 	1.099587849764767 	101365.7262094558
-1.102352352352353 	300.0307251260813 	1.088836431207718 	101361.3278848942
-1.09984984984985 	300.026438572046 	1.076446331679173 	101356.2592592568
-1.097347347347347 	300.0216630290105 	1.062642981332643 	101350.6125534869
-1.094844844844845 	300.0164859870156 	1.04767931749233 	101344.4912850773
-1.092342342342342 	300.0110030003226 	1.031831565858538 	101338.0085899023
-1.08983983983984 	300.0053157107917 	1.015393357847009 	101331.2846853385
-1.087337337337337 	299.9995295274026 	0.9986693741893153 	101324.4442187242
-1.084834834834835 	299.9937517823564 	0.9819696172766647 	101317.613981813
-1.082332332332332 	299.9880896099506 	0.9656039029357452 	101310.9206643245
-1.07982982982983 	299.9826480650201 	0.9498759842705699 	101304.4884566175
-1.077327327327327 	299.9775280629095 	0.9350776810509245 	101298.4366561843
-1.074824824824825 	299.9728245914305 	0.9214832992454001 	101292.8773768296
-1.072322322322323 	299.9686246543504 	0.9093441380157041 	101287.9133271348
-1.06981981981982 	299.9650052967873 	0.8988832971731786 	101283.6356926499
-1.067317317317317 	299.9620324781243 	0.8902912475707482 	101280.1222684308
-1.064814814814815 	299.9597596113881 	0.8837224731065305 	101277.4361148617
-1.062312312312312 	299.958226937768 	0.8792933988199736 	101275.6247590127
-1.05980980980981 	299.9574611599618 	0.8770812120220639 	101274.7196896084
-1.057307307307307 	299.9574746806346 	0.8771233657411641 	101274.7360776578
-1.054804804804805 	299.958267636025 	0.8794165215947409 	101275.6730800979
-1.052302302302302 	299.9598238112191 	0.8839142961525401 	101277.5116355165
-1.0497997997998 	299.9621118427577 	0.8905287930541818 	101280.2154807287
-1.047297297297297 	299.9650889970233 	0.8991354655149402 	101283.7338924625
-1.044794794794795 	299.9687004714528 	0.9095755703749061 	101288.0021302434
-1.042292292292292 	299.9728801376079 	0.9216577672012547 	101292.942048914
-1.03978978978979 	299.9775516508407 	0.935161328408406 	101298.4634666341
-1.037287287287287 	299.9826299471708 	0.9498404029895552 	101304.4659096237
-1.034784784784785 	299.9880227930008 	0.9654286455127594 	101310.8405313437
-1.032282282282283 	299.993632671086 	0.9816438149117542 	101317.4719795426
-1.02977977977978 	299.9993580498203 	0.9981924494675356 	101324.2402630167
-1.027277277277277 	300.0050952272275 	1.014774924800267 	101331.022830482
-1.024774774774775 	300.0107402678724 	1.03109086228043 	101337.6968175406
-1.022272272272272 	300.016190806217 	1.046844454734461 	101344.1412055947
-1.01976976976977 	300.0213479426151 	1.061749629722317 	101350.2389126371
-1.017267267267267 	300.0261178503109 	1.075535392453427 	101355.8790004868
-1.014764764764765 	300.0304137687821 	1.087951125809596 	101360.9588749547
-1.012262262262262 	300.0341576264327 	1.098771029575603 	101365.3861139168
-1.00975975975976 	300.0372811296064 	1.107797595749438 	101369.0798621758
-1.007257257257257 	300.0397267890048 	1.114864747663449 	101371.9720791762
-1.004754754754755 	300.0414490192613 	1.11984095649896 	101374.0088560374
-1.002252252252252 	300.04241525956 	1.122632009615685 	101375.1516077827
-0.9997497497497498 	300.042606882235 	1.123182271977828 	101375.3777819269
-0.9972472472472473 	300.0420169342972 	1.121474863769147 	101374.6800296849
-0.9947447447447449 	300.0406536977253 	1.117534846985076 	101373.0684021131
-0.9922422422422421 	300.0385420134012 	1.111430854365753 	101370.5714494385
-0.9897397397397399 	300.0357193594654 	1.103271252354618 	101367.2335590335
-0.9872372372372376 	300.0322357363322 	1.093201544533437 	101363.1141588974
-0.9847347347347346 	300.0281540004883 	1.081403287016911 	101358.2875638904
-0.9822322322322323 	300.0235485105795 	1.068091639769254 	101352.8418709605
-0.9797297297297296 	300.0185041307298 	1.053511682400522 	101346.8774327309
-0.9772272272272275 	300.0131143899353 	1.037933644936341 	101340.5048935357
-0.9747247247247248 	300.0074795791862 	1.021647448432087 	101333.8429360837
-0.9722222222222224 	300.0017049743225 	1.00495711859439 	101327.0159549067
-0.9697197197197196 	299.9958985850711 	0.9881750781826362 	101320.1517560861
-0.9672172172172175 	299.9901693537835 	0.9716160622369638 	101313.3791061334
-0.9647147147147147 	299.9846247971983 	0.9555905598596288 	101306.8250034226
-0.9622122122122124 	299.9793684319675 	0.9403980865638749 	101300.6119006059
-0.9597097097097099 	299.9744980144092 	0.9263210312193491 	101294.855216113
-0.9572072072072073 	299.9701035179962 	0.9136194287501991 	101289.661186749
-0.9547047047047047 	299.9662654434309 	0.9025262779803944 	101285.1250104836
-0.9522022022022023 	299.9630535948594 	0.8932431742923037 	101281.3290641833
-0.9496996996996998 	299.960525566786 	0.8859365649773362 	101278.3413235519
-0.9471971971971973 	299.9587257447802 	0.880734952070265 	101276.2142393826
-0.9446946946946947 	299.9576848502177 	0.8777271490874583 	101274.984079869
-0.9421921921921923 	299.9574193350371 	0.8769618274299084 	101274.6705302105
-0.93968968968969 	299.9579327729887 	0.8784479787355249 	101275.2775012095
-0.9371871871871872 	299.9592147371386 	0.8821532128565777 	101276.7920430737
-0.9346846846846848 	299.9612384958451 	0.8880031499894471 	101279.1834023341
-0.9321821821821823 	299.9639649761347 	0.8958853414575642 	101282.4056133895
-0.9296796796796799 	299.9673437056618 	0.9056526037325863 	101286.3987011892
-0.9271771771771771 	299.9713123960549 	0.9171251418151585 	101291.0892203333
-0.9246746746746748 	299.9757987450348 	0.9300937633379138 	101296.3917001439
-0.9221721721721724 	299.9807215420783 	0.9443237604350356 	101302.2102638046
-0.9196696696696698 	299.9859920521596 	0.9595587913615827 	101308.440201152
-0.9171671671671672 	299.9915156543889 	0.9755247744660392 	101314.969506921
-0.9146646646646649 	299.997192805135 	0.9919342017924542 	101321.6806330189
-0.9121621621621623 	300.0029210577035 	1.008491210880903 	101328.4525643177
-0.9096596596596597 	300.0085971812866 	1.024897185855864 	101335.1631285076
-0.9071571571571573 	300.0141187013209 	1.04085635948738 	101341.6913354762
-0.9046546546546547 	300.0193862858089 	1.056081087121165 	101347.9195091321
-0.9021521521521524 	300.0243048706786 	1.070296721113762 	101353.7352580225
-0.8996496496496498 	300.0287853729156 	1.083246150742006 	101359.0333496422
-0.8971471471471473 	300.0327465376096 	1.094694126457069 	101363.7174877926
-0.894644644644645 	300.0361159436516 	1.104431355069843 	101367.7019545555
-0.892142142142142 	300.038831394614 	1.112278305690236 	101370.9132182359
-0.8896396396396397 	300.040842304273 	1.118088592724 	101373.2913105743
-0.8871371371371374 	300.042110287897 	1.121751673059126 	101374.7909494045
-0.8846346346346349 	300.0426104593981 	1.123194470930241 	101375.3823262849
-0.8821321321321324 	300.0423307119256 	1.122381508290232 	101375.0509364932
-0.8796296296296297 	300.041270819004 	1.119317564381082 	101373.7979692662
-0.8771271271271271 	300.039449025257 	1.114051773402482 	101371.6439914122
-0.8746246246246248 	300.036897481152 	1.106675780757353 	101368.6267386897
-0.8721221221221224 	300.0336608971563 	1.097319864332723 	101364.7993945847
-0.8696196196196196 	300.0297971643753 	1.08615144288827 	101360.2304860099
-0.8671171171171175 	300.0253762251501 	1.073373163294864 	101355.0029571101
-0.8646146146146148 	300.0204793766389 	1.059219802648094 	101349.2129203849
-0.8621121121121121 	300.0151977039451 	1.043954354942665 	101342.9680418748
-0.8596096096096097 	300.0096302390915 	1.027863061834175 	101336.3855166875
-0.857107107107107 	300.0038820071426 	1.011249472046568 	101329.5896245042
-0.8546046046046049 	299.9980618057348 	0.9944278857214418 	101322.7089992541
-0.8521021021021022 	299.9922797574601 	0.9777165493890946 	101315.8738275459
-0.8495995995995997 	299.9866451528763 	0.9614309394208356 	101309.2131450396
-0.8470970970970974 	299.9812638379925 	0.9458773064881842 	101302.8521697678
-0.8445945945945946 	299.9762363423899 	0.9313465171169608 	101296.9098007124
-0.8420920920920922 	299.9716561549099 	0.9181082524210259 	101291.4962603941
-0.8395895895895897 	299.9676073197039 	0.9064057176982676 	101286.7109272263
-0.8370870870870872 	299.9641632573978 	0.8964510479105737 	101282.6404458089
-0.8345845845845846 	299.9613852993816 	0.8884216873943039 	101279.3572797523
-0.8320820820820823 	299.9593217616863 	0.8824578153637941 	101276.9186496917
-0.8295795795795798 	299.9580079087924 	0.8786605418871039 	101275.3658245597
-0.8270770770770772 	299.9574644274326 	0.8770908058333559 	101274.7236171199
-0.8245745745745746 	299.9576984588102 	0.8777697739653151 	101275.000574449
-0.8220720720720721 	299.9587046660478 	0.8806780524048712 	101276.189357271
-0.8195695695695699 	299.9604608021676 	0.8857540731725447 	101278.2644195351
-0.817067067067067 	299.9629317683756 	0.8928972203046526 	101281.1844915791
-0.8145645645645651 	299.9660710683403 	0.9019724352619394 	101284.8945393787
-0.8120620620620621 	299.9698208128561 	0.9128124734222909 	101289.3262969574
-0.8095595595595597 	299.974113023087 	0.9252202425560891 	101294.3992909126
-0.8070570570570572 	299.9788702832452 	0.9389719265699759 	101300.0221084029
-0.8045545545545546 	299.9840070623514 	0.9538204596758693 	101306.0938046637
-0.8020520520520523 	299.9894313165485 	0.9694995180642083 	101312.5055427434
-0.7995495495495494 	299.9950456722837 	0.9857281281598501 	101319.1424464154
-0.7970470470470474 	300.0007498028463 	1.002215677582517 	101325.8856786385
-0.7945445445445446 	300.0064415344616 	1.018667046943993 	101332.6145475199
-0.7920420420420423 	300.0120188512154 	1.034787720924802 	101339.2085788892
-0.7895395395395397 	300.0173819237964 	1.050288791911064 	101345.5495741113
-0.7870370370370371 	300.0224344107364 	1.064891923616301 	101351.5236511989
-0.7845345345345348 	300.0270854408068 	1.07833422045708 	101357.023210289
-0.7820320320320323 	300.0312509009801 	1.090372701406043 	101361.9487877446
-0.7795295295295296 	300.0348548633257 	1.100788235478114 	101366.2106959608
-0.7770270270270272 	300.0378312255725 	1.109389103847952 	101369.7304242043
-0.7745245245245247 	300.0401240972723 	1.116014286334424 	101372.4420055624
-0.7720220220220222 	300.0416895238284 	1.120536558937559 	101374.2933046932
-0.7695195195195199 	300.0424960704499 	1.122865247890428 	101375.2471664037
-0.767017017017017 	300.0425260991436 	1.122947415061669 	101375.2821688505
-0.7645145145145147 	300.0417731442192 	1.120769064903631 	101374.3918448398
-0.7620120120120122 	300.0402476514399 	1.116359620942437 	101372.5883448102
-0.7595095095095097 	300.0379760153438 	1.109792530289547 	101369.9021396282
-0.7570070070070072 	300.0349971190996 	1.101181166050906 	101366.3795151918
-0.7545045045045048 	300.031363302806 	1.090677381656043 	101362.082539064
-0.7520020020020022 	300.0271401235466 	1.078470584788407 	101357.0887469923
-0.7494994994994997 	300.0224051987352 	1.064785098532893 	101351.4899882814
-0.7469969969969972 	300.0172467440681 	1.049876186037809 	101345.39078727
-0.7444944944944945 	300.0117622555564 	1.034025033384881 	101338.9062776547
-0.7419919919919924 	300.0060559116807 	1.017532861541286 	101332.159783179
-0.7394894894894897 	300.0002366339362 	1.000714369003066 	101325.2801341686
-0.7369869869869872 	299.9944157275463 	0.9838907532253123 	101318.3987681443
-0.7344844844844846 	299.9887039036687 	0.9673825986568959 	101311.6468290219
-0.7319819819819822 	299.9832096540416 	0.9515028685007041 	101305.1523059123
-0.7294794794794797 	299.9780363273921 	0.9365502760126718 	101299.0373252406
-0.7269769769769773 	299.9732800791961 	0.9228032748221208 	101293.4156869373
-0.7244744744744747 	299.969028600773 	0.9105147982598727 	101288.390732768
-0.721971971971972 	299.9653588364372 	0.8999077621245141 	101284.0535146431
-0.7194694694694695 	299.9623362436406 	0.8911713009128976 	101280.4812730192
-0.7169669669669674 	299.9600135983405 	0.8844577132993969 	101277.7362046864
-0.7144644644644647 	299.9584298222329 	0.8798801742128779 	101275.8645161544
-0.711961961961962 	299.9576101929818 	0.8775113366401306 	101274.8958299885
-0.7094594594594597 	299.9575652412382 	0.8773836254377884 	101274.8431095973
-0.7069569569569573 	299.9582938490504 	0.8794901080687799 	101275.7040343678
-0.7044544544544545 	299.9597791806736 	0.8837828849547782 	101277.4589482471
-0.7019519519519523 	299.9619901611865 	0.8901742890278679 	101280.0717058561
-0.6994494494494495 	299.9648845005299 	0.8985415996655454 	101283.4922951932
-0.6969469469469471 	299.9684087246291 	0.9087295330689755 	101287.657376681
-0.6944444444444446 	299.9724985213687 	0.9205522527355938 	101292.4910427272
-0.6919419419419421 	299.9770800728886 	0.9337964081649655 	101297.9061606631
-0.6894394394394396 	299.9820714216268 	0.9482247237823189 	101303.8058073565
-0.6869369369369374 	299.9873833937643 	0.9635798093262707 	101310.0848051223
-0.6844344344344344 	299.9929215462136 	0.979588222003524 	101316.631403552
-0.6819319319319321 	299.9985872591649 	0.9959649853264401 	101323.3290893123
-0.6794294294294296 	300.0042795500034 	1.012418542350674 	101330.0586056793
-0.6769269269269272 	300.0098972119287 	1.028655972234482 	101336.7001355606
-0.6744244244244245 	300.015340133779 	1.044388248859152 	101343.1354516573
-0.6719219219219222 	300.0205114511069 	1.059335099967763 	101349.2498870442
-0.6694194194194195 	300.0253187747994 	1.07322936691355 	101354.9341539392
-0.6669169169169172 	300.0296755213876 	1.085821134145266 	101360.0859799807
-0.6644144144144146 	300.0335027805433 	1.096881733702391 	101364.6117309664
-0.661911911911912 	300.0367299061828 	1.106207615341859 	101368.42805781
-0.6594094094094097 	300.0392966405292 	1.113624134965379 	101371.4634287009
-0.656906906906907 	300.0411536068887 	1.118988941159399 	101373.6595001444
-0.6544044044044046 	300.0422636101237 	1.12219478613285 	101374.97233411
-0.6519019019019021 	300.0426029652962 	1.123171477978754 	101375.3733343944
-0.6493993993993996 	300.0421598590035 	1.121886368309925 	101374.8489529355
-0.6468968968968971 	300.0409359131992 	1.118348314073132 	101373.4021146244
-0.6443943943943946 	300.0389514348366 	1.112611385522055 	101371.0556237241
-0.6418918918918921 	300.0362396449052 	1.104771923253757 	101367.8488985392
-0.6393893893893897 	300.0328474015017 	1.09496599492575 	101363.8374856752
-0.6368868868868871 	300.0288351996846 	1.083368826733442 	101359.0930990465
-0.6343843843843846 	300.0242764618691 	1.070192776685826 	101353.7026767663
-0.6318818818818821 	300.0192563961032 	1.055683825132857 	101347.7669405292
-0.6293793793793795 	300.0138700984419 	1.040116944807966 	101341.3984940399
-0.6268768768768773 	300.0082209336296 	1.023790315253628 	101334.7194440275
-0.6243743743743745 	300.0024180006482 	1.007018466389491 	101327.8585847306
-0.6218718718718721 	299.9965728000779 	0.99012472093353 	101320.948271324
-0.6193693693693696 	299.9907974335476 	0.9734336285877211 	101314.121290557
-0.6168668668668671 	299.985202574788 	0.9572638201898779 	101307.5079477772
-0.6143643643643645 	299.9798942587909 	0.9419213907171728 	101301.2333821233
-0.6118618618618621 	299.9749716938533 	0.9276938044040721 	101295.4150874616
-0.6093593593593596 	299.9705260043049 	0.9148442789781849 	101290.1606402664
-0.6068568568568571 	299.9666382221466 	0.9036067496368611 	101285.5656231707
-0.6043543543543546 	299.9633774721434 	0.8941816217268941 	101281.7118776095
-0.6018518518518521 	299.9608004492511 	0.886732520573101 	101278.6662004099
-0.5993493493493496 	299.9589501394324 	0.881384150078556 	101276.4794814524
-0.5968468468468471 	299.9578558193094 	0.8782211064677961 	101275.1862202806
-0.5943443443443446 	299.957532627015 	0.8772878127468061 	101274.8043802136
-0.591841841841842 	299.9579824819137 	0.8785899310825037 	101275.336327515
-0.5893393393393397 	299.9591948788319 	0.8820931792463829 	101276.7685624931
-0.5868368368368371 	299.9611423602873 	0.8877226491637633 	101279.0699111388
-0.5843343343343346 	299.9637867928517 	0.8953673020273697 	101282.1950392727
-0.5818318318318321 	299.9670786852635 	0.9048836335261983 	101286.0854519051
-0.5793293293293297 	299.9709577621475 	0.9160975019533805 	101290.6700663923
-0.5768268268268271 	299.9753541771313 	0.9288066561057697 	101295.8662770308
-0.5743243243243245 	299.9801893111543 	0.9427838262047583 	101301.5812645861
-0.5718218218218221 	299.9853772723562 	0.9577803168308168 	101307.7134223019
-0.5693193193193196 	299.9908258085013 	0.9735301358647376 	101314.1540204051
-0.5668168168168171 	299.9964386248573 	0.9897544922880909 	101320.7890882778
-0.5643143143143147 	300.0021164442074 	1.006166599275084 	101327.50137179
-0.5618118118118121 	300.0077590787747 	1.022476577271842 	101334.1723015567
-0.5593093093093094 	300.0132667996447 	1.038396251133597 	101340.684012647
-0.5568068068068072 	300.0185419907997 	1.053643818264875 	101346.9212515996
-0.5543043043043046 	300.023491138203 	1.067948287744542 	101352.7731304022
-0.551801801801802 	300.0280255408693 	1.081053679150889 	101358.1349047526
-0.5492992992992995 	300.0320634000424 	1.092723129915916 	101362.9096300931
-0.5467967967967969 	300.0355306416703 	1.102742854416117 	101367.0097601538
-0.5442942942942947 	300.0383623710751 	1.110925776227193 	101370.3586732275
-0.5417917917917919 	300.0405047062086 	1.117114963965701 	101372.8921042036
-0.5392892892892895 	300.0419144473991 	1.121186818239267 	101374.5593632108
-0.536786786786787 	300.0425615544131 	1.123053752072273 	101375.324590941
-0.5342842842842846 	300.0424291882167 	1.122665324655048 	101375.1673884999
-0.531781781781782 	300.0415111109242 	1.120010521835413 	101374.0822264654
-0.5292792792792794 	300.0398206150228 	1.115123146338484 	101372.0834139608
-0.526776776776777 	300.0373849811174 	1.108081541810172 	101369.2032329794
-0.5242742742742745 	300.0342451171945 	1.099004979091598 	101365.4903110128
-0.521771771771772 	300.0304563473602 	1.088053423278485 	101361.0100694758
-0.5192692692692695 	300.0260875457349 	1.075426448248835 	101355.844217216
-0.516766766766767 	300.0212206793877 	1.0613601180046 	101350.0894176553
-0.5142642642642645 	300.0159481798106 	1.04612229995409 	101343.8553956197
-0.511761761761762 	300.0103718075576 	1.030006724455676 	101337.2624616516
-0.5092592592592596 	300.0046001108735 	1.013326071872708 	101330.4386625522
-0.506756756756757 	299.9987449115507 	0.9964044417540738 	101323.5166777887
-0.5042542542542544 	299.9929200471339 	0.9795697434240479 	101316.6306911186
-0.5017517517517521 	299.9872374307697 	0.9631463067910667 	101309.9133598106
-0.4992492492492494 	299.9818057776059 	0.9474477778586001 	101303.4929629525
-0.496746746746747 	299.9767277472214 	0.9327704513181294 	101297.4906298836
-0.4942442442442445 	299.9720974192145 	0.9193872174984005 	101292.0178764098
-0.4917417417417421 	299.9679995184094 	0.9075423122318823 	101287.1744865311
-0.4892392392392395 	299.9645069727071 	0.897447100873509 	101283.0467889969
-0.486736736736737 	299.9616804887464 	0.8892768191436506 	101279.7063100067
-0.4842342342342345 	299.9595673582887 	0.8831681962190939 	101277.2088587509
-0.481731731731732 	299.9582008616481 	0.8792180267528957 	101275.5939163547
-0.4792292292292296 	299.9576004544543 	0.8774827348160762 	101274.8844130753
-0.4767267267267268 	299.9577716398249 	0.8779796864733813 	101275.0871832048
-0.4742242242242246 	299.9587087970293 	0.8806877446188783 	101276.194326685
-0.471721721721722 	299.9603896171462 	0.8855454889181347 	101278.1802535689
-0.4692192192192195 	299.9627793412498 	0.8924539695045677 	101281.004431616
-0.4667167167167169 	299.9658329181886 	0.9012814830264215 	101284.6132020353
-0.4642142142142145 	299.9694940822341 	0.911865271738713 	101288.9401268251
-0.461711711711712 	299.9736964740871 	0.9240137128970344 	101293.9069711019
-0.4592092092092094 	299.9783650701374 	0.9375094773940871 	101299.4249485206
-0.456706706706707 	299.9834168589456 	0.9521130830039093 	101305.3962211686
-0.4542042042042045 	299.9887629067101 	0.9675667917813474 	101311.715482514
-0.451701701701702 	299.9943090918659 	0.9835988332304688 	101318.2716454268
-0.4491991991991995 	299.9999580361588 	0.9999277654228848 	101324.9496359343
-0.4466966966966969 	300.0056106947857 	1.016267073108222 	101331.6323131115
-0.4441941941941945 	300.0111677817296 	1.032329971147588 	101338.202363219
-0.441691691691692 	300.0165316742326 	1.047834071815163 	101344.544280803
-0.4391891891891895 	300.0216077860524 	1.062505741957884 	101350.5461553372
-0.436686686686687 	300.0263057550267 	1.076084239011449 	101356.1012953123
-0.4341841841841846 	300.0305414333191 	1.088325612347472 	101361.109851158
-0.431681681681682 	300.0342373452847 	1.099006578597367 	101365.4804330086
-0.4291791791791794 	300.0373249037535 	1.107928419177357 	101369.1316460541
-0.426676676676677 	300.0397449555767 	1.11492061122546 	101371.9936167451
-0.4241741741741744 	300.041449454613 	1.119844137235713 	101374.0094174666
-0.421671671671672 	300.042402213395 	1.122594524504109 	101375.1361991149
-0.4191691691691694 	300.0425802305664 	1.123103790436367 	101375.3463202157
-0.4166666666666669 	300.0419720378498 	1.121341435124836 	101374.6268665226
-0.4141641641641645 	300.0405809351222 	1.117320096190996 	101372.9824447728
-0.411661661661662 	300.0384291621432 	1.111098987942076 	101370.4380504278
-0.4091591591591594 	300.035551770522 	1.102780547561581 	101367.0353908211
-0.406656656656657 	300.0319983454553 	1.092509198156201 	101362.833466831
-0.4041541541541545 	300.027833299376 	1.080470819148736 	101357.9083923746
-0.401651651651652 	300.0231343247721 	1.066890009742489 	101352.3521506899
-0.3991491491491494 	300.0179910575227 	1.05202577992994 	101346.2708147767
-0.396646646646647 	300.0125031769689 	1.036165935709253 	101339.7822690578
-0.3941441441441444 	300.0067779770551 	1.019620393422434 	101333.0134648906
-0.3916416416416419 	300.000927829613 	1.002713577442107 	101326.0972407164
-0.3891391391391395 	299.9950672514962 	0.9857763183583443 	101319.1690198667
-0.3866366366366368 	299.9893102403289 	0.9691379451706795 	101312.3635426157
-0.3841341341341344 	299.9837676174775 	0.9531188509392097 	101305.8118328428
-0.381631631631632 	299.9785448340026 	0.9380235338836237 	101299.6383929677
-0.3791291291291294 	299.9737394556839 	0.9241343441459509 	101293.9586398178
-0.3766266266266269 	299.9694397010055 	0.9117060084151625 	101288.8766321072
-0.3741241241241244 	299.9657224120539 	0.900960997679531 	101284.4832399289
-0.371621621621622 	299.9626522127057 	0.8920859926579841 	101280.8546906528
-0.3691191191191194 	299.9602803988613 	0.8852294587532509 	101278.0515424306
-0.366616616616617 	299.9586444492077 	0.8805002006748767 	101276.1181756962
-0.3641141141141143 	299.9577682291787 	0.8779668958409322 	101275.0825764885
-0.3616116116116119 	299.9576611515446 	0.8776589535241333 	101274.9564586691
-0.3591091091091095 	299.9583214693689 	0.8795680635567549 	101275.7367946476
-0.356606606606607 	299.9597329087756 	0.8836464025701816 	101277.4042725685
-0.3541041041041044 	299.9618641446791 	0.889807193981674 	101279.9228278404
-0.3516016016016019 	299.9646739425471 	0.8979299292151189 	101283.2434488475
-0.3490990990990994 	299.9681099596544 	0.9078630885342645 	101287.3043152913
-0.346596596596597 	299.9721098299599 	0.9194260043354853 	101292.0316391773
-0.3440940940940944 	299.976601806971 	0.93241168879971 	101297.3408989214
-0.3415915915915919 	299.9815065457124 	0.9465901936675175 	101303.1381628042
-0.3390890890890895 	299.9867377186507 	0.9617122633982497 	101309.3215744977
-0.3365865865865869 	299.9922038696893 	0.9775133028187358 	101315.7830177489
-0.3340840840840844 	299.9978096212929 	0.9937176872553894 	101322.4098207134
-0.3315815815815819 	300.0034573277875 	1.010043171237595 	101329.0865627335
-0.3290790790790794 	300.0090486900776 	1.026205334831583 	101335.6969511703
-0.3265765765765769 	300.0144860388777 	1.041922082156505 	101342.125614075
-0.3240740740740744 	300.0196741628567 	1.056917936081024 	101348.259865224
-0.3215715715715718 	300.0245214062739 	1.070928101648038 	101353.9913846755
-0.3190690690690695 	300.0289413519652 	1.083702534719694 	101359.217850798
-0.3165665665665668 	300.0328540095257 	1.095009854858431 	101363.8445345235
-0.3140640640640644 	300.0361868831167 	1.104641042722475 	101367.785887058
-0.311561561561562 	300.0388767848483 	1.112412996544146 	101370.96691745
-0.3090590590590593 	300.040870314422 	1.118171889501133 	101373.3245743278
-0.3065565565565568 	300.0421256058715 	1.121796358820139 	101374.8091099096
-0.3040540540540545 	300.0426130284437 	1.123200580327381 	101375.3853936127
-0.3015515515515518 	300.0423160581333 	1.122335699444167 	101375.0335632894
-0.2990490490490494 	300.0412293566415 	1.119193729536477 	101373.7491435177
-0.2965465465465469 	300.0393686251547 	1.113813870538849 	101371.5490008115
-0.2940440440440444 	300.0367631209249 	1.106281170326625 	101368.4679192615
-0.2915415415415418 	300.0334567947807 	1.096723450368333 	101364.5580506502
-0.2890390390390395 	300.0295084510947 	1.085311560710575 	101359.8893032305
-0.2865365365365368 	300.024991749538 	1.07225743255563 	101354.548463127
-0.2840340340340343 	300.0199927604657 	1.057810186833121 	101348.637584856
-0.2815315315315318 	300.0146087074211 	1.042250781337224 	101342.2717467259
-0.2790290290290295 	300.0089457547265 	1.025885303205279 	101335.5763357413
-0.2765265265265269 	300.0031156652006 	1.009037273764235 	101328.6838781819
-0.2740240240240244 	299.9972341295368 	0.9920394286418128 	101321.7305839295