/*--------------------------------*- C++ -*----------------------------------*\
  =========                 |
  \\      /  F ield         | OpenFOAM: The Open Source CFD Toolbox
   \\    /   O peration     | Website:  https://openfoam.org
    \\  /    A nd           | Version:  7
     \\/     M anipulation  |
\*---------------------------------------------------------------------------*/
FoamFile
{
    version     2.0;
    format      ascii;
    class       volScalarField;
    location    "0.00033";
    object      T;
}
// * * * * * * * * * * * * * * * * * * * * * * * * * * * * * * * * * * * * * //

dimensions      [0 0 0 1 0 0 0];

internalField   nonuniform List<scalar> 
5000
(
293
293
293
293
293
293
293
293
293
293
293
293
293
293
293
293
293
293
293
293
293
293
293
293
293
293
293
293
293
293
293
293
293
293
293
293
293
293
293
293
293
293
293
293
293
293
293
293
293
293
293
293
293
293
293
293
293
293
293
293
293
293
293
293
293
293
293
293
293
293
293
293
293
293
293
293
293
293
293
293
293
293
293
293
293
293
293
293
293
293
293
293
293
293
293
293
293
293
293
293
293
293
293
293
293
293
293
293
293
293
293
293
293
293
293
293
293
293
293
293
293
293
293
293
293
293
293
293
293
293
293
293
293
293
293
293
293
293
293
293
293
293
293
293
293
293
293
293
293
293
293
293
293
293
293
293
293
293
293
293
293
293
293
293
293
293
293
293
293
293
293
293
293
293
293
293
293
293
293
293
293
293
293
293
293
293
293
293
293
293
293
293
293
293
293
293
293
293
293
293
293
293
293
293
293
293
293
293
293
293
293
293
293
293
293
293
293
293
293
293
293
293
293
293
293
293
293
293
293
293
293
293
293
293
293
293
293
293
293
293
293
293
293
293
293
293
293
293
293
293
293
293
293
293
293
293
293
293
293
293
293
293
293
293
293
293
293
293
293
293
293
293
293
293
293
293
293
293
293
293
293
293
293
293
293
293
293
293
293
293
293
293
293
293
293
293
293
293
293
293
293
293
293
293
293
293
293
293
293
293
293
293
293
293
293
293
293
293
293
293
293
293
293
293
293
293
293
293
293
293
293
293
293
293
293
293
293
293
293
293
293
293
293
293
293
293
293
293
293
293
293
293
293
293
293
293
293
293
293
293
293
293
293
293
293
293
293
293
293
293
293
293
293
293
293
293
293
293
293
293
293
293
293
293
293
293
293
293
293
293
293
293
293
293
293
293
293
293
293
293
293
293
293
293
293
293
293
293
293
293
293
293
293
293
293
293
293
293
293
293
293
293
293
293
293
293
293
293
293
293
293
293
293
293
293
293
293
293
293
293
293
293
293
293
293
293
293
293
293
293
293
293
293
293
293
293
293
293
293
293
293
293
293
293
293
293
293
293
293
293
293
293
293
293
293
293
293
293
293
293
293
293
293
293
293
293
293
293
293
293
293
293
293
293
293
293
293
293
293
293
293
293
293
293
293
293
293
293
293
293
293
293
293
293
293
293
293
293
293
293
293
293
293
293
293
293
293
293
293
293
293
293
293
293
293
293
293
293
293
293
293
293
293
293
293
293
293
293
293
293
293
293
293
293
293
293
293
293
293
293
293
293
293
293
293
293
293
293
293
293
293
293
293
293
293
293
293
293
293
293
293
293
293
293
293
293
293
293
293
293
293
293
293
293
293
293
293
293
293
293
293
293
293
293
293
293
293
293
293
293
293
293
293
293
293
293
293
293
293
293
293
293
293
293
293
293
293
293
293
293
293
293
293
293
293
293
293
293
293
293
293
293
293
293
293
293
293
293
293
293
293
293
293
293
293
293
293
293
293
293
293
293
293
293
293
293
293
293
293
293
293
293
293
293
293
293
293
293
293
293
293
293
293
293
293
293
293
293
293
293
293
293
293
293
293
293
293
293
293
293
293
293
293
293
293
293
293
293
293
293
293
293
293
293
293
293
293
293
293
293
293
293
293
293
293
293
293
293
293
293
293
293
293
293
293
293
293
293
293
293
293
293
293
293
293
293
293
293
293
293
293
293
293
293
293
293
293
293
293
293
293
293
293
293
293
293
293
293
293
293
293
293
293
293
293
293
293
293
293
293
293
293
293
293
293
293
293
293
293
293
293
293
293
293
293
293
293
293
293
293
293
293
293
293
293
293
293
293
293
293
293
293
293
293
293
293
293
293
293
293
293
293
293
293
293
293
293
293
293
293
293
293
293
293
293
293
293
293
293
293
293
293
293
293
293
293
293
293
293
293
293
293
293
293
293
293
293
293
293
293
293
293
293
293
293
293
293
293
293
293
293
293
293
293
293
293
293
293
293
293
293
293
293
293
293
293
293
293
293
293
293
293
293
293
293
293
293
293
293
293
293
293
293
293
293
293
293
293
293
293
293
293
293
293
293
293
293
293
293
293
293
293
293
293
293
293
293
293
293
293
293
293
293
293
293
293
293
293
293
293
293
293
293
293
293
293
293
293
293
293
293
293
293
293
293
293
293
293
293
293
293
293
293
293
293
293
293
293
293
293
293
293
293
293
293
293
293
293
293
293
293
293
293
293
293
293
293
293
293
293
293
293
293
293
293
293
293
293
293
293
293
293
293
293
293
293
293
293
293
293
293
293
293
293
293
293
293
293
293
293
293
293
293
293
293
293
293
293
293
293
293
293
293
293
293
293
293
293
293
293
293
293
293
293
293
293
293
293
293
293
293
293
293
293
293
293
293
293
293
293
293
293
293
293
293
293
293
293
293
293
293
293
293
293
293
293
293
293
293
293
293
293
293
293
293
293
293
293
293
293
293
293
293
293
293
293
293
293
293
293
293
293
293
293
293
293
293
293
293
293
293
293
293
293
293
293
293
293
293
293
293
293
293
293
293
293
293
293
293
293
293
293
293
293
293
293
293
293
293
293
293
293
293
293
293
293
293
293
293
293
293
293
293
293
293
293
293
293
293
293
293
293
293
293
293
293
293
293
293
293
293
293
293
293
293
293
293
293
293
293
293
293
293
293
293
293
293
293
293
293
293
293
293
293
293
293
293
293
293
293
293
293
293
293
293
293
293
293
293
293
293
293
293
293
293
293
293
293
293
293
293
293
293
293
293
293
293
293
293
293
293
293
293
293
293
293
293
293
293
293
293
293
293
293
293
293
293
293
293
293
293
293
293
293
293
293
293
293
293
293
293
293
293
293
293
293
293
293
293
293
293
293
293
293
293
293
293
293
293
293
293
293
293
293
293
293
293
293
293
293
293
293
293
293
293
293
293
293
293
293
293
293
293
293
293
293
293
293
293
293
293
293
293
293
293
293
293
293
293
293
293
293
293
293
293
293
293
293
293
293
293
293
293
293
293
293
293
293
293
293
293
293
293
293
293
293
293
293
293
293
293
293
293
293
293
293
293
293
293
293
293
293
293
293
293
293
293
293
293
293
293
293
293
293
293
293
293
293
293
293
293
293
293
293
293
293
293
293
293
293
293
293
293
293
293
293
293
293
293
293
293
293
293
293
293
293
293
293
293
293
293
293
293
293
293
293
293
293
293
293
293
293
293
293
293
293
293
293
293
293
293
293
293
293
293
293
293
293
293
293
293
293
293
293
293
293
293
293
293
293
293
293
293
293
293
293
293
293
293
293
293
293
293
293
293
293
293
293
293
293
293
293
293
293
293
293
293
293
293
293
293
293
293
293
293
293
293
293
293
293
293
293
293
293
293
293
293
293
293
293
293
293
293
293
293
293
293
293
293
293
293
293
293
293
293
293
293
293
293
293
293
293
293
293
293
293
293
293
293
293
293
293
293
293
293
293
293
293
293
293
293
293
293
293
293
293
293
293
293
293
293
293
293
293
293
293
293
293
293
293
293
293
293
293
293
293
293
293
293
293
293
293
293
293
293
293
293
293
293
293
293
293
293
293
293
293
293
293
293
293
293
293
293
293
293
293
293
293
293
293
293
293
293
293
293
293
293
293
293
293
293
293
293
293
293
293
293
293
293
293
293
293
293
293
293
293
293
293
293
293
293
293
293
293
293
293
293
293
293
293
293
293
293
293
293
293
293
293
293
293
293
293
293
293
293
293
293
293
293
293
293
293
293
293
293
293
293
293
293
293
293
293
293
293
293
293
293
293
293
293
293
293
293
293
293
293
293
293
293
293
293
293
293
293
293
293
293
293
293
293
293
293
293
293
293
293
293
293
293
293
293
293
293
293
293
293
293
293
293
293
293
293
293
293
293
293
293
293
293
293
293
293
293
293
293
293
293
293
293
293
293
293
292.99999
292.99999
292.99999
292.99999
292.99999
292.99999
292.99999
292.99999
292.99999
292.99999
292.99998
292.99998
292.99998
292.99998
292.99998
292.99997
292.99997
292.99997
292.99996
292.99996
292.99995
292.99995
292.99994
292.99994
292.99993
292.99992
292.99992
292.99991
292.9999
292.99989
292.99987
292.99986
292.99985
292.99983
292.99981
292.9998
292.99977
292.99975
292.99973
292.9997
292.99967
292.99964
292.9996
292.99956
292.99952
292.99947
292.99942
292.99937
292.99931
292.99924
292.99917
292.99909
292.99901
292.99892
292.99882
292.99871
292.99859
292.99846
292.99832
292.99817
292.99801
292.99783
292.99764
292.99743
292.99721
292.99697
292.9967
292.99642
292.99612
292.99579
292.99543
292.99505
292.99464
292.99419
292.99372
292.9932
292.99265
292.99206
292.99142
292.99074
292.99001
292.98923
292.98839
292.98749
292.98652
292.98549
292.98439
292.98322
292.98196
292.98062
292.97919
292.97766
292.97604
292.97431
292.97247
292.97051
292.96843
292.96622
292.96387
292.96138
292.95873
292.95593
292.95296
292.94981
292.94649
292.94297
292.93924
292.93531
292.93116
292.92678
292.92216
292.91729
292.91216
292.90675
292.90107
292.89509
292.88881
292.88221
292.87527
292.868
292.86038
292.85238
292.84401
292.83525
292.82608
292.81649
292.80647
292.79601
292.78508
292.77369
292.7618
292.74942
292.73652
292.7231
292.70913
292.69461
292.67952
292.66384
292.64758
292.6307
292.6132
292.59507
292.57629
292.55685
292.53674
292.51594
292.49445
292.47225
292.44933
292.42569
292.40131
292.37617
292.35028
292.32363
292.2962
292.26798
292.23898
292.20917
292.17857
292.14715
292.11492
292.08187
292.04799
292.01329
291.97776
291.94139
291.9042
291.86616
291.8273
291.78759
291.74706
291.70569
291.66349
291.62047
291.57663
291.53196
291.48649
291.44021
291.39313
291.34525
291.29659
291.24716
291.19695
291.14599
291.09429
291.04184
290.98868
290.9348
290.88023
290.82497
290.76905
290.71247
290.65525
290.59741
290.53897
290.47993
290.42033
290.36018
290.29949
290.23829
290.1766
290.11444
290.05183
289.98879
289.92534
289.86151
289.79732
289.73279
289.66794
289.60281
289.53741
289.47177
289.40591
289.33987
289.27367
289.20732
289.14087
289.07434
289.00775
288.94113
288.87451
288.80791
288.74138
288.67492
288.60858
288.54238
288.47634
288.41051
288.3449
288.27954
288.21447
288.1497
288.08528
288.02123
287.95758
287.89435
287.83157
287.76927
287.70748
287.64623
287.58554
287.52544
287.46595
287.4071
287.34892
287.29143
287.23465
287.17862
287.12334
287.06884
287.01515
286.96229
286.91027
286.85911
286.80883
286.75946
286.711
286.66347
286.61689
286.57126
286.52661
286.48294
286.44025
286.39857
286.3579
286.31824
286.2796
286.24198
286.20538
286.16982
286.13527
286.10176
286.06926
286.03779
286.00732
285.97786
285.94941
285.92194
285.89545
285.86994
285.84538
285.82176
285.79908
285.77731
285.75644
285.73645
285.71733
285.69905
285.6816
285.66495
285.64909
285.634
285.61965
285.60602
285.59309
285.58084
285.56925
285.55828
285.54793
285.53817
285.52897
285.52031
285.51217
285.50453
285.49737
285.49065
285.48438
285.47851
285.47304
285.46794
285.46319
285.45877
285.45467
285.45087
285.44735
285.44409
285.44109
285.43831
285.43575
285.4334
285.43124
285.42925
285.42743
285.42577
285.42425
285.42286
285.42159
285.42044
285.41939
285.41844
285.41758
285.4168
285.4161
285.41546
285.41489
285.41438
285.41392
285.4135
285.41313
285.4128
285.4125
285.41224
285.41201
285.4118
285.41162
285.41146
285.41132
285.41119
285.41108
285.41099
285.41091
285.41083
285.41077
285.41072
285.41068
285.41064
285.41061
285.41058
285.41056
285.41054
285.41053
285.41051
285.41051
285.4105
285.4105
285.4105
285.4105
285.4105
285.4105
285.4105
285.4105
285.41049
285.41049
285.41049
285.41049
285.41049
285.41049
285.41049
285.41049
285.41049
285.41048
285.41048
285.41048
285.41048
285.41048
285.41047
285.41047
285.41048
285.41047
285.41047
285.41047
285.41047
285.41047
285.41046
285.41046
285.41046
285.41047
285.41046
285.41046
285.41046
285.41046
285.41047
285.41047
285.41047
285.41048
285.41048
285.41048
285.41048
285.41048
285.41049
285.4105
285.4105
285.4105
285.41051
285.41051
285.41051
285.41051
285.41052
285.41053
285.41053
285.41054
285.41054
285.41055
285.41055
285.41056
285.41056
285.41057
285.41058
285.4106
285.41061
285.41061
285.41061
285.41061
285.41061
285.41062
285.41064
285.41064
285.41064
285.41065
285.41066
285.41067
285.41068
285.41069
285.4107
285.4107
285.41071
285.41072
285.41073
285.41074
285.41075
285.41077
285.41078
285.41078
285.41079
285.4108
285.41082
285.41083
285.41085
285.41087
285.41088
285.41089
285.41091
285.41092
285.41094
285.41096
285.41097
285.41099
285.411
285.41101
285.41102
285.41103
285.41103
285.41104
285.41105
285.41106
285.41107
285.41109
285.4111
285.41111
285.41112
285.41113
285.41114
285.41116
285.41118
285.4112
285.41121
285.41123
285.41125
285.41126
285.41128
285.4113
285.41131
285.41133
285.41134
285.41136
285.41139
285.41141
285.41143
285.41145
285.41148
285.41149
285.41151
285.41153
285.41155
285.41156
285.41158
285.4116
285.41163
285.41165
285.41168
285.4117
285.41172
285.41173
285.41174
285.41175
285.41177
285.41179
285.41183
285.41186
285.41188
285.4119
285.41192
285.41194
285.41195
285.41198
285.41201
285.41203
285.41204
285.41206
285.41208
285.41211
285.41214
285.41217
285.41219
285.41221
285.41223
285.41226
285.41228
285.41231
285.41234
285.41238
285.41241
285.41243
285.41245
285.41248
285.4125
285.41253
285.41255
285.41257
285.41258
285.41261
285.41264
285.41268
285.41271
285.41275
285.41277
285.4128
285.41283
285.41286
285.4129
285.41294
285.41297
285.41299
285.41301
285.41303
285.41305
285.41307
285.41311
285.41314
285.41316
285.4132
285.41324
285.41328
285.41333
285.41336
285.41338
285.41341
285.41344
285.41347
285.4135
285.41353
285.41357
285.41361
285.41365
285.4137
285.41373
285.41376
285.41378
285.4138
285.41382
285.41385
285.41388
285.41392
285.41396
285.414
285.41403
285.41407
285.41411
285.41415
285.41419
285.41423
285.41427
285.41431
285.41435
285.41439
285.41442
285.41446
285.4145
285.41454
285.4146
285.41466
285.41471
285.41475
285.41477
285.4148
285.41484
285.41489
285.41495
285.41501
285.41506
285.4151
285.41514
285.41518
285.41523
285.41528
285.41533
285.41536
285.41541
285.41546
285.41551
285.41557
285.41561
285.41567
285.41571
285.41577
285.41583
285.41589
285.41595
285.416
285.41605
285.4161
285.41614
285.4162
285.41626
285.41633
285.4164
285.41646
285.4165
285.41655
285.4166
285.41665
285.41672
285.4168
285.41688
285.41695
285.41701
285.41707
285.41713
285.4172
285.41727
285.41734
285.41741
285.41749
285.41756
285.41763
285.41769
285.41776
285.41783
285.41792
285.41799
285.41807
285.41815
285.41824
285.41833
285.41842
285.41851
285.41859
285.41867
285.41875
285.41883
285.41892
285.41901
285.41911
285.41922
285.41932
285.41941
285.4195
285.41959
285.41968
285.41977
285.41987
285.41997
285.4201
285.42023
285.42035
285.42047
285.42059
285.4207
285.42081
285.42092
285.42104
285.42115
285.42126
285.42137
285.42148
285.4216
285.42171
285.42184
285.42196
285.42208
285.4222
285.42232
285.42243
285.42255
285.42267
285.42279
285.4229
285.423
285.42308
285.42314
285.42319
285.42324
285.4233
285.42335
285.4234
285.42345
285.42348
285.4235
285.4235
285.4235
285.4235
285.42348
285.42344
285.42339
285.42333
285.42328
285.42322
285.42317
285.42312
285.42307
285.42304
285.42302
285.42301
285.42301
285.42301
285.42302
285.42306
285.42316
285.42333
285.42351
285.42371
285.42394
285.42419
285.42448
285.42479
285.42511
285.42541
285.4257
285.42597
285.42623
285.42649
285.42675
285.42702
285.4273
285.4276
285.42791
285.42821
285.42848
285.4287
285.42885
285.42893
285.42896
285.42897
285.42896
285.42893
285.42893
285.42894
285.429
285.42918
285.42942
285.42957
285.42965
285.42975
285.42997
285.43056
285.43229
285.43745
285.45253
285.4955
285.61542
285.942
286.81916
288.6953
290.87291
293.03091
294.98537
296.62893
297.92567
298.89271
299.57812
300.04168
300.34165
300.52761
300.63798
300.70051
300.73407
300.75087
300.75843
300.7612
300.76175
300.76153
300.76047
300.75886
300.75734
300.75579
300.75416
300.75246
300.75072
300.74899
300.74732
300.74574
300.74431
300.74304
300.74196
300.74105
300.74031
300.73971
300.73922
300.7388
300.73841
300.73804
300.73766
300.73728
300.73688
300.73648
300.73609
300.7357
300.73532
300.73497
300.73463
300.73431
300.73401
300.73373
300.73345
300.73316
300.73284
300.73249
300.73212
300.73171
300.73129
300.73082
300.73032
300.72979
300.72923
300.72866
300.72809
300.72752
300.72696
300.72642
300.72591
300.7254
300.72491
300.72444
300.72398
300.72356
300.72316
300.72279
300.72244
300.72212
300.72182
300.72155
300.72129
300.72105
300.72082
300.72059
300.72036
300.72014
300.71993
300.71974
300.71956
300.71939
300.71922
300.71906
300.7189
300.71875
300.71859
300.71843
300.71828
300.71813
300.71799
300.71787
300.71774
300.7176
300.71747
300.71734
300.71721
300.71708
300.71696
300.71684
300.71673
300.71662
300.71651
300.7164
300.7163
300.7162
300.7161
300.71599
300.71589
300.71578
300.71567
300.71556
300.71546
300.71537
300.71528
300.71519
300.7151
300.71501
300.71492
300.71484
300.71475
300.71467
300.71459
300.71451
300.71443
300.71435
300.71426
300.71418
300.71409
300.71401
300.71394
300.71387
300.71381
300.71373
300.71366
300.71359
300.71353
300.71346
300.71339
300.71331
300.71324
300.71317
300.71311
300.71305
300.71298
300.71292
300.71287
300.71281
300.71275
300.71269
300.71262
300.71256
300.7125
300.71244
300.7124
300.71234
300.71229
300.71223
300.71217
300.71211
300.71205
300.712
300.71194
300.71189
300.71184
300.7118
300.71175
300.7117
300.71165
300.71161
300.71155
300.7115
300.71144
300.7114
300.71136
300.71132
300.71127
300.71122
300.71117
300.71112
300.71107
300.71103
300.71099
300.71095
300.71091
300.71087
300.71082
300.71078
300.71073
300.71069
300.71066
300.71062
300.71058
300.71054
300.71049
300.71045
300.71041
300.71037
300.71033
300.71029
300.71025
300.71022
300.71018
300.71015
300.71011
300.71007
300.71003
300.70999
300.70996
300.70993
300.7099
300.70987
300.70983
300.70979
300.70975
300.70972
300.70968
300.70965
300.70962
300.70958
300.70955
300.70951
300.70948
300.70945
300.70943
300.70941
300.70938
300.70935
300.70932
300.70928
300.70925
300.70922
300.70919
300.70916
300.70914
300.70911
300.70908
300.70905
300.70902
300.70899
300.70896
300.70893
300.70891
300.70888
300.70885
300.70882
300.7088
300.70877
300.70875
300.70873
300.7087
300.70867
300.70865
300.70863
300.7086
300.70858
300.70855
300.70852
300.7085
300.70848
300.70845
300.70842
300.70838
300.70836
300.70833
300.70831
300.70829
300.70828
300.70825
300.70823
300.70821
300.70817
300.70814
300.70812
300.7081
300.70808
300.70806
300.70804
300.70802
300.70799
300.70796
300.70793
300.70791
300.70788
300.70786
300.70784
300.70781
300.70778
300.70776
300.70775
300.70773
300.70771
300.70769
300.70767
300.70765
300.70762
300.70758
300.70756
300.70754
300.70751
300.70749
300.70747
300.70745
300.70744
300.70742
300.70739
300.70737
300.70734
300.70731
300.70728
300.70725
300.70723
300.70722
300.70721
300.70719
300.70718
300.70715
300.70713
300.70711
300.70709
300.70706
300.70704
300.70701
300.707
300.70698
300.70696
300.70694
300.70691
300.70688
300.70686
300.70684
300.70683
300.70682
300.7068
300.70678
300.70676
300.70673
300.70671
300.70669
300.70667
300.70665
300.70663
300.70662
300.70659
300.70658
300.70656
300.70653
300.70652
300.7065
300.70648
300.70647
300.70645
300.70643
300.70641
300.7064
300.70638
300.70636
300.70634
300.70633
300.70631
300.70629
300.70628
300.70625
300.70623
300.70621
300.7062
300.70619
300.70619
300.70618
300.70618
300.70617
300.70615
300.70613
300.70612
300.7061
300.70608
300.70607
300.70606
300.70605
300.70604
300.70603
300.70602
300.70601
300.70601
300.706
300.70599
300.70598
300.70598
300.70599
300.70599
300.70598
300.70597
300.70596
300.70595
300.70594
300.70594
300.70594
300.70594
300.70594
300.70594
300.70594
300.70594
300.70593
300.70593
300.70594
300.70595
300.70596
300.70597
300.70597
300.70597
300.70596
300.70596
300.70596
300.70595
300.70594
300.70593
300.70593
300.70593
300.70592
300.70591
300.70589
300.70586
300.70583
300.70579
300.70576
300.70571
300.70567
300.70561
300.70555
300.70548
300.7054
300.70531
300.70522
300.70511
300.705
300.70487
300.70472
300.70456
300.70438
300.70419
300.70397
300.70373
300.70346
300.70317
300.70284
300.70248
300.70209
300.70165
300.70116
300.70063
300.70004
300.69939
300.69868
300.6979
300.69704
300.6961
300.69506
300.69393
300.69269
300.69134
300.68986
300.68824
300.68648
300.68456
300.68247
300.68019
300.67771
300.67503
300.67211
300.66895
300.66552
300.66181
300.6578
300.65346
300.64878
300.64373
300.63829
300.63243
300.62612
300.61934
300.61206
300.60424
300.59586
300.58688
300.57727
300.56698
300.55599
300.54426
300.53174
300.51839
300.50418
300.48905
300.47296
300.45587
300.43773
300.4185
300.39811
300.37652
300.35369
300.32956
300.30408
300.27719
300.24885
300.219
300.18758
300.15456
300.11987
300.08347
300.0453
300.00532
299.96348
299.91973
299.87403
299.82635
299.77663
299.72485
299.67097
299.61496
299.5568
299.49647
299.43395
299.36923
299.3023
299.23315
299.16181
299.08826
299.01253
298.93465
298.85464
298.77253
298.68838
298.60222
298.51413
298.42415
298.33236
298.23884
298.14368
298.04696
297.94878
297.84925
297.74847
297.64657
297.54366
297.43987
297.33533
297.23017
297.12452
297.01852
296.91233
296.80606
296.69987
296.59391
296.4883
296.38319
296.27871
296.17501
296.0722
295.97042
295.86978
295.77041
295.67242
295.5759
295.48096
295.3877
295.29619
295.20651
295.11874
295.03294
294.94916
294.86745
294.78786
294.71042
294.63516
294.56209
294.49124
294.4226
294.35618
294.29198
294.22999
294.17018
294.11254
294.05705
294.00368
293.95238
293.90314
293.85591
293.81064
293.7673
293.72584
293.6862
293.64835
293.61222
293.57777
293.54495
293.5137
293.48397
293.45571
293.42886
293.40338
293.3792
293.35628
293.33457
293.31402
293.29457
293.27619
293.25882
293.24242
293.22695
293.21235
293.1986
293.18564
293.17345
293.16197
293.15118
293.14105
293.13152
293.12259
293.1142
293.10634
293.09897
293.09207
293.08562
293.07957
293.07392
293.06864
293.06371
293.0591
293.05481
293.0508
293.04706
293.04358
293.04034
293.03732
293.03451
293.0319
293.02947
293.02722
293.02513
293.02319
293.02138
293.01971
293.01817
293.01673
293.01541
293.01418
293.01304
293.01199
293.01102
293.01012
293.0093
293.00853
293.00783
293.00718
293.00658
293.00603
293.00552
293.00506
293.00463
293.00423
293.00387
293.00354
293.00323
293.00295
293.00269
293.00246
293.00224
293.00204
293.00186
293.0017
293.00154
293.00141
293.00128
293.00116
293.00106
293.00096
293.00087
293.00079
293.00072
293.00065
293.00059
293.00054
293.00048
293.00044
293.0004
293.00036
293.00033
293.00029
293.00027
293.00024
293.00022
293.0002
293.00018
293.00016
293.00014
293.00013
293.00012
293.0001
293.00009
293.00008
293.00008
293.00007
293.00006
293.00006
293.00005
293.00004
293.00004
293.00004
293.00003
293.00003
293.00003
293.00002
293.00002
293.00002
293.00002
293.00001
293.00001
293.00001
293.00001
293.00001
293.00001
293.00001
293.00001
293.00001
293.00001
293
293
293
293
293
293
293
293
293
293
293
293
293
293
293
293
293
293
293
293
293
293
293
293
293
293
293
293
293
293
293
293
293
293
293
293
293
293
293
293
293
293
293
293
293
293
293
293
293
293
293
293
293
293
293
293
293
293
293
293
293
293
293
293
293
293
293
293
293
293
293
293
293
293
293
293
293
293
293
293
293
293
293
293
293
293
293
293
293
293
293
293
293
293
293
293
293
293
293
293
293
293
293
293
293
293
293
293
293
293
293
293
293
293
293
293
293
293
293
293
293
293
293
293
293
293
293
293
293
293
293
293
293
293
293
293
293
293
293
293
293
293
293
293
293
293
293
293
293
293
293
293
293
293
293
293
293
293
293
293
293
293
293
293
293
293
293
293
293
293
293
293
293
293
293
293
293
293
293
293
293
293
293
293
293
293
293
293
293
293
293
293
293
293
293
293
293
293
293
293
293
293
293
293
293
293
293
293
293
293
293
293
293
293
293
293
293
293
293
293
293
293
293
293
293
293
293
293
293
293
293
293
293
293
293
293
293
293
293
293
293
293
293
293
293
293
293
293
293
293
293
293
293
293
293
293
293
293
293
293
293
293
293
293
293
293
293
293
293
293
293
293
293
293
293
293
293
293
293
293
293
293
293
293
293
293
293
293
293
293
293
293
293
293
293
293
293
293
293
293
293
293
293
293
293
293
293
293
293
293
293
293
293
293
293
293
293
293
293
293
293
293
293
293
293
293
293
293
293
293
293
293
293
293
293
293
293
293
293
293
293
293
293
293
293
293
293
293
293
293
293
293
293
293
293
293
293
293
293
293
293
293
293
293
293
293
293
293
293
293
293
293
293
293
293
293
293
293
293
293
293
293
293
293
293
293
293
293
293
293
293
293
293
293
293
293
293
293
293
293
293
293
293
293
293
293
293
293
293
293
293
293
293
293
293
293
293
293
293
293
293
293
293
293
293
293
293
293
293
293
293
293
293
293
293
293
293
293
293
293
293
293
293
293
293
293
293
293
293
293
293
293
293
293
293
293
293
293
293
293
293
293
293
293
293
293
293
293
293
293
293
293
293
293
293
293
293
293
293
293
293
293
293
293
293
293
293
293
293
293
293
293
293
293
293
293
293
293
293
293
293
293
293
293
293
293
293
293
293
293
293
293
293
293
293
293
293
293
293
293
293
293
293
293
293
293
293
293
293
293
293
293
293
293
293
293
293
293
293
293
293
293
293
293
293
293
293
293
293
293
293
293
293
293
293
293
293
293
293
293
293
293
293
293
293
293
293
293
293
293
293
293
293
293
293
293
293
293
293
293
293
293
293
293
293
293
293
293
293
293
293
293
293
293
293
293
293
293
293
293
293
293
293
293
293
293
293
293
293
293
293
293
293
293
293
293
293
293
293
293
293
293
293
293
293
293
293
293
293
293
293
293
293
293
293
293
293
293
293
293
293
293
293
293
293
293
293
293
293
293
293
293
293
293
293
293
293
293
293
293
293
293
293
293
293
293
293
293
293
293
293
293
293
293
293
293
293
293
293
293
293
293
293
293
293
293
293
293
293
293
293
293
293
293
293
293
293
293
293
293
293
293
293
293
293
293
293
293
293
293
293
293
293
293
293
293
293
293
293
293
293
293
293
293
293
293
293
293
293
293
293
293
293
293
293
293
293
293
293
293
293
293
293
293
293
293
293
293
293
293
293
293
293
293
293
293
293
293
293
293
293
293
293
293
293
293
293
293
293
293
293
293
293
293
293
293
293
293
293
293
293
293
293
293
293
293
293
293
293
293
293
293
293
293
293
293
293
293
293
293
293
293
293
293
293
293
293
293
293
293
293
293
293
293
293
293
293
293
293
293
293
293
293
293
293
293
293
293
293
293
293
293
293
293
293
293
293
293
293
293
293
293
293
293
293
293
293
293
293
293
293
293
293
293
293
293
293
293
293
293
293
293
293
293
293
293
293
293
293
293
293
293
293
293
293
293
293
293
293
293
293
293
293
293
293
293
293
293
293
293
293
293
293
293
293
293
293
293
293
293
293
293
293
293
293
293
293
293
293
293
293
293
293
293
293
293
293
293
293
293
293
293
293
293
293
293
293
293
293
293
293
293
293
293
293
293
293
293
293
293
293
293
293
293
293
293
293
293
293
293
293
293
293
293
293
293
293
293
293
293
293
293
293
293
293
293
293
293
293
293
293
293
293
293
293
293
293
293
293
293
293
293
293
293
293
293
293
293
293
293
293
293
293
293
293
293
293
293
293
293
293
293
293
293
293
293
293
293
293
293
293
293
293
293
293
293
293
293
293
293
293
293
293
293
293
293
293
293
293
293
293
293
293
293
293
293
293
293
293
293
293
293
293
293
293
293
293
293
293
293
293
293
293
293
293
293
293
293
293
293
293
293
293
293
293
293
293
293
293
293
293
293
293
293
293
293
293
293
293
293
293
293
293
293
293
293
293
293
293
293
293
293
293
293
293
293
293
293
293
293
293
293
293
293
293
293
293
293
293
293
293
293
293
293
293
293
293
293
293
293
293
293
293
293
293
293
293
293
293
293
293
293
293
293
293
293
293
293
293
293
293
293
293
293
293
293
293
293
293
293
293
293
293
293
293
293
293
293
293
293
293
293
293
293
293
293
293
293
293
293
293
293
293
293
293
293
293
293
293
293
293
293
293
293
293
293
293
293
293
293
293
293
293
293
293
293
293
293
293
293
293
293
293
293
293
293
293
293
293
293
293
293
293
293
293
293
293
293
293
293
293
293
293
293
293
293
293
293
293
293
293
293
293
293
293
293
293
293
293
293
293
293
293
293
293
293
293
293
293
293
293
293
293
293
293
293
293
293
293
293
293
293
293
293
293
293
293
293
293
293
293
293
293
293
293
293
293
293
293
293
293
293
293
293
293
293
293
293
293
293
293
293
293
293
293
293
293
293
293
293
293
293
293
293
293
293
293
293
293
293
293
293
293
293
293
293
293
293
293
293
293
293
293
293
293
293
293
293
293
293
293
293
293
293
293
293
293
293
293
293
293
293
293
293
293
293
293
293
293
293
293
293
293
293
293
293
293
293
293
293
293
293
293
293
293
293
293
293
293
293
293
293
293
293
293
293
293
293
293
293
293
293
293
293
293
293
293
293
293
293
293
293
293
293
293
293
293
293
293
293
293
293
293
293
293
293
293
293
293
293
293
293
293
293
293
293
293
293
293
293
293
293
293
293
293
293
293
293
293
293
293
293
293
293
293
293
293
293
293
293
293
293
293
293
293
293
293
293
293
293
293
293
293
293
293
293
293
293
293
293
293
293
293
293
293
293
293
293
293
293
293
293
293
293
293
293
293
293
293
293
293
293
293
293
293
293
293
293
293
293
293
293
293
293
293
293
293
293
293
293
293
293
293
293
293
293
293
293
293
293
293
293
293
293
293
293
293
293
293
293
293
293
293
293
293
293
293
293
293
293
293
293
293
293
293
293
293
293
293
293
293
293
293
293
293
293
293
293
293
293
293
293
293
293
293
293
293
293
293
293
293
293
293
293
293
293
293
293
293
293
293
293
293
293
293
293
293
293
293
293
293
293
293
293
293
293
293
293
293
293
293
293
293
293
293
293
293
293
293
293
293
293
293
293
293
293
293
293
293
293
293
293
293
293
293
293
293
293
293
293
293
293
293
293
293
293
293
293
293
293
293
293
293
293
293
293
293
293
293
293
293
293
293
293
293
293
293
293
293
293
293
293
293
293
293
293
293
293
293
293
293
293
293
293
293
293
293
293
293
293
293
293
293
293
293
293
293
293
293
293
293
293
293
293
293
293
293
293
293
293
293
293
293
293
293
293
293
293
293
293
293
293
293
293
293
293
293
293
293
293
293
293
293
293
293
293
293
293
293
293
293
293
293
293
293
293
293
293
293
293
293
293
293
293
293
)
;

boundaryField
{
    leftSide
    {
        type            zeroGradient;
    }
    rightSide
    {
        type            zeroGradient;
    }
    emptywalls
    {
        type            empty;
    }
}


// ************************************************************************* //
