/*--------------------------------*- C++ -*----------------------------------*\
  =========                 |
  \\      /  F ield         | OpenFOAM: The Open Source CFD Toolbox
   \\    /   O peration     | Website:  https://openfoam.org
    \\  /    A nd           | Version:  7
     \\/     M anipulation  |
\*---------------------------------------------------------------------------*/
FoamFile
{
    version     2.0;
    format      ascii;
    class       volScalarField;
    location    "0.0002";
    object      mag(U);
}
// * * * * * * * * * * * * * * * * * * * * * * * * * * * * * * * * * * * * * //

dimensions      [0 1 -1 0 0 0 0];

internalField   nonuniform List<scalar> 
5000
(
8.4931163
8.4962763
8.4680047
8.4455405
8.4198957
8.3947946
8.3691579
8.3435974
8.3179522
8.2923173
8.2666717
8.241028
8.2153857
8.1897463
8.1641109
8.1384799
8.1128537
8.0872326
8.0616168
8.0360062
8.010401
7.9848012
7.9592068
7.9336178
7.9080341
7.882456
7.8568833
7.831316
7.8057543
7.7801981
7.7546475
7.7291025
7.703563
7.6780292
7.652501
7.6269784
7.6014614
7.57595
7.5504443
7.5249441
7.4994497
7.4739608
7.4484776
7.4229999
7.3975279
7.3720616
7.3466008
7.3211457
7.2956962
7.2702523
7.2448141
7.2193815
7.1939545
7.1685331
7.1431173
7.1177072
7.0923027
7.0669038
7.0415105
7.0161228
6.9907407
6.9653643
6.9399934
6.9146282
6.8892686
6.8639145
6.8385661
6.8132233
6.7878861
6.7625545
6.7372284
6.711908
6.6865932
6.661284
6.6359804
6.6106823
6.5853899
6.5601031
6.5348218
6.5095461
6.4842761
6.4590116
6.4337527
6.4084994
6.3832517
6.3580096
6.332773
6.3075421
6.2823167
6.2570969
6.2318827
6.2066741
6.1814711
6.1562736
6.1310817
6.1058954
6.0807147
6.0555395
6.03037
6.005206
5.9800475
5.9548947
5.9297474
5.9046057
5.8794696
5.854339
5.829214
5.8040946
5.7789808
5.7538725
5.7287698
5.7036726
5.6785811
5.6534951
5.6284146
5.6033398
5.5782705
5.5532067
5.5281485
5.5030959
5.4780489
5.4530074
5.4279715
5.4029411
5.3779163
5.3528971
5.3278834
5.3028753
5.2778728
5.2528758
5.2278843
5.2028985
5.1779182
5.1529434
5.1279742
5.1030106
5.0780525
5.0531
5.0281531
5.0032117
4.9782758
4.9533455
4.9284208
4.9035017
4.8785881
4.85368
4.8287775
4.8038806
4.7789892
4.7541034
4.7292232
4.7043485
4.6794794
4.6546158
4.6297578
4.6049053
4.5800584
4.5552171
4.5303813
4.5055511
4.4807264
4.4559073
4.4310938
4.4062858
4.3814834
4.3566865
4.3318952
4.3071095
4.2823293
4.2575546
4.2327856
4.2080221
4.1832641
4.1585117
4.1337648
4.1090236
4.0842878
4.0595576
4.034833
4.0101139
3.9854004
3.9606925
3.93599
3.9112932
3.8866018
3.8619161
3.8372359
3.8125612
3.787892
3.7632284
3.7385704
3.7139179
3.6892709
3.6646295
3.6399936
3.6153632
3.5907383
3.566119
3.5415052
3.5168969
3.4922941
3.4676968
3.4431051
3.4185188
3.393938
3.3693627
3.3447929
3.3202285
3.2956696
3.2711162
3.2465681
3.2220255
3.1974883
3.1729565
3.1484301
3.123909
3.0993932
3.0748828
3.0503777
3.0258778
3.0013831
2.9768937
2.9524094
2.9279303
2.9034562
2.8789872
2.8545232
2.8300642
2.8056101
2.7811608
2.7567164
2.7322767
2.7078417
2.6834113
2.6589854
2.6345641
2.6101471
2.5857345
2.5613261
2.5369219
2.5125218
2.4881258
2.4637337
2.4393454
2.4149609
2.3905802
2.3662031
2.3418295
2.3174595
2.2930929
2.2687297
2.2443699
2.2200134
2.1956602
2.1713104
2.146964
2.1226209
2.0982813
2.0739452
2.0496128
2.0252842
2.0009597
1.9766393
1.9523236
1.9280126
1.9037069
1.8794069
1.8551131
1.830826
1.8065464
1.7822749
1.7580124
1.7337599
1.7095182
1.6852887
1.6610725
1.636871
1.6126857
1.5885184
1.5643707
1.5402447
1.5161425
1.4920664
1.4680188
1.4440024
1.4200201
1.3960748
1.37217
1.3483089
1.3244954
1.3007332
1.2770266
1.2533798
1.2297975
1.2062843
1.1828454
1.1594861
1.1362117
1.113028
1.0899409
1.0669565
1.0440813
1.0213216
0.99868432
0.97617628
0.95380458
0.93157643
0.90949922
0.88758044
0.8658277
0.84424868
0.82285118
0.80164302
0.78063205
0.75982616
0.73923322
0.71886106
0.69871749
0.6788102
0.65914682
0.63973485
0.62058164
0.60169436
0.58308001
0.56474538
0.54669701
0.52894118
0.51148392
0.49433093
0.47748763
0.46095906
0.44474997
0.42886469
0.41330719
0.39808107
0.3831895
0.36863525
0.35442066
0.34054766
0.32701772
0.3138319
0.30099083
0.28849467
0.27634319
0.26453568
0.25307105
0.24194775
0.23116386
0.22071703
0.21060453
0.20082324
0.19136968
0.18224003
0.17343011
0.16493545
0.15675124
0.14887242
0.14129365
0.13400932
0.12701363
0.12030054
0.11386384
0.10769713
0.10179388
0.096147416
0.090750959
0.085597637
0.080680506
0.075992568
0.071526789
0.067276115
0.063233493
0.059391882
0.055744273
0.0522837
0.049003257
0.04589611
0.042955508
0.040174799
0.037547432
0.035066978
0.032727128
0.03052171
0.02844469
0.026490181
0.024652449
0.022925916
0.021305165
0.019784943
0.018360164
0.017025911
0.015777435
0.014610158
0.013519672
0.012501738
0.011552287
0.010667415
0.0098433826
0.0090766151
0.0083636955
0.0077013643
0.0070865148
0.0065161904
0.0059875799
0.0054980141
0.0050449614
0.0046260235
0.0042389308
0.0038815383
0.0035518207
0.0032478681
0.0029678811
0.0027101664
0.0024731326
0.0022552851
0.0020552218
0.0018716292
0.0017032776
0.0015490172
0.0014077739
0.0012785452
0.0011603967
0.001052458
0.00095391942
0.00086402823
0.00078208547
0.0007074427
0.00063949893
0.00057769767
0.0005215241
0.00047050245
0.00042419337
0.00038219157
0.00034412351
0.0003096452
0.00027844018
0.00025021756
0.00022471019
0.00020167295
0.0001808811
0.00016212881
0.00014522769
0.0001300055
0.00011630486
0.00010398212
9.2906245e-05
8.2957831e-05
7.4028154e-05
6.6018296e-05
5.8838334e-05
5.2406591e-05
4.6648934e-05
4.149814e-05
3.6893296e-05
3.2779249e-05
2.9106103e-05
2.5828755e-05
2.2906464e-05
2.0302457e-05
1.7983571e-05
1.5919919e-05
1.408459e-05
1.2453366e-05
1.1004476e-05
9.7183562e-06
8.5774445e-06
7.5659853e-06
6.6698547e-06
5.8764003e-06
5.1742951e-06
4.5534098e-06
4.0046889e-06
3.5200444e-06
3.0922576e-06
2.7148895e-06
2.3822005e-06
2.0890792e-06
1.8309776e-06
1.6038479e-06
1.4040942e-06
1.2285223e-06
1.0742965e-06
9.389029e-07
8.2011245e-07
7.1595051e-07
6.2466959e-07
5.4472327e-07
4.7474512e-07
4.1352859e-07
3.6000733e-07
3.1324112e-07
2.724005e-07
2.367555e-07
2.0566306e-07
1.7855709e-07
1.5493995e-07
1.343741e-07
1.1647573e-07
1.0090702e-07
8.7372882e-08
7.5613441e-08
6.5402027e-08
5.6540136e-08
4.8853028e-08
4.2188922e-08
3.6415166e-08
3.1414968e-08
2.7087145e-08
2.3343573e-08
2.0107024e-08
1.7310425e-08
1.4895052e-08
1.2809884e-08
1.1011314e-08
9.4605839e-09
8.1235637e-09
6.9721626e-09
5.9812257e-09
5.1282503e-09
4.3949714e-09
3.7648446e-09
3.222943e-09
2.7578879e-09
2.3589961e-09
2.016617e-09
1.7229531e-09
1.4715373e-09
1.256122e-09
1.0716654e-09
9.1424438e-10
7.7889397e-10
6.6355371e-10
5.65308e-10
4.8131939e-10
4.0929899e-10
3.477657e-10
2.9562079e-10
2.5131923e-10
2.1337752e-10
1.81126e-10
1.5350279e-10
1.3002302e-10
1.1038371e-10
9.348743e-11
7.9270696e-11
6.7072143e-11
5.6515983e-11
4.7927435e-11
4.0724854e-11
3.4369556e-11
2.9166886e-11
2.4555578e-11
2.0552993e-11
1.74812e-11
1.4670722e-11
1.246328e-11
1.0648633e-11
8.9222714e-12
7.4595347e-12
6.1684639e-12
4.9387227e-12
4.2027584e-12
3.6839704e-12
3.0331781e-12
2.3532506e-12
1.8074329e-12
1.597216e-12
1.3070426e-12
9.2350977e-13
8.1633188e-13
8.8134421e-13
6.039195e-13
4.4561396e-13
3.39467e-13
3.2821252e-13
3.9593891e-13
2.5587444e-13
2.5969666e-13
2.3219245e-13
4.348423e-14
2.8380414e-14
1.2247329e-13
1.348694e-13
1.3440318e-13
3.5486312e-14
1.4594009e-13
1.3464286e-13
1.6560342e-13
5.1429393e-13
2.2668842e-13
3.876077e-13
4.8178166e-13
5.7523854e-13
6.2531889e-13
4.7678221e-13
3.8472088e-13
2.5584194e-13
1.8642253e-13
2.4056516e-13
2.3026306e-13
5.5057783e-15
1.3390418e-13
5.3737941e-14
3.5526967e-14
2.5971838e-14
4.4670121e-14
1.6273509e-13
2.0866682e-13
2.558454e-13
5.1892318e-13
5.2252794e-13
4.8531148e-13
4.9319319e-13
6.9186934e-13
7.0817946e-13
6.1174161e-13
6.041982e-13
6.4660592e-13
5.6863271e-13
5.0562451e-13
4.3902345e-13
3.6457492e-13
5.7326285e-13
5.4208051e-13
3.3749705e-13
4.1856334e-13
3.0414578e-13
3.1747438e-13
3.6832363e-13
4.9936677e-13
4.7772419e-13
4.5874463e-13
3.0539605e-13
3.5678888e-13
3.664168e-13
3.3060203e-13
2.6782875e-13
2.6266851e-13
1.5312434e-13
2.3675818e-13
3.1237412e-13
2.2235368e-13
3.1493723e-13
3.4556998e-13
2.9486094e-13
9.5076421e-14
2.5667405e-13
1.5905709e-13
7.7310014e-14
2.1620721e-13
2.6704333e-14
6.3831631e-14
9.9851355e-14
4.7800725e-14
1.6127022e-13
7.1382442e-14
1.9846967e-13
1.2716433e-13
1.7789275e-13
7.0027283e-14
2.5217543e-13
6.7763662e-14
6.5330406e-14
2.21104e-13
1.4655253e-13
2.9007571e-13
3.1410531e-13
1.4831577e-13
1.8843275e-13
8.032778e-14
7.0709753e-14
2.6302445e-15
1.9751944e-13
9.3377012e-14
5.2271108e-14
2.4878326e-13
1.0196291e-13
1.9467731e-13
2.1230761e-13
5.739033e-14
8.8046285e-14
1.0040909e-13
2.0344252e-13
2.6311613e-13
1.1152114e-13
1.6884594e-13
2.7249871e-13
3.6036316e-13
3.5374023e-13
3.285559e-13
2.6314209e-13
1.9498225e-13
2.808514e-13
1.1266695e-13
2.2404641e-13
3.4324627e-13
4.6451181e-13
4.9564362e-13
4.5362043e-13
5.0761538e-13
3.7671791e-13
2.8763223e-13
2.6572849e-13
2.8132934e-13
1.1179432e-13
8.6197079e-14
8.2966804e-15
1.818371e-13
1.3986555e-13
2.4814085e-13
2.2048776e-13
3.0057692e-14
1.8858587e-15
1.1118336e-14
8.7019262e-14
9.7089436e-14
2.4106905e-13
1.5616084e-13
2.7480344e-13
2.3749517e-13
1.3871852e-13
1.4947155e-13
3.8196134e-13
3.2817144e-13
1.2698009e-13
2.3168284e-13
2.4718177e-13
2.1662739e-13
2.5532944e-13
3.6210517e-14
1.1725644e-13
2.5154193e-13
4.9812042e-14
6.1556501e-14
1.12216e-13
7.8520369e-14
5.1776974e-14
1.9303314e-14
8.857006e-15
1.1054039e-13
7.1823042e-14
1.2324354e-13
1.1923581e-13
3.737927e-14
4.4618851e-14
1.3274025e-13
1.2239369e-13
9.8861425e-15
8.4336651e-14
2.2724218e-13
2.3589428e-13
7.4014157e-14
6.5713564e-14
1.4087916e-13
8.1180223e-14
4.3003598e-14
6.8690826e-14
9.6706094e-14
3.5065434e-14
1.2405555e-13
1.7905557e-13
5.7108999e-15
1.4053746e-13
2.9944235e-13
4.0007203e-13
4.0500583e-13
4.6802337e-13
4.6490604e-13
4.4597654e-13
4.8579328e-13
2.9944786e-13
2.6962401e-13
3.6727234e-13
4.297076e-13
3.7196261e-13
4.2268667e-13
3.6313298e-13
3.3980734e-13
5.3071276e-13
5.9771539e-13
6.6539533e-13
4.9966512e-13
3.9946239e-13
3.1753039e-13
4.4352362e-13
5.6212368e-13
6.7100858e-13
5.3531258e-13
3.5278394e-13
4.7830869e-13
5.0596046e-13
4.4437618e-13
3.7406074e-13
5.4030666e-13
5.7864715e-13
2.8433113e-13
2.1150486e-13
3.504302e-13
5.3056751e-13
6.6522313e-13
6.7690682e-13
6.9386485e-13
5.6769617e-13
5.8191972e-13
6.2969742e-13
6.667401e-13
4.9128963e-13
4.2345868e-13
8.141377e-13
8.6938958e-13
7.5744132e-13
5.4497337e-13
5.8873797e-13
7.9807352e-13
7.7558659e-13
7.5558163e-13
7.2527012e-13
5.2676053e-13
3.835573e-13
3.6972148e-13
3.550777e-13
5.8189014e-13
5.6665221e-13
4.466062e-13
3.8442768e-13
2.9695118e-13
3.4569898e-13
3.0831266e-13
3.8013962e-13
3.9921921e-13
2.2729546e-13
2.8605054e-13
2.9395072e-13
3.3514483e-13
4.4225429e-13
4.034591e-13
5.4140162e-13
7.3654692e-13
6.8124009e-13
7.3472502e-13
9.5110276e-13
1.2497027e-12
9.7491199e-13
8.5637715e-13
9.8674415e-13
1.0138267e-12
8.8444626e-13
8.8022549e-13
8.1674132e-13
7.6589013e-13
1.0809855e-12
1.0809981e-12
1.1202556e-12
1.0643346e-12
8.3285047e-13
1.0080792e-12
8.8956884e-13
9.2206571e-13
1.1467869e-12
8.2569697e-13
6.9958093e-13
8.8477925e-13
7.9790284e-13
5.8896434e-13
6.6010408e-13
8.3094645e-13
8.1083716e-13
5.7476766e-13
6.8790604e-13
5.4352311e-13
3.2615234e-13
3.5488481e-13
3.7256013e-13
5.5276693e-13
4.6687829e-13
5.0280805e-13
6.1259739e-13
5.9516382e-13
5.9204718e-13
6.7431307e-13
9.9885331e-13
8.8440946e-13
7.4135253e-13
5.7340423e-13
5.8476943e-13
4.7268273e-13
6.5889972e-13
6.2613387e-13
5.2698984e-13
5.0053839e-13
5.3082547e-13
6.5740607e-13
9.2299713e-13
1.013297e-12
9.1063748e-13
7.7226264e-13
7.4692967e-13
9.7113895e-13
8.1291755e-13
6.0960421e-13
7.923314e-13
8.7518515e-13
8.4597061e-13
8.452813e-13
8.0827361e-13
1.0222176e-12
7.9122959e-13
3.717862e-13
5.433225e-13
7.0733125e-13
6.4408051e-13
7.1207825e-13
8.6666105e-13
9.0148052e-13
7.0773795e-13
7.1526033e-13
7.6042231e-13
6.6580035e-13
6.1042195e-13
5.7870114e-13
4.0063818e-13
5.2633518e-13
4.6923312e-13
7.1104264e-13
7.3659178e-13
7.3590315e-13
5.3079259e-13
6.7345175e-13
5.7326176e-13
5.5445468e-13
4.5308498e-13
3.1878952e-13
4.4035906e-13
2.2518713e-13
1.5016134e-13
3.7060004e-14
1.048458e-13
2.4434805e-13
5.1129417e-13
3.8556979e-13
4.6589862e-13
4.8895436e-13
2.0901584e-13
3.3989621e-13
3.2134042e-13
4.236968e-13
3.9253939e-13
4.0503978e-13
5.0539629e-13
4.4857776e-13
5.4257556e-13
5.156554e-13
2.7922071e-13
1.4612066e-13
6.5609807e-14
2.8257445e-13
1.1890654e-13
1.6322265e-13
4.4018154e-14
2.3729764e-13
3.3378271e-13
1.278058e-13
1.5598029e-13
7.234986e-14
2.7915877e-13
3.6024194e-13
4.1346893e-13
5.1304463e-13
3.2592264e-13
3.2537798e-13
5.7446796e-13
4.3064386e-13
3.6309606e-13
3.5455719e-13
1.9003028e-13
2.7705431e-13
3.5972299e-13
1.6665641e-13
6.5051543e-14
2.0759518e-13
1.9758978e-13
2.2342846e-13
2.8760882e-13
4.8567157e-13
5.401595e-13
6.2062424e-13
5.7613983e-13
4.5817514e-13
5.5443197e-13
3.8202528e-13
2.4355024e-13
4.1634466e-13
2.8853516e-13
2.2614095e-13
3.2842699e-13
3.7430274e-13
6.4803314e-13
6.3706937e-13
4.5220765e-13
3.3835788e-13
1.1460805e-13
1.3231146e-13
7.5360217e-14
6.1358627e-14
6.5101673e-14
8.2837508e-14
6.2019187e-14
9.3065088e-14
3.3259211e-13
3.5190576e-13
5.7070172e-13
5.7838436e-13
7.9409654e-13
8.9918488e-13
9.1634207e-13
7.1102938e-13
6.4129375e-13
7.1821239e-13
6.5679022e-13
7.1872517e-13
6.0019076e-13
6.7047071e-13
7.903219e-13
6.4518187e-13
5.4296584e-13
5.987352e-13
6.349073e-13
7.0063738e-13
6.8796223e-13
8.006007e-13
7.9048104e-13
7.945795e-13
8.0395228e-13
6.0326828e-13
6.1211878e-13
8.3556094e-13
8.7701785e-13
8.2801855e-13
6.1371224e-13
4.6831547e-13
5.3839804e-13
5.6679543e-13
5.4335351e-13
4.5049157e-13
4.365209e-13
3.2060702e-13
2.3636471e-13
1.2777327e-13
1.5614126e-13
3.4339846e-13
3.6188518e-13
2.0529288e-13
2.0716475e-13
1.4205417e-13
1.9431301e-13
1.4698858e-13
2.4394076e-13
1.1328662e-13
1.645975e-13
6.7092909e-14
2.3728935e-14
8.9187823e-14
1.183811e-13
2.0488559e-13
1.5661214e-13
1.243862e-13
2.3709436e-13
4.4282219e-13
3.1111788e-13
2.7666297e-13
1.6431049e-13
2.5767797e-13
3.3235515e-13
2.0766344e-13
1.448536e-14
3.8501156e-14
2.2109056e-13
2.9235288e-13
4.8761202e-13
5.0533864e-13
4.7022663e-13
3.757021e-13
3.2180112e-13
1.8798213e-13
1.4129221e-13
1.9332259e-14
8.8464139e-14
6.7671615e-14
1.2405181e-13
1.7367571e-13
1.8794266e-13
6.8865206e-14
5.8857054e-14
1.0838433e-13
2.100021e-13
8.1803509e-14
1.9650771e-13
1.5571542e-13
1.0605288e-13
1.068766e-13
1.0055498e-13
1.2288059e-13
1.8550458e-14
1.2129145e-13
2.8808992e-13
2.1485205e-13
1.4799723e-13
3.3382054e-13
3.1188833e-13
1.0968384e-13
2.4355783e-13
2.1805901e-13
4.3860261e-13
5.3639642e-13
4.0416816e-13
5.2162844e-13
1.5726227e-13
9.8423167e-14
1.3686373e-13
2.2770888e-13
1.7115124e-13
2.9585926e-13
2.1739278e-13
8.1853859e-14
2.9013238e-13
1.8017655e-13
1.3757507e-13
1.7419051e-13
9.969074e-14
2.1966791e-13
6.9657732e-13
5.49838e-13
4.9285616e-13
4.4583192e-13
2.8840552e-13
1.8487257e-13
1.8475028e-13
2.7151548e-13
3.0642757e-13
2.141136e-13
6.003438e-14
1.615111e-13
1.3643851e-13
5.7780459e-14
1.2975147e-13
2.8483649e-13
2.716641e-13
7.5283588e-14
1.8933048e-13
3.3532527e-13
1.9677356e-13
2.6097577e-13
3.90418e-13
2.4861213e-13
1.6543129e-13
1.4344091e-13
1.6360779e-13
2.8665992e-13
2.9272429e-13
3.2046072e-13
2.3010348e-13
1.3754296e-13
2.8495495e-13
3.9854093e-13
4.3872397e-13
3.4480924e-13
3.4137553e-13
2.6770759e-13
1.838828e-13
1.8136999e-13
2.1648174e-13
1.9932334e-13
2.4018037e-13
3.2922059e-13
2.7209631e-13
2.6012659e-13
2.3035618e-13
4.7774226e-13
4.9353978e-13
4.8335114e-13
3.7431057e-13
4.4211661e-13
4.5589241e-13
2.9749997e-13
6.5945123e-13
5.5632471e-13
6.3093451e-13
6.0340043e-13
5.9429738e-13
6.8003422e-13
4.5066027e-13
4.4520144e-13
3.7993173e-13
4.8160444e-13
3.8910405e-13
4.7479509e-13
3.7865033e-13
6.0329224e-14
1.1056319e-13
2.6886551e-14
5.6751445e-14
2.4404849e-13
1.2831534e-13
2.4537651e-13
3.2352178e-13
4.5305079e-13
5.2922813e-13
4.6449013e-13
3.4373181e-13
4.2004947e-13
3.6596611e-13
4.3397645e-13
2.1891419e-13
1.1643385e-13
1.513164e-13
3.8298602e-14
2.3922233e-13
1.4419981e-13
3.9225758e-13
3.1193607e-13
5.3221908e-13
3.3712531e-13
2.6794138e-13
4.7027359e-13
4.1948776e-13
3.7271072e-13
2.0236623e-13
2.2948066e-13
3.632065e-13
3.9463948e-13
4.2216379e-13
5.0419539e-13
3.5509205e-13
5.4262182e-13
3.2230524e-13
2.8814217e-13
3.9314706e-13
4.5343407e-13
5.8260763e-13
5.7806953e-13
7.9124917e-13
6.573945e-13
7.6656787e-13
6.0807562e-13
5.5576254e-13
7.263016e-13
9.1342892e-13
7.9824533e-13
7.9517987e-13
7.3317893e-13
8.1097976e-13
8.2185578e-13
8.2936282e-13
7.9385012e-13
7.6429644e-13
8.8020756e-13
7.2356649e-13
6.8190848e-13
5.9522683e-13
8.4535002e-13
7.3045524e-13
8.4191705e-13
8.2652636e-13
7.6012088e-13
5.3706354e-13
5.1891639e-13
7.4791632e-13
8.1837208e-13
7.0730783e-13
5.2885033e-13
6.6352367e-13
3.4796034e-13
3.5382262e-13
2.3148978e-13
4.7812893e-14
1.0019939e-13
3.0203566e-13
1.837608e-13
2.917909e-13
4.7831616e-13
4.4261265e-13
2.6553732e-13
1.7076856e-13
9.5121818e-14
7.1963548e-14
2.1959313e-13
9.0639435e-14
1.0995336e-13
8.4280225e-14
7.6232176e-14
1.1360346e-13
2.8475049e-14
9.9735094e-14
1.500554e-14
3.3570437e-13
2.3868539e-13
2.6212878e-13
2.9530043e-13
1.9913029e-13
6.1019599e-14
6.8388706e-14
1.4178936e-13
1.8386397e-13
1.7168499e-13
6.3215524e-15
8.6107894e-14
2.043025e-14
1.5441312e-13
5.8373121e-14
7.3567544e-14
6.4080311e-15
6.087607e-14
1.2183083e-13
1.8644483e-13
1.3823423e-16
5.087256e-14
1.1397339e-13
9.2807499e-15
7.8577407e-14
8.6269969e-14
1.7332732e-13
1.9977135e-14
4.9080923e-14
4.7361136e-14
3.9302031e-15
1.3004749e-13
2.3313374e-13
3.6232459e-13
1.796614e-13
3.0037283e-13
1.7954926e-13
6.9588245e-14
2.1025644e-13
3.6944059e-14
1.4188132e-13
5.2348245e-14
3.9145907e-14
2.2442516e-13
3.223402e-13
2.8112965e-13
4.8404608e-13
5.181501e-13
5.7317659e-13
6.3588239e-13
6.0152578e-13
8.8075117e-13
9.8080052e-13
6.6527832e-13
8.1437259e-13
1.109901e-12
8.3619051e-13
7.7679107e-13
7.0841077e-13
7.1885993e-13
7.3341168e-13
7.5107269e-13
6.9487896e-13
5.3197411e-13
6.6819506e-13
4.9392456e-13
4.9235457e-13
4.5776554e-13
2.7118032e-13
2.4516859e-13
1.1281474e-13
8.6378996e-14
4.6554148e-14
2.6105879e-14
1.030379e-13
9.6743333e-14
3.4117234e-14
1.6904365e-13
2.7804211e-13
3.2250607e-13
4.3041339e-13
5.3463314e-13
6.270747e-13
7.587458e-13
5.0555739e-13
5.3418792e-13
5.2640005e-13
4.6677211e-13
5.6478237e-13
7.3028757e-13
5.5497202e-13
6.625615e-13
6.8680826e-13
4.00298e-13
4.9977652e-13
4.2931857e-13
2.9185897e-13
4.6493532e-13
5.4039602e-13
5.283717e-13
6.3421076e-13
5.6008072e-13
4.7301184e-13
2.6824012e-13
5.2163323e-13
6.3315566e-13
5.9416407e-13
6.1695008e-13
5.0574215e-13
6.350787e-13
4.4063364e-13
4.264743e-13
4.0046579e-13
2.388675e-13
3.1848632e-13
4.0244529e-13
3.8203888e-13
3.7897183e-13
3.6408961e-13
3.3279611e-13
2.7863746e-13
3.1835979e-13
1.2936412e-13
2.2005828e-13
2.6960141e-13
4.4040094e-13
2.6895999e-13
1.1360798e-13
2.8381375e-13
2.3215529e-15
1.9394154e-14
2.1662894e-15
1.3732487e-13
1.3445777e-13
9.1970691e-14
1.2848919e-13
2.3205832e-13
2.6309635e-13
5.0245907e-13
4.6295436e-13
7.9961335e-13
9.2989552e-13
7.1040861e-13
6.516683e-13
4.8060697e-13
7.012006e-13
6.5050577e-13
6.8354669e-13
6.6266525e-13
7.5053879e-13
5.1795016e-13
3.7643336e-13
3.6286153e-13
4.1237143e-13
1.6969385e-13
1.8223718e-13
2.1257719e-13
3.8450557e-14
3.7297445e-14
2.5352818e-13
2.8541627e-13
2.1080271e-13
3.4162986e-13
3.3124816e-13
6.5168166e-13
6.0651908e-13
5.4693939e-13
5.2149932e-13
4.586847e-13
6.0891212e-13
6.217698e-13
5.6129661e-13
5.2344205e-13
4.0812639e-13
4.7802913e-13
3.3641448e-13
3.7692351e-13
5.162762e-13
4.3341467e-13
4.4394554e-13
5.1639766e-13
5.7805775e-13
3.3691883e-13
3.6769526e-13
5.0700564e-13
3.9712662e-13
3.362032e-13
4.355732e-13
3.5271243e-13
4.6628455e-13
4.7573743e-13
4.2718505e-13
4.1716887e-13
2.1119741e-13
1.5498025e-13
1.7072765e-13
1.5451449e-13
1.2408487e-13
1.1387383e-13
8.2418749e-14
1.0382239e-13
5.7672462e-14
1.1608465e-13
3.3880784e-14
1.6671522e-13
9.9979545e-14
6.2629761e-14
3.1016432e-13
2.9495751e-13
4.1502026e-13
4.9326054e-13
6.0109028e-13
6.0482939e-13
5.6570607e-13
2.509234e-13
3.6997113e-13
4.6860127e-13
5.0056637e-13
4.1428873e-13
3.9955629e-13
3.4301932e-13
3.2737397e-13
4.8282204e-13
6.1088275e-13
6.7807681e-13
5.5789144e-13
5.0430878e-13
6.9513228e-13
5.7760799e-13
6.4594239e-13
8.2461193e-13
8.9140277e-13
8.9045591e-13
7.5357135e-13
7.271597e-13
7.6082674e-13
6.4329284e-13
4.7431569e-13
3.1586587e-13
2.3401155e-13
4.7642379e-13
5.7010885e-13
3.1845754e-13
3.1145739e-13
3.8525806e-13
3.9747794e-13
7.5058814e-13
6.4901315e-13
7.2436448e-13
5.8722254e-13
5.2624656e-13
4.2189926e-13
4.0401936e-13
4.1784103e-13
5.002432e-13
5.4543039e-13
3.860291e-13
5.092031e-13
4.6424208e-13
4.7567592e-13
1.588222e-13
2.0926903e-14
2.3375916e-14
4.1038531e-14
8.9258646e-14
7.1888861e-14
8.6389408e-14
1.3340858e-13
1.2291215e-13
1.4007868e-13
1.0013917e-13
1.3459476e-13
2.3946809e-13
4.174399e-13
4.0484641e-13
2.04386e-13
4.462072e-14
1.105684e-13
2.6180268e-13
2.2788868e-13
1.6881789e-13
1.7398032e-13
3.3859094e-14
3.9717252e-14
3.3851577e-15
1.7059101e-14
1.859631e-13
3.2698268e-13
4.1953927e-13
2.7266665e-13
2.0101337e-13
4.2437008e-13
4.6409545e-13
3.7960157e-13
5.150747e-13
4.9534413e-13
4.6056908e-13
2.7365542e-13
5.4475826e-14
1.1948458e-13
2.7395201e-13
3.1685958e-13
1.9688124e-13
5.0213913e-13
6.2886217e-14
1.2939001e-13
2.2799818e-13
1.2786842e-13
3.5816428e-14
1.4383477e-13
8.5269896e-14
2.9861403e-14
9.5976357e-14
4.0918771e-14
1.2843123e-13
8.1127286e-14
5.2786962e-14
1.0348357e-13
3.0904659e-13
3.7453161e-13
3.9446381e-13
3.0280217e-13
4.54272e-13
3.4168059e-13
3.4647463e-13
3.7221335e-13
2.9764381e-13
2.0224901e-13
5.8963279e-14
7.513868e-14
7.3708902e-14
1.8457274e-13
1.1841947e-13
2.1017914e-13
3.808894e-13
3.4525341e-13
2.5445203e-13
1.1178478e-13
2.153753e-13
2.0299839e-13
1.5552591e-13
5.4687005e-14
2.7294331e-14
1.3713241e-13
5.4770845e-14
5.9538022e-16
1.187572e-13
1.6400175e-13
1.9223589e-14
1.9549507e-13
2.4133487e-13
5.310824e-13
3.6029672e-13
3.8844231e-13
4.8419045e-13
4.2599202e-13
3.6818457e-13
3.2835741e-13
2.0835964e-13
7.3679781e-14
4.0776675e-14
9.8145064e-14
8.619267e-14
1.6100024e-13
1.6146539e-13
1.8980552e-13
1.297425e-13
8.1929769e-14
3.9227702e-14
5.4891356e-14
1.3723145e-13
7.6413169e-14
6.2477378e-14
7.8776793e-15
9.1994442e-14
7.2312488e-15
7.189782e-14
1.3905306e-13
1.3144621e-13
3.6961579e-13
5.1912051e-13
4.6301836e-13
5.9780486e-13
6.390385e-13
7.3895577e-13
7.5330261e-13
5.7455669e-13
8.5689236e-13
9.5235744e-13
9.1623015e-13
6.9772457e-13
6.6588825e-13
6.8659775e-13
5.7907597e-13
5.704636e-13
3.5147635e-13
2.9135779e-13
2.7972965e-13
4.7340738e-13
5.0025263e-13
3.107071e-13
2.099417e-13
3.4885356e-13
4.300853e-13
2.6813981e-13
1.5968741e-13
4.1273417e-13
4.7356307e-13
4.1852901e-13
1.4721439e-13
1.0143779e-14
2.3301569e-14
7.2768746e-14
1.4463714e-13
1.2526146e-13
2.8843183e-15
1.8991438e-13
3.8390054e-13
3.6503957e-13
1.5012226e-13
2.1449298e-13
2.0480804e-13
2.3189342e-13
2.3696287e-13
3.8290001e-13
6.1024509e-13
6.2789558e-13
4.5278605e-13
5.5122349e-13
5.1358964e-13
4.7302807e-13
6.1301224e-13
3.7998417e-13
4.0136988e-13
4.5371879e-13
4.6520823e-13
4.8690921e-13
6.6208855e-13
5.365375e-13
2.4755984e-13
2.0383616e-13
1.5723705e-13
1.9221179e-13
2.245387e-13
4.2509722e-13
4.5849505e-13
2.7039368e-13
1.1652678e-13
7.2549514e-14
1.0333876e-13
2.2487755e-13
3.5936972e-13
4.1044348e-13
2.8142093e-13
3.0665054e-13
4.0967752e-13
4.1977751e-13
3.1071073e-13
4.5769267e-13
6.9042558e-13
6.0703799e-13
7.860971e-13
7.9636024e-13
8.5386106e-13
9.1192272e-13
6.4489046e-13
8.4161831e-13
7.5885859e-13
5.3122828e-13
4.731996e-13
5.1504962e-13
6.594052e-13
4.5070123e-13
5.4824756e-13
7.4620957e-13
5.5296785e-13
4.6554508e-13
5.8818369e-13
5.7811885e-13
6.3921761e-13
7.1268419e-13
5.9330485e-13
8.0035266e-13
6.2491297e-13
5.761052e-13
5.310805e-13
5.3293567e-13
4.6188109e-13
1.9832785e-13
4.0570172e-13
2.6329693e-13
2.0550342e-13
1.9230501e-13
1.4840935e-13
4.0065315e-14
4.5875455e-14
5.9248951e-15
1.6913796e-13
3.0521162e-14
3.2781356e-15
1.5142295e-13
2.1454622e-13
1.3838663e-13
3.1961272e-13
2.6015158e-13
3.2684094e-13
3.1105706e-13
5.268618e-13
6.579216e-13
5.5584441e-13
5.4337053e-13
5.268797e-13
3.8082385e-13
3.1112653e-13
2.0094269e-13
8.5515221e-14
9.6153434e-14
1.9840841e-13
2.9945165e-13
2.777629e-13
1.8601209e-13
3.838175e-14
5.7449688e-14
2.54075e-14
3.1524043e-13
4.891138e-14
5.7883474e-14
2.3566073e-13
2.0398529e-13
1.2008635e-13
8.3119659e-14
1.9448602e-13
3.572938e-13
4.5146604e-13
4.5941101e-13
4.5520109e-13
5.7453399e-13
6.5648032e-13
7.0732076e-13
8.991359e-13
9.2877571e-13
1.0163257e-12
9.6024567e-13
9.4394979e-13
8.84781e-13
6.9658754e-13
6.2755588e-13
6.2014756e-13
5.7926072e-13
6.3271191e-13
6.8555004e-13
6.4981635e-13
5.8414061e-13
4.7131896e-13
2.4394261e-13
2.7048916e-13
4.2003528e-13
2.9984277e-13
3.0347653e-13
2.6913042e-13
1.077756e-13
1.4524951e-13
1.2939664e-13
8.9069504e-14
7.3063207e-14
1.9808687e-13
9.1764435e-14
1.4839796e-13
1.7624674e-13
6.7914503e-14
1.8924401e-13
2.0084855e-13
2.3390705e-13
2.1180778e-13
3.2685542e-13
5.8940946e-13
3.151927e-13
2.45794e-13
4.3134658e-13
3.0470312e-13
2.9258405e-13
1.9296355e-13
3.4656748e-13
4.7147009e-13
3.6140228e-13
2.4468305e-13
1.8096639e-13
2.2415212e-13
1.5664847e-13
1.6323023e-13
2.4230722e-13
1.4934155e-13
2.2506151e-14
1.3959484e-14
3.6605117e-14
1.0924295e-13
1.818955e-13
1.8207446e-13
2.1404962e-13
3.4388223e-13
5.1961715e-13
6.1223515e-13
7.1070579e-13
6.8668444e-13
5.631798e-13
7.3976931e-13
6.8771588e-13
7.7087097e-13
1.1595409e-12
1.4243471e-12
1.7094539e-12
2.0135819e-12
2.205272e-12
2.6676156e-12
3.1110925e-12
3.4709279e-12
4.1661817e-12
4.7622091e-12
5.6236375e-12
6.6452889e-12
7.8033933e-12
9.1244545e-12
1.1023007e-11
1.2987349e-11
1.551321e-11
1.890005e-11
2.2258971e-11
2.6352516e-11
3.1351055e-11
3.7779735e-11
4.5021311e-11
5.3892169e-11
6.4441079e-11
7.6575184e-11
9.1276828e-11
1.0876975e-10
1.3008426e-10
1.5501554e-10
1.8455298e-10
2.1943929e-10
2.6066602e-10
3.0992472e-10
3.6837079e-10
4.3765629e-10
5.1986494e-10
6.174356e-10
7.3208041e-10
8.6738535e-10
1.0275682e-09
1.2172884e-09
1.4418428e-09
1.7056226e-09
2.017253e-09
2.3851265e-09
2.8182534e-09
3.3285596e-09
3.9294741e-09
4.6366919e-09
5.4687067e-09
6.447412e-09
7.5973026e-09
8.9478196e-09
1.0533473e-08
1.2393601e-08
1.4575108e-08
1.7132535e-08
2.012914e-08
2.3638122e-08
2.7745206e-08
3.2549455e-08
3.816775e-08
4.473327e-08
5.2401189e-08
6.1353967e-08
7.1800625e-08
8.3983265e-08
9.8183722e-08
1.1472795e-07
1.3399141e-07
1.5640998e-07
1.824862e-07
2.1280122e-07
2.4802468e-07
2.8892853e-07
3.3640412e-07
3.914778e-07
4.5533133e-07
5.293221e-07
6.1501319e-07
7.142011e-07
8.2894744e-07
9.6161927e-07
1.1149302e-06
1.2919935e-06
1.4963742e-06
1.7321523e-06
2.0039985e-06
2.3172519e-06
2.6780139e-06
3.0932519e-06
3.5709152e-06
4.1200724e-06
4.7510583e-06
5.4756433e-06
6.3072255e-06
7.2610443e-06
8.3544226e-06
9.6070378e-06
1.1041227e-05
1.2682332e-05
1.4559078e-05
1.6704008e-05
1.9153962e-05
2.1950618e-05
2.5141094e-05
2.8778617e-05
3.2923277e-05
3.7642861e-05
4.3013786e-05
4.9122136e-05
5.6064814e-05
6.395082e-05
7.2902676e-05
8.3058e-05
9.4571249e-05
0.00010761565
0.00012238536
0.00013909777
0.00015799616
0.00017935256
0.0002034709
0.00023069048
0.00026138981
0.00029599083
0.00033496345
0.00037883066
0.00042817403
0.00048363973
0.00054594516
0.00061588613
0.00069434469
0.00078229769
0.00088082602
0.00099112474
0.001114514
0.0012524507
0.0014065418
0.0015785574
0.0017704465
0.0019843525
0.0022226308
0.0024878673
0.0027828984
0.0031108329
0.0034750741
0.003879345
0.0043277141
0.0048246237
0.005374919
0.00598388
0.0066572549
0.0074012953
0.0082227936
0.0091291227
0.010128277
0.011228916
0.012440412
0.013772893
0.015237299
0.016845431
0.018610003
0.020544702
0.022664244
0.024984435
0.027522232
0.030295807
0.03332461
0.036629438
0.0402325
0.044157486
0.048429635
0.053075804
0.058124537
0.063606134
0.069552718
0.075998304
0.082978859
0.090532371
0.098698906
0.10752067
0.11704205
0.12730969
0.1383725
0.15028174
0.16309101
0.17685632
0.19163607
0.2074911
0.22448468
0.24268248
0.26215262
0.2829656
0.30519425
0.32891377
0.35420156
0.38113725
0.40980259
0.44028132
0.47265914
0.50702353
0.54346365
0.5820702
0.62293526
0.66615212
0.71181512
0.76001942
0.81086085
0.86443564
0.92084024
0.98017108
1.0425243
1.1079955
1.1766796
1.2486702
1.32406
1.4029397
1.4853983
1.5715227
1.6613972
1.7551035
1.8527202
1.9543226
2.0599825
2.1697677
2.2837421
2.401965
2.5244912
2.6513705
2.7826477
2.9183622
3.0585476
3.203232
3.3524375
3.5061798
3.6644685
3.8273066
3.9946904
4.1666097
4.3430471
4.5239784
4.7093724
4.8991905
5.0933871
5.2919093
5.4946971
5.7016829
5.9127922
6.1279429
6.3470458
6.5700045
6.7967155
7.0270681
7.2609447
7.4982207
7.7387648
7.9824389
8.2290983
8.478592
8.7307627
8.9854468
9.2424751
9.5016724
9.762858
10.025846
10.290445
10.556459
10.823688
11.091926
11.360965
11.630592
11.900591
12.170741
12.440825
12.710606
12.979873
13.248382
13.515916
13.78224
14.047121
14.310338
14.571649
14.83084
15.087672
15.34193
15.59339
15.84183
16.087048
16.32882
16.566958
16.801252
17.031517
17.25757
17.479227
17.696334
17.908716
18.116238
18.318752
18.516131
18.708264
18.895032
19.076359
19.252146
19.422338
19.586874
19.745709
19.898824
20.046189
20.18782
20.323714
20.453904
20.578429
20.697332
20.810691
20.918565
21.021059
21.118258
21.210277
21.297238
21.379258
21.456491
21.52906
21.597132
21.660856
21.720389
21.775908
21.827564
21.875546
21.920006
21.96113
21.999086
22.034036
22.066164
22.095615
22.122574
22.14718
22.169597
22.189978
22.208452
22.225178
22.240268
22.253868
22.266084
22.277035
22.286837
22.295572
22.303359
22.310266
22.316391
22.321804
22.326571
22.330775
22.334452
22.337681
22.340494
22.342948
22.345084
22.346927
22.348534
22.349909
22.351102
22.352122
22.352996
22.35375
22.354383
22.354935
22.355393
22.355789
22.356124
22.356402
22.356648
22.356844
22.357021