-1.25 	338.5256621387885 	0.09193350220148089 	101363.5256621388
-1.247497497497497 	300.96684237416 	0.09504693682692883 	101363.9427191023
-1.244994994994995 	300.0440334803916 	0.0972273428241985 	101364.3593563626
-1.242492492492492 	300.0337271877455 	0.09712621146428041 	101364.7796388277
-1.23998998998999 	300.0339877935643 	0.09843767974439029 	101365.1856162077
-1.237487487487487 	300.0343257271503 	0.09941704909596639 	101365.5854528862
-1.234984984984985 	300.0346575784469 	0.1003706440026424 	101365.9778454885
-1.232482482482482 	300.0349830132253 	0.1013158902698792 	101366.3626845465
-1.22997997997998 	300.0353020087095 	0.1022399728837123 	101366.7399101081
-1.227477477477477 	300.0356145053019 	0.1031460110027541 	101367.1094514993
-1.224974974974975 	300.0359204469572 	0.1040326504614342 	101367.4712422158
-1.222472472472472 	300.0362197765713 	0.1049002518083271 	101367.8252148694
-1.21996996996997 	300.0365124370242 	0.1057484293066452 	101368.1713017912
-1.217467467467467 	300.036798377409 	0.1065771393814403 	101368.5094425779
-1.214964964964965 	300.037077548976 	0.1073862009952124 	101368.839579717
-1.212462462462462 	300.0373498983128 	0.1081754819016819 	101369.16164986
-1.20995995995996 	300.0376153698684 	0.1089448165690388 	101369.4755873868
-1.207457457457457 	300.0378739140094 	0.1096940654637714 	101369.781333489
-1.204954954954955 	300.0381254872259 	0.1104231005795538 	101370.0788364942
-1.202452452452452 	300.0383700467828 	0.1111318035129808 	101370.3680461076
-1.19994994994995 	300.0386075488531 	0.1118200484964822 	101370.6489103542
-1.197447447447447 	300.0388379486291 	0.1124877059694782 	101370.9213760572
-1.194944944944945 	300.03906120248 	0.1131346496317965 	101371.1853916664
-1.192442442442442 	300.0392772683256 	0.1137607608254334 	101371.4409074878
-1.18993993993994 	300.0394861067026 	0.1143659270209822 	101371.6878766367
-1.187437437437437 	300.0396876791797 	0.1149500366260903 	101371.9262535447
-1.184934934934935 	300.0398819488392 	0.1155129817139272 	101372.1559948029
-1.182432432432432 	300.0400688802212 	0.1160546613362455 	101372.3770582728
-1.17992992992993 	300.040248439168 	0.1165749790625844 	101372.5894032485
-1.177427427427427 	300.0404205930269 	0.1170738387901852 	101372.7929911804
-1.174924924924925 	300.0405853093675 	0.1175511475277062 	101372.9877843924
-1.172422422422422 	300.040742557991 	0.1180068197845248 	101373.1737475964
-1.16991991991992 	300.0408923106366 	0.118440773528444 	101373.3508457414
-1.167417417417417 	300.041034541765 	0.1188529286811019 	101373.5190469262
-1.164914914914915 	300.0411692240465 	0.1192432085473127 	101373.6783202107
-1.162412412412412 	300.0412963294301 	0.1196115428285792 	101373.8286359741
-1.15990990990991 	300.041415834062 	0.1199578651024306 	101373.9699671005
-1.157407407407407 	300.0415277188 	0.1202821100975293 	101374.1022867677
-1.154904904904904 	300.0416319682819 	0.1205842198562628 	101374.2255721074
-1.152402402402403 	300.0417285621912 	0.1208641400109219 	101374.3397992542
-1.1498998998999 	300.0418174785562 	0.1211218181188948 	101374.4449471982
-1.147397397397397 	300.0418986969204 	0.1213572057138252 	101374.5409971414
-1.144894894894895 	300.0419722005756 	0.1215702606476007 	101374.6279303457
-1.142392392392392 	300.0420379811683 	0.1217609470226869 	101374.705733035
-1.13988988988989 	300.0420960299125 	0.1219292264153171 	101374.7743888037
-1.137387387387387 	300.0421463397478 	0.1220750672342473 	101374.8338852079
-1.134884884884885 	300.0421889020354 	0.1221984439334853 	101374.8842117899
-1.132382382382382 	300.0422237048055 	0.122299331656639 	101374.9253569502
-1.12987987987988 	300.0422507415207 	0.1223777145343328 	101374.9573165752
-1.127377377377377 	300.0422700035053 	0.1224335780187444 	101374.9800828847
-1.124874874874875 	300.042281486579 	0.1224669134856563 	101374.9936521486
-1.122372372372372 	300.0422851909118 	0.1224777156257369 	101374.9980247018
-1.11986986986987 	300.0422811109943 	0.1224659766348802 	101374.9931941961
-1.117367367367367 	300.0422692493503 	0.1224317014051592 	101374.9791638008
-1.114864864864865 	300.0422496091304 	0.1223748939324482 	101374.9559357556
-1.112362362362362 	300.0422221920679 	0.1222955620015215 	101374.9235113728
-1.10985985985986 	300.0421870081304 	0.1221937278329854 	101374.8819026507
-1.107357357357357 	300.042144059906 	0.1220694045044643 	101374.8311122092
-1.104854854854855 	300.0420933560895 	0.1219226157098774 	101374.7711498942
-1.102352352352353 	300.0420349111349 	0.1217533953532103 	101374.7020329787
-1.09984984984985 	300.0419687276291 	0.1215617642007705 	101374.6237649343
-1.097347347347347 	300.0418948214711 	0.1213477606398924 	101374.53636417
-1.094844844844845 	300.0418132093204 	0.1211114257022078 	101374.439849603
-1.092342342342342 	300.0417238957425 	0.1208527899213539 	101374.3342272979
-1.08983983983984 	300.0416269043028 	0.1205719111335324 	101374.2195263736
-1.087337337337337 	300.0415222544478 	0.1202688416476222 	101374.095769011
-1.084834834834835 	300.0414099569674 	0.1199436255104751 	101373.9629660116
-1.082332332332332 	300.0412900443634 	0.1195963395878188 	101373.8211563479
-1.07982982982983 	300.041162534431 	0.119227044035715 	101373.6703641888
-1.077327327327327 	300.0410274377181 	0.1188357912698406 	101373.5106028681
-1.074824824824825 	300.040884797516 	0.118422674763552 	101373.3419196568
-1.072322322322323 	300.0407346400959 	0.1179877637545314 	101373.1643421022
-1.06981981981982 	300.0405769750936 	0.1175311162671736 	101372.9778846879
-1.067317317317317 	300.0404118437559 	0.1170528433887017 	101372.7826030333
-1.064814814814815 	300.0402392747831 	0.1165530300772344 	101372.5785321677
-1.062312312312312 	300.0400592854001 	0.1160317372747695 	101372.365685182
-1.05980980980981 	300.0398719338574 	0.1154890907953961 	101372.1441235562
-1.057307307307307 	300.0396772600116 	0.1149251990346759 	101371.9138961951
-1.054804804804805 	300.0394752637429 	0.1143401219397747 	101371.6750131798
-1.052302302302302 	300.0392659877791 	0.1137339889195605 	101371.4275331146
-1.0497997997998 	300.0390494935987 	0.1131069437611094 	101371.1715257363
-1.047297297297297 	300.0388258033639 	0.1124590537978183 	101370.9070056205
-1.044794794794795 	300.0385949609752 	0.1117904302412318 	101370.6340150141
-1.042292292292292 	300.0383570399497 	0.1111012525484533 	101370.3526418642
-1.03978978978979 	300.038112063173 	0.1103916260066924 	101370.0629248637
-1.037287287287287 	300.0378600357178 	0.1096616267713534 	101369.7648828714
-1.034784784784785 	300.0376010240216 	0.1089114335770309 	101369.4585981256
-1.032282282282283 	300.0373351061477 	0.1081412305040193 	101369.1441551436
-1.02977977977978 	300.0370623084298 	0.1073510925691092 	101368.8215725467
-1.027277277277277 	300.0367826668329 	0.1065411219619082 	101368.4908834661
-1.024774774774775 	300.0364962793225 	0.1057115579295623 	101368.1522010743
-1.022272272272272 	300.0362032183057 	0.1048625948807626 	101367.8056162103
-1.01976976976977 	300.0359034650668 	0.1039942607069562 	101367.4511185012
-1.017267267267267 	300.0355970359749 	0.1031066738026561 	101367.0887397115
-1.014764764764765 	300.035284074044 	0.1022001831679214 	101366.718654671
-1.012262262262262 	300.0349646677128 	0.1012749867672279 	101366.3409659606
-1.00975975975976 	300.0346387442257 	0.1003309786534971 	101365.9555835134
-1.007257257257257 	300.0343063417976 	0.09936831963541091 	101365.5625492882
-1.004754754754755 	300.0339677220458 	0.09838758987668103 	101365.1621671502
-1.002252252252252 	300.0336229674365 	0.09738895450824761 	101364.7545265568
-0.9997497497497498 	300.0332718648688 	0.09637202060426525 	101364.3393713737
-0.9972472472472473 	300.0329144734474 	0.09533701809554493 	101363.9167750723
-0.9947447447447449 	300.0325512471038 	0.09428494098585416 	101363.4872789029
-0.9922422422422421 	300.0321822578197 	0.0932159226895375 	101363.0509653335
-0.9897397397397399 	300.0318070406648 	0.09212904838528588 	101362.607278563
-0.9872372372372376 	300.0314256290943 	0.09102454325605289 	101362.1562592123
-0.9847347347347346 	300.031038807912 	0.08990413816097333 	101361.6988448401
-0.9822322322322323 	300.0306467712222 	0.08876818355726682 	101361.2352718756
-0.9797297297297296 	300.0302486473767 	0.08761482776835938 	101360.7645048094
-0.9772272272272275 	300.0298441785944 	0.08644369573438863 	101360.2862278538
-0.9747247247247248 	300.0294346305333 	0.08525764807383567 	101359.8019345503
-0.9722222222222224 	300.0290208176751 	0.08405837406772752 	101359.3125984677
-0.9697197197197196 	300.0286014460968 	0.08284298648871508 	101358.8167032849
-0.9672172172172175 	300.0281751615589 	0.08160871961147843 	101358.3126492805
-0.9647147147147147 	300.0277433172797 	0.08035883939792515 	101357.8020221815
-0.9622122122122124 	300.0273083880569 	0.07909878997160076 	101357.2877314723
-0.9597097097097099 	300.0268698660879 	0.0778271278508757 	101356.7691760043
-0.9572072072072073 	300.0264244461146 	0.07653639671074214 	101356.2424666925
-0.9547047047047047 	300.0259711911398 	0.07522493421975225 	101355.7065171497
-0.9522022022022023 	300.0255139403708 	0.07390188751982185 	101355.165868927
-0.9496996996996998 	300.025056326583 	0.07257537738427114 	101354.624795331
-0.9471971971971973 	300.0245959617956 	0.07123934441387497 	101354.0804465223
-0.9446946946946947 	300.0241268202265 	0.06987970856532771 	101353.5256921156
-0.9421921921921923 	300.0236477120774 	0.06849431790841935 	101352.9591457103
-0.93968968968969 	300.023165294863 	0.06709948019840178 	101352.3887072284
-0.9371871871871872 	300.0226863342434 	0.06571111536392152 	101351.8223888285
-0.9346846846846848 	300.0222084023998 	0.06432273947668329 	101351.2573095599
-0.9321821821821823 	300.0217214513599 	0.06290984368769331 	101350.6815667399
-0.9296796796796799 	300.0212196535348 	0.06145878930810948 	101350.0882520538
-0.9271771771771771 	300.0207096609802 	0.05998653256679796 	101349.4852251002
-0.9246746746746748 	300.0202046277025 	0.05852551861339653 	101348.8880439191
-0.9221721721721724 	300.0197097103537 	0.05708796259095515 	101348.3028172907
-0.9196696696696698 	300.0192151137924 	0.05564897148662017 	101347.7179798989
-0.9171671671671672 	300.0187050433659 	0.05416914639163094 	101347.1148742038
-0.9146646646646649 	300.0181739742002 	0.05263526555938883 	101346.4869795417
-0.9121621621621623 	300.017633658973 	0.05107758236230573 	101345.8481885638
-0.9096596596596597 	300.0171032631363 	0.04954472555295972 	101345.2211397982
-0.9071571571571573 	300.0165916491663 	0.04805881452471661 	101344.6162798913
-0.9046546546546547 	300.0160883800419 	0.04659258607980928 	101344.0212437623
-0.9021521521521524 	300.0155716808849 	0.04508984757301809 	101343.4102814434
-0.8996496496496498 	300.015026493887 	0.04351202953611537 	101342.7656052228
-0.8971471471471473 	300.0144575240848 	0.04187187344375464 	101342.0928017946
-0.894644644644645 	300.0138866677459 	0.04022674161314956 	101341.4177766584
-0.892142142142142 	300.0133369879683 	0.03863700886143107 	101340.7678008571
-0.8896396396396397 	300.0128157944968 	0.03712175078629308 	101340.151509817
-0.8871371371371374 	300.0123091357924 	0.03564390115822462 	101339.5524011589
-0.8846346346346349 	300.0117907438106 	0.03413360735439414 	101338.9394182519
-0.8821321321321324 	300.0112386643763 	0.03253244667352363 	101338.286614169
-0.8796296296296297 	300.010648896704 	0.03082995729504887 	101337.5892725239
-0.8771271271271271 	300.0100381378908 	0.02907111581625775 	101336.8671439457
-0.8746246246246248 	300.0094346274964 	0.0273320442105605 	101336.1536156145
-0.8721221221221224 	300.0088630782909 	0.0256796938545812 	101335.4778949388
-0.8696196196196196 	300.0083323752338 	0.02413836191644828 	101334.8504711682
-0.8671171171171175 	300.0078317784394 	0.02267882816159152 	101334.2586331402
-0.8646146146146148 	300.0073361029411 	0.02123191375505042 	101333.6725985289
-0.8621121121121121 	300.0068161293125 	0.01971689045914375 	101333.0578234187
-0.8596096096096097 	300.0062493952057 	0.01807150693563895 	101332.3877596409
-0.857107107107107 	300.0056277301514 	0.01627315643044566 	101331.6527594223
-0.8546046046046049 	300.0049596969756 	0.01434580937366305 	101330.8629573953
-0.8521021021021022 	300.0042678437994 	0.01235244473281018 	101330.0450185672
-0.8495995995995997 	300.0035821801615 	0.01037708355719872 	101329.2344232692
-0.8470970970970974 	300.0029324528402 	0.008503744311868955 	101328.4663356814
-0.8445945945945946 	300.0023423175777 	0.006800123972400226 	101327.7687156434
-0.8420920920920922 	300.001826793321 	0.005309795539602892 	101327.1593115565
-0.8395895895895897 	300.0013922351728 	0.004051666146912609 	101326.6456299255
-0.8370870870870872 	300.0010377326248 	0.003023761750243789 	101326.2265890353
-0.8345845845845846 	300.0007571430497 	0.002208944100405435 	101325.8949234987
-0.8320820820820823 	300.0005411886352 	0.001580886150262989 	101325.6396631596
-0.8295795795795798 	300.00037926206 	0.001109263523535916 	101325.4482672994
-0.8270770770770772 	300.0002607788734 	0.0007636737920919034 	101325.3082231463
-0.8245745745745746 	300.00017605548 	0.0005162036514558163 	101325.2080836053
-0.8220720720720721 	300.000116775862 	0.0003428118039909967 	101325.1380183987
-0.8195695695695699 	300.0000761458384 	0.0002238075483791118 	101325.0899965249
-0.817067067067067 	300.0000488397946 	0.0001437219586087218 	101325.0577230813
-0.8145645645645651 	300.0000308293979 	9.083009459077988e-05 	101325.036436546
-0.8120620620620621 	300.0000191617283 	5.652081316773369e-05 	101325.0226465777
-0.8095595595595597 	300.0000117322659 	3.464646624916627e-05 	101325.0138658188
-0.8070570570570572 	300.0000070793088 	2.092996939604109e-05 	101325.00836668
-0.8045545545545546 	300.0000042115327 	1.246559502649504e-05 	101325.0049773822
-0.8020520520520523 	300.0000024711538 	7.322460258323947e-06 	101325.0029204773
-0.7995495495495494 	300.0000014306148 	4.243814665127169e-06 	101325.001690701
-0.7970470470470474 	300.000000817412 	2.427485447527052e-06 	101325.0009660199
-0.7945445445445446 	300.000000461116 	1.370874135924695e-06 	101325.0005449406
-0.7920420420420423 	300.0000002569029 	7.645519329922282e-07 	101325.0003035893
-0.7895395395395397 	300.0000001413936 	4.212255934505958e-07 	101325.0001670786
-0.7870370370370371 	300.0000000768943 	2.293126938856833e-07 	101325.0000908587
-0.7845345345345348 	300.0000000413104 	1.233899907443743e-07 	101325.0000488351
-0.7820320320320323 	300.0000000219414 	6.563567737186197e-08 	101325.0000259487
-0.7795295295295296 	300.0000000114877 	3.452898255260954e-08 	101325.0000136333
-0.7770270270270272 	300.0000000059341 	1.796219990202036e-08 	101325.0000070838
-0.7745245245245247 	300.0000000030169 	9.248025766518895e-09 	101325.0000036401
-0.7720220220220222 	300.0000000015268 	4.707932088278171e-09 	101325.0000018498
-0.7695195195195199 	300.0000000007525 	2.375306665500147e-09 	101325.0000009289
-0.767017017017017 	300.0000000003803 	1.182070984625184e-09 	101325.0000004604
-0.7645145145145147 	300.000000000207 	5.861569398913641e-10 	101325.0000002247
-0.7620120120120122 	300.0000000001127 	2.829216246431342e-10 	101325.0000001073
-0.7595095095095097 	300.0000000000015 	1.397676558626037e-10 	101325.0000000496
-0.7570070070070072 	299.9999999999803 	6.242292952284245e-11 	101325.0000000215
-0.7545045045045048 	300.0000000000052 	3.223703852232066e-11 	101325.0000000081
-0.7520020020020022 	299.9999999999776 	1.149457640447299e-11 	101325.0000000018
-0.7494994994994997 	299.9999999999732 	6.716902924492607e-12 	101324.9999999986
-0.7469969969969972 	300.0000000000006 	4.274106030963774e-12 	101324.9999999972
-0.7444944944944945 	299.9999999999904 	2.390449304168833e-12 	101324.9999999966
-0.7419919919919924 	299.9999999999907 	2.351474038178051e-12 	101324.9999999963
-0.7394894894894897 	299.9999999999692 	9.851524239921387e-13 	101324.999999996
-0.7369869869869872 	299.9999999999903 	1.754136480157284e-12 	101324.9999999958
-0.7344844844844846 	299.9999999999743 	2.215181312602881e-12 	101324.9999999955
-0.7319819819819822 	300.0000000000047 	1.270657340234341e-12 	101324.9999999953
-0.7294794794794797 	300.0000000000008 	2.301314542376998e-12 	101324.9999999954
-0.7269769769769773 	300.0000000000078 	8.931797799962182e-13 	101324.9999999952
-0.7244744744744747 	300.0000000000138 	1.0701820772553e-12 	101324.999999995
-0.721971971971972 	299.9999999999689 	8.9086988058404e-13 	101324.9999999949
-0.7194694694694695 	299.9999999999866 	1.077602088367531e-12 	101324.999999995
-0.7169669669669674 	299.999999999953 	1.212194108267275e-12 	101324.999999995
-0.7144644644644647 	299.9999999999802 	1.102889857869032e-12 	101324.9999999951
-0.711961961961962 	300.0000000000049 	1.015194290526981e-12 	101324.9999999952
-0.7094594594594597 	300.0000000000167 	7.452684104044939e-13 	101324.9999999952
-0.7069569569569573 	300.0000000000197 	8.711624537249099e-13 	101324.9999999953
-0.7044544544544545 	300.0000000000202 	9.606978498776699e-13 	101324.9999999955
-0.7019519519519523 	300.0000000000086 	4.254202002702812e-13 	101324.9999999957
-0.6994494494494495 	299.9999999999525 	5.530021561240644e-13 	101324.999999996
-0.6969469469469471 	299.9999999999627 	5.521698196022328e-13 	101324.9999999961
-0.6944444444444446 	299.9999999999766 	3.142489620068435e-13 	101324.999999996
-0.6919419419419421 	300.0000000000227 	7.204395522201431e-13 	101324.9999999961
-0.6894394394394396 	299.9999999999973 	4.36639704096896e-13 	101324.9999999959
-0.6869369369369374 	300.0000000000064 	9.191499697031649e-13 	101324.9999999961
-0.6844344344344344 	300.0000000000135 	7.741014023226602e-13 	101324.999999996
-0.6819319319319321 	299.9999999999698 	1.167348424514474e-12 	101324.9999999959
-0.6794294294294296 	299.9999999999583 	6.152356706266411e-13 	101324.9999999956
-0.6769269269269272 	299.9999999999376 	1.384935230137494e-12 	101324.9999999957
-0.6744244244244245 	299.9999999999758 	1.683549572919174e-12 	101324.9999999958
-0.6719219219219222 	299.9999999999678 	1.193916841048731e-12 	101324.9999999956
-0.6694194194194195 	299.9999999999936 	1.874482813737152e-12 	101324.9999999955
-0.6669169169169172 	300.0000000000079 	1.543232095781682e-12 	101324.9999999954
-0.6644144144144146 	299.9999999999744 	2.312335387189235e-12 	101324.9999999954
-0.661911911911912 	299.9999999999789 	2.255724749173323e-12 	101324.9999999954
-0.6594094094094097 	299.9999999999857 	3.553023392831502e-12 	101324.9999999954
-0.656906906906907 	299.9999999999583 	3.231042933986506e-12 	101324.9999999953
-0.6544044044044046 	299.999999999964 	4.344817723920561e-12 	101324.9999999954
-0.6519019019019021 	299.9999999999893 	2.370022942335768e-12 	101324.9999999956
-0.6493993993993996 	300.0000000000176 	3.656534285607535e-12 	101324.9999999955
-0.6468968968968971 	300.0000000000247 	1.925508602377711e-12 	101324.9999999954
-0.6443943943943946 	299.9999999999959 	2.739775132887533e-12 	101324.9999999955
-0.6418918918918921 	299.9999999999974 	1.05497297970099e-12 	101324.9999999953
-0.6393893893893897 	300.000000000002 	2.516056926344391e-12 	101324.9999999953
-0.6368868868868871 	299.9999999999836 	1.913005665101831e-12 	101324.9999999953
-0.6343843843843846 	299.9999999999958 	2.184976556986558e-12 	101324.9999999953
-0.6318818818818821 	299.9999999999677 	1.502509447177599e-12 	101324.9999999953
-0.6293793793793795 	300.0000000000026 	1.180160474837837e-12 	101324.9999999952
-0.6268768768768773 	300.0000000000144 	1.404172057829467e-12 	101324.9999999952
-0.6243743743743745 	299.9999999999847 	6.158917600044339e-13 	101324.9999999952
-0.6218718718718721 	300.0000000000034 	1.26765155825999e-12 	101324.9999999952
-0.6193693693693696 	299.9999999999578 	1.417847978711219e-12 	101324.9999999953
-0.6168668668668671 	299.9999999999883 	1.050849262628099e-12 	101324.9999999953
-0.6143643643643645 	300.0000000000081 	1.057031695604483e-12 	101324.9999999952
-0.6118618618618621 	299.9999999999877 	9.237924337296258e-13 	101324.9999999952
-0.6093593593593596 	299.9999999999885 	3.180439424695076e-13 	101324.9999999951
-0.6068568568568571 	299.9999999999894 	6.977069643736634e-13 	101324.9999999953
-0.6043543543543546 	299.9999999999679 	5.732105430337253e-13 	101324.9999999954
-0.6018518518518521 	299.9999999999771 	1.511289912032013e-12 	101324.9999999953
-0.5993493493493496 	299.999999999961 	1.281098603102127e-12 	101324.9999999952
-0.5968468468468471 	299.9999999999682 	2.811919049637504e-12 	101324.9999999952
-0.5943443443443446 	299.9999999999958 	1.772363258617186e-12 	101324.9999999951
-0.591841841841842 	299.9999999999702 	3.41449016538724e-12 	101324.999999995
-0.5893393393393397 	299.9999999999644 	1.956163359920825e-12 	101324.9999999952
-0.5868368368368371 	299.9999999999968 	4.520486818803729e-12 	101324.9999999954
-0.5843343343343346 	300.0000000000067 	1.507319367348163e-12 	101324.9999999953
-0.5818318318318321 	300.000000000022 	2.876737785874501e-12 	101324.9999999954
-0.5793293293293297 	299.9999999999907 	1.769878001046117e-12 	101324.9999999955
-0.5768268268268271 	299.9999999999994 	2.234269470449156e-12 	101324.9999999956
-0.5743243243243245 	300.0000000000155 	1.084679467741809e-12 	101324.9999999956
-0.5718218218218221 	300.0000000000148 	7.107021730171661e-13 	101324.9999999955
-0.5693193193193196 	300.0000000000291 	3.519270406832971e-13 	101324.9999999951
-0.5668168168168171 	299.9999999999868 	4.655324642758704e-13 	101324.9999999948
-0.5643143143143147 	299.9999999999619 	1.010839251438521e-12 	101324.9999999948
-0.5618118118118121 	300.0000000000067 	6.494837560229869e-13 	101324.9999999948
-0.5593093093093094 	300.0000000000203 	9.379438092376577e-13 	101324.999999995
-0.5568068068068072 	300.0000000000119 	8.983334099743788e-13 	101324.9999999951
-0.5543043043043046 	300.0000000000135 	9.51910912122217e-13 	101324.9999999952
-0.551801801801802 	299.9999999999691 	5.20088187894755e-13 	101324.9999999954
-0.5492992992992995 	299.9999999999981 	1.123564836607112e-12 	101324.9999999956
-0.5467967967967969 	300.0000000000088 	4.910078155116732e-13 	101324.9999999958
-0.5442942942942947 	300.0000000000027 	6.949736486811406e-13 	101324.9999999959
-0.5417917917917919 	299.9999999999696 	4.9164025618751e-13 	101324.999999996
-0.5392892892892895 	299.9999999999541 	1.067921175516366e-12 	101324.999999996
-0.536786786786787 	299.9999999999719 	9.034034832266899e-13 	101324.9999999958
-0.5342842842842846 	299.9999999999773 	1.194864421847969e-12 	101324.9999999956
-0.531781781781782 	299.9999999999614 	1.523540247686901e-12 	101324.9999999955
-0.5292792792792794 	299.9999999999574 	2.208302761009933e-12 	101324.9999999954
-0.526776776776777 	299.9999999999413 	2.729135395450044e-12 	101324.9999999955
-0.5242742742742745 	299.9999999999832 	3.396939420645184e-12 	101324.9999999955
-0.521771771771772 	300.0000000000099 	4.102807980023253e-12 	101324.9999999955
-0.5192692692692695 	299.9999999999715 	4.138587076695578e-12 	101324.9999999956
-0.516766766766767 	300.0000000000029 	4.485994774713209e-12 	101324.9999999956
-0.5142642642642645 	299.9999999999835 	3.532042340592884e-12 	101324.9999999958
-0.511761761761762 	299.9999999999684 	3.791205313775662e-12 	101324.9999999957
-0.5092592592592596 	299.9999999999783 	2.834067066507144e-12 	101324.9999999955
-0.506756756756757 	299.9999999999596 	2.696390827939657e-12 	101324.9999999952
-0.5042542542542544 	299.999999999996 	2.183986480719473e-12 	101324.999999995
-0.5017517517517521 	300.0000000000193 	1.629583923719891e-12 	101324.9999999949
-0.4992492492492494 	300.0000000000207 	1.282203882759139e-12 	101324.9999999948
-0.496746746746747 	299.9999999999936 	1.064446311435152e-12 	101324.9999999948
-0.4942442442442445 	299.9999999999636 	1.487474802520375e-12 	101324.9999999949
-0.4917417417417421 	299.9999999999621 	4.149996953624257e-13 	101324.9999999951
-0.4892392392392395 	299.9999999999746 	1.489670373371581e-12 	101324.9999999953
-0.486736736736737 	299.999999999973 	6.421074741767932e-13 	101324.9999999952
-0.4842342342342345 	299.9999999999467 	1.614576065157819e-12 	101324.9999999952
-0.481731731731732 	300.0000000000223 	1.50796612208244e-12 	101324.9999999951
-0.4792292292292296 	300.0000000000147 	1.959536078083418e-12 	101324.999999995
-0.4767267267267268 	299.9999999999728 	2.339977754154527e-12 	101324.9999999949
-0.4742242242242246 	300.0000000000005 	2.609662163892027e-12 	101324.9999999952
-0.471721721721722 	299.9999999999708 	2.428765389578505e-12 	101324.9999999948
-0.4692192192192195 	299.9999999999812 	1.783223655480003e-12 	101324.9999999947
-0.4667167167167169 	299.9999999999367 	1.504283826419699e-12 	101324.9999999946
-0.4642142142142145 	299.9999999999961 	1.642722712689399e-12 	101324.9999999947
-0.461711711711712 	300.0000000000123 	1.270860917081089e-12 	101324.9999999948
-0.4592092092092094 	300.0000000000079 	1.234310331337765e-12 	101324.999999995
-0.456706706706707 	300.0000000000351 	9.666252858676839e-13 	101324.9999999952
-0.4542042042042045 	299.9999999999598 	3.866483113932571e-13 	101324.9999999954
-0.451701701701702 	299.9999999999676 	4.196271641813249e-13 	101324.9999999953
-0.4491991991991995 	299.999999999975 	1.075209551894862e-12 	101324.9999999951
-0.4466966966966969 	299.999999999973 	3.61884733845067e-13 	101324.999999995
-0.4441941941941945 	299.999999999994 	2.11433560382435e-12 	101324.9999999949
-0.441691691691692 	299.9999999999705 	8.648360398741973e-13 	101324.9999999948
-0.4391891891891895 	299.9999999999887 	2.53138602007427e-12 	101324.9999999946
-0.436686686686687 	299.9999999999769 	2.015458279271781e-12 	101324.9999999944
-0.4341841841841846 	299.9999999999959 	3.187045542530097e-12 	101324.9999999945
-0.431681681681682 	299.9999999999663 	1.826734584556786e-12 	101324.9999999947
-0.4291791791791794 	299.999999999942 	2.270079019457996e-12 	101324.9999999948
-0.426676676676677 	299.9999999999478 	1.125556025281589e-12 	101324.9999999948
-0.4241741741741744 	299.9999999999796 	1.700817040235327e-12 	101324.999999995
-0.421671671671672 	300.0000000000023 	1.021420740920511e-12 	101324.9999999949
-0.4191691691691694 	300.0000000000309 	5.022146978853401e-13 	101324.9999999948
-0.4166666666666669 	300.0000000000363 	1.157013344729289e-12 	101324.9999999949
-0.4141641641641645 	299.9999999999604 	3.810248412836407e-13 	101324.9999999945
-0.411661661661662 	300.0000000000015 	5.827743167061011e-13 	101324.9999999945
-0.4091591591591594 	300.0000000000068 	4.94791556304001e-13 	101324.9999999945
-0.406656656656657 	299.9999999999648 	1.551478884093942e-12 	101324.9999999945
-0.4041541541541545 	300.000000000011 	6.705714744913119e-13 	101324.9999999945
-0.401651651651652 	299.9999999999509 	2.432433680226117e-12 	101324.9999999946
-0.3991491491491494 	300.0000000000024 	9.737397134935971e-13 	101324.9999999949
-0.396646646646647 	299.9999999999712 	3.49487542246213e-12 	101324.999999995
-0.3941441441441444 	299.9999999999818 	1.586795696349462e-12 	101324.9999999951
-0.3916416416416419 	299.9999999999553 	2.908742006499235e-12 	101324.9999999948
-0.3891391391391395 	299.9999999999744 	1.446842185837935e-12 	101324.9999999945
-0.3866366366366368 	299.9999999999717 	2.000758563513776e-12 	101324.9999999945
-0.3841341341341344 	300.0000000000007 	8.375970712875777e-13 	101324.9999999945
-0.381631631631632 	299.999999999971 	1.031751668986427e-12 	101324.9999999946
-0.3791291291291294 	300.0000000000008 	8.555236743871992e-13 	101324.9999999945
-0.3766266266266269 	300.0000000000118 	7.521758776363777e-13 	101324.9999999945
-0.3741241241241244 	300.0000000000138 	2.462926399841189e-12 	101324.9999999946
-0.371621621621622 	300.0000000000135 	7.406514453510068e-13 	101324.9999999947
-0.3691191191191194 	300.000000000005 	3.254453618961921e-12 	101324.9999999946
-0.366616616616617 	300.0000000000038 	8.108576429207418e-13 	101324.9999999947
-0.3641141141141143 	299.9999999999815 	3.36306303130174e-12 	101324.9999999945
-0.3616116116116119 	299.9999999999629 	1.803166799901911e-12 	101324.9999999944
-0.3591091091091095 	299.9999999999893 	3.044706445709602e-12 	101324.9999999946
-0.356606606606607 	299.9999999999927 	1.952120528976173e-12 	101324.9999999945
-0.3541041041041044 	299.9999999999962 	1.410885445086648e-12 	101324.9999999947
-0.3516016016016019 	300.0000000000132 	1.689148396280783e-12 	101324.9999999947
-0.3490990990990994 	299.9999999999949 	4.260323733072913e-13 	101324.9999999945
-0.346596596596597 	300.0000000000236 	2.240040517498361e-12 	101324.9999999942
-0.3440940940940944 	300.0000000000288 	6.867164663773748e-13 	101324.9999999939
-0.3415915915915919 	300.000000000016 	2.11825062129227e-12 	101324.9999999939
-0.3390890890890895 	299.9999999999885 	8.534434278929664e-13 	101324.999999994
-0.3365865865865869 	300.0000000000116 	2.287740547726474e-12 	101324.9999999937
-0.3340840840840844 	299.9999999999976 	2.194958624262373e-12 	101324.9999999938
-0.3315815815815819 	300.0000000000139 	3.486867462868366e-12 	101324.9999999939
-0.3290790790790794 	300.0000000000151 	3.903188372770617e-12 	101324.9999999943
-0.3265765765765769 	299.9999999999558 	4.517349456083404e-12 	101324.9999999943
-0.3240740740740744 	299.9999999999998 	3.045886336597898e-12 	101324.9999999942
-0.3215715715715718 	300.0000000000081 	3.730109722832546e-12 	101324.9999999944
-0.3190690690690695 	299.9999999999611 	2.608804978876856e-12 	101324.9999999943
-0.3165665665665668 	299.9999999999921 	3.730875630799797e-12 	101324.999999994
-0.3140640640640644 	299.9999999999999 	2.289874295427219e-12 	101324.9999999943
-0.311561561561562 	299.9999999999545 	4.657206372149091e-12 	101324.9999999945
-0.3090590590590593 	299.9999999999934 	1.698161128214968e-12 	101324.9999999942
-0.3065565565565568 	300.0000000000001 	6.243107783052405e-12 	101324.9999999941
-0.3040540540540545 	299.9999999999989 	1.950288922440379e-12 	101324.9999999941