/*--------------------------------*- C++ -*----------------------------------*\
  =========                 |
  \\      /  F ield         | OpenFOAM: The Open Source CFD Toolbox
   \\    /   O peration     | Website:  https://openfoam.org
    \\  /    A nd           | Version:  7
     \\/     M anipulation  |
\*---------------------------------------------------------------------------*/
FoamFile
{
    version     2.0;
    format      ascii;
    class       volScalarField;
    location    "0.00151";
    object      Ux;
}
// * * * * * * * * * * * * * * * * * * * * * * * * * * * * * * * * * * * * * //

dimensions      [0 1 -1 0 0 0 0];

internalField   nonuniform List<scalar> 
5000
(
10.601833
10.750758
10.929391
10.976527
11.011604
11.065224
11.135984
11.210144
11.275372
11.340714
11.407299
11.474532
11.541548
11.608407
11.675325
11.742314
11.809333
11.876359
11.943395
12.010447
12.077511
12.144582
12.211657
12.278734
12.34581
12.412882
12.479947
12.547003
12.614046
12.681075
12.748085
12.815074
12.88204
12.948979
13.015889
13.082766
13.149608
13.216412
13.283174
13.349892
13.416564
13.483185
13.549754
13.616266
13.682719
13.749111
13.815437
13.881695
13.947882
14.013995
14.080031
14.145986
14.211858
14.277644
14.34334
14.408943
14.474451
14.539859
14.605165
14.670367
14.735459
14.800441
14.865307
14.930056
14.994683
15.059186
15.123562
15.187807
15.251918
15.315892
15.379726
15.443416
15.506959
15.570352
15.633592
15.696675
15.759599
15.822359
15.884953
15.947377
16.009629
16.071704
16.1336
16.195314
16.256841
16.318179
16.379324
16.440274
16.501025
16.561573
16.621915
16.682049
16.74197
16.801676
16.861163
16.920428
16.979468
17.038279
17.096859
17.155203
17.21331
17.271174
17.328794
17.386167
17.443288
17.500154
17.556764
17.613112
17.669197
17.725015
17.780562
17.835837
17.890835
17.945554
17.99999
18.054141
18.108004
18.161575
18.214851
18.26783
18.320509
18.372884
18.424953
18.476713
18.528162
18.579295
18.630111
18.680607
18.73078
18.780628
18.830147
18.879335
18.92819
18.976709
19.024889
19.072728
19.120224
19.167374
19.214176
19.260627
19.306726
19.35247
19.397857
19.442885
19.487551
19.531854
19.575792
19.619362
19.662564
19.705395
19.747853
19.789937
19.831644
19.872975
19.913926
19.954497
19.994686
20.034491
20.073912
20.112948
20.151596
20.189857
20.227728
20.26521
20.302301
20.339
20.375307
20.411221
20.446741
20.481867
20.516599
20.550936
20.584877
20.618423
20.651574
20.684329
20.716688
20.748652
20.78022
20.811393
20.842172
20.872555
20.902545
20.932142
20.961346
20.990158
21.018578
21.046608
21.074249
21.101501
21.128366
21.154845
21.180939
21.206649
21.231977
21.256925
21.281494
21.305685
21.3295
21.352942
21.376012
21.398711
21.421042
21.443008
21.464609
21.485849
21.50673
21.527254
21.547423
21.56724
21.586707
21.605828
21.624604
21.643039
21.661135
21.678895
21.696323
21.71342
21.73019
21.746637
21.762762
21.77857
21.794064
21.809246
21.82412
21.83869
21.852958
21.866928
21.880605
21.89399
21.907087
21.919901
21.932435
21.944691
21.956675
21.968389
21.979837
21.991023
22.00195
22.012623
22.023044
22.033218
22.043149
22.052839
22.062293
22.071515
22.080508
22.089276
22.097822
22.106152
22.114267
22.122172
22.129871
22.137367
22.144665
22.151767
22.158677
22.165399
22.171937
22.178294
22.184474
22.19048
22.196316
22.201985
22.207491
22.212838
22.218028
22.223065
22.227952
22.232694
22.237292
22.24175
22.246072
22.250261
22.254319
22.25825
22.262057
22.265743
22.269311
22.272764
22.276104
22.279335
22.28246
22.28548
22.2884
22.291221
22.293946
22.296578
22.29912
22.301573
22.303941
22.306225
22.308429
22.310554
22.312602
22.314576
22.316479
22.318312
22.320077
22.321776
22.323412
22.324987
22.326501
22.327958
22.329358
22.330705
22.331999
22.333242
22.334436
22.335583
22.336684
22.33774
22.338754
22.339726
22.340658
22.341552
22.342408
22.343229
22.344015
22.344768
22.345488
22.346178
22.346837
22.347468
22.348072
22.348648
22.349199
22.349726
22.350228
22.350708
22.351166
22.351603
22.35202
22.352417
22.352796
22.353157
22.353501
22.353828
22.35414
22.354436
22.354718
22.354986
22.355241
22.355484
22.355714
22.355932
22.35614
22.356337
22.356523
22.3567
22.356868
22.357027
22.357178
22.35732
22.357455
22.357583
22.357703
22.357817
22.357925
22.358026
22.358122
22.358212
22.358297
22.358378
22.358453
22.358524
22.358591
22.358653
22.358712
22.358767
22.358819
22.358867
22.358912
22.358954
22.358993
22.35903
22.359063
22.359095
22.359123
22.35915
22.359174
22.359197
22.359217
22.359235
22.359252
22.359267
22.359279
22.35929
22.359299
22.359308
22.359318
22.359328
22.359328
22.359332
22.359351
22.359365
22.359365
22.359372
22.359394
22.359409
22.359413
22.35942
22.359444
22.359466
22.359473
22.359478
22.359499
22.359525
22.35954
22.359549
22.359567
22.359591
22.35961
22.359623
22.359637
22.359657
22.359676
22.359689
22.359702
22.35972
22.359739
22.359755
22.359768
22.359782
22.359797
22.35981
22.359823
22.359834
22.359844
22.359854
22.359863
22.35987
22.359875
22.359881
22.359893
22.359902
22.359903
22.359907
22.359923
22.359936
22.359939
22.359942
22.359963
22.359982
22.359989
22.359995
22.360012
22.360032
22.360046
22.360055
22.360068
22.360087
22.360104
22.360113
22.360125
22.360143
22.360162
22.360177
22.36019
22.360206
22.360224
22.360239
22.36025
22.360264
22.36028
22.360294
22.360306
22.360318
22.360333
22.360347
22.360359
22.360372
22.360385
22.360398
22.360411
22.360423
22.360435
22.360447
22.360458
22.360469
22.360479
22.360489
22.360499
22.360509
22.360518
22.360526
22.360534
22.360541
22.360549
22.360555
22.360562
22.360569
22.360575
22.360579
22.360584
22.360595
22.360603
22.360604
22.360609
22.360622
22.360632
22.360635
22.360639
22.360654
22.360665
22.360668
22.36067
22.360683
22.360698
22.360705
22.360707
22.360718
22.360732
22.36074
22.360742
22.360751
22.360765
22.360774
22.360777
22.360783
22.360795
22.360807
22.360814
22.360819
22.360828
22.36084
22.360847
22.360852
22.360859
22.36087
22.360879
22.360883
22.360888
22.360898
22.360907
22.360913
22.360917
22.360925
22.360934
22.360939
22.360943
22.36095
22.360959
22.360966
22.360971
22.360976
22.360984
22.360992
22.360999
22.361005
22.361012
22.361021
22.361028
22.361035
22.361043
22.361051
22.361059
22.361066
22.361073
22.361081
22.36109
22.361097
22.361104
22.361112
22.361121
22.36113
22.361139
22.361149
22.36116
22.361172
22.361185
22.361198
22.361213
22.361217
22.361219
22.361223
22.361226
22.36123
22.361233
22.361237
22.361241
22.361247
22.361254
22.361262
22.36127
22.361272
22.361276
22.361281
22.361282
22.361282
22.361283
22.361285
22.361286
22.361287
22.36129
22.361296
22.361297
22.361294
22.361291
22.36129
22.36129
22.361293
22.361294
22.361293
22.361296
22.3613
22.361304
22.361309
22.361315
22.361317
22.361319
22.361323
22.361327
22.361331
22.361337
22.361343
22.361347
22.36135
22.361353
22.361356
22.36136
22.361363
22.361368
22.361372
22.361377
22.361383
22.36139
22.361397
22.361404
22.361406
22.361407
22.361411
22.361417
22.361416
22.361412
22.361411
22.361412
22.361414
22.361417
22.361421
22.361429
22.361428
22.361419
22.361408
22.36141
22.361411
22.361415
22.361416
22.361413
22.361411
22.361414
22.361412
22.361403
22.361401
22.361405
22.361404
22.361399
22.361393
22.361393
22.36139
22.361382
22.36138
22.361381
22.361377
22.36137
22.36137
22.361371
22.361369
22.361367
22.361367
22.361367
22.361368
22.36137
22.361373
22.361375
22.361378
22.361381
22.361384
22.361388
22.361391
22.361395
22.361399
22.361403
22.361407
22.361412
22.361418
22.361423
22.361428
22.361431
22.361431
22.361432
22.361434
22.361436
22.361437
22.361437
22.361438
22.361439
22.36144
22.36144
22.361441
22.361442
22.361442
22.361441
22.361439
22.361439
22.361439
22.361438
22.361437
22.361434
22.361431
22.361431
22.361431
22.36143
22.361428
22.361424
22.361419
22.361417
22.361416
22.361416
22.361416
22.361416
22.361416
22.361416
22.361414
22.361411
22.361408
22.361407
22.361405
22.361402
22.361401
22.361399
22.361397
22.361393
22.361392
22.361391
22.361389
22.361385
22.361381
22.36138
22.361379
22.361377
22.361373
22.361368
22.361366
22.361366
22.361365
22.361362
22.361358
22.361355
22.361353
22.361353
22.361352
22.361351
22.361348
22.361345
22.361341
22.36134
22.36134
22.361339
22.361338
22.361336
22.361334
22.361332
22.36133
22.361328
22.361327
22.361325
22.361322
22.36132
22.361319
22.361317
22.361315
22.361312
22.36131
22.361309
22.361307
22.361304
22.3613
22.361297
22.361296
22.361295
22.361293
22.36129
22.361287
22.361284
22.361281
22.361277
22.361276
22.361275
22.361273
22.361271
22.361268
22.361264
22.361261
22.361258
22.361257
22.361256
22.361254
22.361251
22.361248
22.361245
22.361243
22.361242
22.36124
22.361238
22.361235
22.361234
22.361232
22.36123
22.361228
22.361226
22.361225
22.361224
22.361223
22.361221
22.361219
22.361217
22.361215
22.361214
22.361214
22.361214
22.361212
22.361211
22.361209
22.361207
22.361206
22.361206
22.361205
22.361204
22.361201
22.361201
22.361201
22.3612
22.361198
22.361196
22.361194
22.361193
22.361193
22.361192
22.361191
22.361189
22.361187
22.361187
22.361186
22.361185
22.361183
22.361181
22.36118
22.361179
22.361178
22.361178
22.361177
22.361175
22.361173
22.361171
22.361171
22.36117
22.361168
22.361166
22.361165
22.361164
22.361163
22.361161
22.36116
22.361159
22.361157
22.361155
22.361153
22.361151
22.36115
22.361149
22.361148
22.361146
22.361144
22.361142
22.361141
22.361139
22.361137
22.361135
22.361133
22.361132
22.361131
22.361129
22.361127
22.361125
22.361122
22.361121
22.36112
22.361119
22.361117
22.361114
22.361112
22.361111
22.36111
22.361108
22.361107
22.361105
22.361103
22.361101
22.3611
22.361099
22.361098
22.361096
22.361094
22.361093
22.361091
22.36109
22.361089
22.361088
22.361086
22.361085
22.361084
22.361083
22.361081
22.361079
22.361077
22.361077
22.361076
22.361075
22.361074
22.361072
22.36107
22.361069
22.361068
22.361067
22.361066
22.361064
22.361062
22.361061
22.36106
22.361059
22.361058
22.361056
22.361054
22.361053
22.361052
22.361051
22.361049
22.361048
22.361046
22.361045
22.361044
22.361042
22.361041
22.361039
22.361038
22.361036
22.361036
22.361035
22.361033
22.361032
22.36103
22.361029
22.361028
22.361027
22.361026
22.361025
22.361023
22.361022
22.36102
22.361019
22.361018
22.361018
22.361016
22.361015
22.361014
22.361012
22.36101
22.36101
22.361009
22.361008
22.361007
22.361005
22.361004
22.361002
22.361001
22.361
22.360998
22.360997
22.360996
22.360994
22.360993
22.360991
22.36099
22.360988
22.360987
22.360985
22.360984
22.360982
22.360981
22.360979
22.360977
22.360975
22.360974
22.360972
22.360971
22.360969
22.360967
22.360965
22.360964
22.360962
22.360961
22.360959
22.360957
22.360956
22.360954
22.360953
22.360951
22.360949
22.360948
22.360946
22.360945
22.360944
22.360942
22.360941
22.360939
22.360938
22.360937
22.360935
22.360934
22.360932
22.360931
22.36093
22.360929
22.360928
22.360927
22.360926
22.360925
22.360924
22.360923
22.360922
22.360921
22.360921
22.36092
22.36092
22.360919
22.360918
22.360917
22.360916
22.360916
22.360916
22.360915
22.360915
22.360914
22.360913
22.360913
22.360912
22.360912
22.360912
22.360912
22.360911
22.360911
22.36091
22.36091
22.36091
22.360909
22.360909
22.360908
22.360908
22.360908
22.360907
22.360907
22.360907
22.360906
22.360906
22.360906
22.360905
22.360905
22.360904
22.360904
22.360903
22.360903
22.360902
22.360902
22.360902
22.360901
22.3609
22.3609
22.360899
22.360898
22.360898
22.360897
22.360897
22.360896
22.360895
22.360894
22.360894
22.360893
22.360892
22.360891
22.36089
22.360889
22.360889
22.360888
22.360886
22.360885
22.360884
22.360884
22.360883
22.360881
22.36088
22.360879
22.360878
22.360877
22.360876
22.360874
22.360873
22.360872
22.36087
22.360869
22.360868
22.360867
22.360865
22.360864
22.360862
22.360861
22.360859
22.360858
22.360856
22.360855
22.360853
22.360852
22.36085
22.360848
22.360847
22.360845
22.360843
22.360842
22.36084
22.360838
22.360836
22.360835
22.360833
22.360831
22.36083
22.360828
22.360826
22.360824
22.360822
22.36082
22.360818
22.360817
22.360815
22.360813
22.360811
22.360809
22.360807
22.360805
22.360804
22.360802
22.3608
22.360798
22.360796
22.360795
22.360793
22.360791
22.360789
22.360788
22.360786
22.360785
22.360783
22.360781
22.36078
22.360779
22.360777
22.360776
22.360774
22.360773
22.360772
22.360771
22.36077
22.360768
22.360767
22.360766
22.360765
22.360764
22.360763
22.360762
22.360761
22.36076
22.36076
22.360759
22.360759
22.360758
22.360757
22.360756
22.360756
22.360755
22.360755
22.360755
22.360754
22.360754
22.360753
22.360753
22.360753
22.360752
22.360752
22.360752
22.360752
22.360751
22.360751
22.360751
22.360751
22.360751
22.36075
22.36075
22.36075
22.36075
22.36075
22.36075
22.36075
22.360749
22.360749
22.360749
22.360749
22.360749
22.360748
22.360748
22.360748
22.360748
22.360748
22.360747
22.360747
22.360747
22.360747
22.360746
22.360746
22.360745
22.360745
22.360745
22.360744
22.360744
22.360743
22.360743
22.360743
22.360742
22.360742
22.360741
22.36074
22.36074
22.360739
22.360739
22.360738
22.360737
22.360737
22.360736
22.360735
22.360735
22.360734
22.360733
22.360732
22.360732
22.360731
22.36073
22.360729
22.360728
22.360728
22.360727
22.360726
22.360725
22.360724
22.360723
22.360722
22.360721
22.36072
22.360719
22.360718
22.360717
22.360716
22.360715
22.360714
22.360713
22.360712
22.360711
22.36071
22.360709
22.360708
22.360706
22.360705
22.360704
22.360703
22.360702
22.360701
22.3607
22.360698
22.360697
22.360697
22.360696
22.360695
22.360693
22.360692
22.360691
22.36069
22.360689
22.360688
22.360687
22.360686
22.360684
22.360683
22.360682
22.360681
22.36068
22.360679
22.360678
22.360677
22.360676
22.360675
22.360674
22.360673
22.360672
22.360671
22.36067
22.360669
22.360668
22.360667
22.360666
22.360665
22.360664
22.360663
22.360662
22.360661
22.36066
22.360659
22.360658
22.360657
22.360657
22.360656
22.360655
22.360654
22.360653
22.360652
22.360651
22.360651
22.36065
22.360649
22.360648
22.360647
22.360646
22.360645
22.360645
22.360644
22.360643
22.360642
22.360641
22.360641
22.36064
22.360639
22.360638
22.360638
22.360637
22.360636
22.360635
22.360634
22.360634
22.360633
22.360632
22.360632
22.360631
22.36063
22.360629
22.360629
22.360628
22.360627
22.360627
22.360626
22.360625
22.360625
22.360624
22.360624
22.360623
22.360622
22.360622
22.360621
22.36062
22.36062
22.360619
22.360619
22.360618
22.360617
22.360617
22.360616
22.360616
22.360616
22.360615
22.360614
22.360614
22.360613
22.360613
22.360612
22.360612
22.360611
22.36061
22.36061
22.360609
22.360609
22.360608
22.360608
22.360607
22.360607
22.360606
22.360605
22.360605
22.360604
22.360604
22.360603
22.360602
22.360602
22.360601
22.360601
22.3606
22.360599
22.360599
22.360598
22.360597
22.360597
22.360596
22.360595
22.360594
22.360594
22.360593
22.360592
22.360592
22.360591
22.36059
22.360589
22.360588
22.360588
22.360587
22.360586
22.360585
22.360584
22.360584
22.360583
22.360582
22.360581
22.360581
22.36058
22.360579
22.360578
22.360577
22.360577
22.360576
22.360575
22.360574
22.360573
22.360573
22.360572
22.360571
22.36057
22.36057
22.360569
22.360568
22.360568
22.360567
22.360566
22.360566
22.360565
22.360564
22.360564
22.360563
22.360562
22.360562
22.360561
22.36056
22.36056
22.360559
22.360559
22.360558
22.360558
22.360557
22.360557
22.360556
22.360556
22.360555
22.360555
22.360554
22.360554
22.360553
22.360553
22.360552
22.360552
22.360552
22.360551
22.360551
22.36055
22.36055
22.36055
22.360549
22.360549
22.360548
22.360548
22.360548
22.360547
22.360547
22.360547
22.360546
22.360546
22.360545
22.360545
22.360545
22.360545
22.360544
22.360544
22.360543
22.360543
22.360543
22.360542
22.360542
22.360542
22.360541
22.360541
22.36054
22.36054
22.36054
22.36054
22.360539
22.360539
22.360538
22.360538
22.360537
22.360537
22.360537
22.360536
22.360535
22.360535
22.360534
22.360534
22.360533
22.360533
22.360532
22.360532
22.360531
22.36053
22.36053
22.36053
22.360529
22.360528
22.360527
22.360527
22.360526
22.360525
22.360525
22.360524
22.360523
22.360523
22.360522
22.360521
22.36052
22.360519
22.360519
22.360518
22.360517
22.360516
22.360515
22.360514
22.360513
22.360512
22.360511
22.36051
22.360509
22.360508
22.360508
22.360507
22.360506
22.360505
22.360503
22.360502
22.360501
22.3605
22.360499
22.360498
22.360497
22.360496
22.360495
22.360494
22.360493
22.360492
22.360491
22.36049
22.360489
22.360488
22.360487
22.360486
22.360484
22.360483
22.360482
22.360481
22.36048
22.360479
22.360478
22.360477
22.360476
22.360475
22.360474
22.360473
22.360472
22.360471
22.36047
22.360469
22.360469
22.360468
22.360467
22.360466
22.360465
22.360464
22.360464
22.360463
22.360462
22.360461
22.360461
22.36046
22.360459
22.360458
22.360458
22.360457
22.360457
22.360456
22.360455
22.360455
22.360454
22.360454
22.360453
22.360453
22.360452
22.360452
22.360451
22.360451
22.36045
22.36045
22.36045
22.360449
22.360449
22.360449
22.360448
22.360448
22.360448
22.360447
22.360447
22.360447
22.360447
22.360446
22.360446
22.360446
22.360446
22.360446
22.360445
22.360445
22.360445
22.360445
22.360444
22.360444
22.360444
22.360444
22.360444
22.360443
22.360443
22.360443
22.360443
22.360443
22.360443
22.360442
22.360442
22.360442
22.360442
22.360441
22.360441
22.360441
22.360441
22.36044
22.36044
22.36044
22.360439
22.360439
22.360439
22.360439
22.360438
22.360438
22.360437
22.360437
22.360437
22.360436
22.360436
22.360435
22.360435
22.360434
22.360434
22.360433
22.360433
22.360432
22.360432
22.360431
22.360431
22.36043
22.36043
22.360429
22.360428
22.360428
22.360427
22.360426
22.360426
22.360425
22.360425
22.360424
22.360423
22.360422
22.360422
22.360421
22.36042
22.36042
22.360419
22.360418
22.360417
22.360417
22.360416
22.360415
22.360414
22.360413
22.360413
22.360412
22.360411
22.360411
22.36041
22.360409
22.360408
22.360407
22.360407
22.360406
22.360405
22.360404
22.360404
22.360403
22.360402
22.360402
22.360401
22.3604
22.360399
22.360399
22.360398
22.360397
22.360397
22.360396
22.360395
22.360394
22.360394
22.360393
22.360392
22.360392
22.360391
22.36039
22.360389
22.360389
22.360388
22.360388
22.360387
22.360387
22.360386
22.360385
22.360384
22.360384
22.360383
22.360383
22.360382
22.360382
22.360381
22.36038
22.36038
22.360379
22.360378
22.360378
22.360377
22.360377
22.360376
22.360376
22.360375
22.360374
22.360374
22.360373
22.360373
22.360372
22.360372
22.360371
22.360371
22.36037
22.360369
22.360369
22.360368
22.360368
22.360367
22.360367
22.360366
22.360366
22.360365
22.360365
22.360364
22.360364
22.360363
22.360363
22.360362
22.360361
22.360361
22.360361
22.36036
22.360359
22.360359
22.360358
22.360358
22.360358
22.360357
22.360357
22.360356
22.360356
22.360355
22.360355
22.360354
22.360354
22.360354
22.360353
22.360352
22.360352
22.360351
22.360351
22.360351
22.360351
22.36035
22.36035
22.360349
22.360349
22.360348
22.360348
22.360348
22.360347
22.360347
22.360347
22.360346
22.360346
22.360345
22.360345
22.360345
22.360345
22.360344
22.360344
22.360344
22.360343
22.360343
22.360343
22.360342
22.360342
22.360342
22.360342
22.360341
22.360341
22.360341
22.36034
22.36034
22.36034
22.360339
22.360339
22.360339
22.360339
22.360338
22.360338
22.360338
22.360337
22.360337
22.360337
22.360336
22.360336
22.360336
22.360336
22.360335
22.360335
22.360335
22.360334
22.360334
22.360334
22.360333
22.360333
22.360333
22.360332
22.360332
22.360332
22.360331
22.360331
22.36033
22.36033
22.36033
22.360329
22.360329
22.360329
22.360328
22.360328
22.360327
22.360327
22.360327
22.360326
22.360326
22.360325
22.360325
22.360324
22.360324
22.360323
22.360323
22.360323
22.360322
22.360322
22.360321
22.360321
22.36032
22.36032
22.360319
22.360319
22.360319
22.360318
22.360318
22.360317
22.360316
22.360316
22.360315
22.360315
22.360315
22.360314
22.360314
22.360313
22.360312
22.360312
22.360311
22.360311
22.36031
22.36031
22.360309
22.360309
22.360308
22.360308
22.360307
22.360306
22.360306
22.360305
22.360305
22.360304
22.360304
22.360303
22.360303
22.360302
22.360301
22.360301
22.3603
22.3603
22.360299
22.360299
22.360298
22.360297
22.360297
22.360296
22.360296
22.360295
22.360295
22.360294
22.360294
22.360293
22.360292
22.360292
22.360291
22.360291
22.36029
22.36029
22.360289
22.360288
22.360288
22.360287
22.360287
22.360286
22.360286
22.360285
22.360284
22.360284
22.360283
22.360283
22.360282
22.360282
22.360281
22.36028
22.36028
22.360279
22.360279
22.360278
22.360278
22.360277
22.360277
22.360276
22.360276
22.360275
22.360275
22.360274
22.360273
22.360273
22.360272
22.360272
22.360271
22.360271
22.36027
22.36027
22.360269
22.360269
22.360268
22.360268
22.360267
22.360267
22.360266
22.360266
22.360265
22.360265
22.360264
22.360264
22.360263
22.360263
22.360262
22.360262
22.360261
22.360261
22.36026
22.36026
22.360259
22.360259
22.360258
22.360258
22.360258
22.360257
22.360257
22.360256
22.360256
22.360255
22.360255
22.360254
22.360254
22.360253
22.360253
22.360253
22.360252
22.360252
22.360251
22.360251
22.36025
22.36025
22.36025
22.360249
22.360249
22.360248
22.360248
22.360247
22.360247
22.360247
22.360246
22.360246
22.360245
22.360245
22.360245
22.360244
22.360244
22.360243
22.360243
22.360242
22.360242
22.360241
22.360241
22.360241
22.36024
22.36024
22.360239
22.360239
22.360238
22.360238
22.360238
22.360237
22.360237
22.360236
22.360236
22.360235
22.360235
22.360234
22.360234
22.360233
22.360233
22.360232
22.360232
22.360231
22.360231
22.36023
22.36023
22.360229
22.360229
22.360228
22.360228
22.360227
22.360227
22.360226
22.360226
22.360225
22.360224
22.360224
22.360223
22.360223
22.360222
22.360222
22.360221
22.360221
22.36022
22.360219
22.360219
22.360218
22.360217
22.360217
22.360217
22.360216
22.360215
22.360215
22.360214
22.360213
22.360213
22.360212
22.360212
22.360211
22.360211
22.36021
22.360209
22.360209
22.360208
22.360208
22.360207
22.360207
22.360206
22.360205
22.360205
22.360204
22.360204
22.360203
22.360202
22.360202
22.360201
22.360201
22.3602
22.3602
22.360199
22.360199
22.360198
22.360197
22.360197
22.360196
22.360196
22.360195
22.360195
22.360194
22.360194
22.360193
22.360192
22.360192
22.360192
22.360191
22.36019
22.36019
22.360189
22.360189
22.360188
22.360188
22.360187
22.360187
22.360186
22.360186
22.360185
22.360185
22.360185
22.360184
22.360184
22.360183
22.360183
22.360182
22.360182
22.360181
22.360181
22.36018
22.36018
22.36018
22.360179
22.360179
22.360178
22.360178
22.360177
22.360177
22.360177
22.360176
22.360176
22.360175
22.360175
22.360175
22.360174
22.360174
22.360173
22.360173
22.360173
22.360172
22.360172
22.360171
22.360171
22.360171
22.36017
22.36017
22.360169
22.360169
22.360169
22.360168
22.360168
22.360167
22.360167
22.360167
22.360166
22.360166
22.360166
22.360165
22.360165
22.360164
22.360164
22.360164
22.360163
22.360163
22.360163
22.360162
22.360162
22.360161
22.360161
22.360161
22.36016
22.36016
22.36016
22.360159
22.360159
22.360159
22.360158
22.360158
22.360157
22.360157
22.360157
22.360156
22.360156
22.360156
22.360155
22.360155
22.360154
22.360154
22.360154
22.360154
22.360153
22.360153
22.360152
22.360152
22.360152
22.360151
22.360151
22.360151
22.36015
22.36015
22.36015
22.360149
22.360149
22.360149
22.360148
22.360148
22.360148
22.360148
22.360147
22.360147
22.360146
22.360146
22.360146
22.360146
22.360145
22.360145
22.360145
22.360145
22.360144
22.360144
22.360144
22.360143
22.360143
22.360143
22.360143
22.360142
22.360142
22.360142
22.360142
22.360141
22.360141
22.360141
22.360141
22.36014
22.36014
22.36014
22.36014
22.360139
22.360139
22.360139
22.360139
22.360139
22.360138
22.360138
22.360138
22.360138
22.360137
22.360137
22.360137
22.360137
22.360137
22.360136
22.360136
22.360136
22.360136
22.360136
22.360135
22.360135
22.360135
22.360135
22.360135
22.360134
22.360134
22.360134
22.360134
22.360133
22.360133
22.360133
22.360133
22.360133
22.360132
22.360132
22.360132
22.360131
22.360131
22.360131
22.360131
22.360131
22.36013
22.36013
22.36013
22.360129
22.360129
22.360129
22.360129
22.360128
22.360128
22.360128
22.360128
22.360127
22.360127
22.360127
22.360126
22.360126
22.360126
22.360125
22.360125
22.360125
22.360124
22.360124
22.360124
22.360123
22.360123
22.360123
22.360122
22.360122
22.360122
22.360121
22.360121
22.36012
22.36012
22.36012
22.360119
22.360119
22.360119
22.360118
22.360118
22.360117
22.360117
22.360116
22.360116
22.360116
22.360115
22.360115
22.360114
22.360114
22.360113
22.360113
22.360112
22.360112
22.360111
22.360111
22.36011
22.36011
22.36011
22.360109
22.360109
22.360108
22.360108
22.360107
22.360107
22.360106
22.360105
22.360105
22.360104
22.360104
22.360104
22.360103
22.360102
22.360102
22.360101
22.360101
22.3601
22.3601
22.360099
22.360099
22.360098
22.360098
22.360097
22.360096
22.360096
22.360095
22.360095
22.360094
22.360094
22.360093
22.360093
22.360092
22.360091
22.360091
22.36009
22.36009
22.360089
22.360089
22.360088
22.360088
22.360087
22.360087
22.360086
22.360085
22.360085
22.360084
22.360084
22.360083
22.360083
22.360082
22.360082
22.360081
22.36008
22.36008
22.360079
22.360079
22.360078
22.360078
22.360077
22.360077
22.360076
22.360075
22.360075
22.360074
22.360074
22.360073
22.360073
22.360072
22.360072
22.360071
22.360071
22.36007
22.36007
22.360069
22.360069
22.360068
22.360068
22.360067
22.360067
22.360066
22.360066
22.360065
22.360065
22.360064
22.360064
22.360063
22.360063
22.360062
22.360062
22.360061
22.360061
22.36006
22.36006
22.36006
22.360059
22.360059
22.360058
22.360058
22.360057
22.360057
22.360056
22.360056
22.360056
22.360055
22.360055
22.360054
22.360054
22.360053
22.360053
22.360053
22.360052
22.360052
22.360051
22.360051
22.36005
22.36005
22.36005
22.360049
22.360049
22.360049
22.360048
22.360048
22.360047
22.360047
22.360047
22.360046
22.360046
22.360045
22.360045
22.360045
22.360044
22.360044
22.360044
22.360043
22.360043
22.360042
22.360042
22.360042
22.360041
22.360041
22.360041
22.36004
22.36004
22.360039
22.360039
22.360039
22.360038
22.360038
22.360038
22.360037
22.360037
22.360037
22.360036
22.360036
22.360035
22.360035
22.360035
22.360034
22.360034
22.360034
22.360033
22.360033
22.360033
22.360032
22.360032
22.360031
22.360031
22.360031
22.36003
22.36003
22.36003
22.360029
22.360029
22.360029
22.360028
22.360028
22.360027
22.360027
22.360027
22.360026
22.360026
22.360026
22.360025
22.360025
22.360025
22.360024
22.360024
22.360024
22.360023
22.360023
22.360023
22.360022
22.360022
22.360022
22.360021
22.360021
22.360021
22.36002
22.36002
22.360019
22.360019
22.360019
22.360018
22.360018
22.360018
22.360017
22.360017
22.360016
22.360016
22.360015
22.360015
22.360015
22.360015
22.360014
22.360014
22.360014
22.360013
22.360013
22.360013
22.360012
22.360012
22.360012
22.360012
22.360012
22.360011
22.360011
22.36001
22.36001
22.36001
22.36001
22.360009
22.360009
22.360008
22.360008
22.360007
22.360007
22.360006
22.360005
22.360004
22.360004
22.360004
22.360004
22.360004
22.360005
22.360006
22.360007
22.360008
22.360009
22.360008
22.360007
22.360005
22.360001
22.359996
22.35999
22.359983
22.359978
22.359975
22.359977
22.359986
22.360006
22.360044
22.360119
22.36029
22.360672
22.361847
22.361607
22.360091
22.359725
22.359966
22.359999
22.35995
22.359929
22.35993
22.359933
22.359939
22.35995
22.359962
22.359975
22.359986
22.359996
22.360004
22.36001
22.360014
22.360017
22.360019
22.36002
22.36002
22.36002
22.36002
22.360019
22.360019
22.360018
22.360018
22.360017
22.360017
22.360017
22.360016
22.360016
22.360016
22.360016
22.360015
22.360011
22.360007
22.360011
22.360016
22.360015
22.360014
22.360014
22.360014
22.360014
22.360014
22.360013
22.360013
22.360013
22.360012
22.360012
22.360012
22.360012
22.360011
22.360011
22.360011
22.36001
22.36001
22.36001
22.360009
22.360009
22.360008
22.360008
22.360008
22.360007
22.360007
22.360007
22.360006
22.360006
22.360006
22.360005
22.360005
22.360004
22.360004
22.360003
22.360003
22.360003
22.360002
22.360002
22.360001
22.360001
22.36
22.36
22.359999
22.359999
22.359998
22.359998
22.359997
22.359997
22.359996
22.359996
22.359996
22.359995
22.359995
22.359994
22.359994
22.359993
22.359993
22.359992
22.359992
22.359992
22.359991
22.359991
22.35999
22.35999
22.359989
22.359989
22.359988
22.359988
22.359988
22.359987
22.359987
22.359986
22.359986
22.359986
22.359985
22.359985
22.359984
22.359984
22.359984
22.359983
22.359983
22.359982
22.359982
22.359982
22.359981
22.359981
22.35998
22.35998
22.35998
22.359979
22.359979
22.359979
22.359978
22.359978
22.359978
22.359977
22.359977
22.359976
22.359976
22.359976
22.359975
22.359975
22.359975
22.359974
22.359974
22.359974
22.359973
22.359973
22.359972
22.359972
22.359972
22.359971
22.359971
22.359971
22.35997
22.35997
22.35997
22.359969
22.359969
22.359969
22.359968
22.359968
22.359968
22.359967
22.359967
22.359966
22.359966
22.359966
22.359965
22.359965
22.359965
22.359964
22.359964
22.359964
22.359963
22.359963
22.359962
22.359962
22.359962
22.359961
22.359961
22.35996
22.35996
22.35996
22.359959
22.359959
22.359958
22.359958
22.359958
22.359957
22.359957
22.359956
22.359956
22.359956
22.359955
22.359955
22.359954
22.359954
22.359953
22.359953
22.359953
22.359952
22.359952
22.359951
22.359951
22.35995
22.35995
22.359949
22.359949
22.359948
22.359948
22.359947
22.359947
22.359947
22.359946
22.359946
22.359945
22.359945
22.359944
22.359944
22.359943
22.359943
22.359942
22.359942
22.359941
22.359941
22.35994
22.35994
22.359939
22.359939
22.359938
22.359938
22.359938
22.359937
22.359937
22.359936
22.359936
22.359935
22.359935
22.359934
22.359934
22.359933
22.359933
22.359932
22.359932
22.359931
22.359931
22.35993
22.35993
22.35993
22.359929
22.359929
22.359928
22.359928
22.359927
22.359927
22.359926
22.359926
22.359925
22.359925
22.359925
22.359924
22.359924
22.359923
22.359923
22.359922
22.359922
22.359921
22.359921
22.359921
22.35992
22.35992
22.359919
22.359919
22.359918
22.359918
22.359918
22.359917
22.359917
22.359916
22.359916
22.359915
22.359915
22.359915
22.359914
22.359914
22.359913
22.359913
22.359913
22.359912
22.359912
22.359911
22.359911
22.359911
22.35991
22.35991
22.359909
22.359909
22.359909
22.359908
22.359908
22.359907
22.359907