-1.25 	287.5655056417508 	0.0008377982690362942 	101325.0100530964
-1.247497497497497 	299.9895476320087 	0.0008421544688394963 	101325.0242067605
-1.244994994994995 	300.0010968835907 	0.0009353283081010722 	101325.0119920706
-1.242492492492492 	300.000025668283 	0.001019145836880613 	101325.0229879772
-1.23998998998999 	300.0000105402493 	0.001086700836995065 	101325.0124604843
-1.237487487487487 	300.0000187018937 	0.001137582926863878 	101325.0220920921
-1.234984984984985 	300.0000106580687 	0.001162557154399902 	101325.0126180875
-1.232482482482482 	300.0000150438236 	0.001155596357239922 	101325.0177629558
-1.22997997997998 	300.0000125052798 	0.001131739123040174 	101325.0148032846
-1.227477477477477 	300.0000158014113 	0.001092849983375785 	101325.0186609561
-1.224974974974975 	300.0000134296399 	0.001052904019124431 	101325.0158962477
-1.222472472472472 	300.0000157082677 	0.001007647351040749 	101325.018555885
-1.21996996996997 	300.0000131030029 	0.0009618555679752141 	101325.0155114742
-1.217467467467467 	300.0000151665166 	0.0009105053617325441 	101325.0179135906
-1.214964964964965 	300.0000134484939 	0.0008606553890802394 	101325.0159164011
-1.212462462462462 	300.0000146847334 	0.0008061625368744101 	101325.0173412157
-1.20995995995996 	300.0000128462628 	0.0007553570862704016 	101325.0152031675
-1.207457457457457 	300.000014395777 	0.000701398345597277 	101325.0170037661
-1.204954954954955 	300.0000122697126 	0.0006510547277022998 	101325.0145258823
-1.202452452452452 	300.0000138189758 	0.0005960687847137839 	101325.0163202618
-1.19994994994995 	300.000012046493 	0.0005455870930678554 	101325.0142588911
-1.197447447447447 	300.0000136049323 	0.000489197754502997 	101325.0160637358
-1.194944944944945 	300.0000123550525 	0.0004391695772723879 	101325.01462017
-1.192442442442442 	300.0000132046616 	0.0003824771323246284 	101325.0155924533
-1.18993993993994 	300.0000126353 	0.000333222346370159 	101325.0149589642
-1.187437437437437 	300.0000131239246 	0.0002777740872780482 	101325.0155019334
-1.184934934934935 	300.0000129118023 	0.0002324439288846134 	101325.0152856391
-1.182432432432432 	300.0000134061536 	0.000180254863181642 	101325.0158311175
-1.17992992992993 	300.0000130605698 	0.0001388653822281698 	101325.0154561718
-1.177427427427427 	300.0000133592737 	9.067551345507774e-05 	101325.0157735183
-1.174924924924925 	300.0000130218001 	5.326528486091558e-05 	101325.015410904
-1.172422422422422 	300.0000131374787 	5.65766917204074e-05 	101325.0155126106
-1.16991991991992 	300.0000129144507 	2.377110313530679e-05 	101325.0152846512
-1.167417417417417 	300.0000128573568 	6.346475871694883e-05 	101325.015186093
-1.164914914914915 	300.0000126890117 	9.153354559666804e-05 	101325.0150173361
-1.162412412412412 	300.0000124662945 	0.0001263403311717437 	101325.0147205113
-1.15990990990991 	300.0000124151114 	0.0001494409866301643 	101325.0146919928
-1.157407407407407 	300.0000120530314 	0.0001792115886524195 	101325.0142337992
-1.154904904904904 	300.00001219076 	0.0001967753248127825 	101325.0144263853
-1.152402402402403 	300.0000117206489 	0.0002211390421993734 	101325.013843368
-1.1498998998999 	300.0000120003229 	0.000232413922267963 	101325.0142014175
-1.147397397397397 	300.0000114998048 	0.0002506035919512799 	101325.0135848151
-1.144894894894895 	300.0000118258978 	0.0002543432705432465 	101325.0139930736
-1.142392392392392 	300.0000114425717 	0.0002620639126513517 	101325.0135154019
-1.13988988988989 	300.0000115657397 	0.0002525692967976751 	101325.0136824234
-1.137387387387387 	300.0000113507569 	0.0002521365374551775 	101325.0134079313
-1.134884884884885 	300.000011415534 	0.0002390951813548775 	101325.0135024702
-1.132382382382382 	300.0000111982001 	0.000237033970499039 	101325.0132290024
-1.12987987987988 	300.0000112296557 	0.0002227550895437729 	101325.0132878258
-1.127377377377377 	300.0000109955415 	0.0002200230004790503 	101325.0129909182
-1.124874874874875 	300.0000110047983 	0.0002051776357803069 	101325.0130173479
-1.122372372372372 	300.0000107547618 	0.0002022124993619947 	101325.0127081351
-1.11986986986987 	300.000010764991 	0.0001870712184635669 	101325.0127332297
-1.117367367367367 	300.0000105353679 	0.0001841986761121444 	101325.0124480618
-1.114864864864865 	300.0000105550798 	0.0001689319423063433 	101325.0124843156
-1.112362362362362 	300.0000103391648 	0.000166323588195282 	101325.0122184444
-1.10985985985986 	300.000010357443 	0.0001511132201243838 	101325.0122509353
-1.107357357357357 	300.0000101508753 	0.0001488718124952141 	101325.0119962761
-1.104854854854855 	300.0000101665518 	0.0001338325457543107 	101325.0120230508
-1.102352352352353 	300.0000099744232 	0.0001320609959565007 	101325.011786681
-1.09984984984985 	300.0000099874847 	0.0001172695786338317 	101325.0118093784
-1.097347347347347 	300.0000098099203 	0.0001160419510046525 	101325.0115918861
-1.094844844844845 	300.000009815558 	0.0001015752847867333 	101325.0116056007
-1.092342342342342 	300.0000096475595 	0.0001009337288685574 	101325.0114022945
-1.08983983983984 	300.000009640718 	8.686496242171131e-05 	101325.0114009059
-1.087337337337337 	300.0000094808133 	8.683306695611725e-05 	101325.0112073032
-1.084834834834835 	300.0000094618161 	7.321863845662264e-05 	101325.0111885678
-1.082332332332332 	300.0000093122572 	7.382449274380168e-05 	101325.011007551
-1.07982982982983 	300.0000092857272 	6.068313294957974e-05 	101325.010978429
-1.077327327327327 	300.0000091539977 	6.196966036480758e-05 	101325.0108194771
-1.074824824824825 	300.0000091242622 	4.93029916415671e-05 	101325.0107866517
-1.072322322322323 	300.0000090089056 	5.128938009358331e-05 	101325.0106485299
-1.06981981981982 	300.0000089695915 	3.913000938685193e-05 	101325.0106039763
-1.067317317317317 	300.000008856739 	4.177920507165581e-05 	101325.0104689775
-1.064814814814815 	300.0000087940665 	3.019262275957389e-05 	101325.0103959856
-1.062312312312312 	300.0000086689898 	3.343389070325046e-05 	101325.0102471295
-1.05980980980981 	300.0000085767711 	2.260410590032209e-05 	101325.0101392932
-1.057307307307307 	300.0000084394414 	2.634784992784538e-05 	101325.0099768448
-1.054804804804805 	300.000008329157 	2.253517683841165e-05 	101325.0098471322
-1.052302302302302 	300.000008197421 	2.50541237064733e-05 	101325.0096906799
-1.0497997997998 	300.0000080937412 	2.238955576373328e-05 	101325.0095683824
-1.047297297297297 	300.0000079913535 	2.398815520792419e-05 	101325.0094474648
-1.044794794794795 	300.0000079183912 	2.230654080447608e-05 	101325.0093613758
-1.042292292292292 	300.0000078576775 	2.324295530087411e-05 	101325.0092894574
-1.03978978978979 	300.0000078147986 	2.231467158804457e-05 	101325.0092386688
-1.037287287287287 	300.0000077754333 	2.274422482367005e-05 	101325.0091916643
-1.034784784784785 	300.000007731501 	2.227237027806678e-05 	101325.0091394164
-1.032282282282283 	300.0000076716076 	2.226807214003417e-05 	101325.009068897
-1.02977977977978 	300.0000075882246 	2.197358601481237e-05 	101325.0089704746
-1.027277277277277 	300.0000074800973 	2.16213607690009e-05 	101325.0088426248
-1.024774774774775 	300.0000073495766 	2.134491805390127e-05 	101325.0086880775
-1.022272272272272 	300.0000072070775 	2.081158266483244e-05 	101325.0085195843
-1.01976976976977 	300.0000070627873 	2.052467472040542e-05 	101325.0083494685
-1.017267267267267 	300.000006929553 	2.004240749587841e-05 	101325.0081927942
-1.014764764764765 	300.0000068155292 	1.976200145261306e-05 	101325.0080584188
-1.012262262262262 	300.000006725787 	1.9489433153104e-05 	101325.0079519441
-1.00975975975976 	300.0000066591409 	1.929543832762233e-05 	101325.007872222
-1.007257257257257 	300.0000066089826 	1.914341028520734e-05 	101325.0078121558
-1.004754754754755 	300.0000065650538 	1.901118129440149e-05 	101325.0077602518
-1.002252252252252 	300.0000065161431 	1.886803601479758e-05 	101325.0077033038
-0.9997497497497498 	300.0000064536612 	1.868618083517809e-05 	101325.0076301739
-0.9972472472472473 	300.000006373137 	1.845331971012221e-05 	101325.0075347122
-0.9947447447447449 	300.0000062740826 	1.816536838569401e-05 	101325.0074164728
-0.9922422422422421 	300.0000061602401 	1.783467877568749e-05 	101325.0072807424
-0.9897397397397399 	300.0000060386687 	1.74870163544669e-05 	101325.0071371018
-0.9872372372372376 	300.0000059186809 	1.714648147060883e-05 	101325.0069966301
-0.9847347347347346 	300.0000058097169 	1.683803671367631e-05 	101325.0068694858
-0.9822322322322323 	300.0000057178917 	1.657348247016234e-05 	101325.0067614776
-0.9797297297297296 	300.0000056430396 	1.634920402448788e-05 	101325.0066720491
-0.9772272272272275 	300.0000055794364 	1.615762046186561e-05 	101325.0065952412
-0.9747247247247248 	300.0000055180701 	1.597553275519483e-05 	101325.006521615
-0.9722222222222224 	300.0000054502518 	1.577898954672941e-05 	101325.006441776
-0.9697197197197196 	300.0000053711668 	1.555436930274353e-05 	101325.0063495314
-0.9672172172172175 	300.0000052794282 	1.529145120241262e-05 	101325.0062424684
-0.9647147147147147 	300.0000051770127 	1.499610629934567e-05 	101325.0061220829
-0.9622122122122124 	300.0000050683423 	1.468250489867976e-05 	101325.0059933624
-0.9597097097097099 	300.0000049587101 	1.436377043799931e-05 	101325.0058628099
-0.9572072072072073 	300.0000048531182 	1.405713757517248e-05 	101325.0057368315
-0.9547047047047047 	300.0000047547406 	1.37695069585624e-05 	101325.0056194268
-0.9522022022022023 	300.0000046635222 	1.350130211381103e-05 	101325.0055110515
-0.9496996996996998 	300.0000045783468 	1.325474898252252e-05 	101325.0054101877
-0.9471971971971973 	300.0000044973108 	1.302080440741804e-05 	101325.0053142849
-0.9446946946946947 	300.0000044182652 	1.279180104928579e-05 	101325.0052208709
-0.9421921921921923 	300.0000043399577 	1.256467822895695e-05 	101325.0051281541
-0.93968968968969 	300.0000042606267 	1.233210682661937e-05 	101325.0050341952
-0.9371871871871872 	300.0000041782116 	1.209366297778503e-05 	101325.0049367729
-0.9346846846846848 	300.0000040914564 	1.184547953059305e-05 	101325.0048344834
-0.9321821821821823 	300.0000040004202 	1.158322649852914e-05 	101325.0047272405
-0.9296796796796799 	300.0000039062782 	1.131288392183401e-05 	101325.0046163221
-0.9271771771771771 	300.0000038099853 	1.103374673530543e-05 	101325.0045029432
-0.9246746746746748 	300.0000037119208 	1.074765174982751e-05 	101325.004387326
-0.9221721721721724 	300.0000036119462 	1.045852452598572e-05 	101325.0042692925
-0.9196696696696698 	300.0000035083651 	1.015902432460217e-05 	101325.0041469753
-0.9171671671671672 	300.0000033998616 	9.845522341420644e-06 	101325.0040187201
-0.9146646646646649 	300.0000032883482 	9.52292279638818e-06 	101325.0038866283
-0.9121621621621623 	300.0000031773309 	9.200578181379904e-06 	101325.003755144
-0.9096596596596597 	300.0000030706815 	8.894778667602995e-06 	101325.0036290483
-0.9071571571571573 	300.0000029738597 	8.617685352248375e-06 	101325.0035145034
-0.9046546546546547 	300.0000028929126 	8.383076105919831e-06 	101325.0034188101
-0.9021521521521524 	300.0000028323927 	8.207971191745217e-06 	101325.0033474902
-0.8996496496496498 	300.0000027913873 	8.085289617538584e-06 	101325.0032991569
-0.8971471471471473 	300.0000027602734 	7.9904172662702e-06 	101325.0032624543
-0.894644644644645 	300.0000027261665 	7.890432075536876e-06 	101325.003222282
-0.892142142142142 	300.0000026776268 	7.747304459706744e-06 	101325.0031651067
-0.8896396396396397 	300.0000026055133 	7.536417870222637e-06 	101325.0030800464
-0.8871371371371374 	300.0000025042015 	7.242169706783024e-06 	101325.0029605405
-0.8846346346346349 	300.0000023744728 	6.867486012903796e-06 	101325.0028071862
-0.8821321321321324 	300.0000022268453 	6.448686312934291e-06 	101325.0026325185
-0.8796296296296297 	300.0000020807074 	6.032982543863687e-06 	101325.0024596726
-0.8771271271271271 	300.0000019543432 	5.668043476019701e-06 	101325.0023103123
-0.8746246246246248 	300.0000018558869 	5.382297900318737e-06 	101325.0021939002
-0.8721221221221224 	300.0000017825776 	5.16619969813183e-06 	101325.0021072064
-0.8696196196196196 	300.0000017251525 	4.998081252973797e-06 	101325.002039263
-0.8671171171171175 	300.0000016764619 	4.857212682891211e-06 	101325.0019816147
-0.8646146146146148 	300.0000016329918 	4.728671612511754e-06 	101325.0019304332
-0.8621121121121121 	300.0000015905819 	4.603215158695678e-06 	101325.0018804754
-0.8596096096096097 	300.0000015407165 	4.454350839011364e-06 	101325.0018215484
-0.857107107107107 	300.0000014705632 	4.24656389219154e-06 	101325.0017385625
-0.8546046046046049 	300.0000013693301 	3.953961567809325e-06 	101325.0016186389
-0.8521021021021022 	300.0000012349083 	3.567425312924311e-06 	101325.0014596025
-0.8495995995995997 	300.0000010769167 	3.114511007181834e-06 	101325.0012730094
-0.8470970970970974 	300.0000009137693 	2.651195090065063e-06 	101325.0010805309
-0.8445945945945946 	300.0000007677285 	2.235018372366516e-06 	101325.0009079386
-0.8420920920920922 	300.0000006558165 	1.915574463694959e-06 	101325.000775255
-0.8395895895895897 	300.0000005854761 	1.712313237191111e-06 	101325.0006916957
-0.8370870870870872 	300.0000005536164 	1.612667955031412e-06 	101325.0006537819
-0.8345845845845846 	300.0000005451013 	1.580779108600553e-06 	101325.0006437807
-0.8320820820820823 	300.0000005378325 	1.554837746473622e-06 	101325.0006356336
-0.8295795795795798 	300.0000005125684 	1.477666341306411e-06 	101325.0006062571
-0.8270770770770772 	300.0000004564031 	1.312972465703016e-06 	101325.0005400382
-0.8245745745745746 	300.0000003648127 	1.046826246423735e-06 	101325.0004317868
-0.8220720720720721 	300.000000242735 	6.944492698791206e-07 	101325.0002872296
-0.8195695695695699 	300.0000000983552 	2.832510610366553e-07 	101325.0001162598
-0.817067067067067 	299.9999999467407 	2.462553857223677e-07 	101324.9999369504
-0.8145645645645651 	299.9999998007935 	5.713150785130004e-07 	101324.9997644511
-0.8120620620620621 	299.9999996739234 	9.343164746408884e-07 	101324.9996144059
-0.8095595595595597 	299.9999995773653 	1.210916174957317e-06 	101324.9995003481
-0.8070570570570572 	299.9999995159685 	1.388659946491799e-06 	101324.9994280388
-0.8045545545545546 	299.9999994859426 	1.480397429354971e-06 	101324.9993925936
-0.8020520520520523 	299.9999994740568 	1.523093994147408e-06 	101324.9993781121
-0.7995495495495494 	299.9999994615408 	1.567374583169091e-06 	101324.9993626962
-0.7970470470470474 	299.9999994309659 	1.660920558453285e-06 	101324.9993261855
-0.7945445445445446 	299.9999993712305 	1.834850194817781e-06 	101324.9992556492
-0.7920420420420423 	299.9999992799166 	2.095580652208493e-06 	101324.9991484425
-0.7895395395395397 	299.9999991641536 	2.423763320856322e-06 	101324.9990127111
-0.7870370370370371 	299.99999903741 	2.783891846528855e-06 	101324.9988637234
-0.7845345345345348 	299.9999989134249 	3.139414084191431e-06 	101324.9987171735
-0.7820320320320323 	299.9999988014683 	3.464808223792305e-06 	101324.9985838258
-0.7795295295295296 	299.9999987048008 	3.748392684455723e-06 	101324.9984681945
-0.7770270270270272 	299.9999986233382 	3.987682253011084e-06 	101324.9983706753
-0.7745245245245247 	299.9999985563506 	4.182057273654001e-06 	101324.9982910672
-0.7720220220220222 	299.9999985049201 	4.328956539821909e-06 	101324.9982307123
-0.7695195195195199 	299.9999984706373 	4.425907698775404e-06 	101324.9981912959
-0.767017017017017 	299.9999984527441 	4.477784032108412e-06 	101324.9981711973
-0.7645145145145147 	299.999998444733 	4.504223181789592e-06 	101324.9981622904
-0.7620120120120122 	299.9999984338393 	4.54075844840043e-06 	101324.9981496609
-0.7595095095095097 	299.9999984040766 	4.630793869683792e-06 	101324.9981149451
-0.7570070070070072 	299.9999983420402 	4.811188587413547e-06 	101324.9980423563
-0.7545045045045048 	299.9999982424073 	5.095316622913811e-06 	101324.9979255899
-0.7520020020020022 	299.9999981123433 	5.462600308327121e-06 	101324.9977729208
-0.7494994994994997 	299.9999979714254 	5.860894233713018e-06 	101324.9976066773
-0.7469969969969972 	299.999997844212 	6.223479077054973e-06 	101324.9974555574
-0.7444944944944945 	299.9999977512156 	6.492292797925028e-06 	101324.9973442531
-0.7419919919919924 	299.9999977024078 	6.638708118959702e-06 	101324.9972849707
-0.7394894894894897 	299.9999976932716 	6.673349727501641e-06 	101324.9972731414
-0.7369869869869872 	299.9999977076924 	6.640419245687183e-06 	101324.9972896785
-0.7344844844844846 	299.9999977241907 	6.598892330230707e-06 	101324.9973093667
-0.7319819819819822 	299.9999977245528 	6.600643417114711e-06 	101324.9973102824
-0.7294794794794797 	299.9999976981381 	6.675801222682992e-06 	101324.9972798372
-0.7269769769769773 	299.9999976435965 	6.829924949106166e-06 	101324.9972161687
-0.7244744744744747 	299.9999975660418 	7.050573570189694e-06 	101324.9971251403
-0.721971971971972 	299.999997473457 	7.315412176784763e-06 	101324.9970158986
-0.7194694694694695 	299.9999973746771 	7.600673305139511e-06 	101324.996898279
-0.7169669669669674 	299.9999972781155 	7.880943384196085e-06 	101324.9967825544
-0.7144644644644647 	299.9999971934821 	8.127153585251327e-06 	101324.9966803108
-0.711961961961962 	299.9999971306675 	8.31027686611951e-06 	101324.9966041684
-0.7094594594594597 	299.999997097945 	8.405653914890532e-06 	101324.9965645857
-0.7069569569569573 	299.9999970981099 	8.406659795031075e-06 	101324.9965649281
-0.7044544544544545 	299.9999971248988 	8.332788753319558e-06 	101324.9965974918
-0.7019519519519523 	299.9999971624828 	8.228915104581719e-06 	101324.9966430985
-0.6994494494494495 	299.9999971894891 	8.155903364256676e-06 	101324.9966761589
-0.6969469469469471 	299.9999971864828 	8.167333503652834e-06 	101324.9966732586
-0.6944444444444446 	299.9999971423273 	8.293390096768515e-06 	101324.9966215388
-0.6919419419419421 	299.999997059449 	8.527156508869273e-06 	101324.9965239389
-0.6894394394394396 	299.9999969531134 	8.824775224208441e-06 	101324.9963988795
-0.6869369369369374 	299.999996846596 	9.124045443216148e-06 	101324.9962735142
-0.6844344344344344 	299.9999967622157 	9.361135765486763e-06 	101324.9961742033
-0.6819319319319321 	299.9999967148378 	9.495554723543967e-06 	101324.9961185363
-0.6794294294294296 	299.9999967085702 	9.517142408435752e-06 	101324.9961109656
-0.6769269269269272 	299.9999967362549 	9.443141971465152e-06 	101324.9961431926
-0.6744244244244245 	299.9999967839291 	9.313973335544848e-06 	101324.9961986005
-0.6719219219219222 	299.9999968346305 	9.173884444546889e-06 	101324.9962577757
-0.6694194194194195 	299.9999968735111 	9.066309464977086e-06 	101324.9963031447
-0.6669169169169172 	299.9999968893538 	9.023182215535859e-06 	101324.9963218679
-0.6644144144144146 	299.9999968765101 	9.058975765350959e-06 	101324.9963072754
-0.661911911911912 	299.9999968354899 	9.17446631990172e-06 	101324.9962594586
-0.6594094094094097 	299.9999967725239 	9.35096730933892e-06 	101324.9961854966
-0.656906906906907 	299.999996698601 	9.559496112418995e-06 	101324.9960982252
-0.6544044044044046 	299.999996627699 	9.760892095079352e-06 	101324.9960141348
-0.6519019019019021 	299.9999965744632 	9.911635483760192e-06 	101324.9959507098
-0.6493993993993996 	299.9999965511438 	9.97809719259906e-06 	101324.9959227361
-0.6468968968968971 	299.9999965642332 	9.940645488704572e-06 	101324.9959380053
-0.6443943943943946 	299.9999966120038 	9.806575563152755e-06 	101324.9959942758
-0.6418918918918921 	299.9999966837123 	9.606932936190607e-06 	101324.9960785305
-0.6393893893893897 	299.9999967619652 	9.388815991428878e-06 	101324.9961702759
-0.6368868868868871 	299.9999968278951 	9.205222236090445e-06 	101324.9962475511
-0.6343843843843846 	299.9999968659168 	9.098479564495303e-06 	101324.9962923142
-0.6318818818818821 	299.99999686716 	9.09308068147113e-06 	101324.9962944437
-0.6293793793793795 	299.9999968326163 	9.186964958471616e-06 	101324.9962546173
-0.6268768768768773 	299.9999967726736 	9.351576667395746e-06 	101324.996184857
-0.6243743743743745 	299.9999967054272 	9.538028731550746e-06 	101324.9961059116
-0.6218718718718721 	299.9999966510983 	9.689553144942875e-06 	101324.996041525
-0.6193693693693696 	299.9999966258471 	9.759705983576286e-06 	101324.9960115115
-0.6168668668668671 	299.9999966393564 	9.720865216987032e-06 	101324.9960270233
-0.6143643643643645 	299.9999966917653 	9.571588202777708e-06 	101324.9960889127
-0.6118618618618621 	299.9999967758625 	9.332071562167804e-06 	101324.996188794
-0.6093593593593596 	299.9999968792391 	9.036990230495267e-06 	101324.9963114817
-0.6068568568568571 	299.9999969865618 	8.731424339937125e-06 	101324.9964385099
-0.6043543543543546 	299.9999970827555 	8.45749923327074e-06 	101324.9965518068
-0.6018518518518521 	299.9999971561599 	8.249187946953172e-06 	101324.9966376766
-0.5993493493493496 	299.999997200617 	8.123150045276031e-06 	101324.9966893639
-0.5968468468468471 	299.9999972165025 	8.076328538380512e-06 	101324.9967077351
-0.5943443443443446 	299.9999972093082 	8.094025110038856e-06 	101324.9966993807
-0.591841841841842 	299.9999971872825 	8.152598032516551e-06 	101324.9966741019
-0.5893393393393397 	299.9999971596807 	8.227561907313882e-06 	101324.9966423006
-0.5868368368368371 	299.9999971351885 	8.295111715806257e-06 	101324.9966138517
-0.5843343343343346 	299.9999971210423 	8.333305912114004e-06 	101324.9965973886
-0.5818318318318321 	299.9999971231987 	8.325629748477787e-06 	101324.9965999574
-0.5793293293293297 	299.9999971455002 	8.259964405677928e-06 	101324.9966264316
-0.5768268268268271 	299.9999971898208 	8.13243629801022e-06 	101324.9966787388
-0.5743243243243245 	299.9999972540535 	7.949230122984798e-06 	101324.9967544297
-0.5718218218218221 	299.9999973320981 	7.727543022828305e-06 	101324.9968462074
-0.5693193193193196 	299.9999974151659 	7.492497914914394e-06 	101324.9969435247
-0.5668168168168171 	299.9999974943174 	7.267275882699563e-06 	101324.9970361785
-0.5643143143143147 	299.9999975646715 	7.065341622076647e-06 	101324.9971184145
-0.5618118118118121 	299.9999976266391 	6.886247205725505e-06 	101324.9971907766
-0.5593093093093094 	299.9999976840154 	6.718807717828918e-06 	101324.9972582935
-0.5568068068068072 	299.9999977418315 	6.549264720431236e-06 	101324.9973270145
-0.5543043043043046 	299.9999978037663 	6.367467070974108e-06 	101324.9974011155
-0.551801801801802 	299.9999978707312 	6.170414059327887e-06 	101324.9974816556
-0.5492992992992995 	299.9999979421742 	5.961426130209659e-06 	101324.9975672448
-0.5467967967967969 	299.9999980155262 	5.748200508072127e-06 	101324.9976548823
-0.5442942942942947 	299.999998087464 	5.539693476733327e-06 	101324.997740527
-0.5417917917917919 	299.9999981552908 	5.341871988633818e-06 	101324.9978211097
-0.5392892892892895 	299.9999982187615 	5.156594962254418e-06 	101324.9978962465
-0.536786786786787 	299.9999982795267 	4.979003748376185e-06 	101324.9979680164
-0.5342842842842846 	299.9999983406908 	4.800618077121233e-06 	101324.9980402577
-0.531781781781782 	299.999998405375 	4.613854999985571e-06 	101324.9981165829
-0.5292792792792794 	299.9999984749301 	4.4129239395311e-06 	101324.998198361
-0.526776776776777 	299.9999985493555 	4.198417131683122e-06 	101324.9982856618
-0.5242742742742745 	299.9999986285239 	3.972800499438217e-06 	101324.9983781947
-0.521771771771772 	299.9999987110498 	3.737425387929637e-06 	101324.9984746382
-0.5192692692692695 	299.9999987954921 	3.496156386019914e-06 	101324.9985735475
-0.516766766766767 	299.9999988803892 	3.252689657626771e-06 	101324.9986729338
-0.5142642642642645 	299.9999989630417 	3.014144291905268e-06 	101324.9987700393
-0.511761761761762 	299.9999990425039 	2.784535589456699e-06 	101324.9988636386
-0.5092592592592596 	299.9999991194937 	2.56197256131213e-06 	101324.9989546559
-0.506756756756757 	299.9999991951143 	2.340602003935505e-06 	101324.9990446522
-0.5042542542542544 	299.9999992725327 	2.111760452120857e-06 	101324.9991369729
-0.5017517517517521 	299.9999993537657 	1.87386037144551e-06 	101324.9992340961
-0.4992492492492494 	299.9999994389244 	1.625446562941215e-06 	101324.9993359764
-0.496746746746747 	299.9999995273222 	1.366674133129281e-06 	101324.9994416775
-0.4942442442442445 	299.9999996189757 	1.100076133012202e-06 	101324.9995510132
-0.4917417417417421 	299.9999997130201 	8.240758124712638e-07 	101324.9996629206
-0.4892392392392395 	299.9999998095166 	5.433604898882297e-07 	101324.9997774413
-0.486736736736737 	299.9999999069477 	2.629414258886527e-07 	101324.9998929039
-0.4842342342342345 	300.0000000021391 	9.237064594484377e-08 	101325.0000055711
-0.481731731731732 	300.000000092391 	2.722707754284573e-07 	101325.0001119396
-0.4792292292292296 	300.0000001782812 	5.223563992778046e-07 	101325.0002132439
-0.4767267267267268 	300.000000265007 	7.745756140852387e-07 	101325.0003155795
-0.4742242242242246 	300.0000003566106 	1.038743413872629e-06 	101325.000423431
-0.471721721721722 	300.0000004525024 	1.314959116395926e-06 	101325.000536538
-0.4692192192192195 	300.0000005504422 	1.597347823130396e-06 	101325.0006519922
-0.4667167167167169 	300.0000006487758 	1.882077711079023e-06 	101325.0007680933
-0.4642142142142145 	300.0000007483249 	2.169629059648909e-06 	101325.000885365
-0.461711711711712 	300.0000008490661 	2.460431211871143e-06 	101325.001004251
-0.4592092092092094 	300.0000009497397 	2.750902872804818e-06 	101325.0011231333
-0.456706706706707 	300.000001048325 	3.035990456110111e-06 	101325.0012395255
-0.4542042042042045 	300.0000011442925 	3.315360970498178e-06 	101325.0013531347
-0.451701701701702 	300.0000012406478 	3.595595581529188e-06 	101325.001466987
-0.4491991991991995 	300.0000013403924 	3.884615191125423e-06 	101325.001584839
-0.4466966966966969 	300.0000014440577 	4.183523413664903e-06 	101325.0017072989
-0.4441941941941945 	300.0000015486074 	4.484170850137408e-06 	101325.0018306587
-0.441691691691692 	300.0000016494313 	4.775485554525695e-06 	101325.001949815
-0.4391891891891895 	300.0000017449908 	5.052902147156612e-06 	101325.0020626609
-0.436686686686687 	300.0000018373761 	5.322497545649847e-06 	101325.0021719654
-0.4341841841841846 	300.000001931367 	5.59619043168813e-06 	101325.002283145
-0.431681681681682 	300.0000020301919 	5.883233490765725e-06 	101325.0024002345
-0.4291791791791794 	300.000002134492 	6.185084854369079e-06 	101325.0025237135
-0.426676676676677 	300.0000022424032 	6.497115788371822e-06 	101325.0026514072
-0.4241741741741744 	300.000002351733 	6.812682899829041e-06 	101325.0027805196
-0.421671671671672 	300.0000024600216 	7.124950054346739e-06 	101325.0029083421
-0.4191691691691694 	300.0000025646239 	7.426341808172391e-06 	101325.0030317375
-0.4166666666666669 	300.0000026628571 	7.71019256388946e-06 	101325.0031476445
-0.4141641641641645 	300.0000027540984 	7.97605646617444e-06 	101325.0032555896
-0.411661661661662 	300.0000028424303 	8.233746653493094e-06 	101325.003359789
-0.4091591591591594 	300.0000029334994 	8.499214905247584e-06 	101325.0034674508
-0.406656656656657 	300.0000030315863 	8.783339071904692e-06 	101325.0035835555
-0.4041541541541545 	300.000003135925 	9.083544884013685e-06 	101325.0037068415
-0.401651651651652 	300.0000032410235 	9.387503538900772e-06 	101325.0038314569
-0.3991491491491494 	300.0000033437796 	9.685858488672116e-06 	101325.0039530369
-0.396646646646647 	300.0000034447512 	9.98072988523045e-06 	101325.004072786
-0.3941441441441444 	300.0000035477489 	1.028005489562749e-05 	101325.0041948558
-0.3916416416416419 	300.0000036530047 	1.058409695227309e-05 	101325.0043197308
-0.3891391391391395 	300.000003755717 	1.087967700183911e-05 	101325.0044413702
-0.3866366366366368 	300.0000038494416 	1.115130982182376e-05 	101325.0045523059
-0.3841341341341344 	300.0000039339408 	1.139878325636869e-05 	101325.0046521006
-0.381631631631632 	300.0000040167409 	1.16420364555066e-05 	101325.0047498701
-0.3791291291291294 	300.0000041076456 	1.190514319592421e-05 	101325.004856875
-0.3766266266266269 	300.0000042086667 	1.219372522975187e-05 	101325.0049758265
-0.3741241241241244 	300.000004312289 	1.248879797378417e-05 	101325.0050978467
-0.371621621621622 	300.0000044083009 	1.27649535564872e-05 	101325.005210957
-0.3691191191191194 	300.0000044941594 	1.301592096584586e-05 	101325.005312123
-0.366616616616617 	300.0000045777209 	1.326153704613665e-05 	101325.0054106886
-0.3641141141141143 	300.0000046694211 	1.352806076568231e-05 	101325.0055191059
-0.3616116116116119 	300.0000047715278 	1.382026500153562e-05 	101325.0056398422
-0.3591091091091095 	300.0000048745147 	1.411385771499704e-05 	101325.005761654
-0.356606606606607 	300.0000049655756 	1.437684524889584e-05 	101325.0058695636
-0.3541041041041044 	300.000005041233 	1.460029831588266e-05 	101325.0059592696
-0.3516016016016019 	300.0000051109388 	1.48083105494074e-05 	101325.0060419569
-0.3490990990990994 	300.0000051886354 	1.503613538446222e-05 	101325.0061341196
-0.346596596596597 	300.000005279575 	1.529650366099509e-05 	101325.0062417803
-0.3440940940940944 	300.0000053746315 	1.556662831562629e-05 	101325.0063543277
-0.3415915915915919 	300.0000054592188 	1.580984601260169e-05 	101325.0064544897
-0.3390890890890895 	300.0000055277729 	1.601267150317704e-05 	101325.0065356321
-0.3365865865865869 	300.0000055909216 	1.620248234474849e-05 	101325.0066101692
-0.3340840840840844 	300.0000056669898 	1.642657295170095e-05 	101325.0067000636
-0.3315815815815819 	300.0000057657764 	1.670858980799923e-05 	101325.0068167369
-0.3290790790790794 	300.0000058767355 	1.702032413114899e-05 	101325.006947851
-0.3265765765765769 	300.0000059746671 	1.729632687503953e-05 	101325.0070637635
-0.3240740740740744 	300.0000060391849 	1.748311498305414e-05 	101325.0071398709
-0.3215715715715718 	300.0000060711243 	1.758488425224806e-05 	101325.0071775651
-0.3190690690690695 	300.0000060953251 	1.766724132303756e-05 	101325.0072062881
-0.3165665665665668 	300.000006143626 	1.781253197924143e-05 	101325.0072632282