/*--------------------------------*- C++ -*----------------------------------*\
  =========                 |
  \\      /  F ield         | OpenFOAM: The Open Source CFD Toolbox
   \\    /   O peration     | Website:  https://openfoam.org
    \\  /    A nd           | Version:  7
     \\/     M anipulation  |
\*---------------------------------------------------------------------------*/
FoamFile
{
    version     2.0;
    format      ascii;
    class       volScalarField;
    location    "0.00333";
    object      T;
}
// * * * * * * * * * * * * * * * * * * * * * * * * * * * * * * * * * * * * * //

dimensions      [0 0 0 1 0 0 0];

internalField   nonuniform List<scalar> 
5000
(
277.93654
277.93655
277.93651
277.93644
277.93638
277.93634
277.93631
277.93628
277.93627
277.93625
277.93625
277.93624
277.93624
277.93624
277.93624
277.93623
277.93623
277.93623
277.93623
277.93623
277.93623
277.93623
277.93623
277.93624
277.93624
277.93624
277.93624
277.93624
277.93624
277.93624
277.93624
277.93624
277.93624
277.93624
277.93624
277.93624
277.93624
277.93624
277.93624
277.93624
277.93624
277.93624
277.93624
277.93624
277.93625
277.93625
277.93625
277.93625
277.93625
277.93625
277.93625
277.93625
277.93625
277.93625
277.93625
277.93625
277.93625
277.93625
277.93625
277.93626
277.93626
277.93626
277.93626
277.93626
277.93626
277.93626
277.93626
277.93626
277.93626
277.93626
277.93626
277.93626
277.93627
277.93627
277.93627
277.93627
277.93627
277.93627
277.93627
277.93627
277.93627
277.93627
277.93627
277.93627
277.93628
277.93628
277.93628
277.93628
277.93628
277.93628
277.93628
277.93628
277.93628
277.93628
277.93628
277.93628
277.93629
277.93629
277.93629
277.93629
277.93629
277.93629
277.93629
277.93629
277.93629
277.93629
277.93629
277.9363
277.9363
277.9363
277.9363
277.9363
277.9363
277.9363
277.9363
277.9363
277.9363
277.9363
277.9363
277.9363
277.93631
277.93631
277.93631
277.93631
277.93631
277.93631
277.93631
277.93631
277.93631
277.93631
277.93631
277.93631
277.93632
277.93632
277.93632
277.93632
277.93632
277.93632
277.93632
277.93632
277.93632
277.93632
277.93632
277.93632
277.93632
277.93632
277.93633
277.93633
277.93633
277.93633
277.93633
277.93633
277.93633
277.93633
277.93633
277.93633
277.93633
277.93633
277.93633
277.93633
277.93633
277.93634
277.93634
277.93634
277.93634
277.93634
277.93634
277.93634
277.93634
277.93634
277.93634
277.93634
277.93634
277.93634
277.93634
277.93634
277.93634
277.93634
277.93634
277.93635
277.93635
277.93635
277.93635
277.93635
277.93635
277.93635
277.93635
277.93635
277.93635
277.93635
277.93635
277.93635
277.93635
277.93635
277.93635
277.93635
277.93635
277.93635
277.93635
277.93635
277.93635
277.93635
277.93635
277.93636
277.93636
277.93636
277.93636
277.93636
277.93636
277.93636
277.93636
277.93636
277.93636
277.93636
277.93636
277.93636
277.93636
277.93636
277.93636
277.93636
277.93636
277.93636
277.93636
277.93636
277.93636
277.93636
277.93636
277.93636
277.93636
277.93636
277.93636
277.93636
277.93636
277.93636
277.93636
277.93636
277.93637
277.93637
277.93637
277.93637
277.93637
277.93637
277.93637
277.93637
277.93637
277.93637
277.93637
277.93637
277.93637
277.93637
277.93637
277.93637
277.93637
277.93637
277.93637
277.93637
277.93637
277.93637
277.93637
277.93637
277.93637
277.93637
277.93637
277.93637
277.93637
277.93637
277.93637
277.93637
277.93637
277.93637
277.93637
277.93637
277.93637
277.93637
277.93637
277.93637
277.93637
277.93637
277.93637
277.93637
277.93637
277.93637
277.93637
277.93637
277.93637
277.93637
277.93637
277.93637
277.93637
277.93637
277.93637
277.93637
277.93637
277.93637
277.93637
277.93637
277.93637
277.93637
277.93637
277.93638
277.93638
277.93638
277.93638
277.93638
277.93638
277.93638
277.93638
277.93638
277.93638
277.93638
277.93638
277.93638
277.93638
277.93638
277.93638
277.93638
277.93638
277.93638
277.93638
277.93638
277.93638
277.93638
277.93638
277.93638
277.93638
277.93638
277.93638
277.93638
277.93638
277.93638
277.93638
277.93638
277.93638
277.93638
277.93638
277.93638
277.93638
277.93638
277.93638
277.93638
277.93638
277.93638
277.93638
277.93638
277.93638
277.93638
277.93638
277.93638
277.93638
277.93638
277.93638
277.93638
277.93638
277.93638
277.93638
277.93638
277.93638
277.93638
277.93638
277.93638
277.93638
277.93639
277.93639
277.93639
277.93639
277.93639
277.93639
277.93639
277.93639
277.93639
277.93639
277.93639
277.93639
277.93639
277.93639
277.93639
277.93639
277.93639
277.93639
277.93639
277.93639
277.93639
277.93639
277.93639
277.93639
277.93639
277.93639
277.93639
277.93639
277.93639
277.93639
277.93639
277.93639
277.93639
277.93639
277.93639
277.93639
277.93639
277.93639
277.93639
277.93639
277.93639
277.93639
277.93639
277.93639
277.93639
277.93639
277.93639
277.93639
277.93639
277.93639
277.93639
277.9364
277.9364
277.9364
277.9364
277.9364
277.9364
277.9364
277.9364
277.9364
277.9364
277.9364
277.9364
277.9364
277.9364
277.9364
277.9364
277.9364
277.9364
277.9364
277.9364
277.9364
277.9364
277.9364
277.9364
277.9364
277.9364
277.9364
277.9364
277.9364
277.9364
277.9364
277.9364
277.9364
277.9364
277.9364
277.9364
277.93641
277.93641
277.93641
277.93641
277.93641
277.93641
277.93641
277.93641
277.93641
277.93641
277.93641
277.93641
277.93641
277.93641
277.93641
277.93641
277.93641
277.93641
277.93641
277.93641
277.93641
277.93641
277.93641
277.93641
277.93641
277.93641
277.93641
277.93641
277.93641
277.93641
277.93641
277.93642
277.93642
277.93642
277.93642
277.93642
277.93642
277.93642
277.93642
277.93642
277.93642
277.93642
277.93642
277.93642
277.93642
277.93642
277.93642
277.93642
277.93642
277.93642
277.93642
277.93642
277.93642
277.93642
277.93642
277.93642
277.93642
277.93642
277.93642
277.93642
277.93642
277.93643
277.93643
277.93643
277.93643
277.93643
277.93643
277.93643
277.93643
277.93643
277.93643
277.93643
277.93643
277.93643
277.93643
277.93643
277.93643
277.93643
277.93643
277.93643
277.93643
277.93643
277.93643
277.93643
277.93643
277.93643
277.93643
277.93643
277.93643
277.93643
277.93643
277.93644
277.93644
277.93644
277.93644
277.93644
277.93644
277.93644
277.93644
277.93644
277.93644
277.93644
277.93644
277.93644
277.93644
277.93644
277.93644
277.93644
277.93644
277.93644
277.93644
277.93644
277.93644
277.93644
277.93644
277.93644
277.93644
277.93645
277.93645
277.93645
277.93645
277.93645
277.93645
277.93645
277.93645
277.93645
277.93645
277.93645
277.93645
277.93645
277.93645
277.93645
277.93645
277.93645
277.93645
277.93645
277.93645
277.93645
277.93645
277.93646
277.93646
277.93646
277.93646
277.93646
277.93646
277.93646
277.93646
277.93646
277.93646
277.93646
277.93646
277.93646
277.93646
277.93646
277.93646
277.93646
277.93646
277.93646
277.93646
277.93646
277.93646
277.93646
277.93646
277.93646
277.93646
277.93646
277.93646
277.93647
277.93647
277.93647
277.93647
277.93647
277.93647
277.93647
277.93647
277.93647
277.93647
277.93647
277.93647
277.93647
277.93647
277.93647
277.93647
277.93647
277.93647
277.93647
277.93647
277.93647
277.93647
277.93647
277.93647
277.93648
277.93648
277.93648
277.93648
277.93648
277.93648
277.93648
277.93648
277.93648
277.93648
277.93648
277.93648
277.93648
277.93648
277.93648
277.93648
277.93648
277.93648
277.93648
277.93648
277.93648
277.93648
277.93648
277.93648
277.93649
277.93649
277.93649
277.93649
277.93649
277.93648
277.93649
277.93649
277.93649
277.93649
277.93649
277.93649
277.93649
277.93649
277.93649
277.93649
277.93649
277.93649
277.93649
277.93649
277.93649
277.93649
277.93649
277.93649
277.93649
277.93649
277.93649
277.9365
277.9365
277.9365
277.9365
277.9365
277.9365
277.9365
277.9365
277.9365
277.9365
277.9365
277.9365
277.9365
277.9365
277.9365
277.9365
277.9365
277.9365
277.9365
277.9365
277.9365
277.9365
277.9365
277.9365
277.93651
277.93651
277.93651
277.93651
277.93651
277.93651
277.93651
277.93651
277.93651
277.93651
277.93651
277.93651
277.93651
277.93651
277.93651
277.93651
277.93651
277.93651
277.93651
277.93651
277.93651
277.93651
277.93652
277.93652
277.93652
277.93652
277.93652
277.93652
277.93652
277.93652
277.93652
277.93652
277.93652
277.93652
277.93652
277.93652
277.93652
277.93652
277.93652
277.93652
277.93652
277.93653
277.93653
277.93653
277.93653
277.93653
277.93653
277.93653
277.93653
277.93653
277.93653
277.93653
277.93653
277.93653
277.93653
277.93653
277.93653
277.93653
277.93653
277.93654
277.93654
277.93654
277.93654
277.93654
277.93654
277.93654
277.93654
277.93654
277.93654
277.93654
277.93654
277.93654
277.93654
277.93654
277.93654
277.93654
277.93654
277.93654
277.93655
277.93655
277.93655
277.93655
277.93655
277.93655
277.93655
277.93655
277.93655
277.93655
277.93655
277.93655
277.93655
277.93655
277.93655
277.93655
277.93655
277.93655
277.93655
277.93656
277.93656
277.93656
277.93656
277.93656
277.93656
277.93656
277.93656
277.93656
277.93656
277.93656
277.93656
277.93656
277.93656
277.93656
277.93656
277.93656
277.93656
277.93657
277.93657
277.93657
277.93657
277.93657
277.93657
277.93657
277.93657
277.93657
277.93657
277.93657
277.93657
277.93657
277.93657
277.93657
277.93657
277.93658
277.93658
277.93658
277.93658
277.93658
277.93658
277.93658
277.93658
277.93658
277.93658
277.93658
277.93658
277.93658
277.93658
277.93658
277.93658
277.93658
277.93658
277.93659
277.93659
277.93659
277.93659
277.93659
277.93659
277.93659
277.93659
277.93659
277.93659
277.93659
277.93659
277.93659
277.93659
277.9366
277.9366
277.9366
277.9366
277.9366
277.9366
277.9366
277.9366
277.9366
277.9366
277.9366
277.9366
277.9366
277.9366
277.9366
277.9366
277.93661
277.93661
277.93661
277.93661
277.93661
277.93661
277.93661
277.93661
277.93661
277.93661
277.93661
277.93661
277.93661
277.93661
277.93661
277.93662
277.93662
277.93662
277.93662
277.93662
277.93662
277.93662
277.93662
277.93662
277.93662
277.93662
277.93662
277.93662
277.93662
277.93663
277.93663
277.93663
277.93663
277.93663
277.93663
277.93663
277.93663
277.93663
277.93663
277.93663
277.93663
277.93663
277.93664
277.93664
277.93664
277.93664
277.93664
277.93664
277.93664
277.93664
277.93664
277.93664
277.93664
277.93664
277.93664
277.93664
277.93664
277.93664
277.93664
277.93665
277.93665
277.93665
277.93665
277.93665
277.93665
277.93665
277.93665
277.93665
277.93665
277.93665
277.93665
277.93666
277.93666
277.93666
277.93666
277.93666
277.93666
277.93666
277.93666
277.93666
277.93666
277.93666
277.93666
277.93666
277.93666
277.93667
277.93667
277.93667
277.93667
277.93667
277.93667
277.93667
277.93667
277.93667
277.93667
277.93667
277.93667
277.93667
277.93667
277.93667
277.93668
277.93668
277.93668
277.93668
277.93668
277.93668
277.93668
277.93668
277.93668
277.93668
277.93668
277.93668
277.93669
277.93669
277.93669
277.93669
277.93669
277.93669
277.93669
277.93669
277.93669
277.93669
277.93669
277.93669
277.93669
277.93669
277.93669
277.9367
277.9367
277.9367
277.9367
277.9367
277.9367
277.9367
277.9367
277.9367
277.93671
277.93671
277.93671
277.93671
277.93671
277.93671
277.93671
277.93671
277.93671
277.93671
277.93671
277.93671
277.93671
277.93671
277.93671
277.93672
277.93672
277.93672
277.93672
277.93672
277.93672
277.93672
277.93672
277.93672
277.93672
277.93672
277.93672
277.93673
277.93673
277.93673
277.93673
277.93673
277.93673
277.93673
277.93673
277.93673
277.93673
277.93673
277.93673
277.93673
277.93674
277.93674
277.93674
277.93674
277.93674
277.93674
277.93674
277.93674
277.93674
277.93674
277.93674
277.93674
277.93674
277.93674
277.93675
277.93675
277.93675
277.93675
277.93675
277.93675
277.93675
277.93675
277.93675
277.93675
277.93676
277.93676
277.93676
277.93676
277.93676
277.93676
277.93676
277.93676
277.93676
277.93676
277.93676
277.93676
277.93676
277.93676
277.93676
277.93677
277.93677
277.93677
277.93677
277.93677
277.93677
277.93677
277.93677
277.93677
277.93677
277.93677
277.93677
277.93678
277.93678
277.93678
277.93678
277.93678
277.93678
277.93678
277.93678
277.93678
277.93678
277.93679
277.93679
277.93679
277.93679
277.93679
277.93679
277.93679
277.93679
277.93679
277.93679
277.93679
277.93679
277.93679
277.93679
277.9368
277.9368
277.9368
277.9368
277.9368
277.9368
277.9368
277.9368
277.9368
277.93681
277.93681
277.93681
277.93681
277.93681
277.93681
277.93681
277.93681
277.93681
277.93681
277.93681
277.93681
277.93681
277.93681
277.93681
277.93682
277.93682
277.93682
277.93682
277.93682
277.93682
277.93682
277.93682
277.93682
277.93682
277.93683
277.93683
277.93683
277.93683
277.93683
277.93683
277.93683
277.93683
277.93683
277.93683
277.93683
277.93683
277.93684
277.93684
277.93684
277.93684
277.93684
277.93684
277.93684
277.93684
277.93684
277.93684
277.93684
277.93684
277.93684
277.93684
277.93685
277.93685
277.93685
277.93685
277.93685
277.93685
277.93685
277.93685
277.93685
277.93685
277.93685
277.93686
277.93686
277.93686
277.93686
277.93686
277.93686
277.93686
277.93686
277.93686
277.93686
277.93686
277.93687
277.93687
277.93687
277.93687
277.93687
277.93687
277.93687
277.93687
277.93687
277.93687
277.93688
277.93688
277.93688
277.93688
277.93688
277.93688
277.93688
277.93688
277.93688
277.93688
277.93688
277.93688
277.93688
277.93688
277.93689
277.93689
277.93689
277.93689
277.93689
277.93689
277.93689
277.93689
277.93689
277.93689
277.93689
277.9369
277.9369
277.9369
277.9369
277.9369
277.9369
277.9369
277.9369
277.93691
277.93691
277.93691
277.93691
277.93691
277.93691
277.93691
277.93691
277.93691
277.93691
277.93691
277.93691
277.93691
277.93692
277.93692
277.93692
277.93692
277.93692
277.93692
277.93692
277.93692
277.93692
277.93692
277.93693
277.93693
277.93693
277.93693
277.93693
277.93693
277.93693
277.93693
277.93693
277.93693
277.93693
277.93694
277.93694
277.93694
277.93694
277.93694
277.93694
277.93694
277.93694
277.93694
277.93694
277.93695
277.93695
277.93695
277.93695
277.93695
277.93695
277.93695
277.93695
277.93695
277.93696
277.93696
277.93696
277.93696
277.93696
277.93696
277.93696
277.93696
277.93697
277.93697
277.93697
277.93697
277.93697
277.93697
277.93697
277.93697
277.93697
277.93697
277.93697
277.93698
277.93698
277.93698
277.93698
277.93698
277.93698
277.93698
277.93699
277.93699
277.93699
277.93699
277.93699
277.93699
277.937
277.937
277.937
277.937
277.937
277.937
277.937
277.93701
277.93701
277.93701
277.93701
277.93701
277.93701
277.93702
277.93702
277.93702
277.93702
277.93702
277.93703
277.93703
277.93703
277.93703
277.93704
277.93704
277.93704
277.93704
277.93705
277.93705
277.93705
277.93705
277.93706
277.93706
277.93706
277.93707
277.93707
277.93707
277.93708
277.93708
277.93708
277.93709
277.93709
277.93709
277.9371
277.9371
277.93711
277.93711
277.93712
277.93712
277.93713
277.93713
277.93714
277.93714
277.93715
277.93715
277.93716
277.93716
277.93717
277.93717
277.93718
277.93719
277.93719
277.9372
277.93721
277.93722
277.93723
277.93723
277.93724
277.93725
277.93726
277.93727
277.93728
277.93729
277.9373
277.93731
277.93732
277.93734
277.93735
277.93736
277.93738
277.93739
277.9374
277.93742
277.93743
277.93745
277.93747
277.93749
277.9375
277.93752
277.93754
277.93756
277.93758
277.9376
277.93763
277.93765
277.93768
277.9377
277.93773
277.93775
277.93778
277.93781
277.93784
277.93788
277.93791
277.93794
277.93798
277.93802
277.93805
277.93809
277.93813
277.93818
277.93822
277.93827
277.93832
277.93836
277.93842
277.93847
277.93853
277.93858
277.93865
277.93871
277.93877
277.93884
277.93891
277.93898
277.93906
277.93914
277.93922
277.9393
277.93939
277.93948
277.93958
277.93967
277.93978
277.93988
277.93999
277.94011
277.94022
277.94035
277.94048
277.94061
277.94075
277.94089
277.94104
277.94119
277.94135
277.94152
277.94169
277.94187
277.94206
277.94225
277.94245
277.94266
277.94287
277.94309
277.94333
277.94357
277.94382
277.94407
277.94434
277.94462
277.94491
277.94521
277.94552
277.94584
277.94618
277.94652
277.94688
277.94726
277.94764
277.94804
277.94846
277.94889
277.94934
277.9498
277.95029
277.95078
277.9513
277.95184
277.95239
277.95297
277.95357
277.95419
277.95483
277.9555
277.95619
277.9569
277.95764
277.95841
277.95921
277.96003
277.96089
277.96177
277.96269
277.96364
277.96463
277.96565
277.96671
277.96781
277.96894
277.97012
277.97134
277.9726
277.9739
277.97526
277.97666
277.97811
277.97961
277.98117
277.98278
277.98445
277.98617
277.98796
277.98981
277.99172
277.9937
277.99575
277.99787
278.00006
278.00233
278.00468
278.00711
278.00962
278.01222
278.01491
278.01769
278.02057
278.02354
278.02662
278.0298
278.03309
278.03648
278.04
278.04363
278.04738
278.05126
278.05527
278.05942
278.0637
278.06812
278.07269
278.07741
278.08228
278.08732
278.09252
278.09789
278.10343
278.10916
278.11507
278.12117
278.12747
278.13396
278.14067
278.14759
278.15473
278.16209
278.16969
278.17753
278.18561
278.19394
278.20253
278.21139
278.22052
278.22993
278.23963
278.24962
278.25991
278.27052
278.28144
278.29269
278.30427
278.3162
278.32847
278.34111
278.35411
278.36749
278.38126
278.39541
278.40998
278.42495
278.44035
278.45617
278.47243
278.48915
278.50631
278.52395
278.54206
278.56066
278.57975
278.59934
278.61945
278.64008
278.66124
278.68294
278.70518
278.72799
278.75136
278.7753
278.79983
278.82495
278.85066
278.87698
278.90392
278.93147
278.95965
278.98846
279.01792
279.04802
279.07876
279.11017
279.14223
279.17496
279.20836
279.24242
279.27716
279.31258
279.34867
279.38544
279.42288
279.46101
279.4998
279.53928
279.57942
279.62023
279.66171
279.70385
279.74664
279.79008
279.83416
279.87888
279.92422
279.97017
280.01673
280.06389
280.11162
280.15993
280.2088
280.2582
280.30814
280.35858
280.40952
280.46094
280.51282
280.56514
280.61788
280.67103
280.72455
280.77844
280.83266
280.8872
280.94204
280.99714
281.05249
281.10807
281.16384
281.21978
281.27587
281.33208
281.38839
281.44478
281.50121
281.55766
281.6141
281.67052
281.72687
281.78315
281.83932
281.89536
281.95124
282.00694
282.06244
282.11771
282.17272
282.22747
282.28192
282.33604
282.38983
282.44327
282.49632
282.54897
282.6012
282.653
282.70435
282.75523
282.80562
282.85551
282.90489
282.95374
283.00205
283.0498
283.09699
283.1436
283.18963
283.23507
283.2799
283.32412
283.36773
283.41071
283.45306
283.49478
283.53586
283.5763
283.61609
283.65524
283.69374
283.7316
283.7688
283.80536
283.84126
283.87653
283.91114
283.94512
283.97845
284.01115
284.04321
284.07464
284.10545
284.13564
284.16522
284.19418
284.22254
284.25031
284.27748
284.30407
284.33007
284.35551
284.38038
284.4047
284.42847
284.45169
284.47438
284.49654
284.51819
284.53932
284.55996
284.58009
284.59975
284.61892
284.63763
284.65587
284.67366
284.69101
284.70792
284.72441
284.74047
284.75612
284.77137
284.78623
284.8007
284.81479
284.8285
284.84186
284.85486
284.86751
284.87982
284.89181
284.90346
284.9148
284.92583
284.93655
284.94698
284.95712
284.96698
284.97656
284.98588
284.99493
285.00372
285.01227
285.02057
285.02864
285.03647
285.04408
285.05147
285.05865
285.06561
285.07238
285.07894
285.08532
285.0915
285.09751
285.10334
285.10899
285.11448
285.1198
285.12496
285.12997
285.13483
285.13954
285.14411
285.14854
285.15283
285.157
285.16104
285.16495
285.16875
285.17243
285.17599
285.17945
285.1828
285.18604
285.18919
285.19223
285.19518
285.19804
285.20081
285.2035
285.2061
285.20861
285.21105
285.21341
285.2157
285.21792
285.22006
285.22214
285.22415
285.22609
285.22798
285.2298
285.23157
285.23328
285.23493
285.23654
285.23808
285.23959
285.24104
285.24244
285.2438
285.24512
285.24639
285.24762
285.24881
285.24997
285.25108
285.25216
285.25321
285.25422
285.25519
285.25614
285.25705
285.25794
285.25879
285.25962
285.26042
285.26119
285.26194
285.26267
285.26337
285.26404
285.2647
285.26533
285.26594
285.26653
285.26711
285.26766
285.26819
285.26871
285.26921
285.2697
285.27017
285.27062
285.27106
285.27148
285.27189
285.27229
285.27267
285.27304
285.2734
285.27374
285.27408
285.2744
285.27471
285.27502
285.27531
285.27559
285.27587
285.27613
285.27639
285.27664
285.27688
285.27711
285.27734
285.27756
285.27777
285.27797
285.27817
285.27836
285.27854
285.27872
285.2789
285.27906
285.27923
285.27938
285.27954
285.27968
285.27983
285.27997
285.2801
285.28023
285.28036
285.28048
285.2806
285.28071
285.28083
285.28094
285.28104
285.28114
285.28124
285.28134
285.28143
285.28153
285.28161
285.2817
285.28178
285.28187
285.28195
285.28202
285.2821
285.28217
285.28225
285.28232
285.28238
285.28245
285.28252
285.28258
285.28264
285.2827
285.28276
285.28282
285.28288
285.28293
285.28299
285.28304
285.28309
285.28315
285.2832
285.28325
285.2833
285.28334
285.28339
285.28344
285.28349
285.28353
285.28358
285.28362
285.28366
285.28371
285.28375
285.28379
285.28383
285.28388
285.28392
285.28396
285.284
285.28404
285.28408
285.28412
285.28416
285.2842
285.28423
285.28427
285.28431
285.28435
285.28439
285.28442
285.28446
285.2845
285.28454
285.28458
285.28461
285.28465
285.28469
285.28473
285.28477
285.2848
285.28484
285.28488
285.28492
285.28496
285.285
285.28503
285.28507
285.28511
285.28515
285.28519
285.28523
285.28526
285.2853
285.28534
285.28538
285.28542
285.28546
285.2855
285.28554
285.28558
285.28562
285.28566
285.2857
285.28574
285.28578
285.28583
285.28587
285.28591
285.28595
285.28599
285.28604
285.28608
285.28612
285.28617
285.28621
285.28625
285.2863
285.28634
285.28639
285.28643
285.28648
285.28652
285.28657
285.28661
285.28666
285.2867
285.28675
285.28679
285.28684
285.28689
285.28693
285.28698
285.28703
285.28708
285.28713
285.28717
285.28722
285.28727
285.28732
285.28737
285.28742
285.28747
285.28752
285.28757
285.28762
285.28767
285.28772
285.28777
285.28782
285.28787
285.28792
285.28797
285.28803
285.28808
285.28813
285.28818
285.28823
285.28829
285.28834
285.28839
285.28844
285.2885
285.28855
285.2886
285.28866
285.28871
285.28876
285.28882
285.28887
285.28893
285.28898
285.28903
285.28909
285.28914
285.2892
285.28926
285.28931
285.28937
285.28942
285.28948
285.28954
285.2896
285.28965
285.28971
285.28977
285.28983
285.28989
285.28995
285.29001
285.29007
285.29013
285.29019
285.29025
285.29031
285.29038
285.29044
285.29051
285.29057
285.29064
285.2907
285.29077
285.29084
285.29091
285.29098
285.29105
285.29112
285.29119
285.29127
285.29134
285.29142
285.2915
285.29157
285.29165
285.29174
285.29182
285.2919
285.29199
285.29207
285.29216
285.29225
285.29234
285.29243
285.29253
285.29262
285.29272
285.29282
285.29292
285.29302
285.29312
285.29323
285.29333
285.29344
285.29355
285.29366
285.29377
285.29389
285.29401
285.29412
285.29424
285.29436
285.29449
285.29461
285.29474
285.29486
285.29499
285.29512
285.29526
285.29539
285.29552
285.29566
285.2958
285.29594
285.29608
285.29622
285.29636
285.2965
285.29665
285.2968
285.29694
285.29709
285.29724
285.29739
285.29754
285.2977
285.29785
285.298
285.29816
285.29831
285.29847
285.29863
285.29878
285.29894
285.2991
285.29926
285.29942
285.29958
285.29974
285.2999
285.30006
285.30022
285.30038
285.30055
285.30071
285.30087
285.30104
285.3012
285.30136
285.30153
285.30169
285.30186
285.30202
285.30219
285.30235
285.30252
285.30268
285.30285
285.30301
285.30318
285.30334
285.30351
285.30367
285.30384
285.304
285.30417
285.30434
285.3045
285.30467
285.30483
285.305
285.30516
285.30533
285.30549
285.30566
285.30583
285.30599
285.30616
285.30632
285.30649
285.30666
285.30682
285.30699
285.30715
285.30732
285.30749
285.30765
285.30782
285.30798
285.30815
285.30831
285.30848
285.30864
285.30881
285.30898
285.30914
285.30931
285.30947
285.30964
285.3098
285.30997
285.31014
285.3103
285.31047
285.31064
285.3108
285.31097
285.31114
285.3113
285.31147
285.31164
285.3118
285.31197
285.31214
285.31231
285.31247
285.31264
285.31281
285.31298
285.31315
285.31332
285.31348
285.31365
285.31382
285.31399
285.31416
285.31433
285.3145
285.31467
285.31484
285.31501
285.31518
285.31535
285.31553
285.3157
285.31587
285.31604
285.31622
285.31639
285.31656
285.31674
285.31691
285.31708
285.31726
285.31743
285.3176
285.31778
285.31795
285.31813
285.31831
285.31848
285.31866
285.31884
285.31902
285.3192
285.31937
285.31955
285.31973
285.31991
285.32009
285.32027
285.32045
285.32063
285.32081
285.32099
285.32118
285.32136
285.32154
285.32172
285.32191
285.32209
285.32227
285.32246
285.32264
285.32283
285.32302
285.3232
285.32339
285.32358
285.32377
285.32396
285.32415
285.32434
285.32453
285.32472
285.32491
285.3251
285.32529
285.32549
285.32568
285.32588
285.32608
285.32627
285.32647
285.32666
285.32686
285.32706
285.32726
285.32746
285.32766
285.32786
285.32806
285.32826
285.32846
285.32867
285.32887
285.32907
285.32928
285.32948
285.32969
285.32989
285.3301
285.33031
285.33052
285.33073
285.33093
285.33114
285.33135
285.33156
285.33178
285.33199
285.3322
285.33241
285.33262
285.33283
285.33305
285.33326
285.33347
285.33368
285.3339
285.33411
285.33433
285.33454
285.33475
285.33496
285.33518
285.33539
285.3356
285.33582
285.33603
285.33624
285.33645
285.33666
285.33687
285.33708
285.33729
285.3375
285.33771
285.33792
285.33813
285.33833
285.33854
285.33874
285.33895
285.33915
285.33936
285.33956
285.33976
285.33997
285.34017
285.34037
285.34056
285.34076
285.34096
285.34115
285.34135
285.34154
285.34174
285.34193
285.34212
285.34231
285.3425
285.34269
285.34288
285.34307
285.34326
285.34345
285.34364
285.34382
285.34401
285.34419
285.34438
285.34457
285.34475
285.34494
285.34512
285.34531
285.34549
285.34568
285.34586
285.34604
285.34623
285.34641
285.34659
285.34677
285.34696
285.34714
285.34733
285.34751
285.3477
285.34788
285.34807
285.34825
285.34844
285.34863
285.34881
285.349
285.34918
285.34937
285.34955
285.34974
285.34993
285.35012
285.35031
285.35049
285.35068
285.35087
285.35106
285.35125
285.35144
285.35163
285.35181
285.352
285.35219
285.35238
285.35257
285.35276
285.35296
285.35315
285.35334
285.35353
285.35372
285.35392
285.35411
285.3543
285.3545
285.3547
285.35489
285.35509
285.35528
285.35548
285.35568
285.35588
285.35608
285.35628
285.35648
285.35668
285.35688
285.35709
285.35729
285.3575
285.35771
285.35792
285.35813
285.35835
285.35856
285.35878
285.35899
285.35921
285.35943
285.35965
285.35988
285.3601
285.36033
285.36056
285.36079
285.36102
285.36126
285.3615
285.36174
285.36198
285.36223
285.36248
285.36273
285.36299
285.36325
285.36351
285.36377
285.36404
285.36431
285.36458
285.36486
285.36514
285.36542
285.3657
285.36599
285.36628
285.36658
285.36688
285.36718
285.36749
285.3678
285.36812
285.36844
285.36878
285.36912
285.36946
285.36981
285.37016
285.37052
285.37089
285.37126
285.37163
285.37201
285.3724
285.37279
285.37318
285.37359
285.374
285.37441
285.37483
285.37526
285.37569
285.37613
285.37657
285.37702
285.37748
285.37795
285.37842
285.3789
285.37938
285.37988
285.38038
285.38089
285.3814
285.38193
285.38246
285.383
285.38355
285.38411
285.38467
285.38525
285.38583
285.38643
285.38703
285.38764
285.38827
285.3889
285.38954
285.39019
285.39086
285.39153
285.39221
285.39291
285.39361
285.39433
285.39506
285.3958
285.39656
285.39732
285.3981
285.39889
285.39969
285.40051
285.40134
285.40218
285.40304
285.4039
285.40479
285.40568
285.4066
285.40752
285.40847
285.40942
285.4104
285.41139
285.41239
285.41341
285.41444
285.4155
285.41657
285.41765
285.41876
285.41988
285.42101
285.42217
285.42334
285.42454
285.42575
285.42698
285.42823
285.4295
285.43079
285.4321
285.43343
285.43478
285.43615
285.43754
285.43896
285.44039
285.44185
285.44333
285.44483
285.44636
285.4479
285.44947
285.45106
285.45267
285.45431
285.45598
285.45766
285.45937
285.46111
285.46286
285.46464
285.46645
285.46828
285.47014
285.47201
285.47392
285.47584
285.47779
285.47976
285.48176
285.48378
285.48582
285.48788
285.48997
285.49208
285.49421
285.49636
285.49853
285.50072
285.50293
285.50517
285.50743
285.50971
285.51202
285.51435
285.5167
285.51908
285.52149
285.52393
285.52639
285.52888
285.53141
285.53396
285.53655
285.53917
285.54183
285.54453
285.54727
285.55005
285.55287
285.55574
285.55867
285.56165
285.56469
285.56779
285.57093
285.57414
285.57739
285.58069
285.58404
285.58743
285.59088
285.59436
285.59789
285.60146
285.60507
285.60871
285.61238
285.61608
285.61982
285.62357
285.62735
285.63114
285.63496
285.63879
285.64264
285.64652
285.65045
285.65449
285.65878
285.66354
285.66926
285.67682
285.68781
285.70493
285.73263
285.77768
285.84981
285.96191
286.12949
286.36896
286.69485
287.11618
287.63355
288.23822
288.91449
289.64466
290.41397
291.21233
292.0314
292.85978
293.68131
294.47896
295.24072
295.9608
296.63521
297.25783
297.82274
298.32895
298.77964
299.17729
299.52282
299.81911
300.07193
300.28682
300.46662
300.61451
300.73728
300.83912
300.91983
300.98554
301.04057
301.08194
301.11663
301.14535
301.16643
301.18537
301.20085
301.21197
301.22472
301.23196
301.24207
301.24826
301.25625
301.26234
301.26913
301.27523
301.28151
301.28759
301.29369
301.29974
301.30581
301.31192
301.31807
301.32428
301.33054
301.33685
301.3432
301.34959
301.35602
301.36248
301.36897
301.3755
301.38206
301.38865
301.39527
301.40193
301.40861
301.41533
301.42208
301.42888
301.43571
301.44258
301.4495
301.45647
301.46348
301.47054
301.47766
301.48483
301.49205
301.49933
301.50667
301.51406
301.5215
301.52901
301.53656
301.54417
301.55184
301.55956
301.56733
301.57515
301.58303
301.59095
301.59892
301.60695
301.61502
301.62313
301.63129
301.6395
301.64775
301.65605
301.66438
301.67276
301.68119
301.68965
301.69816
301.7067
301.71529
301.72392
301.73258
301.74129
301.75003
301.75882
301.76764
301.7765
301.7854
301.79434
301.80331
301.81232
301.82137
301.83045
301.83957
301.84873
301.85792
301.86715
301.87642
301.88571
301.89505
301.90442
301.91383
301.92327
301.93274
301.94225
301.95179
301.96137
301.97098
301.98062
301.9903
302.00001
302.00975
302.01953
302.02933
302.03917
302.04905
302.05895
302.06888
302.07885
302.08885
302.09888
302.10894
302.11903
302.12915
302.1393
302.14949
302.1597
302.16994
302.18021
302.19051
302.20084
302.2112
302.22159
302.232
302.24245
302.25292
302.26342
302.27395
302.2845
302.29509
302.3057
302.31634
302.327
302.33769
302.34841
302.35915
302.36992
302.38071
302.39154
302.40238
302.41326
302.42415
302.43508
302.44602
302.45699
302.46799
302.47901
302.49006
302.50113
302.51222
302.52333
302.53447
302.54563