/*--------------------------------*- C++ -*----------------------------------*\
  =========                 |
  \\      /  F ield         | OpenFOAM: The Open Source CFD Toolbox
   \\    /   O peration     | Website:  https://openfoam.org
    \\  /    A nd           | Version:  7
     \\/     M anipulation  |
\*---------------------------------------------------------------------------*/
FoamFile
{
    version     2.0;
    format      ascii;
    class       volScalarField;
    location    "0.00199";
    object      Uy;
}
// * * * * * * * * * * * * * * * * * * * * * * * * * * * * * * * * * * * * * //

dimensions      [0 1 -1 0 0 0 0];

internalField   nonuniform List<scalar> 
5000
(
2.6603576e-20
5.090813e-20
0
0
-1.9824318e-20
1.6050625e-35
1.3751669e-20
0
0
-1.4066574e-20
-2.8279631e-20
1.4198466e-20
1.4268936e-20
-1.4346074e-20
0
-1.4502958e-20
5.6987623e-50
1.4650648e-20
0
1.4786505e-20
-1.4857893e-20
-1.4942027e-20
3.0047044e-20
-1.510418e-20
-1.5188834e-20
-1.258864e-34
1.5356425e-20
1.544015e-20
-3.1049644e-20
2.7063992e-34
-2.7436858e-34
1.5784129e-20
3.1745123e-20
-3.1924096e-20
2.7830808e-34
-1.4040755e-33
-5.6301241e-34
3.2662032e-20
-3.285222e-20
-3.3044743e-20
3.3239638e-20
-1.1499032e-33
-3.3636537e-20
1.6919349e-20
5.1065084e-20
-1.7125786e-20
-1.7231486e-20
-1.1875458e-33
-3.4887176e-20
0
1.7662504e-20
2.5258551e-36
-1.7886627e-20
3.600091e-20
-6.3330143e-34
-3.6464506e-20
1.8350092e-20
-6.3778701e-34
-1.8589722e-20
0
1.8834615e-20
6.4661771e-34
5.4242154e-36
1.9211801e-20
-1.9340148e-20
6.8063898e-34
1.9600756e-20
-1.973301e-20
-1.9866557e-20
2.0001389e-20
2.0137512e-20
-2.0274924e-20
-2.0413608e-20
4.1107078e-20
2.0694729e-20
-2.0837175e-20
0
2.1125845e-20
-3.0229588e-36
-2.1419963e-20
2.1569427e-20
-6.1731077e-36
6.2157421e-36
2.2020569e-20
2.2174159e-20
7.7745486e-34
-2.2486433e-20
0
-2.2801273e-20
-2.3819358e-33
-8.0829863e-34
2.3283323e-20
2.3446248e-20
-4.7220682e-20
-1.6454333e-33
2.3941952e-20
0
0
-2.4447825e-20
-1.7072797e-33
4.9581269e-20
-2.4963693e-20
-5.0275692e-20
0
2.5489387e-20
2.5666792e-20
-2.5845271e-20
-2.6024954e-20
0
0
2.6571597e-20
2.6755526e-20
0
-2.7122933e-20
9.5470427e-34
2.7499214e-20
-2.7689613e-20
7.9238048e-36
-9.8128322e-34
9.2891408e-51
5.6910836e-20
-1.2214145e-35
-2.884498e-20
0
-2.9238543e-20
2.9436903e-20
2.9636263e-20
-5.9673262e-20
-3.0038026e-20
6.0480878e-20
3.0443849e-20
-3.0648305e-20
-3.0853803e-20
-3.1060411e-20
0
3.1477502e-20
3.1687706e-20
-3.189848e-20
-1.1133718e-33
3.2319613e-20
-3.2531173e-20
-3.2746393e-20
0
3.3181848e-20
3.3398843e-20
-3.3616589e-20
3.3836373e-20
-1.9359587e-35
-3.4279741e-20
3.4502336e-20
-3.4726017e-20
2.4337433e-33
3.5176856e-20
-3.5403805e-20
3.5631779e-20
3.5860874e-20
-3.6091122e-20
0
0
-3.6789055e-20
-3.702419e-20
3.7259974e-20
3.7495991e-20
-3.7731883e-20
-2.6330542e-33
3.8207294e-20
-3.8450324e-20
-3.869458e-20
0
3.918132e-20
3.9426014e-20
0
-3.9922074e-20
-4.0171289e-20
0
4.0672679e-20
8.5144456e-33
-4.1179756e-20
4.1435047e-20
4.1691702e-20
-4.1949827e-20
-2.9151838e-33
2.9211451e-33
1.8218131e-35
4.2996176e-20
-4.3260088e-20
-6.0367451e-33
3.0118611e-33
-3.030265e-33
4.4328468e-20
0
0
-4.5149365e-20
-4.5424244e-20
0
0
4.6262903e-20
-1.3611847e-50
-4.682842e-20
0
4.7401318e-20
-4.7690335e-20
-1.3296129e-32
9.6547598e-20
-4.8568403e-20
-1.0145338e-32
-6.9864293e-36
-4.9461652e-20
4.976176e-20
-7.1143878e-36
-6.9714575e-33
3.5070243e-33
-5.0985549e-20
0
5.1610455e-20
3.5935216e-33
1.4498881e-32
5.2561169e-20
0
-5.3207097e-20
-5.3532623e-20
0
0
0
5.4859812e-20
3.8200587e-33
-5.5538081e-20
0
0
5.6572412e-20
5.6920933e-20
-5.7271741e-20
-5.7626269e-20
0
5.8347896e-20
5.8711784e-20
-5.9076939e-20
-5.9444642e-20
0
6.0192346e-20
-1.6819268e-32
-4.2268973e-33
6.133455e-20
-6.1721534e-20
-6.2111936e-20
0
6.290226e-20
-8.7978931e-33
6.3705661e-20
8.8922171e-33
-1.2904299e-19
6.4933869e-20
-9.0638578e-33
-2.2833308e-32
-4.5811161e-33
-6.6623907e-20
6.70563e-20
6.749116e-20
0
-6.8372313e-20
-6.8820327e-20
0
6.9727822e-20
7.0187208e-20
-1.4130238e-19
-7.1119865e-20
7.1593005e-20
7.2070542e-20
2.012579e-32
-7.3039217e-20
7.3530361e-20
-5.1336291e-33
-7.4526445e-20
7.5032041e-20
-5.2495965e-33
5.2963719e-33
-2.1766541e-35
-5.3257268e-33
7.7644551e-20
0
0
-7.9279465e-20
-7.9837113e-20
0
0
0
0
8.2723334e-20
5.7427663e-33
-1.6785596e-19
3.6042317e-35
8.5163439e-20
8.5793349e-20
-1.2000219e-32
-1.2065434e-32
-1.2468293e-35
-8.8405611e-20
-8.9082929e-20
-8.9769797e-20
1.8093447e-19
2.7352949e-19
-9.189803e-20
-1.8526327e-19
0
9.4136318e-20
9.4909166e-20
-9.5696587e-20
2.7426658e-35
-4.1488681e-35
2.7896204e-35
9.9002265e-20
9.9871341e-20
-1.0075916e-19
-2.0333344e-19
1.025951e-19
-4.6278779e-50
1.0451797e-19
2.9239146e-32
-2.1306867e-19
0
0
2.1951498e-19
-6.1583927e-32
-2.2410759e-19
0
1.1448169e-19
1.1574925e-19
-1.1705472e-19
1.682564e-35
-1.6631205e-32
1.7226035e-35
1.2269405e-19
-1.2421889e-19
-1.2579435e-19
0
1.2910687e-19
-1.8167049e-32
-1.3265133e-19
2.6903541e-19
-3.7850987e-32
-1.3845475e-19
-3.9022815e-32
-2.853698e-19
2.8983698e-19
1.4723617e-19
-1.496418e-19
-2.1620298e-35
-1.5473291e-19
0
0
1.6313515e-19
-2.3045902e-32
-3.3860526e-19
2.4523883e-35
5.2791275e-19
-1.7950657e-19
-1.8318447e-19
3.7402186e-19
-1.9099236e-19
1.9513526e-19
3.9889278e-19
-2.0393289e-19
-2.086022e-19
-2.1346198e-19
2.1852006e-19
-5.1710505e-49
-2.2926401e-19
2.3496716e-19
-2.4090308e-19
2.470811e-19
7.0250819e-32
7.3953953e-35
2.6716579e-19
-5.4882374e-19
2.8195164e-19
8.0470718e-32
-8.2652355e-32
-3.0644853e-19
-6.3056036e-19
9.7339781e-19
9.2655517e-32
-1.9082243e-31
9.8175816e-32
-7.3004265e-19
7.5236929e-19
-1.0757075e-31
-7.9969346e-19
0
0
4.3892247e-19
-6.2826206e-32
-4.6756222e-19
-4.8271357e-19
4.9844468e-19
1.5443258e-18
-5.3172561e-19
-5.4931655e-19
-1.6131295e-34
-5.8650634e-19
0
1.2530449e-18
1.2952969e-18
-6.6955198e-19
-1.3845158e-18
-7.1579165e-19
1.4803588e-18
1.5308958e-18
-1.5832491e-18
-1.6374748e-18
0
1.7517745e-18
-9.0598365e-19
-1.8742702e-18
9.6937313e-19
1.0027299e-18
-1.4740041e-34
1.489659e-31
1.109845e-18
-1.1480131e-18
-1.1874718e-18
1.2282578e-18
-1.7620302e-31
-1.8672511e-34
-1.8848423e-31
-1.4054281e-18
1.453421e-18
-6.2601877e-31
-2.1577509e-31
-4.4598241e-31
-1.6614067e-18
1.7176197e-18
-2.4652545e-31
-5.0887595e-31
-2.6959273e-34
-3.9213548e-18
-2.0262247e-18
2.09378e-18
4.3267856e-18
-3.1032327e-31
-4.617986e-18
-2.385082e-18
4.9268624e-18
2.5440931e-18
-2.6271221e-18
-2.7125736e-18
-7.7724567e-31
2.8909609e-18
0
0
3.178087e-18
0
-3.3832087e-18
3.4900534e-18
5.1156717e-34
-1.0303909e-30
0
-3.9474024e-18
4.0695354e-18
4.1949102e-18
-8.6471812e-18
-4.4556398e-18
4.5911201e-18
0
0
-5.0187865e-18
1.4359612e-30
5.3222341e-18
0
0
-5.8062123e-18
2.4897576e-30
6.1488312e-18
0
0
0
0
0
0
0
0
1.5807066e-17
4.5079483e-30
-8.3439044e-18
8.5713594e-18
-8.8037455e-18
9.041124e-18
-2.5804977e-30
-9.5311098e-18
-2.7167787e-30
-1.0041819e-17
0
0
1.0847793e-17
3.0898387e-30
-1.1412407e-17
0
0
0
0
0
0
0
2.779774e-17
-1.1851228e-29
-2.915913e-17
1.4929036e-17
2.172079e-33
1.5646443e-17
-8.8801425e-30
-3.2777507e-17
-1.676934e-17
1.8796185e-47
5.2648667e-17
0
-3.6710781e-17
0
0
3.9225353e-17
-5.5603508e-30
-6.1450577e-17
2.092881e-17
2.1380693e-17
-2.1839189e-17
2.2304314e-17
-2.2776077e-17
-6.4506993e-30
2.3739555e-17
-2.4231282e-17
0
-2.5234723e-17
2.5746437e-17
5.2529618e-17
-2.6789833e-17
-2.7321501e-17
-2.7859799e-17
-2.8404717e-17
5.7912479e-17
2.9514348e-17
-3.0079022e-17
0
3.1227974e-17
-3.18122e-17
-3.240289e-17
9.9000034e-17
9.5506975e-33
-6.8426815e-17
3.4829607e-17
4.9221694e-30
3.6080802e-17
-1.0435231e-32
-7.4713507e-17
3.8003893e-17
0
-1.0917339e-29
-5.6816898e-33
-4.0652298e-17
4.1329063e-17
-1.1665777e-29
-5.9223675e-30
-6.1665923e-33
-4.4092857e-17
4.4797644e-17
-3.4416246e-47
-1.2835298e-29
-6.6711532e-33
-9.5339941e-17
-6.7131127e-30
4.9136933e-17
0
0
-5.1373989e-17
-2.1690588e-29
5.288872e-17
-5.3652827e-17
7.5558573e-30
-1.4977717e-46
-7.7710131e-30
5.6751954e-17
5.7536902e-17
8.089657e-30
-5.9118296e-17
0
0
6.1517586e-17
-6.2324202e-17
5.2557335e-29
6.3947066e-17
-6.4763079e-17
0
6.6403696e-17
6.7228095e-17
-6.8055084e-17
-6.8884543e-17
0
7.0550377e-17
7.1386538e-17
-1.4444946e-16
-7.3064826e-17
7.3906704e-17
7.4750235e-17
1.0484913e-29
7.644181e-17
2.1461796e-29
-1.5627741e-16
0
0
0
8.1544852e-17
8.2398266e-17
0
-8.4106536e-17
-1.1771867e-29
8.5816032e-17
0
0
-8.8380655e-17
-1.2376738e-29
1.248241e-29
-9.0943104e-17
9.1796233e-17
-3.8550539e-29
-9.3500331e-17
0
-9.520097e-17
-1.3335546e-29
9.6897224e-17
-9.7743441e-17
9.8588284e-17
9.9431652e-17
-1.0027343e-16
0
1.0195184e-16
1.0278832e-16
-1.0362282e-16
-1.0445522e-16
0
-1.0611348e-16
1.0693924e-16
1.0776261e-16
-1.0858346e-16
-2.1880339e-16
6.1210281e-29
3.3309033e-16
-3.9480193e-47
-1.1264734e-16
-2.2690311e-16
6.3386448e-29
2.3010127e-16
-1.1584537e-16
1.1663688e-16
-1.1742513e-16
-1.1821001e-16
2.3798276e-16
0
0
-2.4262752e-16
2.9982342e-46
2.4568712e-16
0
0
-2.5021841e-16
2.9256962e-46
2.5319936e-16
0
0
-2.5760861e-16
-1.2953069e-16
2.6050555e-16
1.3097049e-16
0
-2.6478529e-16
7.3916769e-29
2.6759361e-16
-1.3449208e-16
0
1.3586876e-16
-1.3655004e-16
1.950107e-32
1.3789839e-16
-1.3856546e-16
1.3922774e-16
1.3988516e-16
-1.4053768e-16
-1.4118528e-16
3.93828e-29
1.4246568e-16
-1.4309844e-16
-3.990991e-29
1.4434897e-16
-1.4496667e-16
1.455793e-16
1.4618684e-16
-1.4678927e-16
-1.473866e-16
4.1090766e-29
1.4856584e-16
-1.4914773e-16
2.1277122e-32
1.5029593e-16
-1.5086221e-16
1.5142327e-16
1.5197913e-16
-1.5252978e-16
-3.0615036e-16
8.5355482e-29
3.0830024e-16
-1.546797e-16
2.2055821e-32
3.1144625e-16
4.4405197e-32
-1.5674534e-16
0
1.5774639e-16
0
-1.5872637e-16
0
0
0
-1.6062255e-16
2.3176998e-47
1.6153896e-16
0
1.624341e-16
-4.5226802e-29
-1.6330816e-16
0
0
0
-1.6499297e-16
4.5928578e-29
1.6580386e-16
0
1.665937e-16
4.6343506e-29
-1.6736262e-16
0
1.6811073e-16
-1.6847696e-16
9.3813902e-29
1.6919389e-16
-1.6954457e-16
0
-1.702304e-16
-4.7362682e-29
1.7089575e-16
0
1.7154054e-16
-1.7185523e-16
-9.5613503e-29
1.7246942e-16
-9.5924439e-29
-2.4593783e-32
4.8161227e-29
-2.4675295e-32
-1.739162e-16
0
1.7445977e-16
-4.849256e-29
-4.8564508e-29
-1.3434939e-47
-4.8729199e-29
0
-3.5194135e-16
-4.8928673e-29
1.7643473e-16
-1.7665937e-16
4.9090677e-29
1.7709403e-16
1.7730407e-16
4.9290779e-29
-4.9346397e-29
1.7790499e-16
-1.7809564e-16
-1.7828145e-16
0
-1.7863863e-16
4.9652002e-29
1.789768e-16
0
0
0
-3.5919186e-16
1.9963969e-28
3.5975447e-16
0
0
0
0
0
0
0
-3.6163052e-16
1.0052253e-28
3.620067e-16
1.8109053e-16
-1.8117317e-16
-1.8125123e-16
5.0376022e-29
1.0063564e-28
1.8145783e-16
-1.8151764e-16
1.8157297e-16
1.8162375e-16
-1.8166997e-16
-1.8171165e-16
1.0088441e-28
1.8178158e-16
1.8180989e-16
-5.0439922e-29
-1.8185301e-16
-1.8186781e-16
1.8187817e-16
1.8188405e-16
-1.8188533e-16
1.8188207e-16
0
-1.818622e-16
-1.8184562e-16
5.0437405e-29
1.8179926e-16
-1.8176951e-16
1.8173537e-16
1.8169683e-16
-1.816539e-16
1.8160659e-16
5.0414187e-29
-1.8149887e-16
-1.8143847e-16
-2.5774757e-32
3.6260928e-16
1.0062284e-28
-1.8115342e-16
-1.8107129e-16
0
1.8089406e-16
0
0
0
1.8048774e-16
1.8037538e-16
-1.8025872e-16
-1.8013777e-16
0
1.7988293e-16
-4.9938283e-29
-1.7961093e-16
0
0
1.7917081e-16
-9.9367217e-29
-1.7885596e-16
0
0
1.783517e-16
-9.8900701e-29
-1.7799416e-16
0
1.7761956e-16
-4.9267642e-29
4.9187497e-29
-4.9156538e-29
-1.7681932e-16
0
-1.7639365e-16
9.7765177e-29
1.7595103e-16
0
1.7549142e-16
-1.7525524e-16
-1.7501481e-16
3.495403e-16
4.8510684e-29
-3.485363e-16
4.8319335e-29
1.737492e-16
0
0
1.7293901e-16
-4.7919853e-29
-1.723778e-16
0
1.7179967e-16
-1.7150426e-16
-1.7120463e-16
1.7090081e-16
0
-1.7028055e-16
1.699641e-16
9.4164996e-29
-9.3984667e-29
1.6898949e-16
-1.404495e-28
1.6831876e-16
-1.6797711e-16
4.6524046e-29
-9.2901347e-29
-3.3385407e-16
4.6205456e-29
1.6620607e-16
0
0
0
-3.2942827e-16
-1.6433074e-16
3.2788637e-16
1.6355149e-16
0
0
1.6235166e-16
1.8641548e-47
-1.6153109e-16
0
-3.2138815e-16
-1.6026943e-16
3.196814e-16
1.5940788e-16
0
-3.1705999e-16
-4.4930444e-32
4.7290754e-16
-4.3601839e-29
-3.1345113e-16
1.5626438e-16
8.8561576e-32
-1.5532994e-16
4.3022636e-29
8.5648488e-29
1.5389836e-16
0
1.5292417e-16
-8.4632525e-29
-3.0386835e-16
1.5143331e-16
-2.5128756e-28
-1.5041993e-16
2.9981485e-16
-2.1229745e-32
-1.4887083e-16
0
0
0
-1.4675191e-16
1.4621274e-16
2.9133963e-16
-1.4512317e-16
-4.0144997e-29
-3.9950226e-29
-1.4346114e-16
0
1.4233487e-16
-2.0146204e-32
-2.8238833e-16
1.4061848e-16
7.7692636e-29
-1.3945656e-16
-1.3887035e-16
7.6834881e-29
2.753751e-16
0
1.3649113e-16
1.3588789e-16
0
-1.3467142e-16
-1.3405826e-16
1.3344187e-16
0
-1.3219949e-16
0
0
1.3031237e-16
-1.0798947e-28
-1.29039e-16
0
0
1.2710664e-16
1.2645672e-16
-1.2580397e-16
-1.2514842e-16
1.244901e-16
1.2382906e-16
-2.4633069e-16
-1.2249899e-16
3.3847088e-29
1.211585e-16
-6.6843777e-29
-6.6468446e-29
1.1912898e-16
-1.1844766e-16
1.1776399e-16
-1.1707802e-16
-9.9239897e-32
1.1569934e-16
-2.300135e-16
-1.1431207e-16
-1.1361534e-16
2.2583318e-16
2.2443175e-16
-1.1151325e-16
1.1080875e-16
-1.1010245e-16
6.0753302e-29
2.1736936e-16
-1.0797331e-16
2.9768818e-29
-2.9600794e-29
-1.0582981e-16
0
0
1.036735e-16
1.0295215e-16
0
-1.0150591e-16
-1.0078114e-16
0
-9.9328614e-17
2.7379533e-29
9.7872529e-17
-9.7143284e-17
2.6744657e-29
9.5682699e-17
0
9.4219798e-17
5.1906029e-29
-9.2755082e-17
9.2022186e-17
-2.5310225e-29
-9.0555645e-17
-8.9822145e-17
-2.4725467e-29
8.8355031e-17
0
-8.6888173e-17
8.6155002e-17
-2.427842e-32
4.7033191e-29
8.3957356e-17
-8.3225656e-17
0
-1.6352785e-16
1.799202e-28
8.0304896e-17
4.417104e-29
1.5769821e-16
-1.5624517e-16
-1.5479415e-16
1.5334531e-16
1.518988e-16
7.5227363e-17
0
-7.3787197e-17
-1.4613841e-16
1.0281939e-32
-7.1637792e-17
7.0924504e-17
7.0212908e-17
-6.9503063e-17
1.3759008e-16
-1.3617782e-16
-1.1223012e-28
1.3336526e-16
-1.3196521e-16
3.6237986e-29
-6.4589073e-17
6.3895699e-17
6.320468e-17
-6.2516086e-17
-1.7151381e-29
-1.2229282e-16
1.2093088e-16
1.1957425e-16
-1.1822308e-16
-1.6218974e-29
-5.7768817e-17
3.1712065e-29
5.6437737e-17
1.5480151e-29
1.2591651e-46
5.4463878e-17
1.0762448e-16
-5.3163862e-17
-2.7777664e-46
-5.1877074e-17
-8.5353355e-29
5.0603921e-17
-9.9945164e-17
2.7390113e-29
9.7441253e-17
2.9691005e-47
-4.7483336e-17
0
0
-4.5655705e-17
4.5054205e-17
8.8913259e-17
0
0
0
-4.2106534e-17
-4.1529253e-17
0
4.0387216e-17
-3.9822528e-17
-6.5391534e-29
7.7412047e-17
0
0
0
-3.6525328e-17
-3.5991192e-17
3.5461536e-17
-3.4936394e-17
-1.9113158e-29
6.7799452e-17
0
0
-6.4757989e-17
9.0612095e-33
3.1388247e-17
-3.0899864e-17
3.0416155e-17
-2.993713e-17
1.6362464e-29
5.7986321e-17
0
0
-2.7612562e-17
-2.7161839e-17
0
0
2.5838139e-17
2.5406394e-17
0
-2.4557151e-17
-2.4139659e-17
2.3726916e-17
-2.3318916e-17
-2.2915649e-17
2.2517107e-17
2.2123286e-17
-1.20703e-29
-2.1349794e-17
2.0970104e-17
5.7159222e-30
-2.0224757e-17
0
-1.9498033e-17
1.0627782e-29
1.878986e-17
-1.8442684e-17
1.0049493e-29
1.7762034e-17
0
-1.7099548e-17
4.6581059e-30
2.33841e-33
-1.6139574e-17
1.5828477e-17
1.5521783e-17
0
-2.9843051e-17
1.6247529e-29
1.4338624e-17
1.9971378e-33
2.7545678e-17
-2.699257e-17
-2.644784e-17
2.5911442e-17
1.2691658e-17
0
-2.4351623e-17
1.9852716e-29
2.3352196e-17
0
-2.2384512e-17
-6.0846437e-30
1.0724038e-17
2.9144463e-30
2.0542303e-17
-2.010073e-17
-2.4560645e-29
1.923988e-17
-1.8820461e-17
5.1076857e-30
1.8003223e-17
8.8026281e-18
-1.7214302e-17
-8.4151439e-18
1.6453134e-17
-1.6082757e-17
-1.9630769e-29
1.5362023e-17
-1.5011521e-17
2.0364361e-30
-7.1649319e-18
7.7662719e-30
2.0510156e-17
-3.7063821e-30
-1.3041661e-17
6.3674154e-18
1.2433924e-17
-6.0694258e-18
3.2895385e-30
-5.7829564e-18
-6.2688574e-30
5.5077303e-18
-1.0748473e-17
4.3664968e-30
-5.6794469e-30
2.7682493e-30
4.8667317e-18
0
4.6283667e-18
4.5128997e-18
0
0
0
0
0
-3.869639e-18
-3.7703583e-18
0
3.5782443e-18
-3.4853411e-18
-5.6545465e-30
6.6113796e-18
0
0
0
-2.9700116e-18
-2.8908012e-18
2.8134141e-18
2.7378195e-18
-5.3279717e-18
-4.3182802e-30
5.0429251e-18
0
-4.7711192e-18
-3.8646761e-30
2.256043e-18
-2.1936081e-18
2.1326846e-18
-2.0732446e-18
-1.1186202e-30
3.9173689e-18
0
0
-1.7971869e-18
-1.7460098e-18
0
-1.6474847e-18
-4.5477166e-34
-1.5538891e-18
1.5088654e-18
4.3949717e-18
0
2.7612091e-18
2.6801015e-18
0
-3.7863256e-18
-2.4493246e-18
2.3763966e-18
-1.1526981e-18
-1.1181428e-18
3.2535351e-18
1.0517855e-18
1.449431e-34
9.8897469e-19
-9.5884583e-19
-9.2953493e-19
-9.0102211e-19
-1.3165496e-48
-8.4632505e-19
-8.2010723e-19
7.9462146e-19
0
1.4915688e-18
1.4447838e-18
0
-6.775581e-19
-1.3121797e-18
-3.5251406e-31
-6.149833e-19
-1.190637e-18
1.152452e-18
1.1153722e-18
5.3968146e-19
5.2219969e-19
0
-4.8876089e-19
-1.4183406e-18
4.5727658e-19
7.7026164e-47
-1.2829295e-18
8.2696848e-19
3.9974906e-19
3.8642835e-19
7.4702645e-19
-7.2198767e-19
-3.4885723e-19
3.3708959e-19
3.2568015e-19
3.1462064e-19
-9.1171183e-19
-2.9352295e-19
8.5040249e-19
2.7372492e-19
-2.6428423e-19
-5.1027533e-19
2.4627944e-19
-2.3770429e-19
3.8194631e-31
-3.6869528e-31
-6.4076944e-19
2.0605515e-19
1.9876169e-19
3.8341181e-19
1.848827e-19
-3.565655e-19
-4.8855593e-35
-1.6571281e-19
1.5973083e-19
4.618387e-19
-4.4506831e-19
-1.4295548e-19
4.1320581e-19
0
-3.8340693e-19
-1.2308047e-19
3.5555288e-19
-1.1411086e-19
-2.1971247e-19
-5.8698057e-32
1.1297593e-31
9.7945786e-20
0
1.8133763e-19
1.7443405e-19
-8.3884193e-20
-8.0667112e-20
-1.5512697e-19
7.4570427e-20
7.1683571e-20
-1.377958e-19
0
1.2723377e-19
1.2223877e-19
-5.8713921e-20
-1.1278956e-19
3.0061299e-32
5.1998167e-20
-9.9833655e-20
4.7912844e-20
-1.5315318e-31
-8.8264096e-20
4.234703e-20
0
7.794087e-20
0
-7.9590723e-32
-3.436592e-20
-6.5889877e-20
9.473459e-20
-8.6022041e-36
-5.8016796e-20
0
5.327371e-20
2.5515956e-20
-4.8874275e-20
2.598261e-32
2.2411089e-20
-4.2929557e-20
2.0557341e-20
-3.2772572e-32
-3.7685778e-20
1.8034335e-20
-1.7259149e-20
3.303819e-20
4.7441324e-20
0
-4.3473815e-20
-2.7736744e-20
3.9811644e-20
2.5398464e-20
-1.2155558e-20
-2.3275171e-20
1.1141602e-20
1.0665171e-20
-2.0415954e-20
9.7720196e-21
1.871846e-20
-8.9678589e-21
1.2212596e-36
-1.6468557e-20
-1.5776819e-20
2.2673195e-20
-7.2453531e-21
-1.1579019e-32
2.0023991e-20
0
-1.8456347e-20
-1.1811199e-20
5.6710705e-21
5.4516887e-21
5.247311e-21
0
4.8674042e-21
-2.6017811e-33
-9.0274963e-21
2.4137636e-33
4.198052e-21
0
3.9251877e-21
-7.5939634e-21
-1.1017834e-20
7.1049372e-21
1.0317474e-20
3.3353581e-21
-3.2400974e-21
-6.2997049e-21
3.0622724e-21
-2.976474e-21
-2.8921357e-21
5.6282542e-21
-5.4894998e-21
-2.6806561e-21
7.8584882e-21
5.1189472e-21
-2.4922984e-21
-7.2762373e-21
5.2800332e-33
-5.1905153e-33
-2.2935875e-21
-2.4986003e-33
-2.2079601e-21
2.1564792e-21
2.1151799e-21
2.0857569e-21
-2.0506775e-21
-2.016166e-21
5.8818086e-21
-1.9281379e-21
-3.8382767e-21
5.2550154e-21
4.7369854e-37
-1.7296842e-21
3.5345769e-21
1.7766453e-21
0
-1.5268854e-21
-1.580104e-21
-3.2320345e-21
1.6252379e-21
-5.3897009e-33
-4.8046234e-21
1.537572e-21
1.4787282e-21
1.4703297e-21
-1.4797735e-21
-1.4784767e-21
4.3964339e-21
-1.4448707e-21
-2.8113508e-21
-2.2726899e-33
-1.3437129e-21
2.6767792e-21
3.9963464e-21
7.3246263e-34
-7.2163273e-34
-1.8073321e-37
-1.241348e-21
-2.436109e-21
-1.2055767e-21
3.5826841e-21
-1.3099264e-33
-2.3214429e-21
0
0
1.0901314e-21
-5.992814e-34
5.9282145e-34
1.0508432e-21
-2.0605996e-21
-1.0061205e-21
-1.0930707e-33
9.7346848e-22
2.8995993e-21
9.5627727e-22
0
0
0
-2.6423228e-21
-1.7395723e-21
2.5846042e-21
-9.4641402e-34
-1.6817226e-21
0
0
1.600531e-21
-1.7472959e-33
-8.5798646e-34
1.5222677e-21
-7.5391497e-22
-1.4993565e-21
-1.4853111e-21
7.295554e-22
2.1455274e-21
7.0257722e-22
0
0
0
-2.0605363e-21
-1.3515649e-21
1.9913371e-21
-1.4530805e-33
-6.489681e-22
9.2154228e-38
-6.4825358e-22
1.2883116e-21
-7.0574326e-34
-6.2698791e-22
1.2421927e-21
0
-3.4359539e-34
-1.2365932e-21
-1.227927e-21
1.8248227e-21
1.2078942e-21
-6.0156543e-22
-3.3352831e-34
5.9911585e-22
-1.7800044e-21
-1.1737542e-21
5.8259229e-22
5.8172961e-22
-5.8476124e-22
-5.8757882e-22
5.8536077e-22
5.7738328e-22
-3.1609448e-34
3.133484e-34
5.638268e-22
0
5.7170775e-22
-1.1428912e-21
-1.695346e-21
1.1145288e-21
1.1032335e-21
5.4932577e-22
-6.1110215e-34
-1.1068725e-21
5.5409497e-22
-5.5038812e-22
-5.4369589e-22
1.0751504e-21
-1.0682901e-21
-5.336588e-22
5.3530872e-22
1.0693752e-21
5.2989354e-22
-1.0470663e-21
2.8748955e-34
-5.1588831e-22
-5.1687869e-22
1.5565045e-21
-5.1704756e-22
-5.0928433e-22
1.5013294e-21
-7.0276314e-38
-1.4767773e-21
-4.9344508e-22
1.4861726e-21
-4.9522169e-22
-2.8443299e-50
-8.0956252e-34
-9.6271508e-22
9.5368942e-22
9.4432388e-22
-4.6777667e-22
5.1630769e-34
9.2989005e-22
-4.6651663e-22
-1.399485e-21
-4.6227775e-22
4.5442227e-22
0
4.4385704e-22
8.8893517e-22
-6.361086e-38
-1.3456795e-21
-4.4522393e-22
8.7920917e-22
-6.1814231e-38
-8.671995e-22
8.7006666e-22
-7.2680303e-34
-8.6891809e-22
1.2862762e-21
8.4656241e-22
0
0
-4.2970755e-22
-1.2997213e-21
-4.3125812e-22
1.2726981e-21
-4.6413148e-34
-8.3193912e-22
8.3696765e-22
8.4982259e-22
-4.311674e-22
-8.669634e-22
4.3026642e-22
4.2469227e-22
-1.2640956e-21
-4.2128769e-22
-7.063519e-34
2.3796343e-34
4.3350808e-22
-4.3641684e-22
8.7475355e-22
1.3122196e-21
0
-1.3134124e-21
-8.7631249e-22
1.3169909e-21
-1.2536592e-37
-4.4477059e-22
8.9870072e-22
-4.5219465e-22
-4.5214106e-22
-5.0053293e-34
4.506237e-22
9.0625984e-22
-4.583694e-22
-9.2947458e-22
-9.3703037e-22
5.1988958e-34
4.6630445e-22
-4.6583948e-22
9.3660025e-22
1.4203882e-21
0
-1.4533741e-21
-9.7169452e-22
1.4557009e-21
-5.3902643e-34
-4.8703338e-22
4.8995319e-22
4.9433652e-22
-2.7692977e-34
-1.005017e-21
2.7936566e-34
1.005218e-21
-5.579083e-34
-5.597236e-34
-1.0155735e-21
-1.5391604e-21
1.0367054e-21
-5.7930738e-34
-1.7399417e-33
5.2253671e-22
5.2336545e-22
1.0494384e-21
-1.5787952e-21
-5.2802577e-22
1.0616652e-21
-1.0708762e-21
-3.0753981e-37
1.6329647e-21
5.4362092e-22
-5.408747e-22
-1.6175042e-21
1.8006409e-33
1.0913979e-21
5.5312663e-22
-1.1191632e-21
-1.6884086e-21
1.6889751e-21
5.6265279e-22
6.2523022e-34
5.6488373e-22
-1.1336555e-21
3.1611421e-34
-5.7379815e-22
5.7938163e-22
-1.9436129e-33
-1.753332e-21
1.7496686e-21
1.7470968e-21
0
0
0
-6.0394299e-22
-1.8159152e-21
-6.032525e-22
-6.6792709e-34
-6.032084e-22
1.8267853e-21
6.1813457e-22
-6.2673511e-22
-6.3060305e-22
-6.2938562e-22
1.2555431e-21
-6.2839187e-22
6.3159105e-22
-2.1244018e-33
-1.2913665e-21
1.9568139e-21
1.3124494e-21
0
-1.3218117e-21
-7.3671462e-34
6.6665631e-22
-2.0099441e-21
-6.7365656e-22
6.7830848e-22
0
0
6.9092708e-22
1.3836079e-21
-1.5383439e-33
-1.3908004e-21
-7.00464e-22
7.0796352e-22
-7.1432369e-22
7.1675022e-22
-6.3617475e-51
-1.1975548e-33
2.1653478e-21
0
0
-1.4646714e-21
-1.4642096e-21
-7.3168931e-22
8.1353661e-34
2.2165166e-21
-8.298185e-34
-1.5037132e-21
0
1.489325e-21
7.4135753e-22
-1.4812135e-21
7.4551502e-22
7.5360118e-22
-2.2781571e-21
7.5960414e-22
-2.5210087e-33
-1.5094977e-21
2.259058e-21
1.5029996e-21
0
0
0
-2.2519784e-21
-1.5020303e-21
2.2362154e-21
1.4744752e-21
0
-1.4389099e-21
8.008125e-34
7.2911542e-22
-1.4645158e-21
7.2589301e-22
-7.124818e-22
-6.9692482e-22
2.05514e-21
-1.3667422e-21
-1.3806733e-21
6.9694147e-22
-6.9447145e-22
1.3610557e-21
1.9900272e-21
0
-1.9076356e-21
-1.2684367e-21
6.3727024e-22
6.3888643e-22
-7.0270232e-34
6.1800744e-22
-1.9995831e-33
-5.8382901e-22
-3.1739692e-34
-3.3365922e-52
5.6533595e-22
0
5.544089e-22
-1.0762649e-21
-1.5597858e-21
1.51008e-21
1.4738024e-21
0
-9.616772e-22
-9.4912708e-22
9.2487768e-22
-4.445628e-22
-4.2657283e-22
1.2341472e-21
-8.0060193e-22
-7.8703766e-22
3.8705858e-22
7.5285265e-22
3.6060519e-22
-1.0273694e-21
-3.2584626e-22
-5.2204293e-34
6.1011247e-22
1.692574e-37
-8.6439e-22
5.4817513e-22
7.6918365e-22
2.3941704e-22
-6.7917991e-22
-4.3472364e-22
6.3048024e-22
-4.4735284e-34
-3.7781502e-22
-1.7271476e-22
8.70995e-35
2.8955473e-22
-1.5138254e-34
1.2952662e-22
1.2126832e-22
-3.2919299e-22
-9.5487019e-23
-9.1263003e-35
1.4516957e-22
-2.1946402e-34
-1.7891682e-22
1.0238324e-22
-4.3995862e-35
-2.9960991e-35
-3.8436886e-35
-1.2076544e-23
2.6988994e-23
-5.0237011e-24
3.268084e-36
4.2097092e-35
7.35261e-23
-3.2652476e-23
-7.1074206e-23
3.9858601e-35
-3.6921075e-23
-4.0327356e-23
9.3137475e-23
1.0872668e-22
-6.7459801e-35
-1.9162391e-22
7.1183811e-35
6.3333844e-23
-1.2616447e-22
6.4121038e-23
6.6767667e-23
-3.9068005e-35
4.0414963e-35
-7.2124409e-23
1.3774751e-22
-6.5032483e-23
2.0752133e-34
2.0637978e-34
-1.9096314e-22
1.2837029e-22
-1.7332135e-38
-1.0947552e-22
4.8074748e-23
1.2950626e-22
4.1333256e-23
-1.2415092e-22
4.3506167e-35
3.2626663e-23
-4.6934425e-23
2.9263759e-23
4.097575e-35
-5.0379729e-24
3.263551e-24
1.1503984e-24
-1.9218434e-23
2.0175746e-23
9.085743e-23
0
0
-9.4297537e-23
-1.549303e-38
1.2883913e-22
-7.5091378e-23
-2.5330176e-22
-9.1103546e-23
2.8891681e-22
2.9359892e-38
1.2599731e-34
2.5100474e-22
-4.1171716e-22
-7.2972861e-34
1.5092199e-22
-1.5518852e-22
-1.626726e-22
1.9303973e-34
1.8681854e-22
-3.9844292e-22
4.1618392e-22
-7.0792845e-34
-4.3286949e-22
6.7020519e-22
4.675694e-22
-2.461703e-22
-7.7457427e-22
-2.6685778e-22
2.7119141e-22
0
-2.8096211e-22
2.8995362e-22
9.0232321e-22
1.7269078e-34
-6.3709598e-22
3.2286198e-22
3.2716412e-22
-6.6688994e-22
3.4159566e-22
-3.5101851e-22
-7.1654581e-22
1.0842186e-21
-1.2106379e-33
8.1592026e-34
7.4852217e-22
-7.6771869e-22
-3.9344993e-22
-3.9852367e-22
-4.4182276e-34
3.9642344e-22
-7.9660001e-22
8.0868182e-22
1.243626e-21
0
-4.3011467e-22
2.3766499e-34
1.2068527e-37
-1.2713022e-21
-4.2732369e-22
1.3061251e-21
-4.4479753e-22
8.423342e-51
1.3549466e-21
-4.482483e-22
-1.3373765e-21
-4.4615395e-22
9.0007181e-22
-4.5734386e-22
4.6467046e-22
-1.5577306e-33
-9.3065942e-22
1.3854316e-21
5.1117133e-34
-2.0503857e-33
9.3333432e-22
-9.4644194e-22
-5.2967366e-34
4.7648116e-22
-9.4648008e-22
-4.7064217e-22
0
0
9.6118339e-22
-1.077065e-33
-2.7596873e-37
-5.3569051e-34
-4.7985185e-22
-4.7949897e-22
4.8218107e-22
4.8775717e-22
-9.849222e-22
9.8697011e-22
-5.4525647e-34
-9.7773811e-22
9.7731694e-22
1.6360542e-33
-5.5140139e-34
5.0148552e-22
-1.0051491e-21
5.0009298e-22
-1.1051082e-33
-9.9476112e-22
0
1.0115134e-21
5.1195683e-22
-1.0290004e-21
-5.1228016e-22
5.0940778e-22
-8.4662164e-34
-5.0970853e-22
0
0
1.0511764e-21
1.0525295e-21
0
-1.0443951e-21
-5.2198536e-22
5.2329737e-22
-5.2696868e-22
5.3216517e-22
0
-1.0796323e-21
0
0
5.3319196e-22
-5.9192539e-34
-5.3597693e-22
0
5.4476678e-22
3.0214033e-34
-5.4198425e-22
0
1.0782422e-21
1.0868878e-21
-5.5067563e-22
-6.1808408e-34
5.5569602e-22
-1.0933743e-21
-1.0748059e-21
1.0617344e-21
1.5050619e-37
1.189401e-33
1.5467367e-37
-1.1015547e-21
5.5359952e-22
-6.1396995e-34
5.4918288e-22
-5.4188789e-22
-1.6017192e-21
1.5825289e-21
5.2398044e-22
-5.2523111e-22
-5.8823463e-34
-5.3411854e-22
1.0708572e-21
1.0678826e-21
-1.0599839e-21
-1.743123e-33
-5.1521937e-22
-5.0771885e-22
1.0039462e-21
-5.0032618e-22
5.5911531e-34
-2.8205654e-34
5.0745591e-22
9.9935893e-22
-9.7514749e-22
-9.5357387e-22
0
4.6881742e-22
5.2406688e-34
-9.491816e-22
-5.2487528e-34
1.3946485e-21
9.0694459e-22
0
-8.7268471e-22
-9.6001008e-34
-4.3246745e-22
-4.3308805e-22
1.2922828e-21
-2.3482359e-34
-8.2357685e-22
4.0147196e-22
7.8774022e-22
-3.8975306e-22
-7.7831716e-22
-3.8870852e-22
0
7.5289449e-22
-3.658122e-22
-1.0695128e-21
3.5005502e-22
3.4642667e-22
6.8900619e-22
3.415786e-22
-6.7151105e-22
-3.2731722e-22
-3.1906592e-22
3.4707569e-34
3.0807226e-22
3.04869e-22
6.0097469e-22
2.9363111e-22
0
0
0
-5.4147921e-22
-5.3731601e-22
5.2842927e-22
2.8449507e-34
2.7433585e-34
-2.6621597e-34
-5.2417727e-34
4.6973457e-22
0
-4.6198279e-22
-2.2397483e-22
2.1475577e-22
-2.0713173e-22
-2.0313699e-22
0
0
4.0245041e-22
-6.5612875e-34
-4.2098253e-34
3.6375685e-22
-3.5316869e-22
-3.4860506e-22
0
3.4858387e-22
-1.9224213e-34
-3.3922879e-22
3.27324e-22
1.7508522e-34
-3.0749883e-22
0
3.041868e-22
1.5222816e-22
-3.0274458e-22
1.4903095e-22
3.2348424e-34
-2.846952e-22
2.7956622e-22
2.7598888e-22
0
0
0
-2.745788e-22
-2.7234795e-22
2.6641674e-22
0
-2.5579975e-22
0
-1.308977e-22
2.6677703e-22
1.3399615e-22
-1.3184254e-22
2.5704603e-22
1.2684432e-22
-2.5597338e-22
-1.3094333e-22
-1.4882056e-34
1.3536857e-22
-2.9828513e-34
7.5688684e-38
2.6736757e-22
0
-1.3888526e-22
-2.8149885e-22
-1.4024084e-22
0
0
0
-1.4972741e-22
3.0876733e-22
1.5592435e-22
-1.5396569e-22
-1.523423e-22
1.5393756e-22
1.5906928e-22
-3.329035e-22
0
3.5295261e-22
3.5199268e-22
0
0
-3.6429551e-22
-2.0994796e-34
-1.9527395e-22
-1.9885994e-22
2.0060782e-22
-2.0293707e-22
2.0801428e-22
4.3131776e-22
2.2413562e-22
0
-4.5794023e-22
-2.5296385e-34
2.3045433e-22
-2.3832302e-22
-2.5082607e-22
-5.2661073e-22
5.4144141e-22
2.7127465e-22
-7.6177308e-38
2.6644312e-22
-5.4455119e-22
2.858781e-22
-3.0171682e-22
1.7431566e-50
3.223379e-22
-6.4582814e-22
6.4105119e-22
6.3977647e-22
0
-3.3898843e-22
-7.1076091e-22
2.0513728e-34
3.7904283e-22
3.8241793e-22
-7.6362308e-22
-7.6455448e-22
3.8655295e-22
7.9440453e-22
8.2627195e-22
-4.2825461e-22
-8.7930678e-22
4.4528144e-22
-4.4635205e-22
7.4630049e-34
4.5200306e-22
-9.1862919e-22
9.4427543e-22
5.3981718e-34
-2.7693709e-33
1.0144886e-21
-1.022038e-21
-2.2797114e-33
5.1684909e-22
-1.0438052e-21
5.298469e-22
-1.5373589e-37
2.4534418e-33
5.6222077e-22
-1.13604e-21
1.26715e-33
-3.1834118e-34
5.7715063e-22
-1.6534245e-37
-1.1789441e-21
1.1983896e-21
3.4524017e-37
-2.7158043e-33
1.226047e-21
-1.2286992e-21
-1.3678434e-33
1.2387272e-21
-6.2593468e-22
-6.3339727e-22
-6.3784177e-22
6.3782434e-22
-7.0685224e-34
-1.2717057e-21
0
0
1.2876229e-21
1.8383618e-37
-1.2904271e-21
6.4175929e-22
-7.0874242e-34
6.3588007e-22
1.4096045e-33
-1.2705149e-21
0
-6.3136194e-22
1.2530543e-21
6.2146336e-22
-1.3685812e-33
6.1159669e-22
-1.2131052e-21
6.0028384e-22
-6.578661e-34
-1.1703455e-21
0
0
5.6289696e-22
-3.064949e-34
5.4075973e-22
-5.3007817e-22
-1.5644746e-21
1.5410388e-21
5.0362954e-22
-9.7956145e-22
4.746594e-22
7.6635816e-34
4.4746531e-22
-2.4833431e-37
-1.4177594e-33
4.1130395e-22
-7.8744918e-22
-3.755364e-22
0
-3.4455159e-22
3.3144781e-22
3.1666356e-22
2.9858375e-22
-6.1778897e-34
2.8653917e-34
-2.66625e-34
-4.4842711e-22
2.0845193e-22
3.1699118e-34
-3.3836939e-22
2.0896461e-38
1.2637136e-22
2.160117e-22
1.816162e-22
-1.4505004e-22
-5.7303327e-35
-2.8541912e-23
-6.2049531e-24
-2.7095044e-23
6.3464592e-23
5.0250626e-23