/*--------------------------------*- C++ -*----------------------------------*\
  =========                 |
  \\      /  F ield         | OpenFOAM: The Open Source CFD Toolbox
   \\    /   O peration     | Website:  https://openfoam.org
    \\  /    A nd           | Version:  7
     \\/     M anipulation  |
\*---------------------------------------------------------------------------*/
FoamFile
{
    version     2.0;
    format      ascii;
    class       volScalarField;
    location    "0.00066";
    object      Uz;
}
// * * * * * * * * * * * * * * * * * * * * * * * * * * * * * * * * * * * * * //

dimensions      [0 1 -1 0 0 0 0];

internalField   nonuniform List<scalar> 
5000
(
0
0
0
0
0
-8.5014117e-43
3.2399491e-43
3.039882e-28
-5.06647e-29
8.106352e-28
8.106352e-28
-1.013294e-28
8.6398642e-43
1.7855719e-42
4.053176e-28
-1.1146234e-27
-1.9515332e-55
-8.9278597e-43
-6.079764e-28
1.6212704e-27
2.026588e-28
0
0
3.039882e-28
-3.0239525e-42
-8.3518688e-43
-5.06647e-28
6.079764e-28
5.573117e-28
-2.533235e-28
5.3135165e-42
-5.1839185e-42
-4.559823e-28
-1.519941e-28
-3.546529e-28
0
0
3.546529e-28
4.559823e-28
-2.533235e-28
4.2479333e-42
2.533235e-28
-5.06647e-29
-2.5703596e-42
-2.026588e-28
1.013294e-28
-2.2060103e-56
6.9406909e-42
-6.9694905e-42
2.0054639e-56
5.06647e-29
0
0
0
0
0
0
0
0
0
0
0
0
1.519941e-28
2.533235e-28
-2.533235e-28
2.6135589e-42
1.6203136e-70
2.533235e-28
0
0
3.546529e-28
5.573117e-28
0
-1.519941e-28
-5.2487175e-42
-2.026588e-28
-2.026588e-28
1.519941e-28
-3.039882e-28
1.013294e-28
2.8799547e-43
1.519941e-27
-7.093058e-28
-6.3243806e-41
8.106352e-28
3.039882e-28
-1.519941e-28
-1.013294e-28
-2.533235e-28
3.039882e-28
5.06647e-29
3.5279446e-42
-1.5657171e-41
2.1038069e-41
7.093058e-28
9.626293e-28
3.5567441e-41
-3.880739e-41
-1.013294e-28
-2.026588e-28
3.546529e-28
-3.5999434e-44
-2.026588e-28
0
-8.106352e-28
-1.5875751e-41
-3.546529e-28
4.559823e-28
3.546529e-28
-5.06647e-28
-4.053176e-28
9.119646e-28
-5.06647e-29
-1.519941e-28
2.026588e-28
4.0080831e-42
-1.4399774e-43
-2.026588e-28
-1.4753661e-42
1.0627033e-41
3.039882e-28
-3.039882e-28
-1.013294e-28
2.026588e-28
-1.013294e-28
-5.06647e-29
-4.053176e-28
6.586411e-28
2.099487e-41
5.06647e-28
1.519941e-27
-5.06647e-28
-2.026588e-28
-8.5528471e-43
7.0558891e-42
-1.0540634e-41
2.8223557e-41
8.106352e-28
-1.013294e-28
2.533235e-28
7.093058e-28
5.573117e-28
9.119646e-28
-4.2162538e-41
1.1796295e-44
-7.1998869e-44
4.3199321e-44
-8.7818996e-56
2.533235e-28
-3.1621903e-41
3.5279446e-41
-3.546529e-28
4.053176e-28
1.013294e-28
5.2703172e-42
-3.039882e-28
2.026588e-28
5.7599095e-44
2.533235e-28
0
8.4679864e-42
7.0126898e-42
-5.06647e-28
2.533235e-28
-7.1998869e-44
-2.533235e-28
5.06647e-29
5.06647e-29
1.013294e-28
1.8999061e-40
1.5459597e-40
-2.533235e-28
9.119646e-28
0
-1.4054179e-41
-7.3784441e-41
4.053176e-28
3.039882e-28
3.1427506e-41
-3.546529e-28
2.533235e-28
3.4847452e-42
-2.1599661e-44
1.4039779e-41
4.053176e-28
-6.586411e-28
-3.039882e-28
3.4847452e-42
-3.1427506e-41
1.2640121e-40
-3.8490595e-41
1.519941e-28
0
0
0
0
6.586411e-28
-9.5060106e-41
-5.06647e-29
3.124386e-41
-4.053176e-28
-4.053176e-28
-7.093058e-28
-2.8050759e-41
8.4152278e-41
1.013294e-28
-5.06647e-29
-1.013294e-28
0
2.026588e-28
2.1038069e-41
-2.026588e-28
-5.06647e-29
7.0558891e-42
-1.519941e-28
-7.6716722e-41
4.053176e-28
6.079764e-28
-2.026588e-28
-4.559823e-28
0
0
0
-4.559823e-28
-5.573117e-28
-1.2159528e-27
4.559823e-28
-3.1686702e-41
4.053176e-28
2.533235e-28
3.039882e-28
-4.3199321e-44
-1.4399774e-44
3.546529e-28
3.546529e-28
-3.039882e-28
3.5999434e-44
-1.0555034e-41
-3.546529e-28
3.0950874e-40
1.1946052e-40
-6.586411e-28
1.519941e-28
0
-3.039882e-28
1.013294e-28
-5.06647e-29
2.533235e-28
0
6.079764e-28
-3.039882e-28
-3.039882e-28
1.7589324e-41
-8.106352e-28
-1.8239292e-27
2.2799115e-27
2.026588e-28
0
-1.013294e-28
-6.1753069e-42
-3.3031759e-43
2.533235e-28
3.546529e-28
-1.1146234e-27
-1.519941e-27
7.599705e-28
1.013294e-27
8.4325075e-41
-5.06647e-28
1.548141e-42
-8.9215934e-55
1.519941e-28
-3.039882e-28
2.026588e-28
-2.8223557e-41
1.5277162e-42
4.2459755e-42
1.013294e-28
-3.039882e-28
-4.7498647e-54
-3.039882e-28
-1.013294e-28
2.8050759e-41
-5.573117e-28
0
0
4.053176e-28
-3.039882e-28
-2.026588e-28
1.519941e-28
2.8799547e-44
-6.079764e-28
-2.533235e-28
-1.519941e-28
0
-4.559823e-28
-2.533235e-28
0
7.093058e-28
1.013294e-28
5.06647e-28
-1.402538e-41
2.8799547e-44
-5.06647e-28
-1.013294e-27
4.559823e-28
-5.06647e-29
4.053176e-28
-4.3199321e-43
-1.3172822e-27
5.06647e-29
-5.06647e-28
-5.06647e-28
-2.1081269e-41
-2.026588e-28
0
0
4.559823e-28
-1.4068579e-41
1.4061379e-41
-1.4082979e-41
-1.013294e-28
-1.013294e-28
2.1599661e-44
-3.039882e-28
0
0
0
0
0
0
0
-1.519941e-28
0
-3.546529e-28
0
-5.06647e-29
-1.4054179e-40
5.06647e-28
0
0
2.8381162e-41
-7.7377184e-41
4.053176e-28
0
0
8.106352e-28
4.559823e-28
-3.039882e-28
-4.559823e-28
0
-5.06647e-29
6.4798982e-44
6.586411e-28
-4.559823e-28
-3.039882e-28
-1.519941e-28
-5.06647e-28
0
3.546529e-28
2.533235e-28
5.06647e-29
3.039882e-28
0
-4.559823e-28
-5.573117e-28
1.519941e-28
-3.546529e-28
0
0
0
0
0
0
0
0
-3.039882e-28
-5.4642931e-55
-6.079764e-28
0
0
0
-6.079764e-28
-4.2162538e-41
-1.013294e-28
2.026588e-28
-2.1102868e-41
1.4399774e-44
7.0342895e-42
5.06647e-29
-2.026588e-28
-1.519941e-28
1.6890935e-40
5.06647e-29
5.06647e-29
0
0
-4.559823e-28
-2.1102868e-41
-1.9862303e-41
-4.430259e-41
-5.06647e-29
0
5.06647e-28
3.546529e-28
-4.053176e-28
-1.4061379e-40
9.7576662e-56
5.6274316e-41
-4.559823e-28
1.013294e-28
7.806133e-56
4.2205737e-41
2.533235e-28
0
0
3.039882e-28
5.0399208e-44
2.1081269e-41
-5.06647e-29
0
0
-1.519941e-28
-5.6187917e-41
-4.053176e-28
0
0
0
1.013294e-28
1.4399774e-44
2.026588e-28
1.013294e-28
-1.013294e-28
2.8165957e-41
5.06647e-28
-5.06647e-28
-2.9544016e-40
7.0342895e-42
-7.0342895e-41
-1.519941e-28
0
0
1.013294e-28
-7.0342895e-42
9.8429653e-41
4.8788331e-57
2.026588e-28
-2.533235e-28
-5.06647e-29
0
-5.06647e-29
7.0342895e-42
-1.519941e-28
0
0
-6.079764e-28
1.0079842e-43
-9.7576662e-57
-5.06647e-28
7.093058e-28
-7.0198897e-41
2.8137158e-41
4.2184137e-41
3.546529e-28
3.3032878e-41
1.4068579e-41
-4.2227337e-41
2.8151558e-41
-1.519941e-28
4.053176e-28
-5.6274316e-41
4.9340825e-41
0
-4.053176e-28
-5.06647e-29
2.1102868e-41
-7.1998869e-45
-1.4068579e-41
-4.2248936e-41
-2.026588e-28
1.013294e-28
5.06647e-29
3.039882e-28
1.013294e-28
0
-2.533235e-28
1.407298e-41
0
5.2580863e-42
-4.9240026e-41
7.1998869e-44
4.9189627e-41
-3.546529e-28
1.013294e-28
-2.8108358e-41
8.4411474e-41
3.546529e-28
-1.519941e-28
4.053176e-28
-2.1599661e-44
2.8108358e-41
-2.026588e-28
4.559823e-28
-7.7377184e-41
-4.559823e-28
0
0
0
2.026588e-28
4.053176e-28
-2.026588e-28
5.06647e-29
0
6.586411e-28
4.053176e-28
2.533235e-28
5.06647e-29
0
1.013294e-28
-1.9295677e-41
-2.533235e-28
-4.2205737e-41
-2.533235e-28
0
0
0
0
1.013294e-28
1.4054179e-41
3.039882e-28
-4.053176e-28
-2.8137158e-41
-2.8165957e-41
-9.7576662e-57
5.573117e-28
5.573117e-28
-1.013294e-27
-7.0342895e-41
7.7297985e-41
-2.026588e-28
0
-4.559823e-28
-3.546529e-28
-5.06647e-29
-3.9347388e-54
5.06647e-29
0
0
-4.053176e-28
5.6216717e-41
3.039882e-28
0
-1.013294e-28
-6.4798982e-44
1.4068579e-40
2.1081269e-41
5.06647e-29
1.519941e-28
-4.3199321e-44
1.4068579e-41
-1.519941e-28
-1.013294e-28
-8.4411474e-41
-4.3199321e-44
6.3308605e-41
-1.013294e-28
6.079764e-28
0
-9.4184987e-53
9.8379254e-41
1.0540634e-40
2.9193495e-56
2.026588e-28
-1.519941e-28
-1.9515332e-56
-2.1102868e-41
7.0342895e-41
1.4068579e-41
-6.079764e-28
2.533235e-28
4.053176e-28
4.2205737e-41
-1.4068579e-41
4.053176e-28
-1.013294e-28
2.533235e-28
2.9272999e-56
0
4.8788331e-57
1.519941e-28
-2.533235e-28
-1.9515332e-56
4.2162538e-41
-1.4399774e-44
-4.053176e-28
9.119646e-28
8.4411474e-41
-3.3356104e-42
-3.5135448e-41
6.3243806e-41
-2.533235e-28
2.026588e-28
3.9030665e-56
-7.1760472e-54
-4.7366067e-54
4.2184137e-41
5.6274316e-41
-4.3909498e-56
0
2.533235e-28
0
0
-5.06647e-29
-5.6274316e-41
3.546529e-28
0
0
-1.347207e-41
-2.1088469e-40
1.1146234e-27
-6.079764e-28
4.3199321e-44
7.0342895e-42
-5.573117e-28
0
0
0
2.026588e-28
9.8379254e-41
-4.559823e-28
0
0
1.519941e-28
-3.5999434e-44
-1.013294e-28
0
0
-5.06647e-29
-9.8379254e-41
-5.6303115e-41
-8.4411474e-41
-2.533235e-28
-5.06647e-29
-5.6245516e-41
7.0306895e-41
3.5687853e-54
5.06647e-29
0
0
-4.053176e-28
2.4394166e-55
3.039882e-28
0
0
2.533235e-28
2.3418399e-55
-2.026588e-28
0
0
-4.053176e-28
-3.9030665e-55
-3.546529e-28
0
0
-1.013294e-28
3.5999434e-44
1.519941e-28
-2.533235e-28
5.6303115e-41
7.0378894e-41
-2.1102868e-40
-6.586411e-28
0
0
0
0
0
-2.026588e-28
1.1249103e-40
3.039882e-28
0
0
0
0
0
0
0
5.06647e-29
5.6245516e-41
4.559823e-28
0
0
0
0
0
0
0
5.06647e-29
4.2184137e-41
5.06647e-29
0
0
-4.053176e-28
9.8530452e-41
3.546529e-28
0
0
0
3.039882e-28
7.0378894e-41
-1.519941e-28
0
0
0
0
0
0
0
-2.533235e-28
2.1599661e-44
5.06647e-29
0
0
0
0
0
0
0
5.573117e-28
6.4798982e-44
-1.013294e-28
0
0
0
-2.533235e-28
8.4389874e-41
-3.039882e-28
0
4.559823e-28
-2.8151558e-41
1.519941e-28
0
0
-4.053176e-28
5.06647e-29
-1.519941e-28
-2.533235e-28
0
0
0
0
4.053176e-28
-7.1998869e-44
-8.106352e-28
5.06647e-29
-7.093058e-28
-1.013294e-27
3.039882e-28
2.026588e-28
0
0
0
0
4.559823e-28
7.0378894e-41
-1.013294e-28
0
0
0
0
0
0
0
0
0
0
0
0
0
0
-5.06647e-29
-5.6274316e-41
-2.533235e-28
0
0
4.559823e-28
-1.1254863e-40
2.8799547e-44
5.06647e-29
5.06647e-29
-2.8129958e-41
-2.8151558e-41
3.546529e-28
0
0
0
0
0
3.546529e-28
-1.1251983e-40
1.1022843e-42
0
0
0
0
0
0
0
-6.079764e-28
2.5310482e-40
-2.533235e-28
0
0
0
0
0
0
0
-6.079764e-28
5.4848738e-40
5.06647e-29
0
0
0
0
0
0
0
0
5.06647e-29
2.1599661e-44
2.026588e-28
0
0
0
0
-5.06647e-29
-5.06647e-29
-1.013294e-28
3.039882e-28
9.8480053e-41
-1.013294e-28
0
0
0
0
2.533235e-28
-1.4061379e-41
4.053176e-28
-3.546529e-28
-9.119646e-28
7.093058e-28
0
0
0
-5.06647e-29
-2.4105445e-54
-5.06647e-29
-2.026588e-28
2.026588e-28
-2.026588e-28
1.013294e-28
0
0
4.559823e-28
5.06647e-28
-7.093058e-28
-1.013294e-28
2.533235e-28
-2.8137158e-41
5.06647e-28
0
0
0
5.06647e-29
-4.559823e-28
6.079764e-28
2.026588e-28
-2.8545127e-42
6.765159e-55
5.06647e-29
0
0
0
2.026588e-28
4.2184137e-41
4.559823e-28
0
0
0
0
0
0
0
1.013294e-28
2.8122758e-41
-5.1778081e-41
-8.4411474e-41
4.053176e-28
0
0
-3.039882e-28
7.1998869e-44
-1.1254863e-40
7.0306895e-41
5.06647e-29
-1.519941e-28
5.6274316e-41
5.06647e-28
0
0
-1.519941e-28
1.2657401e-40
-5.6245516e-41
2.8799547e-44
2.026588e-28
5.06647e-29
2.5803061e-44
1.013294e-28
-2.8108358e-41
-4.053176e-28
3.039882e-28
0
2.026588e-28
2.8151558e-41
-1.013294e-28
0
5.06647e-29
-2.026588e-28
2.2503966e-40
-5.06647e-29
-2.533235e-28
0
3.039882e-28
0
-1.1146234e-27
0
2.533235e-28
2.533235e-28
1.6865015e-40
9.119646e-28
-8.612999e-28
0
6.079764e-28
1.9696011e-40
-1.1146234e-27
0
1.2159528e-27
-1.2159528e-27
3.7439412e-43
1.7732645e-27
-2.026588e-27
0
2.0772527e-27
2.9892173e-27
-3.8505172e-27
-4.053176e-27
4.5091583e-27
-4.9651406e-27
-5.1677994e-27
5.4211229e-27
0
0
0
0
0
0
1.3071493e-26
-8.2940163e-56
-3.2628067e-26
1.8137963e-26
2.0468539e-26
-2.2799115e-26
0
0
3.0550814e-26
3.4451996e-26
-3.8910489e-26
-4.2963665e-26
0
5.314727e-26
1.6426434e-38
-6.5813445e-26
0
0
9.0689813e-26
1.0056943e-25
-1.1201965e-25
-1.2448317e-25
0
1.5295673e-25
-4.7045328e-38
-1.880167e-25
2.0909322e-25
1.2886818e-37
3.6604225e-41
2.8605289e-25
-3.1721169e-25
-3.5156235e-25
0
0
4.7797078e-25
-1.4701172e-37
-5.8639323e-25
0
7.1842544e-25
7.9467582e-25
-8.7943786e-25
-9.7296489e-25
0
0
0
0
0
0
1.9599639e-24
-6.0068805e-37
-2.3898032e-24
0
0
0
0
0
0
4.7479917e-24
-2.4428317e-53
-5.7659468e-24
-6.3519854e-24
-1.9406573e-36
7.7037196e-24
0
0
0
0
1.2428963e-23
3.793057e-36
-1.5025427e-23
1.6515679e-23
1.8149261e-23
-1.9940055e-23
1.2157468e-35
2.002962e-35
2.1982831e-35
-8.0528094e-36
1.7665549e-35
-9.6860122e-36
-3.8282348e-23
0
4.6030197e-23
-4.2011056e-35
7.8580933e-39
6.0585811e-23
-6.6365893e-23
-7.2680893e-23
7.957798e-23
-2.4176277e-35
7.9347885e-35
5.7912973e-35
6.3301569e-35
-3.4614207e-35
7.5731072e-35
1.4913838e-22
-1.6298854e-22
-1.7808297e-22
1.9452955e-22
-5.8931436e-35
2.5750705e-34
7.0272614e-35
-7.6729425e-35
-8.363122e-35
-9.1272524e-35
3.5864411e-22
0
-4.2623376e-22
1.2891617e-34
-8.340092e-51
-5.5125012e-22
0
6.5357742e-22
-7.1140271e-22
-7.7415814e-22
8.4224633e-22
0
0
0
0
1.2791408e-21
-3.8567504e-34
8.3798831e-34
-1.6388686e-21
-1.7791324e-21
1.9309301e-21
0
0
0
0
2.8971013e-21
4.4617327e-37
-3.4017005e-21
0
0
0
0
0
0
0
6.4021583e-21
6.9209999e-21
-7.480018e-21
-8.0821639e-21
0
0
0
0
0
0
1.3798798e-20
1.4879539e-20
-1.6040848e-20
-1.7288391e-20
0
0
0
0
0
0
2.8995722e-20
3.1186741e-20
-3.3534654e-20
-3.6049997e-20
0
0
0
0
0
0
5.9377409e-20
-3.5366331e-32
-6.8315208e-20
0
0
0
0
0
0
1.1067299e-19
-3.2889486e-32
-1.2672639e-19
0
0
0
0
1.7696799e-19
2.6863945e-35
-2.0187712e-19
2.1552966e-19
-7.2010383e-49
-2.4546716e-19
2.618541e-19
-1.5508926e-31
-2.9773915e-19
3.1735555e-19
1.8775903e-31
2.0001967e-31
-1.8569849e-47
2.2674969e-31
1.2061661e-31
-4.6270041e-19
4.9223483e-19
5.2350914e-19
-1.1132314e-18
3.2824316e-31
1.2574326e-18
0
-7.0936285e-19
2.0914015e-31
2.2210677e-31
7.0622702e-31
7.4933478e-31
5.2953776e-31
-8.4260191e-31
5.9526268e-31
-3.1579096e-31
-1.204133e-18
0
1.3501634e-18
2.0308424e-34
1.2588409e-30
1.3318813e-30
-2.4040178e-34
-9.9275132e-31
5.2490174e-31
1.9973442e-18
0
-2.2279977e-18
1.3055962e-30
3.5277025e-34
-2.6191503e-18
0
2.9131107e-18
-3.0708915e-18
-3.236268e-18
3.4095478e-18
0
0
3.9800218e-18
-4.6501068e-30
2.4443627e-30
-2.572652e-30
1.353434e-30
-5.1202771e-18
-5.3800622e-18
5.6513398e-18
0
0
0
0
7.194818e-18
2.0948191e-30
8.7788004e-30
-8.2865271e-18
-8.6808259e-18
9.0911338e-18
0
0
0
0
1.1400539e-17
1.1917641e-17
-1.2454397e-17
-1.3011354e-17
0
0
0
0
0
0
1.7522562e-17
1.826133e-17
-1.9025395e-17
-1.9815333e-17
0
0
0
0
0
0
2.6117445e-17
-2.2596751e-29
-5.6366598e-17
2.9263188e-17
9.1125284e-17
3.151954e-17
0
-6.7816153e-17
3.9035337e-29
1.2132731e-28
3.7747315e-17
7.8194606e-17
-8.096629e-17
4.1905257e-17
4.3364037e-17
-4.4859867e-17
4.6393108e-17
-6.8161088e-33
-4.957317e-17
-5.1220613e-17
5.2906709e-17
5.4631712e-17
-5.6395852e-17
5.8199337e-17
8.5325308e-33
-6.1925039e-17
0
0
0
-1.3970952e-16
7.1937222e-17
1.4811943e-16
-7.6222192e-17
7.8424581e-17
8.0666776e-17
-1.6589728e-16
8.995434e-46
8.7630681e-17
-9.0030426e-17
-1.8493796e-16
-9.4946051e-17
2.9238393e-16
-1.000144e-16
1.3524087e-44
3.156974e-16
-2.1579314e-16
-1.1059675e-16
-1.1333248e-16
-2.3220645e-16
2.3781679e-16
1.2174738e-16
1.2461955e-16
-1.2752423e-16
-1.3046071e-16
4.0028485e-16
-1.3642618e-16
-1.3945363e-16
1.4250981e-16
1.4559391e-16
2.1132257e-32
-4.5552702e-16
1.5500489e-16
-2.6338039e-28
2.6881703e-28
4.9390401e-16
-1.6788873e-16
-1.7116319e-16
-3.4891402e-16
1.7776915e-16
3.621971e-16
-3.6888825e-16
1.8780479e-16
-1.9117943e-16
-1.9456692e-16
5.9389846e-16
-2.0137597e-16
-2.0479523e-16
4.1644554e-16
2.1165743e-16
-2.1509804e-16
-6.5563023e-16
2.2199238e-16
9.0177499e-16
-1.2705486e-28
-4.6469791e-16
-2.3580042e-16
0
-4.8539022e-16
-5.4642672e-28
7.487128e-16
-2.5299881e-16
5.6932686e-28
-2.5982863e-16
-2.6322824e-16
5.3323222e-16
0
0
0
2.8002726e-16
-1.5731512e-28
-5.7326576e-16
2.8990683e-16
5.8632019e-16
-8.8917479e-16
9.9780552e-28
6.055702e-16
-3.0594502e-16
0
0
0
-6.3663102e-16
3.213359e-16
6.4865092e-16
-9.8184981e-16
9.3850871e-32
6.6619986e-16
0
0
3.4156413e-16
-1.9116854e-28
-6.9404595e-16
3.496947e-16
7.0465378e-16
-1.0647562e-15
5.9516659e-28
7.1995672e-16
-3.6244461e-16
3.648675e-16
-7.3449263e-16
-3.6958035e-16
1.2383873e-27
3.741113e-16
7.5261377e-16
-1.135365e-15
2.1632046e-31
3.8260624e-16
-2.1348674e-28
3.8656007e-16
3.8846146e-16
-2.1665267e-28
-1.1763309e-15
1.1194079e-31
1.1866505e-15
-7.9438078e-16
3.2821742e-45
8.0061756e-16
-4.0178594e-16
4.0320776e-16
-8.0914751e-16
-4.0588346e-16
9.0408227e-28
4.0833214e-16
8.1894048e-16
4.1055026e-16
4.1157179e-16
-1.2376032e-15
0
4.1428128e-16
2.3039249e-28
-2.3079382e-28
2.3110219e-28
-4.1705094e-16
4.6358877e-28
-4.1806791e-16
1.3937399e-27
1.256508e-15
-8.382518e-16
-1.2580579e-15
-4.1951593e-16
1.2588464e-15
8.3930158e-16
-1.2588597e-15
4.1952156e-16
1.2580716e-15
0
0
-4.1847219e-16
-4.1804584e-16
0
4.16995e-16
4.1637017e-16
-8.3135773e-16
9.2125063e-28
1.242289e-15
-4.5872017e-28
-4.1224646e-16
-4.1122108e-16
-4.1012866e-16
4.0896915e-16
4.0774254e-16
-4.0644883e-16
-1.2152641e-15
4.0366021e-16
1.6086616e-15
-4.0060368e-16
-7.9795036e-16
-3.9728002e-16
0
3.9369035e-16
0
3.8983623e-16
-3.878106e-16
8.5641481e-28
-3.8356364e-16
1.270046e-27
1.1371741e-15
-3.7670923e-16
-3.7429699e-16
3.7182182e-16
3.6928422e-16
-3.6668475e-16
-1.092072e-15
3.6130261e-16
1.4340849e-15
-5.9239032e-28
-3.5278138e-16
-6.9964891e-16
-3.4681061e-16
6.8748146e-16
1.8906761e-28
4.7952618e-32
-3.3420421e-16
7.3474242e-28
3.2758426e-16
-9.7259664e-16
3.5609767e-28
6.3456644e-16
0
0
3.0656658e-16
-1.681371e-28
-5.9841858e-16
2.9547116e-16
5.8339081e-16
2.8788362e-16
-3.1524399e-28
-8.4047555e-16
-2.7624859e-16
2.723094e-16
-5.3668548e-16
1.5026583e-31
8.6710618e-28
2.5629646e-16
5.0447719e-16
-7.4448829e-16
2.7102524e-28
4.7993046e-16
0
0
-4.5516992e-16
4.9611395e-28
2.4339385e-28
6.1150512e-32
6.3302823e-16
4.137351e-16
-3.3765064e-28
-5.9580415e-16
-1.9448141e-16
1.9037305e-16
-3.7255693e-16
-2.0221768e-28
5.9323402e-28
1.7409869e-16
3.401609e-16
-4.9825955e-16
1.6211892e-16
1.5817968e-16
-1.5427076e-16
1.5039409e-16
-2.9310316e-16
1.5846872e-28
1.3897636e-16
1.9219787e-32
2.6311871e-16
-2.5582879e-16
2.0697573e-28
2.4151906e-16
-1.1725262e-16
0
1.1038684e-16
5.9394896e-29
-3.1118106e-16
1.0047729e-16
1.9456486e-16
9.4143419e-17
9.1061157e-17
-8.8036461e-17
-8.5070085e-17
-8.216268e-17
7.9314844e-17
-4.2478348e-29
4.0954026e-29
-7.1133433e-17
7.6096158e-29
-6.5984244e-17
2.1148984e-28
1.8324239e-16
-1.1744262e-16
-8.7451219e-46
5.4186296e-17
5.7732022e-29
-2.7702673e-29
-1.435205e-16
4.5845082e-17
1.3172813e-16
0
0
-3.8452731e-17
-3.6748479e-17
-7.0200634e-17
3.3507436e-17
6.3938e-17
-6.0968226e-17
2.905186e-17
8.3013837e-17
-2.6341387e-17
-2.5061168e-17
-2.3829573e-17
-2.2645548e-17
4.3016002e-17
2.041584e-17
-1.9367943e-17
-5.5089558e-17
1.7400437e-17
4.6904026e-45
2.596708e-29
2.9505517e-17
-2.7893137e-17
-2.63533e-17
1.2441859e-17
2.3482139e-17
-2.214629e-17
-1.0436977e-17
2.9494359e-17
2.7766471e-17
-8.7080128e-18
-1.6375902e-17
-7.6942731e-18
4.01095e-30
1.356395e-17
6.3613648e-18
-5.9631604e-18
-1.1172853e-17
7.4326054e-34
9.7873821e-18
-9.1518629e-18
7.12191e-30
7.9867886e-18
-3.7269961e-18
-6.9522995e-18
-6.4801843e-18
0
2.8095034e-18
7.8408019e-18
2.4297523e-18
-2.2573314e-18
0
0
0
0
1.5465368e-18
-7.9427262e-31
-3.969078e-18
1.2224061e-18
3.3859e-18
1.041309e-18
-1.5989737e-30
-1.7689739e-18
-8.1428258e-19
7.490953e-19
-1.3772442e-18
-6.3255809e-19
1.9339028e-30
5.3254786e-19
9.7614718e-19
-1.3409082e-18
1.1624275e-34
3.7393183e-19
-4.8540654e-35
3.1172184e-19
2.8418674e-19
-2.872827e-31
-7.0600722e-19
6.0732095e-35
5.8097175e-19
3.5021264e-19
-8.7589046e-32
-2.8366043e-19
-1.2681149e-19
1.1270047e-19
-1.9871578e-19
-8.664549e-20
2.4798937e-31
6.5291994e-20
1.1891439e-19
-1.5457616e-19
5.2203375e-32
5.6508241e-20
6.5972879e-20
5.7408679e-20
3.0810346e-32
-4.1193555e-32
-1.6678539e-19
-3.9537848e-32
1.4576893e-19
-1.8492816e-19
4.8706109e-31
2.4670023e-19
-1.6029807e-19
1.0760271e-31
2.0440286e-19
-8.7204539e-20
-8.1307325e-20
-1.8643814e-19
9.8658761e-20
2.6330604e-19
0
0
0
-2.6675166e-19
-2.3468068e-19
2.347707e-19
2.4913779e-19
-1.6293786e-19
2.1060372e-35
-7.5002896e-20
2.7903006e-31
2.5204081e-19
-2.1634857e-19
3.1933279e-31
1.3605358e-19
4.0551076e-32
-3.6958439e-32
-1.0576934e-19
5.0383231e-20
-5.849617e-20
1.9542669e-31
1.404028e-19
-1.3261321e-19
-5.5907282e-20
1.3706432e-31
-1.0439897e-19
9.7279771e-20
6.2218075e-20
7.1789593e-20
1.849223e-19
-5.78925e-32
-5.9949556e-20
-2.0761161e-19
4.2046702e-31
1.6164377e-19
0
-7.0263664e-20
-1.3424553e-19
5.378108e-20
-5.023035e-20
1.9284035e-31
1.2021396e-19
-1.4931258e-19
9.657611e-32
5.6039969e-32
6.2369925e-32
5.4473441e-32
-4.0190234e-20
1.3076495e-19
1.5393663e-19
-4.9086472e-20
-7.9403861e-20
0
4.3247531e-20
-4.9001454e-32
8.6949109e-32
-4.2916594e-32
-4.3188151e-20
4.360726e-20
4.1315717e-20
-1.3709874e-19
2.8258672e-47
8.597409e-32
-4.2224688e-20
4.4120267e-32
-9.3506079e-20
9.9052749e-20
8.2343162e-20
3.4901639e-20
-4.2011616e-32
-4.1502859e-20
0
0
0
-7.0243986e-20
3.3363511e-20
6.4961011e-20
-9.8217606e-20
3.3459289e-20
1.0181841e-19
-1.1142764e-19
1.4713325e-31
9.7401885e-20
-1.4641072e-19
-9.8017599e-20
0
1.2407815e-19
1.978128e-31
4.8297051e-20
7.1582732e-20
-2.598295e-20
0
-2.388868e-20
-4.3854839e-36
-1.441973e-32
7.0783712e-21
1.0746991e-20
-1.075536e-20
9.1826467e-33
2.4627138e-20
-3.1881418e-20
6.3016709e-32
2.9894856e-20
-1.7689875e-20
1.9372314e-20
-3.7366881e-20
-1.6629748e-20
7.2678338e-32
1.9542184e-20
4.9365468e-20
2.7325268e-20
2.8868848e-20
-6.6240723e-20
-3.8667821e-20
0
4.333374e-20
-2.1688282e-32
-7.6135526e-49
-3.3194955e-20
8.5521489e-36
-2.7370499e-20
1.3803585e-47
8.6850894e-20
-7.749367e-20
-6.2130659e-20
3.4996448e-20
3.2027568e-20
0
-2.4230913e-20
1.0962496e-20
2.9140599e-20
-2.3586473e-20
1.100042e-32
1.1310784e-20
-3.9402826e-21
0
1.1709882e-21
1.5488935e-21
-2.7465379e-21
5.7306344e-33
-8.1213596e-21
-2.678497e-36
1.6472554e-20
0
-2.1608187e-20
-1.7439941e-20
2.9701068e-20
2.0070654e-20
-2.8611404e-20
-1.1290503e-20
5.9087035e-20
1.6766096e-20
-3.2123865e-20
-3.3306501e-20
1.9449434e-32
1.7737268e-20
1.7443796e-20
1.4921317e-20
-1.258806e-20
1.260995e-32
-1.8045438e-20
1.9315304e-32
1.4726874e-20
0
0
7.1618047e-21
-1.1915449e-32
-5.3652863e-21
1.7637778e-20
-7.1314249e-21
-1.4751209e-32
-3.6319345e-32
-3.4632628e-20
1.1073595e-20
-6.6942884e-33
1.3886201e-32
1.0713214e-20
-1.0046595e-20
1.3764035e-36
-4.6880791e-33
7.2034889e-33
5.2398362e-21
0
-6.0541808e-21
1.1012008e-20
4.4626106e-21
-7.3628126e-21
0
3.8390804e-21
-3.6949057e-21
-2.8753362e-21
-1.0069908e-21
-5.8369655e-34
-5.2102428e-33
2.2904157e-21
-7.6398693e-21
4.6318112e-37
3.93421e-21
3.9653014e-21
-3.8359414e-21
-4.1367463e-21
4.5711222e-21
0
-5.7807128e-21
1.4706264e-20
-1.4493524e-32
-9.5052138e-21
-2.3051929e-32
-2.4769444e-32
-3.1620197e-36
-2.3265229e-20
3.9253046e-20
4.2266403e-20
0
-2.5320482e-20
-4.1158111e-20
-1.842067e-36
1.2898718e-20
1.3886112e-20
-1.4866026e-20
-1.4077152e-20
1.2826247e-20
0
2.8142383e-20
2.7925022e-20
-3.7466907e-20
-1.2128691e-20
1.3016839e-20
-3.7830544e-36
-1.3158153e-20
-2.5745475e-20
-1.2458002e-20
2.0099517e-32
4.8295992e-20
-3.9951385e-32
-3.4030946e-20
1.1084507e-20
1.1461018e-20
1.165964e-20
-1.1332668e-20
-1.0919154e-20
-1.0879585e-20
-3.1716073e-36
1.099745e-20
-1.0221129e-20
2.9827297e-20
2.0489775e-20
-3.1346472e-20
9.9907245e-21
1.7857595e-20
-1.7052792e-20
8.8986092e-21
-9.2296144e-21
-1.8315312e-20
2.5726672e-20
-7.747593e-21
2.4698424e-32
2.3135592e-20
-1.6043012e-20
-8.0121316e-21
-7.7211072e-21
-1.4669412e-20
7.3852014e-21
-4.6218467e-76
1.5659733e-20
7.7182388e-21
-8.3775503e-33
-7.8387043e-21
-1.6869061e-20
1.7570957e-20
-8.661665e-21
-2.4374014e-20
2.4504287e-20
8.8779683e-21
1.6692117e-49
9.7196204e-21
-2.8071912e-20
-9.3466641e-21
9.9405283e-21
2.0546867e-20
-9.9810754e-21
9.8228055e-21
-3.3480587e-32
-2.0763651e-20
3.118626e-20
1.1208373e-32
-4.4147286e-32
2.2352103e-32
-2.0094948e-20
1.950206e-20
-9.5537392e-21
-3.7575561e-20
8.9955606e-21
1.7468853e-20
0
1.7156506e-20
-1.8143339e-32
-4.3596899e-36
-8.1729774e-33
-7.2533623e-21
-7.1551868e-21
7.0411349e-21
6.9152414e-21
-1.3117272e-20
1.2077686e-20
-6.419242e-33
-1.1708625e-20
1.1899078e-20
1.8982474e-32
-5.8632645e-33
-5.0995395e-21
-1.045551e-20
5.3927379e-21
-5.3355232e-21
2.8573e-33
5.0239352e-21
1.0303069e-20
-5.3820182e-21
-1.0920195e-20
5.4087257e-21
-5.3903747e-21
9.3437079e-33
-5.9269605e-21
-1.3485474e-32
1.2158044e-20
1.2190595e-20
1.4111606e-32
-2.268786e-32
2.3922481e-32
-7.2956951e-21
-7.2182119e-21
-7.1854472e-21
7.1866024e-21
0
0
-8.0689668e-21
4.5219827e-33
1.1465004e-36
8.7035149e-33
7.8287492e-21
0
-8.3181887e-21
-1.6635278e-20
8.1309952e-21
1.5933708e-20
1.5854545e-20
1.5680832e-20
-2.264298e-20
-2.4703814e-32
2.2546562e-20
-1.5099535e-20
-1.4626244e-20
0
-6.6539939e-21
1.2922998e-20
6.4013942e-21
-1.2703902e-20
-6.2468095e-21
6.6741698e-33
1.7139224e-20
-5.5304984e-21
-1.6559537e-20
1.6779743e-20
5.6100682e-21
-1.6474812e-20
5.8496245e-33
5.0812725e-21
9.9923751e-21
5.650505e-33
-1.0589491e-20
1.0848517e-20
-5.390822e-21
-1.5913124e-20
0
5.5444804e-21
1.150043e-20
-3.2068346e-33
5.7018268e-21
1.1481228e-20
-1.1903517e-20
-1.2408235e-20
0
-6.3400542e-21
-6.9633589e-33
-7.0486621e-33
-7.2917768e-33
2.0345347e-20
1.3675086e-20
0
-1.3544084e-20
-1.5242748e-32
-6.9848131e-21
-2.1006059e-20
6.8820487e-21
-3.8060977e-33
9.9615947e-37
7.1156383e-21
1.3994753e-20
-6.7801178e-21
-1.3022556e-20
6.487997e-21
0
1.3796772e-20
-6.8632339e-21
-2.017656e-20
6.5445152e-21
6.4594609e-21
1.3006954e-20
-6.5835891e-21
-1.976278e-20
6.5014923e-21
-7.184402e-33
-1.3045507e-20
6.5603252e-21
6.5073425e-21
1.2805951e-20
1.9145393e-20
-1.27756e-20
-1.2673503e-20
1.2683752e-20
7.187871e-33
-1.3154155e-20
1.3040608e-20
7.091349e-33
-1.2386967e-20
0
1.3005127e-20
1.3313994e-20
0
-1.9495624e-20
-6.2780423e-21
-1.7661716e-36
-6.3868246e-21
-6.5633283e-21
-7.3328159e-33
1.288697e-20
1.2294773e-20
-1.9832144e-32
-1.2055641e-20
1.2485365e-20
2.0991219e-32
-1.2354104e-20
0
0
0
0
1.1535402e-20
6.2701261e-33
-1.0898157e-20
-5.2373734e-21
1.0284002e-20
-1.7190986e-32
-1.0298454e-20
1.003668e-20
5.3556034e-33
-4.6913221e-21
9.2217491e-21
-1.5118724e-32
-8.8118647e-21
8.4662094e-21
8.3038161e-21
-8.3079445e-21
-8.269401e-21
0
0
0
0
-3.7616984e-21
3.6678809e-21
3.5248104e-21
-3.8181229e-33
-4.6618219e-76
-3.5797692e-21
-7.2065906e-21
-3.5011185e-21
6.7665567e-21
1.0209104e-20
-3.5464729e-21
-7.3663571e-21
1.1162381e-20
7.3339272e-21
-1.0849633e-20
-7.3759842e-21
-3.8696784e-21
-4.466161e-33
8.1356265e-21
0
-4.0439794e-21
4.1672069e-21
-9.7902445e-33
-1.3053515e-36
-1.5483062e-32
-4.6249575e-21
-4.5810753e-21
1.3250896e-36
9.7723029e-21
1.0209851e-20
-1.7405689e-32
-1.05023e-20
0
0
0
-5.4434924e-21
-5.5167548e-21
5.5409811e-21
5.5463817e-21
-5.5330065e-21
1.1036723e-20
1.6472686e-20
0
-1.071206e-20
-5.9570964e-33
-5.383017e-21
-1.5926148e-20
5.1448037e-21
-8.3404366e-33
9.9308419e-21
-3.2990486e-32
-9.7364251e-21
-2.6167094e-33
-6.4237191e-37
4.3841091e-21
-4.3400049e-21
8.6295939e-21
4.2481468e-21
-8.1989582e-21
7.7534197e-21
1.0363009e-36
-3.8493083e-33
-3.4135868e-21
-1.0350056e-20
6.8689085e-21
2.2159767e-50
3.0747642e-21
-4.6901296e-33
-5.3908314e-21
2.7321892e-21
5.6110046e-21
-3.1083643e-33
-8.1381521e-21
7.3939555e-37
2.5189453e-21
-2.4837676e-21
4.9417081e-21
2.4359309e-21
-4.7633716e-21
4.6922196e-21
2.6305781e-33
-1.3558212e-32
5.4653867e-33
-4.725636e-21
4.4511117e-21
-2.1495252e-21
-4.4309957e-21
2.3662226e-21
-2.4659959e-21
4.9661283e-21
-4.1168145e-33
-7.456371e-21
0
0
7.3269728e-21
2.3872498e-21
-4.8178045e-21
5.0112409e-21
1.4786699e-36
-1.1624347e-32
-2.8102313e-33
-4.8634603e-21
4.7768278e-21
4.8485893e-21
-2.5154296e-21
-7.7533523e-21
-2.608155e-21
2.5704278e-21
0
0
-2.3342724e-21
1.3122106e-33
7.3225164e-21
7.0260237e-37
-4.8576535e-21
-2.3545374e-21
2.5535574e-33
6.8981788e-21
5.1674567e-33
-4.6621606e-21
0
-2.2050358e-21
4.3912342e-21
2.2414181e-21
-5.0633346e-33
-2.2636099e-21
-4.401148e-21
2.1484963e-21
0
0
0
0
-2.2272231e-21
1.216401e-33
6.62139e-21
-2.2586551e-21
-6.9232768e-21
6.959766e-21
2.3177586e-21
-4.6681166e-21
-2.3634067e-21
-3.9854805e-33
7.2289716e-21
-1.3763444e-36
-8.115821e-33
-2.4517013e-21
-4.9207661e-21
-2.4662669e-21
-2.7659645e-33
2.5440047e-21
2.5845775e-21
2.5817498e-21
2.5527378e-21
-5.6229596e-33
-5.1053146e-21
0
0
-2.6034722e-21
-4.263458e-33
-3.6435693e-37
3.7237799e-37
2.6800083e-21
5.3571588e-21
5.182125e-21
-4.9755214e-21
-2.7200921e-33
-2.4989336e-21
-7.7822172e-21
0
0
2.5262741e-21
2.4153418e-21
0
-2.3531092e-21
1.349576e-33
2.4964075e-21
-2.4868309e-21
4.761477e-21
-7.5137739e-33
-6.5163866e-21
2.1688494e-21
2.2315022e-21
4.5437062e-21
-2.2454667e-21
-6.450151e-21
2.0467192e-21
-1.106921e-33
4.0069474e-21
2.0469022e-21
-4.0828343e-21
3.9194937e-21
2.210371e-49
-3.4399774e-21
0
0
3.6234973e-21
-2.0014997e-33
-5.7664395e-33
1.9304347e-49
-4.5531671e-21
-1.6468374e-33
1.5086266e-21
3.0970415e-21
3.0952652e-21
-2.9839826e-21
-3.1138966e-33
-1.3298992e-21
-4.3895864e-33
1.3492166e-21
-2.7446035e-21
0
-1.2987125e-21
1.3881487e-33
1.2475345e-21
2.5545121e-21
1.4382014e-33
-2.5460172e-21
0
0
-1.2257507e-21
7.1305732e-34
4.0014831e-21
1.4867462e-33
-2.6042964e-21
0
1.2816593e-21
-1.3292986e-21
-1.3963259e-21
-1.4497004e-21
-1.4769406e-21
2.9803404e-21
4.5298052e-21
-1.546153e-21
-3.1844772e-21
4.9133924e-21
-1.2304077e-50
-3.4192752e-21
0
0
0
0
3.7947059e-21
3.8515775e-21
-1.9533485e-21
-5.9384666e-21
-2.2406471e-33
2.0757745e-21
-4.2778324e-21
-4.3476645e-21
2.1565083e-21
8.5057685e-21
4.2748164e-21
-6.6001866e-21
-4.5772873e-21
6.985095e-21
5.0868398e-33
-4.4576271e-21
0
0
0
4.7529266e-21
2.6543111e-33
-5.1930115e-33
2.2664843e-21
-6.6626433e-21
2.2095791e-21
2.2296543e-21
-6.7839632e-21
-4.5673505e-21
2.2809772e-21
4.4899924e-21
4.3615486e-21
-7.0615137e-33
2.3266152e-33
-5.9977088e-37
-4.2830883e-21
0
-2.08015e-21
-2.0066242e-21
1.9640384e-21
1.9606491e-21
-1.9845743e-21
-1.9913033e-21
3.909037e-21
1.9042003e-21
-1.8730866e-21
1.8650167e-21
-1.8677344e-21
-3.7125128e-21
0
0
5.3047876e-21
1.7685639e-21
-3.5552441e-21
-1.7869318e-21
-1.7939582e-21
3.5765754e-21
-1.9576951e-33
-3.4647776e-21
0
1.7237997e-21
5.2283118e-21
3.8969809e-33
-9.7029938e-33
3.4704168e-21
-5.2097688e-21
-1.7452563e-21
-4.958989e-37
1.7189239e-21
-2.8129508e-33
-2.8083014e-33
5.1263843e-21
-5.1941401e-21
8.6071772e-33
-2.7951869e-33
-3.2714719e-21
1.6308522e-21
-1.6579702e-21
3.3709747e-21
1.6838762e-21
-3.3071826e-21
3.2495616e-21
-9.2137384e-37
-1.2700947e-32
-9.353255e-37
-1.0855977e-32
3.2111472e-21
-4.8099042e-21
-1.0845454e-32
4.9949453e-21
-3.3606983e-21
-3.3072256e-21
3.2398724e-21
-5.3635752e-33
-4.8861658e-21
1.8538201e-33
5.0997883e-21
-9.6926739e-37
-3.3926806e-21