/*--------------------------------*- C++ -*----------------------------------*\
  =========                 |
  \\      /  F ield         | OpenFOAM: The Open Source CFD Toolbox
   \\    /   O peration     | Website:  https://openfoam.org
    \\  /    A nd           | Version:  7
     \\/     M anipulation  |
\*---------------------------------------------------------------------------*/
FoamFile
{
    version     2.0;
    format      ascii;
    class       volScalarField;
    location    "0.0028";
    object      Uz;
}
// * * * * * * * * * * * * * * * * * * * * * * * * * * * * * * * * * * * * * //

dimensions      [0 1 -1 0 0 0 0];

internalField   nonuniform List<scalar> 
5000
(
0
0
0
0
0
-1.0793162e-21
-2.4305467e-36
3.5382014e-21
1.1968102e-21
-2.4398528e-21
-2.4527548e-21
1.2182251e-21
-1.0349541e-35
-1.0718176e-35
2.4410407e-21
-2.444191e-21
-9.7994554e-53
-1.0765752e-35
-1.2218402e-21
2.4435719e-21
1.2217229e-21
0
0
-1.2214349e-21
1.0413633e-35
-1.0065534e-35
-1.2210735e-21
1.2209303e-21
1.220778e-21
-1.2206181e-21
2.1332654e-35
-1.0404624e-35
-1.2200733e-21
1.2198717e-21
1.2196644e-21
0
0
-1.2190047e-21
-1.2187679e-21
1.2185232e-21
-2.0428999e-35
-1.2180211e-21
1.2177641e-21
-2.0589022e-35
-1.2172241e-21
1.21694e-21
-4.1840676e-35
4.1657202e-35
-4.181933e-35
2.0731526e-35
1.2153908e-21
0
0
0
0
0
0
0
0
0
0
0
0
-1.2040796e-21
-1.2017745e-21
1.197637e-21
-2.0594836e-35
2.4301197e-52
1.203564e-21
0
0
-1.199743e-21
-1.2000491e-21
0
1.2013603e-21
4.1634894e-35
-1.2084822e-21
-1.2051267e-21
1.1998538e-21
2.3970987e-21
-2.4034162e-21
6.8506664e-37
3.6005005e-21
-2.3841816e-21
-1.2412478e-34
2.3996432e-21
-3.5948826e-21
1.1937087e-21
1.1971215e-21
-1.1961856e-21
1.18912e-21
1.1898534e-21
4.1642711e-35
-2.3879917e-21
-8.2325501e-35
-1.193732e-21
-1.1930096e-21
-4.1612675e-35
8.2586237e-35
2.3848648e-21
1.1904774e-21
-1.1858053e-21
1.6909631e-37
1.1890994e-21
0
-1.1886813e-21
-4.135658e-35
1.1832944e-21
-1.1873446e-21
-1.1866981e-21
2.3584258e-21
1.1798948e-21
-3.5598567e-21
-1.1850368e-21
3.5322099e-21
-1.1780558e-21
-1.1847236e-21
-6.7247067e-37
-1.1752307e-21
3.527897e-21
-8.2676586e-35
-2.3662016e-21
2.3627403e-21
1.1805085e-21
-1.177796e-21
1.174084e-21
-1.1734025e-21
-2.3569361e-21
1.1772942e-21
4.0380596e-35
1.1698683e-21
2.3538564e-21
-1.1750715e-21
-1.1701133e-21
-1.1741656e-21
-4.0933291e-35
-4.0710445e-35
4.0842289e-35
2.3414814e-21
1.1731394e-21
-1.1717752e-21
-2.3278658e-21
-1.16426e-21
-1.1715597e-21
8.1142034e-35
2.3281114e-21
-3.3133062e-37
3.3109994e-37
-1.2131809e-51
1.1687069e-21
-8.1024041e-35
1.6203022e-34
1.1677244e-21
-1.1674559e-21
1.1593859e-21
4.0222196e-35
-1.1678647e-21
1.1666112e-21
-1.651e-37
-1.1665117e-21
0
1.1614207e-21
8.0706317e-35
-2.3321684e-21
1.1578977e-21
-3.2928637e-37
-1.1667925e-21
1.1659633e-21
-1.1575195e-21
1.158212e-21
-4.861135e-34
-3.2346567e-34
1.157664e-21
-2.3166949e-21
0
-8.0873395e-35
-2.4165082e-34
1.1665214e-21
1.1664339e-21
8.0079968e-35
-1.1669178e-21
1.1668913e-21
7.9951395e-35
4.9764765e-37
1.620536e-34
-2.3329254e-21
1.1632053e-21
1.1624598e-21
-8.0380126e-35
8.0542545e-35
-2.4124549e-34
8.0195528e-35
-1.1699216e-21
0
0
0
0
-1.1655943e-21
2.4406851e-34
1.1708128e-21
1.1663863e-21
-1.1715731e-21
-1.171954e-21
2.3277638e-21
8.0610333e-35
-2.4366701e-34
-1.1731319e-21
-1.1686571e-21
1.1739252e-21
0
1.1698332e-21
8.1325841e-35
-1.1755603e-21
-1.1675315e-21
1.6273357e-34
1.1774953e-21
-2.3544221e-21
1.1730793e-21
1.1785616e-21
-1.1784835e-21
1.1738571e-21
0
0
0
1.1810111e-21
-1.184633e-21
-2.3674753e-21
1.1832245e-21
-8.2092689e-35
1.1783304e-21
1.1789428e-21
-2.3720851e-21
3.3805461e-37
-3.3788252e-37
1.1885876e-21
1.1875765e-21
-2.3724725e-21
1.6804041e-37
-2.4659354e-34
1.1923158e-21
-6.6230453e-34
-1.6426352e-34
1.1855939e-21
-1.1952172e-21
0
-1.1983638e-21
1.1982325e-21
1.1974882e-21
-1.1965755e-21
0
-1.1948513e-21
1.2034851e-21
1.2037985e-21
-4.166209e-34
-2.4121103e-21
-2.4143797e-21
3.5995914e-21
2.4032497e-21
0
-2.4233796e-21
-1.208082e-21
1.2141507e-21
1.2183449e-21
1.2179005e-21
-2.435709e-21
-2.4335452e-21
1.2148254e-21
2.4324305e-21
3.3959001e-34
-2.450601e-21
1.2182222e-21
-1.6925338e-34
-1.2303536e-21
2.4617751e-21
-1.2274466e-21
1.7185606e-34
1.2353298e-21
-1.2320246e-21
1.2386188e-21
-2.4799601e-21
5.1601786e-34
2.4864884e-21
-2.487669e-21
-8.5819912e-35
1.2473335e-21
0
0
1.2532397e-21
-1.2534246e-21
-2.5139428e-21
1.2645384e-21
-3.5942278e-37
1.2643817e-21
1.2644127e-21
-1.2624336e-21
0
-1.2684499e-21
-1.2652845e-21
0
2.5523607e-21
1.2758632e-21
-2.5518717e-21
8.8299787e-35
-3.6256809e-37
1.2727164e-21
1.2706444e-21
-1.2718216e-21
1.2781461e-21
-1.2889943e-21
7.333127e-37
2.5732888e-21
-1.2935161e-21
-1.2952203e-21
-1.2879348e-21
-1.7894585e-34
1.3007925e-21
0
0
-1.3045293e-21
1.8127561e-34
-3.6132983e-34
-1.8190271e-34
1.3138936e-21
-1.3136079e-21
1.8667384e-37
1.3125902e-21
0
0
0
0
0
0
0
-1.3278074e-21
0
1.3222167e-21
0
-1.3387225e-21
-3.741371e-34
1.3412709e-21
0
0
-1.3288265e-21
-1.853828e-34
1.3421318e-21
0
0
-1.3454377e-21
-1.3442533e-21
1.3393538e-21
1.3404866e-21
0
-1.3506622e-21
1.9105006e-37
1.3463352e-21
-1.348681e-21
-1.348323e-21
1.3489816e-21
1.3498685e-21
0
-1.3604082e-21
-1.359135e-21
1.3503851e-21
1.3518791e-21
0
-1.3628734e-21
-1.3581454e-21
1.3647586e-21
1.3654661e-21
0
0
0
0
0
0
0
0
-1.37299e-21
-2.7484501e-51
1.3742181e-21
0
0
0
-1.3769254e-21
-1.9100399e-34
1.3673763e-21
-1.3685303e-21
1.9154529e-34
-1.9603301e-37
-1.908093e-34
1.3807779e-21
-1.3844024e-21
1.3811472e-21
-7.6527641e-34
-1.3765768e-21
1.3847385e-21
0
0
-1.386684e-21
-1.9260839e-34
1.3821871e-21
-1.3889169e-21
-1.3894758e-21
0
1.3911415e-21
1.3917281e-21
-1.3865782e-21
-3.8672031e-34
2.0113955e-51
-1.9210915e-34
1.3849168e-21
-1.3971632e-21
-8.2778064e-51
-1.9335431e-34
-1.4003473e-21
0
0
1.4028894e-21
1.998194e-37
-5.8595737e-34
1.4097759e-21
0
0
-1.4258746e-21
3.9702037e-34
1.4370072e-21
0
0
0
-1.4532895e-21
2.0704966e-37
1.4606386e-21
-1.4642685e-21
1.4678664e-21
-4.0899489e-34
-2.9493465e-21
1.477721e-21
6.1680248e-34
2.0604908e-34
-2.0649042e-34
-1.4902378e-21
0
0
1.4974438e-21
2.0824814e-34
-4.1689787e-34
-1.0562121e-52
-1.5066331e-21
1.5093919e-21
1.5124303e-21
0
-1.5182177e-21
-2.1114916e-34
1.5236928e-21
0
0
-1.5332284e-21
4.3640818e-37
-1.127276e-52
-1.5401569e-21
1.5427404e-21
-2.1406931e-34
2.1476425e-34
-4.2973316e-34
-1.5497448e-21
1.5510294e-21
-4.3102002e-34
4.3158337e-34
-4.3198094e-34
-1.5564504e-21
1.5581514e-21
-4.3319798e-34
2.1731134e-34
0
-1.5656263e-21
1.5681088e-21
-2.1817429e-34
2.237779e-37
-2.1898599e-34
2.1956464e-34
1.583067e-21
-1.5869671e-21
-1.5910732e-21
1.5945686e-21
1.597519e-21
0
-1.6040932e-21
-1.6075417e-21
0
1.6140552e-21
-2.2454469e-34
2.3030345e-37
2.2519441e-34
-1.6263294e-21
1.6332133e-21
2.2854589e-34
-4.6139242e-34
-1.662868e-21
-1.6569927e-21
3.3156155e-21
-2.3639577e-37
2.313434e-34
1.6700269e-21
-1.6652506e-21
2.3081334e-34
1.6693775e-21
0
0
0
-1.6841633e-21
-1.6911583e-21
1.7007654e-21
1.7053478e-21
0
-1.7031486e-21
-1.7114866e-21
1.7235175e-21
1.7286184e-21
0
-1.7231925e-21
-1.7330655e-21
1.7497723e-21
4.8783719e-34
-1.7529842e-21
0
0
0
0
1.7426808e-21
-4.8791545e-34
-1.7692017e-21
1.7746047e-21
2.4669743e-34
-2.4574819e-34
1.6401065e-52
1.7659321e-21
1.7854554e-21
-3.5885173e-21
-2.4862945e-34
2.4886451e-34
-1.7978187e-21
0
1.8124731e-21
1.8218392e-21
-1.8138901e-21
-5.0010258e-34
1.8015276e-21
0
0
-1.8387201e-21
2.5709637e-34
1.8595464e-21
0
-1.8549674e-21
2.6422463e-37
-5.1754038e-34
-2.5854009e-34
1.8645201e-21
-1.8639262e-21
2.651438e-37
-5.1851713e-34
-1.8655405e-21
1.8673898e-21
5.2181674e-34
2.6858802e-37
-2.6306257e-34
-1.9127343e-21
1.937195e-21
0
-1.0772277e-33
-2.6925434e-34
-8.0911037e-34
-2.7680312e-37
-1.9468918e-21
1.9396955e-21
-9.2308713e-52
-2.6927888e-34
5.3848711e-34
-2.6925938e-34
3.8789083e-21
-1.9401104e-21
-1.9404898e-21
-2.6983897e-34
2.7124006e-34
3.9190085e-21
-1.9592301e-21
-1.9641818e-21
2.2877416e-52
0
2.678948e-52
-1.9602553e-21
1.9648856e-21
-3.8701545e-52
-2.7519984e-34
-2.8281554e-37
-1.9968721e-21
4.0048591e-21
5.5541621e-34
-1.9995934e-21
2.7754643e-34
-2.7762185e-34
1.999053e-21
-1.9928146e-21
2.9337484e-51
-8.3836307e-34
5.6227545e-34
-5.6185386e-34
-5.6120427e-34
-2.6797435e-52
0
2.0267443e-21
0
0
-2.0477392e-21
-5.6875859e-34
2.0541568e-21
0
0
-4.1183283e-21
-1.7148356e-33
4.1199391e-21
-2.05902e-21
2.9324782e-37
-2.8776826e-34
-2.0801755e-21
0
0
0
-2.1015784e-21
-5.8219766e-34
2.102917e-21
0
0
-2.1088148e-21
2.9994666e-37
2.1146184e-21
0
0
-2.1424774e-21
-5.9476602e-34
-5.958701e-34
5.9672678e-34
2.1547706e-21
-2.1555382e-21
5.9683335e-34
-5.965057e-34
5.9680979e-34
2.1510654e-21
0
0
-2.1646814e-21
8.6825029e-51
2.175894e-21
0
0
-2.1735181e-21
7.1786054e-51
2.1838594e-21
0
0
-2.1818625e-21
1.3158714e-50
2.2009681e-21
0
0
-2.2154189e-21
3.1599239e-37
2.2318721e-21
-2.2306093e-21
6.1832266e-34
-6.191093e-34
6.1753724e-34
2.2152951e-21
0
0
0
0
0
-2.2451515e-21
6.2374933e-34
2.2544636e-21
0
0
0
0
0
0
0
-2.2995057e-21
1.2811276e-33
2.2978425e-21
0
0
0
0
0
0
0
-2.3014936e-21
6.3950722e-34
2.3044467e-21
0
0
-2.3123945e-21
6.4252668e-34
2.310336e-21
0
0
0
-2.3302509e-21
-6.4652938e-34
2.3238317e-21
0
0
0
0
0
0
0
-2.3505581e-21
3.3480918e-37
2.3549602e-21
0
0
0
0
0
0
0
-2.3338467e-21
-3.327973e-37
2.3540572e-21
0
0
0
-2.3484453e-21
1.3078815e-33
2.3553128e-21
0
-2.3702574e-21
-6.5848983e-34
2.3715354e-21
0
0
-2.3855983e-21
-2.3767493e-21
2.3726319e-21
2.3685582e-21
0
0
0
0
2.3905847e-21
-3.395416e-37
-4.7837878e-21
-2.394216e-21
4.7762452e-21
4.76173e-21
-2.3839543e-21
-2.384737e-21
0
0
0
0
-2.3931953e-21
-6.6491188e-34
2.3944495e-21
0
0
0
0
0
0
0
0
0
0
0
0
0
0
-2.3990898e-21
1.3310142e-33
2.4026365e-21
0
0
2.4147419e-21
-6.6926742e-34
3.4227063e-37
-2.4124157e-21
-2.419742e-21
-1.3472302e-33
6.7420291e-34
2.4264897e-21
0
0
0
0
0
-2.4299402e-21
1.3465069e-33
2.4375697e-21
0
0
0
0
0
0
0
-2.4736094e-21
1.3735718e-33
2.4600845e-21
0
0
0
0
0
0
0
-2.492268e-21
2.0742756e-33
2.4858352e-21
0
0
0
0
0
0
0
0
-2.524086e-21
3.5743934e-37
2.5204669e-21
0
0
0
0
-2.5391073e-21
2.5438131e-21
2.5408923e-21
-5.1050176e-21
-7.1222163e-34
2.558829e-21
0
0
0
0
-2.5657663e-21
7.1732717e-34
5.1916594e-21
-2.5756969e-21
-2.5557098e-21
2.5662232e-21
0
0
0
-2.5877281e-21
-7.1475712e-34
2.5879549e-21
2.6025956e-21
-2.6129615e-21
-2.6145835e-21
2.6063854e-21
0
0
-2.6313667e-21
-2.629011e-21
2.6372356e-21
2.6435569e-21
2.6401442e-21
1.4669033e-33
-2.6520535e-21
0
0
0
-2.6799292e-21
-2.6748666e-21
2.6766085e-21
2.6888636e-21
2.6938685e-21
7.4828414e-34
-2.7114368e-21
0
0
0
-2.7584008e-21
7.6140401e-34
2.7363514e-21
0
0
0
0
0
0
0
-2.7762965e-21
7.7960877e-34
5.67762e-21
7.9008057e-34
-2.8308779e-21
0
0
-2.7973717e-21
4.0155972e-37
-7.890287e-34
7.8841961e-34
2.8526374e-21
2.8647041e-21
-7.9433578e-34
-2.8704358e-21
0
0
-2.8457421e-21
2.3835411e-33
7.9903698e-34
-4.0945866e-37
2.9021339e-21
-2.9228367e-21
-2.9112692e-21
5.8051157e-21
-1.6208995e-33
-2.9339675e-21
2.9176761e-21
0
-2.9250323e-21
-8.1519566e-34
2.9358978e-21
0
-2.9693823e-21
2.9618431e-21
-3.2980765e-33
-2.9891414e-21
2.9803044e-21
0
-2.9824611e-21
0
2.9915942e-21
0
-3.0183041e-21
3.0171598e-21
-1.6828661e-33
-3.0488847e-21
3.0348956e-21
0
-3.042144e-21
-8.4915641e-34
3.0694962e-21
0
-3.070278e-21
3.0603006e-21
-8.7547108e-37
-3.0956035e-21
3.0915593e-21
0
-3.1137942e-21
-3.0993619e-21
3.089487e-21
3.1091631e-21
-3.11778e-21
3.1089643e-21
3.1189467e-21
-3.1297757e-21
0
0
0
0
0
0
-3.1658565e-21
5.503288e-52
6.3634466e-21
-3.2078389e-21
-3.2165129e-21
3.2103375e-21
0
0
-3.2101213e-21
-3.2435487e-21
3.2494723e-21
3.2327198e-21
0
-3.1901516e-21
-8.8589191e-34
3.2032262e-21
0
0
-3.2405828e-21
-3.2619318e-21
3.2919768e-21
3.2904079e-21
0
-3.251939e-21
9.075795e-34
3.2816642e-21
-3.289933e-21
-1.8302745e-33
-4.6647744e-37
-3.2675907e-21
3.2778187e-21
3.3020042e-21
0
0
-3.3275823e-21
9.2004095e-34
3.3022001e-21
0
-3.3200301e-21
-3.3560929e-21
3.3903948e-21
3.3954965e-21
0
0
0
0
0
0
-3.4235799e-21
9.4521999e-34
3.3831871e-21
0
0
0
0
0
0
-3.4063151e-21
7.8042783e-53
3.4137883e-21
3.4456786e-21
9.6411204e-34
-3.4735466e-21
0
0
0
0
-3.4581039e-21
-9.658443e-34
3.4971383e-21
-3.4938169e-21
-3.484426e-21
3.4845342e-21
-1.9372275e-33
-2.9135546e-33
-2.9238654e-33
9.7857096e-34
-1.9565527e-33
9.7766983e-34
3.5294811e-21
0
-3.5564552e-21
2.9623294e-33
-5.0529882e-37
-3.5589079e-21
3.570318e-21
3.5911542e-21
-3.6060165e-21
9.9992002e-34
-2.9936344e-33
-1.9984909e-33
-2.0032323e-33
1.0075927e-33
-2.0266436e-33
-3.6509401e-21
3.6429356e-21
3.6431432e-21
-3.6492473e-21
1.0155266e-33
-4.0871263e-33
-1.0260184e-33
1.0260798e-33
1.0237629e-33
1.0253636e-33
-3.7031938e-21
0
3.7351333e-21
-1.0390883e-33
-7.4062694e-52
3.7431293e-21
0
-3.7602697e-21
3.7791868e-21
3.7966658e-21
-3.7998043e-21
0
0
0
0
-3.8296526e-21
1.0678621e-33
-2.1423702e-33
3.8592432e-21
3.8605491e-21
-3.867515e-21
0
0
0
0
-3.9219951e-21
-5.593537e-37
3.9399841e-21
0
0
0
0
0
0
0
-4.0107174e-21
-4.0155352e-21
4.0242326e-21
4.0335417e-21
0
0
0
0
0
0
-4.1025347e-21
-4.1145252e-21
4.1322721e-21
4.1488268e-21
0
0
0
0
0
0
-4.2136939e-21
-4.2268533e-21
4.2326654e-21
4.2378696e-21
0
0
0
0
0
0
-4.3156059e-21
2.4001709e-33
4.3328685e-21
0
0
0
0
0
0
-4.4105421e-21
1.2278096e-33
4.4338822e-21
0
0
0
0
-4.4906583e-21
-6.3991573e-37
4.5181292e-21
-4.5339377e-21
3.6025826e-52
4.5528348e-21
-4.5621929e-21
2.539978e-33
4.5867403e-21
-4.6031288e-21
-2.5643277e-33
-2.5697557e-33
7.2057362e-51
-2.5796091e-33
-1.2925587e-33
4.6730071e-21
-4.6890022e-21
-4.7043219e-21
9.4302966e-21
-2.6211737e-33
-9.4727265e-21
0
4.7628886e-21
-1.3268771e-33
-1.3318929e-33
-4.0013623e-33
-4.0111008e-33
-2.6794526e-33
4.0323629e-33
-2.6953006e-33
1.3536127e-33
4.8879141e-21
0
-4.9140572e-21
-7.0016183e-37
-4.1133486e-33
-4.1268859e-33
7.0665703e-37
2.7684925e-33
-1.3886593e-33
-5.0144661e-21
0
5.0447802e-21
-2.8095902e-33
-7.2159816e-37
5.0919453e-21
0
-5.1210927e-21
5.1376849e-21
5.1546304e-21
-5.1705391e-21
0
0
-5.2175356e-21
5.8130759e-33
-2.914564e-33
2.9255845e-33
-1.4681595e-33
5.3008816e-21
5.3185163e-21
-5.337819e-21
0
0
0
0
-5.4241542e-21
-1.5115188e-33
-6.0655832e-33
5.4829733e-21
5.4999936e-21
-5.5169447e-21
0
0
0
0
-5.615798e-21
-5.6341208e-21
5.652587e-21
5.6721665e-21
0
0
0
0
0
0
-5.8174732e-21
-5.8390122e-21
5.8615691e-21
5.8851197e-21
0
0
0
0
0
0
-6.0415621e-21
5.0515591e-33
1.2180339e-20
-6.1133437e-21
-1.8409343e-20
-6.1602966e-21
0
1.2418856e-20
-6.9230098e-33
-2.0848113e-32
-6.2867894e-21
-1.2625365e-20
1.2675586e-20
-6.3631404e-21
-6.3892887e-21
6.4158513e-21
-6.44283e-21
9.1954706e-37
6.4993083e-21
6.5273425e-21
-6.5544555e-21
-6.5817326e-21
6.6098982e-21
-6.6385755e-21
-9.4753312e-37
6.6976552e-21
0
0
0
1.363541e-20
-6.848195e-21
-1.3758613e-20
6.9107154e-21
-6.942554e-21
-6.9752049e-21
1.4017035e-20
-1.2632389e-50
-7.0742777e-21
7.1070176e-21
1.4280978e-20
7.1745812e-21
-2.1627414e-20
7.2444134e-21
-1.8936366e-49
-2.1950048e-20
1.4704982e-20
7.388197e-21
7.4245275e-21
1.4923302e-20
-1.4998874e-20
-7.5379224e-21
-7.5769345e-21
7.6160374e-21
7.6550533e-21
-2.3082877e-20
7.7341676e-21
7.7748199e-21
-7.8162494e-21
-7.8583225e-21
-1.1227562e-36
2.3829412e-20
-7.9857738e-21
1.3367679e-32
-1.3445325e-32
-2.4352591e-20
8.1630586e-21
8.2089971e-21
1.6509939e-20
-8.3010946e-21
-1.6695663e-20
1.6790966e-20
-8.444106e-21
8.4934612e-21
8.5430556e-21
-2.5778066e-20
8.6427095e-21
8.6935802e-21
-1.7491011e-20
-8.7983459e-21
8.8516584e-21
2.6715184e-20
-8.9587224e-21
-3.6052617e-20
5.0338004e-33
1.8250517e-20
9.1825843e-21
0
1.8595635e-20
2.077068e-32
-2.8245885e-20
9.4755631e-21
-2.1174674e-32
9.5988396e-21
9.6612142e-21
-1.9447831e-20
0
0
0
-9.9830041e-21
5.5798919e-33
2.0234811e-20
-1.0185571e-20
-2.0509102e-20
3.0973245e-20
-3.4620487e-32
-2.0933177e-20
1.0538812e-20
0
0
0
2.167226e-20
-1.0912411e-20
-2.1979048e-20
3.3202915e-20
-3.168117e-36
-2.2453879e-20
0
0
-1.1471469e-20
6.4153832e-33
2.3278168e-20
-1.1724519e-20
-2.3621673e-20
3.5693794e-20
-1.995576e-32
-2.4149401e-20
1.2164565e-20
-1.2255408e-20
2.4694317e-20
1.2439814e-20
-4.1738613e-32
-1.2628232e-20
-2.5448145e-20
3.8462514e-20
-7.3432527e-36
-1.3016745e-20
7.280438e-33
-1.3216689e-20
-1.3318514e-20
7.4499069e-33
4.0575565e-20
-3.873805e-36
-4.1205539e-20
2.7683423e-20
-2.5054768e-49
-2.8116879e-20
1.4168464e-20
-1.4279411e-20
2.8782514e-20
1.4504096e-20
-3.2460688e-32
-1.473322e-20
-2.9699089e-20
-1.4966919e-20
-1.5085249e-20
4.5613613e-20
0
-1.5446452e-20
-8.642113e-33
8.7109064e-33
-8.7780067e-33
1.5943979e-20
-1.7841094e-32
1.6198911e-20
-5.4380511e-32
-4.9376464e-20
3.3180955e-20
5.0169273e-20
1.6856675e-20
-5.0974086e-20
-3.4254588e-20
5.1793528e-20
-1.7402923e-20
-5.262721e-20
0
0
1.7967028e-20
1.8110917e-20
0
-1.8402438e-20
-1.8549891e-20
3.7396751e-20
-4.1848111e-32
-5.699587e-20
2.1260049e-32
1.930379e-20
1.9458202e-20
1.9613725e-20
-1.9770317e-20
-1.9928006e-20
2.0086868e-20
6.0740907e-20
-2.0408325e-20
-8.2283568e-20
2.07346e-20
4.1798818e-20
2.1065336e-20
0
-2.1400787e-20
0
-2.1741187e-20
2.1913154e-20
-4.9038208e-32
2.2260524e-20
-7.4722091e-32
-6.7838112e-20
2.2790644e-20
2.296978e-20
-2.3150087e-20
-2.3331579e-20
2.3514294e-20
7.1094782e-20
-2.3883468e-20
-9.6279499e-20
4.0401082e-32
2.4446219e-20
4.9272459e-20
2.482753e-20
-5.0040228e-20
-1.3995647e-32
-3.6108262e-36
2.5605114e-20
-5.7289457e-32
-2.6001234e-20
7.8603764e-20
-2.9310865e-32
-5.321028e-20
0
0
-2.7220258e-20
1.5224547e-32
5.527359e-20
-2.784705e-20
-5.6117201e-20
-2.8271428e-20
3.1615181e-32
8.6102865e-20
2.8917706e-20
-2.9135812e-20
5.8710553e-20
-1.681206e-35
-9.9250205e-32
-3.0021739e-20
-6.049318e-20
9.1418467e-20
-3.4090907e-32
-6.1859062e-20
0
0
6.3250349e-20
-7.0738579e-32
-3.5622314e-32
-9.1897678e-36
-9.7718246e-20
-6.5626759e-20
5.5054341e-32
9.9897342e-20
3.3544232e-20
-3.3790883e-20
6.8078189e-20
3.8056125e-32
-1.15025e-31
-3.4793239e-20
-7.0095678e-20
1.0591224e-19
-3.556198e-20
-3.5821554e-20
3.6082816e-20
-3.6345785e-20
7.3220985e-20
-4.0939048e-32
-3.7145266e-20
-5.3170447e-36
-7.5374623e-20
7.5922177e-20
-6.3662019e-32
-7.7028616e-20
3.8793844e-20
0
-3.9358937e-20
-2.2000091e-32
1.1979653e-19
-4.0221923e-20
-8.1027654e-20
-4.0807943e-20
-4.1104313e-20
4.1402969e-20
4.1703938e-20
4.2007257e-20
-4.2312974e-20
2.3657975e-32
-2.3824331e-32
4.32451e-20
-4.83717e-32
4.3879561e-20
-1.4720905e-31
-1.3357495e-19
8.9703946e-20
-1.276602e-49
-4.5514836e-20
-5.0894878e-32
2.5645507e-32
1.3959699e-19
-4.6878019e-20
-1.416814e-19
0
0
4.8295877e-20
4.8659519e-20
9.8054062e-20
-4.9398544e-20
-9.9548388e-20
1.003082e-19
-5.0538379e-20
-1.5278139e-19
5.1320466e-20
5.1718528e-20
5.2121474e-20
5.2529477e-20
-1.0588541e-19
-5.3361326e-20
5.3785489e-20
1.6264605e-19
-5.4651084e-20
2.3135038e-48
-9.2472585e-32
-1.119911e-19
1.1291369e-19
1.1385012e-19
-5.7400418e-20
-1.157663e-19
1.1674703e-19
5.8871803e-20
-1.781349e-19
-1.7967984e-19
6.0417019e-20
1.2189956e-19
6.1491865e-20
-3.4438914e-32
-1.2521073e-19
-6.317754e-20
6.3760512e-20
1.2870931e-19
-9.2314199e-36
-1.3115592e-19
1.3241584e-19
-1.1134061e-31
-1.3501336e-19
6.8176446e-20
1.3772095e-19
1.3911859e-19
0
-7.1003454e-20
-2.1524968e-19
-7.2513335e-20
7.3294392e-20
0
0
0
0
-7.7487677e-20
4.3511833e-32
2.3793869e-19
-8.0260296e-20
-2.4369613e-19
-8.222904e-20
1.3865754e-31
1.6860486e-19
8.538071e-20
-8.6488056e-20
1.7525109e-19
8.8794304e-20
-2.9975152e-31
-9.123018e-20
-1.8499919e-19
2.8141476e-19
-2.7042535e-35
-9.6528596e-20
1.3919499e-35
-9.9412427e-20
-1.0091804e-19
1.1375512e-31
3.1219208e-19
-3.0043886e-35
-3.222008e-19
-2.1828804e-19
6.1548941e-32
2.2558386e-19
1.1469986e-19
-1.1666634e-19
2.3738677e-19
1.2078308e-19
-4.0940327e-31
-1.2515916e-19
-2.5490022e-19
3.8943846e-19
-1.468549e-31
-1.3476341e-19
-1.3735642e-19
-1.4003142e-19
-7.9219371e-32
8.0819751e-32
2.9715279e-19
8.4132326e-32
-3.0947196e-19
3.1592806e-19
-8.0582603e-31
-4.9419916e-19
3.3656167e-19
-1.9093083e-31
-3.5144172e-19
1.7962068e-19
1.8364558e-19
3.7559912e-19
-1.920867e-19
-5.8953363e-19
0
0
0
6.4701641e-19
6.6255473e-19
-6.7858935e-19
-6.9513546e-19
4.7480583e-19
-6.9142949e-35
2.4933402e-19
-8.5136097e-31
-7.8610471e-19
8.060661e-19
-1.3768098e-30
-5.6526703e-19
-1.6089595e-31
1.6516092e-31
6.1047969e-19
-3.1325261e-19
3.2151578e-19
-1.0993601e-30
-1.0164678e-18
1.0436438e-18
3.5722043e-19
-8.1451407e-31
7.5354429e-19
-7.7400238e-19
-3.9754372e-19
-4.084085e-19
-1.2588135e-18
4.7863193e-31
4.43027e-19
1.3658168e-18
-3.1165501e-30
-1.4426381e-18
0
5.080428e-19
1.0444687e-18
-5.3684687e-19
5.5189136e-19
-1.889631e-30
-1.166643e-18
1.7991911e-18
-1.3689033e-30
-7.0419184e-31
-7.2368216e-31
-7.4410553e-31
6.8919926e-19
-2.1260006e-18
-2.1860693e-18
7.4928158e-19
1.5409126e-18
0
-8.1461148e-19
9.2964877e-31
-1.912286e-30
9.8312782e-31
9.1055858e-19
-9.3622513e-19
-9.6259518e-19
2.9690552e-18
-1.4663854e-46
-1.742277e-30
1.0754405e-18
-1.2267308e-30
2.2730397e-18
-2.3365697e-18
-2.4017818e-18
-1.2343564e-18
1.4082695e-30
1.3039407e-18
0
0
0
2.9085237e-18
-1.4942809e-18
-3.0706323e-18
4.7321651e-18
-1.6205186e-18
-4.9941849e-18
5.1301167e-18
-5.8498534e-30
-3.6081008e-18
5.5583868e-18
3.805461e-18
0
-4.0125218e-18
-6.85983e-30
-2.1148271e-18
-4.3421153e-18
2.2286183e-18
0
4.6956549e-18
6.8482821e-34
2.7450184e-30
-2.5372304e-18
-7.8098653e-18
8.0125521e-18
-4.5649657e-30
-8.4317727e-18
8.6484625e-18
-1.4773054e-29
-6.0642621e-18
3.1092641e-18
-3.1880846e-18
6.5372391e-18
3.3508959e-18
-1.5253226e-29
-3.5207816e-18
-7.2168908e-18
-3.6979596e-18
-3.7893519e-18
7.7652994e-18
3.9778809e-18
0
-4.1742549e-18
2.3738091e-30
-2.0085755e-47
4.4840132e-18
-1.304963e-33
4.7009765e-18
-2.6071812e-46
-1.4779702e-17
1.5128004e-17
1.548303e-17
-1.0563242e-17
-1.0809057e-17
0
1.1314689e-17
-5.7873087e-18
-1.7759041e-17
1.8163461e-17
-1.0312445e-29
-1.2663028e-17
6.4737889e-18
0
-6.7659947e-18
-6.9159789e-18
7.068586e-18
-1.2029344e-29
1.4763546e-17
4.2873605e-33
-2.3117284e-17
0
2.4122257e-17
1.6424872e-17
-2.5160831e-17
-1.71286e-17
2.6233584e-17
8.9276513e-18
-3.645477e-17
-9.3026739e-18
1.8989235e-17
1.9379091e-17
-1.0976604e-29
-1.0088439e-17
-1.0292445e-17
-1.0499518e-17
1.0709677e-17
-1.2126125e-29
2.2278658e-17
-3.7830175e-29
-3.4744638e-17
0
0
2.4537462e-17
-2.7766721e-29
-1.2742945e-17
3.8954769e-17
-1.3230167e-17
-2.2441259e-29
-4.5728832e-29
-4.1956853e-17
1.4244046e-17
-8.049759e-30
1.6397926e-29
1.5039311e-17
-1.5311089e-17
2.2149358e-33
-8.8061284e-30
1.7922883e-29
1.6431846e-17
0
-1.7012488e-17
3.4615781e-17
1.7606683e-17
-3.5817736e-17
0
1.8523418e-17
-1.8835782e-17
-3.8303074e-17
5.8412044e-17
-6.5931671e-29
-6.7005858e-29
2.0448415e-17
-6.2343234e-17
3.0009213e-33
2.1456494e-17
2.1799233e-17
-2.2145315e-17
-2.2494729e-17
2.2847467e-17
0
-2.3562866e-17
4.7851004e-17
-4.0457643e-29
-2.4660582e-17
-5.5587974e-29
-5.6407677e-29
-7.3292459e-33
-5.2339078e-17
7.9664287e-17
8.0829426e-17
0
-5.5458582e-17
-8.4381054e-17
-4.0540466e-33
2.8931665e-17
2.9338539e-17
-2.9748413e-17
-3.0161263e-17
3.0577062e-17
0
6.2834804e-17
6.3683773e-17
-9.6807628e-17
-3.2699341e-17
3.313225e-17
-9.5405731e-33
-3.4006281e-17
-6.8894674e-17
-3.4891044e-17
5.8854817e-29
1.431451e-16
-1.2068816e-28
-1.1007509e-16
3.7148143e-17
3.7607028e-17
3.8068316e-17
-3.853197e-17
-3.8997951e-17
-3.9466221e-17
-1.1350704e-32
4.040947e-17
-4.0884369e-17
1.2408419e-16
8.3681029e-17
-1.2696503e-16
4.2804846e-17
8.6579953e-17
-8.7554054e-17
4.4265955e-17
-4.4756715e-17
-9.0498531e-17
1.3723068e-16
-4.6239559e-17
1.5568279e-28
1.4170944e-16
-9.5474621e-17
-4.8239664e-17
-4.8743492e-17
-9.8497499e-17
4.9755391e-17
-2.1512385e-72
1.0154528e-16
5.1283152e-17
-5.7500169e-29
-5.2307724e-17
-1.0564338e-16
1.0667342e-16
-5.3852741e-17
-1.631092e-16
1.6466293e-16
5.5406421e-17
2.7188982e-45
5.6446389e-17
-1.7090246e-16
-5.7489262e-17
5.8011671e-17
1.1706933e-16
-5.9058196e-17
5.9582219e-17
-2.0018267e-28
-1.212631e-16
1.834703e-16
6.8511773e-29
-2.7627698e-28
1.3927084e-28
-1.2652042e-16
1.2757298e-16
-6.4312841e-17
-2.593569e-16
6.5365592e-17
1.317838e-16
0
1.3388831e-16
-1.4980394e-28
-3.8651045e-32
-7.6068703e-29
-6.9046003e-17
-6.9570656e-17
7.0094901e-17
7.0618694e-17
-1.4228399e-16
1.4332952e-16
-8.0138488e-29
-1.4541706e-16
1.4645889e-16
2.4562001e-28
-8.2450044e-29
-7.4787859e-17
-1.5061151e-16
7.5822794e-17
-7.6338944e-17
4.2659902e-29
7.736842e-17
1.5576334e-16
-7.8393884e-17
-1.5781004e-16
7.9415048e-17
-7.992393e-17
1.3395986e-28
-8.0938119e-17
-1.808753e-28
1.6389463e-16
1.6489992e-16
1.8415342e-28
-2.7795418e-28
2.7961459e-28
-8.4446756e-17
-8.4942356e-17
-8.5436454e-17
8.5929023e-17
0
0
-8.7397265e-17
4.8781981e-29
1.2557837e-32
9.8637806e-29
8.93318e-17
0
-9.0288683e-17
-1.8152888e-16
9.1238379e-17
1.8342094e-16
1.8436138e-16
1.8529804e-16
-2.7934631e-16
-3.116638e-28
2.8212734e-16
-1.8900599e-16
-1.8992309e-16
0
-9.5872575e-17
1.9265003e-16
9.677538e-17
-1.9444731e-16
-9.7669818e-17
1.0892129e-28
2.9566725e-16
-9.8995481e-17
-2.9829911e-16
2.9960521e-16
1.0030156e-16
-3.021975e-16
1.1228993e-28
1.0158766e-16
2.0402371e-16
1.1368794e-28
-2.0570681e-16
2.0654147e-16
-1.0368576e-16
-3.1229538e-16
0
1.0491686e-16
2.1064505e-16
-5.8715921e-29
1.0612677e-16
2.1305064e-16
-2.1384297e-16
-2.1463051e-16
0
-1.0809557e-16
-1.2043161e-28
-1.2087349e-28
-1.2128172e-28
3.2888125e-16
2.2000772e-16
0
-2.2150012e-16
-2.4668741e-28
-1.1148641e-16
-3.3555266e-16
1.1221288e-16
-6.2470241e-29
1.6048239e-32
1.1328399e-16
2.2727211e-16
-1.1398563e-16
-2.2866543e-16
1.146773e-16
0
2.3071798e-16
-1.1569608e-16
-3.4809202e-16
1.1636276e-16
1.1669235e-16
2.3403888e-16
-1.1734402e-16
-3.5299832e-16
1.1798569e-16
-1.3131724e-28
-2.3723469e-16
1.1892942e-16
1.1923899e-16
2.3909215e-16
3.5955198e-16
-2.403055e-16
-2.409047e-16
2.4149891e-16
1.3434291e-28
-2.426724e-16
2.4325169e-16
1.3534197e-28
-2.4439539e-16
0
2.4551929e-16
2.4607383e-16
0
-3.7075218e-16
-1.2385394e-16
-3.5277414e-32
-1.2438634e-16
-1.2464887e-16
-1.3863242e-28
2.5033321e-16
2.5084363e-16
-4.185537e-28
-2.518499e-16
2.5234577e-16
4.2103091e-28
-2.5332301e-16
0
0
0
0
2.5568205e-16
1.422133e-28
-2.5659226e-16
-1.2852012e-16
2.5748349e-16
-4.2957226e-28
-2.5835584e-16
2.5878496e-16
1.4391775e-28
-1.2981458e-16
2.6004425e-16
-4.3379046e-28
-2.6086049e-16
2.6126166e-16
2.6165821e-16
-2.6205015e-16
-2.624375e-16
0
0
0
0
-1.3215287e-16
1.3233288e-16
1.3251064e-16
-1.4730179e-28
-1.3739922e-72
-1.3303044e-16
-2.6639846e-16
-1.333658e-16
2.6706028e-16
4.0107683e-16
-1.338522e-16
-2.6801986e-16
4.0249637e-16
2.6863759e-16
-4.0340983e-16
-2.6923784e-16
-1.3476572e-16
-1.49771e-28
2.7010566e-16
0
-1.3533133e-16
1.3546735e-16
-3.0107597e-28
-3.8577639e-32
-4.5244589e-28
-1.3599014e-16
-1.3611554e-16
3.8721406e-32
2.7272004e-16
2.7295822e-16
-4.5488847e-28
-2.7342202e-16
0
0
0
-1.3714988e-16
-1.3725444e-16
1.3735694e-16
1.3745739e-16
-1.3755579e-16
2.7530431e-16
4.1323946e-16
0
-2.7585814e-16
-1.5318098e-28
-1.3810357e-16
-4.1456341e-16
1.3827003e-16
-2.3038472e-28
2.7685698e-16
-9.2264655e-28
-2.7715798e-16
-7.6961984e-29
-1.9713518e-32
1.3878987e-16
-1.3885623e-16
2.7784123e-16
1.3898304e-16
-2.7808702e-16
2.7820405e-16
3.9551251e-32
-1.545874e-28
-1.3926591e-16
-4.1794997e-16
2.7873094e-16
-6.0773262e-48
1.3945731e-16
-2.3233953e-28
-2.7908294e-16
1.3958068e-16
2.7923595e-16
-1.5499676e-28
-4.1906052e-16
3.9710363e-32
1.397481e-16
-1.3977589e-16
2.7960357e-16
1.3982579e-16
-2.7969581e-16
2.7973628e-16
1.5525551e-28
-7.7660754e-28
3.1069931e-28
-2.7986061e-16
2.7988234e-16
-1.3995016e-16
-2.7991456e-16
1.3996254e-16
-1.399659e-16
2.7993467e-16
-2.3311653e-28
-4.1989366e-16
0
0
4.1983943e-16
1.3993675e-16
-2.7985037e-16
2.7982355e-16
7.9521966e-32
-6.211497e-28
-1.5526641e-28
-2.7967946e-16
2.7963425e-16
2.7958536e-16
-1.3976641e-16
-4.192149e-16
-1.3970837e-16
1.396766e-16
0
0
-1.3957034e-16
7.7450452e-29
4.1847108e-16
3.9633402e-32
-2.7880618e-16
-1.3935672e-16
1.5461405e-28
4.1777556e-16
3.0908115e-28
-2.7830606e-16
0
-1.3904026e-16
2.7796229e-16
1.3892021e-16
-3.0834524e-28
-1.3879289e-16
-2.7745301e-16
1.386583e-16
0
0
0
0
-1.3828998e-16
7.6717531e-29
4.1438977e-16
-1.3804716e-16
-4.1388776e-16
4.1362856e-16
1.3778797e-16
-2.7539585e-16
-1.3760606e-16
-2.2896991e-28
4.1225061e-16
-7.8057121e-32
-4.5704544e-28
-1.371194e-16
-2.740332e-16
-1.3691197e-16
-1.5183603e-28
1.3669723e-16
1.3658711e-16
1.3647517e-16
1.363614e-16
-3.0250707e-28
-2.7225672e-16
0
0
-1.3576506e-16
-2.2585272e-28
-1.9257652e-32
1.9239399e-32
1.3525495e-16
2.7024566e-16
2.6997773e-16
-2.6970613e-16
-1.4963116e-28
-1.3457593e-16
-4.0330379e-16
0
0
1.3399952e-16
1.338508e-16
0
-1.3354781e-16
7.4043553e-29
1.3323742e-16
-1.3307945e-16
2.6583924e-16
-4.4214445e-28
-3.9778319e-16
1.32429e-16
1.3226175e-16
2.6418529e-16
-1.3192167e-16
-3.9524654e-16
1.3157416e-16
-7.2954335e-29
2.6243842e-16
1.3103895e-16
-2.6171363e-16
2.6134565e-16
2.6461472e-46
-2.6059852e-16
0
0
2.594499e-16
-1.4365049e-28
-4.308106e-28
2.8518211e-46
-3.8679942e-16
-1.4292875e-28
1.2852607e-16
2.566395e-16
2.5622314e-16
-2.5580306e-16
-2.8350981e-28
-1.2747589e-16
-4.2390714e-28
1.2704284e-16
-2.5364709e-16
0
-1.263794e-16
1.4001488e-28
1.2592789e-16
2.5139875e-16
1.3925402e-28
-2.5047368e-16
0
0
-1.2452934e-16
6.8990316e-29
3.7214571e-16
1.3744289e-28
-2.4712113e-16
0
1.2306537e-16
-1.2281508e-16
-1.2256302e-16
-1.2230917e-16
-1.2205356e-16
2.4359236e-16
3.6461114e-16
-1.2127617e-16
-2.4202709e-16
3.6224759e-16
9.7896082e-47
-2.4043067e-16
0
0
0
0
2.3770211e-16
2.3714642e-16
-1.1829373e-16
-3.5403787e-16
-1.3076501e-28
1.1744561e-16
-2.3431945e-16
-2.3374457e-16
1.1658329e-16
4.6517111e-16
2.3200149e-16
-3.4712167e-16
-2.3082446e-16
3.4534736e-16
2.5489802e-28
-2.2903725e-16
0
0
0
2.2661571e-16
1.2544927e-28
-2.5024843e-28
1.123862e-16
-3.3622964e-16
1.1176572e-16
1.1145377e-16
-3.3342212e-16
-2.2165316e-16
1.1051143e-16
2.2039056e-16
2.1975636e-16
-3.6494758e-28
1.2130547e-28
-3.0957372e-32
-2.1720216e-16
0
-1.0795795e-16
-1.0763541e-16
1.0731229e-16
1.0698864e-16
-1.0666452e-16
-1.0633999e-16
2.1203024e-16
1.0568996e-16
-1.0536457e-16
1.0503904e-16
-1.0471342e-16
-2.0877559e-16
0
0
3.1023494e-16
1.0308678e-16
-2.0552461e-16
-1.0243833e-16
-1.0211493e-16
2.0358445e-16
-1.1270513e-28
-2.0229851e-16
0
1.0051028e-16
3.0057773e-16
2.2172718e-28