/*--------------------------------*- C++ -*----------------------------------*\
  =========                 |
  \\      /  F ield         | OpenFOAM: The Open Source CFD Toolbox
   \\    /   O peration     | Website:  https://openfoam.org
    \\  /    A nd           | Version:  7
     \\/     M anipulation  |
\*---------------------------------------------------------------------------*/
FoamFile
{
    version     2.0;
    format      ascii;
    class       volScalarField;
    location    "0.00118";
    object      p;
}
// * * * * * * * * * * * * * * * * * * * * * * * * * * * * * * * * * * * * * //

dimensions      [1 -1 -2 0 0 0 0];

internalField   nonuniform List<scalar> 
5000
(
97524.856
97536.167
97547.809
97559.504
97571.223
97582.948
97594.681
97606.421
97618.167
97629.919
97641.675
97653.435
97665.198
97676.963
97688.729
97700.496
97712.263
97724.029
97735.795
97747.56
97759.325
97771.088
97782.85
97794.611
97806.371
97818.129
97829.887
97841.643
97853.397
97865.151
97876.904
97888.655
97900.405
97912.154
97923.902
97935.649
97947.394
97959.137
97970.879
97982.618
97994.354
98006.087
98017.816
98029.542
98041.264
98052.982
98064.696
98076.406
98088.113
98099.818
98111.521
98123.224
98134.926
98146.629
98158.335
98170.042
98181.753
98193.468
98205.187
98216.91
98228.637
98240.369
98252.104
98263.842
98275.583
98287.327
98299.072
98310.819
98322.568
98334.317
98346.066
98357.815
98369.564
98381.312
98393.06
98404.807
98416.553
98428.298
98440.042
98451.785
98463.526
98475.267
98487.005
98498.743
98510.479
98522.214
98533.947
98545.679
98557.409
98569.138
98580.865
98592.59
98604.314
98616.035
98627.755
98639.473
98651.19
98662.904
98674.616
98686.326
98698.034
98709.741
98721.446
98733.149
98744.851
98756.551
98768.25
98779.949
98791.647
98803.344
98815.042
98826.74
98838.438
98850.137
98861.837
98873.539
98885.241
98896.945
98908.651
98920.358
98932.067
98943.778
98955.491
98967.205
98978.921
98990.638
99002.356
99014.075
99025.795
99037.516
99049.237
99060.959
99072.681
99084.403
99096.124
99107.845
99119.566
99131.286
99143.005
99154.723
99166.441
99178.157
99189.872
99201.586
99213.298
99225.009
99236.719
99248.427
99260.134
99271.838
99283.542
99295.243
99306.943
99318.641
99330.336
99342.03
99353.722
99365.411
99377.099
99388.783
99400.466
99412.146
99423.823
99435.498
99447.17
99458.84
99470.506
99482.17
99493.831
99505.49
99517.145
99528.798
99540.448
99552.096
99563.74
99575.383
99587.023
99598.661
99610.297
99621.931
99633.563
99645.193
99656.822
99668.449
99680.075
99691.699
99703.322
99714.944
99726.564
99738.183
99749.801
99761.417
99773.032
99784.646
99796.257
99807.867
99819.474
99831.079
99842.682
99854.282
99865.879
99877.472
99889.062
99900.648
99912.229
99923.806
99935.378
99946.945
99958.506
99970.062
99981.611
99993.153
100004.69
100016.22
100027.74
100039.25
100050.75
100062.25
100073.73
100085.21
100096.67
100108.13
100119.58
100131.01
100142.43
100153.84
100165.24
100176.63
100188
100199.36
100210.71
100222.04
100233.36
100244.66
100255.95
100267.22
100278.48
100289.72
100300.94
100312.14
100323.33
100334.5
100345.65
100356.78
100367.89
100378.98
100390.05
100401.09
100412.12
100423.12
100434.1
100445.05
100455.98
100466.88
100477.76
100488.6
100499.42
100510.21
100520.97
100531.7
100542.4
100553.06
100563.69
100574.28
100584.84
100595.36
100605.84
100616.28
100626.68
100637.04
100647.35
100657.62
100667.85
100678.03
100688.16
100698.23
100708.26
100718.24
100728.16
100738.03
100747.84
100757.59
100767.28
100776.91
100786.48
100795.99
100805.43
100814.8
100824.11
100833.34
100842.5
100851.59
100860.61
100869.55
100878.41
100887.19
100895.89
100904.51
100913.04
100921.49
100929.85
100938.12
100946.3
100954.38
100962.37
100970.27
100978.06
100985.76
100993.35
101000.84
101008.23
101015.5
101022.67
101029.73
101036.68
101043.51
101050.22
101056.82
101063.3
101069.66
101075.89
101082
101087.98
101093.83
101099.55
101105.14
101110.6
101115.92
101121.1
101126.15
101131.05
101135.81
101140.43
101144.9
101149.23
101153.4
101157.43
101161.3
101165.02
101168.58
101171.99
101175.24
101178.33
101181.25
101184.02
101186.62
101189.06
101191.33
101193.43
101195.36
101197.12
101198.71
101200.13
101201.37
101202.43
101203.32
101204.03
101204.57
101204.92
101205.07
101205.05
101204.85
101204.46
101203.89
101203.13
101202.19
101201.05
101199.73
101198.22
101196.51
101194.62
101192.53
101190.26
101187.78
101185.12
101182.26
101179.2
101175.95
101172.51
101168.86
101165.02
101160.98
101156.75
101152.31
101147.68
101142.85
101137.82
101132.59
101127.16
101121.54
101115.71
101109.69
101103.46
101097.04
101090.41
101083.59
101076.57
101069.35
101061.94
101054.32
101046.51
101038.5
101030.29
101021.89
101013.29
101004.49
100995.5
100986.31
100976.94
100967.36
100957.6
100947.64
100937.49
100927.15
100916.63
100905.91
100895
100883.91
100872.63
100861.17
100849.52
100837.69
100825.67
100813.48
100801.1
100788.54
100775.81
100762.89
100749.81
100736.54
100723.1
100709.49
100695.71
100681.76
100667.64
100653.35
100638.9
100624.28
100609.49
100594.55
100579.44
100564.17
100548.75
100533.17
100517.43
100501.54
100485.49
100469.3
100452.95
100436.46
100419.82
100403.03
100386.1
100369.03
100351.82
100334.46
100316.97
100299.35
100281.59
100263.7
100245.67
100227.52
100209.24
100190.83
100172.3
100153.64
100134.86
100115.97
100096.95
100077.82
100058.57
100039.21
100019.74
100000.16
99980.476
99960.683
99940.784
99920.783
99900.681
99880.48
99860.182
99839.787
99819.3
99798.72
99778.049
99757.291
99736.445
99715.515
99694.502
99673.408
99652.234
99630.982
99609.655
99588.254
99566.781
99545.238
99523.626
99501.948
99480.205
99458.399
99436.533
99414.607
99392.624
99370.586
99348.494
99326.351
99304.158
99281.917
99259.63
99237.299
99214.926
99192.512
99170.06
99147.571
99125.048
99102.492
99079.905
99057.289
99034.645
99011.977
98989.285
98966.571
98943.838
98921.087
98898.321
98875.54
98852.747
98829.944
98807.133
98784.315
98761.493
98738.668
98715.843
98693.019
98670.198
98647.382
98624.573
98601.773
98578.984
98556.207
98533.446
98510.7
98487.974
98465.267
98442.584
98419.924
98397.291
98374.686
98352.111
98329.569
98307.06
98284.588
98262.154
98239.76
98217.408
98195.1
98172.838
98150.624
98128.461
98106.349
98084.292
98062.291
98040.348
98018.465
97996.645
97974.889
97953.199
97931.578
97910.028
97888.55
97867.146
97845.82
97824.572
97803.406
97782.322
97761.323
97740.412
97719.59
97698.86
97678.223
97657.682
97637.238
97616.895
97596.654
97576.516
97556.485
97536.563
97516.751
97497.051
97477.467
97457.999
97438.651
97419.423
97400.319
97381.341
97362.49
97343.768
97325.179
97306.723
97288.403
97270.222
97252.181
97234.282
97216.527
97198.919
97181.46
97164.151
97146.995
97129.993
97113.149
97096.463
97079.938
97063.576
97047.379
97031.348
97015.487
96999.796
96984.278
96968.935
96953.768
96938.779
96923.971
96909.345
96894.903
96880.647
96866.578
96852.699
96839.01
96825.515
96812.214
96799.109
96786.202
96773.494
96760.987
96748.682
96736.582
96724.687
96712.998
96701.518
96690.248
96679.188
96668.341
96657.707
96647.288
96637.085
96627.098
96617.33
96607.781
96598.451
96589.343
96580.456
96571.792
96563.351
96555.134
96547.142
96539.375
96531.834
96524.52
96517.433
96510.572
96503.939
96497.535
96491.358
96485.409
96479.688
96474.196
96468.932
96463.896
96459.088
96454.507
96450.154
96446.028
96442.129
96438.456
96435.008
96431.785
96428.786
96426.011
96423.458
96421.127
96419.017
96417.127
96415.455
96414.001
96412.763
96411.74
96410.931
96410.334
96409.949
96409.777
96409.811
96410.052
96410.497
96411.146
96411.995
96413.044
96414.29
96415.732
96417.368
96419.195
96421.211
96423.415
96425.805
96428.377
96431.131
96434.063
96437.171
96440.454
96443.908
96447.532
96451.322
96455.277
96459.394
96463.671
96468.104
96472.692
96477.433
96482.322
96487.359
96492.54
96497.862
96503.324
96508.923
96514.655
96520.519
96526.511
96532.63
96538.872
96545.236
96551.717
96558.315
96565.026
96571.848
96578.778
96585.814
96592.953
96600.193
96607.531
96614.965
96622.492
96630.111
96637.818
96645.611
96653.489
96661.449
96669.487
96677.604
96685.795
96694.059
96702.394
96710.798
96719.268
96727.803
96736.401
96745.059
96753.776
96762.55
96771.378
96780.26
96789.194
96798.177
96807.208
96816.285
96825.407
96834.572
96843.779
96853.025
96862.31
96871.632
96880.99
96890.382
96899.808
96909.264
96918.752
96928.268
96937.813
96947.385
96956.982
96966.604
96976.25
96985.918
96995.608
97005.319
97015.049
97024.799
97034.567
97044.352
97054.153
97063.97
97073.802
97083.649
97093.509
97103.382
97113.267
97123.164
97133.072
97142.991
97152.92
97162.859
97172.806
97182.763
97192.727
97202.699
97212.679
97222.665
97232.658
97242.658
97252.663
97262.674
97272.691
97282.712
97292.739
97302.769
97312.805
97322.844
97332.887
97342.934
97352.984
97363.037
97373.094
97383.154
97393.216
97403.281
97413.349
97423.419
97433.491
97443.566
97453.642
97463.721
97473.801
97483.884
97493.967
97504.053
97514.14
97524.228
97534.318
97544.41
97554.502
97564.596
97574.691
97584.787
97594.884
97604.982
97615.081
97625.181
97635.282
97645.384
97655.486
97665.589
97675.694
97685.798
97695.904
97706.01
97716.117
97726.224
97736.332
97746.44
97756.549
97766.658
97776.767
97786.877
97796.988
97807.098
97817.209
97827.321
97837.432
97847.544
97857.656
97867.768
97877.88
97887.992
97898.105
97908.217
97918.329
97928.442
97938.554
97948.666
97958.779
97968.891
97979.003
97989.114
97999.226
98009.337
98019.449
98029.559
98039.67
98049.78
98059.89
98070
98080.109
98090.219
98100.328
98110.435
98120.543
98130.649
98140.756
98150.862
98160.967
98171.072
98181.176
98191.28
98201.383
98211.486
98221.588
98231.69
98241.791
98251.891
98261.99
98272.089
98282.187
98292.284
98302.381
98312.478
98322.573
98332.668
98342.762
98352.855
98362.948
98373.04
98383.131
98393.222
98403.311
98413.4
98423.488
98433.575
98443.662
98453.748
98463.832
98473.916
98483.999
98494.081
98504.162
98514.243
98524.323
98534.401
98544.479
98554.556
98564.632
98574.707
98584.781
98594.854
98604.927
98614.999
98625.07
98635.14
98645.21
98655.278
98665.346
98675.413
98685.479
98695.544
98705.608
98715.671
98725.734
98735.795
98745.856
98755.916
98765.974
98776.032
98786.089
98796.146
98806.201
98816.256
98826.309
98836.362
98846.414
98856.466
98866.517
98876.566
98886.614
98896.662
98906.709
98916.755
98926.8
98936.844
98946.887
98956.929
98966.971
98977.012
98987.051
98997.09
99007.128
99017.165
99027.202
99037.238
99047.272
99057.306
99067.339
99077.372
99087.403
99097.433
99107.463
99117.492
99127.519
99137.545
99147.571
99157.595
99167.619
99177.642
99187.665
99197.686
99207.707
99217.728
99227.747
99237.766
99247.784
99257.801
99267.817
99277.832
99287.846
99297.859
99307.871
99317.882
99327.892
99337.9
99347.908
99357.914
99367.92
99377.925
99387.93
99397.934
99407.937
99417.94
99427.942
99437.943
99447.944
99457.943
99467.941
99477.939
99487.935
99497.93
99507.923
99517.916
99527.907
99537.896
99547.885
99557.873
99567.86
99577.846
99587.831
99597.814
99607.797
99617.778
99627.758
99637.737
99647.715
99657.692
99667.666
99677.639
99687.608
99697.572
99707.533
99717.499
99727.458
99737.416
99747.382
99757.358
99767.339
99777.321
99787.301
99797.281
99807.259
99817.236
99827.211
99837.185
99847.157
99857.128
99867.097
99877.065
99887.032
99896.998
99906.962
99916.925
99926.887
99936.847
99946.807
99956.765
99966.722
99976.678
99986.633
99996.587
100006.54
100016.49
100026.44
100036.39
100046.34
100056.29
100066.24
100076.18
100086.13
100096.07
100106.02
100115.96
100125.9
100135.84
100145.78
100155.72
100165.66
100175.6
100185.53
100195.47
100205.41
100215.34
100225.27
100235.2
100245.14
100255.07
100265
100274.93
100284.85
100294.78
100304.71
100314.63
100324.56
100334.48
100344.4
100354.32
100364.25
100374.17
100384.09
100394
100403.92
100413.84
100423.75
100433.67
100443.58
100453.5
100463.41
100473.32
100483.23
100493.14
100503.05
100512.96
100522.87
100532.77
100542.68
100552.58
100562.49
100572.39
100582.29
100592.2
100602.1
100612
100621.89
100631.79
100641.69
100651.59
100661.48
100671.38
100681.27
100691.16
100701.06
100710.95
100720.84
100730.73
100740.62
100750.5
100760.39
100770.28
100780.16
100790.05
100799.93
100809.82
100819.7
100829.58
100839.46
100849.34
100859.22
100869.1
100878.97
100888.85
100898.73
100908.6
100918.47
100928.35
100938.22
100948.09
100957.96
100967.83
100977.7
100987.57
100997.44
101007.3
101017.17
101027.03
101036.9
101046.76
101056.62
101066.48
101076.34
101086.2
101096.06
101105.92
101115.78
101125.64
101135.49
101145.35
101155.2
101165.05
101174.91
101184.76
101194.61
101204.46
101214.31
101224.16
101234
101243.85
101253.7
101263.54
101273.39
101283.23
101293.07
101302.91
101312.75
101322.59
101332.43
101342.27
101352.11
101361.95
101371.78
101381.62
101391.45
101401.29
101411.12
101420.95
101430.79
101440.62
101450.45
101460.28
101470.1
101479.93
101489.76
101499.58
101509.41
101519.23
101529.06
101538.88
101548.7
101558.53
101568.35
101578.17
101587.99
101597.8
101607.62
101617.44
101627.26
101637.07
101646.89
101656.7
101666.51
101676.33
101686.14
101695.95
101705.76
101715.57
101725.38
101735.19
101745
101754.8
101764.61
101774.42
101784.22
101794.03
101803.83
101813.63
101823.43
101833.24
101843.04
101852.84
101862.64
101872.44
101882.24
101892.03
101901.83
101911.63
101921.42
101931.22
101941.01
101950.81
101960.6
101970.4
101980.19
101989.98
101999.77
102009.56
102019.35
102029.14
102038.93
102048.72
102058.51
102068.29
102078.08
102087.87
102097.65
102107.44
102117.22
102127.01
102136.79
102146.57
102156.35
102166.14
102175.92
102185.7
102195.48
102205.26
102215.04
102224.82
102234.59
102244.37
102254.15
102263.93
102273.7
102283.48
102293.25
102303.03
102312.8
102322.58
102332.35
102342.12
102351.89
102361.67
102371.44
102381.21
102390.98
102400.75
102410.52
102420.29
102430.06
102439.83
102449.59
102459.36
102469.13
102478.9
102488.66
102498.43
102508.19
102517.96
102527.72
102537.49
102547.25
102557.01
102566.78
102576.54
102586.3
102596.06
102605.83
102615.59
102625.35
102635.11
102644.87
102654.63
102664.39
102674.14
102683.9
102693.66
102703.42
102713.18
102722.93
102732.69
102742.44
102752.2
102761.96
102771.71
102781.47
102791.22
102800.97
102810.73
102820.48
102830.23
102839.99
102849.74
102859.49
102869.24
102878.99
102888.74
102898.49
102908.24
102917.99
102927.74
102937.49
102947.24
102956.99
102966.74
102976.48
102986.23
102995.98
103005.72
103015.47
103025.22
103034.96
103044.71
103054.45
103064.2
103073.94
103083.68
103093.43
103103.17
103112.91
103122.65
103132.4
103142.14
103151.88
103161.62
103171.36
103181.1
103190.84
103200.58
103210.32
103220.06
103229.8
103239.53
103249.27
103259.01
103268.75
103278.48
103288.22
103297.95
103307.69
103317.42
103327.16
103336.89
103346.63
103356.36
103366.09
103375.83
103385.56
103395.29
103405.02
103414.75
103424.48
103434.21
103443.94
103453.67
103463.4
103473.13
103482.86
103492.59
103502.31
103512.04
103521.77
103531.49
103541.22
103550.94
103560.67
103570.39
103580.12
103589.84
103599.56
103609.28
103619.01
103628.73
103638.45
103648.17
103657.89
103667.61
103677.33
103687.05
103696.76
103706.48
103716.2
103725.91
103735.63
103745.34
103755.06
103764.77
103774.49
103784.2
103793.91
103803.62
103813.34
103823.05
103832.76
103842.47
103852.17
103861.88
103871.59
103881.3
103891
103900.71
103910.42
103920.12
103929.82
103939.53
103949.23
103958.93
103968.63
103978.34
103988.04
103997.74
104007.43
104017.13
104026.83
104036.53
104046.22
104055.92
104065.61
104075.31
104085
104094.69
104104.39
104114.08
104123.77
104133.46
104143.15
104152.84
104162.52
104172.21
104181.9
104191.58
104201.27
104210.95
104220.64
104230.32
104240
104249.68
104259.36
104269.04
104278.72
104288.4
104298.08
104307.75
104317.43
104327.1
104336.78
104346.45
104356.12
104365.8
104375.47
104385.14
104394.81
104404.48
104414.14
104423.81
104433.48
104443.14
104452.81
104462.47
104472.13
104481.8
104491.46
104501.12
104510.78
104520.44
104530.1
104539.75
104549.41
104559.07
104568.72
104578.38
104588.03
104597.68
104607.33
104616.98
104626.63
104636.28
104645.93
104655.58
104665.23
104674.87
104684.52
104694.16
104703.81
104713.45
104723.09
104732.73
104742.37
104752.01
104761.65
104771.29
104780.92
104790.56
104800.2
104809.83
104819.46
104829.1
104838.73
104848.36
104857.99
104867.62
104877.25
104886.88
104896.5
104906.13
104915.75
104925.38
104935
104944.62
104954.25
104963.87
104973.49
104983.11
104992.73
105002.34
105011.96
105021.58
105031.19
105040.81
105050.42
105060.03
105069.64
105079.25
105088.86
105098.47
105108.08
105117.69
105127.3
105136.9
105146.51
105156.11
105165.72
105175.32
105184.92
105194.52
105204.12
105213.72
105223.32
105232.92
105242.51
105252.11
105261.7
105271.3
105280.89
105290.48
105300.08
105309.67
105319.26
105328.85
105338.44
105348.02
105357.61
105367.2
105376.78
105386.37
105395.95
105405.53
105415.11
105424.69
105434.28
105443.85
105453.43
105463.01
105472.59
105482.16
105491.74
105501.31
105510.89
105520.46
105530.03
105539.6
105549.17
105558.74
105568.31
105577.88
105587.45
105597.01
105606.58
105616.14
105625.71
105635.27
105644.83
105654.39
105663.95
105673.51
105683.07
105692.63
105702.18
105711.74
105721.3
105730.85
105740.4
105749.96
105759.51
105769.06
105778.61
105788.16
105797.71
105807.26
105816.8
105826.35
105835.9
105845.44
105854.98
105864.53
105874.07
105883.61
105893.15
105902.69
105912.23
105921.77
105931.3
105940.84
105950.38
105959.91
105969.45
105978.98
105988.51
105998.04
106007.57
106017.1
106026.63
106036.16
106045.69
106055.21
106064.74
106074.26
106083.79
106093.31
106102.83
106112.35
106121.87
106131.39
106140.91
106150.43
106159.95
106169.47
106178.98
106188.5
106198.01
106207.52
106217.04
106226.55
106236.06
106245.57
106255.08
106264.59
106274.09
106283.6
106293.1
106302.61
106312.11
106321.62
106331.12
106340.62
106350.12
106359.62
106369.12
106378.62
106388.12
106397.61
106407.11
106416.6
106426.1
106435.59
106445.08
106454.58
106464.07
106473.56
106483.05
106492.53
106502.02
106511.51
106521
106530.48
106539.96
106549.45
106558.93
106568.41
106577.89
106587.37
106596.85
106606.33
106615.81
106625.29
106634.76
106644.24
106653.71
106663.18
106672.66
106682.13
106691.6
106701.07
106710.54
106720.01
106729.48
106738.94
106748.41
106757.87
106767.34
106776.8
106786.26
106795.73
106805.19
106814.65
106824.11
106833.57
106843.02
106852.48
106861.94
106871.39
106880.85
106890.3
106899.75
106909.2
106918.65
106928.1
106937.55
106947
106956.45
106965.9
106975.34
106984.79
106994.23
107003.68
107013.12
107022.56
107032
107041.44
107050.88
107060.32
107069.76
107079.19
107088.63
107098.06
107107.5
107116.93
107126.36
107135.79
107145.22
107154.65
107164.08
107173.51
107182.94
107192.36
107201.79
107211.21
107220.64
107230.06
107239.48
107248.9
107258.32
107267.74
107277.16
107286.57
107295.99
107305.4
107314.82
107324.23
107333.64
107343.05
107352.46
107361.87
107371.28
107380.69
107390.09
107399.5
107408.9
107418.3
107427.7
107437.1
107446.5
107455.9
107465.3
107474.69
107484.09
107493.48
107502.87
107512.27
107521.66
107531.04
107540.43
107549.82
107559.2
107568.58
107577.96
107587.34
107596.72
107606.1
107615.48
107624.85
107634.22
107643.59
107652.96
107662.33
107671.7
107681.06
107690.42
107699.78
107709.14
107718.5
107727.85
107737.2
107746.55
107755.9
107765.24
107774.59
107783.93
107793.27
107802.6
107811.94
107821.27
107830.6
107839.92
107849.24
107858.56
107867.88
107877.19
107886.5
107895.81
107905.12
107914.42
107923.71
107933.01
107942.29
107951.58
107960.86
107970.14
107979.41
107988.68
107997.95
108007.21
108016.46
108025.71
108034.96
108044.2
108053.43
108062.66
108071.89
108081.11
108090.32
108099.53
108108.73
108117.92
108127.11
108136.29
108145.46
108154.63
108163.79
108172.94
108182.09
108191.22
108200.35
108209.47
108218.58
108227.69
108236.78
108245.86
108254.94
108264.01
108273.06
108282.11
108291.14
108300.17
108309.18
108318.18
108327.17
108336.15
108345.12
108354.07
108363.01
108371.94
108380.86
108389.76
108398.65
108407.52
108416.38
108425.22
108434.05
108442.86
108451.66
108460.44
108469.21
108477.96
108486.69
108495.4
108504.09
108512.77
108521.43
108530.06
108538.68
108547.28
108555.86
108564.42
108572.95
108581.47
108589.96
108598.43
108606.88
108615.3
108623.7
108632.08
108640.43
108648.76
108657.06
108665.33
108673.58
108681.8
108690
108698.17
108706.31
108714.42
108722.5
108730.55
108738.57
108746.57
108754.53
108762.46
108770.36
108778.22
108786.06
108793.86
108801.62
108809.36
108817.06
108824.72
108832.35
108839.94
108847.5
108855.01
108862.5
108869.94
108877.35
108884.71
108892.04
108899.33
108906.58
108913.79
108920.96
108928.08
108935.17
108942.21
108949.21
108956.17
108963.09
108969.96
108976.78
108983.57
108990.3
108997
109003.64
109010.24
109016.8
109023.3
109029.77
109036.18
109042.54
109048.86
109055.13
109061.35
109067.52
109073.64
109079.72
109085.74
109091.71
109097.63
109103.51
109109.33
109115.1
109120.81
109126.48
109132.1
109137.66
109143.17
109148.63
109154.03
109159.39
109164.69
109169.93
109175.13
109180.27
109185.36
109190.39
109195.37
109200.3
109205.18
109210
109214.76
109219.48
109224.13
109228.74
109233.29
109237.79
109242.23
109246.63
109250.96
109255.25
109259.48
109263.65
109267.78
109271.85
109275.86
109279.83
109283.74
109287.6
109291.41
109295.16
109298.86
109302.51
109306.11
109309.66
109313.15
109316.6
109319.99
109323.33
109326.62
109329.87
109333.06
109336.2
109339.3
109342.34
109345.34
109348.29
109351.19
109354.04
109356.84
109359.6
109362.31
109364.98
109367.6
109370.17
109372.7
109375.19
109377.63
109380.02
109382.38
109384.69
109386.95
109389.18
109391.36
109393.51
109395.61
109397.67
109399.69
109401.67
109403.61
109405.52
109407.38
109409.21
109411
109412.75
109414.47
109416.15
109417.8
109419.41
109420.99
109422.53
109424.04
109425.52
109426.96
109428.37
109429.75
109431.1
109432.42
109433.71
109434.97
109436.2
109437.4
109438.57
109439.72
109440.83
109441.92
109442.99
109444.03
109445.04
109446.03
109446.99
109447.93
109448.85
109449.74
109450.61
109451.46
109452.28
109453.09
109453.87
109454.63
109455.37
109456.1
109456.8
109457.48
109458.15
109458.79
109459.42
109460.03
109460.63
109461.21
109461.77
109462.31
109462.84
109463.36
109463.86
109464.34
109464.81
109465.27
109465.71
109466.14
109466.56
109466.97
109467.36
109467.74
109468.11
109468.47
109468.81
109469.15
109469.48
109469.79
109470.1
109470.39
109470.68
109470.95
109471.22
109471.48
109471.73
109471.97
109472.21
109472.43
109472.65
109472.86
109473.07
109473.27
109473.46
109473.64
109473.82
109473.99
109474.16
109474.32
109474.47
109474.62
109474.77
109474.91
109475.04
109475.17
109475.29
109475.41
109475.53
109475.64
109475.75
109475.85
109475.95
109476.05
109476.14
109476.23
109476.31
109476.4
109476.47
109476.55
109476.62
109476.69
109476.76
109476.83
109476.89
109476.95
109477.01
109477.06
109477.12
109477.17
109477.22
109477.27
109477.31
109477.35
109477.4
109477.44
109477.47
109477.51
109477.55
109477.58
109477.61
109477.65
109477.68
109477.7
109477.73
109477.76
109477.78
109477.81
109477.83
109477.85
109477.87
109477.89
109477.91
109477.93
109477.95
109477.97
109477.98
109478
109478.02
109478.03
109478.04
109478.06
109478.07
109478.08
109478.09
109478.1
109478.12
109478.13
109478.14
109478.14
109478.15
109478.16
109478.17
109478.18
109478.19
109478.19
109478.2
109478.21
109478.21
109478.22
109478.22
109478.23
109478.23
109478.24
109478.24
109478.25
109478.25
109478.26
109478.26
109478.27
109478.27
109478.27
109478.28
109478.28
109478.28
109478.29
109478.29
109478.29
109478.29
109478.3
109478.3
109478.3
109478.3
109478.31
109478.31
109478.31
109478.31
109478.31
109478.31
109478.32
109478.32
109478.32
109478.32
109478.32
109478.32
109478.32
109478.33
109478.33
109478.33
109478.33
109478.33
109478.33
109478.33
109478.33
109478.33
109478.33
109478.33
109478.34
109478.34
109478.34
109478.34
109478.34
109478.34
109478.34
109478.34
109478.34
109478.34
109478.34
109478.34
109478.34
109478.34
109478.34
109478.34
109478.34
109478.34
109478.34
109478.34
109478.34
109478.34
109478.34
109478.34
109478.34
109478.34
109478.34
109478.34
109478.34
109478.34
109478.34
109478.34
109478.34
109478.34
109478.33
109478.33
109478.33
109478.33
109478.33
109478.33
109478.33
109478.33
109478.33
109478.33
109478.33
109478.33
109478.33
109478.33
109478.32
109478.32
109478.32
109478.32
109478.32
109478.32
109478.32
109478.32
109478.32
109478.32
109478.32
109478.31
109478.31
109478.31
109478.31
109478.31
109478.31
109478.31
109478.31
109478.31
109478.3
109478.3
109478.3
109478.3
109478.3
109478.3
109478.3
109478.3
109478.29
109478.29
109478.29
109478.29
109478.29
109478.29
109478.29
109478.29
109478.28
109478.28
109478.28
109478.28
109478.28
109478.28
109478.28
109478.27
109478.27
109478.27
109478.27
109478.27
109478.27
109478.27
109478.27
109478.26
109478.26
109478.26
109478.26
109478.26
109478.26
109478.26
109478.25
109478.25
109478.25
109478.25
109478.25
109478.25
109478.25
109478.24
109478.24
109478.24
109478.24
109478.24
109478.24
109478.24
109478.23
109478.23
109478.23
109478.23
109478.23
109478.23
109478.23
109478.22
109478.22
109478.22
109478.22
109478.22
109478.22
109478.22
109478.22
109478.21
109478.21
109478.21
109478.21
109478.21
109478.21
109478.21
109478.2
109478.2
109478.2
109478.2
109478.2
109478.2
109478.2
109478.2
109478.2
109478.19
109478.19
109478.19
109478.19
109478.19
109478.19
109478.19
109478.19
109478.19
109478.19
109478.18
109478.18
109478.18
109478.18
109478.18
109478.18
109478.18
109478.18
109478.18
109478.18
109478.18
109478.18
109478.18
109478.17
109478.17
109478.17
109478.17
109478.17
109478.17
109478.17
109478.17
109478.17
109478.17
109478.17
109478.17
109478.17
109478.17
109478.17
109478.17
109478.17
109478.17
109478.17
109478.17
109478.17
109478.17
109478.17
109478.17
109478.17
109478.17
109478.17
109478.17
109478.17
109478.17
109478.17
109478.17
109478.17
109478.17
109478.17
109478.17
109478.17
109478.17
109478.17
109478.17
109478.17
109478.17
109478.17
109478.17
109478.17
109478.17
109478.17
109478.17
109478.17
109478.17
109478.17
109478.17
109478.17
109478.17
109478.17
109478.17
109478.17
109478.17
109478.17
109478.17
109478.17
109478.17
109478.17
109478.17
109478.18
109478.18
109478.18
109478.18
109478.18
109478.17
109478.17
109478.17
109478.17
109478.17
109478.17
109478.17
109478.17
109478.18
109478.18
109478.19
109478.19
109478.19
109478.19
109478.19
109478.18
109478.18
109478.17
109478.16
109478.16
109478.16
109478.16
109478.16
109478.17
109478.19
109478.2
109478.21
109478.22
109478.23
109478.22
109478.21
109478.19
109478.17
109478.14
109478.12
109478.1
109478.09
109478.09
109478.11
109478.16
109478.26
109478.47
109477.96
109478.13
109478.19
109478.22
109478.23
109478.24
109478.23
109478.22
109478.21
109478.2
109478.18
109478.17
109478.16
109478.16
109478.16
109478.16
109478.16
109478.17
109478.18
109478.18
109478.18
109478.19
109478.19
109478.18
109478.18
109478.18
109478.18
109478.17
109478.17
109478.17
109478.17
109478.17
109478.17
109478.17
109478.17
109478.17
109478.17
109478.17
109478.17
109478.17
109478.17
109478.17
109478.17
109478.17
109478.17
109478.17
109478.16
109478.16
109478.16
109478.16
109478.16
109478.16
109478.16
109478.16
109478.16
109478.16
109478.16
109478.16
109478.16
109478.16
109478.16
109478.16
109478.16
109478.15
109478.15
109478.15
109478.15
109478.15
109478.15
109478.15
109478.15
109478.15
109478.15
109478.15
109478.15
109478.15
109478.15
109478.14
109478.14
109478.14
109478.14
109478.14
109478.14
109478.14
109478.14
109478.14
109478.14
109478.13
109478.13
109478.13
109478.13
109478.13
109478.13
109478.13
109478.13
109478.12
109478.12
109478.12
109478.12
109478.12
109478.12
109478.12
109478.11
109478.11
109478.11
109478.11
109478.11
109478.11
109478.1
109478.1
109478.1
109478.1
109478.1
109478.1
109478.09
109478.09
109478.09
109478.09
109478.09
109478.08
109478.08
109478.08
109478.08
109478.08
109478.08
109478.07
109478.07
109478.07
109478.07
109478.07
109478.06
109478.06
109478.06
109478.06
109478.06
109478.05
109478.05
109478.05
109478.05
109478.05
109478.04
109478.04
109478.04
109478.04
109478.04
109478.03
109478.03
109478.03
109478.03
109478.03
109478.02
109478.02
109478.02
109478.02
109478.02
109478.01
109478.01
109478.01
109478.01
109478.01
109478
109478
109478
109478
109477.99
109477.99
109477.99
109477.99
109477.98
109477.98
109477.98
109477.98
109477.97
109477.97
109477.97
109477.96
109477.96
109477.96
109477.95
109477.95
109477.94
109477.94
109477.93
109477.93
109477.92
109477.92
109477.91
109477.9
109477.9
109477.89
109477.88
109477.87
109477.87
109477.86
109477.85
109477.84
109477.83
109477.81
109477.8
109477.79
109477.77
109477.76
109477.74
109477.73
109477.71
109477.69
109477.67
109477.65
109477.63
109477.61
109477.58
109477.56
109477.53
109477.5
109477.48
109477.44
109477.41
109477.38
109477.34
109477.3
109477.26
109477.22
109477.18
109477.13
109477.08
109477.03
109476.97
109476.92
109476.86
109476.8
109476.73
109476.66
109476.59
109476.52
109476.44
109476.36
109476.28
109476.19
109476.09
109476
109475.9
109475.79
109475.68
109475.57
109475.45
109475.32
109475.19
109475.06
109474.92
109474.77
109474.62
109474.46
109474.29
109474.12
109473.94
109473.76
109473.57
109473.37
109473.16
109472.94
109472.72
109472.49
109472.25
109472
109471.74
109471.47
109471.19
109470.9
109470.6
109470.29
109469.97
109469.64
109469.29
109468.94
109468.57
109468.19
109467.8
109467.39
109466.97
109466.53
109466.08
109465.62
109465.14
109464.65
109464.13
109463.61
109463.06
109462.5
109461.92
109461.33
109460.71
109460.07
109459.42
109458.75
109458.05
109457.34
109456.6
109455.84
109455.06
109454.26
109453.43
109452.58
109451.71
109450.81
109449.89
109448.94
109447.96
109446.96
109445.93
109444.87
109443.79
109442.67
109441.53
109440.35
109439.15
109437.91
109436.65
109435.35
109434.01
109432.65
109431.25
109429.81
109428.35
109426.84
109425.3
109423.72
109422.11
109420.46
109418.77
109417.04
109415.27
109413.46
109411.62
109409.73
109407.79
109405.82
109403.81
109401.75
109399.64