/*--------------------------------*- C++ -*----------------------------------*\
  =========                 |
  \\      /  F ield         | OpenFOAM: The Open Source CFD Toolbox
   \\    /   O peration     | Website:  https://openfoam.org
    \\  /    A nd           | Version:  7
     \\/     M anipulation  |
\*---------------------------------------------------------------------------*/
FoamFile
{
    version     2.0;
    format      ascii;
    class       volScalarField;
    location    "0.00243";
    object      T;
}
// * * * * * * * * * * * * * * * * * * * * * * * * * * * * * * * * * * * * * //

dimensions      [0 0 0 1 0 0 0];

internalField   nonuniform List<scalar> 
5000
(
253.81902
253.83344
253.83998
253.85148
253.85822
253.86965
253.8764
253.88785
253.89459
253.90604
253.91279
253.92424
253.93099
253.94244
253.94918
253.96064
253.96738
253.97884
253.98557
253.99702
254.00375
254.0152
254.02192
254.03337
254.04008
254.05154
254.05825
254.06971
254.07643
254.08789
254.09461
254.10608
254.11279
254.12426
254.13098
254.14244
254.14915
254.16062
254.16732
254.17879
254.18548
254.19695
254.20364
254.2151
254.22179
254.23325
254.23993
254.25139
254.25806
254.26953
254.27619
254.28765
254.29431
254.30577
254.31243
254.32389
254.33054
254.342
254.34864
254.3601
254.36673
254.37819
254.38482
254.39628
254.4029
254.41436
254.42098
254.43244
254.43905
254.4505
254.45711
254.46856
254.47516
254.48662
254.49321
254.50467
254.51126
254.52271
254.52929
254.54074
254.54732
254.55877
254.56534
254.57679
254.58336
254.59481
254.60137
254.61282
254.61937
254.63082
254.63736
254.64881
254.65535
254.6668
254.67334
254.68479
254.69131
254.70276
254.70928
254.72073
254.72725
254.73869
254.7452
254.75665
254.76315
254.7746
254.7811
254.79254
254.79904
254.81048
254.81697
254.82841
254.83489
254.84633
254.85281
254.86425
254.87072
254.88216
254.88863
254.90007
254.90652
254.91797
254.92442
254.93586
254.9423
254.95375
254.96018
254.97163
254.97805
254.9895
254.99592
255.00736
255.01378
255.02522
255.03164
255.04308
255.04948
255.06092
255.06732
255.07877
255.08516
255.0966
255.10299
255.11443
255.12081
255.13225
255.13862
255.15006
255.15643
255.16787
255.17424
255.18568
255.19203
255.20347
255.20982
255.22126
255.22761
255.23905
255.24538
255.25682
255.26315
255.27459
255.28091
255.29235
255.29867
255.3101
255.31641
255.32785
255.33415
255.34559
255.35189
255.36333
255.36962
255.38106
255.38734
255.39878
255.40506
255.41651
255.42278
255.43423
255.4405
255.45195
255.45822
255.46967
255.47593
255.48739
255.49364
255.5051
255.51135
255.52281
255.52906
255.54051
255.54676
255.55821
255.56445
255.57591
255.58214
255.5936
255.59982
255.61129
255.6175
255.62896
255.63518
255.64663
255.65284
255.6643
255.67049
255.68197
255.68813
255.69962
255.70578
255.71726
255.72344
255.73488
255.74109
255.7525
255.75872
255.77015
255.77631
255.78782
255.79388
255.80548
255.81146
255.82309
255.82909
255.84062
255.8468
255.85808
255.86457
255.87546
255.88238
255.89281
255.9002
255.91016
255.91799
255.92754
255.93574
255.94495
255.95343
255.9624
255.97107
255.97988
255.98868
255.99739
256.00625
256.01492
256.0238
256.03244
256.04134
256.04997
256.05887
256.0675
256.07639
256.08502
256.0939
256.10253
256.11141
256.12004
256.12891
256.13754
256.14641
256.15503
256.1639
256.17252
256.18138
256.19
256.19886
256.20748
256.21634
256.22495
256.23381
256.24241
256.25127
256.25987
256.26873
256.27732
256.28618
256.29477
256.30361
256.31222
256.32104
256.32967
256.33846
256.34711
256.35587
256.36455
256.37328
256.38197
256.39068
256.39939
256.40808
256.4168
256.42548
256.43421
256.44287
256.4516
256.46026
256.46899
256.47764
256.48638
256.49502
256.50375
256.51239
256.52112
256.52975
256.53848
256.54711
256.55584
256.56447
256.57319
256.58181
256.59054
256.59916
256.60788
256.61649
256.62521
256.63383
256.64254
256.65116
256.65987
256.66848
256.67719
256.6858
256.69451
256.70312
256.71183
256.72044
256.72914
256.73775
256.74645
256.75505
256.76376
256.77236
256.78106
256.78966
256.79836
256.80696
256.81566
256.82425
256.83295
256.84154
256.85023
256.85882
256.86752
256.8761
256.88479
256.89338
256.90206
256.91065
256.91933
256.92791
256.93659
256.94517
256.95385
256.96242
256.9711
256.97967
256.98834
256.99691
257.00558
257.01415
257.02281
257.03138
257.04004
257.0486
257.05726
257.06582
257.07448
257.08303
257.09169
257.10024
257.10889
257.11744
257.12609
257.13464
257.14329
257.15183
257.16047
257.16902
257.17766
257.1862
257.19483
257.20337
257.21201
257.22054
257.22917
257.2377
257.24633
257.25486
257.26349
257.27201
257.28064
257.28916
257.29778
257.3063
257.31492
257.32343
257.33205
257.34056
257.34918
257.35768
257.3663
257.3748
257.38341
257.39191
257.40052
257.40902
257.41763
257.42612
257.43473
257.44322
257.45182
257.46031
257.46891
257.47739
257.48599
257.49447
257.50307
257.51155
257.52014
257.52861
257.5372
257.54568
257.55426
257.56273
257.57132
257.57978
257.58837
257.59683
257.60541
257.61387
257.62245
257.6309
257.63948
257.64793
257.65651
257.66496
257.67352
257.68198
257.69054
257.699
257.70754
257.71601
257.72454
257.73301
257.74154
257.75001
257.75853
257.767
257.77551
257.78399
257.79249
257.80097
257.80946
257.81795
257.82643
257.83492
257.8434
257.85188
257.86036
257.86884
257.87732
257.88579
257.89427
257.90274
257.91121
257.91969
257.92816
257.93663
257.9451
257.95356
257.96203
257.9705
257.97896
257.98743
257.99589
258.00435
258.01282
258.02128
258.02974
258.0382
258.04665
258.05511
258.06357
258.07202
258.08048
258.08893
258.09738
258.10583
258.11429
258.12274
258.13118
258.13963
258.14808
258.15652
258.16497
258.17341
258.18185
258.19029
258.19873
258.20717
258.21561
258.22404
258.23248
258.24091
258.24934
258.25777
258.2662
258.27463
258.28306
258.29148
258.29991
258.30833
258.31675
258.32517
258.33359
258.34201
258.35042
258.35884
258.36725
258.37566
258.38408
258.39249
258.40089
258.4093
258.41771
258.42611
258.43451
258.44292
258.45132
258.45972
258.46811
258.47651
258.48491
258.4933
258.50169
258.51008
258.51847
258.52686
258.53525
258.54364
258.55202
258.5604
258.56879
258.57717
258.58555
258.59392
258.6023
258.61068
258.61905
258.62742
258.6358
258.64417
258.65254
258.6609
258.66927
258.67763
258.686
258.69436
258.70272
258.71108
258.71944
258.7278
258.73615
258.74451
258.75286
258.76121
258.76956
258.77791
258.78626
258.79461
258.80295
258.8113
258.81964
258.82798
258.83632
258.84466
258.853
258.86134
258.86967
258.878
258.88634
258.89467
258.903
258.91133
258.91965
258.92798
258.9363
258.94463
258.95295
258.96127
258.96959
258.9779
258.98622
258.99454
259.00285
259.01116
259.01947
259.02778
259.03609
259.0444
259.0527
259.06101
259.06931
259.07761
259.08591
259.09421
259.10251
259.11081
259.1191
259.1274
259.13569
259.14398
259.15227
259.16056
259.16885
259.17714
259.18542
259.19371
259.20199
259.21027
259.21856
259.22684
259.23511
259.24339
259.25167
259.25995
259.26822
259.27649
259.28477
259.29304
259.30131
259.30958
259.31785
259.32611
259.33438
259.34265
259.35091
259.35917
259.36744
259.3757
259.38396
259.39221
259.40047
259.40873
259.41698
259.42523
259.43349
259.44174
259.44999
259.45823
259.46648
259.47472
259.48297
259.49121
259.49945
259.50769
259.51593
259.52416
259.53239
259.54063
259.54886
259.55708
259.56531
259.57354
259.58176
259.58998
259.5982
259.60642
259.61463
259.62284
259.63106
259.63927
259.64747
259.65568
259.66388
259.67208
259.68028
259.68847
259.69667
259.70486
259.71305
259.72123
259.72942
259.7376
259.74578
259.75395
259.76213
259.7703
259.77847
259.78663
259.79479
259.80296
259.81111
259.81927
259.82742
259.83556
259.84371
259.85185
259.85999
259.86812
259.87625
259.88438
259.89251
259.90063
259.90874
259.91686
259.92497
259.93307
259.94117
259.94927
259.95737
259.96546
259.97354
259.98162
259.9897
259.99777
260.00584
260.0139
260.02196
260.03001
260.03806
260.0461
260.05414
260.06217
260.0702
260.07822
260.08624
260.09425
260.10225
260.11025
260.11824
260.12623
260.13421
260.14219
260.15015
260.15811
260.16607
260.17402
260.18196
260.18989
260.19782
260.20574
260.21365
260.22155
260.22945
260.23733
260.24521
260.25309
260.26095
260.2688
260.27665
260.28449
260.29232
260.30013
260.30794
260.31574
260.32354
260.33132
260.33909
260.34685
260.3546
260.36234
260.37007
260.37779
260.3855
260.39319
260.40088
260.40856
260.41622
260.42387
260.43151
260.43914
260.44675
260.45435
260.46194
260.46952
260.47708
260.48464
260.49217
260.4997
260.50721
260.5147
260.52219
260.52966
260.53711
260.54455
260.55197
260.55938
260.56678
260.57416
260.58152
260.58887
260.5962
260.60351
260.61081
260.61809
260.62536
260.63261
260.63984
260.64705
260.65425
260.66143
260.66859
260.67573
260.68285
260.68995
260.69704
260.70411
260.71115
260.71818
260.72519
260.73218
260.73914
260.74609
260.75302
260.75992
260.76681
260.77367
260.78051
260.78733
260.79413
260.80091
260.80767
260.8144
260.82111
260.8278
260.83446
260.8411
260.84772
260.85431
260.86089
260.86743
260.87396
260.88046
260.88693
260.89338
260.89981
260.90621
260.91259
260.91894
260.92527
260.93157
260.93785
260.9441
260.95032
260.95652
260.9627
260.96884
260.97496
260.98106
260.98713
260.99317
260.99919
261.00518
261.01114
261.01708
261.02299
261.02887
261.03472
261.04055
261.04635
261.05213
261.05788
261.0636
261.06929
261.07495
261.08059
261.0862
261.09178
261.09734
261.10286
261.10836
261.11383
261.11927
261.12469
261.13008
261.13544
261.14077
261.14607
261.15135
261.1566
261.16182
261.16702
261.17218
261.17732
261.18243
261.18752
261.19257
261.1976
261.2026
261.20757
261.21252
261.21743
261.22232
261.22718
261.23202
261.23683
261.24161
261.24636
261.25108
261.25578
261.26045
261.2651
261.26972
261.27431
261.27887
261.28341
261.28792
261.29241
261.29687
261.3013
261.30571
261.31009
261.31445
261.31878
261.32309
261.32737
261.33162
261.33585
261.34006
261.34424
261.34839
261.35252
261.35663
261.36071
261.36477
261.36881
261.37282
261.3768
261.38077
261.38471
261.38862
261.39252
261.39639
261.40024
261.40406
261.40786
261.41165
261.4154
261.41914
261.42286
261.42655
261.43022
261.43387
261.4375
261.44111
261.4447
261.44827
261.45181
261.45534
261.45885
261.46233
261.4658
261.46925
261.47268
261.47609
261.47948
261.48285
261.4862
261.48954
261.49285
261.49615
261.49943
261.50269
261.50593
261.50916
261.51237
261.51556
261.51873
261.52189
261.52503
261.52815
261.53126
261.53435
261.53742
261.54048
261.54352
261.54656
261.54956
261.55256
261.55554
261.55851
261.56146
261.5644
261.56733
261.57023
261.57313
261.57601
261.57887
261.58173
261.58457
261.58739
261.59021
261.59301
261.59579
261.59857
261.60133
261.60408
261.60682
261.60954
261.61225
261.61495
261.61764
261.62032
261.62299
261.62564
261.62829
261.63092
261.63354
261.63615
261.63875
261.64135
261.64393
261.6465
261.64906
261.65161
261.65415
261.65668
261.6592
261.66171
261.66422
261.66671
261.66919
261.67167
261.67414
261.6766
261.67905
261.68149
261.68392
261.68635
261.68877
261.69117
261.69358
261.69597
261.69836
261.70074
261.70311
261.70548
261.70783
261.71018
261.71253
261.71486
261.71719
261.71952
261.72183
261.72414
261.72645
261.72875
261.73104
261.73332
261.7356
261.73788
261.74014
261.74241
261.74466
261.74691
261.74916
261.7514
261.75363
261.75586
261.75808
261.7603
261.76251
261.76472
261.76692
261.76912
261.77132
261.77351
261.77569
261.77787
261.78005
261.78222
261.78438
261.78655
261.7887
261.79086
261.79301
261.79515
261.7973
261.79943
261.80157
261.8037
261.80582
261.80795
261.81006
261.81218
261.81429
261.8164
261.81851
261.82061
261.8227
261.8248
261.82689
261.82897
261.83106
261.83314
261.83521
261.83729
261.83936
261.84143
261.8435
261.84556
261.84762
261.84968
261.85173
261.85379
261.85583
261.85788
261.85992
261.86197
261.864
261.86604
261.86807
261.8701
261.87213
261.87416
261.87618
261.87819
261.88021
261.88223
261.88424
261.88625
261.88826
261.89027
261.89227
261.89427
261.89627
261.89827
261.90025
261.90225
261.90423
261.90622
261.9082
261.91019
261.91216
261.91414
261.91611
261.91809
261.92005
261.92203
261.92399
261.92595
261.92791
261.92987
261.93182
261.93377
261.93572
261.93766
261.93961
261.94154
261.94348
261.94541
261.94735
261.94928
261.95121
261.95313
261.95505
261.95697
261.95889
261.96079
261.96271
261.96461
261.96652
261.96842
261.97032
261.97221
261.9741
261.97599
261.97788
261.97976
261.98164
261.98352
261.98539
261.98726
261.98913
261.99099
261.99285
261.99471
261.99656
261.99841
262.00025
262.0021
262.00394
262.00577
262.0076
262.00943
262.01126
262.01308
262.01489
262.01671
262.01852
262.02032
262.02212
262.02392
262.02572
262.0275
262.02929
262.03107
262.03285
262.03462
262.0364
262.03816
262.03992
262.04167
262.04343
262.04517
262.04692
262.04865
262.05039
262.05212
262.05384
262.05556
262.05728
262.05899
262.0607
262.0624
262.06409
262.06579
262.06747
262.06915
262.07083
262.0725
262.07417
262.07583
262.07749
262.07914
262.08079
262.08243
262.08407
262.0857
262.08733
262.08894
262.09056
262.09217
262.09377
262.09537
262.09697
262.09856
262.10014
262.10172
262.10329
262.10486
262.10642
262.10797
262.10952
262.11107
262.11261
262.11414
262.11567
262.11718
262.1187
262.12021
262.12172
262.12321
262.12471
262.12619
262.12767
262.12915
262.13061
262.13208
262.13353
262.13499
262.13643
262.13787
262.1393
262.14073
262.14215
262.14357
262.14498
262.14638
262.14778
262.14917
262.15055
262.15193
262.15331
262.15467
262.15604
262.15739
262.15874
262.16008
262.16142
262.16275
262.16408
262.1654
262.16671
262.16802
262.16932
262.17062
262.17191
262.17319
262.17447
262.17575
262.17701
262.17827
262.17953
262.18078
262.18202
262.18326
262.1845
262.18572
262.18695
262.18816
262.18937
262.19058
262.19178
262.19297
262.19416
262.19535
262.19652
262.1977
262.19886
262.20003
262.20118
262.20234
262.20348
262.20462
262.20576
262.20689
262.20802
262.20914
262.21026
262.21137
262.21247
262.21358
262.21467
262.21576
262.21685
262.21793
262.21901
262.22008
262.22115
262.22222
262.22328
262.22433
262.22538
262.22643
262.22747
262.2285
262.22954
262.23056
262.23159
262.23261
262.23362
262.23464
262.23564
262.23665
262.23764
262.23864
262.23963
262.24062
262.2416
262.24258
262.24356
262.24452
262.2455
262.24646
262.24742
262.24838
262.24932
262.25028
262.25122
262.25217
262.2531
262.25404
262.25497
262.2559
262.25683
262.25774
262.25867
262.25958
262.26049
262.2614
262.2623
262.26321
262.2641
262.26501
262.26589
262.26679
262.26767
262.26857
262.26944
262.27033
262.2712
262.27207
262.27294
262.27381
262.27468
262.27554
262.2764
262.27726
262.27811
262.27897
262.27981
262.28067
262.28151
262.28236
262.28319
262.28403
262.28487
262.2857
262.28654
262.28737
262.2882
262.28902
262.28985
262.29067
262.29149
262.2923
262.29312
262.29394
262.29475
262.29556
262.29637
262.29718
262.29798
262.29878
262.29959
262.30039
262.30119
262.30199
262.30278
262.30358
262.30437
262.30516
262.30595
262.30674
262.30753
262.30832
262.30911
262.30989
262.31068
262.31146
262.31224
262.31302
262.31381
262.31459
262.31537
262.31614
262.31692
262.3177
262.31848
262.31925
262.32003
262.3208
262.32158
262.32235
262.32313
262.3239
262.32467
262.32545
262.32622
262.327
262.32777
262.32855
262.32932
262.3301
262.33087
262.33165
262.33243
262.3332
262.33398
262.33476
262.33554
262.33632
262.3371
262.33788
262.33867
262.33945
262.34024
262.34102
262.34181
262.3426
262.34339
262.34418
262.34498
262.34577
262.34657
262.34737
262.34817
262.34897
262.34978
262.35058
262.35139
262.3522
262.35301
262.35383
262.35464
262.35546
262.35629
262.35711
262.35794
262.35877
262.3596
262.36043
262.36127
262.36211
262.36295
262.3638
262.36465
262.3655
262.36635
262.36721
262.36807
262.36894
262.3698
262.37068
262.37155
262.37243
262.37331
262.37419
262.37508
262.37597
262.37687
262.37777
262.37867
262.37957
262.38048
262.3814
262.38231
262.38323
262.38416
262.38509
262.38602
262.38696
262.3879
262.38884
262.38979
262.39074
262.3917
262.39266
262.39362
262.39459
262.39557
262.39654
262.39752
262.39851
262.3995
262.40049
262.40149
262.40249
262.4035
262.40451
262.40552
262.40654
262.40757
262.40859
262.40963
262.41066
262.4117
262.41275
262.4138
262.41485
262.41591
262.41697
262.41804
262.41911
262.42019
262.42126
262.42235
262.42343
262.42453
262.42562
262.42672
262.42782
262.42893
262.43004
262.43116
262.43228
262.43341
262.43453
262.43567
262.4368
262.43794
262.43909
262.44024
262.44139
262.44254
262.4437
262.44487
262.44603
262.4472
262.44838
262.44956
262.45074
262.45193
262.45312
262.45431
262.45551
262.4567
262.45791
262.45911
262.46032
262.46153
262.46275
262.46397
262.46519
262.46641
262.46764
262.46887
262.4701
262.47133
262.47257
262.47381
262.47505
262.4763
262.47755
262.4788
262.48006
262.48132
262.48258
262.48384
262.4851
262.48637
262.48763
262.4889
262.49018
262.49145
262.49272
262.494
262.49528
262.49656
262.49784
262.49912
262.50041
262.50169
262.50298
262.50427
262.50556
262.50686
262.50815
262.50944
262.51074
262.51204
262.51334
262.51464
262.51594
262.51724
262.51854
262.51984
262.52115
262.52245
262.52376
262.52506
262.52637
262.52768
262.52898
262.53029
262.5316
262.53291
262.53422
262.53553
262.53684
262.53815
262.53946
262.54077
262.54208
262.54339
262.5447
262.54601
262.54732
262.54863
262.54994
262.55125
262.55256
262.55387
262.55518
262.55649
262.5578
262.55911
262.56042
262.56173
262.56303
262.56434
262.56564
262.56695
262.56826
262.56956
262.57087
262.57217
262.57347
262.57478
262.57608
262.57738
262.57868
262.57998
262.58127
262.58257
262.58387
262.58516
262.58646
262.58775
262.58904
262.59033
262.59162
262.59291
262.5942
262.59549
262.59678
262.59806
262.59935
262.60063
262.60191
262.60319
262.60447
262.60575
262.60702
262.6083
262.60957
262.61085
262.61212
262.61339
262.61466
262.61593
262.6172
262.61847
262.61973
262.62099
262.62225
262.62351
262.62477
262.62603
262.62729
262.62854
262.6298
262.63105
262.63231
262.63356
262.6348
262.63605
262.6373
262.63854
262.63978
262.64102
262.64226
262.6435
262.64474
262.64597
262.64721
262.64844
262.64967
262.6509
262.65213
262.65336
262.65458
262.65581
262.65703
262.65825
262.65947
262.66068
262.6619
262.66311
262.66433
262.66554
262.66674
262.66795
262.66916
262.67036
262.67157
262.67277
262.67397
262.67517
262.67637
262.67756
262.67876
262.67995
262.68114
262.68233
262.68352
262.6847
262.68589
262.68707
262.68825
262.68943
262.69061
262.69178
262.69296
262.69413
262.69531
262.69647
262.69764
262.69881
262.69997
262.70114
262.7023
262.70346
262.70462
262.70577
262.70693
262.70808
262.70924
262.71039
262.71154
262.71268
262.71383
262.71497
262.71611
262.71725
262.71839
262.71953
262.72067
262.7218
262.72293
262.72406
262.72519
262.72632
262.72744
262.72857
262.72969
262.73081
262.73193
262.73304
262.73416
262.73527
262.73638
262.73749
262.7386
262.73971
262.74082
262.74192
262.74302
262.74412
262.74522
262.74631
262.74741
262.7485
262.74959
262.75068
262.75177
262.75285
262.75394
262.75502
262.7561
262.75718
262.75825
262.75933
262.7604
262.76148
262.76255
262.76361
262.76468
262.76575
262.76681
262.76787
262.76893
262.76999
262.77104
262.7721
262.77315
262.7742
262.77525
262.77629
262.77734
262.77838
262.77942
262.78046
262.7815
262.78254
262.78357
262.7846
262.78563
262.78666
262.78769
262.78871
262.78974
262.79076
262.79178
262.7928
262.79382
262.79483
262.79584
262.79686
262.79786
262.79887
262.79988
262.80088
262.80188
262.80288
262.80388
262.80488
262.80588
262.80687
262.80786
262.80885
262.80984
262.81083
262.81182
262.8128
262.81378
262.81476
262.81574
262.81672
262.81769
262.81867
262.81964
262.82061
262.82157
262.82254
262.8235
262.82447
262.82543
262.82639
262.82735
262.8283
262.82926
262.83021
262.83116
262.83211
262.83306
262.834
262.83494
262.83588
262.83682
262.83776
262.8387
262.83963
262.84057
262.8415
262.84243
262.84335
262.84428
262.8452
262.84613
262.84705
262.84797
262.84888
262.8498
262.85071
262.85163
262.85254
262.85345
262.85435
262.85526
262.85616
262.85706
262.85796
262.85886
262.85976
262.86065
262.86155
262.86244
262.86333
262.86422
262.8651
262.86598
262.86687
262.86775
262.86863
262.8695
262.87038
262.87125
262.87213
262.873
262.87386
262.87473
262.8756
262.87646
262.87732
262.87818
262.87904
262.87989
262.88075
262.8816
262.88245
262.8833
262.88415
262.88499
262.88584
262.88668
262.88752
262.88836
262.8892
262.89003
262.89086
262.8917
262.89253
262.89335
262.89418
262.89501
262.89583
262.89665
262.89747
262.89829
262.89911
262.89992
262.90073
262.90154
262.90235
262.90316
262.90397
262.90477
262.90557
262.90637
262.90717
262.90797
262.90876
262.90956
262.91035
262.91114
262.91193
262.91272
262.9135
262.91428
262.91507
262.91584
262.91662
262.9174
262.91817
262.91894
262.91971
262.92048
262.92125
262.92202
262.92278
262.92354
262.9243
262.92506
262.92582
262.92657
262.92733
262.92808
262.92883
262.92957
262.93032
262.93107
262.93181
262.93255
262.93329
262.93403
262.93476
262.9355
262.93623
262.93696
262.93769
262.93842
262.93915
262.93987
262.94059
262.94131
262.94203
262.94274
262.94346
262.94417
262.94488
262.94559
262.9463
262.94701
262.94771
262.94841
262.94911
262.94981
262.95051
262.9512
262.95189
262.95258
262.95327
262.95396
262.95465
262.95533
262.95602
262.9567
262.95738
262.95806
262.95874
262.95941
262.96008
262.96075
262.96142
262.96209
262.96275
262.96341
262.96407
262.96473
262.96539
262.96605
262.9667
262.96735
262.968
262.96865
262.96929
262.96994
262.97058
262.97122
262.97186
262.9725
262.97314
262.97377
262.9744
262.97504
262.97566
262.97629
262.97691
262.97754
262.97816
262.97878
262.97939
262.98001
262.98062
262.98123
262.98184
262.98245
262.98305
262.98366
262.98426
262.98487
262.98547
262.98606
262.98666
262.98726
262.98786
262.98844
262.98903
262.98962
262.9902
262.99079
262.99137
262.99195
262.99253
262.9931
262.99368
262.99425
262.99482
262.99539
262.99596
262.99653
262.99709
262.99766
262.99822
262.99878
262.99933
262.99989
263.00044
263.001
263.00155
263.00209
263.00264
263.00318
263.00373
263.00427
263.00481
263.00535
263.00588
263.00642
263.00695
263.00748
263.00801
263.00854
263.00907
263.0096
263.01012
263.01064
263.01116
263.01168
263.0122
263.01271
263.01322
263.01373
263.01424
263.01475
263.01525
263.01576
263.01626
263.01676
263.01726
263.01776
263.01825
263.01875
263.01924
263.01973
263.02022
263.02071
263.02119
263.02168
263.02216
263.02264
263.02312
263.02359
263.02407
263.02454
263.02502
263.02549
263.02595
263.02642
263.02689
263.02735
263.02781
263.02827
263.02873
263.02919
263.02964
263.0301
263.03055
263.031
263.03145
263.03189
263.03234
263.03278
263.03323
263.03367
263.03411
263.03454
263.03498
263.03541
263.03585
263.03628
263.0367
263.03713
263.03755
263.03798
263.0384
263.03881
263.03923
263.03965
263.04006
263.04048
263.04089
263.0413
263.04171
263.04211
263.04252
263.04293
263.04333
263.04373
263.04413
263.04453
263.04492
263.04532
263.04571
263.0461
263.04649
263.04687
263.04726
263.04764
263.04802
263.0484
263.04878
263.04915
263.04952
263.0499
263.05027
263.05064
263.05101
263.05137
263.05174
263.0521
263.05246
263.05282
263.05318
263.05354
263.05389
263.05425
263.0546
263.05495
263.0553
263.05564
263.05599
263.05633
263.05667
263.05701
263.05734
263.05768
263.05801
263.05834
263.05868
263.059
263.05933
263.05966
263.05998
263.06031
263.06063
263.06095
263.06127
263.06158
263.0619
263.06221
263.06252
263.06283
263.06314
263.06345
263.06375
263.06406
263.06436
263.06466
263.06495
263.06525
263.06555
263.06584
263.06613
263.06642
263.06671
263.067
263.06729
263.06757
263.06785
263.06813
263.06841
263.06869
263.06897
263.06924
263.06951
263.06979
263.07006
263.07033
263.07059
263.07086
263.07112
263.07139
263.07165
263.07191
263.07216
263.07242
263.07267
263.07293
263.07318
263.07343
263.07368
263.07393
263.07417
263.07442
263.07466
263.0749
263.07514
263.07538
263.07561
263.07585
263.07608
263.07632
263.07655
263.07678
263.07701
263.07723
263.07746
263.07769
263.07791
263.07813
263.07835
263.07857
263.07878
263.079
263.07921
263.07942
263.07963
263.07983
263.08004
263.08024
263.08044
263.08064
263.08084
263.08104
263.08124
263.08144
263.08163
263.08182
263.08201
263.0822
263.08239
263.08257
263.08275
263.08293
263.08311
263.08329
263.08347
263.08364
263.08382
263.08399
263.08416
263.08433
263.0845
263.08466
263.08482
263.08498
263.08514
263.0853
263.08545
263.08561
263.08576
263.08591
263.08605
263.0862
263.08635
263.08649
263.08663
263.08677
263.0869
263.08704
263.08717
263.0873
263.08743
263.08755
263.08768
263.0878
263.08792
263.08804
263.08816
263.08828
263.08839
263.0885
263.08861
263.08872
263.08883
263.08893
263.08903
263.08913
263.08923
263.08932
263.08941
263.08951
263.08959
263.08968
263.08977
263.08985
263.08993
263.09001
263.09009
263.09016
263.09024
263.09031
263.09038
263.09044
263.09051
263.09057
263.09063
263.09069
263.09075
263.0908
263.09086
263.09091
263.09095
263.091
263.09105
263.09109
263.09113
263.09117
263.0912
263.09124
263.09127
263.0913
263.09133
263.09136
263.09138
263.09141
263.09143
263.09145
263.09147
263.09148
263.0915
263.09151
263.09152
263.09152
263.09153
263.09153
263.09153
263.09153
263.09153
263.09152
263.09152
263.09151
263.0915
263.09149
263.09147
263.09146
263.09144
263.09142
263.0914
263.09138
263.09136
263.09133
263.0913
263.09127
263.09124
263.09121
263.09117
263.09113
263.09109
263.09105
263.09101
263.09096
263.09092
263.09087
263.09082
263.09076
263.09071
263.09066
263.0906
263.09054
263.09048
263.09042
263.09036
263.09029
263.09023
263.09016
263.09009
263.09002
263.08995
263.08988
263.08981
263.08973
263.08965
263.08957
263.08949
263.08941
263.08933
263.08925
263.08916
263.08907
263.08898
263.08889
263.0888
263.0887
263.0886
263.0885
263.0884
263.0883
263.0882
263.08809
263.08798
263.08788
263.08777
263.08766
263.08755
263.08743
263.08732
263.0872
263.08708
263.08697
263.08684
263.08672
263.0866
263.08647
263.08635
263.08622
263.08609
263.08596
263.08583
263.08569
263.08556
263.08543
263.08529
263.08515
263.08501
263.08487
263.08473
263.08458
263.08444
263.08429
263.08414
263.08399
263.08383
263.08368
263.08353
263.08337
263.08321
263.08305
263.08289
263.08272
263.08257
263.08239
263.08224
263.08205
263.0819
263.08172
263.08155
263.08137
263.08119
263.08102
263.08083
263.08066
263.08047
263.08028
263.08011
263.07991
263.07972
263.07953
263.07933
263.07915
263.07894
263.07875
263.07855
263.07835
263.07815
263.07795
263.07774
263.07755
263.07733
263.07713
263.07692
263.0767
263.07649
263.07628
263.07605
263.07584
263.07562
263.07539
263.07517
263.07495
263.07472
263.07449
263.07426
263.07402
263.07379
263.07355
263.07331
263.07307
263.07284
263.07259
263.07235
263.07211
263.07186
263.07161
263.07137
263.07111
263.07086
263.07061
263.07035
263.07009
263.06983
263.06957
263.06931
263.06904
263.06878
263.06851
263.06824
263.06797
263.06771
263.06743
263.06715
263.06688
263.0666
263.06632
263.06604
263.06577
263.06548
263.0652
263.06491
263.06463
263.06434
263.06405
263.06376
263.06347
263.06318
263.06288
263.06259
263.06229
263.06199
263.06169
263.0614
263.0611
263.0608
263.06049
263.06019
263.05988
263.05958
263.05926
263.05895
263.05865
263.05834
263.05802
263.05771
263.0574
263.05709
263.05677
263.05646
263.05614
263.05583
263.05551
263.05519
263.05487
263.05456
263.05424
263.05392
263.05359
263.05327
263.05295
263.05263
263.0523
263.05197
263.05164
263.05131
263.05098
263.05065
263.05031
263.04997
263.04963
263.0493
263.04897
263.04862
263.04828
263.04794
263.0476
263.04726
263.04691
263.04655
263.04619
263.04584
263.04549
263.04513
263.04476
263.04439
263.04402
263.04366
263.04329
263.0429
263.04249
263.04208
263.04167
263.04128
263.04087
263.04046
263.04003
263.03959
263.03916
263.03872
263.03829
263.03783
263.03736
263.03686
263.03637
263.03588
263.03541
263.03494
263.03446
263.03395
263.03342
263.03289
263.03237
263.03187
263.03137
263.03085
263.0303
263.02973
263.02917
263.02864
263.02816
263.0277
263.02725
263.02678
263.02629
263.02579
263.02531
263.02488
263.02449
263.02415
263.02381
263.02345
263.02306
263.02264
263.02222
263.02183
263.02149
263.02119
263.02093
263.02068
263.0204
263.02008
263.0197
263.01929
263.01886
263.01844
263.01806
263.0177
263.01738
263.01707
263.01675
263.01642
263.01602
263.01557
263.01503
263.01442
263.01374
263.01302
263.01229
263.0116
263.01098
263.01044
263.01002
263.00971
263.00951
263.0094
263.00934
263.00931
263.00931
263.00941
263.00984
263.01122
263.01533
263.02714
263.06084
263.15713
263.43319
264.04319
264.75675
265.52146
266.32262
267.14587
267.97704
268.80288
269.6114
270.39221
271.13661
271.83776
272.4906
273.09184
273.63976
274.13404
274.5756
274.96633
275.30893
275.60666
275.86317
276.08232
276.26803
276.42416
276.5544
276.66224
276.75086
276.82314
276.88165
276.92864
276.96607
276.99561
277.0187
277.03655
277.05017
277.06041
277.06798
277.07344
277.07726
277.07982
277.08144
277.08235
277.08278
277.08292
277.08292
277.08281
277.08235
277.08113
277.07973
277.0784
277.07713
277.0759
277.07472
277.07356
277.07244
277.07134
277.07026
277.0692
277.06816
277.06713
277.06612
277.06511
277.06411
277.06312
277.06212
277.06113
277.06014
277.05913
277.05813
277.05711
277.05608
277.05504
277.05399
277.05293
277.05185
277.05076
277.04965
277.04854
277.04741
277.04628
277.04513
277.04399
277.04283
277.04168
277.04052
277.03936
277.03821
277.03706
277.03591
277.03477
277.03364
277.03251
277.0314
277.03029
277.02919
277.0281
277.02702
277.02594
277.02488
277.02383
277.02279
277.02175
277.02073
277.01971
277.0187
277.01769
277.01669
277.0157
277.01471
277.01373
277.01275
277.01177
277.0108
277.00983
277.00886
277.00789
277.00693
277.00597
277.00501
277.00405
277.00309
277.00214
277.00118
277.00023
276.99928
276.99832
276.99737
276.99642
276.99547
276.99452
276.99357
276.99261
276.99166
276.99071
276.98976
276.9888
276.98785
276.9869
276.98594
276.98499
276.98403
276.98307
276.98212
276.98116
276.9802
276.97924
276.97828
276.97732
276.97636
276.9754
276.97444
276.97348
276.97252
276.97155
276.97059
276.96963
276.96866
276.96769
276.96673
276.96576
276.96479
276.96382
276.96284
276.96187
276.96089
276.95992
276.95894
276.95796
276.95698
276.956
276.95502
276.95404
276.95306
276.95207
276.95109
276.9501