/*--------------------------------*- C++ -*----------------------------------*\
| =========                 |                                                 |
| \\      /  F ield         | OpenFOAM: The Open Source CFD Toolbox           |
|  \\    /   O peration     | Version:  4.x                                   |
|   \\  /    A nd           | Web:      www.OpenFOAM.org                      |
|    \\/     M anipulation  |                                                 |
\*---------------------------------------------------------------------------*/
FoamFile
{
    version     2.0;
    format      ascii;
    class       volScalarField;
    location    "0.05";
    object      T;
}
// * * * * * * * * * * * * * * * * * * * * * * * * * * * * * * * * * * * * * //

dimensions      [0 0 0 1 0 0 0];

internalField   nonuniform List<scalar> 
6273
(
299.9998289
299.9995589
299.9996043
299.9995803
299.9994427
299.9992827
299.9995455
299.999448
299.9994495
299.9993142
299.9991061
299.999003
299.9996797
299.9996112
299.9995498
299.9994085
299.9992675
299.9992121
299.9998003
299.9996602
299.9995966
299.9995493
299.9995222
299.9995326
299.9997863
299.9995811
299.9996197
299.9997095
299.9998002
299.9999137
299.9996861
299.9995282
299.9996665
299.9998178
300.0000094
300.0001587
299.9994936
299.9992168
299.9992309
299.9991213
299.9989342
299.9988584
299.9992728
299.9991385
299.9990993
299.9989578
299.9988393
299.9988594
299.9994666
299.9993112
299.9992772
299.9992424
299.9992303
299.9992547
299.9995375
299.9993584
299.9994555
299.9996063
299.999695
299.9997685
299.9994518
299.9993645
299.9996283
299.999879
300.0000895
300.0002592
299.9993922
299.9994363
299.9996928
299.999963
300.0003096
300.0003992
299.9994458
299.999061
299.9991032
299.9991222
299.9991458
299.999234
299.999114
299.9988939
299.999001
299.9991274
299.9992527
299.9993597
299.99925
299.9990806
299.9992996
299.999564
299.9996957
299.9997037
299.9993192
299.9992559
299.9996321
299.9999504
300.0000457
300.0000516
299.999357
299.9994323
299.9998068
300.0000596
300.0002429
300.0003604
299.9994601
299.9995745
299.9997574
299.9999933
300.0002777
300.0003423
299.9993199
299.9988927
299.9990536
299.9992669
299.9994439
299.9995153
299.9989173
299.9987366
299.9990624
299.9994087
299.9995818
299.9995665
299.9990532
299.9989936
299.9994456
299.9998341
299.9999396
299.9998292
299.9991938
299.9992674
299.9997597
300.0000298
300.0000782
300.0000472
299.9993384
299.9994813
299.9998141
299.9999481
300.0001645
300.000352
299.9994977
299.9995432
299.9996279
299.9997642
300.0001043
300.000357
299.9992215
299.998909
299.9991943
299.9995007
299.9996257
299.9995561
299.998899
299.998866
299.9993225
299.999647
299.9996445
299.9994575
299.9990651
299.9991503
299.9996697
299.9999124
299.9998407
299.9996054
299.9992358
299.999373
299.9997686
299.999888
299.9998321
299.9998435
299.999382
299.9994338
299.9995589
299.9995746
299.9997559
299.999977
299.9995086
299.9993561
299.999257
299.999405
299.9997209
299.9998705
299.9992969
299.9991981
299.9995144
299.9997036
299.9996548
299.9994056
299.9991615
299.9992499
299.9995985
299.9997438
299.9995638
299.9992938
299.9993029
299.9993915
299.9997381
299.9998044
299.999605
299.9994305
299.9993696
299.9994406
299.999625
299.9996464
299.9995927
299.9997292
299.9994051
299.9993448
299.9992768
299.9993115
299.9995216
299.9997052
299.9993978
299.9991513
299.999041
299.9992803
299.9995792
299.9994712
299.999633
299.9995559
299.9996724
299.9998196
300.000033
300.0000489
299.9996692
299.9995823
299.9996077
299.999774
299.9998761
299.9996575
299.9996993
299.9995106
299.9995493
299.9997353
299.9997027
299.9994682
299.9996347
299.9993854
299.9996373
299.9997513
299.9995362
299.99934
299.9995297
299.9994223
299.9998751
300.0000906
299.9998229
299.9997603
299.999521
299.9997374
300.0001824
300.0001848
299.9998751
299.9999886
299.9996238
299.9998185
300.0002631
300.0003495
300.0002588
300.0003569
299.9998857
300.0000091
300.0002274
300.0004512
300.000363
300.00041
299.9997844
299.9998973
300.0000426
300.0003664
300.0003491
300.0003955
299.9997989
299.9997826
300.000084
300.0003161
300.0003118
300.000315
299.9998886
299.9998467
299.999962
300.0001908
300.0003027
300.0004305
299.9998461
299.9998006
299.9995243
299.9998169
299.9998969
300.0000398
299.9994604
299.9995032
299.9996108
299.9999135
300.0001763
300.0001048
299.9995494
299.9994455
299.9995204
299.9997286
299.999705
299.9997099
299.9994937
299.9992932
299.9995435
299.9995855
299.9994051
299.9993329
299.9993467
299.9993266
299.9997846
299.9998969
299.9995657
299.9999443
299.9992398
299.9995438
300.0000324
299.9999456
299.9995286
299.9998279
299.9992243
299.9995613
300.0000919
300.0000932
299.9999644
300.0001967
299.9997391
300.000076
300.0003432
300.0003193
300.0002512
300.0003213
299.99965
299.9997873
300.0001207
300.0003006
300.0003111
300.0004332
299.9996957
299.9996516
300.0001563
300.0004415
300.0005953
300.0009985
299.999755
299.9996693
300.0000211
300.0002433
300.0004834
300.0006148
299.9996933
299.9995145
299.9995248
299.9997007
300.0000774
299.999952
299.9997526
299.9994477
299.999526
299.9996844
299.9997853
299.9997637
299.9996159
299.9995753
299.9996276
299.9999034
300.0001844
300.0003312
299.9996354
299.9993974
299.9995778
299.9996681
299.9998371
300.0001762
299.9994132
299.9991873
299.9994728
299.9995619
299.9995173
300.000144
299.9991489
299.9991855
299.9995145
299.9998137
299.9996223
300.0000817
299.9991212
299.9993617
299.9998648
299.9998475
299.9997558
299.9999765
299.9994939
299.9997574
300.0003074
300.0002141
300.0000572
300.0001279
299.9995951
299.9997923
300.0001748
300.0000193
300.0000653
300.0006858
299.9997028
299.9996514
300.0002059
300.0001048
300.0003135
300.0011476
299.9997492
299.9995011
300.0000103
299.9998499
300.00033
300.0009215
299.9995076
299.9994024
299.9997025
299.9997428
300.0002969
300.0002875
299.9995263
299.9993922
299.9994701
299.9995546
299.9999941
299.9999449
299.9994719
299.9989497
299.9992592
299.999647
300.000062
300.0001256
299.999593
299.9993933
299.9994394
299.9996069
299.9999613
300.0003453
299.9994973
299.9991652
299.9993472
299.9995262
299.9997649
300.000279
299.9992248
299.9991157
299.9994289
299.999737
299.9996849
300.0004401
299.9990869
299.9993018
299.9998082
300.0000354
299.9998934
300.0004819
299.9992289
299.9996528
300.0003164
300.0002242
299.9998813
299.9999953
299.9994899
299.9998726
300.000403
300.0001247
299.9997682
300.0000605
299.9997628
299.9999048
300.0003259
299.9999926
299.9999784
300.0011648
299.9998188
299.9997426
300.0001378
299.99985
300.0002215
300.0015485
299.9995137
299.9995413
299.9997663
299.9996471
300.0003453
300.0010171
299.9992386
299.9992798
299.9992748
299.9994093
300.0000947
300.0000423
299.9992307
299.998976
299.9991412
299.9993913
299.9999633
300.0000046
299.9992796
299.9987697
299.9990222
299.999425
299.9999838
300.0000728
299.9995221
299.9992367
299.9992111
299.9994878
299.9996599
299.999531
299.9992803
299.9990482
299.9991854
299.9995045
299.9995457
299.9997184
299.9990068
299.999008
299.99941
299.9998706
299.9998183
300.0005128
299.9989726
299.9992353
299.9998669
300.0000758
299.9998344
300.0003079
299.9992546
299.9995446
300.0001072
300.000095
299.9997422
300.0000149
299.9997708
299.9999382
300.0002281
300.0000803
299.9996984
300.0003268
299.9999526
299.9998777
299.9999834
299.9998478
299.9999218
300.0013898
299.9997682
299.9995854
299.9996605
299.9995986
300.0000622
300.0011424
299.9993736
299.9992541
299.999307
299.9995077
300.0001457
300.0005171
299.9992899
299.9990533
299.9990692
299.9994098
299.9998359
299.9997638
299.9993946
299.9988538
299.9988787
299.9992991
299.9995674
299.9998486
299.9993959
299.9989427
299.9991388
299.9996313
299.9997429
300.0002319
299.9992664
299.9989544
299.9990241
299.9993673
299.9995108
299.9991274
299.9990631
299.9988245
299.9991916
299.9994743
299.9995366
299.9998172
299.9989807
299.9988762
299.9995158
299.9997327
299.9996958
300.0002749
299.999082
299.999171
299.9998639
299.9999146
299.9996561
300.0000273
299.9994818
299.9996007
300.0000209
299.9999575
299.9995887
299.9999843
299.9998385
299.9997474
299.9998379
299.9997829
299.9995903
300.0005875
299.999927
299.9995311
299.9995846
299.999613
299.9998617
300.0015269
299.9998052
299.9992845
299.9993941
299.999523
299.9999813
300.0010848
299.9995777
299.9991448
299.9991562
299.999503
299.9998333
300.0002377
299.9996264
299.9991583
299.999106
299.9994614
299.9994837
299.9995254
299.999777
299.9992705
299.9992555
299.9995788
299.9994461
299.999546
299.9996816
299.9993789
299.9995613
299.999777
299.9996613
300.000112
299.9998899
299.9996585
299.9995089
299.9997485
299.9998093
299.9997691
299.9998251
299.9992662
299.9994313
299.9995782
299.9997903
299.9997339
299.9997357
299.9994245
299.999385
299.9997426
300.0000312
300.0001556
299.9995728
299.9996012
299.9995315
299.9999674
299.9997132
299.9994891
299.9998091
299.9996075
299.9996944
299.9998044
299.9996267
299.999281
299.9999029
299.9996614
299.9997972
299.9997039
299.9996329
299.9996365
299.9996091
299.9989408
299.9990728
299.9995137
299.9996985
299.9997734
299.9996204
299.9990147
299.9990638
299.999507
299.9997425
299.9997226
299.9992881
299.9988896
299.9990189
299.9994455
299.999439
299.9995382
299.9993217
299.9989017
299.9993747
299.9996428
299.999214
299.9990166
299.9995464
299.9988862
299.9991757
299.999174
299.9991372
299.9990884
299.9993453
299.9988762
299.9989404
299.9991127
299.999368
299.9994743
299.9995081
299.9988491
299.999183
299.9994979
300.0000823
300.0002304
299.9991906
299.9987412
299.9990764
299.9994104
300.0000008
300.0001507
299.9990309
299.9986421
299.9991824
299.9994974
299.9995989
299.9998502
299.9991728
299.9984464
299.9989277
299.9991076
299.9992652
299.9992398
299.998974
299.9982318
299.9986964
299.9987532
299.9990413
299.9992804
299.9986961
299.9985836
299.9988338
299.9991229
299.9994342
299.9997252
299.9992053
299.9988789
299.9991762
299.999554
300.0001156
300.0003907
299.9991473
299.99894
299.9993071
299.9994599
299.9999086
300.0003789
299.9992606
299.9989127
299.9994148
299.9995426
299.9997824
300.000016
299.9992151
299.9987386
299.9989972
299.9989904
299.9994008
299.9995641
299.9988747
299.9984337
299.9986845
299.9990388
299.9994819
299.9996359
299.998812
299.9988502
299.9989943
299.9994391
299.999728
300.0001663
299.9993263
299.9991819
299.9995223
299.9997819
299.9998438
300.0003556
299.9993771
299.9993614
299.9997765
299.9996569
299.9997388
300.0001397
299.9994732
299.9994139
299.9995406
299.9993439
299.9996299
299.9997866
299.999388
299.9992643
299.9992375
299.9993114
299.9997659
299.999828
299.9992887
299.9991498
299.9992115
299.9996889
299.9999838
300.000137
299.9991691
299.9990825
299.9990985
299.9995373
299.9998335
300.0003311
299.9995161
299.9994074
299.9998186
299.9997282
299.9997681
300.0000551
299.9996619
299.9995505
299.9998174
299.9993878
299.999426
299.9996281
299.999867
299.9997755
299.9995774
299.9992925
299.9993883
299.999337
299.9998414
299.9997397
299.9994111
299.9995248
299.9997136
299.9996657
299.9995553
299.9994359
299.9991569
299.9995352
299.999647
299.9999397
299.9993829
299.9991852
299.999173
299.9994978
299.999691
300.0001149
299.9992397
299.9993448
299.9995078
299.9996172
299.9997071
299.9999053
300.0002608
300.0002826
299.9999026
299.9993637
299.9992609
299.9996382
299.9990641
299.9992443
299.9994321
299.9995873
299.9998547
300.0001365
300.000256
299.999943
299.9994484
299.9991886
299.9993822
299.9996906
299.9992673
299.9994231
299.9996352
299.9997643
299.9999033
300.0000135
300.000127
299.9999963
299.9997456
299.9995961
299.9996846
299.9998267
299.9996155
299.9997231
299.9998802
299.9999138
300.0000232
300.0000907
300.0002025
300.0003123
300.0002373
300.0001042
300.0001218
300.000075
299.9999679
299.999909
299.9999604
299.9999203
299.9998808
299.999977
300.0002383
300.0004406
300.0002725
300.0000226
299.9998291
299.999911
299.9999516
299.9996633
299.9998133
299.9997453
299.9997751
299.9999607
300.0003779
300.0005216
300.0000705
300.0000348
299.9996031
299.9999738
299.9989756
299.999218
299.9994184
299.9995824
299.999734
300.0000448
300.000323
300.0000633
299.9994116
299.9989622
299.9993219
299.9999123
299.9990296
299.9992671
299.9994411
299.9996611
299.9997794
300.0000202
300.0000746
299.9997056
299.9992156
299.9991153
299.999545
299.9998446
299.999374
299.9995712
299.9996595
299.9997453
299.9997791
299.9999951
300.0001051
300.0000497
299.9998118
299.9996973
299.9998745
300.0001439
299.9998654
299.9999096
299.9999844
299.9998169
299.9997218
299.999993
300.0002929
300.0003693
300.000066
299.9999494
299.9998054
299.9998213
300.0002124
299.9999365
299.9998898
299.999842
299.9998875
300.0001444
300.000537
300.0006357
300.000129
299.9997133
299.999786
299.9994799
300.0002284
299.9997406
299.9997334
299.999757
300.0000209
300.0001827
300.0010769
300.0011453
300.0003752
299.9996181
300.0000716
299.9997448
299.999387
299.9995219
299.9995527
299.9994562
299.9995334
299.9998604
300.0000386
299.9998893
299.9994667
299.9993536
299.9998361
300.0001905
299.9994338
299.9994655
299.9994139
299.9993251
299.9993613
299.9996983
299.9998495
299.9996038
299.9993344
299.9994918
299.9998653
299.9998277
299.9996901
299.9996539
299.9994078
299.9994756
299.9995321
299.9997479
299.9999415
299.9999
299.999735
299.9997578
300.0000334
299.9998318
300.0000533
299.999998
299.9996452
299.9994564
299.9995239
299.9998016
299.9999927
299.9998798
299.9997312
299.99966
299.9997629
299.9996073
300.0004029
300.0001772
299.9999758
299.9998167
300.0000067
300.0003429
300.0006525
300.0004637
300.0000914
299.9996603
299.9996133
299.9994515
300.0003161
299.9999846
300.0000205
300.000173
300.0004535
300.0003011
300.0012565
300.0011857
300.0002923
299.9998822
299.9998892
299.9997853
299.9995242
299.9994942
299.999415
299.9993182
299.9993728
299.9996517
299.9998975
299.9997861
299.999444
299.9994663
299.9998611
299.9999963
299.9994651
299.9993279
299.9992285
299.9991338
299.9994013
299.9997647
299.9998519
299.9996072
299.999422
299.9995562
299.9996988
299.9996551
299.9996367
299.9994223
299.9994113
299.9994611
299.999615
299.9997691
299.9998156
299.9996861
299.9994586
299.9995065
299.9996202
299.9997047
299.9999531
299.9998527
299.9995582
299.9994543
299.9994706
299.9997233
299.9998312
299.9997544
299.9996225
299.9994668
299.9992413
299.9994871
300.0002537
299.9998368
299.9994913
299.9996052
299.9998369
300.0001397
300.0005035
300.0004614
300.0000427
299.9994723
299.9993751
299.9993664
299.9998469
299.999636
299.9999264
300.0004805
300.0006792
300.0001547
300.0009333
300.001333
300.000343
299.9995987
299.9999351
299.9999721
299.9994422
299.9993721
299.9992831
299.9992402
299.9993797
299.9997502
299.9999806
299.999779
299.9994073
299.9994492
299.9997793
299.9998323
299.9993585
299.9993014
299.999198
299.9992512
299.9995949
299.9999034
299.9998203
299.9994461
299.9991782
299.999185
299.9992952
299.99927
299.9994571
299.9993206
299.999483
299.9995581
299.9996419
299.9996907
299.9995761
299.9993277
299.9991451
299.9992351
299.9992937
299.9991818
299.9998509
299.9996677
299.9996657
299.9995787
299.9996167
299.9997804
299.9997941
299.9997656
299.9996522
299.9994147
299.9992004
299.9992841
299.9996865
299.9992575
299.9992614
299.9995676
299.9998994
300.0001296
300.0002941
300.0005094
300.0000107
299.9993244
299.9991066
299.9992709
299.9990717
299.9991733
299.9998509
300.0008379
300.0010285
300.000436
300.0004526
300.0016441
300.0008376
299.9997439
299.9995498
299.9996061
299.9992062
299.999268
299.9994349
299.9995005
299.9997556
300.000182
300.000297
299.9998642
299.9993818
299.999418
299.9996709
299.9997883
299.9992011
299.9992659
299.9993458
299.9995201
299.9998063
299.9999269
299.9996186
299.9991062
299.9987926
299.9989071
299.9991488
299.9992275
299.9993953
299.9995825
299.9997678
299.9997355
299.9996946
299.9996463
299.9994223
299.9991629
299.9991299
299.9992883
299.9993762
299.9993827
299.9997768
299.999794
299.9998041
299.9996658
299.9996757
299.9998037
299.999826
299.9998344
299.9996665
299.9994322
299.9993027
299.9994629
299.9993746
299.99931
299.9994556
299.9996987
300.000002
300.0001171
300.0001361
300.0004296
299.999862
299.999243
299.9991567
299.9993203
299.9988788
299.999423
300.0001389
300.0009765
300.0011736
300.0006945
300.0004012
300.001517
300.0011014
299.9998681
299.9994631
299.9991564
299.9998824
299.9999697
300.0001661
300.0000733
300.0000264
300.0000596
300.0002203
300.0000813
299.9997831
299.9997526
299.9999017
299.9998067
299.9995392
299.9997609
300.0001455
300.0001947
300.0000462
300.0000628
300.0002555
300.0001171
299.9998483
299.9999746
300.0000711
299.9998887
300.0000271
300.0000137
300.0001302
300.0001474
299.9999846
300.0000248
300.0001861
300.0001206
299.9999825
300.0002204
300.0002683
299.9999416
299.9993847
299.9995307
299.9997145
299.9996478
299.9995753
299.9997676
299.9999179
299.9997793
299.9996561
299.9996067
299.9997812
299.9995647
299.9992427
299.9995535
299.9996552
299.9994835
299.9995226
299.9998608
300.0000645
299.9999303
299.9995176
299.9993501
299.9994969
299.9998506
299.9997939
299.9998966
299.999733
299.9995547
299.999686
300.0000559
300.0000683
299.9999217
299.9998871
300.0000206
299.9998661
299.99972
299.9996534
300.0001686
300.0001642
299.9997583
299.9995166
299.9998011
300.000034
299.9997365
299.9997473
299.9997357
299.9998128
299.9993875
299.9997587
299.9998236
299.9999604
299.9996621
299.9994739
299.9998185
299.9999589
299.9997499
299.9996484
300.0000188
300.0001887
299.9997681
299.9998262
300.0000281
300.0000808
299.999793
299.9997196
299.999961
299.9999817
299.999767
299.9997391
299.9999927
299.9999174
300.0001025
299.9991235
299.9995282
299.9996338
299.9994666
299.9994253
299.9997678
299.9999169
299.9997161
299.9992028
299.9991385
299.9996712
299.9995289
299.9993463
299.9997875
299.9996609
299.9993314
299.9993654
299.999853
299.9998233
299.9995023
299.9993959
299.9993502
299.9995441
299.9995634
299.9996937
299.9997505
299.9994765
299.9994593
299.9996538
300.000081
300.0002791
300.0001406
299.9999099
299.9996421
299.9994817
299.9995924
299.9999986
300.0003692
300.0001665
299.99954
299.9992963
299.9995552
299.9998469
299.9997534
299.9996543
299.9997647
299.9996145
299.9995667
300.0002457
300.0002438
299.9999367
299.9993185
299.9990741
299.9994013
299.9995846
299.9995133
299.999693
300.0000541
299.9998932
299.9996981
300.0001591
300.0001242
299.999833
299.9994154
299.9993128
299.9995677
299.999637
299.9996281
299.9999063
300.0000407
300.0000884
300.0001088
299.9994836
299.9997497
299.9995714
299.999304
299.9993527
299.9997457
299.9997532
299.9994994
299.9993555
299.999476
299.9996231
299.9997618
299.999561
299.9997739
299.9994816
299.9992418
299.9993593
299.9996025
299.9994247
299.9990797
299.9989949
299.9993025
299.9997514
299.9997035
300.0000704
300.0000889
299.9997126
299.9995155
299.9995804
299.9997589
299.9999008
299.999772
299.9996299
299.999618
299.9997411
299.9997759
300.0005844
300.000829
300.0006057
300.0002082
299.9999543
300.0002401
300.0005831
300.0002025
300.0001864
300.0003568
300.0003472
299.9994428
300.000547
300.0004395
300.0000584
299.9994649
299.9993761
299.9996963
299.9998257
299.9998052
300.0002341
300.0006174
300.0002543
300.0001873
300.0000264
299.9999461
299.9994915
299.999108
299.9992626
299.9996701
299.9998349
299.9999779
300.000298
300.0005425
300.0002093
299.9999515
299.9997274
299.9996059
299.9992676
299.9991442
299.9994387
299.9998231
299.999802
299.9996042
299.9997099
299.9998147
299.9999418
300.0000751
299.9998709
299.999919
299.9996101
299.9994199
299.999568
299.9996749
299.9994721
299.9993056
299.9995983
299.9999125
299.9999596
299.9997518
300.0005243
300.0003631
299.9998167
299.9994519
299.9996257
299.9999661
300.0001104
299.9998981
299.9998067
299.999831
299.9998675
299.9997449
300.0007583
300.0010014
300.000632
300.0004322
300.000272
300.0005303
300.0009507
300.0005697
300.0004558
300.0008053
300.0005963
300.0000339
300.0003671
300.0003668
299.9999443
299.9994854
299.9994431
299.999774
299.9999135
299.9999226
300.0003016
300.0006966
300.0005592
300.0000596
299.9998638
299.9996223
299.9991739
299.9989759
299.9993516
299.9997673
299.9998873
300.0000879
300.0005604
300.0008468
300.0002675
299.9999405
299.9998185
299.9996721
299.9994129
299.9994561
300.0000356
300.0003809
300.0002048
299.9999875
300.0001474
300.0002548
300.0001119
299.999774
300.0004286
300.0004031
300.0000736
299.9999925
300.0002711
300.0003372
300.0001404
299.9999556
300.0000463
299.9999801
299.9998399
299.999594
300.0006397
300.0003495
299.9998046
299.999702
300.00009
300.0002074
300.0000455
299.9998234
299.9998362
299.99993
299.9999164
299.9996583
300.0001268
300.0001945
300.0002467
300.0002375
300.0002925
300.0003884
300.0009746
300.000602
300.0004934
300.0005389
300.000575
300.0001416
299.9997914
299.9998193
299.9994056
299.9991743
299.9994539
299.9997623
299.9998673
299.9999962
300.0004011
300.000562
300.0003639
300.000072
299.9993819
299.9991815
299.9988575
299.9988857
299.9994663
299.9998157
299.9999389
300.0001906
300.0003612
300.0004618
300.0003104
299.9999361
299.9997464
299.9995124
299.9991933
299.9994539
300.0000895
300.0002414
300.0002172
300.0001659
300.0002292
300.0003012
300.0000158
299.9995405
300.0001904
299.9999721
299.9996145
299.9997741
300.0002161
300.000337
300.0002644
299.9999841
299.9999567
300.0000045
299.9998657
299.9994915
300.0002809
299.9999303
299.999598
299.9997983
300.0000372
299.9999542
299.9999407
299.9999448
300.0001151
300.0001476
299.999901
299.9994461
299.9999092
299.9998289
299.9997547
299.9998841
300.0001484
300.0000231
299.9997351
299.9996394
299.9998254
299.9998817
299.9999927
299.9995969
299.9999422
299.9998953
299.9998703
299.9996874
299.9995217
299.9993998
299.9999428
299.9999108
299.9994986
299.999342
299.9994041
299.9994005
299.99942
299.9995796
299.9995631
299.9994407
299.999522
299.9992912
299.9998068
299.9996468
299.9999357
299.9996243
299.999457
299.9991199
299.9999693
299.999788
299.9997095
300.0000048
299.9996881
299.9993235
299.999675
299.999602
299.9993622
299.999522
299.9990172
299.9986943
299.9998209
299.999506
299.9991566
299.9991397
299.9988296
299.9988087
299.9998463
299.9994156
299.9992191
299.9992453
299.9988882
299.9988084
299.9994402
299.9995838
299.9995057
299.9993597
299.9988933
299.9987646
299.9995655
299.9994398
299.9996581
299.9994647
299.9989868
299.998957
299.9999927
299.9997034
299.9996615
299.9993671
299.9991585
299.9990305
299.9995654
299.9992822
299.9991698
299.998897
299.9985741
299.9988842
299.9997027
299.999681
299.9993626
299.9989442
299.9988221
299.9990594
299.9997998
299.9996134
299.9993767
299.9990374
299.9988524
299.9989694
299.9996917
299.9996937
299.9995157
299.9993449
299.9990265
299.9990451
299.9997726
299.9999168
299.9998302
299.9996224
299.9992461
299.9993561
299.9998264
299.9996862
299.9996388
299.9995596
299.9992874
299.9991256
299.9995225
299.9994688
299.9994047
299.9992242
299.9989514
299.9994154
299.9996337
299.999673
299.9996085
299.9992653
299.9990784
299.9993288
299.9995868
299.9994264
299.9996093
299.9992288
299.9989456
299.9991127
299.9995376
299.999553
299.9997143
299.9994669
299.9989143
299.9990247
299.9997818
299.9998083
299.9998824
299.9995562
299.9990299
299.999268
299.9997687
299.9998104
299.9997959
299.9996487
299.9996376
299.9996918
299.9993303
299.9994226
299.9995455
299.9996109
299.9997288
299.9998169
299.9994231
299.9995921
299.9995059
299.9994493
299.9995391
299.9994283
299.9994582
299.9994702
299.9994467
299.9992304
299.999256
299.9991677
299.9993559
299.9994659
299.9996135
299.999374
299.999275
299.9992309
299.9994452
299.9994705
299.9997136
299.9995575
299.9995755
299.9995105
299.9998446
299.9998338
299.9997609
299.9997998
299.9999071
299.9999307
299.9992413
299.9992457
299.999411
299.9998002
299.9999185
299.9995814
299.9994247
299.9993407
299.9992834
299.9995116
299.9993451
299.9990796
299.999418
299.9991419
299.9991485
299.9993047
299.9991687
299.9991398
299.9993483
299.9992391
299.9993952
299.9994578
299.9993835
299.9995555
299.9991188
299.9992928
299.9994736
299.9997118
299.9999369
299.9998583
299.9996065
299.9992871
299.9998889
299.9996203
299.9995211
299.9993359
299.9991755
299.9995572
300.000101
299.9998317
299.9996976
299.9995415
299.9996159
299.9999694
300.0002356
299.9997291
299.9996826
299.9994951
299.9998221
299.999965
299.9998555
299.9994897
299.99957
299.9994531
299.9997083
299.9996181
299.9996992
299.9994734
299.9997852
299.9998276
299.9996305
300.0002445
300.0005283
299.9997215
300.0000337
299.9999603
299.9994822
299.9993854
300.0002965
299.9995235
300.0001229
299.9998997
299.9992683
299.9988164
300.000301
299.9994144
299.9999157
299.9996853
299.9992496
299.9992808
300.0007969
299.9994811
299.999553
299.9996204
299.9996548
299.9996116
300.0006957
299.9997396
299.999419
299.9997161
299.9998227
299.9997089
300.0000582
299.9998057
299.9995439
299.9995643
299.9995991
300.0000015
300.0000028
299.9996614
299.9997717
299.9992783
299.9989977
299.9991367
299.9999447
299.9997474
299.9991745
299.9992902
299.9993537
299.9999214
300.0003197
299.9999239
299.9992418
299.9992214
300.0001238
300.0002522
300.0002633
299.9997256
299.9992218
299.9992377
300.0001001
299.99996
299.9999307
299.9996326
299.9991318
299.9993298
300.0002164
299.9997168
299.9994827
299.9996105
299.9995019
299.9998496
300.0004534
300.0005163
300.00002
300.0000037
299.9998849
300.0001147
300.0000031
300.0007649
300.0002286
300.0001146
299.999842
300.0000564
299.9999377
299.9999297
299.9998624
299.9996203
299.9993927
299.9997389
300.0000654
299.9995294
300.0001642
299.999333
299.9992096
299.9995894
300.0000396
299.9998415
300.0006902
299.9995601
299.9992946
299.9994689
300.0000996
299.9995302
299.9999861
299.9996607
299.9994663
299.9993082
299.9999243
299.9992555
299.9998917
299.9994651
299.9993572
299.9992433
299.9996364
299.9999942
300.000141
299.999747
299.9993233
299.9995873
299.9999013
300.0004111
300.0002825
299.9995132
299.9990654
299.9994367
300.0004345
300.0004895
299.9998919
299.9993406
299.9991816
299.999801
300.000347
300.0000397
299.999807
299.9995497
299.9995271
300.0001874
300.0004587
299.9996968
299.999652
299.9997291
299.9999084
300.0003496
300.0001434
299.9998009
299.9996866
299.9998119
299.9998368
300.0001462
300.0001975
299.9999801
299.9997881
299.9999639
299.9995557
299.9999656
299.9999643
300.0000855
299.9997567
299.9998098
299.9991896
299.9997648
300.0002013
300.0001343
299.9998729
299.9996232
299.9993007
299.9998719
300.000252
300.000375
300.0004657
299.9998201
299.9998192
299.9999783
300.0000319
300.0003678
300.0002904
299.9998177
300.0000919
299.999807
300.000016
299.999948
299.9999621
299.9997293
299.9995671
299.9994622
299.9998622
299.99991
299.9999353
299.9995249
299.9991859
299.999398
300.0000449
300.0000803
299.9997234
299.9991603
299.998987
299.9993633
300.0003174
300.0000893
299.9994927
299.999131
299.9991146
299.9998115
300.0004201
300.0002055
299.9998145
299.9994864
299.999557
300.0002867
300.0001814
300.0000615
299.9998896
299.9997375
299.9998599
300.0004246
300.0006212
299.9998887
299.9998727
299.9996967
299.9996997
300.0000854
300.0004858
299.9997712
299.9999384
299.9996064
299.9995714
299.9998771
300.0006129
299.9998279
299.999913
299.9994983
299.9996969
299.9998123
300.000456
300.0000038
300.0001451
299.9997088
300.0001026
299.9999195
300.0003489
300.0004272
300.0006103
300.0000853
300.0003445
299.9998132
300.0002291
300.0007097
300.0002738
300.0000036
299.9999766
299.9995684
299.9999001
300.000331
299.9997461
299.9999378
299.9994333
299.9993886
299.9995106
299.9994225
299.9996197
299.9997256
299.9998762
299.9996392
299.9997254
299.999361
299.9992741
299.9996119
299.9998323
299.9997441
300.00007
299.9993199
299.9990822
299.9995155
299.9999548
300.0000388
300.0004671
299.9996621
299.9992573
299.9995336
300.0002488
300.0002847
299.9999501
299.9995852
299.9992537
299.9996142
300.0003825
300.0001671
300.0005089
299.9994973
299.9991661
299.9995458
300.0000998
299.9995089
300.0010797
299.9996803
299.9994874
299.9996483
299.9999821
299.9991997
300.0011932
299.9998921
299.9998334
299.9998882
300.0000375
299.9993014
300.0007044
299.9999983
300.0002087
300.000198
300.0000075
299.9993938
300.0003466
300.000313
300.0005277
300.0003611
299.9997546
299.999409
300.000318
300.0006059
300.0003054
300.0000673
299.9993976
299.999434
300.0003111
300.0003149
299.9998449
299.99945
299.9991969
299.9994845
299.9990391
299.9993695
299.999616
300.0000011
300.0001491
299.9997989
299.9994003
299.9992457
299.9992875
299.9999127
300.0000531
299.9998161
299.9996732
299.9990946
299.9990539
299.9998082
300.0001724
299.9999684
300.0002881
299.9993735
299.9990819
299.9997602
300.000287
299.9999379
300.0002982
299.9994095
299.9989683
299.9996195
299.9999869
299.9994375
300.0009247
299.9994855
299.9989336
299.99957
299.9996229
299.9988721
300.0011297
299.9998575
299.9994489
299.9999573
299.9996811
299.9989884
300.0013928
300.0002647
299.9999088
300.000164
299.9996276
299.9993127
300.0009968
300.0002965
300.0001389
300.0002197
299.9995169
299.9995508
300.000127
300.0005048
300.0005658
300.000332
299.9995323
299.9996578
300.0003832
300.0008546
300.0006404
299.9998822
299.9993977
299.9995961
300.0004083
300.0004313
299.9999891
299.9993201
299.9993231
299.9995604
299.999393
299.9999375
300.0000396
299.9997698
299.9994027
299.9991802
299.9997709
300.0002181
299.9996243
299.9995236
299.9991372
299.9993413
300.0000554
299.9996633
299.9995145
299.9992213
299.999247
299.9994897
299.9998007
299.9996238
299.9993157
299.9993396
299.9994487
299.9995208
299.9997441
299.9995217
299.999512
299.9995395
299.9994504
299.9995176
299.9996819
299.999703
299.9996665
299.9995662
299.999516
299.9998011
299.999087
299.9991969
299.999624
299.999542
299.9990063
299.9992101
299.999365
299.9997838
299.9994941
299.9990165
299.9988888
299.9992799
299.9996451
299.9994516
299.9989866
299.9988904
299.9991125
299.9993985
299.9995508
299.999177
299.9990356
299.9992064
299.9992824
299.9994592
299.9994293
299.9993469
299.999367
299.9993295
299.9992857
299.9996119
299.9996754
299.9996057
299.999485
299.9994094
299.9995571
299.9997387
299.9998141
299.9996826
299.9991335
299.9994114