-1.25 	275.9123162949307 	0.001464402487904262 	101325.0201061924
-1.247497497497497 	299.9853341938486 	0.001435548702019641 	101325.0316634601
-1.244994994994995 	300.002018047444 	0.00149813965070609 	101325.0195796129
-1.242492492492492 	300.0000478321497 	0.001532595244324995 	101325.0289995239
-1.23998998998999 	300.0000203367812 	0.001526989060492112 	101325.0238678199
-1.237487487487487 	300.0000234290717 	0.001491886149037679 	101325.0276715868
-1.234984984984985 	300.0000194330235 	0.001446410227188726 	101325.0229992269
-1.232482482482482 	300.0000221904633 	0.00139347895805303 	101325.0262060966
-1.22997997997998 	300.0000194756836 	0.001336836613443196 	101325.0230503837
-1.227477477477477 	300.0000218221607 	0.001270931175948126 	101325.0257733906
-1.224974974974975 	300.0000203960275 	0.001207473709576946 	101325.0241378144
-1.222472472472472 	300.0000224379966 	0.001133362641042713 	101325.0265066974
-1.21996996996997 	300.0000216250288 	0.001065685468086195 	101325.0255917433
-1.217467467467467 	300.0000231998087 	0.0009888807907954514 	101325.0274062566
-1.214964964964965 	300.0000217476171 	0.0009191737023624486 	101325.025733304
-1.212462462462462 	300.0000230257858 	0.0008436186986624625 	101325.0271970409
-1.20995995995996 	300.000021203381 	0.0007741987856546132 	101325.0250868203
-1.207457457457457 	300.0000224191169 	0.0006985053383544594 	101325.0264833321
-1.204954954954955 	300.0000209895069 	0.0006303363142015459 	101325.0248397392
-1.202452452452452 	300.0000218329669 	0.0005551819907267029 	101325.0257911639
-1.19994994994995 	300.0000206231848 	0.0004890862618242063 	101325.0244016026
-1.197447447447447 	300.0000213082126 	0.0004164568498050598 	101325.0251669175
-1.194944944944945 	300.0000201711693 	0.0003542358929580623 	101325.0238644138
-1.192442442442442 	300.0000207706457 	0.0002846513422192192 	101325.0245333185
-1.18993993993994 	300.0000199213292 	0.0002265077946413767 	101325.0235766876
-1.187437437437437 	300.0000201872062 	0.0001600253827629554 	101325.0238489662
-1.184934934934935 	300.0000198352528 	0.0001068469940127286 	101325.0234734244
-1.182432432432432 	300.0000198588049 	8.22803752850484e-05 	101325.023456039
-1.17992992992993 	300.0000198545172 	3.120010271095971e-05 	101325.0234907654
-1.177427427427427 	300.0000196959954 	8.506243901488148e-05 	101325.0232631192
-1.174924924924925 	300.0000199168027 	9.985225172157867e-05 	101325.023563755
-1.172422422422422 	300.0000195786968 	0.000150382960487177 	101325.0231250735
-1.16991991991992 	300.0000199292799 	0.000182919696614006 	101325.0235784305
-1.167417417417417 	300.0000194116934 	0.0002260764503139622 	101325.0229332107
-1.164914914914915 	300.0000198063699 	0.0002502719060552266 	101325.0234325777
-1.162412412412412 	300.0000191345171 	0.0002850719854805994 	101325.0226051404
-1.15990990990991 	300.0000196189936 	0.0002998106903958543 	101325.0232098364
-1.157407407407407 	300.0000189207101 	0.0003246785172702117 	101325.0223538727
-1.154904904904904 	300.0000194481627 	0.0003264508802511696 	101325.0230067676
-1.152402402402403 	300.0000191403676 	0.00033456470762448 	101325.0226153322
-1.1498998998999 	300.0000192778959 	0.0003184749290485541 	101325.0228051255
-1.147397397397397 	300.0000190761515 	0.0003179717667051852 	101325.0225402698
-1.144894894894895 	300.0000191186589 	0.0002986067396132794 	101325.0226140216
-1.142392392392392 	300.0000188924871 	0.000296594039833673 	101325.0223209132
-1.13988988988989 	300.0000188781951 	0.0002759715776288158 	101325.0223275411
-1.137387387387387 	300.0000186547392 	0.0002736786919463067 	101325.0220415684
-1.134884884884885 	300.0000186234111 	0.0002525300929907284 	101325.0220251859
-1.132382382382382 	300.0000184148767 	0.0002505650856881911 	101325.0217601436
-1.12987987987988 	300.0000183675117 	0.0002293293527895997 	101325.0217282838
-1.127377377377377 	300.000018180751 	0.000228037777422484 	101325.021484887
-1.124874874874875 	300.0000181323352 	0.0002069784882596561 	101325.0214455702
-1.122372372372372 	300.0000179659388 	0.0002066017987835536 	101325.0212321131
-1.11986986986987 	300.0000179166021 	0.0001858913267111623 	101325.021189447
-1.117367367367367 	300.0000177696949 	0.0001865622788812398 	101325.0209987708
-1.114864864864865 	300.0000177114807 	0.0001663354185260549 	101325.020945731
-1.112362362362362 	300.0000175755899 	0.0001681209260265993 	101325.0207711595
-1.10985985985986 	300.000017514019 	0.0001484300032575729 	101325.0207126748
-1.107357357357357 	300.0000173958468 	0.0001513720417416079 	101325.0205593256
-1.104854854854855 	300.000017339124 	0.0001322028237766548 	101325.0205040273
-1.102352352352353 	300.0000172371935 	0.0001362882497322492 	101325.0203710802
-1.09984984984985 	300.000017185536 	0.0001175886091381999 	101325.0203207474
-1.097347347347347 	300.0000170956526 	0.0001227490128861223 	101325.0202035464
-1.094844844844845 	300.0000170487399 	0.0001044268726706811 	101325.0201585836
-1.092342342342342 	300.0000169633241 	0.0001105445582051296 	101325.020049698
-1.08983983983984 	300.0000169135778 	9.250748033847025e-05 	101325.020000957
-1.087337337337337 	300.0000168182407 	9.940181468208467e-05 	101325.0198805658
-1.084834834834835 	300.0000167505897 	8.159844829281647e-05 	101325.0198073216
-1.082332332332332 	300.000016627664 	8.906469997988479e-05 	101325.0196546536
-1.07982982982983 	300.0000165312117 	7.146437261194409e-05 	101325.0195453795
-1.077327327327327 	300.0000163801193 	7.935643250542671e-05 	101325.0193606009
-1.074824824824825 	300.0000162639294 	6.190728494032095e-05 	101325.0192278747
-1.072322322322323 	300.0000161050277 	7.018787727361264e-05 	101325.0190357635
-1.06981981981982 	300.0000159958846 	5.280023564051839e-05 	101325.0189107669
-1.067317317317317 	300.0000158608369 	6.153601840638689e-05 	101325.0187477923
-1.064814814814815 	300.0000157867842 	4.409684275765636e-05 	101325.0186635537
-1.062312312312312 	300.0000156988766 	5.34082331568171e-05 	101325.0185573617
-1.05980980980981 	300.000015670694 	4.079607968458955e-05 	101325.0185269865
-1.057307307307307 	300.0000156273582 	4.945105478985959e-05 	101325.0184745987
-1.054804804804805 	300.0000156257196 	4.153736733533474e-05 	101325.0184744404
-1.052302302302302 	300.0000155933059 	4.849935554571275e-05 	101325.0184342438
-1.0497997997998 	300.0000155718124 	4.219265973216879e-05 	101325.0184095769
-1.047297297297297 	300.0000154994676 	4.742901631823535e-05 	101325.0183230464
-1.044794794794795 	300.0000154150592 	4.248366520924651e-05 	101325.0182236847
-1.042292292292292 	300.0000152768189 	4.606348682350654e-05 	101325.0180595231
-1.03978978978979 	300.0000151259986 	4.231439823573511e-05 	101325.0178814302
-1.037287287287287 	300.0000149433864 	4.44756342507391e-05 	101325.0176649301
-1.034784784784785 	300.0000147693794 	4.185907192651613e-05 	101325.0174592072
-1.032282282282283 	300.0000145988193 	4.297102807708363e-05 	101325.0172579626
-1.02977977977978 	300.0000144623992 	4.144236060098835e-05 	101325.0170971709
-1.027277277277277 	300.0000143584494 	4.188939516054927e-05 	101325.0169746077
-1.024774774774775 	300.0000142982749 	4.130653877953527e-05 	101325.0169033983
-1.022272272272272 	300.0000142741587 	4.137919203573506e-05 	101325.0168748937
-1.01976976976977 	300.0000142769989 	4.143658944296612e-05 	101325.0168786201
-1.017267267267267 	300.0000142920577 	4.129376884740315e-05 	101325.0168971572
-1.014764764764765 	300.0000142995779 	4.154674873100325e-05 	101325.0169061635
-1.012262262262262 	300.0000142833839 	4.126279285246706e-05 	101325.0168863275
-1.00975975975976 	300.0000142261693 	4.124337646779461e-05 	101325.0168174982
-1.007257257257257 	300.0000141204533 	4.087799232312114e-05 	101325.0166915801
-1.004754754754755 	300.0000139662986 	4.044326948343552e-05 	101325.0165092951
-1.002252252252252 	300.0000137746609 	3.989708310945464e-05 	101325.0162837408
-0.9997497497497498 	300.0000135653679 	3.930085318927856e-05 	101325.0160372535
-0.9972472472472473 	300.0000133622029 	3.872067144943623e-05 	101325.0157970835
-0.9947447447447449 	300.0000131874587 	3.821862338996869e-05 	101325.0155897138
-0.9922422422422421 	300.0000130577909 	3.784330448161171e-05 	101325.0154354561
-0.9897397397397399 	300.0000129807013 	3.762040677422036e-05 	101325.0153444781
-0.9872372372372376 	300.0000129543429 	3.754259640065312e-05 	101325.0153146486
-0.9847347347347346 	300.0000129670389 	3.757569835036714e-05 	101325.0153312485
-0.9822322322322323 	300.0000129987139 	3.765955530100438e-05 	101325.01536903
-0.9797297297297296 	300.0000130235479 	3.771868598780738e-05 	101325.0153971836
-0.9772272272272275 	300.0000130156566 	3.768470130034503e-05 	101325.0153859738
-0.9747247247247248 	300.000012955254 	3.750356031833541e-05 	101325.0153132582
-0.9722222222222224 	300.0000128338701 	3.715376770709436e-05 	101325.0151700721
-0.9697197197197196 	300.0000126582261 	3.665511478593964e-05 	101325.0149636874
-0.9672172172172175 	300.0000124477037 	3.605870068920398e-05 	101325.0147163565
-0.9647147147147147 	300.0000122303472 	3.544218286455224e-05 	101325.0144603022
-0.9622122122122124 	300.0000120361966 	3.489018208239784e-05 	101325.0142307851
-0.9597097097097099 	300.000011890964 	3.447332019249384e-05 	101325.0140583984
-0.9572072072072073 	300.000011809802 	3.423661493736487e-05 	101325.0139615085
-0.9547047047047047 	300.0000117929537 	3.417940853807449e-05 	101325.0139404249
-0.9522022022022023 	300.0000118230631 	3.42530888643236e-05 	101325.0139754394
-0.9496996996996998 	300.0000118701855 	3.43755171997563e-05 	101325.0140307478
-0.9471971971971973 	300.0000118987618 	3.44451435663561e-05 	101325.0140640375
-0.9446946946946947 	300.0000118772113 	3.437470904846317e-05 	101325.0140383843
-0.9421921921921923 	300.0000117880385 	3.411626205680406e-05 	101325.0139326286
-0.93968968968969 	300.0000116316189 	3.366916040221206e-05 	101325.0137474603
-0.9371871871871872 	300.0000114268022 	3.308843562407256e-05 	101325.0135054932
-0.9346846846846848 	300.0000112059159 	3.246424014956659e-05 	101325.0132449584
-0.9321821821821823 	300.0000110054278 	3.189542404345517e-05 	101325.0130085936
-0.9296796796796799 	300.0000108549631 	3.146685892637803e-05 	101325.0128312238
-0.9271771771771771 	300.0000107686711 	3.121682299841046e-05 	101325.0127297897
-0.9246746746746748 	300.0000107423606 	3.113259653418441e-05 	101325.0126989242
-0.9221721721721724 	300.000010754971 	3.115805203702236e-05 	101325.0127137493
-0.9196696696696698 	300.0000107763053 	3.120872125253938e-05 	101325.0127389241
-0.9171671671671672 	300.0000107775329 	3.120425709121223e-05 	101325.0127402372
-0.9146646646646649 	300.0000107390747 	3.108954169207707e-05 	101325.012694252
-0.9121621621621623 	300.0000106538934 	3.08438189255097e-05 	101325.0125932229
-0.9096596596596597 	300.0000105279991 	3.04851886782782e-05 	101325.0124445451
-0.9071571571571573 	300.0000103766395 	3.005370325271235e-05 	101325.0122656324
-0.9046546546546547 	300.0000102166888 	2.959530492401223e-05 	101325.0120766839
-0.9021521521521524 	300.0000100622234 	2.915313548255761e-05 	101325.0118946154
-0.8996496496496498 	300.0000099231201 	2.875300321838244e-05 	101325.0117305135
-0.8971471471471473 	300.0000098046485 	2.841068062778869e-05 	101325.0115905592
-0.894644644644645 	300.0000097096079 	2.813688924682382e-05 	101325.0114783231
-0.892142142142142 	300.0000096399617 	2.793469645419916e-05 	101325.0113960173
-0.8896396396396397 	300.0000095957469 	2.780488102865035e-05 	101325.0113436511
-0.8871371371371374 	300.0000095729506 	2.773598632475152e-05 	101325.0113167844
-0.8846346346346349 	300.0000095628403 	2.770004751466885e-05 	101325.0113046193
-0.8821321321321324 	300.0000095508825 	2.765881901013841e-05 	101325.0112901674
-0.8796296296296297 	300.0000095197435 	2.756313539848415e-05 	101325.0112533046
-0.8771271271271271 	300.0000094543799 	2.737096469458738e-05 	101325.0111762331
-0.8746246246246248 	300.0000093472682 	2.706309731903298e-05 	101325.0110497704
-0.8721221221221224 	300.0000092017146 	2.664759036218437e-05 	101325.0108779786
-0.8696196196196196 	300.00000903292 	2.616755327588216e-05 	101325.0106786741
-0.8671171171171175 	300.0000088638108 	2.568666146974028e-05 	101325.0104788244
-0.8646146146146148 	300.0000087176618 	2.526951989418065e-05 	101325.0103063749
-0.8621121121121121 	300.0000086120763 	2.49658701033509e-05 	101325.0101815912
-0.8596096096096097 	300.0000085524015 	2.478952568152971e-05 	101325.0101107771
-0.857107107107107 	300.0000085304027 	2.471805295814292e-05 	101325.0100845281
-0.8546046046046049 	300.0000085280528 	2.470244683907428e-05 	101325.0100812664
-0.8521021021021022 	300.0000085227485 	2.467930511628021e-05 	101325.0100746388
-0.8495995995995997 	300.0000084948567 	2.459486145330848e-05 	101325.0100417893
-0.8470970970970974 	300.0000084334569 	2.441855993310025e-05 	101325.0099697187
-0.8445945945945946 	300.000008338838 	2.414754824191613e-05 	101325.0098580104
-0.8420920920920922 	300.0000082202543 	2.380834316041186e-05 	101325.0097174226
-0.8395895895895897 	300.0000080917511 	2.344106190169626e-05 	101325.0095652533
-0.8370870870870872 	300.0000079684645 	2.308704109414113e-05 	101325.0094194123
-0.8345845845845846 	300.0000078616706 	2.278015988167445e-05 	101325.0092932853
-0.8320820820820823 	300.0000077762276 	2.253338851667488e-05 	101325.0091928169
-0.8295795795795798 	300.0000077110928 	2.234389138599794e-05 	101325.0091163622
-0.8270770770770772 	300.0000076607022 	2.21961743309643e-05 	101325.0090568919
-0.8245745745745746 	300.0000076170272 	2.206704268955325e-05 	101325.0090052934
-0.8220720720720721 	300.0000075733913 	2.193883599437912e-05 	101325.0089534282
-0.8195695695695699 	300.0000075251536 	2.179771028991576e-05 	101325.0088960347
-0.817067067067067 	300.0000074702134 	2.163791821546012e-05 	101325.0088310794
-0.8145645645645651 	300.0000074089274 	2.146102303044438e-05 	101325.0087587136
-0.8120620620620621 	300.0000073422176 	2.126682567921897e-05 	101325.0086796223
-0.8095595595595597 	300.000007269773 	2.105644696936149e-05 	101325.0085939305
-0.8070570570570572 	300.0000071912409 	2.082996912788986e-05 	101325.0085013856
-0.8045545545545546 	300.0000071075391 	2.058797290920336e-05 	101325.0084025023
-0.8020520520520523 	300.000007021023 	2.033779067441476e-05 	101325.0082996625
-0.7995495495495494 	300.0000069350158 	2.00889695334618e-05 	101325.008197289
-0.7970470470470474 	300.0000068536659 	1.98539382768286e-05 	101325.008100885
-0.7945445445445446 	300.00000678114 	1.964551966286633e-05 	101325.0080153097
-0.7920420420420423 	300.0000067192227 	1.946753936122276e-05 	101325.0079428829
-0.7895395395395397 	300.0000066667617 	1.93167290167252e-05 	101325.0078820289
-0.7870370370370371 	300.0000066196117 	1.918000689484186e-05 	101325.0078272031
-0.7845345345345348 	300.0000065716358 	1.903826643743902e-05 	101325.0077705145
-0.7820320320320323 	300.0000065168539 	1.887584742716148e-05 	101325.007704676
-0.7795295295295296 	300.0000064515648 	1.868408229317564e-05 	101325.0076261657
-0.7770270270270272 	300.0000063773621 	1.846801681950749e-05 	101325.0075371942
-0.7745245245245247 	300.0000063001825 	1.824708897527065e-05 	101325.0074455139
-0.7720220220220222 	300.0000062293584 	1.804648639050519e-05 	101325.0073621959
-0.7695195195195199 	300.0000061744335 	1.789325980978401e-05 	101325.0072984457
-0.767017017017017 	300.0000061430952 	1.780656898807961e-05 	101325.0072625049
-0.7645145145145147 	300.0000061380578 	1.779196396995263e-05 	101325.0072571168
-0.7620120120120122 	300.0000061552502 	1.783887595098142e-05 	101325.0072777794
-0.7595095095095097 	300.000006183903 	1.791754793845442e-05 	101325.0073122764
-0.7570070070070072 	300.0000062086641 	1.79841173857765e-05 	101325.0073422751
-0.7545045045045048 	300.0000062122126 	1.799086299192783e-05 	101325.0073472704
-0.7520020020020022 	300.000006180076 	1.789743335128114e-05 	101325.0073103013
-0.7494994994994997 	300.0000061069333 	1.768812350670602e-05 	101325.0072240464
-0.7469969969969972 	300.0000059986037 	1.737888636874058e-05 	101325.0070950832
-0.7444944944944945 	300.0000058720225 	1.701832474569579e-05 	101325.0069440513
-0.7419919919919924 	300.0000057521876 	1.667733515538821e-05 	101325.0068007959
-0.7394894894894897 	300.000005664304 	1.642790541612857e-05 	101325.0066960556
-0.7369869869869872 	300.0000056277958 	1.632334899012856e-05 	101325.0066524648
-0.7344844844844846 	300.0000056485247 	1.638089491304823e-05 	101325.0066773176
-0.7319819819819822 	300.0000057174963 	1.65732560370622e-05 	101325.006759422
-0.7294794794794797 	300.0000058117536 	1.683746916528498e-05 	101325.0068717542
-0.7269769769769773 	300.0000059021308 	1.709094521644923e-05 	101325.0069793954
-0.7244744744744747 	300.0000059608024 	1.725500457837895e-05 	101325.0070493741
-0.721971971971972 	300.0000059687655 	1.727643597639081e-05 	101325.0070589354
-0.7194694694694695 	300.0000059202102 	1.713589156449028e-05 	101325.0070004685
-0.7169669669669674 	300.0000058217089 	1.685294804786195e-05 	101325.0068823427
-0.7144644644644647 	300.0000056913157 	1.647828261475778e-05 	101325.0067258238
-0.711961961961962 	300.0000055520529 	1.607842852607108e-05 	101325.0065591842
-0.7094594594594597 	300.0000054273645 	1.572243425589235e-05 	101325.0064109815
-0.7069569569569573 	300.0000053371249 	1.546616982307474e-05 	101325.0063045836
-0.7044544544544545 	300.0000052940795 	1.53451143804677e-05 	101325.0062547116
-0.7019519519519523 	300.0000053024529 	1.537147425860597e-05 	101325.0062659691
-0.6994494494494495 	300.0000053580995 	1.553204315012867e-05 	101325.0063331123
-0.6969469469469471 	300.0000054502261 	1.579502677114642e-05 	101325.0064426894
-0.6944444444444446 	300.000005562299 	1.611422919415479e-05 	101325.0065755755
-0.6919419419419421 	300.0000056758581 	1.64367113698171e-05 	101325.0067099442
-0.6894394394394396 	300.0000057719816 	1.671101710277569e-05 	101325.0068241874
-0.6869369369369374 	300.000005835398 	1.689107956896912e-05 	101325.006899536
-0.6844344344344344 	300.0000058545887 	1.694543501619646e-05 	101325.0069225805
-0.6819319319319321 	300.0000058247525 	1.686095120761263e-05 	101325.0068877296
-0.6794294294294296 	300.0000057499145 	1.664787455930436e-05 	101325.0067991444
-0.6769269269269272 	300.0000056420472 	1.634196312452527e-05 	101325.0066712821
-0.6744244244244245 	300.0000055208696 	1.599713416954608e-05 	101325.0065271316
-0.6719219219219222 	300.0000054087832 	1.567963279148706e-05 	101325.0063940967
-0.6694194194194195 	300.0000053286367 	1.545282063364255e-05 	101325.0062987865
-0.6669169169169172 	300.000005297528 	1.536613914436927e-05 	101325.0062619836
-0.6644144144144146 	300.0000053244606 	1.544571505303987e-05 	101325.0062944338
-0.661911911911912 	300.0000054083145 	1.568530534142878e-05 	101325.0063941253
-0.6594094094094097 	300.0000055365078 	1.604974075111609e-05 	101325.0065459864
-0.656906906906907 	300.0000056876765 	1.647846176246063e-05 	101325.006724728
-0.6544044044044046 	300.0000058366858 	1.69005501381481e-05 	101325.0069005461
-0.6519019019019021 	300.0000059601186 	1.725085798235535e-05 	101325.007045902
-0.6493993993993996 	300.000006041327 	1.748219099301869e-05 	101325.007141436
-0.6468968968968971 	300.000006073951 	1.757810011228479e-05 	101325.0071799001
-0.6443943943943946 	300.0000060632436 	1.755201697733309e-05 	101325.0071672214
-0.6418918918918921 	300.000006023871 	1.744397955848842e-05 	101325.0071202633
-0.6393893893893897 	300.0000059749953 	1.73079066993186e-05 	101325.0070617967
-0.6368868868868871 	300.0000059353118 	1.719655815845581e-05 	101325.0070142524
-0.6343843843843846 	300.0000059186494 	1.715036267702765e-05 	101325.0069943092
-0.6318818818818821 	300.0000059310926 	1.718758241687247e-05 	101325.0070096575
-0.6293793793793795 	300.0000059717485 	1.730474157653384e-05 	101325.0070585297
-0.6268768768768773 	300.0000060330544 	1.748115927979934e-05 	101325.0071320217
-0.6243743743743745 	300.000006105456 	1.768920912833205e-05 	101325.007218375
-0.6218718718718721 	300.0000061811447 	1.79061205648637e-05 	101325.0073076164
-0.6193693693693696 	300.0000062550043 	1.811957836542789e-05 	101325.0073947505
-0.6168668668668671 	300.0000063278434 	1.83306434008071e-05 	101325.0074803312
-0.6143643643643645 	300.0000064024157 	1.854790287854891e-05 	101325.0075683919
-0.6118618618618621 	300.0000064818259 	1.877940308852084e-05 	101325.0076628054
-0.6093593593593596 	300.0000065668157 	1.902558033350712e-05 	101325.0077637476
-0.6068568568568571 	300.0000066529296 	1.927268827968653e-05 	101325.007865823
-0.6043543543543546 	300.0000067318099 	1.949668098020505e-05 	101325.0079587322
-0.6018518518518521 	300.0000067931253 	1.966901873060791e-05 	101325.0080303486
-0.5993493493493496 	300.0000068284196 	1.976798389017786e-05 	101325.008071257
-0.5968468468468471 	300.0000068355076 	1.978963009756441e-05 	101325.0080792214
-0.5943443443443446 	300.0000068207431 	1.97522211571553e-05 	101325.0080618638
-0.591841841841842 	300.0000067984304 	1.969656169685365e-05 	101325.008036263
-0.5893393393393397 	300.000006788482 	1.967691590198627e-05 	101325.0080252932
-0.5868368368368371 	300.0000068106272 	1.974726768524101e-05 	101325.0080518124
-0.5843343343343346 	300.0000068785173 	1.994591964859914e-05 	101325.0081321823
-0.5818318318318321 	300.0000069957566 	2.028269207387608e-05 	101325.0082707735
-0.5793293293293297 	300.0000071533915 	2.073252046553782e-05 	101325.0084573617
-0.5768268268268271 	300.0000073323363 	2.124124346499431e-05 	101325.0086688894
-0.5743243243243245 	300.0000075072463 	2.173838748772561e-05 	101325.0088754492
-0.5718218218218221 	300.0000076537505 	2.215523491997752e-05 	101325.0090482808
-0.5693193193193196 	300.0000077551463 	2.244468593874105e-05 	101325.0091672351
-0.5668168168168171 	300.0000078055453 	2.259164933639813e-05 	101325.009226051
-0.5643143143143147 	300.000007813172 	2.261890836767936e-05 	101325.0092342024
-0.5618118118118121 	300.0000077974422 	2.258055524035999e-05 	101325.0092145228
-0.5593093093093094 	300.0000077828507 	2.254643560679827e-05 	101325.0091968635
-0.5568068068068072 	300.0000077934405 	2.258422664694057e-05 	101325.0092097243
-0.5543043043043046 	300.0000078458067 	2.273969815930013e-05 	101325.0092725028
-0.551801801801802 	300.0000079443544 	2.302554627947894e-05 	101325.0093904768
-0.5492992992992995 	300.0000080818493 	2.341990459973461e-05 	101325.0095540238
-0.5467967967967969 	300.000008240469 	2.387321216510271e-05 	101325.0097423678
-0.5442942942942947 	300.0000083991499 	2.432726211011778e-05 	101325.0099305212
-0.5417917917917919 	300.0000085394261 	2.473117634216291e-05 	101325.0100968721
-0.5392892892892895 	300.0000086510951 	2.505476163515076e-05 	101325.0102290273
-0.536786786786787 	300.0000087336194 	2.529748167785422e-05 	101325.0103264931
-0.5342842842842846 	300.0000087953698 	2.548157689557914e-05 	101325.0103995491
-0.531781781781782 	300.0000088505513 	2.564645784565313e-05 	101325.0104647664
-0.5292792792792794 	300.0000089135095 	2.583162355323899e-05 	101325.0105387958
-0.526776776776777 	300.0000089934281 	2.606161597003472e-05 	101325.0106326118
-0.5242742742742745 	300.0000090919892 	2.63422093264751e-05 	101325.0107479944
-0.521771771771772 	300.0000092025195 	2.665441885537561e-05 	101325.0108773489
-0.5192692692692695 	300.0000093130316 	2.696740078174364e-05 	101325.0110070782
-0.516766766766767 	300.0000094123569 	2.725034117534337e-05 	101325.0111233792
-0.5142642642642645 	300.0000094930089 	2.748283561939934e-05 	101325.0112182231
-0.511761761761762 	300.0000095567367 	2.767063881832127e-05 	101325.0112932049
-0.5092592592592596 	300.0000096129849 	2.78387971408083e-05 	101325.0113596962
-0.506756756756757 	300.0000096762525 	2.802912284266193e-05 	101325.0114352336
-0.5042542542542544 	300.0000097621068 	2.828433627184125e-05 	101325.0115375472
-0.5017517517517521 	300.0000098800664 	2.862867802908655e-05 	101325.01167812
-0.4992492492492494 	300.000010030375 	2.906387248328112e-05 	101325.011857143
-0.496746746746747 	300.0000102022369 	2.955737241623803e-05 	101325.0120616301
-0.4942442442442445 	300.000010375772 	3.005345585326895e-05 	101325.0122678662
-0.4917417417417421 	300.0000105273585 	3.048750162288342e-05 	101325.012447801
-0.4892392392392395 	300.0000106367196 	3.080061140011502e-05 	101325.0125774327
-0.486736736736737 	300.0000106935285 	3.096738624172638e-05 	101325.0126447725
-0.4842342342342345 	300.0000107020431 	3.099893430880744e-05 	101325.0126549303
-0.481731731731732 	300.0000106817907 	3.094938909478545e-05 	101325.0126303892
-0.4792292292292296 	300.0000106612791 	3.090258778951169e-05 	101325.0126058852
-0.4767267267267268 	300.0000106726886 	3.094498328035417e-05 	101325.0126193292
-0.4742242242242246 	300.0000107425868 	3.115188039883618e-05 	101325.0127014886
-0.471721721721722 	300.0000108826242 	3.155497386995288e-05 	101325.0128669128
-0.4692192192192195 	300.0000110873125 	3.213804090910673e-05 	101325.0131086121
-0.4667167167167169 	300.000011332663 	3.283651092222791e-05 	101325.0133986346
-0.4642142142142145 	300.0000115838222 	3.354739988636098e-05 	101325.0136949876
-0.461711711711712 	300.0000118020923 	3.416816502372301e-05 	101325.013952786
-0.4592092092092094 	300.0000119572177 	3.461054105420477e-05 	101325.0141359892
-0.456706706706707 	300.0000120344083 	3.483472308147072e-05 	101325.0142269449
-0.4542042042042045 	300.000012037945 	3.485544856997098e-05 	101325.0142314164
-0.451701701701702 	300.0000119923135 	3.473544046802586e-05 	101325.0141773344
-0.4491991991991995 	300.0000119331391 	3.457918702721375e-05 	101325.014107332
-0.4466966966966969 	300.000011899339 	3.449206051201037e-05 	101325.0140672935
-0.4441941941941945 	300.0000119227072 	3.456542347169858e-05 	101325.0140946306
-0.441691691691692 	300.0000120193766 	3.484583927744965e-05 	101325.0142089938
-0.4391891891891895 	300.000012187358 	3.53237164579896e-05 	101325.0144074485
-0.436686686686687 	300.0000124057701 	3.594598167628691e-05 	101325.0146658389
-0.4341841841841846 	300.0000126429803 	3.661984430632641e-05 	101325.0149463569
-0.431681681681682 	300.0000128647542 	3.725362382154043e-05 	101325.0152088841
-0.4291791791791794 	300.0000130448699 	3.777193444715153e-05 	101325.0154220301
-0.426676676676677 	300.0000131705312 	3.813645137694638e-05 	101325.0155706931
-0.4241741741741744 	300.0000132449452 	3.835822966664931e-05 	101325.0156584132
-0.421671671671672 	300.0000132837652 	3.847729582683678e-05 	101325.0157039502
-0.4191691691691694 	300.0000133089283 	3.85572498261388e-05 	101325.0157333497
-0.4166666666666669 	300.0000133405708 	3.86533866066906e-05 	101325.0157704732
-0.4141641641641645 	300.0000133903337 	3.87981542040796e-05 	101325.0158296143
-0.411661661661662 	300.0000134608499 	3.89998538641885e-05 	101325.0159126761
-0.4091591591591594 	300.0000135442756 	3.923695464187456e-05 	101325.0160114202
-0.406656656656657 	300.0000136303455 	3.948397251686294e-05 	101325.0161134398
-0.4041541541541545 	300.0000137115288 	3.971837990101148e-05 	101325.0162092328
-0.401651651651652 	300.000013785728 	3.99364353189651e-05 	101325.0162975098
-0.3991491491491494 	300.0000138610642 	4.016025046058677e-05 	101325.0163865769
-0.396646646646647 	300.0000139490893 	4.042009640348706e-05 	101325.0164910411
-0.3941441441441444 	300.0000140621615 	4.075077076834538e-05 	101325.0166249177
-0.3916416416416419 	300.0000142046478 	4.116275552397484e-05 	101325.01679385
-0.3891391391391395 	300.000014370268 	4.16358633370175e-05 	101325.0169897958
-0.3866366366366368 	300.0000145402548 	4.211987980177021e-05 	101325.0171908089
-0.3841341341341344 	300.0000146889427 	4.253993060592042e-05 	101325.0173664332
-0.381631631631632 	300.0000147908964 	4.282979340507634e-05 	101325.0174870294
-0.3791291291291294 	300.0000148312441 	4.294459062969653e-05 	101325.0175342449
-0.3766266266266269 	300.000014810428 	4.289015362947883e-05 	101325.017509243
-0.3741241241241244 	300.0000147482965 	4.272276875602392e-05 	101325.0174353458
-0.371621621621622 	300.000014679021 	4.25351778723214e-05 	101325.017353101
-0.3691191191191194 	300.0000146419573 	4.243976437879135e-05 	101325.01730885
-0.366616616616617 	300.0000146691163 	4.252251741586711e-05 	101325.0173406567
-0.3641141141141143 	300.0000147748892 	4.282615296619091e-05 	101325.0174657225
-0.3616116116116119 	300.0000149505746 	4.33242750947615e-05 	101325.0176732669
-0.3591091091091095 	300.0000151645346 	4.392661514996772e-05 	101325.0179260948
-0.356606606606607 	300.0000153718577 	4.451239137664856e-05 	101325.0181714931
-0.3541041041041044 	300.000015529273 	4.49569260643824e-05 	101325.0183578115
-0.3516016016016019 	300.0000156077697 	4.518341777102158e-05 	101325.0184509471
-0.3490990990990994 	300.0000156028043 	4.517822310414494e-05 	101325.0184454931
-0.346596596596597 	300.0000155356992 	4.499793590475914e-05 	101325.0183663827
-0.3440940940940944 	300.0000154454677 	4.47542978311514e-05 	101325.0182600525
-0.3415915915915919 	300.0000153760818 	4.456581428557213e-05 	101325.0181783787
-0.3390890890890895 	300.0000153620112 	4.453181173833188e-05 	101325.0181619377
-0.3365865865865869 	300.0000154183747 	4.46925016315165e-05 	101325.018228348
-0.3340840840840844 	300.0000155375053 	4.502814755172803e-05 	101325.0183691038
-0.3315815815815819 	300.0000156955484 	4.547510571275682e-05 	101325.0185556828
-0.3290790790790794 	300.0000158616393 	4.594565354694524e-05 	101325.0187518869
-0.3265765765765769 	300.0000160092175 	4.636868034899861e-05 	101325.0189265249
-0.3240740740740744 	300.0000161233579 	4.669599958843823e-05 	101325.0190611163
-0.3215715715715718 	300.0000161993656 	4.691668208962143e-05 	101325.0191508514
-0.3190690690690695 	300.000016240904 	4.70407829435353e-05 	101325.019200243
-0.3165665665665668 	300.0000162551045 	4.708267172972841e-05 	101325.0192168822