/*--------------------------------*- C++ -*----------------------------------*\
  =========                 |
  \\      /  F ield         | OpenFOAM: The Open Source CFD Toolbox
   \\    /   O peration     | Website:  https://openfoam.org
    \\  /    A nd           | Version:  7
     \\/     M anipulation  |
\*---------------------------------------------------------------------------*/
FoamFile
{
    version     2.0;
    format      ascii;
    class       volScalarField;
    location    "0.00345";
    object      p;
}
// * * * * * * * * * * * * * * * * * * * * * * * * * * * * * * * * * * * * * //

dimensions      [1 -1 -2 0 0 0 0];

internalField   nonuniform List<scalar> 
5000
(
109738.17
109738.17
109738.17
109738.17
109738.17
109738.17
109738.17
109738.17
109738.17
109738.17
109738.17
109738.17
109738.17
109738.17
109738.17
109738.17
109738.17
109738.17
109738.17
109738.17
109738.17
109738.17
109738.17
109738.17
109738.17
109738.17
109738.17
109738.17
109738.17
109738.17
109738.17
109738.17
109738.17
109738.17
109738.17
109738.17
109738.18
109738.18
109738.18
109738.18
109738.18
109738.18
109738.18
109738.18
109738.18
109738.18
109738.18
109738.18
109738.18
109738.18
109738.18
109738.18
109738.18
109738.18
109738.18
109738.18
109738.18
109738.18
109738.18
109738.18
109738.18
109738.18
109738.18
109738.18
109738.18
109738.18
109738.18
109738.18
109738.18
109738.18
109738.18
109738.18
109738.18
109738.18
109738.18
109738.18
109738.18
109738.18
109738.18
109738.18
109738.18
109738.18
109738.18
109738.18
109738.18
109738.18
109738.18
109738.18
109738.18
109738.18
109738.18
109738.18
109738.18
109738.18
109738.18
109738.18
109738.18
109738.18
109738.18
109738.18
109738.18
109738.18
109738.18
109738.18
109738.18
109738.18
109738.18
109738.18
109738.18
109738.18
109738.18
109738.18
109738.18
109738.18
109738.18
109738.18
109738.18
109738.18
109738.18
109738.18
109738.18
109738.18
109738.18
109738.18
109738.18
109738.18
109738.18
109738.18
109738.18
109738.18
109738.18
109738.18
109738.18
109738.18
109738.18
109738.18
109738.18
109738.18
109738.18
109738.18
109738.18
109738.18
109738.18
109738.18
109738.18
109738.18
109738.18
109738.18
109738.18
109738.18
109738.18
109738.18
109738.18
109738.18
109738.18
109738.18
109738.18
109738.18
109738.18
109738.18
109738.18
109738.18
109738.18
109738.18
109738.18
109738.18
109738.18
109738.18
109738.19
109738.19
109738.19
109738.19
109738.19
109738.19
109738.19
109738.19
109738.19
109738.19
109738.19
109738.19
109738.19
109738.19
109738.19
109738.19
109738.19
109738.19
109738.19
109738.19
109738.19
109738.19
109738.19
109738.19
109738.19
109738.19
109738.19
109738.19
109738.19
109738.19
109738.19
109738.19
109738.19
109738.19
109738.19
109738.19
109738.19
109738.19
109738.19
109738.19
109738.19
109738.19
109738.19
109738.19
109738.19
109738.19
109738.19
109738.19
109738.19
109738.19
109738.19
109738.19
109738.19
109738.19
109738.19
109738.19
109738.19
109738.19
109738.19
109738.19
109738.19
109738.19
109738.19
109738.19
109738.19
109738.19
109738.19
109738.19
109738.19
109738.19
109738.19
109738.19
109738.19
109738.19
109738.19
109738.19
109738.19
109738.19
109738.19
109738.19
109738.19
109738.19
109738.19
109738.19
109738.19
109738.19
109738.19
109738.19
109738.19
109738.19
109738.19
109738.19
109738.19
109738.19
109738.19
109738.19
109738.19
109738.19
109738.19
109738.19
109738.19
109738.19
109738.19
109738.19
109738.19
109738.19
109738.19
109738.19
109738.19
109738.19
109738.19
109738.19
109738.19
109738.19
109738.19
109738.19
109738.19
109738.19
109738.19
109738.19
109738.19
109738.19
109738.19
109738.19
109738.19
109738.19
109738.19
109738.19
109738.19
109738.19
109738.19
109738.2
109738.2
109738.2
109738.2
109738.2
109738.2
109738.2
109738.2
109738.2
109738.2
109738.2
109738.2
109738.2
109738.2
109738.2
109738.2
109738.2
109738.2
109738.2
109738.2
109738.2
109738.2
109738.2
109738.2
109738.2
109738.2
109738.2
109738.2
109738.2
109738.2
109738.2
109738.2
109738.2
109738.2
109738.2
109738.2
109738.2
109738.2
109738.2
109738.2
109738.2
109738.2
109738.2
109738.2
109738.2
109738.2
109738.2
109738.2
109738.2
109738.2
109738.2
109738.2
109738.2
109738.2
109738.2
109738.2
109738.2
109738.2
109738.2
109738.2
109738.2
109738.2
109738.2
109738.2
109738.2
109738.2
109738.2
109738.2
109738.2
109738.2
109738.2
109738.2
109738.2
109738.2
109738.2
109738.2
109738.2
109738.2
109738.2
109738.2
109738.2
109738.2
109738.2
109738.2
109738.2
109738.2
109738.2
109738.2
109738.2
109738.2
109738.2
109738.2
109738.2
109738.2
109738.2
109738.2
109738.2
109738.2
109738.2
109738.2
109738.2
109738.2
109738.2
109738.2
109738.2
109738.2
109738.2
109738.2
109738.2
109738.2
109738.2
109738.2
109738.2
109738.2
109738.2
109738.2
109738.2
109738.2
109738.2
109738.2
109738.2
109738.2
109738.2
109738.2
109738.2
109738.2
109738.2
109738.2
109738.2
109738.2
109738.2
109738.2
109738.2
109738.2
109738.2
109738.2
109738.2
109738.2
109738.2
109738.2
109738.2
109738.2
109738.2
109738.2
109738.21
109738.21
109738.21
109738.21
109738.21
109738.21
109738.21
109738.21
109738.21
109738.21
109738.21
109738.21
109738.21
109738.21
109738.21
109738.21
109738.21
109738.21
109738.21
109738.21
109738.21
109738.21
109738.21
109738.21
109738.21
109738.21
109738.21
109738.21
109738.21
109738.21
109738.21
109738.21
109738.21
109738.21
109738.21
109738.21
109738.21
109738.21
109738.21
109738.21
109738.21
109738.21
109738.21
109738.21
109738.21
109738.21
109738.21
109738.21
109738.21
109738.21
109738.21
109738.21
109738.21
109738.21
109738.21
109738.21
109738.21
109738.21
109738.21
109738.21
109738.21
109738.21
109738.21
109738.21
109738.21
109738.21
109738.21
109738.21
109738.21
109738.21
109738.21
109738.21
109738.21
109738.21
109738.21
109738.21
109738.21
109738.21
109738.21
109738.21
109738.21
109738.21
109738.21
109738.21
109738.21
109738.21
109738.21
109738.21
109738.21
109738.21
109738.21
109738.21
109738.21
109738.21
109738.21
109738.21
109738.21
109738.21
109738.21
109738.21
109738.21
109738.21
109738.21
109738.21
109738.21
109738.21
109738.21
109738.21
109738.21
109738.21
109738.21
109738.21
109738.21
109738.21
109738.21
109738.21
109738.21
109738.21
109738.21
109738.21
109738.21
109738.21
109738.21
109738.21
109738.21
109738.21
109738.21
109738.21
109738.21
109738.21
109738.21
109738.21
109738.21
109738.21
109738.21
109738.21
109738.21
109738.21
109738.21
109738.21
109738.21
109738.21
109738.21
109738.21
109738.21
109738.21
109738.21
109738.21
109738.21
109738.21
109738.21
109738.22
109738.22
109738.22
109738.22
109738.22
109738.22
109738.22
109738.22
109738.22
109738.22
109738.22
109738.22
109738.22
109738.22
109738.22
109738.22
109738.22
109738.22
109738.22
109738.22
109738.22
109738.22
109738.22
109738.22
109738.22
109738.22
109738.22
109738.22
109738.22
109738.22
109738.22
109738.22
109738.22
109738.22
109738.22
109738.22
109738.22
109738.22
109738.22
109738.22
109738.22
109738.22
109738.22
109738.22
109738.22
109738.22
109738.22
109738.22
109738.22
109738.22
109738.22
109738.22
109738.22
109738.22
109738.22
109738.22
109738.22
109738.22
109738.22
109738.22
109738.22
109738.22
109738.22
109738.22
109738.22
109738.22
109738.22
109738.22
109738.22
109738.22
109738.22
109738.22
109738.22
109738.22
109738.22
109738.22
109738.22
109738.22
109738.22
109738.22
109738.22
109738.22
109738.22
109738.22
109738.22
109738.22
109738.22
109738.22
109738.22
109738.22
109738.22
109738.22
109738.22
109738.22
109738.22
109738.22
109738.22
109738.22
109738.22
109738.22
109738.22
109738.22
109738.22
109738.22
109738.22
109738.22
109738.22
109738.22
109738.22
109738.22
109738.22
109738.22
109738.22
109738.22
109738.22
109738.22
109738.22
109738.22
109738.22
109738.22
109738.22
109738.22
109738.22
109738.22
109738.22
109738.22
109738.22
109738.22
109738.22
109738.22
109738.22
109738.22
109738.22
109738.22
109738.22
109738.22
109738.22
109738.22
109738.22
109738.22
109738.22
109738.22
109738.22
109738.22
109738.22
109738.22
109738.22
109738.22
109738.22
109738.22
109738.22
109738.22
109738.22
109738.22
109738.22
109738.22
109738.22
109738.22
109738.22
109738.22
109738.22
109738.22
109738.22
109738.22
109738.22
109738.22
109738.22
109738.22
109738.22
109738.22
109738.22
109738.22
109738.22
109738.23
109738.23
109738.23
109738.23
109738.23
109738.23
109738.23
109738.23
109738.23
109738.23
109738.23
109738.23
109738.23
109738.23
109738.23
109738.23
109738.23
109738.23
109738.23
109738.23
109738.23
109738.23
109738.23
109738.23
109738.23
109738.23
109738.23
109738.23
109738.23
109738.23
109738.23
109738.23
109738.23
109738.23
109738.23
109738.23
109738.23
109738.23
109738.23
109738.23
109738.23
109738.23
109738.23
109738.23
109738.23
109738.23
109738.23
109738.23
109738.23
109738.23
109738.23
109738.23
109738.23
109738.23
109738.23
109738.23
109738.23
109738.23
109738.23
109738.23
109738.23
109738.23
109738.23
109738.23
109738.23
109738.23
109738.23
109738.23
109738.23
109738.23
109738.23
109738.23
109738.23
109738.23
109738.23
109738.23
109738.23
109738.23
109738.23
109738.23
109738.23
109738.23
109738.23
109738.23
109738.23
109738.23
109738.23
109738.23
109738.23
109738.23
109738.23
109738.23
109738.23
109738.23
109738.23
109738.23
109738.23
109738.23
109738.23
109738.23
109738.23
109738.23
109738.23
109738.23
109738.23
109738.23
109738.23
109738.23
109738.23
109738.23
109738.23
109738.23
109738.23
109738.23
109738.23
109738.23
109738.23
109738.23
109738.23
109738.23
109738.23
109738.23
109738.23
109738.23
109738.23
109738.23
109738.23
109738.23
109738.23
109738.23
109738.23
109738.23
109738.23
109738.23
109738.23
109738.23
109738.23
109738.23
109738.23
109738.23
109738.23
109738.23
109738.23
109738.23
109738.23
109738.23
109738.23
109738.23
109738.23
109738.23
109738.23
109738.23
109738.23
109738.23
109738.23
109738.23
109738.23
109738.23
109738.23
109738.23
109738.23
109738.23
109738.23
109738.23
109738.23
109738.23
109738.23
109738.23
109738.23
109738.23
109738.23
109738.23
109738.24
109738.24
109738.24
109738.24
109738.24
109738.24
109738.24
109738.24
109738.24
109738.24
109738.24
109738.24
109738.24
109738.24
109738.24
109738.24
109738.24
109738.24
109738.24
109738.24
109738.24
109738.24
109738.24
109738.24
109738.24
109738.24
109738.24
109738.24
109738.24
109738.24
109738.24
109738.24
109738.24
109738.24
109738.24
109738.24
109738.24
109738.24
109738.24
109738.24
109738.24
109738.24
109738.24
109738.24
109738.24
109738.24
109738.24
109738.24
109738.24
109738.24
109738.24
109738.24
109738.24
109738.24
109738.24
109738.24
109738.24
109738.24
109738.24
109738.24
109738.24
109738.24
109738.24
109738.24
109738.24
109738.24
109738.24
109738.24
109738.24
109738.24
109738.24
109738.24
109738.24
109738.24
109738.24
109738.24
109738.24
109738.24
109738.24
109738.24
109738.24
109738.24
109738.24
109738.24
109738.24
109738.24
109738.24
109738.24
109738.24
109738.24
109738.24
109738.24
109738.24
109738.24
109738.24
109738.24
109738.24
109738.24
109738.24
109738.24
109738.24
109738.24
109738.24
109738.24
109738.24
109738.24
109738.24
109738.24
109738.24
109738.24
109738.24
109738.24
109738.24
109738.24
109738.24
109738.24
109738.24
109738.24
109738.24
109738.24
109738.24
109738.24
109738.24
109738.24
109738.24
109738.24
109738.24
109738.24
109738.24
109738.24
109738.24
109738.24
109738.24
109738.24
109738.24
109738.24
109738.24
109738.24
109738.24
109738.24
109738.24
109738.24
109738.24
109738.24
109738.24
109738.24
109738.24
109738.24
109738.24
109738.24
109738.24
109738.24
109738.24
109738.24
109738.24
109738.24
109738.24
109738.24
109738.24
109738.24
109738.24
109738.24
109738.24
109738.24
109738.24
109738.24
109738.24
109738.24
109738.24
109738.24
109738.24
109738.24
109738.24
109738.24
109738.24
109738.24
109738.24
109738.24
109738.24
109738.24
109738.24
109738.24
109738.24
109738.24
109738.24
109738.24
109738.24
109738.24
109738.24
109738.24
109738.24
109738.24
109738.25
109738.25
109738.25
109738.25
109738.25
109738.25
109738.25
109738.25
109738.25
109738.25
109738.25
109738.25
109738.25
109738.25
109738.25
109738.25
109738.25
109738.25
109738.25
109738.25
109738.25
109738.25
109738.25
109738.25
109738.25
109738.25
109738.25
109738.25
109738.25
109738.25
109738.25
109738.25
109738.25
109738.25
109738.25
109738.25
109738.25
109738.25
109738.25
109738.25
109738.25
109738.25
109738.25
109738.25
109738.25
109738.25
109738.25
109738.25
109738.25
109738.25
109738.25
109738.25
109738.25
109738.25
109738.25
109738.25
109738.25
109738.25
109738.25
109738.25
109738.25
109738.25
109738.25
109738.25
109738.25
109738.25
109738.25
109738.25
109738.25
109738.25
109738.25
109738.25
109738.25
109738.25
109738.25
109738.25
109738.25
109738.25
109738.25
109738.25
109738.25
109738.25
109738.25
109738.25
109738.25
109738.25
109738.25
109738.25
109738.25
109738.25
109738.25
109738.25
109738.25
109738.25
109738.25
109738.25
109738.25
109738.25
109738.25
109738.25
109738.25
109738.25
109738.25
109738.25
109738.25
109738.25
109738.25
109738.25
109738.25
109738.25
109738.25
109738.25
109738.25
109738.25
109738.25
109738.25
109738.25
109738.25
109738.25
109738.25
109738.25
109738.25
109738.25
109738.25
109738.25
109738.25
109738.25
109738.25
109738.25
109738.25
109738.24
109738.24
109738.24
109738.24
109738.24
109738.24
109738.24
109738.24
109738.24
109738.24
109738.24
109738.24
109738.24
109738.24
109738.24
109738.24
109738.24
109738.24
109738.24
109738.24
109738.24
109738.24
109738.24
109738.24
109738.24
109738.24
109738.24
109738.24
109738.24
109738.24
109738.24
109738.24
109738.24
109738.24
109738.24
109738.24
109738.24
109738.24
109738.24
109738.24
109738.24
109738.23
109738.23
109738.23
109738.23
109738.23
109738.23
109738.23
109738.23
109738.23
109738.23
109738.23
109738.23
109738.23
109738.23
109738.23
109738.23
109738.23
109738.22
109738.22
109738.22
109738.22
109738.22
109738.22
109738.22
109738.22
109738.22
109738.22
109738.22
109738.22
109738.21
109738.21
109738.21
109738.21
109738.21
109738.21
109738.21
109738.21
109738.2
109738.2
109738.2
109738.2
109738.2
109738.2
109738.2
109738.19
109738.19
109738.19
109738.19
109738.19
109738.19
109738.18
109738.18
109738.18
109738.18
109738.18
109738.17
109738.17
109738.17
109738.17
109738.17
109738.16
109738.16
109738.16
109738.16
109738.15
109738.15
109738.15
109738.15
109738.14
109738.14
109738.14
109738.13
109738.13
109738.13
109738.12
109738.12
109738.12
109738.11
109738.11
109738.11
109738.1
109738.1
109738.09
109738.09
109738.09
109738.08
109738.08
109738.07
109738.07
109738.06
109738.06
109738.05
109738.05
109738.04
109738.04
109738.03
109738.03
109738.02
109738.02
109738.01
109738
109738
109737.99
109737.98
109737.98
109737.97
109737.96
109737.96
109737.95
109737.94
109737.94
109737.93
109737.92
109737.91
109737.9
109737.9
109737.89
109737.88
109737.87
109737.86
109737.85
109737.84
109737.83
109737.82
109737.81
109737.8
109737.79
109737.78
109737.77
109737.76
109737.75
109737.73
109737.72
109737.71
109737.7
109737.69
109737.67
109737.66
109737.65
109737.63
109737.62
109737.61
109737.59
109737.58
109737.56
109737.55
109737.53
109737.52
109737.5
109737.48
109737.47
109737.45
109737.43
109737.41
109737.4
109737.38
109737.36
109737.34
109737.32
109737.3
109737.28
109737.26
109737.24
109737.22
109737.2
109737.18
109737.16
109737.13
109737.11
109737.09
109737.06
109737.04
109737.02
109736.99
109736.97
109736.94
109736.91
109736.89
109736.86
109736.83
109736.81
109736.78
109736.75
109736.72
109736.69
109736.66
109736.63
109736.6
109736.57
109736.53
109736.5
109736.47
109736.44
109736.4
109736.37
109736.33
109736.3
109736.26
109736.23
109736.19
109736.15
109736.11
109736.07
109736.04
109736
109735.96
109735.91
109735.87
109735.83
109735.79
109735.75
109735.7
109735.66
109735.61
109735.57
109735.52
109735.48
109735.43
109735.38
109735.33
109735.28
109735.23
109735.18
109735.13
109735.08
109735.03
109734.98
109734.92
109734.87
109734.81
109734.76
109734.7
109734.64
109734.59
109734.53
109734.47
109734.41
109734.35
109734.29
109734.23
109734.17
109734.1
109734.04
109733.98
109733.91
109733.85
109733.78
109733.71
109733.65
109733.58
109733.51
109733.44
109733.37
109733.3
109733.23
109733.15
109733.08
109733.01
109732.93
109732.86
109732.78
109732.71
109732.63
109732.55
109732.47
109732.39
109732.31
109732.23
109732.15
109732.07
109731.98
109731.9
109731.82
109731.73
109731.65
109731.56
109731.47
109731.39
109731.3
109731.21
109731.12
109731.03
109730.94
109730.85
109730.75
109730.66
109730.57
109730.47
109730.38
109730.28
109730.18
109730.09
109729.99
109729.89
109729.79
109729.69
109729.59
109729.49
109729.39
109729.29
109729.19
109729.08
109728.98
109728.88
109728.77
109728.67
109728.56
109728.45
109728.35
109728.24
109728.13
109728.02
109727.91
109727.8
109727.69
109727.58
109727.47
109727.36
109727.25
109727.13
109727.02
109726.91
109726.79
109726.68
109726.56
109726.45
109726.33
109726.22
109726.1
109725.98
109725.87
109725.75
109725.63
109725.51
109725.39
109725.27
109725.16
109725.04
109724.92
109724.8
109724.68
109724.55
109724.43
109724.31
109724.19
109724.07
109723.95
109723.83
109723.7
109723.58
109723.46
109723.33
109723.21
109723.09
109722.97
109722.84
109722.72
109722.59
109722.47
109722.35
109722.22
109722.1
109721.98
109721.85
109721.73
109721.6
109721.48
109721.36
109721.23
109721.11
109720.98
109720.86
109720.74
109720.61
109720.49
109720.37
109720.24
109720.12
109720
109719.87
109719.75
109719.63
109719.5
109719.38
109719.26
109719.14
109719.02
109718.89
109718.77
109718.65
109718.53
109718.41
109718.29
109718.17
109718.05
109717.93
109717.81
109717.69
109717.58
109717.46
109717.34
109717.22
109717.11
109716.99
109716.87
109716.76
109716.64
109716.53
109716.41
109716.3
109716.19
109716.07
109715.96
109715.85
109715.74
109715.63
109715.52
109715.41
109715.3
109715.19
109715.08
109714.97
109714.86
109714.76
109714.65
109714.54
109714.44
109714.33
109714.23
109714.13
109714.02
109713.92
109713.82
109713.72
109713.62
109713.52
109713.42
109713.32
109713.22
109713.12
109713.03
109712.93
109712.83
109712.74
109712.64
109712.55
109712.46
109712.37
109712.27
109712.18
109712.09
109712
109711.91
109711.83
109711.74
109711.65
109711.57
109711.48
109711.4
109711.31
109711.23
109711.15
109711.06
109710.98
109710.9
109710.82
109710.74
109710.66
109710.59
109710.51
109710.43
109710.36
109710.28
109710.21
109710.13
109710.06
109709.99
109709.92
109709.85
109709.78
109709.71
109709.64
109709.57
109709.5
109709.44
109709.37
109709.31
109709.24
109709.18
109709.11
109709.05
109708.99
109708.93
109708.87
109708.81
109708.75
109708.69
109708.63
109708.58
109708.52
109708.46
109708.41
109708.35
109708.3
109708.25
109708.19
109708.14
109708.09
109708.04
109707.99
109707.94
109707.89
109707.84
109707.79
109707.75
109707.7
109707.65
109707.61
109707.56
109707.52
109707.48
109707.43
109707.39
109707.35
109707.31
109707.27
109707.23
109707.19
109707.15
109707.11
109707.07
109707.03
109707
109706.96
109706.92
109706.89
109706.85
109706.82
109706.78
109706.75
109706.72
109706.68
109706.65
109706.62
109706.59
109706.56
109706.53
109706.5
109706.47
109706.44
109706.41
109706.38
109706.36
109706.33
109706.3
109706.27
109706.25
109706.22
109706.2
109706.17
109706.15
109706.12
109706.1
109706.08
109706.05
109706.03
109706.01
109705.99
109705.97
109705.94
109705.92
109705.9
109705.88
109705.86
109705.84
109705.82
109705.81
109705.79
109705.77
109705.75
109705.73
109705.71
109705.7
109705.68
109705.66
109705.65
109705.63
109705.62
109705.6
109705.59
109705.57
109705.56
109705.54
109705.53
109705.51
109705.5
109705.49
109705.47
109705.46
109705.45
109705.43
109705.42
109705.41
109705.4
109705.39
109705.37
109705.36
109705.35
109705.34
109705.33
109705.32
109705.31
109705.3
109705.29
109705.28
109705.27
109705.26
109705.25
109705.24
109705.23
109705.22
109705.21
109705.21
109705.2
109705.19
109705.18
109705.17
109705.17
109705.16
109705.15
109705.14
109705.14
109705.13
109705.12
109705.11
109705.11
109705.1
109705.09
109705.09
109705.08
109705.08
109705.07
109705.06
109705.06
109705.05
109705.05
109705.04
109705.03
109705.03
109705.02
109705.02
109705.01
109705.01
109705
109705
109704.99
109704.99
109704.98
109704.98
109704.98
109704.97
109704.97
109704.96
109704.96
109704.95
109704.95
109704.95
109704.94
109704.94
109704.93
109704.93
109704.93
109704.92
109704.92
109704.92
109704.91
109704.91
109704.91
109704.9
109704.9
109704.9
109704.89
109704.89
109704.89
109704.88
109704.88
109704.88
109704.88
109704.87
109704.87
109704.87
109704.86
109704.86
109704.86
109704.86
109704.85
109704.85
109704.85
109704.85
109704.84
109704.84
109704.84
109704.84
109704.83
109704.83
109704.83
109704.83
109704.82
109704.82
109704.82
109704.82
109704.81
109704.81
109704.81
109704.81
109704.81
109704.8
109704.8
109704.8
109704.8
109704.79
109704.79
109704.79
109704.79
109704.79
109704.78
109704.78
109704.78
109704.78
109704.78
109704.77
109704.77
109704.77
109704.77
109704.77
109704.76
109704.76
109704.76
109704.76
109704.76
109704.75
109704.75
109704.75
109704.75
109704.75
109704.74
109704.74
109704.74
109704.74
109704.74
109704.73
109704.73
109704.73
109704.73
109704.72
109704.72
109704.72
109704.72
109704.72
109704.71
109704.71
109704.71
109704.71
109704.71
109704.7
109704.7
109704.7
109704.7
109704.69
109704.69
109704.69
109704.69
109704.69
109704.68
109704.68
109704.68
109704.68
109704.67
109704.67
109704.67
109704.67
109704.66
109704.66
109704.66
109704.66
109704.66
109704.65
109704.65
109704.65
109704.65
109704.64
109704.64
109704.64
109704.63
109704.63
109704.63
109704.63
109704.62
109704.62
109704.62
109704.62
109704.61
109704.61
109704.61
109704.6
109704.6
109704.6
109704.6
109704.59
109704.59
109704.59
109704.58
109704.58
109704.58
109704.58
109704.57
109704.57
109704.57
109704.56
109704.56
109704.56
109704.55
109704.55
109704.55
109704.54
109704.54
109704.54
109704.53
109704.53
109704.53
109704.52
109704.52
109704.52
109704.51
109704.51
109704.5
109704.5
109704.5
109704.49
109704.49
109704.49
109704.48
109704.48
109704.47
109704.47
109704.47
109704.46
109704.46
109704.45
109704.45
109704.45
109704.44
109704.44
109704.43
109704.43
109704.43
109704.42
109704.42
109704.41
109704.41
109704.4
109704.4
109704.4
109704.39
109704.39
109704.38
109704.38
109704.37
109704.37
109704.36
109704.36
109704.35
109704.35
109704.34
109704.34
109704.33
109704.33
109704.33
109704.32
109704.32
109704.31
109704.31
109704.3
109704.3
109704.29
109704.28
109704.28
109704.27
109704.27
109704.26
109704.26
109704.25
109704.25
109704.24
109704.24
109704.23
109704.23
109704.22
109704.21
109704.21
109704.2
109704.2
109704.19
109704.19
109704.18
109704.17
109704.17
109704.16
109704.16
109704.15
109704.15
109704.14
109704.13
109704.13
109704.12
109704.11
109704.11
109704.1
109704.1
109704.09
109704.08
109704.08
109704.07
109704.06
109704.06
109704.05
109704.05
109704.04
109704.03
109704.03
109704.02
109704.01
109704.01
109704
109703.99
109703.99
109703.98
109703.97
109703.97
109703.96
109703.95
109703.94
109703.94
109703.93
109703.92
109703.92
109703.91
109703.9
109703.9
109703.89
109703.88
109703.87
109703.87
109703.86
109703.85
109703.85
109703.84
109703.83
109703.82
109703.82
109703.81
109703.8
109703.79
109703.79
109703.78
109703.77
109703.76
109703.76
109703.75
109703.74
109703.73
109703.73
109703.72
109703.71
109703.7
109703.69
109703.69
109703.68
109703.67
109703.66
109703.65
109703.65
109703.64
109703.63
109703.62
109703.62
109703.61
109703.6
109703.59
109703.58
109703.57
109703.57
109703.56
109703.55
109703.54
109703.53
109703.53
109703.52
109703.51
109703.5
109703.49
109703.48
109703.48
109703.47
109703.46
109703.45
109703.44
109703.43
109703.43
109703.42
109703.41
109703.4
109703.39
109703.38
109703.38
109703.37
109703.36
109703.35
109703.34
109703.33
109703.33
109703.32
109703.31
109703.3
109703.29
109703.28
109703.27
109703.27
109703.26
109703.25
109703.24
109703.23
109703.22
109703.21
109703.21
109703.2
109703.19
109703.18
109703.17
109703.16
109703.15
109703.15
109703.14
109703.13
109703.12
109703.11
109703.1
109703.09
109703.09
109703.08
109703.07
109703.06
109703.05
109703.04
109703.03
109703.02
109703.02
109703.01
109703
109702.99
109702.98
109702.97
109702.96
109702.96
109702.95
109702.94
109702.93
109702.92
109702.91
109702.9
109702.9
109702.89
109702.88
109702.87
109702.86
109702.85
109702.85
109702.84
109702.83
109702.82
109702.81
109702.8
109702.79
109702.79
109702.78
109702.77
109702.76
109702.75
109702.74
109702.74
109702.73
109702.72
109702.71
109702.7
109702.69
109702.69
109702.68
109702.67
109702.66
109702.65
109702.65
109702.64
109702.63
109702.62
109702.61
109702.61
109702.6
109702.59
109702.58
109702.57
109702.57
109702.56
109702.55
109702.54
109702.53
109702.53
109702.52
109702.51
109702.5
109702.5
109702.49
109702.48
109702.47
109702.46
109702.46
109702.45
109702.44
109702.43
109702.43
109702.42
109702.41
109702.4
109702.4
109702.39
109702.38
109702.37
109702.37
109702.36
109702.35
109702.35
109702.34
109702.33
109702.32
109702.32
109702.31
109702.3
109702.3
109702.29
109702.28
109702.27
109702.27
109702.26
109702.25
109702.25
109702.24
109702.23
109702.23
109702.22
109702.21
109702.21
109702.2
109702.19
109702.19
109702.18
109702.17
109702.17
109702.16
109702.15
109702.15
109702.14
109702.14
109702.13
109702.12
109702.12
109702.11
109702.1
109702.1
109702.09
109702.09
109702.08
109702.07
109702.07
109702.06
109702.06
109702.05
109702.05
109702.04
109702.03
109702.03
109702.02
109702.02
109702.01
109702.01
109702
109701.99
109701.99
109701.98
109701.98
109701.97
109701.97
109701.96
109701.96
109701.95
109701.95
109701.94
109701.94
109701.93
109701.93
109701.92
109701.92
109701.91
109701.91
109701.9
109701.9
109701.89
109701.89
109701.88
109701.88
109701.87
109701.87
109701.86
109701.86
109701.85
109701.85
109701.85
109701.84
109701.84
109701.83
109701.83
109701.82
109701.82
109701.82
109701.81
109701.81
109701.8
109701.8
109701.8
109701.79
109701.79
109701.78
109701.78
109701.78
109701.77
109701.77
109701.76
109701.76
109701.76
109701.75
109701.75
109701.75
109701.74
109701.74
109701.73
109701.73
109701.73
109701.72
109701.72
109701.72
109701.71
109701.71
109701.71
109701.7
109701.7
109701.7
109701.69
109701.69
109701.69
109701.69
109701.68
109701.68
109701.68
109701.67
109701.67
109701.67
109701.66
109701.66
109701.66
109701.66
109701.65
109701.65
109701.65
109701.65
109701.64
109701.64
109701.64
109701.64
109701.63
109701.63
109701.63
109701.63
109701.62
109701.62
109701.62
109701.62
109701.61
109701.61
109701.61
109701.61
109701.6
109701.6
109701.6
109701.6
109701.6
109701.59
109701.59
109701.59
109701.59
109701.59
109701.58
109701.58
109701.58
109701.58
109701.58
109701.57
109701.57
109701.57
109701.57
109701.57
109701.57
109701.56
109701.56
109701.56
109701.56
109701.56
109701.56
109701.55
109701.55
109701.55
109701.55
109701.55
109701.55
109701.54
109701.54
109701.54
109701.54
109701.54
109701.54
109701.54
109701.53
109701.53
109701.53
109701.53
109701.53
109701.53
109701.53
109701.53
109701.52
109701.52
109701.52
109701.52
109701.52
109701.52
109701.52
109701.52
109701.52
109701.51
109701.51
109701.51
109701.51
109701.51
109701.51
109701.51
109701.51
109701.51
109701.51
109701.5
109701.5
109701.5
109701.5
109701.5
109701.5
109701.5
109701.5
109701.5
109701.5
109701.5
109701.5
109701.49
109701.49
109701.49
109701.49
109701.49
109701.49
109701.49
109701.49
109701.49
109701.49
109701.49
109701.49
109701.49
109701.49
109701.48
109701.48
109701.48
109701.48
109701.48
109701.48
109701.48
109701.48
109701.48
109701.48
109701.48
109701.48
109701.48
109701.48
109701.48
109701.48
109701.48
109701.48
109701.48
109701.47
109701.47
109701.47
109701.47
109701.47
109701.47
109701.47
109701.47
109701.47
109701.47
109701.47
109701.47
109701.47
109701.47
109701.47
109701.47
109701.47
109701.47
109701.47
109701.47
109701.47
109701.47
109701.47
109701.47
109701.47
109701.47
109701.47
109701.46
109701.46
109701.46
109701.46
109701.46
109701.46
109701.46
109701.46
109701.46
109701.46
109701.46
109701.46
109701.46
109701.46
109701.46
109701.46
109701.46
109701.46
109701.46
109701.46
109701.46
109701.46
109701.46
109701.46
109701.46
109701.46
109701.46
109701.46
109701.46
109701.46
109701.46
109701.46
109701.46
109701.46
109701.46
109701.46
109701.46
109701.46
109701.46
109701.46
109701.46
109701.46
109701.46
109701.46
109701.45
109701.45
109701.45
109701.45
109701.45
109701.45
109701.45
109701.45
109701.45
109701.45
109701.45
109701.45
109701.45
109701.45
109701.45
109701.45
109701.45
109701.45
109701.45
109701.45
109701.45
109701.45
109701.45
109701.45
109701.45
109701.45
109701.45
109701.45
109701.45
109701.45
109701.45
109701.45
109701.45
109701.45
109701.45
109701.45
109701.45
109701.45
109701.45
109701.45
109701.45
109701.45
109701.45
109701.45
109701.45
109701.45
109701.45
109701.45
109701.45
109701.44
109701.44
109701.44
109701.44
109701.44
109701.44
109701.44
109701.44
109701.44
109701.44
109701.44
109701.44
109701.44
109701.44
109701.44
109701.44
109701.44
109701.44
109701.44
109701.44
109701.44
109701.44
109701.44
109701.44
109701.44
109701.44
109701.44
109701.44
109701.44
109701.44
109701.43
109701.43
109701.43
109701.43
109701.43
109701.43
109701.43
109701.43
109701.43
109701.43
109701.43
109701.43
109701.43
109701.43
109701.43
109701.43
109701.43
109701.43
109701.42
109701.42
109701.42
109701.42
109701.42
109701.42
109701.42
109701.42
109701.42
109701.42
109701.42
109701.42
109701.41
109701.41
109701.41
109701.41
109701.41
109701.41
109701.41
109701.41
109701.41
109701.4
109701.4
109701.4
109701.4
109701.4
109701.4
109701.4
109701.4
109701.39
109701.39
109701.39
109701.39
109701.39
109701.39
109701.39
109701.38
109701.38
109701.38
109701.38
109701.38
109701.37
109701.37
109701.37
109701.37
109701.37
109701.37
109701.36
109701.36
109701.36
109701.36
109701.35
109701.35
109701.35
109701.35
109701.34
109701.34
109701.34
109701.34
109701.33
109701.33
109701.33
109701.32
109701.32
109701.32
109701.32
109701.31
109701.31
109701.31
109701.3
109701.3
109701.29
109701.29
109701.29
109701.28
109701.28
109701.28
109701.27
109701.27
109701.26
109701.26
109701.25