/*--------------------------------*- C++ -*----------------------------------*\
  =========                 |
  \\      /  F ield         | OpenFOAM: The Open Source CFD Toolbox
   \\    /   O peration     | Website:  https://openfoam.org
    \\  /    A nd           | Version:  7
     \\/     M anipulation  |
\*---------------------------------------------------------------------------*/
FoamFile
{
    version     2.0;
    format      ascii;
    class       volScalarField;
    location    "0.00345";
    object      Uz;
}
// * * * * * * * * * * * * * * * * * * * * * * * * * * * * * * * * * * * * * //

dimensions      [0 1 -1 0 0 0 0];

internalField   nonuniform List<scalar> 
5000
(
0
0
0
0
0
-7.446708e-22
-1.579022e-36
2.2086861e-21
7.2925594e-22
-1.4390651e-21
-1.4130973e-21
6.9013126e-22
-5.5126557e-36
-5.5612511e-36
1.3351676e-21
-1.4003713e-21
-3.3997292e-52
-6.351698e-36
-7.2205457e-22
1.4437143e-21
7.2102687e-22
0
0
-7.146285e-22
6.060431e-36
-5.8187367e-36
-7.005388e-22
6.9533278e-22
6.9010104e-22
-6.8290106e-22
1.187711e-35
-5.8368572e-36
-6.9259429e-22
6.9899317e-22
7.031655e-22
0
0
-7.0329264e-22
-6.975446e-22
6.9089818e-22
-1.1489384e-35
-6.7850708e-22
6.7174918e-22
-1.136075e-35
-6.7869519e-22
6.8665133e-22
-2.3833726e-35
2.3828701e-35
-2.3903178e-35
1.1786081e-35
6.8422579e-22
0
0
0
0
0
0
0
0
0
0
0
0
-6.5496405e-22
-6.5846938e-22
6.6840904e-22
-1.1645361e-35
-8.1811971e-53
6.8312879e-22
0
0
-6.5509644e-22
-6.4739269e-22
0
6.6440794e-22
2.3290995e-35
-6.7994235e-22
-6.7781353e-22
6.6938202e-22
1.3240747e-21
-1.3053179e-21
3.6754037e-37
1.9576852e-21
-1.3272412e-21
-6.9918554e-35
1.3520716e-21
-2.0216426e-21
6.6695412e-22
6.6098371e-22
-6.5361194e-22
6.4820766e-22
6.5205298e-22
2.3017572e-35
-1.3394668e-21
-4.6645598e-35
-6.7129359e-22
-6.6422814e-22
-2.3117789e-35
4.5321892e-35
1.2924476e-21
6.5262876e-22
-6.6315766e-22
9.5469599e-38
6.7264994e-22
0
-6.5939683e-22
-2.2684839e-35
6.4629236e-22
-6.5079749e-22
-6.6056677e-22
1.3390383e-21
6.717666e-22
-2.0015019e-21
-6.619139e-22
1.9692207e-21
-6.5225121e-22
-6.5429749e-22
-3.7580165e-37
-6.6809914e-22
2.0117015e-21
-4.6707543e-35
-1.3294624e-21
1.3231482e-21
6.5909366e-22
-6.5997099e-22
6.6405829e-22
-6.6851514e-22
-1.3403601e-21
6.6881125e-22
2.3036914e-35
6.6551518e-22
1.3287022e-21
-6.6518653e-22
-6.677503e-22
-6.7004654e-22
-2.3350463e-35
-2.3233773e-35
2.3305035e-35
1.3373811e-21
6.6844228e-22
-6.6950211e-22
-1.3423911e-21
-6.7223957e-22
-6.7219303e-22
4.6596044e-35
1.3432933e-21
-1.9085644e-37
1.9100262e-37
-1.8786919e-52
6.7389806e-22
-4.6751563e-35
9.389375e-35
6.7421924e-22
-6.7431212e-22
6.7470558e-22
2.341721e-35
-6.7593796e-22
6.7625289e-22
-9.6127625e-38
-6.7661924e-22
0
6.7713967e-22
4.6889499e-35
-1.3557673e-21
6.781773e-22
-1.9282744e-37
-6.7872938e-22
6.7903956e-22
-6.7943326e-22
6.7992324e-22
-2.8353118e-34
-1.8893075e-34
6.8165681e-22
-1.3645761e-21
0
-4.7386903e-35
-1.4214367e-34
6.7884882e-22
6.775165e-22
4.6890302e-35
-6.7924986e-22
6.776787e-22
4.6562605e-35
2.8872737e-37
9.4002656e-35
-1.3616001e-21
6.8659866e-22
6.9550391e-22
-4.8445903e-35
4.9437611e-35
-1.3846971e-34
4.4642225e-35
-4.229064e-22
0
0
0
0
-6.6487505e-22
1.4514414e-34
6.9001962e-22
6.8613227e-22
-6.8608593e-22
-6.8303626e-22
1.3616635e-21
4.7269659e-35
-1.4246992e-34
-6.8717001e-22
-6.8606262e-22
6.8362808e-22
0
6.8175265e-22
4.748305e-35
-6.9014653e-22
-6.9082514e-22
9.5925668e-35
6.8608514e-22
-1.3666076e-21
6.8235335e-22
6.855652e-22
-6.8975728e-22
6.9126463e-22
0
0
0
6.8191524e-22
-6.8433418e-22
-1.3786623e-21
6.9208875e-22
-4.7972997e-35
6.8746851e-22
6.8452232e-22
-1.3643945e-21
1.9416889e-37
-1.9528924e-37
6.9003362e-22
6.8981273e-22
-1.3766012e-21
9.7518191e-38
-1.4263281e-34
6.8544092e-22
-3.8168938e-34
-9.5445692e-35
6.8697881e-22
-6.8438989e-22
0
-6.8045892e-22
6.833345e-22
6.8754646e-22
-6.8870372e-22
0
-6.8241649e-22
6.7863725e-22
6.757198e-22
-2.3523454e-34
-1.3654729e-21
-1.3731513e-21
2.0582627e-21
1.3663243e-21
0
-1.3570626e-21
-6.7686543e-22
6.7775677e-22
6.8018297e-22
6.822509e-22
-1.3654889e-21
-1.3632208e-21
6.7951342e-22
1.3553135e-21
1.8733281e-34
-1.3461245e-21
6.7347921e-22
-9.385337e-35
-6.7859861e-22
1.3548286e-21
-6.7467392e-22
9.344877e-35
6.6756861e-22
-6.670135e-22
6.7054351e-22
-1.3480643e-21
2.8142789e-34
1.3442915e-21
-1.3377236e-21
-4.6060327e-35
6.6405839e-22
0
0
6.6955163e-22
-6.6786702e-22
-1.3291899e-21
6.617091e-22
-1.8803033e-37
6.647681e-22
6.671513e-22
-6.6522805e-22
0
-6.5786395e-22
-6.546585e-22
0
1.3224584e-21
6.6369582e-22
-1.3211731e-21
4.5413159e-35
-1.8505282e-37
6.472468e-22
6.4951679e-22
-6.5603397e-22
6.5921469e-22
-6.5659518e-22
3.7075064e-37
1.2933338e-21
-6.4214256e-22
-6.4283047e-22
-6.4831164e-22
-9.0652662e-35
6.5415719e-22
0
0
-6.4177406e-22
8.8635397e-35
-1.7774978e-34
-8.9766006e-35
6.490798e-22
-6.476066e-22
9.1511776e-38
6.4010487e-22
0
0
0
0
0
0
0
-6.342447e-22
0
6.3186959e-22
0
-6.3838349e-22
-1.7687805e-34
6.3480512e-22
0
0
-6.2700365e-22
-8.7407163e-35
6.3293278e-22
0
0
-6.2916218e-22
-6.2621632e-22
6.2393142e-22
6.2530676e-22
0
-6.3002095e-22
8.9227251e-38
6.2510061e-22
-6.2199841e-22
-6.1944182e-22
6.2041979e-22
6.2425128e-22
0
-6.2516179e-22
-6.223784e-22
6.193157e-22
6.1654581e-22
0
-6.1836053e-22
-6.2157064e-22
6.2294477e-22
6.217683e-22
0
0
0
0
0
0
0
0
-6.183218e-22
-1.5438417e-51
6.1527227e-22
0
0
0
-6.1144959e-22
-8.5255449e-35
6.1588313e-22
-6.1394939e-22
8.4900475e-35
-8.6445824e-38
-8.4101078e-35
6.0753562e-22
-6.12447e-22
6.1539322e-22
-3.4106411e-34
-6.1030318e-22
6.0680386e-22
0
0
-6.0623952e-22
-8.4672409e-35
6.1138334e-22
-6.1117186e-22
-6.0939604e-22
0
6.0849395e-22
6.1128959e-22
-6.1206896e-22
-1.6901512e-34
4.9501999e-52
-8.3487687e-35
5.9802865e-22
-6.0001959e-22
1.4210412e-51
-8.4741125e-35
-6.1204901e-22
0
0
6.0549014e-22
8.5715899e-38
-2.5001053e-34
6.0106464e-22
0
0
-6.1143897e-22
1.6927138e-34
6.0704258e-22
0
0
0
-6.0085804e-22
8.6196173e-38
6.1080056e-22
-6.1053304e-22
6.0737922e-22
-1.6814045e-34
-1.2038277e-21
5.9959054e-22
2.5054353e-34
8.4172408e-35
-8.4664641e-35
-6.0965218e-22
0
0
6.0176487e-22
8.3336084e-35
-1.6730272e-34
-3.0622699e-53
-6.1013917e-22
6.0851309e-22
6.0594111e-22
0
-6.0078561e-22
-8.3535413e-35
6.0559335e-22
0
0
-6.0675712e-22
1.7173496e-37
-7.708849e-53
-6.0142837e-22
6.0429757e-22
-8.4181906e-35
8.4498128e-35
-1.685268e-34
-6.0530833e-22
6.0315003e-22
-1.6713127e-34
1.6773781e-34
-1.685419e-34
-6.079238e-22
6.0687131e-22
-1.6804212e-34
8.3921969e-35
0
-6.0366913e-22
6.0588877e-22
-8.423537e-35
8.6100519e-38
-8.3863266e-35
8.3697571e-35
6.0182206e-22
-6.0399473e-22
-6.0564428e-22
6.0524773e-22
6.0402121e-22
0
-5.9988429e-22
-6.0045499e-22
0
6.0558526e-22
-8.3912032e-35
8.5564919e-38
8.3160495e-35
-5.9750003e-22
5.9839223e-22
8.3461422e-35
-1.6774742e-34
-6.0304884e-22
-6.0083253e-22
1.1971802e-21
-8.4814067e-38
8.2873815e-35
5.9963936e-22
-6.0120422e-22
8.3422668e-35
5.9940672e-22
0
0
0
-5.9864186e-22
-5.9827709e-22
5.9661921e-22
5.9485961e-22
0
-5.9618166e-22
-5.9759e-22
5.96368e-22
5.9426067e-22
0
-5.8920124e-22
-5.9021863e-22
5.9358255e-22
1.6534011e-34
-5.9358544e-22
0
0
0
0
5.9061965e-22
-1.6448179e-34
-5.9092019e-22
5.8779017e-22
8.1130704e-35
-8.0823189e-35
-9.7478819e-53
5.866524e-22
5.8898493e-22
-1.1751381e-21
-8.1202241e-35
8.062517e-35
-5.782125e-22
0
5.8176827e-22
5.8460378e-22
-5.8451074e-22
-1.6152747e-34
5.7918287e-22
0
0
-5.7757968e-22
8.0579463e-35
5.8154714e-22
0
-5.759436e-22
8.1348037e-38
-1.5820426e-34
-7.9252219e-35
5.7557447e-22
-5.7809867e-22
8.1972409e-38
-1.594846e-34
-5.7190479e-22
5.6996808e-22
1.5839861e-34
8.1259871e-38
-7.9458696e-35
-5.7106823e-22
5.6841752e-22
0
-3.1347797e-34
-7.8636015e-35
-2.368955e-34
-8.0912583e-38
-5.6725536e-22
5.6416995e-22
-1.9255356e-52
-7.7732008e-35
1.5619391e-34
-7.8409192e-35
1.1290814e-21
-5.6305508e-22
-5.5993967e-22
-7.7371394e-35
7.7453593e-35
1.1226564e-21
-5.6312731e-22
-5.6044087e-22
1.331882e-52
0
-1.5125105e-52
-5.5060195e-22
5.563775e-22
7.6868115e-53
-7.7514926e-35
-7.8855641e-38
-5.5098846e-22
1.0938776e-21
1.5137295e-34
-5.4802277e-22
7.6641551e-35
-7.7059663e-35
5.5524353e-22
-5.5292618e-22
-3.5315178e-52
-2.2883663e-34
1.5208468e-34
-1.5152267e-34
-1.5167474e-34
-1.9497361e-53
0
5.4998619e-22
0
0
-5.4351382e-22
-1.5034681e-34
5.418409e-22
0
0
-1.0900663e-21
-4.5213401e-34
1.0816509e-21
-5.3887089e-22
7.6594906e-38
-7.5084518e-35
-5.4214029e-22
0
0
0
-5.3536938e-22
-1.4881973e-34
5.3838677e-22
0
0
-5.3524986e-22
7.5722211e-38
5.3182352e-22
0
0
-5.3555311e-22
-1.4804974e-34
-1.4758912e-34
1.4699792e-34
5.310526e-22
-5.3238213e-22
1.4754834e-34
-1.4694557e-34
1.4554079e-34
5.2029264e-22
0
0
-5.3129547e-22
-5.5289922e-51
5.2714311e-22
0
0
-5.1289141e-22
2.3732244e-51
5.244365e-22
0
0
-5.2475578e-22
-1.9261549e-51
5.1776308e-22
0
0
-5.1866034e-22
7.4312576e-38
5.2507159e-22
-5.2339895e-22
1.4441756e-34
-1.4355801e-34
1.4242196e-34
5.1048349e-22
0
0
0
0
0
-5.1345769e-22
1.4150425e-34
5.0793797e-22
0
0
0
0
0
0
0
-5.0736009e-22
2.8337565e-34
5.1286087e-22
0
0
0
0
0
0
0
-5.1094645e-22
1.4109099e-34
5.0541334e-22
0
0
-5.0028912e-22
1.4027689e-34
5.0828083e-22
0
0
0
-4.9731774e-22
-1.3756816e-34
4.9762508e-22
0
0
0
0
0
0
0
-4.961873e-22
7.0863362e-38
5.0145865e-22
0
0
0
0
0
0
0
-4.9951885e-22
-7.0854122e-38
4.9671281e-22
0
0
0
-4.9652613e-22
2.7664397e-34
4.961117e-22
0
-4.8969182e-22
-1.3531392e-34
4.888868e-22
0
0
-4.9663972e-22
-4.9518249e-22
4.9374777e-22
4.9248073e-22
0
0
0
0
4.9506505e-22
-7.0296889e-38
-9.8874888e-22
-4.9448306e-22
9.8983496e-22
9.9037099e-22
-4.9504805e-22
-4.948009e-22
0
0
0
0
-4.9499993e-22
-1.3752859e-34
4.9497924e-22
0
0
0
0
0
0
0
0
0
0
0
0
0
0
-4.9610674e-22
2.7509484e-34
4.9489342e-22
0
0
4.9332215e-22
-1.3734413e-34
7.0576478e-38
-4.9866113e-22
-5.003199e-22
-2.784357e-34
1.3945364e-34
5.0187017e-22
0
0
0
0
0
-5.0184345e-22
2.7907433e-34
5.034972e-22
0
0
0
0
0
0
0
-5.05606e-22
2.8103955e-34
5.069537e-22
0
0
0
0
0
0
0
-5.1148417e-22
4.2641251e-34
5.1261135e-22
0
0
0
0
0
0
0
0
-5.1729822e-22
7.3573178e-38
5.1813878e-22
0
0
0
0
-5.2041236e-22
5.2090043e-22
5.2138923e-22
-1.0437562e-21
-1.4504996e-34
5.2284255e-22
0
0
0
0
-5.2510462e-22
1.4584639e-34
1.0517082e-21
-5.2617639e-22
-5.2647308e-22
5.2675288e-22
0
0
0
-5.2793556e-22
-1.4653544e-34
5.2860247e-22
5.2895795e-22
-5.2930476e-22
-5.2964533e-22
5.2998246e-22
0
0
-5.3094684e-22
-5.3124847e-22
5.3153967e-22
5.3182042e-22
5.3209078e-22
2.9564672e-34
-5.3260279e-22
0
0
0
-5.3352044e-22
-5.3372736e-22
5.3392486e-22
5.3411229e-22
5.3428872e-22
1.4833127e-34
-5.3460668e-22
0
0
0
-5.3506811e-22
1.4851852e-34
5.3516623e-22
0
0
0
0
0
0
0
-5.3439019e-22
1.4827757e-34
1.0683305e-21
1.4830439e-34
-5.3400983e-22
0
0
-5.3377494e-22
7.5840719e-38
-1.4816584e-34
1.4806101e-34
5.3336628e-22
5.3324344e-22
-1.4803425e-34
-5.3296738e-22
0
0
-5.3246526e-22
4.4325328e-34
1.4766856e-34
-7.5579738e-38
5.3160789e-22
-5.3134893e-22
-5.3107002e-22
1.0615506e-21
-2.9429638e-34
-5.301307e-22
5.297766e-22
0
-5.2898862e-22
-1.4684202e-34
5.2807759e-22
0
-5.2713658e-22
5.2669847e-22
-5.8440756e-34
-5.2588083e-22
5.2546638e-22
0
-5.2460983e-22
0
5.2372852e-22
0
-5.2281938e-22
5.2235402e-22
-2.8953538e-34
-5.2140063e-22
5.2091226e-22
0
-5.1991136e-22
-1.442268e-34
5.1887897e-22
0
-5.1781431e-22
5.1727016e-22
-1.4686007e-37
-5.1615721e-22
5.1558809e-22
0
-5.1442477e-22
-5.1382964e-22
5.1322559e-22
5.1261209e-22
-5.1198874e-22
5.1135484e-22
5.107094e-22
-5.1004995e-22
0
0
0
0
0
0
-5.0504207e-22
-3.2636513e-53
1.0073757e-21
-5.0304507e-22
-5.0240504e-22
5.0175784e-22
0
0
-4.9980777e-22
-4.9915992e-22
4.9851168e-22
4.9786272e-22
0
-4.9656291e-22
-1.3777528e-34
4.9525965e-22
0
0
-4.9329948e-22
-4.9264537e-22
4.9199205e-22
4.9134002e-22
0
-4.9004152e-22
1.3589575e-34
4.8875605e-22
-4.8811967e-22
-2.7073121e-34
-6.9187034e-38
-4.8623797e-22
4.8561997e-22
4.8500627e-22
0
0
-4.8319001e-22
1.3393773e-34
4.8199833e-22
0
-4.8082079e-22
-4.802372e-22
4.7965687e-22
4.7908e-22
0
0
0
0
0
0
-4.7516819e-22
1.3172837e-34
4.7410256e-22
0
0
0
0
0
0
-4.7058527e-22
-2.2770249e-53
4.6963937e-22
4.6917636e-22
1.300208e-34
-4.6826774e-22
0
0
0
0
-4.6608949e-22
-1.2924033e-34
4.6524911e-22
-4.6483557e-22
-4.6442574e-22
4.6401937e-22
-2.5734236e-34
-3.8574714e-34
-3.8528729e-34
1.2847421e-34
-2.5660259e-34
1.2812991e-34
4.612896e-22
0
-4.6054894e-22
3.831563e-34
-6.5345002e-38
-4.5946721e-22
4.5911259e-22
4.5875992e-22
-4.5840882e-22
1.2712873e-34
-3.8096473e-34
-2.5393401e-34
-2.5354467e-34
1.2667472e-34
-2.5328275e-34
-4.5594647e-22
4.5558657e-22
4.5522256e-22
-4.5485438e-22
1.2607112e-34
-5.0412077e-34
-1.2592273e-34
1.2587758e-34
1.2563699e-34
1.25587e-34
-4.5208166e-22
0
4.5120471e-22
-1.2509968e-34
-9.1783953e-53
4.4979391e-22
0
-4.487799e-22
4.4824806e-22
4.4769811e-22
-4.4712918e-22
0
0
0
0
-4.4395843e-22
1.2301831e-34
-2.4568906e-34
4.4173762e-22
4.4093139e-22
-4.4008957e-22
0
0
0
0
-4.3545534e-22
-6.1745384e-38
4.3352893e-22
0
0
0
0
0
0
0
-4.2467904e-22
-4.2340973e-22
4.2209916e-22
4.2074799e-22
0
0
0
0
0
0
-4.100716e-22
-4.083587e-22
4.0659587e-22
4.0478195e-22
0
0
0
0
0
0
-3.9055918e-22
-3.8829619e-22
3.8597252e-22
3.8358726e-22
0
0
0
0
0
0
-3.6509824e-22
2.0109586e-34
3.5921725e-22
0
0
0
0
0
0
-3.3634752e-22
9.2403785e-35
3.2911197e-22
0
0
0
0
-3.095341e-22
-4.3392998e-38
3.0107473e-22
-2.9670335e-22
-2.174472e-52
2.8766925e-22
-2.8300288e-22
1.5452059e-34
2.7336311e-22
-2.6838611e-22
-1.4619019e-34
-1.4330749e-34
-4.1273673e-51
-1.3732271e-34
-6.7093023e-35
2.3622613e-22
-2.3046891e-22
-2.2459424e-22
4.3720084e-22
-1.1788532e-34
-4.1249378e-22
0
1.9338186e-22
-5.1855084e-35
-4.9996075e-35
-1.4402417e-34
-1.3811273e-34
-8.7959578e-35
1.2570588e-34
-7.9428637e-35
3.7603249e-35
1.2961214e-22
0
-1.1713843e-22
-1.6689547e-38
-9.4783295e-35
-9.5286749e-35
1.6560779e-38
6.4200153e-35
-3.227693e-35
-1.1750951e-22
0
1.0446749e-22
-6.0323216e-35
-1.4761638e-38
1.0175321e-22
0
-9.5880854e-23
9.3216137e-23
9.2176842e-23
-8.6472719e-23
0
0
-7.7154497e-23
8.4138881e-35
-3.9612391e-35
3.4269076e-35
-1.5370655e-35
4.883334e-23
4.3661994e-23
-3.5925934e-23
0
0
0
0
1.3928939e-23
7.3171114e-36
4.8801308e-35
-6.1206911e-23
-7.2991833e-23
8.1061337e-23
0
0
0
0
1.6109019e-22
1.7143275e-22
-1.8420788e-22
-2.0332268e-22
0
0
0
0
0
0
3.4625489e-22
3.6390016e-22
-3.8692599e-22
-4.1085675e-22
0
0
0
0
0
0
5.880524e-22
-5.1440796e-34
-1.2786242e-21
6.6334294e-22
6.9716874e-22
-7.382555e-22
0
-1.5954387e-21
9.1552162e-34
2.8683549e-33
9.0673866e-22
1.8969559e-21
-1.9634691e-21
1.0159807e-21
1.0571578e-21
-1.1002579e-21
1.1395311e-21
-1.6750469e-37
-1.2245528e-21
-1.2763099e-21
1.3242381e-21
1.3658125e-21
-1.4123317e-21
1.4708234e-21
2.1744061e-37
-1.5780128e-21
0
0
0
-3.6287611e-21
1.8653249e-21
3.8471207e-21
-1.9961735e-21
2.0730597e-21
2.1429403e-21
-4.4157302e-21
2.9200576e-50
2.3605678e-21
-2.4395793e-21
-5.020051e-21
-2.5849374e-21
8.0207721e-21
-2.7696393e-21
4.5342084e-49
8.8523737e-21
-6.0805491e-21
-3.1351707e-21
-3.2344522e-21
-6.6752062e-21
6.8907336e-21
3.555087e-21
3.6632423e-21
-3.7728919e-21
-3.8906696e-21
1.2049407e-20
-4.1431333e-21
-4.2665402e-21
4.3911142e-21
4.5233296e-21
6.6272213e-37
-1.4421043e-20
4.9514487e-21
-8.4900381e-33
8.7497286e-33
1.6237294e-20
-5.5725549e-21
-5.7346833e-21
-1.1807184e-20
6.0802358e-21
1.2519897e-20
-1.2881316e-20
6.6273975e-21
-6.8244507e-21
-7.0276426e-21
2.168985e-20
-7.4326457e-21
-7.6442774e-21
1.5735564e-20
8.0957057e-21
-8.321766e-21
-2.5654864e-20
8.7955876e-21
3.6217116e-20
-5.1723325e-33
-1.9159414e-20
-9.8401933e-21
0
-2.0768435e-20
-2.3694414e-32
3.2916838e-20
-1.1280536e-20
2.5744704e-32
-1.1913075e-20
-1.2234899e-20
2.513044e-20
0
0
0
1.3979942e-20
-7.9703476e-33
-2.9489971e-20
1.5143356e-20
3.1088536e-20
-4.7849412e-20
5.4513425e-32
3.3605875e-20
-1.7249105e-20
0
0
0
-3.8239189e-20
1.9615958e-20
4.0236156e-20
-6.189613e-20
6.0141536e-36
4.3407178e-20
0
0
2.3401078e-20
-1.3320441e-32
-4.9192266e-20
2.521271e-20
5.167977e-20
-7.9443128e-20
4.5186706e-32
5.5633585e-20
-2.8506982e-20
2.9207041e-20
-5.9834976e-20
-3.0642906e-20
1.0452882e-31
3.2155139e-20
6.5877967e-20
-1.0120279e-19
1.9633385e-35
3.5359779e-20
-2.0095336e-32
3.7070015e-20
3.7954907e-20
-2.1565286e-32
-1.1927811e-19
1.1564019e-35
1.2492239e-19
-8.5236868e-20
2.3015387e-48
8.924203e-20
-4.5643989e-20
4.6688867e-20
-9.5519393e-20
-4.8854442e-20
1.1095872e-31
5.109922e-20
1.0450222e-19
5.3428019e-20
5.4629718e-20
-1.6755612e-19
0
5.8353613e-20
3.3105609e-32
-3.383688e-32
3.4574001e-32
-6.3668293e-20
7.2219028e-32
-6.6460679e-20
2.2612188e-31
2.0807876e-19
-1.4170608e-19
-2.1711632e-19
-7.3914137e-20
2.2644064e-19
1.5414936e-19
-2.3610268e-19
8.0357322e-20
2.4611669e-19
0
0
-8.7237431e-20
-8.9038614e-20
0
9.2734507e-20
9.4619745e-20
-1.9306448e-19
2.1864989e-31
3.0137425e-19
-1.1376078e-31
-1.0452059e-19
-1.0659936e-19
-1.0870967e-19
1.1085224e-19
1.1302792e-19
-1.1523728e-19
-3.5244091e-19
1.1975675e-19
4.882694e-19
-1.2441415e-19
-2.5359782e-19
-1.2922114e-19
0
1.3416856e-19
0
1.3925191e-19
-1.4184927e-19
3.2080107e-31
-1.4716017e-19
4.9915109e-31
4.578854e-19
-1.5541956e-19
-1.5824587e-19
1.6110743e-19
1.6400699e-19
-1.6694787e-19
-5.0979397e-19
1.7295598e-19
7.0407811e-19
-2.9832794e-31
-1.8226078e-19
-3.708829e-19
-1.8866466e-19
3.8386134e-19
1.0837189e-31
2.8220531e-35
-2.01969e-19
4.5603584e-31
2.0886049e-19
-6.3711621e-19
2.397123e-31
4.3904824e-19
0
0
2.3055485e-19
-1.3006471e-31
-4.7625556e-19
2.419794e-19
4.9174096e-19
2.497998e-19
-2.8165037e-31
-7.73349e-19
-2.6184406e-19
2.6595225e-19
-5.4020726e-19
1.5591775e-34
9.2767668e-31
2.8278525e-19
5.7419088e-19
-8.7436108e-19
3.2853207e-31
6.0060993e-19
0
0
-6.2774079e-19
7.07116e-31
3.5863104e-31
9.3173265e-35
9.9767273e-19
6.7465653e-19
-5.6983521e-31
-1.0409687e-18
-3.5188345e-19
3.5681883e-19
-7.2358805e-19
-4.0710775e-31
1.2383504e-30
3.7694466e-19
7.641381e-19
-1.1616998e-18
3.9243893e-19
3.9768467e-19
-4.0296641e-19
4.082803e-19
-8.2725198e-19
4.6516127e-31
4.2442655e-19
6.1090387e-35
8.7075893e-19
-8.8180801e-19
7.4332625e-31
9.0408339e-19
-4.5766102e-19
0
4.690043e-19
2.6343829e-31
-1.4413833e-18
4.8622853e-19
9.8405175e-19
4.9785507e-19
5.0371456e-19
-5.0960043e-19
-5.1550925e-19
-5.214398e-19
5.2739287e-19
-2.9606083e-31
2.9931582e-31
-5.4539916e-19
6.1234935e-31
-5.5751918e-19
1.8770611e-30
1.7091146e-18
-1.151642e-18
2.364827e-48
5.8811278e-19
6.596643e-31
-3.3339395e-31
-1.8200108e-18
6.128765e-19
1.8572851e-18
0
0
-6.3781957e-19
-6.440736e-19
-1.3006649e-18
6.5659799e-19
1.3257408e-18
-1.3382943e-18
6.7542478e-19
2.0451038e-18
-6.8797671e-19
-6.9425163e-19
-7.0052525e-19
-7.0679555e-19
1.4261215e-18
7.1932e-19
-7.2557283e-19
-2.1954529e-18
7.3805199e-19
-3.2269243e-47
1.2495144e-30
1.5133673e-18
-1.5257424e-18
-1.5380879e-18
7.7519774e-19
1.5626608e-18
-1.5748856e-18
-7.9353688e-19
2.398838e-18
2.4170018e-18
-8.1169645e-19
-1.6353951e-18
-8.2367036e-19
4.604999e-31
1.6710687e-18
8.4142341e-19
-8.4728005e-19
-1.7062037e-18
1.2205534e-34
1.7292785e-18
-1.7407106e-18
1.4590467e-30
1.7633505e-18
-8.8727379e-19
-1.7856571e-18
-1.7966777e-18
0
9.0922564e-19
2.7438025e-18
9.1992828e-19
-9.2520588e-19
0
0
0
0
9.5080197e-19
-5.3051682e-31
-2.8819489e-18
9.6548415e-19
2.9107759e-18
9.7497251e-19
-1.6315759e-30
-1.9684219e-18
-9.8873092e-19
9.931835e-19
-1.9951384e-18
-1.0018882e-18
3.3511865e-30
1.0103179e-18
2.0288465e-18
-3.055362e-18
2.9058671e-34
1.0262954e-18
-1.4638685e-34
1.0338398e-18
1.0374938e-18
-1.1557417e-30
-3.1336718e-18
2.9785057e-34
3.1539019e-18
2.1091043e-18
-5.8681425e-31
-2.1216013e-18
-1.0637937e-18
1.0667005e-18
-2.1390464e-18
-1.0722623e-18
3.5796516e-30
1.0774771e-18
2.1598903e-18
-3.2469569e-18
1.2043802e-30
1.0867944e-18
1.0889004e-18
1.0909169e-18
6.0629875e-31
-6.0746744e-31
-2.1927871e-18
-6.0933e-31
2.1991134e-18
-2.2019963e-18
5.5072944e-30
3.3108105e-18
-2.2095231e-18
1.2279412e-30
2.213549e-18
-1.1076309e-18
-1.108391e-18
-2.2181125e-18
1.1096253e-18
3.330286e-18
0
0
0
-3.3329107e-18
-3.3327925e-18
3.3323501e-18
3.3316086e-18
-2.2203805e-18
3.1540867e-34
-1.1092021e-18
3.6926373e-30
3.3234503e-18
-3.3209277e-18
5.5263563e-30
2.210004e-18
6.1257455e-31
-6.1220525e-31
-2.2026224e-18
1.0998857e-18
-1.0983637e-18
3.6532877e-30
3.2850999e-18
-3.2796775e-18
-1.0913238e-18
2.4186386e-30
-2.1744767e-18
2.170113e-18
1.0827825e-18
1.0804167e-18
3.2338777e-18
-1.1938689e-30
-1.0727712e-18
-3.2101293e-18
7.1087082e-30
3.1929761e-18
0
-1.058262e-18
-2.1102022e-18
1.0518549e-18
-1.0485249e-18
3.4807019e-30
2.083239e-18
-3.1141381e-18
2.2963719e-30
1.1447748e-30
1.1399582e-30
1.1356421e-30
-1.0189974e-18
3.044878e-18
3.032541e-18
-1.0066613e-18
-2.0048069e-18
0
9.9367863e-19
-1.0978972e-30
2.1862955e-30
-1.088043e-30
-9.7542035e-19
9.7069162e-19
9.6590063e-19
-2.8831474e-18
-2.5692285e-47
1.5841836e-30
-9.4614167e-19
1.0441818e-30
-1.8718352e-18
1.8614478e-18
1.8509557e-18
9.2018066e-19
-1.0154738e-30
-9.0943642e-19
0
0
0
-1.7747732e-18
8.8176685e-19
1.7522129e-18
-2.6112178e-18
8.6466631e-19
2.5766668e-18
-2.5592264e-18
2.8216545e-30
1.6826943e-18
-2.5063061e-18
-1.6589879e-18
0
1.6350541e-18
2.7024457e-30
8.0545371e-19
1.5987581e-18
-7.9328119e-19
0
-1.5620493e-18
-2.2023115e-34
-8.5337127e-31
7.6250995e-19
2.2689206e-18
-2.2502688e-18
1.2393302e-30
2.2128559e-18
-2.194104e-18
3.6230346e-30
1.4376869e-18
-7.1257196e-19
7.0629567e-19
-1.4000311e-18
-6.9373282e-19
3.0526901e-30
6.8116467e-19
1.3497643e-18
6.686023e-19
6.62326e-19
-1.3121081e-18
-6.4978728e-19
0
6.3727349e-19
-3.5035868e-31
-1.199749e-48
-6.1857115e-19
1.7404326e-34
-6.0616277e-19
-1.4275269e-47
1.7814303e-18
-1.7629688e-18
-1.7445563e-18
1.1507983e-18
1.1385975e-18
0
-1.1143172e-18
5.5111964e-19
1.6353066e-18
-1.6173229e-18
8.8794661e-31
1.0543844e-18
-5.2127288e-19
0
5.0951196e-19
5.0367165e-19
-4.9785958e-19
8.1942021e-31
-9.7264852e-19
-2.7319061e-34
1.424732e-18
0
-1.3908708e-18
-9.1605897e-19
1.3574061e-18
8.93883e-19
-1.324345e-18
-4.3598987e-19
1.7222682e-18
4.2518052e-19
-8.396614e-19
-8.2903588e-19
4.5432139e-31
4.0400478e-19
3.9880511e-19
3.936437e-19
-3.8852087e-19
4.2567361e-31
-7.5678688e-19
1.2435591e-30
1.1052817e-18
0
0
-7.0756307e-19
7.7494357e-31
3.4422261e-19
-1.018518e-18
3.3483146e-19
5.4976258e-31
1.0844242e-30
9.6318008e-19
-3.1655439e-19
1.7319019e-31
-3.415622e-31
-3.0329421e-19
2.9895941e-19
-4.1874766e-35
1.6120447e-31
-3.1769964e-31
-2.8205115e-19
0
2.7385525e-19
-5.3964355e-19
-2.658316e-19
5.2376961e-19
0
-2.5411996e-19
2.5030128e-19
4.9305042e-19
-7.2837594e-19
7.9645361e-31
7.8416985e-31
-2.3184921e-19
6.8485964e-19
-3.1941153e-35
-2.2128693e-19
-2.1784943e-19
2.1445321e-19
2.1109843e-19
-2.0778537e-19
0
2.0128397e-19
-3.9618878e-19
3.2468262e-31
1.9183453e-19
4.1916804e-31
4.123344e-31
5.1939232e-35
3.5958974e-19
-5.3065112e-19
-5.2203314e-19
0
3.3676216e-19
4.9687062e-19
2.3149986e-35
-1.6022062e-19
-1.5757465e-19
1.5496584e-19
1.5239442e-19
-1.4985997e-19
0
-2.8979729e-19
-2.8494101e-19
4.2023208e-19
1.3771937e-19
-1.3539621e-19
3.7831371e-35
1.3085201e-19
2.5725995e-19
1.2644125e-19
-2.0699954e-31
-4.8865333e-19
3.9989841e-31
3.540438e-19
-1.1598731e-19
-1.1399143e-19
-1.1202707e-19
1.1009419e-19
1.0819223e-19
1.063202e-19
2.9694186e-35
-1.026624e-19
1.0087594e-19
-2.9735423e-19
-1.9477798e-19
2.8706572e-19
-9.4016392e-20
-1.8474364e-19
1.8150889e-19
-8.9164045e-20
8.7600458e-20
1.7212698e-19
-2.5365807e-19
8.3067326e-20
-2.7183334e-31
-2.4050827e-19
1.5751108e-19
7.7365169e-20
7.5999121e-20
1.4931642e-19
-7.3342484e-20
-4.3800669e-75
-1.4156301e-19
-6.9533142e-20
7.5829464e-32
6.7099603e-20
1.3183377e-19
-1.2951525e-19
6.3620463e-20
1.8750865e-19
-1.842085e-19
-6.0320228e-20
5.4755544e-48
-5.8215279e-20
1.7158831e-19
5.6197965e-20
-5.5218062e-20
-1.0850816e-19
5.330583e-20
-5.2375155e-20
1.7139903e-31
1.0114671e-19
-1.4910419e-19
-5.4254008e-32
2.1319764e-31
-1.0473682e-31
9.2735329e-20
-9.1148047e-20
4.4797603e-20
1.7614989e-19
-4.3292509e-20
-8.5124639e-20
0
-8.2300432e-20
8.9850336e-32
2.2620701e-35
4.3448535e-32
3.8490802e-20
3.7855965e-20
-3.7235973e-20
-3.6630565e-20
7.2083313e-20
-7.0936034e-20
3.8752605e-32
6.8715943e-20
-6.7636606e-20
-1.1086596e-31
3.637927e-32
3.2262826e-20
6.3538124e-20
-3.1288668e-20
3.0821249e-20
-1.6855378e-32
-2.9921278e-20
-5.8972027e-20
2.9059258e-20
5.7281932e-20
-2.8231933e-20
2.7833513e-20
-4.5713178e-32
2.7072626e-20
5.9319547e-32
-5.2715131e-20
-5.2027185e-20
-5.7003391e-32
8.4425853e-32
-8.3354665e-32
2.4713446e-20
2.4411247e-20
2.4119463e-20
-2.383715e-20
0
0
2.3034478e-20
-1.2645194e-32
-3.2025783e-36
-2.4756964e-32
-2.2073945e-20
0
2.1644037e-20
4.2877779e-20
-2.1239919e-20
-4.2095053e-20
-4.1724804e-20
-4.1369913e-20
6.1545366e-20
6.7782599e-32
-6.0587452e-20
4.0090171e-20
3.9800668e-20
0
1.9631229e-20
-3.9015063e-20
-1.9390331e-20
3.8557275e-20
1.9171758e-20
-2.1170366e-32
-5.6920604e-20
1.8883721e-20
5.6401478e-20
-5.61699e-20
-1.8651266e-20
5.5751688e-20
-2.0558801e-32
-1.8463895e-20
-3.6824645e-20
-2.0384611e-32
3.6653207e-20
-3.6582727e-20
1.826042e-20
5.470096e-20
0
-1.8194308e-20
-3.6364104e-20
1.0093374e-32
-1.8172187e-20
-3.6349259e-20
3.6360562e-20
3.6378974e-20
0
1.8217938e-20
2.024834e-32
2.0281237e-32
2.0315195e-32
-5.5009975e-20
-3.6752832e-20
0
3.6928238e-20
4.1101425e-32
1.8568849e-20
5.5884595e-20
-1.869115e-20
1.0408858e-32
-2.6752333e-36
-1.8896908e-20
-3.7945414e-20
1.9052968e-20
3.8274971e-20
-1.9225559e-20
0
-3.8819017e-20
1.9505383e-20
5.8814054e-20
-1.9707979e-20
-1.9815271e-20
-3.9852219e-20
2.0039892e-20
6.046835e-20
-2.0274732e-20
2.2640007e-32
4.1042351e-20
-2.0649841e-20
-2.0781976e-20
-4.1833848e-20
-6.3161666e-20
4.238474e-20
4.2665175e-20
-4.2951024e-20
-2.3997849e-32
4.3546642e-20
-4.3856555e-20
-2.451894e-32
4.4491499e-20
0
-4.5136854e-20
-4.5464072e-20
0
6.9204415e-20
2.3241923e-20
6.6561693e-36
2.3599244e-20
2.3780397e-20
2.6594613e-32
-4.8288539e-20
-4.86574e-20
8.1652245e-32
4.9418647e-20
-4.9810851e-20
-8.3606389e-32
5.0604824e-20
0
0
0
0
-5.2628397e-20
-2.9454826e-32
5.3478255e-20
2.6954031e-20
-5.4338833e-20
9.1221152e-32
5.5204965e-20
-5.5643903e-20
-3.1141519e-32
2.826975e-20
-5.6994557e-20
9.5687621e-32
5.7912106e-20
-5.8373873e-20
-5.8838259e-20
5.9305794e-20
5.9776658e-20
0
0
0
0
3.1089556e-20
-3.1336147e-20
-3.1584857e-20
3.5341177e-32
1.0817287e-75
3.2331931e-20
6.5159291e-20
3.2829047e-20
-6.6164868e-20
-1.0002217e-19
3.3602684e-20
6.773116e-20
-1.0238032e-19
-6.8770371e-20
1.0392558e-19
6.9798772e-20
3.5160488e-20
3.9328773e-32
-7.1393056e-20
0
3.6239123e-20
-3.6507919e-20
8.165199e-32
1.0528126e-35
1.2425576e-31
3.7584987e-20
3.7860933e-20
-1.0839627e-35
-7.6832111e-20
-7.7384576e-20
1.2976758e-31
7.848382e-20
0
0
0
4.0359641e-20
4.0643437e-20
-4.0926791e-20
-4.1208872e-20
4.148975e-20
-8.3540782e-20
-1.2615661e-19
0
8.5245703e-20
4.7625414e-32
4.319884e-20
1.3045624e-19
-4.3770401e-20
7.3361232e-32
-8.8680056e-20
2.9728372e-31
8.9833113e-20
2.5093269e-32
6.4655113e-36
-4.5785847e-20
4.6073343e-20
-9.2720306e-20
-4.6647352e-20
9.3871735e-20
-9.4452033e-20
-1.350523e-35
5.3088393e-32
4.8098687e-20
1.4516105e-19
-9.7348176e-20
2.7882702e-50
-4.9249695e-20
8.2509246e-32
9.966175e-20
-5.0121244e-20
-1.008197e-19
5.6266596e-32
1.5294811e-19
-1.4571599e-35
-5.1557009e-20
5.1845595e-20
-1.0426782e-19
-5.2420883e-20
1.0541233e-19
-1.0598059e-19
-5.9127375e-32
2.9730711e-31
-1.1956497e-31
1.082574e-19
-1.0882498e-19
5.4694735e-20
1.0995133e-19
-5.5255941e-20
5.5536127e-20
-1.1163255e-19
9.3428485e-32
1.6912377e-19
0
0
-1.716113e-19
-5.7478782e-20
1.1550611e-19
-1.1605237e-19
-3.3138572e-35
2.6008123e-31
6.5320766e-32
1.1822121e-19
-1.1876443e-19
-1.1930685e-19
5.9922768e-20
1.8056657e-19
6.045102e-20
-6.0709602e-20
0
0
6.1477521e-20
-3.4267956e-32
-1.8598722e-19
-1.7694519e-35
1.2503527e-19
6.2774884e-20
-6.9951055e-32
-1.8981497e-19
-1.4101633e-31
1.2750391e-19
0
6.4243252e-20
-1.2898814e-19
-6.4742245e-20
1.4429993e-31
6.5214365e-20
1.3088181e-19
-6.5668742e-20
0
0
0
0
6.6829774e-20
-3.7216231e-32
-2.0179236e-19
6.7483347e-20
2.0311033e-19
-2.0376342e-19
-6.8134437e-20
1.3668843e-19
6.8553052e-20
1.144959e-31
-2.0691873e-19
3.9325103e-35
2.3110806e-31
6.9586928e-20
1.3956663e-19
6.9976128e-20
7.7874704e-32
-7.0352471e-20
-7.0536829e-20
-7.071977e-20
-7.090245e-20
1.5783218e-31
1.4254046e-19
0
0
7.1812355e-20
1.1985196e-31
1.0251424e-35
-1.0273335e-35
-7.2448515e-20
-1.4522362e-19
-1.4556294e-19
1.459025e-19
8.1208029e-32
7.3261815e-20
2.2020024e-19
0
0
-7.3816196e-20
-7.3956276e-20
0
7.420956e-20
-4.1259019e-32
-7.4459259e-20
7.4598486e-20
-1.4947912e-19
2.4934638e-31
2.2494089e-19
-7.5078847e-20
-7.5171827e-20
-1.5054156e-19
7.5381826e-20
2.2649596e-19
-7.5607881e-20
4.203106e-32
-1.5156126e-19
-7.5852431e-20
1.5186506e-19
-1.520586e-19
1.2309392e-49
1.5245662e-19
0
0
-1.5282485e-19
8.4800378e-32
2.5489737e-31
1.0765647e-49
2.2999918e-19
8.5202896e-32
-7.6799697e-20
-1.5369245e-19
-1.5377004e-19
1.5384295e-19
1.7086624e-31
7.6985339e-20
2.5651667e-31
-7.7034414e-20
1.54143e-19
0
7.7145079e-20
-8.5628713e-32
-7.7152307e-20
-1.5430064e-19
-8.562163e-32
1.5430866e-19
0
0
7.7203454e-20
-4.2842098e-32
-2.3148551e-19
-8.5636438e-32
1.542299e-19
0
-7.7102929e-20
7.7090804e-20
7.7051293e-20
7.700302e-20
7.6955418e-20
-1.5381666e-19
-2.3062791e-19
7.6857387e-20
1.5365597e-19
-2.3031333e-19
-2.4587321e-50
1.5328258e-19
0
0
0
0
-1.5265955e-19
-1.5250598e-19
7.6177723e-20
2.2830616e-19
8.443948e-32
-7.5933707e-20
1.5167539e-19
1.5148027e-19
-7.5644445e-20
-3.021946e-19
-1.5090033e-19
2.2604379e-19
1.5048295e-19
-2.253922e-19
-1.6653579e-31
1.4979007e-19
0
0
0
-1.4881356e-19
-8.2463742e-32
1.6465574e-31
-7.4009335e-20
2.2159002e-19
-7.3716731e-20
-7.3571411e-20
2.2027697e-19
1.4655498e-19
-7.3126092e-20
-1.4594233e-19
-1.4562544e-19
2.4200349e-31
-8.0492866e-32
2.0554833e-35
1.4430029e-19
0
7.1794122e-20
7.1612592e-20
-7.1433085e-20
-7.1254877e-20
7.1074728e-20
7.0890367e-20
-1.414014e-19
-7.0505571e-20
7.0307213e-20
-7.0108926e-20
6.9911675e-20
1.3942771e-19
0
0
-2.0730616e-19
-6.8890347e-20
1.3735195e-19
6.8460504e-20
6.8244283e-20
-1.3605289e-19
7.5313532e-32
1.3516513e-19
0
-6.7127456e-20
-2.0069062e-19
-1.4799681e-31
3.6877802e-31
-1.3238905e-19
1.97869e-19
6.5716032e-20
1.8608749e-35