-1.25 	329.3892626145922 	0.001886445278653069 	101325.0251327402
-1.247497497497497 	300.1429313576454 	0.001956824211869159 	101325.0128706663
-1.244994994994995 	300.0021981703167 	0.002006370183350939 	101325.025218211
-1.242492492492492 	300.0000457146589 	0.002027118116833632 	101325.0131324737
-1.23998998998999 	300.0000188002416 	0.002005486197217253 	101325.0217979027
-1.237487487487487 	300.0000134606021 	0.001966165210599377 	101325.0159421993
-1.234984984984985 	300.0000183135273 	0.001915071575396574 	101325.0216247175
-1.232482482482482 	300.0000128353175 	0.001858545798391265 	101325.0151956768
-1.22997997997998 	300.0000170648357 	0.001798493260834064 	101325.0201560778
-1.227477477477477 	300.0000124204616 	0.001734210826325646 	101325.0147019345
-1.224974974974975 	300.0000163506838 	0.001664293737894028 	101325.0193172165
-1.222472472472472 	300.000012539985 	0.001594527396992973 	101325.0148421247
-1.21996996996997 	300.0000153091281 	0.001518311612993955 	101325.0180914472
-1.217467467467467 	300.000012910028 	0.001443340049282655 	101325.0152738019
-1.214964964964965 	300.0000153337149 	0.001359767748988134 	101325.0181218269
-1.212462462462462 	300.0000134935393 	0.001282268172736929 	101325.0159575701
-1.20995995995996 	300.0000157858527 	0.001196916739443671 	101325.0186572117
-1.207457457457457 	300.0000143113527 	0.00111780341893934 	101325.0169233442
-1.204954954954955 	300.000015924965 	0.001031925786846116 	101325.0188296516
-1.202452452452452 	300.0000154161239 	0.0009547167151010576 	101325.0182275503
-1.19994994994995 	300.0000165137197 	0.0008719595932768047 	101325.019522552
-1.197447447447447 	300.0000157762639 	0.0007993362017275983 	101325.0186457553
-1.194944944944945 	300.0000166075533 	0.0007215887400110862 	101325.0196330848
-1.192442442442442 	300.0000163783015 	0.000654497906902447 	101325.0193578236
-1.18993993993994 	300.0000165137277 	0.0005803877406408419 	101325.0195325276
-1.187437437437437 	300.0000165541024 	0.000518517722106526 	101325.0195687281
-1.184934934934935 	300.0000163010038 	0.0004503133974621376 	101325.0192820958
-1.182432432432432 	300.0000167639664 	0.000395845491720598 	101325.0198097955
-1.17992992992993 	300.0000160334704 	0.0003345196508100398 	101325.0189630208
-1.177427427427427 	300.00001684325 	0.0002885690490832894 	101325.019900341
-1.174924924924925 	300.0000158139892 	0.0002354639566065577 	101325.0187054893
-1.172422422422422 	300.0000169736845 	0.0001991741491491122 	101325.020052057
-1.16991991991992 	300.0000157290773 	0.0001559533092200266 	101325.0186077005
-1.167417417417417 	300.0000171828237 	0.0001319509579628248 	101325.0203019073
-1.164914914914915 	300.0000158606373 	0.000101815587316642 	101325.0187654254
-1.162412412412412 	300.000017351674 	9.486853750337368e-05 	101325.0204984863
-1.15990990990991 	300.0000168975514 	8.759498308911126e-05 	101325.0199921544
-1.157407407407407 	300.0000173743428 	0.000104780836325645 	101325.0205250017
-1.154904904904904 	300.0000170903404 	0.0001092947716732385 	101325.0202202478
-1.152402402402403 	300.0000173137647 	0.0001301542857788684 	101325.0204544101
-1.1498998998999 	300.0000170672658 	0.0001360999500216718 	101325.0201933459
-1.147397397397397 	300.0000171312198 	0.0001575334353363951 	101325.0202393683
-1.144894894894895 	300.0000169914372 	0.0001626509247265814 	101325.0201009563
-1.142392392392392 	300.0000170232777 	0.0001834043477012866 	101325.0201097021
-1.13988988988989 	300.0000171018502 	0.0001858842169127852 	101325.0202290883
-1.137387387387387 	300.0000171816693 	0.0002048958572658064 	101325.0202987316
-1.134884884884885 	300.0000174681331 	0.0002030378748266565 	101325.0206604431
-1.132382382382382 	300.0000176003136 	0.0002184124938744172 	101325.0207959926
-1.12987987987988 	300.000017933328 	0.0002080452056860112 	101325.0212154889
-1.127377377377377 	300.0000181128954 	0.0002148760550197549 	101325.0214037109
-1.124874874874875 	300.0000183719013 	0.0001983634530321179 	101325.0217293206
-1.122372372372372 	300.0000184607973 	0.0002032708892592097 	101325.0218164483
-1.11986986986987 	300.000018590914 	0.0001851334409301378 	101325.0219872495
-1.117367367367367 	300.0000185567318 	0.0001892837604618209 	101325.0219287477
-1.114864864864865 	300.0000185791578 	0.0001703936284578093 	101325.0219720131
-1.112362362362362 	300.0000184892593 	0.0001744228378008906 	101325.0218508378
-1.10985985985986 	300.000018504797 	0.000154982446829238 	101325.0218843418
-1.107357357357357 	300.0000184718746 	0.0001595253771063498 	101325.0218309435
-1.104854854854855 	300.0000185688416 	0.0001394883664790349 	101325.0219579745
-1.102352352352353 	300.0000186448865 	0.0001450232479350205 	101325.0220348186
-1.09984984984985 	300.0000188272853 	0.0001244198508759235 	101325.0222617942
-1.097347347347347 	300.0000189740953 	0.0001311195472148082 	101325.0224239306
-1.094844844844845 	300.0000191763934 	0.0001101571909761375 	101325.0226741397
-1.092342342342342 	300.0000193138799 	0.0001179439672213693 	101325.0228283597
-1.08983983983984 	300.0000194698089 	9.687930587800776e-05 	101325.0230232191
-1.087337337337337 	300.0000195544435 	0.0001056240534771201 	101325.0231151273
-1.084834834834835 	300.0000196540278 	8.458068325748735e-05 	101325.0232398952
-1.082332332332332 	300.0000197016013 	9.426283032413615e-05 	101325.0232883022
-1.07982982982983 	300.0000197832124 	7.316700092923721e-05 	101325.0233898203
-1.077327327327327 	300.000019841835 	8.388276256150885e-05 	101325.0234525827
-1.074824824824825 	300.000019950429 	6.255183130206236e-05 	101325.0235860327
-1.072322322322323 	300.0000200507192 	7.440249509692805e-05 	101325.0237000388
-1.06981981981982 	300.0000201968319 	5.269915707043307e-05 	101325.0238772062
-1.067317317317317 	300.0000203251445 	6.567506779522412e-05 	101325.0240253382
-1.064814814814815 	300.0000204760236 	5.356976605161007e-05 	101325.0242074182
-1.062312312312312 	300.0000205888855 	6.494883204699004e-05 	101325.0243382124
-1.05980980980981 	300.0000207032159 	5.508889199927248e-05 	101325.0244765604
-1.057307307307307 	300.0000207721037 	6.462502142697421e-05 	101325.0245564915
-1.054804804804805 	300.0000208434863 	5.633881712086084e-05 	101325.0246428462
-1.052302302302302 	300.0000208871202 	6.413969598260915e-05 	101325.0246922246
-1.0497997997998 	300.0000209530332 	5.746664528751268e-05 	101325.0247710922
-1.047297297297297 	300.0000210197467 	6.375400461485303e-05 	101325.0248487308
-1.044794794794795 	300.0000211280706 	5.873366563409398e-05 	101325.0249774915
-1.042292292292292 	300.0000212524563 	6.371072544311153e-05 	101325.0251237522
-1.03978978978979 	300.0000214114792 	6.023632610674077e-05 	101325.025312203
-1.037287287287287 	300.0000215705853 	6.397476370706568e-05 	101325.0254995874
-1.034784784784785 	300.0000217284305 	6.174021342314708e-05 	101325.0256862465
-1.032282282282283 	300.0000218504495 	6.421297177006341e-05 	101325.0258307318
-1.02977977977978 	300.0000219346226 	6.283228764075857e-05 	101325.0259307083
-1.027277277277277 	300.0000219661468 	6.409347450828233e-05 	101325.0259682615
-1.024774774774775 	300.0000219585462 	6.330296242661274e-05 	101325.0259592163
-1.022272272272272 	300.0000219241159 	6.36533032211388e-05 	101325.0259184815
-1.01976976976977 	300.0000218907545 	6.340048278881078e-05 	101325.0258794406
-1.017267267267267 	300.0000218858601 	6.336545040166541e-05 	101325.0258744549
-1.014764764764765 	300.0000219358876 	6.368907891952675e-05 	101325.0259337276
-1.012262262262262 	300.0000220590124 	6.381138089827618e-05 	101325.0260785987
-1.00975975975976 	300.0000222576049 	6.46073430520829e-05 	101325.0263121739
-1.007257257257257 	300.0000225202646 	6.520514988362948e-05 	101325.0266217142
-1.004754754754755 	300.0000228172145 	6.610143171172377e-05 	101325.0269726685
-1.002252252252252 	300.0000231079823 	6.692186639115246e-05 	101325.0273174108
-0.9997497497497498 	300.0000233488081 	6.760834441021243e-05 	101325.0276030626
-0.9972472472472473 	300.0000235028958 	6.804770153545826e-05 	101325.0277852738
-0.9947447447447449 	300.0000235499913 	6.818367488741574e-05 	101325.0278402512
-0.9922422422422421 	300.0000234927635 	6.80251655786153e-05 	101325.0277716616
-0.9897397397397399 	300.000023356626 	6.764813263576805e-05 	101325.0276108654
-0.9872372372372376 	300.0000231859239 	6.717566786426547e-05 	101325.0274103469
-0.9847347347347346 	300.0000230334338 	6.675518181221568e-05 	101325.0272316082
-0.9822322322322323 	300.0000229483393 	6.652206286736025e-05 	101325.0271312623
-0.9797297297297296 	300.0000229645378 	6.656973176552691e-05 	101325.0271491212
-0.9772272272272275 	300.0000230936708 	6.693508902265144e-05 	101325.0272998636
-0.9747247247247248 	300.0000233224924 	6.758234846661199e-05 	101325.0275690863
-0.9722222222222224 	300.0000236153721 	6.841347088412555e-05 	101325.027915755
-0.9697197197197196 	300.0000239238951 	6.929238175953124e-05 	101325.0282818613
-0.9672172172172175 	300.0000241970446 	7.007222653457945e-05 	101325.0286064305
-0.9647147147147147 	300.0000243934564 	7.063482665448988e-05 	101325.0288395858
-0.9622122122122124 	300.0000244897737 	7.091414627210451e-05 	101325.028953449
-0.9597097097097099 	300.0000244855381 	7.09075696991653e-05 	101325.0289476888
-0.9572072072072073 	300.0000244025861 	7.067906042745231e-05 	101325.0288486254
-0.9547047047047047 	300.0000242798064 	7.033715516196826e-05 	101325.0287021693
-0.9522022022022023 	300.0000241620857 	7.000914524426207e-05 	101325.0285623817
-0.9496996996996998 	300.0000240914191 	6.9813864000461e-05 	101325.0284784074
-0.9471971971971973 	300.0000240954558 	6.982685598631601e-05 	101325.0284826402
-0.9446946946946947 	300.0000241805243 	7.006717491405921e-05 	101325.0285830957
-0.9421921921921923 	300.00002433226 	7.049506343398779e-05 	101325.0287621886
-0.93968968968969 	300.000024518746 	7.102008520513886e-05 	101325.0289824089
-0.9371871871871872 	300.0000247005494 	7.153453696450403e-05 	101325.0291975707
-0.9346846846846848 	300.0000248424648 	7.193983560937277e-05 	101325.0293660252
-0.9321821821821823 	300.0000249229303 	7.217275070680474e-05 	101325.0294618104
-0.9296796796796799 	300.0000249389187 	7.222641102780871e-05 	101325.0294811918
-0.9271771771771771 	300.0000249058065 	7.214240760167347e-05 	101325.0294426361
-0.9246746746746748 	300.0000248523313 	7.199886543292224e-05 	101325.0293796333
-0.9221721721721724 	300.0000248095303 	7.18834295034691e-05 	101325.0293288852
-0.9196696696696698 	300.000024800637 	7.186065948244804e-05 	101325.0293183145
-0.9171671671671672 	300.0000248349331 	7.195675681628504e-05 	101325.0293587266
-0.9146646646646649 	300.000024905398 	7.215243297731772e-05 	101325.0294414395
-0.9121621621621623 	300.0000249911398 	7.239039542637177e-05 	101325.0295424471
-0.9096596596596597 	300.000025066499 	7.260183613427115e-05 	101325.0296317203
-0.9071571571571573 	300.0000251113596 	7.272963159128112e-05 	101325.0296847498
-0.9046546546546547 	300.000025118045 	7.275249472761196e-05 	101325.0296927671
-0.9021521521521524 	300.0000250963865 	7.270083643301555e-05 	101325.0296677718
-0.8996496496496498 	300.0000250720005 	7.26423244620019e-05 	101325.0296393431
-0.8971471471471473 	300.0000250756417 	7.266152267751489e-05 	101325.0296437577
-0.894644644644645 	300.0000251314694 	7.282697762135381e-05 	101325.0297099173
-0.892142142142142 	300.0000252478129 	7.315893628027253e-05 	101325.0298474986
-0.8896396396396397 	300.000025411756 	7.362178809637544e-05 	101325.0300412001
-0.8871371371371374 	300.0000255906504 	7.412486867699439e-05 	101325.0302528215
-0.8846346346346349 	300.0000257413254 	7.454476336590231e-05 	101325.0304307342
-0.8821321321321324 	300.0000258209324 	7.476479207694993e-05 	101325.0305244936
-0.8796296296296297 	300.0000258013392 	7.470751335378398e-05 	101325.0305012911
-0.8771271271271271 	300.0000256812343 	7.437027380792678e-05 	101325.0303595111
-0.8746246246246248 	300.0000254901547 	7.383714413039004e-05 	101325.0301337319
-0.8721221221221224 	300.0000252816927 	7.325681310130818e-05 	101325.02988756
-0.8696196196196196 	300.0000251192652 	7.280657667086332e-05 	101325.0296957863
-0.8671171171171175 	300.0000250566698 	7.263565262523148e-05 	101325.0296218352
-0.8646146146146148 	300.0000251202916 	7.281675601373175e-05 	101325.0296973752
-0.8621121121121121 	300.0000253006248 	7.332278959913143e-05 	101325.0299105768
-0.8596096096096097 	300.0000255521833 	7.402578959360996e-05 	101325.030207649
-0.857107107107107 	300.0000258064301 	7.47353924712709e-05 	101325.0305080095
-0.8546046046046049 	300.0000259929316 	7.52555158846809e-05 	101325.0307280257
-0.8521021021021022 	300.0000260589876 	7.543914543335112e-05 	101325.0308057564
-0.8495995995995997 	300.0000259861337 	7.523641353023887e-05 	101325.0307197886
-0.8470970970970974 	300.000025796306 	7.470844896479865e-05 	101325.0304959732
-0.8445945945945946 	300.0000255445678 	7.400449201293272e-05 	101325.030198541
-0.8420920920920922 	300.000025299335 	7.331513273995837e-05 	101325.0299081585
-0.8395895895895897 	300.0000251198462 	7.280724754870213e-05 	101325.0296957196
-0.8370870870870872 	300.000025040251 	7.257588993587275e-05 	101325.0296015402
-0.8345845845845846 	300.0000250608665 	7.262505798667989e-05 	101325.0296260238
-0.8320820820820823 	300.0000251516753 	7.287210184167432e-05 	101325.029733946
-0.8295795795795798 	300.0000252666274 	7.31896371127817e-05 	101325.0298703917
-0.8270770770770772 	300.0000253611065 	7.345377003730016e-05 	101325.0299821626
-0.8245745745745746 	300.0000254068598 	7.358498198712809e-05 	101325.0300362967
-0.8220720720720721 	300.0000254006812 	7.357333451745534e-05 	101325.0300286958
-0.8195695695695699 	300.0000253595438 	7.346287310575377e-05 	101325.029979659
-0.817067067067067 	300.0000253080158 	7.332000338250403e-05 	101325.029918774
-0.8145645645645651 	300.0000252641867 	7.319398374195091e-05 	101325.029867068
-0.8120620620620621 	300.0000252294397 	7.308670364330813e-05 	101325.0298257188
-0.8095595595595597 	300.0000251882196 	7.295902642518851e-05 	101325.0297769168
-0.8070570570570572 	300.0000251194675 	7.27560723719557e-05 	101325.0296959939
-0.8045545545545546 	300.0000250114023 	7.244535309937263e-05 	101325.0295683623
-0.8020520520520523 	300.0000248717229 	7.205006958634313e-05 	101325.0294026519
-0.7995495495495494 	300.0000247290112 	7.165058806531048e-05 	101325.0292332057
-0.7970470470470474 	300.0000246250788 	7.13634518776039e-05 	101325.029110116
-0.7945445445445446 	300.0000246000027 	7.129932412318297e-05 	101325.029080605
-0.7920420420420423 	300.0000246740341 	7.151173216729125e-05 	101325.029168817
-0.7895395395395397 	300.0000248365098 	7.196969523397144e-05 	101325.0293620089
-0.7870370370370371 	300.0000250451001 	7.255319796787063e-05 	101325.0296095242
-0.7845345345345348 	300.0000252367974 	7.308443204382466e-05 	101325.0298361854
-0.7820320320320323 	300.000025346782 	7.338344480788697e-05 	101325.0299651512
-0.7795295295295296 	300.0000253282497 	7.332191253286134e-05 	101325.0299420145
-0.7770270270270272 	300.0000251687673 	7.286587678619381e-05 	101325.0297523296
-0.7745245245245247 	300.0000248935946 	7.208822471616612e-05 	101325.029426633
-0.7720220220220222 	300.0000245584865 	7.114317984487347e-05 	101325.0290308854
-0.7695195195195199 	300.000024231701 	7.022158880637288e-05 	101325.028645763
-0.767017017017017 	300.0000239746092 	6.949309456198466e-05 	101325.0283428909
-0.7645145145145147 	300.0000238245926 	6.906162099150276e-05 	101325.0281660044
-0.7620120120120122 	300.0000237869307 	6.894473519737963e-05 	101325.028121787
-0.7595095095095097 	300.0000238374905 	6.907730641560329e-05 	101325.0281822089
-0.7570070070070072 	300.0000239338766 	6.934110409584307e-05 	101325.0282968753
-0.7545045045045048 	300.0000240293725 	6.960634704058796e-05 	101325.0284105039
-0.7520020020020022 	300.0000240863814 	6.976700804557491e-05 	101325.028478972
-0.7494994994994997 	300.0000240861605 	6.976687172566737e-05 	101325.0284789289
-0.7469969969969972 	300.000024027962 	6.960101563703327e-05 	101325.0284092314
-0.7444944944944945 	300.0000239242614 	6.930402410516849e-05 	101325.028285282
-0.7419919919919924 	300.0000237939236 	6.892880017451409e-05 	101325.0281296131
-0.7394894894894897 	300.0000236536466 	6.852425787824888e-05 	101325.0279629647
-0.7369869869869872 	300.0000235155053 	6.81244679180444e-05 	101325.0277991902
-0.7344844844844846 	300.0000233848121 	6.774745061975025e-05 	101325.0276450344
-0.7319819819819822 	300.0000232646134 	6.740125339245982e-05 	101325.027503447
-0.7294794794794797 	300.0000231575137 	6.709526314165439e-05 	101325.0273777488
-0.7269769769769773 	300.000023069144 	6.68440999291076e-05 	101325.0272740679
-0.7244744744744747 	300.000023006525 	6.666645091453449e-05 	101325.027200689
-0.721971971971972 	300.000022975863 	6.657887765737489e-05 	101325.027164621
-0.7194694694694695 	300.0000229787942 	6.658232982042643e-05 	101325.0271670069
-0.7169669669669674 	300.0000230077158 	6.665636858538545e-05 	101325.027199551
-0.7144644644644647 	300.0000230471587 	6.675691177345628e-05 	101325.0272437786
-0.711961961961962 	300.0000230743068 	6.682167966089725e-05 	101325.0272738063
-0.7094594594594597 	300.0000230648945 	6.678538876853693e-05 	101325.0272618971
-0.7069569569569573 	300.0000229997516 	6.659352961306268e-05 	101325.027185181
-0.7044544544544545 	300.0000228690662 	6.621770012517349e-05 	101325.0270316709
-0.7019519519519523 	300.0000226752152 	6.566488003273421e-05 	101325.0268039079
-0.6994494494494495 	300.0000224331944 	6.497590194554728e-05 	101325.0265192222
-0.6969469469469471 	300.0000221681271 	6.422034395841766e-05 	101325.0262065367
-0.6944444444444446 	300.0000219090164 	6.34811886784845e-05 	101325.0259006092
-0.6919419419419421 	300.0000216846464 	6.283952083104714e-05 	101325.0256353899
-0.6894394394394396 	300.000021517237 	6.236143247114431e-05 	101325.0254381184
-0.6869369369369374 	300.0000214214231 	6.208587496655393e-05 	101325.0253252035
-0.6844344344344344 	300.0000214002046 	6.202293862395688e-05 	101325.025300472
-0.6819319319319321 	300.0000214466739 	6.21535260615776e-05 	101325.0253558605
-0.6794294294294296 	300.0000215467825 	6.243614799115661e-05 	101325.0254740904
-0.6769269269269272 	300.0000216809723 	6.281696228928634e-05 	101325.0256324157
-0.6744244244244245 	300.0000218289114 	6.323598475949418e-05 	101325.025806363
-0.6719219219219222 	300.0000219699671 	6.363719800019613e-05 	101325.025972602
-0.6694194194194195 	300.0000220872206 	6.397016807507473e-05 	101325.0261106011
-0.6669169169169172 	300.0000221657784 	6.419325513205283e-05 	101325.026203388
-0.6644144144144146 	300.0000221945598 	6.427569781687922e-05 	101325.0262380404
-0.661911911911912 	300.0000221672974 	6.419687102001972e-05 	101325.0262063765
-0.6594094094094097 	300.0000220820449 	6.395174004661264e-05 	101325.0261059013
-0.656906906906907 	300.000021942167 	6.35497791627825e-05 	101325.0259406339
-0.6544044044044046 	300.0000217567958 	6.3016734054077e-05 	101325.0257212148
-0.6519019019019021 	300.0000215395038 	6.239204473745003e-05 	101325.0254638138
-0.6493993993993996 	300.0000213063941 	6.172134387035096e-05 	101325.02518776
-0.6468968968968971 	300.0000210735051 	6.105183428946719e-05 	101325.0249123812
-0.6443943943943946 	300.0000208548692 	6.04221360101685e-05 	101325.0246539477
-0.6418918918918921 	300.0000206603237 	5.985930702305802e-05 	101325.0244235219
-0.6393893893893897 	300.0000204939536 	5.937579965273382e-05 	101325.0242261229
-0.6368868868868871 	300.0000203550174 	5.897029722999848e-05 	101325.0240612168
-0.6343843843843846 	300.0000202394382 	5.86327139358825e-05 	101325.0239242482
-0.6318818818818821 	300.0000201412115 	5.834738077907909e-05 	101325.0238087151
-0.6293793793793795 	300.0000200555734 	5.809926874850887e-05 	101325.0237081798
-0.6268768768768773 	300.0000199781903 	5.787649281957425e-05 	101325.0236176995
-0.6243743743743745 	300.0000199070245 	5.76717909199038e-05 	101325.0235344081
-0.6218718718718721 	300.0000198419855 	5.748283071294203e-05 	101325.0234572891
-0.6193693693693696 	300.0000197821162 	5.73090922024813e-05 	101325.0233864034
-0.6168668668668671 	300.0000197280129 	5.715097836492509e-05 	101325.0233219263
-0.6143643643643645 	300.0000196785298 	5.700704065429905e-05 	101325.0232633465
-0.6118618618618621 	300.0000196321221 	5.68731216264756e-05 	101325.0232090714
-0.6093593593593596 	300.0000195872725 	5.674346714094562e-05 	101325.0231564955
-0.6068568568568571 	300.0000195412566 	5.660982775396474e-05 	101325.0231024078
-0.6043543543543546 	300.0000194917441 	5.64646713992622e-05 	101325.0230435172
-0.6018518518518521 	300.0000194362004 	5.630091260712363e-05 	101325.0229769328
-0.5993493493493496 	300.0000193722639 	5.611323613433355e-05 	101325.0229005074
-0.5968468468468471 	300.0000192986528 	5.589908654793288e-05 	101325.0228130432
-0.5943443443443446 	300.0000192151151 	5.565762642767387e-05 	101325.02271436
-0.591841841841842 	300.0000191221255 	5.539083399998986e-05 	101325.0226052402
-0.5893393393393397 	300.0000190216499 	5.510243762745299e-05 	101325.0224872615
-0.5868368368368371 	300.000018915872 	5.479743990856027e-05 	101325.0223625271
-0.5843343343343346 	300.0000188064922 	5.448119909423586e-05 	101325.0222332936
-0.5818318318318321 	300.0000186950762 	5.415864160529212e-05 	101325.0221015668
-0.5793293293293297 	300.0000185824853 	5.383301345891468e-05 	101325.0219687664
-0.5768268268268271 	300.0000184698377 	5.350635910128127e-05 	101325.0218355918
-0.5743243243243245 	300.0000183571653 	5.317927595413821e-05 	101325.0217021515
-0.5718218218218221 	300.0000182442292 	5.285116227904658e-05 	101325.0215683148
-0.5693193193193196 	300.0000181315577 	5.252287649532643e-05 	101325.0214341679
-0.5668168168168171 	300.0000180189921 	5.219573762151878e-05 	101325.0213003964
-0.5643143143143147 	300.0000179080853 	5.187334348153827e-05 	101325.0211684523
-0.5618118118118121 	300.0000178008141 	5.156078281291945e-05 	101325.0210404414
-0.5593093093093094 	300.0000176983137 	5.126341279410292e-05 	101325.0209187897
-0.5568068068068072 	300.000017602454 	5.098712814641809e-05 	101325.0208058038
-0.5543043043043046 	300.0000175149582 	5.073601561325167e-05 	101325.0207032363
-0.551801801801802 	300.0000174363833 	5.051188372313127e-05 	101325.0206118951
-0.5492992992992995 	300.0000173673849 	5.031393445731928e-05 	101325.0205313084
-0.5467967967967969 	300.0000173059116 	5.013657519858711e-05 	101325.0204594574
-0.5442942942942947 	300.0000172488782 	4.997110407336085e-05 	101325.0203926166
-0.5417917917917919 	300.0000171915165 	4.980451395171469e-05 	101325.0203253946
-0.5392892892892895 	300.0000171285806 	4.962010323080696e-05 	101325.0202511456
-0.536786786786787 	300.0000170540796 	4.94023112652507e-05 	101325.0201629289
-0.5342842842842846 	300.0000169627342 	4.913661196290313e-05 	101325.0200550027
-0.531781781781782 	300.0000168523421 	4.881698259497505e-05 	101325.019924487
-0.5292792792792794 	300.0000167241679 	4.844667291030355e-05 	101325.0197725584
-0.526776776776777 	300.0000165826943 	4.803767640547625e-05 	101325.0196046631
-0.5242742742742745 	300.0000164356771 	4.76126329652761e-05 	101325.0194297055
-0.521771771771772 	300.0000162920458 	4.719667236299396e-05 	101325.0192585709
-0.5192692692692695 	300.0000161606853 	4.681694376047719e-05 	101325.019102426
-0.516766766766767 	300.0000160504942 	4.649756774472745e-05 	101325.0189709988
-0.5142642642642645 	300.000015966183 	4.625254926669201e-05 	101325.0188708719
-0.511761761761762 	300.0000159099259 	4.608798521774423e-05 	101325.0188039455
-0.5092592592592596 	300.0000158782925 	4.599334843102825e-05 	101325.0187664682
-0.506756756756757 	300.0000158629373 	4.594631418971271e-05 	101325.0187490495
-0.5042542542542544 	300.0000158528239 	4.591440143926787e-05 	101325.0187378421
-0.5017517517517521 	300.0000158340596 	4.585721049666351e-05 	101325.0187167359
-0.4992492492492494 	300.0000157934708 	4.573919960929426e-05 	101325.0186701203
-0.496746746746747 	300.0000157209208 	4.553007052732748e-05 	101325.0185857494
-0.4942442442442445 	300.0000156112354 	4.521498656598575e-05 	101325.0184572741
-0.4917417417417421 	300.0000154656787 	4.479850161425433e-05 	101325.018285989
-0.4892392392392395 	300.0000152922414 	4.430142331703605e-05 	101325.0180813208
-0.486736736736737 	300.0000151046432 	4.376535215301127e-05 	101325.0178597407
-0.4842342342342345 	300.0000149204294 	4.323862428373851e-05 	101325.0176420564
-0.481731731731732 	300.0000147582395 	4.277226131000298e-05 	101325.0174495698
-0.4792292292292296 	300.000014631911 	4.240956984226463e-05 	101325.0172999144
-0.4767267267267268 	300.0000145502657 	4.21725305981253e-05 	101325.0172033488
-0.4742242242242246 	300.0000145143269 	4.206454599261397e-05 	101325.0171603073
-0.471721721721722 	300.0000145148496 	4.205986997137562e-05 	101325.0171608112
-0.4692192192192195 	300.0000145363909 	4.211367921025656e-05 	101325.017185989
-0.4667167167167169 	300.0000145579181 	4.216915289038806e-05 	101325.017211485
-0.4642142142142145 	300.000014558831 	4.216274375373618e-05 	101325.0172119661
-0.461711711711712 	300.0000145199611 	4.20461185550228e-05 	101325.0171658526
-0.4592092092092094 	300.0000144302298 	4.178449498976678e-05 	101325.0170596323
-0.456706706706707 	300.0000142879122 	4.13741449933478e-05 	101325.0168910825
-0.4542042042042045 	300.0000141011084 	4.084115592432302e-05 	101325.0166706369
-0.451701701701702 	300.0000138894114 	4.023550886944258e-05 	101325.016420191
-0.4491991991991995 	300.0000136771473 	3.963083407728483e-05 	101325.016169193
-0.4466966966966969 	300.0000134907339 	3.909818843248429e-05 	101325.0159486989
-0.4441941941941945 	300.0000133523044 	3.870108563578464e-05 	101325.0157846565
-0.441691691691692 	300.0000132735292 	3.847366650546498e-05 	101325.0156916013
-0.4391891891891895 	300.0000132538444 	3.840997852131736e-05 	101325.0156681527
-0.436686686686687 	300.0000132771502 	3.846913770764538e-05 	101325.015695916
-0.4341841841841846 	300.0000133167689 	3.857163105782087e-05 	101325.0157428568
-0.431681681681682 	300.000013340071 	3.862956632628259e-05 	101325.0157708394
-0.4291791791791794 	300.0000133182636 	3.856061947741804e-05 	101325.0157453255
-0.426676676676677 	300.0000132330958 	3.831274631982944e-05 	101325.0156448052
-0.4241741741741744 	300.0000130833167 	3.788478203529737e-05 	101325.0154674635
-0.421671671671672 	300.0000128849912 	3.731943336175008e-05 	101325.0152325976
-0.4191691691691694 	300.0000126678933 	3.670231494022178e-05 	101325.0149755579
-0.4166666666666669 	300.0000124667404 	3.612978419756343e-05 	101325.0147374153
-0.4141641641641645 	300.000012310444 	3.568304546060612e-05 	101325.0145530237
-0.411661661661662 	300.0000122161752 	3.5409063135264e-05 	101325.0144412039
-0.4091591591591594 	300.0000121810267 	3.530017485880231e-05 	101325.0143997821
-0.406656656656657 	300.0000121869944 	3.530803772180107e-05 	101325.0144071458
-0.4041541541541545 	300.0000122064414 	3.535341670780978e-05 	101325.0144298728
-0.401651651651652 	300.0000122089829 	3.535400272575855e-05 	101325.0144335219
-0.3991491491491494 	300.0000121742395 	3.525081130551924e-05 	101325.0143924089
-0.396646646646647 	300.0000120918792 	3.501413713291649e-05 	101325.0142954846
-0.3941441441441444 	300.000011966271 	3.465618372204513e-05 	101325.014147169
-0.3916416416416419 	300.0000118105737 	3.42133709607794e-05 	101325.0139636441
-0.3891391391391395 	300.0000116437258 	3.373636682697103e-05 	101325.0137665332
-0.3866366366366368 	300.0000114829742 	3.327629416001232e-05 	101325.0135765634
-0.3841341341341344 	300.0000113416331 	3.286833234254555e-05 	101325.0134093117
-0.381631631631632 	300.0000112267906 	3.253738003737171e-05 	101325.0132736806
-0.3791291291291294 	300.0000111415557 	3.228807869488154e-05 	101325.0131723881
-0.3766266266266269 	300.0000110833657 	3.2116403755099e-05 	101325.0131031823
-0.3741241241241244 	300.0000110470444 	3.200743408515817e-05 	101325.0130597345
-0.371621621621622 	300.000011023858 	3.19344316627296e-05 	101325.0130319669
-0.3691191191191194 	300.0000110026627 	3.186781293184625e-05 	101325.013006414
-0.366616616616617 	300.0000109699921 	3.176707007404768e-05 	101325.012967475
-0.3641141141141143 	300.0000109128826 	3.15984240130756e-05 	101325.0129000295
-0.3616116116116119 	300.0000108226413 	3.133616749921721e-05 	101325.0127931941
-0.3591091091091095 	300.0000106966339 	3.097242648381838e-05 	101325.0126441189
-0.356606606606607 	300.0000105407942 	3.05281772679058e-05 	101325.0124602865
-0.3541041041041044 	300.0000103702546 	3.004141102247783e-05 	101325.0122589416
-0.3516016016016019 	300.0000102044521 	2.956954876330121e-05 	101325.0120633069
-0.3490990990990994 	300.0000100630659 	2.916672831941525e-05 	101325.0118965888
-0.346596596596597 	300.000009960538 	2.887118158687094e-05 	101325.0117755452
-0.3440940940940944 	300.0000099010044 	2.869761841390085e-05 	101325.0117054406
-0.3415915915915919 	300.0000098776118 	2.862359527851283e-05 	101325.0116780995
-0.3390890890890895 	300.0000098740598 	2.860610110048101e-05 	101325.0116740439
-0.3365865865865869 	300.0000098693644 	2.858451280811787e-05 	101325.0116681934
-0.3340840840840844 	300.0000098430905 	2.850274896983351e-05 	101325.0116370568
-0.3315815815815819 	300.0000097823896 	2.832561338846686e-05 	101325.0115650447
-0.3290790790790794 	300.000009683674 	2.804112980292345e-05 	101325.011448276
-0.3265765765765769 	300.0000095536826 	2.767142668215119e-05 	101325.0112949394
-0.3240740740740744 	300.000009407806 	2.725410595153257e-05 	101325.011122145
-0.3215715715715718 	300.0000092625858 	2.683876238590879e-05 	101325.0109503472
-0.3190690690690695 	300.0000091328536 	2.646802592992759e-05 	101325.0107973412
-0.3165665665665668 	300.0000090285466 	2.616509093282148e-05 	101325.0106737895