/*--------------------------------*- C++ -*----------------------------------*\
  =========                 |
  \\      /  F ield         | OpenFOAM: The Open Source CFD Toolbox
   \\    /   O peration     | Website:  https://openfoam.org
    \\  /    A nd           | Version:  7
     \\/     M anipulation  |
\*---------------------------------------------------------------------------*/
FoamFile
{
    version     2.0;
    format      ascii;
    class       surfaceScalarField;
    location    "0.00231";
    object      phi;
}
// * * * * * * * * * * * * * * * * * * * * * * * * * * * * * * * * * * * * * //

dimensions      [1 0 -1 0 0 0 0];

internalField   nonuniform List<scalar> 
4999
(
1.2358551
1.235855
1.235855
1.235855
1.2358549
1.2358549
1.2358549
1.2358548
1.2358548
1.2358548
1.2358548
1.2358547
1.2358547
1.2358547
1.2358546
1.2358546
1.2358546
1.2358545
1.2358545
1.2358545
1.2358544
1.2358544
1.2358544
1.2358543
1.2358543
1.2358543
1.2358542
1.2358542
1.2358542
1.2358542
1.2358541
1.2358541
1.2358541
1.235854
1.235854
1.235854
1.2358539
1.2358539
1.2358539
1.2358538
1.2358538
1.2358538
1.2358538
1.2358537
1.2358537
1.2358537
1.2358536
1.2358536
1.2358535
1.2358535
1.2358535
1.2358534
1.2358534
1.2358534
1.2358533
1.2358533
1.2358532
1.2358532
1.2358531
1.2358531
1.235853
1.235853
1.2358529
1.2358527
1.2358526
1.2358524
1.2358521
1.2358516
1.2358505
1.2358481
1.2358433
1.2358363
1.2358268
1.2358141
1.235798
1.2357775
1.235752
1.2357205
1.2356819
1.2356357
1.2355816
1.23552
1.235452
1.2353791
1.2353034
1.235227
1.2351523
1.2350811
1.2350153
1.2349559
1.2349036
1.2348586
1.2348208
1.2347896
1.2347643
1.2347443
1.2347286
1.2347166
1.2347074
1.2347006
1.2346955
1.2346918
1.234689
1.2346871
1.2346856
1.2346846
1.2346839
1.2346834
1.234683
1.2346827
1.2346825
1.2346824
1.2346823
1.2346822
1.2346821
1.234682
1.234682
1.234682
1.2346819
1.2346819
1.2346818
1.2346818
1.2346818
1.2346818
1.2346817
1.2346817
1.2346817
1.2346816
1.2346816
1.2346816
1.2346815
1.2346815
1.2346815
1.2346814
1.2346814
1.2346814
1.2346814
1.2346813
1.2346813
1.2346813
1.2346812
1.2346812
1.2346812
1.2346812
1.2346811
1.2346811
1.2346811
1.234681
1.234681
1.234681
1.2346809
1.2346809
1.2346809
1.2346809
1.2346808
1.2346808
1.2346808
1.2346808
1.2346807
1.2346807
1.2346807
1.2346806
1.2346806
1.2346806
1.2346806
1.2346805
1.2346805
1.2346805
1.2346804
1.2346804
1.2346804
1.2346804
1.2346803
1.2346803
1.2346803
1.2346802
1.2346802
1.2346802
1.2346802
1.2346801
1.2346801
1.2346801
1.2346801
1.23468
1.23468
1.23468
1.23468
1.2346799
1.2346799
1.2346799
1.2346798
1.2346798
1.2346798
1.2346798
1.2346797
1.2346797
1.2346797
1.2346797
1.2346796
1.2346796
1.2346796
1.2346796
1.2346795
1.2346795
1.2346795
1.2346794
1.2346794
1.2346794
1.2346794
1.2346793
1.2346793
1.2346793
1.2346793
1.2346792
1.2346792
1.2346792
1.2346792
1.2346791
1.2346791
1.2346791
1.2346791
1.234679
1.234679
1.234679
1.234679
1.2346789
1.2346789
1.2346789
1.2346789
1.2346788
1.2346788
1.2346788
1.2346788
1.2346787
1.2346787
1.2346787
1.2346787
1.2346786
1.2346786
1.2346786
1.2346786
1.2346785
1.2346785
1.2346785
1.2346785
1.2346784
1.2346784
1.2346784
1.2346784
1.2346784
1.2346783
1.2346783
1.2346783
1.2346783
1.2346782
1.2346782
1.2346782
1.2346782
1.2346781
1.2346781
1.2346781
1.2346781
1.234678
1.234678
1.234678
1.234678
1.2346779
1.2346779
1.2346779
1.2346779
1.2346779
1.2346778
1.2346778
1.2346778
1.2346778
1.2346777
1.2346777
1.2346777
1.2346777
1.2346776
1.2346776
1.2346776
1.2346776
1.2346775
1.2346775
1.2346775
1.2346775
1.2346775
1.2346774
1.2346774
1.2346774
1.2346774
1.2346773
1.2346773
1.2346773
1.2346773
1.2346772
1.2346772
1.2346772
1.2346772
1.2346772
1.2346771
1.2346771
1.2346771
1.2346771
1.234677
1.234677
1.234677
1.234677
1.2346769
1.2346769
1.2346769
1.2346769
1.2346768
1.2346768
1.2346768
1.2346768
1.2346768
1.2346767
1.2346767
1.2346767
1.2346767
1.2346766
1.2346766
1.2346766
1.2346766
1.2346765
1.2346765
1.2346765
1.2346765
1.2346765
1.2346764
1.2346764
1.2346764
1.2346764
1.2346763
1.2346763
1.2346763
1.2346763
1.2346762
1.2346762
1.2346762
1.2346762
1.2346761
1.2346761
1.2346761
1.2346761
1.2346761
1.234676
1.234676
1.234676
1.234676
1.2346759
1.2346759
1.2346759
1.2346759
1.2346758
1.2346758
1.2346758
1.2346758
1.2346757
1.2346757
1.2346757
1.2346757
1.2346756
1.2346756
1.2346756
1.2346756
1.2346755
1.2346755
1.2346755
1.2346755
1.2346755
1.2346754
1.2346754
1.2346754
1.2346754
1.2346753
1.2346753
1.2346753
1.2346753
1.2346752
1.2346752
1.2346752
1.2346752
1.2346751
1.2346751
1.2346751
1.2346751
1.234675
1.234675
1.234675
1.234675
1.2346749
1.2346749
1.2346749
1.2346749
1.2346748
1.2346748
1.2346748
1.2346748
1.2346747
1.2346747
1.2346747
1.2346747
1.2346747
1.2346746
1.2346746
1.2346746
1.2346746
1.2346745
1.2346745
1.2346745
1.2346745
1.2346744
1.2346744
1.2346744
1.2346744
1.2346743
1.2346743
1.2346743
1.2346743
1.2346742
1.2346742
1.2346742
1.2346742
1.2346741
1.2346741
1.2346741
1.2346741
1.2346741
1.234674
1.234674
1.234674
1.234674
1.2346739
1.2346739
1.2346739
1.2346739
1.2346738
1.2346738
1.2346738
1.2346738
1.2346737
1.2346737
1.2346737
1.2346737
1.2346736
1.2346736
1.2346736
1.2346736
1.2346736
1.2346735
1.2346735
1.2346735
1.2346735
1.2346734
1.2346734
1.2346734
1.2346734
1.2346734
1.2346733
1.2346733
1.2346733
1.2346733
1.2346732
1.2346732
1.2346732
1.2346732
1.2346732
1.2346731
1.2346731
1.2346731
1.2346731
1.2346731
1.234673
1.234673
1.234673
1.234673
1.2346729
1.2346729
1.2346729
1.2346729
1.2346729
1.2346728
1.2346728
1.2346728
1.2346728
1.2346727
1.2346727
1.2346727
1.2346727
1.2346727
1.2346726
1.2346726
1.2346726
1.2346726
1.2346726
1.2346725
1.2346725
1.2346725
1.2346725
1.2346725
1.2346724
1.2346724
1.2346724
1.2346724
1.2346724
1.2346723
1.2346723
1.2346723
1.2346723
1.2346723
1.2346722
1.2346722
1.2346722
1.2346722
1.2346722
1.2346721
1.2346721
1.2346721
1.2346721
1.2346721
1.234672
1.234672
1.234672
1.234672
1.234672
1.2346719
1.2346719
1.2346719
1.2346719
1.2346719
1.2346718
1.2346718
1.2346718
1.2346718
1.2346718
1.2346718
1.2346717
1.2346717
1.2346717
1.2346717
1.2346716
1.2346716
1.2346716
1.2346716
1.2346716
1.2346716
1.2346715
1.2346715
1.2346715
1.2346715
1.2346715
1.2346714
1.2346714
1.2346714
1.2346714
1.2346714
1.2346714
1.2346713
1.2346713
1.2346713
1.2346713
1.2346713
1.2346712
1.2346712
1.2346712
1.2346712
1.2346712
1.2346711
1.2346711
1.2346711
1.2346711
1.2346711
1.2346711
1.234671
1.234671
1.234671
1.234671
1.234671
1.2346709
1.2346709
1.2346709
1.2346709
1.2346709
1.2346709
1.2346708
1.2346708
1.2346708
1.2346708
1.2346708
1.2346707
1.2346707
1.2346707
1.2346707
1.2346707
1.2346706
1.2346706
1.2346706
1.2346706
1.2346706
1.2346706
1.2346705
1.2346705
1.2346705
1.2346705
1.2346705
1.2346704
1.2346704
1.2346704
1.2346704
1.2346704
1.2346704
1.2346703
1.2346703
1.2346703
1.2346703
1.2346703
1.2346702
1.2346702
1.2346702
1.2346702
1.2346702
1.2346701
1.2346701
1.2346701
1.2346701
1.2346701
1.23467
1.23467
1.23467
1.23467
1.23467
1.2346699
1.2346699
1.2346699
1.2346699
1.2346699
1.2346698
1.2346698
1.2346698
1.2346698
1.2346698
1.2346697
1.2346697
1.2346697
1.2346697
1.2346697
1.2346696
1.2346696
1.2346696
1.2346696
1.2346696
1.2346695
1.2346695
1.2346695
1.2346695
1.2346694
1.2346694
1.2346694
1.2346694
1.2346694
1.2346693
1.2346693
1.2346693
1.2346693
1.2346693
1.2346692
1.2346692
1.2346692
1.2346692
1.2346691
1.2346691
1.2346691
1.2346691
1.2346691
1.234669
1.234669
1.234669
1.234669
1.2346689
1.2346689
1.2346689
1.2346689
1.2346688
1.2346688
1.2346688
1.2346688
1.2346688
1.2346687
1.2346687
1.2346687
1.2346687
1.2346686
1.2346686
1.2346686
1.2346686
1.2346685
1.2346685
1.2346685
1.2346685
1.2346684
1.2346684
1.2346684
1.2346684
1.2346683
1.2346683
1.2346683
1.2346683
1.2346682
1.2346682
1.2346682
1.2346682
1.2346681
1.2346681
1.2346681
1.234668
1.234668
1.234668
1.234668
1.2346679
1.2346679
1.2346679
1.2346679
1.2346678
1.2346678
1.2346678
1.2346678
1.2346677
1.2346677
1.2346677
1.2346676
1.2346676
1.2346676
1.2346676
1.2346675
1.2346675
1.2346675
1.2346674
1.2346674
1.2346674
1.2346674
1.2346673
1.2346673
1.2346673
1.2346672
1.2346672
1.2346672
1.2346672
1.2346671
1.2346671
1.2346671
1.234667
1.234667
1.234667
1.2346669
1.2346669
1.2346669
1.2346669
1.2346668
1.2346668
1.2346668
1.2346667
1.2346667
1.2346667
1.2346666
1.2346666
1.2346666
1.2346665
1.2346665
1.2346665
1.2346664
1.2346664
1.2346664
1.2346663
1.2346663
1.2346663
1.2346663
1.2346662
1.2346662
1.2346662
1.2346661
1.2346661
1.2346661
1.234666
1.234666
1.234666
1.2346659
1.2346659
1.2346659
1.2346658
1.2346658
1.2346658
1.2346657
1.2346657
1.2346657
1.2346656
1.2346656
1.2346656
1.2346655
1.2346655
1.2346655
1.2346654
1.2346654
1.2346654
1.2346653
1.2346653
1.2346653
1.2346652
1.2346652
1.2346652
1.2346651
1.2346651
1.234665
1.234665
1.234665
1.2346649
1.2346649
1.2346649
1.2346648
1.2346648
1.2346648
1.2346647
1.2346647
1.2346647
1.2346646
1.2346646
1.2346646
1.2346645
1.2346645
1.2346644
1.2346644
1.2346644
1.2346643
1.2346643
1.2346643
1.2346642
1.2346642
1.2346642
1.2346641
1.2346641
1.234664
1.234664
1.234664
1.2346639
1.2346639
1.2346638
1.2346638
1.2346638
1.2346637
1.2346637
1.2346637
1.2346636
1.2346636
1.2346635
1.2346635
1.2346635
1.2346634
1.2346634
1.2346633
1.2346633
1.2346633
1.2346632
1.2346632
1.2346631
1.2346631
1.2346631
1.234663
1.234663
1.2346629
1.2346629
1.2346629
1.2346628
1.2346628
1.2346627
1.2346627
1.2346626
1.2346626
1.2346626
1.2346625
1.2346625
1.2346624
1.2346624
1.2346623
1.2346623
1.2346622
1.2346622
1.2346621
1.2346621
1.2346621
1.234662
1.234662
1.2346619
1.2346619
1.2346618
1.2346618
1.2346617
1.2346617
1.2346616
1.2346616
1.2346615
1.2346615
1.2346614
1.2346614
1.2346613
1.2346613
1.2346612
1.2346612
1.2346611
1.2346611
1.234661
1.234661
1.2346609
1.2346609
1.2346608
1.2346608
1.2346607
1.2346606
1.2346606
1.2346605
1.2346605
1.2346604
1.2346604
1.2346603
1.2346603
1.2346602
1.2346601
1.2346601
1.23466
1.23466
1.2346599
1.2346598
1.2346598
1.2346597
1.2346596
1.2346596
1.2346595
1.2346594
1.2346594
1.2346593
1.2346592
1.2346592
1.2346591
1.234659
1.2346589
1.2346589
1.2346588
1.2346587
1.2346586
1.2346586
1.2346585
1.2346584
1.2346583
1.2346582
1.2346582
1.2346581
1.234658
1.2346579
1.2346578
1.2346577
1.2346576
1.2346575
1.2346574
1.2346573
1.2346572
1.2346571
1.234657
1.2346569
1.2346568
1.2346567
1.2346565
1.2346564
1.2346563
1.2346562
1.2346561
1.2346559
1.2346558
1.2346556
1.2346555
1.2346553
1.2346552
1.234655
1.2346549
1.2346547
1.2346545
1.2346544
1.2346542
1.234654
1.2346538
1.2346536
1.2346534
1.2346532
1.234653
1.2346528
1.2346526
1.2346523
1.2346521
1.2346519
1.2346516
1.2346513
1.2346511
1.2346508
1.2346505
1.2346502
1.2346499
1.2346496
1.2346493
1.234649
1.2346486
1.2346483
1.2346479
1.2346475
1.2346471
1.2346467
1.2346463
1.2346459
1.2346454
1.234645
1.2346445
1.234644
1.2346435
1.234643
1.2346425
1.2346419
1.2346414
1.2346408
1.2346402
1.2346396
1.2346389
1.2346383
1.2346376
1.2346369
1.2346362
1.2346354
1.2346346
1.2346338
1.234633
1.2346322
1.2346313
1.2346304
1.2346295
1.2346285
1.2346275
1.2346265
1.2346254
1.2346243
1.2346232
1.2346221
1.2346209
1.2346196
1.2346184
1.2346171
1.2346157
1.2346143
1.2346129
1.2346114
1.2346099
1.2346083
1.2346067
1.2346051
1.2346034
1.2346016
1.2345998
1.2345979
1.234596
1.234594
1.234592
1.2345899
1.2345877
1.2345855
1.2345832
1.2345808
1.2345784
1.2345759
1.2345733
1.2345707
1.2345679
1.2345651
1.2345622
1.2345593
1.2345562
1.2345531
1.2345499
1.2345466
1.2345431
1.2345396
1.234536
1.2345323
1.2345285
1.2345246
1.2345206
1.2345165
1.2345123
1.2345079
1.2345035
1.2344989
1.2344942
1.2344893
1.2344844
1.2344793
1.234474
1.2344687
1.2344632
1.2344575
1.2344517
1.2344458
1.2344397
1.2344334
1.234427
1.2344205
1.2344137
1.2344068
1.2343998
1.2343925
1.2343851
1.2343775
1.2343697
1.2343617
1.2343536
1.2343452
1.2343366
1.2343279
1.2343189
1.2343097
1.2343003
1.2342907
1.2342809
1.2342708
1.2342605
1.23425
1.2342392
1.2342282
1.2342169
1.2342054
1.2341937
1.2341817
1.2341694
1.2341569
1.234144
1.234131
1.2341176
1.2341039
1.23409
1.2340758
1.2340613
1.2340464
1.2340313
1.2340159
1.2340001
1.2339841
1.2339677
1.233951
1.2339339
1.2339166
1.2338989
1.2338808
1.2338624
1.2338436
1.2338245
1.233805
1.2337852
1.233765
1.2337444
1.2337234
1.2337021
1.2336803
1.2336582
1.2336357
1.2336128
1.2335894
1.2335657
1.2335415
1.233517
1.2334919
1.2334665
1.2334407
1.2334144
1.2333876
1.2333604
1.2333328
1.2333047
1.2332762
1.2332472
1.2332177
1.2331878
1.2331573
1.2331265
1.2330951
1.2330632
1.2330309
1.232998
1.2329647
1.2329308
1.2328965
1.2328616
1.2328262
1.2327903
1.2327539
1.232717
1.2326795
1.2326415
1.232603
1.2325639
1.2325243
1.2324841
1.2324434
1.2324021
1.2323603
1.2323179
1.2322749
1.2322314
1.2321873
1.2321427
1.2320975
1.2320517
1.2320053
1.2319583
1.2319108
1.2318626
1.2318139
1.2317646
1.2317146
1.2316641
1.231613
1.2315613
1.231509
1.231456
1.2314025
1.2313484
1.2312936
1.2312382
1.2311823
1.2311257
1.2310684
1.2310106
1.2309522
1.2308931
1.2308334
1.2307731
1.2307121
1.2306505
1.2305883
1.2305255
1.230462
1.230398
1.2303332
1.2302679
1.2302019
1.2301353
1.2300681
1.2300002
1.2299317
1.2298626
1.2297928
1.2297224
1.2296514
1.2295798
1.2295075
1.2294346
1.2293611
1.2292869
1.2292122
1.2291368
1.2290607
1.2289841
1.2289068
1.228829
1.2287505
1.2286713
1.2285916
1.2285113
1.2284303
1.2283488
1.2282666
1.2281838
1.2281005
1.2280165
1.2279319
1.2278467
1.227761
1.2276746
1.2275877
1.2275002
1.2274121
1.2273234
1.2272341
1.2271443
1.2270539
1.226963
1.2268714
1.2267794
1.2266867
1.2265935
1.2264998
1.2264055
1.2263107
1.2262153
1.2261194
1.226023
1.225926
1.2258286
1.2257306
1.2256321
1.2255331
1.2254336
1.2253336
1.2252331
1.2251321
1.2250306
1.2249287
1.2248263
1.2247234
1.22462
1.2245162
1.2244119
1.2243072
1.224202
1.2240964
1.2239904
1.2238839
1.223777
1.2236697
1.223562
1.2234539
1.2233454
1.2232365
1.2231272
1.2230175
1.2229074
1.222797
1.2226862
1.2225751
1.2224635
1.2223517
1.2222395
1.222127
1.2220141
1.2219009
1.2217874
1.2216736
1.2215595
1.2214451
1.2213304
1.2212155
1.2211002
1.2209847
1.2208689
1.2207528
1.2206365
1.22052
1.2204032
1.2202862
1.220169
1.2200515
1.2199338
1.219816
1.2196979
1.2195796
1.2194612
1.2193426
1.2192238
1.2191048
1.2189857
1.2188664
1.218747
1.2186274
1.2185077
1.2183879
1.218268
1.218148
1.2180278
1.2179076
1.2177873
1.2176669
1.2175464
1.2174258
1.2173052
1.2171845
1.2170638
1.216943
1.2168222
1.2167014
1.2165805
1.2164596
1.2163388
1.2162179
1.216097
1.2159761
1.2158553
1.2157344
1.2156136
1.2154928
1.2153721
1.2152514
1.2151308
1.2150103
1.2148898
1.2147694
1.214649
1.2145288
1.2144086
1.2142886
1.2141686
1.2140488
1.2139291
1.2138095
1.21369
1.2135707
1.2134515
1.2133324
1.2132136
1.2130948
1.2129763
1.2128579
1.2127397
1.2126216
1.2125038
1.2123861
1.2122687
1.2121514
1.2120344
1.2119176
1.2118009
1.2116846
1.2115684
1.2114525
1.2113368
1.2112214
1.2111062
1.2109913
1.2108766
1.2107622
1.2106481
1.2105342
1.2104206
1.2103073
1.2101943
1.2100816
1.2099692
1.2098571
1.2097453
1.2096337
1.2095226
1.2094117
1.2093011
1.2091909
1.209081
1.2089714
1.2088622
1.2087533
1.2086447
1.2085365
1.2084286
1.2083211
1.208214
1.2081072
1.2080008
1.2078947
1.207789
1.2076837
1.2075787
1.2074742
1.20737
1.2072662
1.2071628
1.2070597
1.2069571
1.2068548
1.206753
1.2066515
1.2065505
1.2064498
1.2063496
1.2062497
1.2061503
1.2060513
1.2059526
1.2058544
1.2057567
1.2056593
1.2055623
1.2054658
1.2053697
1.205274
1.2051787
1.2050839
1.2049895
1.2048955
1.2048019
1.2047088
1.2046161
1.2045238
1.204432
1.2043406
1.2042496
1.2041591
1.204069
1.2039793
1.20389
1.2038013
1.2037129
1.203625
1.2035375
1.2034504
1.2033638
1.2032776
1.2031919
1.2031066
1.2030217
1.2029373
1.2028533
1.2027698
1.2026867
1.202604
1.2025217
1.2024399
1.2023586
1.2022776
1.2021971
1.2021171
1.2020375
1.2019583
1.2018795
1.2018012
1.2017233
1.2016458
1.2015688
1.2014922
1.201416
1.2013402
1.2012649
1.20119
1.2011155
1.2010415
1.2009679
1.2008947
1.2008219
1.2007495
1.2006776
1.2006061
1.200535
1.2004643
1.200394
1.2003242
1.2002547
1.2001857
1.2001171
1.2000489
1.1999811
1.1999137
1.1998467
1.1997801
1.1997139
1.1996481
1.1995828
1.1995178
1.1994532
1.199389
1.1993252
1.1992618
1.1991988
1.1991362
1.199074
1.1990122
1.1989508
1.1988897
1.198829
1.1987688
1.1987089
1.1986494
1.1985902
1.1985315
1.1984731
1.1984151
1.1983575
1.1983002
1.1982433
1.1981868
1.1981307
1.1980749
1.1980195
1.1979645
1.1979098
1.1978555
1.1978015
1.1977479
1.1976947
1.1976418
1.1975893
1.1975372
1.1974854
1.1974339
1.1973828
1.1973321
1.1972817
1.1972316
1.1971819
1.1971326
1.1970836
1.1970349
1.1969866
1.1969386
1.196891
1.1968437
1.1967967
1.1967501
1.1967038
1.1966579
1.1966123
1.196567
1.196522
1.1964774
1.1964331
1.1963891
1.1963455
1.1963022
1.1962592
1.1962165
1.1961742
1.1961322
1.1960905
1.1960491
1.196008
1.1959673
1.1959269
1.1958868
1.195847
1.1958075
1.1957683
1.1957295
1.1956909
1.1956527
1.1956148
1.1955772
1.1955399
1.1955028
1.1954661
1.1954298
1.1953937
1.1953579
1.1953224
1.1952872
1.1952523
1.1952177
1.1951834
1.1951494
1.1951157
1.1950823
1.1950492
1.1950163
1.1949838
1.1949516
1.1949196
1.1948879
1.1948565
1.1948254
1.1947946
1.1947641
1.1947339
1.1947039
1.1946742
1.1946448
1.1946157
1.1945868
1.1945583
1.19453
1.1945019
1.1944742
1.1944467
1.1944195
1.1943926
1.1943659
1.1943395
1.1943134
1.1942875
1.1942619
1.1942366
1.1942115
1.1941866
1.1941621
1.1941378
1.1941137
1.1940899
1.1940664
1.1940431
1.1940201
1.1939973
1.1939748
1.1939525
1.1939304
1.1939087
1.1938871
1.1938658
1.1938447
1.1938239
1.1938033
1.193783
1.1937629
1.193743
1.1937233
1.1937039
1.1936847
1.1936658
1.1936471
1.1936286
1.1936103
1.1935922
1.1935744
1.1935568
1.1935394
1.1935222
1.1935053
1.1934885
1.193472
1.1934557
1.1934396
1.1934237
1.193408
1.1933925
1.1933772
1.1933621
1.1933472
1.1933325
1.193318
1.1933038
1.1932897
1.1932758
1.193262
1.1932485
1.1932352
1.193222
1.1932091
1.1931963
1.1931837
1.1931713
1.193159
1.193147
1.1931351
1.1931234
1.1931118
1.1931005
1.1930893
1.1930782
1.1930673
1.1930566
1.1930461
1.1930357
1.1930255
1.1930154
1.1930055
1.1929957
1.1929861
1.1929767
1.1929674
1.1929582
1.1929492
1.1929403
1.1929316
1.192923
1.1929146
1.1929063
1.1928981
1.1928901
1.1928822
1.1928744
1.1928668
1.1928593
1.1928519
1.1928447
1.1928375
1.1928305
1.1928236
1.1928169
1.1928102
1.1928037
1.1927973
1.192791
1.1927848
1.1927787
1.1927727
1.1927669
1.1927611
1.1927555
1.1927499
1.1927445
1.1927391
1.1927339
1.1927288
1.1927237
1.1927187
1.1927139
1.1927091
1.1927044
1.1926999
1.1926954
1.1926909
1.1926866
1.1926824
1.1926782
1.1926741
1.1926702
1.1926662
1.1926624
1.1926586
1.192655
1.1926514
1.1926478
1.1926444
1.192641
1.1926376
1.1926344
1.1926312
1.1926281
1.192625
1.192622
1.1926191
1.1926163
1.1926135
1.1926107
1.192608
1.1926054
1.1926028
1.1926003
1.1925979
1.1925955
1.1925931
1.1925908
1.1925886
1.1925864
1.1925843
1.1925822
1.1925801
1.1925781
1.1925762
1.1925743
1.1925724
1.1925706
1.1925688
1.1925671
1.1925654
1.1925637
1.1925621
1.1925605
1.192559
1.1925575
1.192556
1.1925546
1.1925532
1.1925518
1.1925505
1.1925492
1.1925479
1.1925467
1.1925455
1.1925443
1.1925432
1.1925421
1.192541
1.19254
1.1925389
1.1925379
1.1925369
1.192536
1.1925351
1.1925342
1.1925333
1.1925324
1.1925316
1.1925308
1.19253
1.1925293
1.1925285
1.1925278
1.1925271
1.1925264
1.1925257
1.1925251
1.1925244
1.1925238
1.1925232
1.1925226
1.1925221
1.1925215
1.192521
1.1925205
1.19252
1.1925195
1.192519
1.1925186
1.1925181
1.1925177
1.1925172
1.1925168
1.1925164
1.1925161
1.1925157
1.1925153
1.192515
1.1925146
1.1925143
1.192514
1.1925137
1.1925134
1.1925131
1.1925128
1.1925125
1.1925122
1.192512
1.1925117
1.1925115
1.1925112
1.192511
1.1925108
1.1925106
1.1925104
1.1925102
1.19251
1.1925098
1.1925096
1.1925094
1.1925092
1.1925091
1.1925089
1.1925087
1.1925086
1.1925084
1.1925083
1.1925082
1.192508
1.1925079
1.1925078
1.1925077
1.1925075
1.1925074
1.1925073
1.1925072
1.1925071
1.192507
1.1925069
1.1925068
1.1925067
1.1925066
1.1925065
1.1925064
1.1925064
1.1925063
1.1925062
1.1925061
1.192506
1.192506
1.1925059
1.1925058
1.1925058
1.1925057
1.1925056
1.1925056
1.1925055
1.1925054
1.1925054
1.1925053
1.1925053
1.1925052
1.1925052
1.1925051
1.1925051
1.192505
1.192505
1.1925049
1.1925049
1.1925048
1.1925048
1.1925047
1.1925047
1.1925046
1.1925046
1.1925045
1.1925045
1.1925045
1.1925044
1.1925044
1.1925043
1.1925043
1.1925042
1.1925042
1.1925042
1.1925041
1.1925041
1.192504
1.192504
1.192504
1.1925039
1.1925039
1.1925038
1.1925038
1.1925038
1.1925037
1.1925037
1.1925036
1.1925036
1.1925036
1.1925035
1.1925035
1.1925034
1.1925034
1.1925034
1.1925033
1.1925033
1.1925032
1.1925032
1.1925032
1.1925031
1.1925031
1.192503
1.192503
1.192503
1.1925029
1.1925029
1.1925028
1.1925028
1.1925027
1.1925027
1.1925027
1.1925026
1.1925026
1.1925025
1.1925025
1.1925025
1.1925024
1.1925024
1.1925023
1.1925023
1.1925022
1.1925022
1.1925022
1.1925021
1.1925021
1.192502
1.192502
1.1925019
1.1925019
1.1925018
1.1925018
1.1925017
1.1925017
1.1925017
1.1925016
1.1925016
1.1925015
1.1925015
1.1925014
1.1925014
1.1925013
1.1925013
1.1925013
1.1925012
1.1925012
1.1925011
1.1925011
1.192501
1.192501
1.192501
1.1925009
1.1925009
1.1925008
1.1925008
1.1925007
1.1925007
1.1925007
1.1925006
1.1925006
1.1925005
1.1925005
1.1925004
1.1925004
1.1925004
1.1925003
1.1925003
1.1925002
1.1925002
1.1925001
1.1925001
1.1925001
1.1925
1.1925
1.1924999
1.1924999
1.1924999
1.1924998
1.1924998
1.1924997
1.1924997
1.1924997
1.1924996
1.1924996
1.1924996
1.1924995
1.1924995
1.1924994
1.1924994
1.1924994
1.1924993
1.1924993
1.1924993
1.1924992
1.1924992
1.1924992
1.1924991
1.1924991
1.1924991
1.192499
1.192499
1.192499
1.1924989
1.1924989
1.1924989
1.1924988
1.1924988
1.1924988
1.1924987
1.1924987
1.1924987
1.1924986
1.1924986
1.1924986
1.1924985
1.1924985
1.1924985
1.1924984
1.1924984
1.1924984
1.1924983
1.1924983
1.1924983
1.1924983
1.1924982
1.1924982
1.1924982
1.1924981
1.1924981
1.1924981
1.192498
1.192498
1.192498
1.192498
1.1924979
1.1924979
1.1924979
1.1924978
1.1924978
1.1924978
1.1924977
1.1924977
1.1924977
1.1924977
1.1924976
1.1924976
1.1924976
1.1924975
1.1924975
1.1924975
1.1924974
1.1924974
1.1924974
1.1924973
1.1924973
1.1924973
1.1924972
1.1924972
1.1924972
1.1924972
1.1924971
1.1924971
1.1924971
1.192497
1.192497
1.192497
1.1924969
1.1924969
1.1924969
1.1924968
1.1924968
1.1924968
1.1924967
1.1924967
1.1924967
1.1924966
1.1924966
1.1924966
1.1924965
1.1924965
1.1924965
1.1924964
1.1924964
1.1924963
1.1924963
1.1924963
1.1924962
1.1924962
1.1924962
1.1924961
1.1924961
1.1924961
1.192496
1.192496
1.1924959
1.1924959
1.1924959
1.1924958
1.1924958
1.1924958
1.1924957
1.1924957
1.1924956
1.1924956
1.1924956
1.1924955
1.1924955
1.1924955
1.1924954
1.1924954
1.1924953
1.1924953
1.1924953
1.1924952
1.1924952
1.1924951
1.1924951
1.1924951
1.192495
1.192495
1.1924949
1.1924949
1.1924948
1.1924948
1.1924948
1.1924947
1.1924947
1.1924946
1.1924946
1.1924946
1.1924945
1.1924945
1.1924944
1.1924944
1.1924943
1.1924943
1.1924943
1.1924942
1.1924942
1.1924941
1.1924941
1.192494
1.192494
1.1924939
1.1924939
1.1924939
1.1924938
1.1924938
1.1924937
1.1924937
1.1924936
1.1924936
1.1924936
1.1924935
1.1924935
1.1924934
1.1924934
1.1924933
1.1924933
1.1924932
1.1924932
1.1924931
1.1924931
1.1924931
1.192493
1.192493
1.1924929
1.1924929
1.1924928
1.1924928
1.1924927
1.1924927
1.1924926
1.1924926
1.1924926
1.1924925
1.1924925
1.1924924
1.1924924
1.1924923
1.1924923
1.1924922
1.1924922
1.1924921
1.1924921
1.192492
1.192492
1.1924919
1.1924919
1.1924918
1.1924918
1.1924917
1.1924917
1.1924916
1.1924916
1.1924915
1.1924915
1.1924914
1.1924914
1.1924913
1.1924913
1.1924912
1.1924912
1.1924911
1.1924911
1.192491
1.192491
1.1924909
1.1924909
1.1924908
1.1924908
1.1924907
1.1924907
1.1924906
1.1924906
1.1924905
1.1924904
1.1924904
1.1924903
1.1924903
1.1924902
1.1924902
1.1924901
1.1924901
1.19249
1.19249
1.1924899
1.1924898
1.1924898
1.1924897
1.1924897
1.1924896
1.1924896
1.1924895
1.1924895
1.1924894
1.1924893
1.1924893
1.1924892
1.1924892
1.1924891
1.192489
1.192489
1.1924889
1.1924888
1.1924888
1.1924887
1.1924887
1.1924886
1.1924885
1.1924885
1.1924884
1.1924883
1.1924883
1.1924882
1.1924882
1.1924881
1.192488
1.192488
1.1924879
1.1924878
1.1924878
1.1924877
1.1924876
1.1924876
1.1924875
1.1924874
1.1924874
1.1924873
1.1924872
1.1924872
1.1924871
1.192487
1.192487
1.1924869
1.1924868
1.1924868
1.1924867
1.1924866
1.1924865
1.1924865
1.1924864
1.1924863
1.1924863
1.1924862
1.1924861
1.192486
1.192486
1.1924859
1.1924858
1.1924858
1.1924857
1.1924856
1.1924855
1.1924855
1.1924854
1.1924853
1.1924852
1.1924852
1.1924851
1.192485
1.1924849
1.1924849
1.1924848
1.1924847
1.1924846
1.1924846
1.1924845
1.1924844
1.1924843
1.1924843
1.1924842
1.1924841
1.192484
1.1924839
1.1924839
1.1924838
1.1924837
1.1924836
1.1924836
1.1924835
1.1924834
1.1924833
1.1924832
1.1924832
1.1924831
1.192483
1.1924829
1.1924828
1.1924827
1.1924827
1.1924826
1.1924825
1.1924824
1.1924823
1.1924823
1.1924822
1.1924821
1.192482
1.1924819
1.1924818
1.1924818
1.1924817
1.1924816
1.1924815
1.1924814
1.1924813
1.1924813
1.1924812
1.1924811
1.192481
1.1924809
1.1924808
1.1924808
1.1924807
1.1924806
1.1924805
1.1924804
1.1924803
1.1924802
1.1924801
1.19248
1.19248
1.1924799
1.1924798
1.1924797
1.1924796
1.1924795
1.1924794
1.1924793
1.1924792
1.1924791
1.192479
1.1924789
1.1924788
1.1924787
1.1924786
1.1924785
1.1924785
1.1924784
1.1924783
1.1924782
1.1924781
1.192478
1.1924779
1.1924778
1.1924777
1.1924776
1.1924775
1.1924774
1.1924773
1.1924772
1.192477
1.1924769
1.1924768
1.1924767
1.1924766
1.1924765
1.1924764
1.1924763
1.1924762
1.1924761
1.1924759
1.1924758
1.1924757
1.1924756
1.1924755
1.1924754
1.1924753
1.1924751
1.192475
1.1924749
1.1924748
1.1924747
1.1924745
1.1924744
1.1924743
1.1924741
1.192474
1.1924739
1.1924737
1.1924736
1.1924735
1.1924733
1.1924732
1.1924731
1.1924729
1.1924728
1.1924727
1.1924725
1.1924724
1.1924723
1.1924721
1.192472
1.1924718
1.1924717
1.1924715
1.1924714
1.1924713
1.1924711
1.192471
1.1924708
1.1924706
1.1924705
1.1924703
1.1924702
1.19247
1.1924698
1.1924697
1.1924695
1.1924693
1.1924692
1.192469
1.1924688
1.1924687
1.1924685
1.1924683
1.1924681
1.192468
1.1924678
1.1924676
1.1924674
1.1924672
1.1924671
1.1924669
1.1924667
1.1924665
1.1924663
1.1924661
1.1924659
1.1924657
1.1924655
1.1924653
1.1924651
1.1924649
1.1924647
1.1924645
1.1924643
1.1924641
1.1924639
1.1924636
1.1924634
1.1924632
1.192463
1.1924628
1.1924625
1.1924623
1.1924621
1.1924618
1.1924616
1.1924614
1.1924611
1.1924609
1.1924606
1.1924604
1.1924601
1.1924599
1.1924596
1.1924593
1.1924591
1.1924588
1.1924586
1.1924583
1.192458
1.1924578
1.1924575
1.1924572
1.1924569
1.1924567
1.1924564
1.1924561
1.1924558
1.1924555
1.1924552
1.1924549
1.1924546
1.1924543
1.1924539
1.1924536
1.1924533
1.1924529
1.1924526
1.1924523
1.1924519
1.1924516
1.1924512
1.1924509
1.1924505
1.1924501
1.1924498
1.1924494
1.192449
1.1924486
1.1924482
1.1924478
1.1924474
1.192447
1.1924466
1.1924462
1.1924457
1.1924453
1.1924449
1.1924444
1.192444
1.1924435
1.1924431
1.1924426
1.1924421
1.1924417
1.1924412
1.1924407
1.1924402
1.1924397
1.1924392
1.1924387
1.1924382
1.1924378
1.1924373
1.1924368
1.1924363
1.1924358
1.1924353
1.1924348
1.1924344
1.1924339
1.1924335
1.1924331
1.1924327
1.1924323
1.192432
1.1924316
1.1924314
1.1924311
1.1924309
1.1924306
1.1924305
1.1924303
1.1924302
1.1924302
1.1924301
1.1924301
1.1924301
1.19243
1.19243
1.1924301
1.1924302
1.1924302
1.1924303
1.1924303
1.1924304
1.1924304
1.1924304
1.1924304
1.1924304
1.1924303
1.1924302
1.1924299
1.1924295
1.192429
1.1924285
1.1924278
1.1924271
1.1924263
1.1924255
1.1924245
1.1924235
1.1924225
1.1924215
1.1924204
1.1924193
1.1924181
1.192417
1.192416
1.1924149
1.1924139
1.192413
1.1924121
1.1924113
1.1924106
1.19241
1.1924096
1.1924092
1.1924088
1.1924086
1.1924083
1.1924079
1.1924073
1.1924065
1.1924049
1.1924018
1.192395
1.1923787
1.1923388
1.1922403
1.1919963
1.1913963
1.1900834
1.1883357
1.1861804
1.1836434
1.1807679
1.177612
1.1742437
1.1707372
1.1671678
1.163608
1.1601243
1.1567744
1.1536055
1.1506539
1.1479443
1.1454914
1.1432998
1.1413665
1.1396816
1.1382303
1.1369943
1.1359532
1.1350857
1.1343704
1.1337865
1.1333148
1.1329374
1.1326386
1.1324044
1.1322226
1.132083
1.1319769
1.1318972
1.1318381
1.1317948
1.1317636
1.1317416
1.1317263
1.1317161
1.1317096
1.1317056
1.1317035
1.1317026
1.1317024
1.1317025
1.1317032
1.1317051
1.1317069
1.1317087
1.1317104
1.131712
1.1317136
1.1317151
1.1317165
1.1317179
1.1317193
1.1317207
1.1317221
1.1317235
1.1317249
1.1317264
1.1317279
1.1317294
1.1317311
1.1317327
1.1317344
1.1317362
1.1317379
1.1317398
1.1317416
1.1317434
1.1317453
1.1317471
1.1317489
1.1317507
1.1317524
1.1317541
1.1317558
1.1317574
1.1317589
1.1317604
1.1317618
1.1317632
1.1317644
1.1317657
1.1317669
1.131768
1.131769
1.13177
1.131771
1.1317719
1.1317728
1.1317736
1.1317744
1.1317752
1.1317759
1.1317766
1.1317773
1.131778
1.1317786
1.1317792
1.1317798
1.1317804
1.131781
1.1317815
1.1317821
1.1317826
1.1317831
1.1317836
1.1317841
1.1317846
1.131785
1.1317855
1.1317859
1.1317864
1.1317868
1.1317872
1.1317876
1.1317881
1.1317885
1.1317889
1.1317893
1.1317896
1.13179
1.1317904
1.1317907
1.1317911
1.1317915
1.1317918
1.1317922
1.1317925
1.1317928
1.1317932
1.1317935
1.1317938
1.1317941
1.1317944
1.1317947
1.131795
1.1317953
1.1317956
1.1317959
1.1317962
1.1317965
1.1317968
1.131797
1.1317973
1.1317976
1.1317978
1.1317981
1.1317984
1.1317986
1.1317989
1.1317991
1.1317993
1.1317996
1.1317998
1.1318001
1.1318003
1.1318005
1.1318007
1.131801
1.1318012
1.1318014
1.1318016
1.1318019
1.1318021
1.1318023
1.1318025
1.1318027
1.1318029
1.1318031
1.1318033
1.1318035
1.1318037
1.1318039
1.1318041
1.1318043
1.1318044
1.1318046
1.1318048
1.131805
1.1318052
1.1318053
1.1318055
1.1318057
1.1318059
1.131806
1.1318062
1.1318064
1.1318065
1.1318067
1.1318069
1.131807
1.1318072
1.1318074
1.1318075
1.1318077
1.1318078
1.131808
1.1318081
1.1318083
1.1318084
1.1318085
1.1318087
1.1318088
1.131809
1.1318091
1.1318092
1.1318094
1.1318095
1.1318096
1.1318098
1.1318099
1.13181
1.1318102
1.1318103
1.1318104