/*--------------------------------*- C++ -*----------------------------------*\
  =========                 |
  \\      /  F ield         | OpenFOAM: The Open Source CFD Toolbox
   \\    /   O peration     | Website:  https://openfoam.org
    \\  /    A nd           | Version:  7
     \\/     M anipulation  |
\*---------------------------------------------------------------------------*/
FoamFile
{
    version     2.0;
    format      ascii;
    class       volScalarField;
    location    "0.00231";
    object      Uy;
}
// * * * * * * * * * * * * * * * * * * * * * * * * * * * * * * * * * * * * * //

dimensions      [0 1 -1 0 0 0 0];

internalField   nonuniform List<scalar> 
5000
(
3.7779098e-21
5.1282571e-21
0
0
-2.4804753e-21
2.6964416e-36
2.1566911e-21
0
0
-2.44955e-21
-4.9820958e-21
2.4966316e-21
2.4894823e-21
-2.481845e-21
0
-2.4594648e-21
-3.6797549e-51
2.4347762e-21
0
2.4438169e-21
-2.4647416e-21
-2.4759756e-21
4.9385143e-21
-2.4537922e-21
-2.4402956e-21
-2.0014841e-35
2.4243186e-21
2.4351882e-21
-4.9032487e-21
4.2718319e-35
-4.311614e-35
2.4595284e-21
4.8956182e-21
-4.8734524e-21
4.2107263e-35
-2.1051911e-34
-8.3687108e-35
4.8302281e-21
-4.8492544e-21
-4.8661106e-21
4.8685668e-21
-1.6721181e-34
-4.853742e-21
2.4192099e-21
7.2578643e-21
-2.4278337e-21
-2.427587e-21
-1.6580843e-34
-4.8265095e-21
0
2.4056314e-21
3.4138608e-37
-2.3926717e-21
4.7566854e-21
-8.2516627e-35
-4.6909833e-21
2.3426538e-21
-8.1311797e-35
-2.3699379e-21
0
2.3877678e-21
8.1994349e-35
6.8188067e-37
2.4155175e-21
-2.4472849e-21
8.4889896e-35
2.3796325e-21
-2.3244742e-21
-2.218707e-21
1.5887342e-21
1.6842146e-21
-2.4415687e-21
-2.4196201e-21
4.4065084e-21
2.2314007e-21
-2.3481581e-21
0
2.3253348e-21
-3.2943133e-37
-2.3111812e-21
2.2897995e-21
-6.3881396e-37
6.3229532e-37
2.2433424e-21
2.2771538e-21
7.9791981e-35
-2.2725754e-21
0
-2.2172569e-21
-2.2852834e-34
-7.7696055e-35
2.2517801e-21
2.2628936e-21
-4.4912296e-21
-1.5372712e-34
2.1941873e-21
0
0
-2.2312881e-21
-1.5508771e-34
4.4201083e-21
-2.1760071e-21
-4.2795267e-21
0
2.1667151e-21
2.2083052e-21
-2.2227756e-21
-2.2012354e-21
0
0
2.1177891e-21
2.1287706e-21
0
-2.1767457e-21
7.5912817e-35
2.1537178e-21
-2.1257217e-21
5.985047e-37
-7.3882368e-35
3.7267915e-52
4.316552e-21
-9.1620227e-37
-2.1261337e-21
0
-2.0663992e-21
2.0809202e-21
2.1179475e-21
-4.2796525e-21
-2.1355002e-21
4.2297613e-21
2.0886843e-21
-2.0680847e-21
-2.0693386e-21
-2.0936406e-21
0
2.115848e-21
2.1013365e-21
-2.0823335e-21
-7.1593273e-35
2.0597055e-21
-2.0768849e-21
-2.0897736e-21
0
2.0750509e-21
2.0563249e-21
-2.0447809e-21
2.0544143e-21
-1.1739644e-36
-2.0656785e-21
2.0557802e-21
-2.0333873e-21
1.405686e-34
2.0270362e-21
-2.0466867e-21
2.0564184e-21
2.0442968e-21
-2.0238917e-21
0
0
-2.0134178e-21
-2.0288444e-21
2.028207e-21
2.0166568e-21
-1.9973307e-21
-1.3760037e-34
1.9885264e-21
-2.0007105e-21
-2.0074579e-21
0
1.9872723e-21
1.9759156e-21
0
-1.9817513e-21
-1.9852378e-21
0
1.9718014e-21
4.0895754e-34
-1.9630316e-21
1.962876e-21
1.9581856e-21
-1.9413826e-21
-1.3321093e-34
1.3304809e-34
8.2923403e-37
1.9485983e-21
-1.9384623e-21
-2.6560175e-34
1.3049964e-34
-1.3078566e-34
1.921815e-21
0
0
-1.9080103e-21
-1.8888077e-21
0
0
1.9129046e-21
9.9089831e-52
-1.8945376e-21
0
1.8650071e-21
-1.8769756e-21
-5.2358881e-34
3.7781336e-21
-1.8799167e-21
-3.8658787e-34
-2.6303548e-37
-1.8595281e-21
1.8708694e-21
-2.6615761e-37
-2.5822209e-34
1.2802126e-34
-1.8395051e-21
0
1.8552766e-21
1.2852296e-34
5.1360899e-34
1.839639e-21
0
-1.8366327e-21
-1.8422831e-21
0
0
0
1.8095412e-21
1.2596737e-34
-1.8301567e-21
0
0
1.8112461e-21
1.8092279e-21
-1.8068785e-21
-1.7997423e-21
0
1.8017469e-21
1.8040763e-21
-1.7980512e-21
-1.7884226e-21
0
1.7571506e-21
-4.9100222e-34
-1.2369462e-34
1.789548e-21
-1.78107e-21
-1.7604111e-21
0
1.7482558e-21
-2.4522723e-34
1.7763685e-21
2.4576645e-34
-3.5081411e-21
1.7388145e-21
-2.4128917e-34
-6.0906088e-34
-1.2218769e-34
-1.7574513e-21
1.7346211e-21
1.7132597e-21
0
-1.739886e-21
-1.755777e-21
0
1.7352701e-21
1.7067976e-21
-3.3833113e-21
-1.7097826e-21
1.7368818e-21
1.7499087e-21
4.8246043e-34
-1.7173159e-21
1.6954658e-21
-1.1734284e-34
-1.7176699e-21
1.7352126e-21
-1.2050163e-34
1.199044e-34
-4.8228284e-37
-1.1615669e-34
1.6948085e-21
0
0
-1.7288264e-21
-1.7135212e-21
0
0
0
0
1.7239281e-21
1.1797032e-34
-3.4024338e-21
7.2617353e-37
1.7114889e-21
1.7150687e-21
-2.3761226e-34
-2.3467409e-34
-2.3921606e-37
-1.6989577e-21
-1.7115557e-21
-1.7091553e-21
3.3947163e-21
4.9901454e-21
-1.6474261e-21
-3.3492202e-21
0
1.7299376e-21
1.7060627e-21
-1.6737095e-21
4.5736623e-37
-6.7820389e-37
4.6838033e-37
1.7003909e-21
1.7326071e-21
-1.7386096e-21
-3.4333816e-21
1.6881859e-21
3.2974749e-53
1.6281471e-21
4.5620828e-34
-3.3717839e-21
0
0
3.4248507e-21
-9.3995566e-34
-3.3316559e-21
0
1.6693022e-21
1.7020432e-21
-1.7172734e-21
2.4309228e-37
-2.3563226e-34
2.3786242e-37
1.6613873e-21
-1.6778674e-21
-1.7048109e-21
0
1.7118129e-21
-2.3547835e-34
-1.6776758e-21
3.3398447e-21
-4.6874905e-34
-1.7093399e-21
-4.7582774e-34
-3.4151698e-21
3.3906432e-21
1.6882103e-21
-1.6948522e-21
-2.4269086e-37
-1.7150295e-21
0
0
1.7041006e-21
-2.3613238e-34
-3.3873899e-21
2.396676e-37
5.0837436e-21
-1.703953e-21
-1.7076373e-21
3.4048117e-21
-1.6824331e-21
1.6695243e-21
3.3623371e-21
-1.6980017e-21
-1.7055936e-21
-1.6954735e-21
1.6628361e-21
-2.2665702e-51
-1.6570739e-21
1.6961848e-21
-1.7168057e-21
1.7091544e-21
4.6637822e-34
4.6510903e-37
1.6096392e-21
-3.2687166e-21
1.6808611e-21
4.7672122e-34
-4.7821407e-34
-1.7017583e-21
-3.354074e-21
4.9423191e-21
4.5308557e-34
-9.1915394e-34
4.6924508e-34
-3.4150833e-21
3.3929348e-21
-4.6542767e-34
-3.2920626e-21
0
0
1.6906926e-21
-2.3674178e-34
-1.6915519e-21
-1.6683935e-21
1.6353114e-21
4.8679001e-21
-1.652524e-21
-1.6928366e-21
-4.8519431e-37
-1.6900909e-21
0
3.2598248e-21
3.2267021e-21
-1.6372441e-21
-3.348252e-21
-1.6933804e-21
3.3796785e-21
3.3571819e-21
-3.3291719e-21
-3.3130222e-21
0
3.3523616e-21
-1.6777602e-21
-3.3443868e-21
1.6565868e-21
1.6482121e-21
-2.3630149e-37
2.3275648e-34
1.6731891e-21
-1.6612693e-21
-1.63722e-21
1.6267934e-21
-2.2883596e-34
-2.3722387e-37
-2.3177461e-34
-1.6575827e-21
1.6234025e-21
-6.683871e-34
-2.256126e-34
-4.6207757e-34
-1.6788021e-21
1.6622221e-21
-2.2725429e-34
-4.405837e-34
-2.2339614e-37
-3.2221675e-21
-1.65525e-21
1.6816217e-21
3.3633977e-21
-2.3099148e-34
-3.290784e-21
-1.628864e-21
3.2188737e-21
1.6051868e-21
-1.6270043e-21
-1.6564921e-21
-4.6234632e-34
1.6523466e-21
0
0
1.5915636e-21
0
-1.6435362e-21
1.6572411e-21
2.3400232e-37
-4.510354e-34
0
-1.6002588e-21
1.6257057e-21
1.6483078e-21
-3.2923327e-21
-1.6321734e-21
1.6128499e-21
0
0
-1.6432227e-21
4.5498167e-34
1.6161389e-21
0
0
-1.6125106e-21
6.8013226e-34
1.6296106e-21
0
0
0
0
0
0
0
0
3.1563597e-21
8.7113186e-34
-1.5973447e-21
1.617337e-21
-1.6167471e-21
1.6055135e-21
-4.3806231e-34
-1.5607599e-21
-4.3954651e-34
-1.6043987e-21
0
0
1.5583708e-21
4.261578e-34
-1.5574353e-21
0
0
0
0
0
0
0
3.199407e-21
-1.3547339e-33
-3.2378091e-21
1.5836423e-21
2.1820959e-37
1.490181e-21
-8.3207283e-34
-3.1104711e-21
-1.5992171e-21
-5.1903649e-52
4.7873421e-21
0
-3.0757867e-21
0
0
3.1585208e-21
-4.4409884e-34
-4.7737714e-21
1.5710781e-21
1.5400851e-21
-1.5266253e-21
1.5560824e-21
-1.5801071e-21
-4.3938509e-34
1.5752004e-21
-1.5463621e-21
0
-1.550539e-21
1.5757937e-21
3.1633466e-21
-1.5735148e-21
-1.5500294e-21
-1.5387492e-21
-1.5531724e-21
3.1485676e-21
1.5735753e-21
-1.5404781e-21
0
1.5255671e-21
-1.5574343e-21
-1.5786502e-21
4.7045845e-21
4.3315981e-37
-2.9741145e-21
1.4997054e-21
2.1510359e-34
1.573356e-21
-4.4563674e-37
-3.1034436e-21
1.507883e-21
0
-4.2274047e-34
-2.2082962e-37
-1.566321e-21
1.558158e-21
-4.2213084e-34
-2.0731183e-34
-2.1498689e-37
-1.5430453e-21
1.5608753e-21
1.8606785e-51
-4.1501052e-34
-2.071949e-37
-2.9667044e-21
-2.1324327e-34
1.5578781e-21
0
0
-1.4580772e-21
-5.9668194e-34
1.4867303e-21
-1.5414822e-21
2.1618532e-34
7.3974218e-51
-2.0991996e-34
1.4493273e-21
1.429291e-21
2.057113e-34
-1.532828e-21
0
0
1.4824902e-21
-1.4256887e-21
1.1846192e-33
1.4819489e-21
-1.5188421e-21
0
1.4966345e-21
1.4036844e-21
-1.3597977e-21
-1.4153157e-21
0
1.5115187e-21
1.5170037e-21
-3.018298e-21
-1.5025435e-21
1.5066281e-21
1.5033999e-21
2.0606257e-34
1.4613672e-21
3.9131177e-34
-2.7546576e-21
0
0
0
1.4697328e-21
1.4501284e-21
0
-1.3691954e-21
-1.9327112e-34
1.4404539e-21
0
0
-1.4103715e-21
-1.8738737e-34
1.8522581e-34
-1.3913332e-21
1.4356656e-21
-6.0194809e-34
-1.4209077e-21
0
-1.3444282e-21
-1.8476128e-34
1.3683853e-21
-1.3973056e-21
1.4039022e-21
1.399742e-21
-1.3925777e-21
0
1.3841044e-21
1.3845672e-21
-1.3852678e-21
-1.380907e-21
0
-1.3591358e-21
1.3482448e-21
1.3404715e-21
-1.3411044e-21
-2.6899969e-21
7.4777208e-34
4.0334548e-21
1.9919624e-52
-1.3364535e-21
-2.6650996e-21
7.3707959e-34
2.6483745e-21
-1.3192157e-21
1.3138607e-21
-1.3085888e-21
-1.3039166e-21
2.5978298e-21
0
0
-2.5577753e-21
-9.4031468e-52
2.5332508e-21
0
0
-2.5221088e-21
-2.4842871e-51
2.4968796e-21
0
0
-2.4669046e-21
-1.2222687e-21
2.4186955e-21
1.192733e-21
0
-2.3645019e-21
6.6179762e-34
2.4010099e-21
-1.1973346e-21
0
1.1610777e-21
-1.1435012e-21
1.609166e-37
1.1342076e-21
-1.1422403e-21
1.146089e-21
1.145322e-21
-1.1376824e-21
-1.1217064e-21
3.0680796e-34
1.0893959e-21
-1.078984e-21
-2.9953372e-34
1.0836916e-21
-1.0865749e-21
1.0844726e-21
1.0753457e-21
-1.0609621e-21
-1.0477117e-21
2.8768713e-34
1.0283553e-21
-1.0276993e-21
1.4624233e-37
1.0231164e-21
-1.0085822e-21
9.9193539e-22
9.7648379e-22
-9.6726711e-22
-1.9314017e-21
5.3681741e-34
1.9262562e-21
-9.5674026e-22
1.3485562e-37
1.8822535e-21
2.6531375e-37
-9.2586138e-22
0
9.0743368e-22
0
-8.8804526e-22
0
0
0
-8.6110453e-22
-5.9752787e-52
8.3698133e-22
0
8.1092594e-22
-2.2294638e-34
-7.9894124e-22
0
0
0
-7.7044768e-22
2.1072879e-34
7.4803124e-22
0
7.3368596e-22
2.0215721e-34
-7.2092379e-22
0
6.9108955e-22
-6.7558919e-22
3.6941852e-34
6.594522e-22
-6.5720799e-22
0
-6.458314e-22
-1.7691873e-34
6.2758518e-22
0
6.0692051e-22
-5.9777467e-22
-3.2754782e-34
5.8252876e-22
-3.1935373e-34
-8.065386e-38
1.554901e-34
-7.8379845e-38
-5.4268393e-22
0
5.223564e-22
-1.4228569e-34
-1.4005685e-34
3.2245597e-52
-1.3627618e-34
0
-9.5036044e-22
-1.2968903e-34
4.5899357e-22
-4.510209e-22
1.229614e-34
4.34958e-22
4.2660362e-22
1.1606427e-34
-1.137168e-34
4.0158828e-22
-3.9412549e-22
-3.8690518e-22
0
-3.7259189e-22
1.0153966e-34
3.5902939e-22
0
0
0
-6.6767243e-22
3.6324552e-34
6.393773e-22
0
0
0
0
0
0
0
-5.3294067e-22
1.4375634e-34
4.9817072e-22
2.3841073e-22
-2.2953468e-22
-2.2415501e-22
6.1333139e-35
1.203364e-34
2.1123854e-22
-2.0359363e-22
1.9458681e-22
1.8616151e-22
-1.7973755e-22
-1.7476237e-22
9.4188198e-35
1.6325778e-22
1.5547277e-22
-4.0969227e-35
-1.4183952e-22
-1.3821051e-22
1.3494241e-22
1.3025381e-22
-1.2366452e-22
1.1460746e-22
0
-9.2442508e-23
-8.6254604e-23
2.3348023e-35
8.2489601e-23
-7.8458551e-23
7.2005529e-23
6.3611787e-23
-5.2540526e-23
3.9704422e-23
8.2908852e-36
-2.5454103e-23
-2.3441396e-23
-2.8252688e-39
2.6983909e-23
2.6499844e-36
6.1170857e-24
1.7787032e-23
0
-3.0558643e-23
0
0
0
-5.9040144e-23
-7.0895626e-23
8.0291723e-23
8.5883698e-23
0
-9.6320426e-23
2.9132185e-35
1.1557779e-22
0
0
-1.5049016e-22
8.6629845e-35
1.6137576e-22
0
0
-1.8899644e-22
1.1170971e-34
2.1423327e-22
0
-2.3410057e-22
6.7148655e-35
-6.9482031e-35
7.227713e-35
2.715082e-22
0
2.9710577e-22
-1.717921e-34
-3.204653e-22
0
-3.4061135e-22
3.5171227e-22
3.6358423e-22
-7.5154352e-22
-1.0781744e-34
7.9982491e-22
-1.1449088e-34
-4.2559855e-22
0
0
-4.703659e-22
1.3424088e-34
4.9573963e-22
0
-5.2102257e-22
5.3540871e-22
5.5066566e-22
-5.6629285e-22
0
5.9792531e-22
-6.1395464e-22
-3.4958595e-34
3.5802631e-34
-6.5946771e-22
5.6096596e-34
-6.8812819e-22
7.0339598e-22
-1.9970045e-34
4.0910527e-34
1.5099599e-21
-2.1483337e-34
-7.9541805e-22
0
0
0
1.7273824e-21
8.7734258e-22
-1.7900209e-21
-9.1699508e-22
0
0
-9.9704719e-22
8.4461401e-52
1.0297253e-21
0
2.1358138e-21
1.0939245e-21
-2.245755e-21
-1.1523665e-21
0
2.4052709e-21
3.4802767e-37
-3.7438697e-21
3.5371043e-34
2.612039e-21
-1.3387477e-21
-7.7954585e-37
1.402414e-21
-3.9761904e-34
-8.0970861e-34
-1.489794e-21
0
-1.5609293e-21
8.8838034e-34
3.2780352e-21
-1.6766491e-21
2.8532314e-33
1.7525298e-21
-3.5906559e-21
2.6183395e-37
1.8919489e-21
0
0
0
2.0767129e-21
-2.1305244e-21
-4.3834978e-21
2.2568401e-21
6.4450755e-34
6.605379e-34
2.4384352e-21
0
-2.5666857e-21
3.7564395e-37
5.4499002e-21
-2.806351e-21
-1.6005172e-33
2.9625705e-21
3.0440877e-21
-1.7407935e-33
-6.4584495e-21
0
-3.4343102e-21
-3.5392956e-21
0
3.7569618e-21
3.8722855e-21
-3.9928365e-21
0
4.2518196e-21
0
0
-4.6832619e-21
4.0259951e-33
4.9906976e-21
0
0
-5.5084133e-21
-5.6954462e-21
5.8867596e-21
6.0832666e-21
-6.2877018e-21
-6.502026e-21
1.3451758e-20
6.9576052e-21
-1.9993418e-33
-7.4437707e-21
4.272694e-33
4.4217482e-33
-8.2481199e-21
8.5357869e-21
-8.8294075e-21
9.1350388e-21
8.0657126e-36
-9.7971781e-21
2.0288825e-20
1.0496969e-20
1.0855971e-20
-2.2459387e-20
-2.3252395e-20
1.2046686e-20
-1.2483621e-20
1.29259e-20
-7.4244171e-33
-2.7638282e-20
1.4292156e-20
-4.1073036e-33
4.2617547e-33
1.5902711e-20
0
0
-1.7607121e-20
-1.8198738e-20
0
1.9496708e-20
2.0198587e-20
0
2.1646702e-20
-6.2152147e-33
-2.3137517e-20
2.3924662e-20
-6.8658733e-33
-2.5614847e-20
0
-2.7420899e-20
-1.5742295e-32
2.9309816e-20
-3.0298554e-20
8.6851483e-33
3.2391992e-20
3.3494565e-20
9.611044e-33
-3.5795967e-20
0
3.8230362e-20
-3.9503619e-20
1.1600611e-35
-2.3418816e-32
-4.3564057e-20
4.5005299e-20
0
9.6060844e-20
-1.1015064e-31
-5.1233118e-20
-2.9363413e-32
-1.0923183e-19
1.1277335e-19
1.1642778e-19
-1.2019122e-19
-1.2405878e-19
-6.4016009e-20
0
6.816733e-20
1.4067936e-19
-1.0313595e-35
7.4872153e-20
-7.7230422e-20
-7.9655064e-20
8.2151673e-20
-1.6944515e-19
1.7473217e-19
1.5002914e-31
-1.8573038e-19
1.9145489e-19
-5.4770882e-32
1.0170368e-19
-1.0481847e-19
-1.0801471e-19
1.1129357e-19
3.1806383e-32
2.3624437e-19
-2.4336184e-19
-2.506695e-19
2.581607e-19
3.6889801e-32
1.3685369e-19
-7.8248144e-32
-1.4505234e-19
-4.1442882e-32
8.5309121e-49
-1.5819205e-19
-3.2556502e-19
1.6748077e-19
-2.1143099e-48
1.7724257e-19
3.0371539e-31
-1.8754106e-19
3.8576768e-19
-1.1009593e-31
-4.0784033e-19
2.7821998e-49
2.1546805e-19
0
0
2.3392946e-19
-2.4037043e-19
-4.9389113e-19
0
0
0
2.7479083e-19
2.8216509e-19
0
-2.97385e-19
3.0523676e-19
5.2174015e-31
-6.4292896e-19
0
0
0
3.5606719e-19
3.6517083e-19
-3.7446526e-19
3.839523e-19
2.1860653e-31
-8.0699435e-19
0
0
8.6855347e-19
-1.2646278e-34
-4.5583453e-19
4.6692105e-19
-4.7820863e-19
4.897016e-19
-2.7846266e-31
-1.0266788e-18
0
0
5.5047017e-19
5.6328539e-19
0
0
-6.0308795e-19
-6.1681742e-19
0
6.4497053e-19
6.5940098e-19
-6.740733e-19
6.8898806e-19
7.0414239e-19
-7.1953388e-19
-7.3516438e-19
4.1709767e-31
7.6716647e-19
-7.8354602e-19
-2.2207925e-31
8.1705338e-19
0
8.5155379e-19
-4.8258668e-31
-8.8706942e-19
9.0520858e-19
-5.1280029e-31
-9.4225218e-19
0
9.8034473e-19
-2.7762022e-31
-1.4487644e-34
1.0394197e-18
-1.0596154e-18
-1.080074e-18
0
2.2436129e-18
-1.2696375e-30
-1.1646035e-18
-1.6859551e-34
-2.4168437e-18
2.4614329e-18
2.5065465e-18
-2.552191e-18
-1.2991856e-18
0
2.6923336e-18
-2.2810516e-30
-2.788356e-18
0
2.886385e-18
8.1532078e-31
-1.4932666e-18
-4.2171441e-31
-3.0887957e-18
3.1406596e-18
3.9875775e-30
-3.2458362e-18
3.2991957e-18
-9.3037154e-31
-3.4075037e-18
-1.7312031e-18
3.5177698e-18
1.7867945e-18
-3.6298809e-18
3.6866707e-18
4.6756575e-30
-3.8017699e-18
3.8600394e-18
-5.4407967e-31
1.9889484e-18
-2.2399645e-30
-6.1463136e-18
1.1540233e-30
4.2190684e-18
-2.1402511e-18
-4.3423503e-18
2.2023023e-18
-1.2401558e-30
2.265187e-18
2.551274e-30
-2.3289332e-18
4.7222248e-18
-1.993186e-30
2.6936115e-30
-1.3641072e-30
-2.4917025e-18
0
-2.5581349e-18
-2.5916277e-18
0
0
0
0
0
2.7960958e-18
2.8307203e-18
0
-2.900391e-18
2.9354485e-18
4.9485173e-30
-6.0120459e-18
0
0
0
3.1485999e-18
3.1845078e-18
-3.2205387e-18
-3.2566899e-18
6.5858948e-18
5.5468742e-30
-6.7314454e-18
0
6.8776052e-18
5.7893942e-30
-3.5121685e-18
3.5489522e-18
-3.5858015e-18
3.6227136e-18
2.0314009e-30
-7.3933802e-18
0
0
3.8078792e-18
3.845e-18
0
3.9193283e-18
1.1245076e-33
3.9936828e-18
-4.0308434e-18
-1.2203985e-17
0
-8.2845723e-18
-8.3588316e-18
0
1.2760712e-17
8.5811493e-18
-8.6550611e-18
4.3644451e-18
4.4013196e-18
-1.3314434e-17
-4.4749041e-18
-6.411344e-34
-4.5481725e-18
4.5846774e-18
4.6211025e-18
4.6574484e-18
-1.7390601e-48
4.7298626e-18
4.7659028e-18
-4.8018202e-18
0
-9.7465863e-18
-9.817706e-18
0
4.9795868e-18
1.002947e-17
2.8022639e-30
5.0845585e-18
1.0238471e-17
-1.0307513e-17
-1.037623e-17
-5.2223014e-18
-5.256306e-18
0
5.3237531e-18
1.6071573e-17
-5.3904324e-18
1.7078872e-46
1.6368903e-17
-1.0977839e-17
-5.5213244e-18
-5.5535111e-18
-1.1170944e-17
1.12344e-17
5.6486912e-18
-5.6799454e-18
-5.7109624e-18
-5.7417372e-18
1.7316782e-17
5.8025227e-18
-1.7497555e-17
-5.862247e-18
5.8917101e-18
1.1841812e-17
-5.9498309e-18
5.978478e-18
-1.0001054e-29
1.0051231e-29
1.8188107e-17
-6.0901868e-18
-6.1173689e-18
-1.2288497e-17
-6.1708263e-18
1.2394203e-17
1.7687022e-33
6.2487169e-18
-6.2740444e-18
-1.8897149e-17
1.8971198e-17
6.3480875e-18
-1.9116316e-17
0
1.9257357e-17
6.4421275e-18
-1.9394428e-17
6.4871548e-18
1.3018289e-17
3.6250701e-30
-7.2727998e-30
-6.5729077e-18
0
-1.3227344e-17
-1.3267066e-17
6.6530233e-18
6.6721297e-18
1.3381704e-17
-6.7092011e-18
-6.7271854e-18
1.3489614e-17
0
-1.355788e-17
-1.3590868e-17
6.811536e-18
1.3654496e-17
-3.7981502e-30
-6.8575271e-18
1.3744197e-17
-6.8862867e-18
2.2980419e-29
1.3826953e-17
-6.9264709e-18
0
-1.3902576e-17
0
1.5487638e-29
6.9856098e-18
1.3992493e-17
-2.1019431e-17
1.994155e-33
1.4051497e-17
0
-1.4086902e-17
-7.0517026e-18
1.4119098e-17
-7.8464412e-30
-7.0740406e-18
1.4161383e-17
-7.0869432e-18
1.1809103e-29
1.419649e-17
-7.103298e-18
7.1079528e-18
-1.4224414e-17
-2.134818e-17
0
2.1367713e-17
1.4250487e-17
-2.1382582e-17
-1.4258829e-17
7.1309015e-18
1.4263966e-17
-7.1326691e-18
-7.1329691e-18
1.4265733e-17
-7.1323482e-18
-1.4262857e-17
7.1301203e-18
-1.0130103e-33
1.4252698e-17
1.4247779e-17
-2.1363153e-17
7.1178351e-18
1.1848859e-29
-2.133083e-17
0
2.1303674e-17
1.4192286e-17
-7.0906952e-18
-7.0848836e-18
-7.0787097e-18
0
-7.0652776e-18
3.9177386e-30
1.4100826e-17
-3.9080973e-30
-7.0341523e-18
0
-7.016505e-18
1.4014324e-17
2.099243e-17
-1.3974915e-17
-2.0931328e-17
-6.9664335e-18
6.9554289e-18
1.3888192e-17
-6.932436e-18
6.9204548e-18
6.9081598e-18
-1.3791112e-17
1.376529e-17
6.8694259e-18
-2.05677e-17
-1.3684139e-17
6.8279401e-18
2.0440557e-17
-1.5095428e-29
1.5062139e-29
6.7685412e-18
7.4968343e-30
6.7371386e-18
-6.7210222e-18
-6.7046387e-18
-6.6879928e-18
6.6710862e-18
6.6539195e-18
-1.9909482e-17
6.6188132e-18
1.3201767e-17
-1.9748138e-17
-1.8656878e-33
6.545663e-18
-1.3053573e-17
-6.5076772e-18
0
6.4687794e-18
6.4490054e-18
1.2858043e-17
-6.4088294e-18
2.1276386e-29
1.910348e-17
-6.3470221e-18
-6.3260232e-18
-6.3048368e-18
6.2834668e-18
6.2619157e-18
-1.8720556e-17
6.2182782e-18
1.23924e-17
1.0282801e-29
6.1515546e-18
-1.2257991e-17
-1.8318845e-17
-3.3758931e-30
3.3639822e-30
8.5794359e-34
6.013947e-18
1.1981042e-17
5.9669656e-18
-1.7829849e-17
6.5715175e-30
1.1791096e-17
0
0
-5.8230973e-18
3.2187388e-30
-3.2043393e-30
-5.749713e-18
1.1450127e-17
5.7003273e-18
6.2990636e-30
-5.6506075e-18
-1.6876879e-17
-5.6005693e-18
0
0
0
1.6499086e-17
1.0948658e-17
-1.6346721e-17
6.0223774e-30
1.0795834e-17
0
0
-1.0642281e-17
1.1757571e-29
5.8487626e-30
-1.0488122e-17
5.2183167e-18
1.0385109e-17
1.0333555e-17
-5.1409873e-18
-1.5345556e-17
-5.0893728e-18
0
0
0
1.4958294e-17
9.9205778e-18
-1.4803462e-17
1.0898795e-29
4.8829161e-18
-6.9024306e-34
4.8314111e-18
-9.6113789e-18
5.3065145e-30
4.7543124e-18
-9.4573254e-18
0
2.59701e-30
9.3038194e-18
9.2527895e-18
-1.3802743e-17
-9.1509443e-18
4.5500724e-18
2.5109197e-30
-4.4994125e-18
1.342246e-17
8.8978789e-18
-4.4237726e-18
-4.398657e-18
4.3735969e-18
4.3485945e-18
-4.3236502e-18
-4.2987619e-18
2.372355e-30
-2.3579985e-30
-4.2244379e-18
0
-4.175206e-18
8.3013777e-18
1.2378705e-17
-8.2036873e-18
-8.1550363e-18
-4.0532624e-18
4.4723172e-30
8.0099358e-18
-3.980928e-18
3.9569564e-18
3.9330528e-18
-7.8184416e-18
7.7709276e-18
3.8617837e-18
-3.8381806e-18
-7.6293043e-18
-3.7911954e-18
7.5356213e-18
-2.0774184e-30
3.7212697e-18
3.6981179e-18
-1.1025135e-17
3.6520479e-18
3.6291238e-18
-1.0818821e-17
5.0924605e-34
1.0682422e-17
3.5381954e-18
-1.054699e-17
3.4932069e-18
1.1626364e-46
5.74158e-30
6.8525594e-18
-6.8082523e-18
-6.7641063e-18
3.3600597e-18
-3.7058451e-30
-6.6325938e-18
3.2945239e-18
9.8184785e-18
3.2512059e-18
-3.2296637e-18
0
-3.1868088e-18
-6.3309804e-18
4.4682374e-34
9.3692032e-18
3.1019676e-18
-6.1618855e-18
4.3485109e-34
6.0782284e-18
-6.0366099e-18
4.9924806e-30
5.9537908e-18
-8.8688948e-18
-5.8715482e-18
0
0
2.8746158e-18
8.5630843e-18
2.8341753e-18
-8.4421788e-18
3.1017817e-30
5.5480818e-18
-5.5082622e-18
-5.4685644e-18
2.7144948e-18
5.3895435e-18
-2.6751151e-18
-2.6555264e-18
7.9080168e-18
2.6165496e-18
4.3255924e-30
-1.4301525e-30
-2.5585435e-18
2.5393306e-18
-5.0403612e-18
-7.5032807e-18
0
7.3893194e-18
4.8884072e-18
-7.2760809e-18
6.8399025e-34
2.3878529e-18
-4.7383773e-18
2.350584e-18
2.3320392e-18
2.5683973e-30
-2.2951302e-18
-4.5535285e-18
2.2584553e-18
4.4804067e-18
4.4440189e-18
-2.4472624e-30
-2.1858013e-18
2.1677888e-18
-4.2996689e-18
-6.3958063e-18
0
6.2889154e-18
4.1571557e-18
-6.1827364e-18
2.2689637e-30
2.0257641e-18
-2.0082756e-18
-1.9908426e-18
1.0948634e-30
3.9123032e-18
-1.0762355e-30
-3.8434124e-18
2.1140971e-30
2.0951457e-30
3.7409728e-18
5.5605908e-18
-3.6732711e-18
2.0207764e-30
6.0044206e-30
-1.7863298e-18
-1.7696828e-18
-3.5061922e-18
5.2097135e-18
1.7201106e-18
-3.4074333e-18
3.3747772e-18
9.4992381e-34
-4.9647608e-18
-1.6387795e-18
1.6227033e-18
4.8200845e-18
-5.2983968e-30
-3.1497757e-18
-1.5590852e-18
3.0866941e-18
4.5830237e-18
-4.5362095e-18
-1.4965358e-18
-1.6437976e-30
-1.4656878e-18
2.9007411e-18
-7.9660172e-31
1.4199429e-18
-1.4048355e-18
4.6294653e-30
4.1245377e-18
-4.0798974e-18
-4.0354783e-18
0
0
0
1.2866725e-18
3.8167433e-18
1.2579043e-18
1.3806276e-30
1.2294481e-18
-3.6460025e-18
-1.2012981e-18
1.1873432e-18
1.1734734e-18
1.1596902e-18
-2.2919817e-18
1.1323726e-18
-1.1188348e-18
3.6814158e-30
2.1840125e-18
-3.2361563e-18
-2.1310374e-18
0
2.0787651e-18
1.1395101e-30
-1.0135945e-18
3.0024922e-18
9.8815417e-19
-9.755652e-19
0
0
-9.3833788e-19
-1.8522239e-18
2.0293054e-30
1.8038617e-18
8.8997563e-19
-8.7811161e-19
8.6633996e-19
-8.5466151e-19
-6.0005303e-47
1.3850127e-30
-2.4605519e-18
0
0
1.5730997e-18
1.5510538e-18
7.645976e-19
-8.3668306e-31
-2.2290631e-18
8.1325795e-31
1.4436589e-18
0
-1.4020357e-18
-6.9075194e-19
1.36116e-18
-6.7050519e-19
-6.6052962e-19
1.9519555e-18
-6.408694e-19
2.1021197e-30
1.2431705e-18
-1.8362516e-18
-1.2053576e-18
0
0
0
1.6980614e-18
1.1141837e-18
-1.6447799e-18
-1.0790511e-18
0
1.0446816e-18
-5.7049218e-31
-5.0552244e-19
9.9450073e-19
-4.8907474e-19
4.8099748e-19
4.7301606e-19
-1.3953804e-18
9.1465505e-19
8.9923413e-19
-4.4199535e-19
4.344645e-19
-8.5405415e-19
-1.2590493e-18
0
1.2158069e-18
7.9639169e-19
-3.9121061e-19
-3.8431215e-19
4.1908213e-31
-3.707742e-19
1.2129511e-30
3.5759115e-19
1.9495538e-31
1.2191483e-48
-3.3847175e-19
0
-3.261384e-19
6.4019099e-19
9.4241824e-19
-9.2481033e-19
-9.074521e-19
0
5.8230224e-19
5.7120014e-19
-5.6025225e-19
2.7473283e-19
2.6942251e-19
-7.9258041e-19
5.1808426e-19
5.0793218e-19
-2.4896329e-19
-4.8806376e-19
-2.3917308e-19
7.0317064e-19
2.2968458e-19
3.7476719e-31
-4.4099486e-19
-1.2278797e-34
6.3477908e-19
-4.1448404e-19
-6.0887419e-19
-1.9874332e-19
5.8379776e-19
3.8105089e-19
-5.5955923e-19
4.0543502e-31
3.5740912e-19
1.7489106e-19
-9.4994832e-32
-3.3489655e-19
1.8186822e-31
-1.6026235e-19
-1.5676485e-19
4.5998431e-19
1.4995037e-19
1.6278079e-31
-2.8672717e-19
4.6677862e-31
4.1101299e-19
-2.6782635e-19
1.4537029e-31
1.4209829e-31
2.7752016e-31
1.2210303e-19
-3.5784148e-19
1.1650927e-19
1.8945575e-31
3.7009981e-31
3.2553601e-19
-1.0594786e-19
-2.0686334e-19
1.1208274e-31
-9.8538011e-20
-9.6162374e-20
1.8766951e-19
1.8310793e-19
-9.9144072e-32
-2.6137448e-19
9.4308091e-32
8.2862599e-20
-1.6159533e-19
7.8776985e-20
7.6799153e-20
-4.1532651e-32
4.0498778e-32
-7.1095119e-20
1.3853534e-19
-6.7481677e-20
2.189706e-31
2.1325185e-31
-1.8708501e-19
1.2145017e-19
-1.6802526e-35
-1.150895e-19
5.6007441e-20
1.6352275e-19
5.3043347e-20
-1.5483883e-19
5.5744364e-32
4.8840577e-20
-9.4989516e-20
9.2358269e-20
2.2432606e-31
-4.3645775e-20
4.2425877e-20
-4.1235019e-20
8.0140132e-20
-3.8929084e-20
-1.1343186e-19
0
0
6.9249337e-20
9.5548189e-36
-6.5268567e-20
3.1671201e-20
9.2190136e-20
2.9809848e-20
-8.6739363e-20
-7.9696843e-36
-3.0187385e-32
-5.2731976e-20
7.6682017e-20
1.2376746e-31
-2.4003508e-20
2.3252606e-20
2.2522609e-20
-2.4228598e-32
-2.1124321e-20
4.0908417e-20
-3.9600573e-20
6.3813623e-32
3.7072614e-20
-5.3788668e-20
-3.4682179e-20
1.6770371e-20
4.8650046e-20
1.5677771e-20
-1.5150875e-20
0
1.4135334e-20
-1.3650493e-20
-3.9543753e-20
-7.0646044e-33
2.4573854e-20
-1.1857061e-20
-1.1436627e-20
2.2055136e-20
-1.0631548e-20
1.0248718e-20
1.975759e-20
-2.8560986e-20
3.0544174e-32
-1.9610501e-32
-1.7003351e-20
1.6366546e-20
7.8762728e-21
7.5790245e-21
8.0979359e-33
-7.005476e-21
1.3462113e-20
-1.2933917e-20
-1.8641239e-20
0
5.7381876e-21
-3.0574289e-33
-1.5010857e-36
1.5184459e-20
4.8505127e-21
-1.3948119e-20
4.4582457e-21
9.2949161e-49
-1.2295542e-20
3.9237512e-21
1.1257556e-20
3.587017e-21
-6.8566568e-21
3.276966e-21
-3.1330206e-21
9.9774524e-33
5.7283582e-21
-8.2092306e-21
-2.9005781e-33
1.1057509e-32
-4.7451524e-21
4.5214601e-21
2.3919606e-33
-2.0547231e-21
3.9213326e-21
1.8698273e-21
0
0
-3.2153974e-21
3.3924406e-33
8.2608623e-37
1.5367349e-33
1.3197952e-21
1.2568138e-21
-1.1940292e-21
-1.1328376e-21
2.149395e-21
-2.0407591e-21
1.0774391e-33
1.8499222e-21
-1.7635728e-21
-2.7953465e-33
8.858187e-34
-7.5863913e-22
1.4443099e-21
-6.8900036e-22
1.4624471e-33
1.2593371e-21
0
-1.1491756e-21
-5.4981581e-22
1.05574e-21
5.0872292e-22
-4.9085269e-22
7.8744144e-34
4.5466312e-22
0
0
-8.271798e-22
-8.1111398e-22
0
7.7770779e-22
3.7847844e-22
-3.6932844e-22
3.631353e-22
-3.6017072e-22
0
7.1803643e-22
0
0
-3.4993831e-22
3.8786139e-34
3.5168625e-22
0
-3.6010161e-22
-2.0097555e-34
3.6203912e-22
0
-7.311296e-22
-7.4247993e-22
3.788937e-22
4.2935896e-34
-3.9210571e-22
7.8882549e-22
7.9251158e-22
-8.0000325e-22
-1.1549137e-37
-9.2153459e-34
-1.2076026e-37
8.6718851e-22
-4.3889308e-22
4.9029728e-34
-4.4484093e-22
4.502451e-22
1.3733919e-21
-1.4001801e-21
-4.755009e-22
4.8174341e-22
5.3886762e-34
4.8887795e-22
-9.8720966e-22
-9.9962304e-22
1.0143186e-21
1.7133335e-33
5.1959453e-22
5.223492e-22
-1.0493869e-21
5.2797295e-22
-5.9119152e-34
2.9872792e-34
-5.4234529e-22
-1.0895317e-21
1.0915926e-21
1.0945604e-21
0
-5.5293488e-22
-6.1777856e-34
1.1152804e-21
6.1704495e-34
-1.6594916e-21
-1.1034244e-21
0
1.1068659e-21
1.232845e-33
5.5530559e-22
5.5170378e-22
-1.6383574e-21
3.0036041e-34
1.0758748e-21
-5.3579378e-22
-1.0678744e-21
5.3100898e-22
1.0521296e-21
5.1984004e-22
0
-1.0165185e-21
5.0264188e-22
1.4888919e-21
-4.8868472e-22
-4.806226e-22
-9.456774e-22
-4.6551466e-22
9.173831e-22
4.510173e-22
4.4112584e-22
-4.7712704e-34
-4.1890614e-22
-4.0907595e-22
-8.0098664e-22
-3.9243797e-22
0
0
0
6.8621542e-22
6.6326822e-22
-6.4353641e-22
-3.4688374e-34
-3.3426572e-34
3.1821734e-34
6.0213804e-34
-5.1317456e-22
0
4.6485359e-22
2.219489e-22
-2.0955473e-22
1.9426434e-22
1.7774304e-22
0
0
-2.7211345e-22
4.1730168e-34
2.5088548e-34
-1.9541373e-22
1.614527e-22
1.2830944e-22
0
-7.3168378e-23
2.8397468e-35
2.7147214e-23
1.8379845e-24
1.9010131e-35
-6.7057866e-23
0
1.2107674e-22
7.0788533e-23
-1.643757e-22
9.6242875e-23
2.4915107e-34
-2.5729777e-22
2.872472e-22
3.0979139e-22
0
0
0
-3.9275164e-22
-4.2569994e-22
4.5804522e-22
0
-5.0150306e-22
0
-2.6358414e-22
5.4446088e-22
2.8344783e-22
-2.9815017e-22
6.2501867e-22
3.2463427e-22
-6.6742732e-22
-3.3982442e-22
-3.8310904e-34
3.5076703e-22
-7.9280508e-34
2.0797621e-37
7.5529926e-22
0
-3.9963685e-22
-8.1015181e-22
-4.0782191e-22
0
0
0
-4.2738329e-22
8.7781879e-22
4.473989e-22
-4.5114531e-22
-4.5213249e-22
4.5278664e-22
4.5226648e-22
-9.0851487e-22
0
9.4200067e-22
9.5555835e-22
0
0
-9.6074401e-22
-5.3194686e-34
-4.7822044e-22
-4.8142061e-22
4.8701092e-22
-4.9165322e-22
4.9305042e-22
9.8349087e-22
4.8999641e-22
0
-9.6984251e-22
-5.4032353e-34
4.9093705e-22
-4.9292522e-22
-4.9180988e-22
-9.7853517e-22
9.7053266e-22
4.8140363e-22
-1.36534e-37
4.8233876e-22
-9.6793752e-22
4.8335e-22
-4.8037652e-22
-6.3144344e-51
4.7181465e-22
-9.3836235e-22
9.3841015e-22
9.3852325e-22
0
-4.6476054e-22
-9.2086255e-22
2.533706e-34
4.5436887e-22
4.5295019e-22
-9.0174018e-22
-8.9446945e-22
4.4198335e-22
8.7462896e-22
8.7020989e-22
-4.3529312e-22
-8.6924774e-22
4.3112123e-22
-4.2521792e-22
6.970758e-34
4.1338701e-22
-8.2213673e-22
8.2349922e-22
4.5785782e-34
-2.2806628e-33
8.1214985e-22
-8.0132919e-22
-1.7584986e-33
3.9240538e-22
-7.8112281e-22
3.8929352e-22
-1.1008558e-37
1.7060016e-33
3.8042042e-22
-7.542887e-22
8.3206037e-34
-2.0662549e-34
3.6919658e-22
-1.0391776e-37
-7.2374414e-22
7.1797585e-22
2.0336432e-37
-1.5867334e-33
7.10609e-22
-7.010489e-22
-7.6681626e-34
6.8254216e-22
-3.3888147e-22
-3.3893217e-22
-3.3998432e-22
3.3938882e-22
-3.7264606e-34
-6.6037512e-22
0
0
6.4175522e-22
9.1320583e-38
-6.4388766e-22
3.2142253e-22
-3.537268e-34
3.1432191e-22
6.8866494e-34
-6.1397714e-22
0
-3.044869e-22
6.0965115e-22
3.0453776e-22
-6.7089991e-34
2.9778012e-22
-5.8743687e-22
2.9080001e-22
-3.211418e-34
-5.7949232e-22
0
0
2.8519928e-22
-1.5568568e-34
2.7704564e-22
-2.7525317e-22
-8.2543557e-22
8.2616558e-22
2.742151e-22
-5.4186024e-22
2.6727976e-22
4.4064284e-34
2.6321978e-22
-1.495183e-37
-8.7130425e-34
2.5764297e-22
-5.0587623e-22
-2.4909941e-22
0
-2.4839173e-22
2.5003697e-22
2.4882885e-22
2.4333686e-22
-5.2421943e-34
2.5558334e-34
-2.5323019e-34
-4.5932313e-22
2.3235218e-22
3.887716e-34
-4.6200212e-22
3.1940355e-38
2.1783233e-22
4.2570655e-22
4.2098927e-22
-4.212563e-22
-2.352979e-34
-2.1228045e-22
-2.1105064e-22
4.1473947e-22
-4.0343398e-22
-1.9628863e-22
5.7700041e-22
3.8073457e-22
-1.903599e-22