/*--------------------------------*- C++ -*----------------------------------*\
  =========                 |
  \\      /  F ield         | OpenFOAM: The Open Source CFD Toolbox
   \\    /   O peration     | Website:  https://openfoam.org
    \\  /    A nd           | Version:  7
     \\/     M anipulation  |
\*---------------------------------------------------------------------------*/
FoamFile
{
    version     2.0;
    format      ascii;
    class       volScalarField;
    location    "0.00193";
    object      T;
}
// * * * * * * * * * * * * * * * * * * * * * * * * * * * * * * * * * * * * * //

dimensions      [0 0 0 1 0 0 0];

internalField   nonuniform List<scalar> 
5000
(
277.93647
277.93648
277.9364
277.93634
277.9363
277.93626
277.93624
277.93622
277.93621
277.9362
277.9362
277.9362
277.93619
277.9362
277.9362
277.9362
277.9362
277.9362
277.93621
277.93621
277.93621
277.93621
277.93622
277.93622
277.93622
277.93623
277.93623
277.93623
277.93623
277.93624
277.93624
277.93624
277.93625
277.93625
277.93625
277.93626
277.93626
277.93627
277.93627
277.93627
277.93628
277.93628
277.93628
277.93629
277.93629
277.9363
277.9363
277.9363
277.93631
277.93631
277.93631
277.93632
277.93632
277.93633
277.93633
277.93634
277.93634
277.93634
277.93635
277.93635
277.93636
277.93636
277.93637
277.93637
277.93638
277.93638
277.93638
277.93639
277.93639
277.9364
277.9364
277.93641
277.93641
277.93642
277.93642
277.93643
277.93643
277.93644
277.93644
277.93645
277.93645
277.93646
277.93646
277.93647
277.93647
277.93648
277.93648
277.93649
277.93649
277.9365
277.9365
277.93651
277.93652
277.93652
277.93653
277.93653
277.93654
277.93654
277.93655
277.93655
277.93656
277.93657
277.93657
277.93658
277.93658
277.93659
277.9366
277.9366
277.93661
277.93661
277.93662
277.93663
277.93663
277.93664
277.93664
277.93665
277.93666
277.93666
277.93667
277.93667
277.93668
277.93669
277.93669
277.9367
277.93671
277.93671
277.93672
277.93673
277.93673
277.93674
277.93675
277.93675
277.93676
277.93677
277.93677
277.93678
277.93679
277.93679
277.9368
277.93681
277.93681
277.93682
277.93683
277.93683
277.93684
277.93685
277.93685
277.93686
277.93687
277.93688
277.93688
277.93689
277.9369
277.93691
277.93691
277.93692
277.93693
277.93694
277.93694
277.93695
277.93696
277.93697
277.93697
277.93698
277.93699
277.937
277.93701
277.93701
277.93702
277.93703
277.93704
277.93704
277.93705
277.93706
277.93707
277.93708
277.93708
277.93709
277.9371
277.93711
277.93712
277.93713
277.93714
277.93714
277.93715
277.93716
277.93717
277.93718
277.93719
277.9372
277.93721
277.93722
277.93723
277.93723
277.93724
277.93725
277.93726
277.93727
277.93728
277.93729
277.9373
277.93731
277.93732
277.93733
277.93734
277.93735
277.93736
277.93737
277.93738
277.93739
277.9374
277.93741
277.93742
277.93743
277.93744
277.93745
277.93746
277.93747
277.93748
277.93749
277.9375
277.93752
277.93753
277.93754
277.93755
277.93756
277.93757
277.93759
277.9376
277.93761
277.93762
277.93763
277.93765
277.93766
277.93767
277.93768
277.9377
277.93771
277.93772
277.93774
277.93775
277.93776
277.93778
277.93779
277.93781
277.93782
277.93783
277.93785
277.93786
277.93788
277.9379
277.93791
277.93793
277.93794
277.93796
277.93798
277.93799
277.93801
277.93803
277.93805
277.93807
277.93809
277.9381
277.93812
277.93814
277.93816
277.93819
277.93821
277.93823
277.93825
277.93828
277.9383
277.93832
277.93835
277.93837
277.9384
277.93843
277.93845
277.93848
277.93851
277.93854
277.93857
277.9386
277.93864
277.93867
277.9387
277.93874
277.93878
277.93881
277.93885
277.93889
277.93893
277.93898
277.93902
277.93907
277.93911
277.93916
277.93921
277.93926
277.93932
277.93937
277.93943
277.93949
277.93955
277.93961
277.93968
277.93975
277.93981
277.93989
277.93996
277.94004
277.94012
277.9402
277.94029
277.94038
277.94047
277.94056
277.94066
277.94076
277.94087
277.94098
277.94109
277.94121
277.94133
277.94145
277.94158
277.94172
277.94185
277.942
277.94215
277.9423
277.94246
277.94262
277.94279
277.94297
277.94315
277.94334
277.94353
277.94374
277.94394
277.94416
277.94438
277.94461
277.94485
277.94509
277.94535
277.94561
277.94588
277.94616
277.94645
277.94675
277.94706
277.94738
277.94771
277.94804
277.9484
277.94876
277.94913
277.94952
277.94991
277.95032
277.95075
277.95118
277.95163
277.95209
277.95257
277.95306
277.95357
277.9541
277.95463
277.95519
277.95576
277.95635
277.95696
277.95758
277.95822
277.95889
277.95957
277.96027
277.96099
277.96173
277.96249
277.96328
277.96408
277.96491
277.96576
277.96664
277.96754
277.96847
277.96942
277.97039
277.97139
277.97242
277.97348
277.97456
277.97568
277.97682
277.97799
277.97919
277.98043
277.98169
277.98299
277.98432
277.98569
277.98708
277.98852
277.98998
277.99149
277.99303
277.99461
277.99622
277.99788
277.99957
278.0013
278.00308
278.0049
278.00675
278.00865
278.0106
278.01259
278.01462
278.0167
278.01882
278.02099
278.02321
278.02548
278.0278
278.03016
278.03258
278.03505
278.03756
278.04014
278.04276
278.04544
278.04818
278.05096
278.05381
278.05671
278.05967
278.06269
278.06577
278.0689
278.0721
278.07536
278.07868
278.08206
278.0855
278.08901
278.09259
278.09622
278.09993
278.1037
278.10754
278.11144
278.11541
278.11946
278.12357
278.12775
278.132
278.13633
278.14073
278.1452
278.14974
278.15436
278.15905
278.16381
278.16866
278.17357
278.17857
278.18364
278.18879
278.19402
278.19933
278.20471
278.21018
278.21572
278.22135
278.22706
278.23285
278.23872
278.24467
278.25071
278.25683
278.26303
278.26932
278.27569
278.28215
278.28869
278.29532
278.30203
278.30883
278.31571
278.32268
278.32974
278.33689
278.34412
278.35144
278.35885
278.36635
278.37393
278.3816
278.38936
278.39721
278.40515
278.41318
278.4213
278.4295
278.4378
278.44618
278.45466
278.46322
278.47187
278.48062
278.48945
278.49837
278.50738
278.51648
278.52567
278.53496
278.54432
278.55378
278.56333
278.57297
278.5827
278.59251
278.60242
278.61241
278.62249
278.63267
278.64292
278.65327
278.66371
278.67423
278.68484
278.69554
278.70632
278.7172
278.72816
278.7392
278.75033
278.76155
278.77285
278.78424
278.79572
278.80727
278.81892
278.83064
278.84245
278.85435
278.86633
278.87839
278.89053
278.90275
278.91506
278.92744
278.93991
278.95246
278.96509
278.9778
278.99058
279.00345
279.01639
279.02941
279.04251
279.05569
279.06894
279.08227
279.09568
279.10916
279.12271
279.13634
279.15005
279.16382
279.17767
279.19159
279.20558
279.21965
279.23379
279.24799
279.26227
279.27661
279.29102
279.3055
279.32005
279.33467
279.34935
279.3641
279.37892
279.3938
279.40874
279.42375
279.43882
279.45395
279.46915
279.48441
279.49973
279.51511
279.53055
279.54605
279.5616
279.57722
279.5929
279.60863
279.62442
279.64026
279.65616
279.67212
279.68813
279.70419
279.72031
279.73648
279.7527
279.76897
279.7853
279.80167
279.8181
279.83457
279.85109
279.86766
279.88428
279.90095
279.91766
279.93442
279.95122
279.96807
279.98496
280.0019
280.01888
280.0359
280.05296
280.07006
280.08721
280.1044
280.12162
280.13889
280.15619
280.17353
280.19091
280.20833
280.22578
280.24327
280.26079
280.27835
280.29594
280.31357
280.33123
280.34892
280.36664
280.38439
280.40218
280.41999
280.43784
280.45571
280.47361
280.49155
280.50951
280.52749
280.5455
280.56354
280.58161
280.59969
280.61781
280.63594
280.6541
280.67229
280.69049
280.70872
280.72696
280.74523
280.76352
280.78183
280.80016
280.81851
280.83687
280.85525
280.87365
280.89207
280.9105
280.92894
280.94741
280.96588
280.98437
281.00288
281.02139
281.03992
281.05846
281.07702
281.09558
281.11415
281.13274
281.15133
281.16993
281.18855
281.20716
281.22579
281.24442
281.26306
281.28171
281.30036
281.31902
281.33768
281.35635
281.37501
281.39369
281.41236
281.43104
281.44971
281.46839
281.48707
281.50575
281.52443
281.54311
281.56179
281.58047
281.59914
281.61781
281.63648
281.65515
281.67381
281.69246
281.71111
281.72975
281.74839
281.76702
281.78565
281.80427
281.82288
281.84148
281.86007
281.87866
281.89723
281.91579
281.93435
281.95289
281.97142
281.98994
282.00844
282.02694
282.04542
282.06388
282.08233
282.10077
282.11919
282.13759
282.15598
282.17435
282.1927
282.21104
282.22936
282.24766
282.26594
282.2842
282.30244
282.32066
282.33886
282.35704
282.3752
282.39333
282.41144
282.42953
282.4476
282.46564
282.48366
282.50165
282.51961
282.53755
282.55547
282.57335
282.59121
282.60905
282.62685
282.64462
282.66237
282.68008
282.69777
282.71543
282.73305
282.75064
282.76821
282.78573
282.80323
282.82069
282.83812
282.85552
282.87288
282.8902
282.90749
282.92475
282.94197
282.95915
282.97629
282.9934
283.01047
283.02749
283.04448
283.06144
283.07835
283.09522
283.11204
283.12883
283.14558
283.16228
283.17895
283.19556
283.21214
283.22867
283.24516
283.2616
283.278
283.29435
283.31065
283.32691
283.34312
283.35928
283.3754
283.39146
283.40748
283.42345
283.43937
283.45524
283.47106
283.48683
283.50255
283.51821
283.53383
283.54939
283.5649
283.58035
283.59575
283.6111
283.62639
283.64162
283.6568
283.67193
283.687
283.70201
283.71696
283.73186
283.7467
283.76148
283.77621
283.79087
283.80548
283.82002
283.8345
283.84893
283.86329
283.87759
283.89183
283.90601
283.92012
283.93418
283.94817
283.96209
283.97596
283.98975
284.00349
284.01716
284.03076
284.0443
284.05777
284.07118
284.08452
284.09779
284.11099
284.12413
284.1372
284.1502
284.16314
284.176
284.1888
284.20152
284.21418
284.22677
284.23929
284.25173
284.26411
284.27641
284.28864
284.30081
284.3129
284.32491
284.33686
284.34873
284.36053
284.37226
284.38392
284.3955
284.40701
284.41844
284.4298
284.44109
284.4523
284.46344
284.47451
284.4855
284.49641
284.50725
284.51801
284.5287
284.53931
284.54985
284.56031
284.5707
284.58101
284.59124
284.6014
284.61148
284.62148
284.63141
284.64126
284.65104
284.66074
284.67036
284.6799
284.68937
284.69876
284.70808
284.71732
284.72648
284.73556
284.74457
284.7535
284.76236
284.77114
284.77984
284.78846
284.79701
284.80548
284.81387
284.82219
284.83043
284.8386
284.84669
284.8547
284.86264
284.8705
284.87829
284.886
284.89363
284.90119
284.90868
284.91609
284.92343
284.93069
284.93787
284.94499
284.95202
284.95899
284.96588
284.9727
284.97944
284.98611
284.99271
284.99924
285.00569
285.01207
285.01839
285.02463
285.03079
285.03689
285.04292
285.04888
285.05477
285.06058
285.06633
285.07201
285.07762
285.08317
285.08864
285.09405
285.09939
285.10466
285.10987
285.11501
285.12009
285.1251
285.13004
285.13493
285.13974
285.1445
285.14919
285.15381
285.15838
285.16288
285.16732
285.1717
285.17602
285.18028
285.18448
285.18862
285.1927
285.19672
285.20069
285.20459
285.20844
285.21223
285.21597
285.21965
285.22328
285.22685
285.23037
285.23383
285.23724
285.2406
285.24391
285.24716
285.25036
285.25351
285.25661
285.25967
285.26267
285.26562
285.26852
285.27138
285.27419
285.27695
285.27967
285.28234
285.28497
285.28755
285.29008
285.29258
285.29503
285.29743
285.2998
285.30212
285.3044
285.30665
285.30885
285.31101
285.31313
285.31521
285.31726
285.31926
285.32123
285.32317
285.32506
285.32692
285.32875
285.33054
285.3323
285.33402
285.33571
285.33736
285.33899
285.34058
285.34214
285.34367
285.34517
285.34664
285.34808
285.34949
285.35087
285.35222
285.35355
285.35484
285.35611
285.35736
285.35858
285.35977
285.36093
285.36208
285.36319
285.36429
285.36536
285.3664
285.36743
285.36843
285.36941
285.37036
285.3713
285.37221
285.37311
285.37398
285.37484
285.37567
285.37649
285.37728
285.37806
285.37882
285.37956
285.38029
285.381
285.38169
285.38236
285.38302
285.38367
285.38429
285.38491
285.38551
285.38609
285.38666
285.38721
285.38775
285.38828
285.3888
285.3893
285.38979
285.39027
285.39073
285.39118
285.39163
285.39206
285.39248
285.39288
285.39328
285.39367
285.39405
285.39442
285.39477
285.39512
285.39546
285.39579
285.39611
285.39642
285.39673
285.39702
285.39731
285.39759
285.39787
285.39813
285.39839
285.39864
285.39889
285.39912
285.39935
285.39958
285.3998
285.40001
285.40021
285.40041
285.40061
285.40079
285.40098
285.40115
285.40133
285.40149
285.40166
285.40182
285.40197
285.40212
285.40227
285.40241
285.40254
285.40267
285.4028
285.40293
285.40305
285.40316
285.40328
285.40339
285.40349
285.4036
285.4037
285.4038
285.40389
285.40398
285.40407
285.40416
285.40424
285.40432
285.4044
285.40448
285.40455
285.40462
285.40469
285.40475
285.40482
285.40488
285.40494
285.405
285.40506
285.40511
285.40516
285.40522
285.40527
285.40531
285.40536
285.40541
285.40545
285.40549
285.40553
285.40557
285.40561
285.40565
285.40568
285.40572
285.40575
285.40578
285.40581
285.40584
285.40587
285.4059
285.40593
285.40595
285.40598
285.40601
285.40603
285.40605
285.40608
285.4061
285.40612
285.40614
285.40616
285.40618
285.40619
285.40621
285.40623
285.40624
285.40626
285.40627
285.40629
285.4063
285.40632
285.40633
285.40634
285.40636
285.40637
285.40638
285.40639
285.4064
285.40641
285.40642
285.40643
285.40644
285.40645
285.40646
285.40647
285.40648
285.40649
285.40649
285.4065
285.40651
285.40652
285.40652
285.40653
285.40654
285.40654
285.40655
285.40656
285.40656
285.40657
285.40657
285.40658
285.40658
285.40659
285.40659
285.4066
285.4066
285.4066
285.40661
285.40661
285.40662
285.40662
285.40662
285.40663
285.40663
285.40663
285.40664
285.40664
285.40664
285.40665
285.40665
285.40665
285.40666
285.40666
285.40666
285.40667
285.40667
285.40667
285.40667
285.40668
285.40668
285.40668
285.40668
285.40669
285.40669
285.40669
285.40669
285.4067
285.4067
285.4067
285.4067
285.40671
285.40671
285.40671
285.40671
285.40671
285.40672
285.40672
285.40672
285.40672
285.40673
285.40673
285.40673
285.40673
285.40673
285.40673
285.40673
285.40674
285.40674
285.40674
285.40674
285.40674
285.40675
285.40675
285.40675
285.40675
285.40675
285.40676
285.40676
285.40676
285.40676
285.40677
285.40677
285.40677
285.40677
285.40677
285.40677
285.40677
285.40678
285.40678
285.40678
285.40678
285.40678
285.40679
285.40679
285.40679
285.40679
285.40679
285.4068
285.4068
285.4068
285.4068
285.4068
285.40681
285.40681
285.40681
285.40681
285.40681
285.40682
285.40682
285.40682
285.40682
285.40682
285.40682
285.40683
285.40683
285.40683
285.40683
285.40683
285.40684
285.40684
285.40684
285.40684
285.40685
285.40685
285.40685
285.40685
285.40685
285.40686
285.40686
285.40686
285.40686
285.40686
285.40686
285.40686
285.40687
285.40687
285.40687
285.40687
285.40687
285.40687
285.40688
285.40688
285.40688
285.40688
285.40688
285.40689
285.40689
285.40689
285.40689
285.40689
285.4069
285.4069
285.4069
285.4069
285.4069
285.4069
285.40691
285.40691
285.40691
285.40691
285.40691
285.40692
285.40692
285.40692
285.40692
285.40692
285.40693
285.40693
285.40693
285.40693
285.40693
285.40694
285.40694
285.40694
285.40694
285.40694
285.40695
285.40695
285.40695
285.40695
285.40695
285.40695
285.40696
285.40696
285.40696
285.40696
285.40696
285.40697
285.40697
285.40697
285.40697
285.40697
285.40698
285.40698
285.40698
285.40698
285.40698
285.40699
285.40699
285.40699
285.40699
285.40699
285.40699
285.407
285.407
285.407
285.407
285.407
285.40701
285.40701
285.40701
285.40701
285.40701
285.40702
285.40702
285.40702
285.40702
285.40703
285.40703
285.40703
285.40703
285.40703
285.40704
285.40704
285.40704
285.40704
285.40705
285.40705
285.40705
285.40705
285.40705
285.40705
285.40706
285.40706
285.40706
285.40706
285.40706
285.40707
285.40707
285.40707
285.40707
285.40707
285.40708
285.40708
285.40708
285.40708
285.40708
285.40709
285.40709
285.40709
285.40709
285.40709
285.4071
285.4071
285.4071
285.4071
285.4071
285.40711
285.40711
285.40711
285.40711
285.40711
285.40712
285.40712
285.40712
285.40712
285.40712
285.40713
285.40713
285.40713
285.40713
285.40714
285.40714
285.40714
285.40714
285.40715
285.40715
285.40715
285.40715
285.40715
285.40716
285.40716
285.40716
285.40716
285.40717
285.40717
285.40717
285.40717
285.40717
285.40718
285.40718
285.40718
285.40718
285.40718
285.40719
285.40719
285.40719
285.40719
285.4072
285.4072
285.4072
285.4072
285.4072
285.40721
285.40721
285.40721
285.40721
285.40722
285.40722
285.40722
285.40722
285.40722
285.40723
285.40723
285.40723
285.40723
285.40724
285.40724
285.40724
285.40724
285.40724
285.40725
285.40725
285.40725
285.40725
285.40726
285.40726
285.40726
285.40726
285.40726
285.40727
285.40727
285.40727
285.40727
285.40727
285.40728
285.40728
285.40728
285.40728
285.40729
285.40729
285.40729
285.4073
285.4073
285.4073
285.4073
285.40731
285.40731
285.40731
285.40731
285.40732
285.40732
285.40732
285.40732
285.40732
285.40733
285.40733
285.40733
285.40733
285.40734
285.40734
285.40734
285.40734
285.40735
285.40735
285.40735
285.40735
285.40736
285.40736
285.40736
285.40736
285.40737
285.40737
285.40737
285.40737
285.40738
285.40738
285.40738
285.40738
285.40738
285.40739
285.40739
285.40739
285.40739
285.4074
285.4074
285.4074
285.4074
285.40741
285.40741
285.40741
285.40742
285.40742
285.40742
285.40742
285.40743
285.40743
285.40743
285.40743
285.40743
285.40744
285.40744
285.40744
285.40744
285.40745
285.40745
285.40745
285.40746
285.40746
285.40746
285.40747
285.40747
285.40747
285.40747
285.40748
285.40748
285.40748
285.40748
285.40749
285.40749
285.40749
285.40749
285.4075
285.4075
285.4075
285.4075
285.40751
285.40751
285.40751
285.40751
285.40752
285.40752
285.40752
285.40752
285.40753
285.40753
285.40753
285.40753
285.40754
285.40754
285.40754
285.40755
285.40755
285.40755
285.40756
285.40756
285.40756
285.40756
285.40757
285.40757
285.40757
285.40757
285.40758
285.40758
285.40758
285.40758
285.40759
285.40759
285.40759
285.4076
285.4076
285.4076
285.4076
285.40761
285.40761
285.40761
285.40762
285.40762
285.40762
285.40762
285.40763
285.40763
285.40763
285.40763
285.40764
285.40764
285.40764
285.40764
285.40765
285.40765
285.40765
285.40765
285.40766
285.40766
285.40766
285.40767
285.40767
285.40767
285.40768
285.40768
285.40768
285.40769
285.40769
285.40769
285.40769
285.4077
285.4077
285.4077
285.4077
285.40771
285.40771
285.40771
285.40772
285.40772
285.40772
285.40773
285.40773
285.40773
285.40773
285.40774
285.40774
285.40774
285.40775
285.40775
285.40775
285.40776
285.40776
285.40776
285.40777
285.40777
285.40777
285.40777
285.40778
285.40778
285.40778
285.40778
285.40779
285.40779
285.40779
285.40779
285.4078
285.4078
285.4078
285.40781
285.40781
285.40781
285.40782
285.40782
285.40782
285.40783
285.40783
285.40783
285.40784
285.40784
285.40784
285.40785
285.40785
285.40785
285.40786
285.40786
285.40786
285.40787
285.40787
285.40787
285.40787
285.40788
285.40788
285.40788
285.40789
285.40789
285.40789
285.4079
285.4079
285.4079
285.40791
285.40791
285.40791
285.40792
285.40792
285.40792
285.40793
285.40793
285.40793
285.40794
285.40794
285.40794
285.40795
285.40795
285.40795
285.40796
285.40796
285.40796
285.40797
285.40797
285.40797
285.40798
285.40798
285.40798
285.40799
285.40799
285.40799
285.408
285.408
285.40801
285.40801
285.40801
285.40802
285.40802
285.40802
285.40803
285.40803
285.40803
285.40803
285.40804
285.40804
285.40804
285.40805
285.40805
285.40805
285.40806
285.40806
285.40807
285.40807
285.40807
285.40808
285.40808
285.40808
285.40809
285.40809
285.4081
285.4081
285.4081
285.40811
285.40811
285.40811
285.40812
285.40812
285.40812
285.40813
285.40813
285.40813
285.40814
285.40814
285.40815
285.40815
285.40815
285.40816
285.40816
285.40816
285.40817
285.40817
285.40818
285.40818
285.40818
285.40819
285.40819
285.40819
285.4082
285.4082
285.40821
285.40821
285.40821
285.40822
285.40822
285.40822
285.40823
285.40823
285.40824
285.40824
285.40824
285.40825
285.40825
285.40826
285.40826
285.40826
285.40827
285.40827
285.40828
285.40828
285.40828
285.40829
285.40829
285.40829
285.4083
285.4083
285.40831
285.40831
285.40831
285.40832
285.40832
285.40833
285.40833
285.40833
285.40834
285.40834
285.40835
285.40835
285.40835
285.40836
285.40836
285.40837
285.40837
285.40837
285.40838
285.40838
285.40839
285.40839
285.4084
285.4084
285.40841
285.40841
285.40841
285.40842
285.40842
285.40843
285.40843
285.40843
285.40844
285.40844
285.40845
285.40845
285.40846
285.40846
285.40846
285.40847
285.40847
285.40848
285.40848
285.40848
285.40849
285.40849
285.4085
285.4085
285.4085
285.40851
285.40851
285.40852
285.40852
285.40853
285.40853
285.40854
285.40854
285.40855
285.40855
285.40856
285.40856
285.40857
285.40857
285.40857
285.40858
285.40858
285.40859
285.40859
285.4086
285.4086
285.4086
285.40861
285.40861
285.40862
285.40862
285.40863
285.40863
285.40864
285.40864
285.40865
285.40865
285.40865
285.40866
285.40866
285.40867
285.40867
285.40868
285.40868
285.40869
285.40869
285.4087
285.4087
285.40871
285.40871
285.40872
285.40872
285.40873
285.40873
285.40874
285.40874
285.40874
285.40875
285.40875
285.40876
285.40876
285.40877
285.40877
285.40878
285.40878
285.40879
285.4088
285.4088
285.40881
285.40881
285.40882
285.40882
285.40883
285.40883
285.40884
285.40884
285.40885
285.40885
285.40886
285.40886
285.40887
285.40887
285.40888
285.40888
285.40889
285.40889
285.4089
285.4089
285.40891
285.40891
285.40892
285.40892
285.40893
285.40893
285.40894
285.40894
285.40895
285.40896
285.40896
285.40897
285.40897
285.40898
285.40898
285.40899
285.40899
285.409
285.409
285.40901
285.40901
285.40902
285.40903
285.40903
285.40904
285.40904
285.40905
285.40906
285.40906
285.40907
285.40907
285.40908
285.40908
285.40909
285.40909
285.4091
285.40911
285.40911
285.40912
285.40912
285.40913
285.40913
285.40914
285.40914
285.40915
285.40915
285.40916
285.40917
285.40917
285.40918
285.40919
285.40919
285.4092
285.4092
285.40921
285.40922
285.40922
285.40923
285.40924
285.40924
285.40925
285.40925
285.40926
285.40927
285.40927
285.40928
285.40928
285.40929
285.40929
285.4093
285.40931
285.40931
285.40932
285.40933
285.40933
285.40934
285.40935
285.40935
285.40936
285.40936
285.40937
285.40938
285.40938
285.40939
285.4094
285.4094
285.40941
285.40942
285.40942
285.40943
285.40943
285.40944
285.40945
285.40945
285.40946
285.40947
285.40947
285.40948
285.40949
285.40949
285.4095
285.40951
285.40952
285.40952
285.40953
285.40954
285.40954
285.40955
285.40956
285.40957
285.40957
285.40958
285.40959
285.40959
285.4096
285.40961
285.40961
285.40962
285.40963
285.40963
285.40964
285.40965
285.40965
285.40966
285.40967
285.40967
285.40968
285.40969
285.4097
285.4097
285.40971
285.40972
285.40973
285.40974
285.40974
285.40975
285.40976
285.40977
285.40977
285.40978
285.40979
285.4098
285.4098
285.40981
285.40982
285.40983
285.40983
285.40984
285.40985
285.40986
285.40986
285.40987
285.40988
285.40989
285.40989
285.4099
285.40991
285.40992
285.40993
285.40993
285.40994
285.40995
285.40996
285.40997
285.40998
285.40998
285.40999
285.41
285.41001
285.41002
285.41002
285.41003
285.41004
285.41005
285.41006
285.41006
285.41007
285.41008
285.41009
285.4101
285.4101
285.41011
285.41012
285.41013
285.41014
285.41015
285.41015
285.41016
285.41017
285.41018
285.41019
285.4102
285.41021
285.41022
285.41022
285.41024
285.41024
285.41025
285.41026
285.41027
285.41028
285.41029
285.4103
285.41031
285.41032
285.41032
285.41033
285.41034
285.41035
285.41036
285.41037
285.41038
285.41039
285.4104
285.4104
285.41041
285.41042
285.41043
285.41044
285.41045
285.41046
285.41047
285.41048
285.41049
285.4105
285.41051
285.41052
285.41053
285.41054
285.41055
285.41056
285.41057
285.41058
285.41059
285.4106
285.41061
285.41062
285.41063
285.41064
285.41065
285.41066
285.41067
285.41068
285.4107
285.41071
285.41072
285.41073
285.41074
285.41075
285.41076
285.41077
285.41078
285.41079
285.4108
285.41081
285.41082
285.41083
285.41084
285.41086
285.41087
285.41088
285.41089
285.4109
285.41091
285.41092
285.41094
285.41095
285.41096
285.41097
285.41098
285.41099
285.411
285.41102
285.41103
285.41104
285.41105
285.41106
285.41108
285.41109
285.4111
285.41111
285.41112
285.41114
285.41115
285.41116
285.41117
285.41119
285.4112
285.41121
285.41122
285.41124
285.41125
285.41126
285.41127
285.41129
285.4113
285.41131
285.41133
285.41134
285.41135
285.41136
285.41138
285.41139
285.41141
285.41142
285.41143
285.41145
285.41146
285.41147
285.41149
285.4115
285.41151
285.41153
285.41154
285.41155
285.41157
285.41158
285.4116
285.41161
285.41162
285.41164
285.41165
285.41167
285.41168
285.4117
285.41171
285.41173
285.41174
285.41175
285.41177
285.41178
285.4118
285.41182
285.41183
285.41185
285.41186
285.41188
285.4119
285.41191
285.41193
285.41194
285.41196
285.41198
285.41199
285.41201
285.41202
285.41204
285.41205
285.41207
285.41209
285.4121
285.41212
285.41213
285.41215
285.41217
285.41218
285.4122
285.41222
285.41224
285.41226
285.41227
285.41229
285.41231
285.41233
285.41234
285.41236
285.41238
285.4124
285.41241
285.41243
285.41245
285.41247
285.41248
285.4125
285.41252
285.41254
285.41256
285.41258
285.4126
285.41262
285.41263
285.41265
285.41267
285.41269
285.41271
285.41273
285.41275
285.41277
285.41279
285.41281
285.41283
285.41285
285.41288
285.4129
285.41292
285.41294
285.41296
285.41298
285.413
285.41302
285.41305
285.41307
285.41309
285.41311
285.41313
285.41315
285.41317
285.41319
285.41322
285.41324
285.41326
285.41328
285.41331
285.41333
285.41336
285.41338
285.4134
285.41343
285.41345
285.41347
285.4135
285.41352
285.41355
285.41357
285.41359
285.41362
285.41364
285.41367
285.4137
285.41372
285.41375
285.41378
285.4138
285.41383
285.41386
285.41389
285.41391
285.41394
285.41397
285.41399
285.41402
285.41405
285.41407
285.4141
285.41413
285.41416
285.41419
285.41421
285.41424
285.41427
285.4143
285.41433
285.41437
285.4144
285.41443
285.41446
285.41449
285.41453
285.41456
285.41459
285.41462
285.41465
285.41468
285.41472
285.41475
285.41478
285.41481
285.41484
285.41487
285.41491
285.41494
285.41497
285.415
285.41504
285.41507
285.41511
285.41515
285.41518
285.41522
285.41526
285.41529
285.41533
285.41537
285.41541
285.41545
285.41549
285.41553
285.41557
285.41561
285.41565
285.4157
285.41574
285.41578
285.41582
285.41587
285.41591
285.41595
285.41599
285.41604
285.41608
285.41613
285.41617
285.41622
285.41626
285.41631
285.41635
285.4164
285.41645
285.4165
285.41654
285.41659
285.41664
285.41669
285.41675
285.4168
285.41685
285.4169
285.41695
285.41701
285.41706
285.41711
285.41717
285.41722
285.41728
285.41733
285.41739
285.41745
285.41751
285.41757
285.41763
285.41769
285.41775
285.41781
285.41788
285.41794
285.41801
285.41807
285.41814
285.4182
285.41827
285.41834
285.41841
285.41848
285.41855
285.41862
285.4187
285.41877
285.41885
285.41892
285.419
285.41908
285.41916
285.41924
285.41932
285.41941
285.41949
285.41958
285.41966
285.41975
285.41983
285.41992
285.42001
285.4201
285.4202
285.42029
285.42039
285.42049
285.42059
285.42069
285.42079
285.4209
285.42101
285.42111
285.42122
285.42133
285.42144
285.42155
285.42166
285.42178
285.42189
285.422
285.42212
285.42223
285.42235
285.42246
285.42258
285.4227
285.42282
285.42293
285.42304
285.42316
285.42327
285.42337
285.42348
285.42357
285.42367
285.42376
285.42384
285.42392
285.42399
285.42405
285.42411
285.42416
285.4242
285.42423
285.42425
285.42427
285.42428
285.42428
285.42428
285.42428
285.42428
285.42426
285.42423
285.42421
285.42418
285.42416
285.42414
285.42413
285.42413
285.42413
285.42413
285.42413
285.42414
285.42418
285.42427
285.42438
285.42452
285.42467
285.42484
285.42503
285.42524
285.42546
285.42569
285.42594
285.4262
285.42646
285.42673
285.427
285.42727
285.42754
285.4278
285.42804
285.42828
285.4285
285.42871
285.4289
285.42907
285.42921
285.42933
285.42942
285.42949
285.42953
285.42956
285.42959
285.42965
285.42978
285.43006
285.43071
285.43228
285.43613
285.44563
285.46912
285.52752
285.67132
286.00654
286.50149
287.11362
287.83418
288.64803
289.53575
290.47514
291.44281
292.41561
293.37201
294.29302
295.16299
295.96996
296.70576
297.36582
297.94884
298.45622
298.89154
299.25998
299.56772
299.82152
300.02825
300.19462
300.32693
300.43093
300.51173
300.57377
300.62085
300.65614
300.68224
300.70128
300.71496
300.7246
300.73125
300.73572
300.7386
300.74036
300.74134
300.74179
300.74192
300.7419
300.74175
300.74127
300.74066
300.74008
300.73953
300.73902
300.73854
300.73809
300.73766
300.73726
300.73687
300.7365
300.73614
300.73578
300.73543
300.73507
300.73471
300.73434
300.73396
300.73356
300.73315
300.73273
300.73228
300.73183
300.73136
300.73088
300.73039
300.72989
300.72939
300.72889
300.7284
300.7279
300.72742
300.72694
300.72648
300.72603
300.7256
300.72518
300.72478
300.7244
300.72404
300.72369
300.72336
300.72305
300.72275
300.72247
300.7222
300.72195
300.7217
300.72147
300.72125
300.72104
300.72084
300.72064
300.72045
300.72027
300.7201
300.71993
300.71977
300.71961
300.71945
300.7193
300.71915
300.71901
300.71887
300.71873
300.7186
300.71847
300.71834
300.71822
300.7181
300.71798
300.71786
300.71774
300.71763
300.71752
300.71741
300.7173
300.71719
300.71708
300.71698
300.71687
300.71677
300.71667
300.71658
300.71648
300.71639
300.71629
300.7162
300.71611
300.71602
300.71593
300.71585
300.71576
300.71568
300.71559
300.71551
300.71543
300.71535
300.71527
300.71519
300.71512
300.71504
300.71497
300.71489
300.71482
300.71475
300.71468
300.71461
300.71454
300.71447
300.7144
300.71433
300.71427
300.7142
300.71414
300.71407
300.71401
300.71395
300.71389
300.71383
300.71377
300.71371
300.71365
300.71359
300.71353
300.71347
300.71342
300.71336
300.71331
300.71325
300.7132
300.71314
300.71309
300.71304
300.71298
300.71293
300.71288
300.71283
300.71278
300.71273
300.71268
300.71263
300.71258
300.71254
300.71249
300.71244
300.71239
300.71235
300.7123
300.71226
300.71221
300.71217
300.71213
300.71208
300.71204
300.712
300.71196
300.71191
300.71187
300.71183
300.71179
300.71175
300.71171
300.71167
300.71163
300.71159
300.71155
300.71151
300.71147
300.71143
300.7114
300.71136
300.71132
300.71129
300.71125
300.71121
300.71118
300.71114
300.71111
300.71107
300.71104
300.711
300.71097
300.71093
300.7109
300.71087
300.71083
300.7108
300.71077
300.71073
300.7107
300.71067
300.71064
300.71061
300.71058
300.71055
300.71052
300.71049
300.71046
300.71042
300.7104
300.71036
300.71034
300.71031
300.71028
300.71025
300.71022
300.71019
300.71016
300.71013
300.7101
300.71007
300.71004
300.71002
300.70999
300.70996
300.70994