/*--------------------------------*- C++ -*----------------------------------*\
  =========                 |
  \\      /  F ield         | OpenFOAM: The Open Source CFD Toolbox
   \\    /   O peration     | Website:  https://openfoam.org
    \\  /    A nd           | Version:  7
     \\/     M anipulation  |
\*---------------------------------------------------------------------------*/
FoamFile
{
    version     2.0;
    format      ascii;
    class       volScalarField;
    location    "0.00193";
    object      Uy;
}
// * * * * * * * * * * * * * * * * * * * * * * * * * * * * * * * * * * * * * //

dimensions      [0 1 -1 0 0 0 0];

internalField   nonuniform List<scalar> 
5000
(
3.883577e-20
7.6835251e-20
0
0
-2.916622e-20
2.4708889e-35
2.1385802e-20
0
0
-2.2328198e-20
-4.5238313e-20
2.2897943e-20
2.3195041e-20
-2.3485507e-20
0
-2.4062025e-20
2.2244982e-49
2.4639751e-20
0
2.5217646e-20
-2.5506965e-20
-2.5796502e-20
5.217191e-20
-2.6375399e-20
-2.6665124e-20
-2.2217147e-34
2.7244992e-20
2.7534965e-20
-5.5650006e-20
4.8743813e-34
-4.9650452e-34
2.8695332e-20
5.7970932e-20
-5.8551187e-20
5.1258777e-34
-2.5965704e-33
-1.045291e-33
6.0871636e-20
-6.14515e-20
-6.2031227e-20
6.2610801e-20
-2.1731277e-33
-6.3769396e-20
3.2174206e-20
9.7390808e-20
-3.2753035e-20
-3.3042502e-20
-2.2830877e-33
-6.7240151e-20
0
3.4197541e-20
4.9007908e-36
-3.4774668e-20
7.0125863e-20
-1.2358291e-33
-7.1278369e-20
3.5927129e-20
-1.2505885e-33
-3.6502679e-20
0
3.7077829e-20
1.2743819e-33
1.0701525e-35
3.7939951e-20
-3.8227207e-20
1.3464144e-33
3.8801622e-20
-3.9088811e-20
-3.9376007e-20
3.9663228e-20
3.9950496e-20
-4.0237834e-20
-4.0525257e-20
8.1625553e-20
4.1100425e-20
-4.1388232e-20
0
4.1964439e-20
-6.0045061e-36
-4.2541855e-20
4.2831344e-20
-1.2255694e-35
1.2337817e-35
4.3698857e-20
4.3989184e-20
1.5417039e-33
-4.457245e-20
0
-4.5156352e-20
-4.7148806e-33
-1.5991164e-33
4.6037279e-20
4.6332208e-20
-9.3255747e-20
-3.2474843e-33
4.722155e-20
0
0
-4.8118481e-20
-3.35783e-33
9.7442332e-20
-4.9024053e-20
-9.8656045e-20
0
4.9939363e-20
5.0246843e-20
-5.0555578e-20
-5.0865706e-20
0
0
5.1805205e-20
5.2120895e-20
0
-5.2753817e-20
1.8553829e-33
5.3396692e-20
-5.3721326e-20
1.5360898e-35
-1.9007988e-33
1.5880284e-50
1.1006445e-19
-2.3603472e-35
-5.5699291e-20
0
-5.6374127e-20
5.6714662e-20
5.705729e-20
-1.1480412e-19
-5.7749036e-20
1.1619652e-19
5.8449762e-20
-5.8803631e-20
-5.9159912e-20
-5.9518705e-20
0
6.0244434e-20
6.0611281e-20
-6.0980324e-20
-2.1273161e-33
6.1723206e-20
-6.2098236e-20
-6.2478354e-20
0
6.3249221e-20
6.3637001e-20
-6.4027454e-20
6.4421837e-20
-3.6845821e-35
-6.5220721e-20
6.562441e-20
-6.6031363e-20
4.6265518e-33
6.6855541e-20
-6.7272698e-20
6.7693299e-20
6.8117482e-20
-6.854533e-20
0
0
-6.9851581e-20
-7.0294847e-20
7.0741608e-20
7.1191401e-20
-7.1643915e-20
-5.00005e-33
7.2561448e-20
-7.3029797e-20
-7.3502601e-20
0
7.4456268e-20
7.4939241e-20
0
-7.5921717e-20
-7.6419458e-20
0
7.7428597e-20
1.6215348e-32
-7.8458061e-20
7.8980299e-20
7.950781e-20
-8.0040779e-20
-5.5651894e-33
5.5797161e-33
3.4819411e-35
8.2228455e-20
-8.2788711e-20
-1.1561005e-32
5.7723708e-33
-5.8121323e-33
8.5089419e-20
0
0
-8.6888575e-20
-8.7500482e-20
0
0
8.9386257e-20
-3.1198085e-50
-9.0682306e-20
0
9.201373e-20
-9.2693285e-20
-2.5877389e-32
1.8816382e-19
-9.4791818e-20
-1.9830369e-32
-1.3677125e-35
-9.6986918e-20
9.7740917e-20
-1.399869e-35
-1.3742689e-32
6.9264196e-33
-1.0089467e-19
0
1.0256117e-19
7.1571773e-33
2.8944839e-32
1.0518523e-19
0
-1.0703065e-19
-1.0798386e-19
0
0
0
1.1203173e-19
7.8278601e-33
-1.1421299e-19
0
0
1.1771073e-19
1.1894232e-19
-1.2021008e-19
-1.2151709e-19
0
1.2425826e-19
1.2569344e-19
-1.2717331e-19
-1.2870193e-19
0
1.3191994e-19
-3.7101639e-32
-9.3874028e-33
1.3717904e-19
-1.3905949e-19
-1.4100914e-19
0
1.4512892e-19
-2.0472947e-32
1.49567e-19
2.1070277e-32
-3.0870773e-19
1.5688841e-19
-2.2125563e-32
-5.6333442e-32
-1.1427182e-32
-1.680845e-19
1.7117264e-19
1.7438551e-19
0
-1.8121258e-19
-1.8484046e-19
0
1.9255376e-19
1.9665259e-19
-4.0184597e-19
-2.0537244e-19
2.1000842e-19
2.148388e-19
6.0991555e-32
-2.2511623e-19
2.3058062e-19
-1.6385372e-32
-2.422066e-19
2.4838801e-19
-1.7708346e-32
1.8211893e-32
-7.6321501e-35
-1.9049122e-32
2.834008e-19
0
0
-3.081007e-19
-3.1702425e-19
0
0
0
0
3.6743701e-19
2.6106746e-32
-7.8117532e-19
1.7175249e-34
4.1563824e-19
4.2891957e-19
-6.1468568e-32
-6.3332037e-32
-6.7076837e-35
-4.8752258e-19
-5.0364054e-19
-5.2038592e-19
1.0755617e-18
1.6675447e-18
-5.7461088e-19
-1.1881834e-18
0
6.3530397e-19
6.5708598e-19
-6.796864e-19
1.9984205e-34
-3.1013018e-34
2.1392068e-34
7.7881275e-19
8.059172e-19
-8.3400999e-19
-1.7262441e-18
8.9328499e-19
-1.530948e-48
9.5689315e-19
2.7445267e-31
-2.0502e-18
0
0
2.2732985e-18
-6.5334941e-31
-2.4352085e-18
0
1.3041906e-18
1.3496963e-18
-1.396732e-18
2.053952e-34
-2.0764422e-31
2.1990562e-34
1.6010371e-18
-1.6563767e-18
-1.7135135e-18
0
1.8333693e-18
-2.6326646e-31
-1.9609927e-18
4.0556848e-18
-5.8163985e-31
-2.1678762e-18
-6.2232707e-31
-4.6334156e-18
4.7891159e-18
2.4747715e-18
-2.5574048e-18
-3.7552393e-34
-2.7301591e-18
0
0
3.0088885e-18
-4.3097111e-31
-6.4169479e-18
4.7074603e-34
1.0258941e-17
-3.5297358e-18
-3.6429116e-18
7.5184782e-18
-3.8787836e-18
4.0016109e-18
8.2555744e-18
-4.2573794e-18
-4.3904551e-18
-4.5270821e-18
4.6673287e-18
-1.4041833e-47
-4.9589558e-18
5.1104751e-18
-5.2658912e-18
5.4252741e-18
1.5486924e-30
1.6360168e-33
5.9279291e-18
-1.2207771e-17
6.2841624e-18
1.7962657e-30
-1.8468916e-30
-6.8516296e-18
-1.4099803e-17
2.1758549e-17
2.0695246e-30
-4.2569505e-30
2.1865395e-30
-1.6225652e-17
1.6680437e-17
-2.3780345e-30
-1.7620741e-17
0
0
9.5550498e-18
-1.3611911e-30
-1.0078595e-17
-1.0348696e-17
1.0624436e-17
3.2717638e-17
-1.119309e-17
-1.1486131e-17
-3.3495167e-33
-1.208995e-17
0
2.5435636e-17
2.6081833e-17
-1.33702e-17
-2.7411449e-17
-1.4047543e-17
2.8791416e-17
2.9500542e-17
-3.0222563e-17
-3.0957574e-17
0
3.246694e-17
-1.6620735e-17
-3.4029344e-17
1.7415321e-17
1.7822719e-17
-2.5916198e-33
2.5904648e-30
1.9085764e-17
-1.9520504e-17
-1.9962156e-17
2.0410745e-17
-2.8941124e-30
-3.0310094e-33
-3.0233895e-30
-2.2274936e-17
2.2758537e-17
-9.6837553e-30
-3.2970208e-30
-6.7307628e-30
-2.4763537e-17
2.5282472e-17
-3.5832517e-30
-7.3033035e-30
-3.8201272e-33
-5.4857997e-17
-2.7983302e-17
2.8544653e-17
5.8226079e-17
-4.1219454e-30
-6.0541715e-17
-3.086025e-17
6.2913192e-17
3.2059866e-17
-3.2670034e-17
-3.3287075e-17
-9.411578e-30
3.4541626e-17
0
0
3.6473998e-17
0
-3.7795452e-17
3.8465978e-17
5.5625503e-33
-1.1053331e-29
0
-4.1212173e-17
4.1914432e-17
4.2622842e-17
-8.6674685e-17
-4.4057862e-17
4.4784319e-17
0
0
-4.6998533e-17
1.3265443e-29
4.8502915e-17
0
0
-5.0800126e-17
2.148991e-29
5.2357611e-17
0
0
0
0
0
0
0
0
1.1920254e-16
3.3541993e-29
-6.125816e-17
6.2092395e-17
-6.2930334e-17
6.3771851e-17
-1.7961173e-29
-6.5465157e-17
-1.8414835e-29
-6.7171405e-17
0
0
6.9752907e-17
1.9609446e-29
-7.1487275e-17
0
0
0
0
0
0
0
1.570203e-16
-6.6094599e-29
-1.6056462e-16
8.1170158e-17
1.1661288e-32
8.294879e-17
-4.6489552e-29
-1.6946112e-16
-8.5622293e-17
4.3293982e-47
2.6222056e-16
0
-1.7838424e-16
0
0
1.8373827e-16
-2.5731461e-29
-2.809557e-16
9.4542345e-17
9.5432016e-17
-9.6320806e-17
9.72086e-17
-9.8095282e-17
-2.7456851e-29
9.9864882e-17
-1.0074759e-16
0
-1.0250824e-16
1.0338599e-16
2.0852377e-16
-1.0513582e-16
-1.060077e-16
-1.0687741e-16
-1.0774486e-16
2.1721993e-16
1.0947262e-16
-1.1033272e-16
0
1.1204492e-16
-1.1289684e-16
-1.1374585e-16
3.4377562e-16
3.2808551e-32
-2.3254924e-16
1.1711117e-16
1.6375406e-29
1.1877423e-16
-3.3992526e-32
-2.408467e-16
1.2124251e-16
0
-3.411847e-29
-1.7575638e-32
-1.244815e-16
1.2528145e-16
-3.5009175e-29
-1.759649e-29
-1.8141114e-32
-1.2844008e-16
1.2921912e-16
-3.7930243e-47
-3.631059e-29
-1.8691528e-32
-2.6458252e-16
-1.8453486e-29
1.3380015e-16
0
0
-1.3602841e-16
-5.6905648e-29
1.3748989e-16
-1.3821335e-16
1.9289314e-29
-1.4032868e-46
-1.9486761e-29
1.4105749e-16
1.4175586e-16
1.9757396e-29
-1.4313714e-16
0
0
1.4517e-16
-1.4583717e-16
1.2195636e-28
1.4715566e-16
-1.4780685e-16
0
1.4909295e-16
1.4972789e-16
-1.5035744e-16
-1.5098153e-16
0
1.5221311e-16
1.5282066e-16
-3.0684548e-16
-1.540193e-16
1.5461027e-16
1.5519562e-16
2.1605718e-29
1.5634943e-16
4.3572992e-29
-3.1496182e-16
0
0
0
1.5967667e-16
1.6021147e-16
0
-1.6126397e-16
-2.2415805e-29
1.622939e-16
0
0
-1.6379636e-16
-2.2786117e-29
2.2829818e-29
-1.6524799e-16
1.6572043e-16
-6.9149456e-29
-1.666483e-16
0
-1.6755383e-16
-2.3324859e-29
1.6843657e-16
-1.6886947e-16
1.6929681e-16
1.6971852e-16
-1.7013455e-16
0
1.7094991e-16
1.7134929e-16
-1.7174296e-16
-1.7213088e-16
0
-1.7289018e-16
1.7326169e-16
1.7362761e-16
-1.7398787e-16
-3.4868512e-16
9.7016837e-29
5.2510627e-16
-1.7469757e-47
-1.7570655e-16
-3.5206785e-16
9.7840671e-29
3.5334357e-16
-1.7698249e-16
1.7728796e-16
-1.775882e-16
-1.7788302e-16
3.5634456e-16
0
0
-3.5801491e-16
1.1308855e-46
3.5907529e-16
0
0
-3.6058574e-16
1.0300806e-46
3.6153995e-16
0
0
-3.6289205e-16
-1.816609e-16
3.6374116e-16
1.8207505e-16
0
-3.6493669e-16
1.0144054e-28
3.6568191e-16
-1.8301965e-16
0
1.8336154e-16
-1.8352465e-16
2.610288e-32
1.8383573e-16
-1.8398376e-16
1.8412674e-16
1.8426463e-16
-1.8439741e-16
-1.8452514e-16
5.1273034e-29
1.8476558e-16
-1.8487832e-16
-5.1366959e-29
1.8508892e-16
-1.8518674e-16
1.8527956e-16
1.8536743e-16
-1.854504e-16
-1.8552845e-16
5.1537862e-29
1.856698e-16
-1.8573319e-16
2.6402581e-32
1.8584514e-16
-1.8589374e-16
1.8593754e-16
1.8597659e-16
-1.8601081e-16
-3.7208021e-16
1.0338569e-28
3.7216811e-16
-1.8609894e-16
2.6447691e-32
3.7222842e-16
5.2896864e-32
-1.8610955e-16
0
1.8608579e-16
0
-1.8604302e-16
0
0
0
-1.8590048e-16
-9.1941429e-49
1.858009e-16
0
1.8568243e-16
-5.1541913e-29
-1.855452e-16
0
0
0
-1.8521452e-16
5.1404193e-29
1.8502119e-16
0
1.8480919e-16
5.1260217e-29
-1.845786e-16
0
1.8432946e-16
-1.8419794e-16
1.0227292e-28
1.8392104e-16
-1.8377563e-16
0
-1.8347096e-16
-5.0902019e-29
1.831479e-16
0
1.8280638e-16
-1.826287e-16
-1.0132349e-28
1.8225961e-16
-1.0108756e-28
-2.5845591e-32
5.0472393e-29
-2.5787917e-32
-1.8125655e-16
0
1.808233e-16
-5.0123306e-29
-5.0060003e-29
9.9289553e-48
-4.9955161e-29
0
-3.5882751e-16
-4.9749962e-29
1.789074e-16
-1.7864738e-16
4.9508007e-29
1.781137e-16
1.7784004e-16
4.9305388e-29
-4.9226876e-29
1.7699181e-16
-1.7669998e-16
-1.764036e-16
0
-1.7579723e-16
4.8729326e-29
1.7517281e-16
0
0
0
-3.4773926e-16
1.9274616e-28
3.4638199e-16
0
0
0
0
0
0
0
-3.4059298e-16
9.4412039e-29
3.3905606e-16
1.6913712e-16
-1.6874177e-16
-1.6834197e-16
4.6656822e-29
9.2943696e-29
1.6711583e-16
-1.6669827e-16
1.662763e-16
1.6584991e-16
-1.654191e-16
-1.6498387e-16
9.1334566e-29
1.6410028e-16
1.6365195e-16
-4.5270796e-29
-1.6274214e-16
-1.6228069e-16
1.6181491e-16
1.6134483e-16
-1.6087044e-16
1.6039173e-16
0
-1.5942135e-16
-1.5892973e-16
4.3948903e-29
1.5793379e-16
-1.5742948e-16
1.5692093e-16
1.5640815e-16
-1.5589118e-16
1.5537001e-16
4.2997287e-29
-1.543152e-16
-1.5378159e-16
-2.1777265e-32
3.0540412e-16
8.4479843e-29
-1.5160615e-16
-1.5105211e-16
0
1.49932e-16
0
0
0
1.4764397e-16
1.4706217e-16
-1.4647649e-16
-1.4588692e-16
0
1.4469629e-16
-4.0032873e-29
-1.4349055e-16
0
0
1.4165397e-16
-7.8284817e-29
-1.4041126e-16
0
0
1.3852036e-16
-7.6535532e-29
-1.3724213e-16
0
1.3595021e-16
-3.7569893e-29
3.7369052e-29
-3.7205557e-29
-1.3332615e-16
0
-1.3199459e-16
7.2876186e-29
1.3065047e-16
0
1.29294e-16
-1.2861124e-16
-1.2792554e-16
2.5447389e-16
3.517513e-29
-2.5170241e-16
3.4752811e-29
1.244543e-16
0
0
1.2233893e-16
-3.3756578e-29
-1.2091591e-16
0
1.1948303e-16
-1.1876304e-16
-1.1804077e-16
1.1731628e-16
0
-1.1586077e-16
1.1512985e-16
6.349897e-29
-6.3091031e-29
1.1292513e-16
-9.3423934e-29
1.1144594e-16
-1.107037e-16
3.0518019e-29
-6.0653245e-29
-2.1693426e-16
2.9880671e-29
1.0696845e-16
0
0
0
-2.0791014e-16
-1.0319872e-16
2.0488266e-16
1.0168296e-16
0
0
9.9402544e-17
3.6284023e-47
-9.7878452e-17
0
-1.9270403e-16
-9.5588098e-17
1.8964759e-16
9.4059165e-17
0
-1.850584e-16
-2.6080906e-32
2.7299655e-16
-2.5030461e-29
-1.7893738e-16
8.8703836e-17
4.9987661e-32
-8.7174938e-17
2.4006915e-29
4.7516635e-29
8.4884866e-17
0
8.336111e-17
-4.5861199e-29
-1.6368082e-16
8.1081423e-17
-1.33734e-28
-7.9566498e-17
1.5762137e-16
-1.1092435e-32
-7.7302749e-17
0
0
0
-7.4303867e-17
7.3558071e-17
1.45628e-16
-7.2071734e-17
-1.9807298e-29
-1.9582186e-29
-6.98565e-17
0
6.8389941e-17
-9.6150595e-33
-1.3386461e-16
6.6207018e-17
3.6330078e-29
-6.4763817e-17
-6.4046029e-17
3.5189451e-29
1.2523691e-16
0
6.1202012e-17
6.0498117e-17
0
-5.9099301e-17
-5.840452e-17
5.771291e-17
0
-5.6339424e-17
0
0
5.4304459e-17
-4.4663308e-29
-5.2965363e-17
0
0
5.0984143e-17
5.033128e-17
-4.9682269e-17
-4.9037162e-17
4.8396018e-17
4.7758893e-17
-9.4251668e-17
-4.6496873e-17
1.2744274e-29
4.5251414e-17
-2.4763149e-29
-2.4423573e-29
4.3415212e-17
-4.2811835e-17
4.2212852e-17
-4.16183e-17
-3.4982774e-32
4.0442695e-17
-7.9723457e-17
-3.9285359e-17
-3.8713611e-17
7.6293028e-17
7.5168177e-17
-3.7026366e-17
3.6473387e-17
-3.5925189e-17
1.9649639e-29
6.968643e-17
-3.4309475e-17
9.3753961e-30
-9.2394141e-30
-3.2737458e-17
0
0
3.1209739e-17
3.0710404e-17
0
-2.9726645e-17
-2.9242262e-17
0
-2.8288555e-17
7.7248467e-30
2.7354918e-17
-2.6895623e-17
7.3347242e-30
2.599214e-17
0
2.5108828e-17
1.369985e-29
-2.4245625e-17
2.3821544e-17
-6.4884256e-30
-2.298843e-17
-2.2579391e-17
-6.1545014e-30
2.1776287e-17
0
-2.0993056e-17
2.0608864e-17
-5.7495997e-33
1.1026824e-29
1.9485819e-17
-1.9121252e-17
0
-3.681339e-17
4.0091296e-29
1.7711446e-17
9.6422203e-30
3.4070574e-17
-3.3408636e-17
-3.275613e-17
3.2113007e-17
3.1479198e-17
1.5427311e-17
0
-1.4816483e-17
-2.9035808e-17
2.0213303e-33
-1.3934277e-17
1.3649152e-17
1.336843e-17
-1.3092085e-17
2.5640187e-17
-2.5104853e-17
-2.0467561e-29
2.4059842e-17
-2.3549993e-17
6.3968269e-30
-1.1277611e-17
1.1035091e-17
1.0796642e-17
-1.0562224e-17
-2.8659962e-30
-2.0210592e-17
1.9765405e-17
1.9327958e-17
-1.8898187e-17
-2.5638982e-30
-9.0306786e-18
4.9021937e-30
8.6270819e-18
2.339848e-30
3.677015e-47
8.0487516e-18
1.572609e-17
-7.6808032e-18
-7.6729323e-47
-7.3265496e-18
-1.191785e-29
6.985627e-18
-1.3640106e-17
3.6955235e-30
1.2996998e-17
7.4373022e-48
-6.1894761e-18
0
0
-5.7486507e-18
5.6075824e-18
1.0938783e-17
0
0
0
-4.9446085e-18
-4.8201849e-18
0
4.5791528e-18
-4.4624811e-18
-7.2421895e-30
8.4732958e-18
0
0
0
-3.8137701e-18
-3.7138178e-18
3.6161064e-18
-3.5205991e-18
-1.903361e-30
6.672053e-18
0
0
-6.1492755e-18
8.5023704e-34
2.9103173e-18
-2.8310389e-18
2.753631e-18
-2.6780499e-18
1.4463007e-30
5.0644476e-18
0
0
-2.3263918e-18
-2.2610983e-18
0
0
2.0746753e-18
2.0155805e-18
0
-1.9017954e-18
-1.8470495e-18
1.7936906e-18
-1.7416836e-18
-1.6910002e-18
1.6416167e-18
1.5935115e-18
-8.5895357e-31
-1.5010313e-18
1.4565891e-18
3.9224599e-31
-1.3711603e-18
0
-1.2902081e-18
6.9477567e-31
1.2135452e-18
-1.1767432e-18
6.3346492e-31
1.1060889e-18
0
-1.0392525e-18
2.7968386e-31
1.3870689e-34
-9.4576537e-19
9.1630552e-19
8.8766899e-19
0
-1.6655976e-18
8.9582897e-31
7.81007e-19
1.0746338e-34
1.4642205e-18
-1.4174102e-18
-1.3719536e-18
1.3278233e-18
6.4249325e-19
0
-1.2030218e-18
9.6884911e-31
1.1257751e-18
0
-1.0530485e-18
-2.8276483e-31
4.9230541e-19
1.3216393e-31
9.2020283e-19
-8.8945838e-19
-1.0735824e-30
8.3076309e-19
-8.0274477e-19
2.1519736e-31
7.4924672e-19
3.6186698e-19
-6.9901915e-19
-3.3753713e-19
6.518713e-19
-6.2939041e-19
-7.5882669e-31
5.8654688e-19
-5.6614214e-19
7.5858996e-32
-2.6361585e-19
2.8221904e-31
7.3613327e-19
-1.3138875e-31
-4.5662825e-19
2.2019248e-19
4.2465625e-19
-2.0471559e-19
1.0957349e-31
-1.9023658e-19
-2.0366456e-31
1.7671599e-19
-3.4056699e-19
1.3662091e-31
-1.7546942e-31
8.4450885e-32
1.4660406e-19
0
1.3594507e-19
1.3087922e-19
0
0
0
0
0
-1.0390843e-19
-9.9940681e-20
0
9.2401276e-20
-8.8828639e-20
-1.4223924e-31
1.6414951e-19
0
0
0
-6.9925415e-20
-6.7148442e-20
6.4476454e-20
6.1908343e-20
-1.1887171e-19
-9.5050622e-32
1.0949737e-19
0
-1.0077464e-19
-8.0496087e-32
4.633665e-20
-4.4430669e-20
4.2602014e-20
-4.0842839e-20
-2.1729622e-32
7.5025786e-20
0
0
-3.2963304e-20
-3.1564594e-20
0
-2.8943851e-20
-7.8755004e-36
-2.6519653e-20
2.5372466e-20
7.2800375e-20
0
4.4399517e-20
4.2478997e-20
0
-5.8294361e-20
-3.7158283e-20
3.5519062e-20
-1.6970586e-20
-1.6213198e-20
4.6473736e-20
1.4807055e-20
2.0118375e-36
1.3535141e-20
-1.2938249e-20
-1.2365499e-20
-1.181527e-20
-2.4975531e-50
-1.0779891e-20
-1.0301536e-20
9.8524843e-21
0
1.8037643e-20
1.7254449e-20
0
-7.8898264e-21
-1.5090399e-20
-4.0075782e-33
-6.9201578e-21
-1.327125e-20
1.2727483e-20
1.2206948e-20
5.8542146e-21
5.6155846e-21
0
-5.1784887e-21
-1.4947334e-20
4.7978358e-21
8.9453871e-49
-1.3359129e-20
8.5822433e-21
4.1386097e-21
3.9981152e-21
7.737149e-21
-7.4930494e-21
-3.629432e-21
3.5162299e-21
3.408296e-21
3.3091579e-21
-9.6591509e-21
-3.1370739e-21
9.1743984e-21
2.977494e-21
-2.8927654e-21
-5.6516447e-21
2.7731168e-21
-2.7183959e-21
4.4395324e-33
-4.3554403e-33
-7.5469224e-21
2.4573234e-21
2.4608072e-21
4.8676159e-21
2.3990151e-21
-4.3736153e-21
-5.6843714e-37
-1.9700954e-21
2.0869647e-21
6.6748537e-21
-6.12263e-21
-1.9400862e-21
6.0772271e-21
0
-6.3077072e-21
-2.0736187e-21
5.9776582e-21
-1.9168272e-21
-3.820951e-21
-1.0631868e-33
2.1166563e-33
1.8943493e-21
0
3.7734927e-21
3.7558594e-21
-1.8473642e-21
-1.8055577e-21
-3.5462795e-21
1.7579207e-21
1.7544277e-21
-3.4889226e-21
0
3.3065467e-21
3.2650963e-21
-1.6323663e-21
-3.2611784e-21
8.9636861e-34
1.5897033e-21
-3.1085731e-21
1.5184824e-21
-4.9883122e-33
-2.9707402e-21
1.4682813e-21
0
2.8388063e-21
0
-3.0685976e-33
-1.3593557e-21
-2.651145e-21
3.8655307e-21
-3.5878213e-37
-2.5039565e-21
0
2.4497895e-21
1.1989976e-21
-2.3295392e-21
1.2561594e-33
1.110266e-21
-2.2044669e-21
1.0933437e-21
-1.7937536e-33
-2.1069727e-21
1.0255736e-21
-9.9963189e-22
1.9615686e-21
2.9107683e-21
0
-2.8281261e-21
-1.8458014e-21
2.7054539e-21
1.7688226e-21
-8.7396045e-22
-1.7256201e-21
8.4735817e-22
8.2960137e-22
-1.621147e-21
7.9649824e-22
1.5811429e-21
-7.8722199e-22
1.1073993e-37
-1.5263435e-21
-1.4907014e-21
2.1953312e-21
-7.2533515e-22
-1.2097138e-33
2.1763375e-21
0
-2.1127638e-21
-1.3813396e-21
6.8317567e-22
6.8340135e-22
6.883848e-22
0
6.827813e-22
-3.7305804e-34
-1.3249106e-21
3.6567981e-34
6.624463e-22
0
6.7243103e-22
-1.3367547e-21
-1.983214e-21
1.3102046e-21
1.9629763e-21
6.5916186e-22
-6.6671762e-22
-1.3405841e-21
6.6712274e-22
-6.6207926e-22
-6.5919698e-22
1.3208459e-21
-1.3323223e-21
-6.7280819e-22
2.027001e-21
1.346172e-21
-6.697991e-22
-2.0068269e-21
1.4893534e-33
-1.499788e-33
-6.7978661e-22
-7.5551576e-34
-6.7956811e-22
6.7977582e-22
6.8165206e-22
6.8303124e-22
-6.8212932e-22
-6.7972792e-22
2.0313059e-21
-6.7751058e-22
-1.3645926e-21
2.0640057e-21
1.9573335e-37
-6.8194816e-22
1.3487168e-21
6.702495e-22
0
-6.7891808e-22
-6.8539825e-22
-1.3694909e-21
6.765511e-22
-2.2252937e-33
-1.9896251e-21
6.6299686e-22
6.6829197e-22
6.738496e-22
-6.7364823e-22
-6.662967e-22
1.973375e-21
-6.5202301e-22
-1.2997356e-21
-1.0855344e-33
-6.5520248e-22
1.3106456e-21
1.9518256e-21
3.5736691e-34
-3.5430224e-34
-9.0318854e-38
-6.3614649e-22
-1.2767091e-21
-6.3783277e-22
1.896257e-21
-6.9399959e-34
-1.2405956e-21
0
0
6.2229488e-22
-3.4385127e-34
3.3985193e-34
6.0544773e-22
-1.2052992e-21
-6.0458905e-22
-6.7635945e-34
6.1187094e-22
1.8277682e-21
6.0343675e-22
0
0
0
-1.7934571e-21
-1.1968242e-21
1.7958299e-21
-6.6557082e-34
-1.2008591e-21
0
0
1.1823e-21
-1.3093284e-33
-6.5719366e-34
1.1967088e-21
-6.0327103e-22
-1.2053697e-21
-1.193871e-21
5.9167895e-22
1.7729132e-21
5.9542855e-22
0
0
0
-1.8136763e-21
-1.2019399e-21
1.8045269e-21
-1.346048e-33
-6.1352834e-22
8.7814548e-38
-6.1705854e-22
1.2287229e-21
-6.8086114e-34
-6.1532101e-22
1.2403842e-21
0
-3.4762092e-34
-1.2516175e-21
-1.2513831e-21
1.8836691e-21
1.2656173e-21
-6.3648986e-22
-3.5297706e-34
6.3251539e-22
-1.887949e-21
-1.2606321e-21
6.3631897e-22
6.4512879e-22
-6.5077971e-22
-6.4981312e-22
6.4442055e-22
6.4012142e-22
-3.5503523e-34
3.5710677e-34
6.5110607e-22
0
6.6035122e-22
-1.3132905e-21
-1.9567565e-21
1.3003867e-21
1.3025831e-21
6.5612796e-22
-7.3557944e-34
-1.331896e-21
6.6412624e-22
-6.6062619e-22
-6.5830428e-22
1.3180435e-21
-1.3264746e-21
-6.6808106e-22
6.6974336e-22
1.3336878e-21
6.6320859e-22
-1.3244158e-21
3.6892811e-34
-6.7154844e-22
-6.7681278e-22
2.0308425e-21
-6.7275015e-22
-6.6904221e-22
2.0045995e-21
-9.5257665e-38
-2.02575e-21
-6.8012383e-22
2.0498598e-21
-6.8487931e-22
5.8279454e-51
-1.1420223e-33
-1.3685913e-21
1.3646724e-21
1.3615479e-21
-6.8234063e-22
7.6434916e-34
1.3944669e-21
-7.0216813e-22
-2.102453e-21
-6.9725521e-22
6.9507679e-22
0
7.0362092e-22
1.4237714e-21
-1.019185e-37
-2.1524382e-21
-7.1661893e-22
1.4356891e-21
-1.0262041e-37
-1.4606182e-21
1.471901e-21
-1.2260466e-33
-1.4684701e-21
2.1984156e-21
1.4711757e-21
0
0
-7.6567075e-22
-2.3018395e-21
-7.6439618e-22
2.2875834e-21
-8.4793781e-34
-1.5397216e-21
1.5624953e-21
1.5861393e-21
-8.0040454e-22
-1.6034533e-21
8.0099794e-22
8.0237591e-22
-2.4168321e-21
-8.1050941e-22
-1.3614955e-33
4.5760379e-34
8.3135892e-22
-8.3666194e-22
1.6818792e-21
2.5324004e-21
0
-2.5421094e-21
-1.6985716e-21
2.5562556e-21
-2.4378879e-37
-8.654236e-22
1.7415506e-21
-8.7101272e-22
-8.700229e-22
-9.6536569e-34
8.7077016e-22
1.7536137e-21
-8.8482981e-22
-1.7785606e-21
-1.7762007e-21
9.8344781e-34
8.8400444e-22
-8.8351211e-22
1.7727214e-21
2.6740876e-21
0
-2.6819432e-21
-1.7818871e-21
2.6650296e-21
-9.8356276e-34
-8.8301594e-22
8.8201865e-22
8.8329579e-22
-4.8987098e-34
-1.7574323e-21
4.8441297e-34
1.7326704e-21
-9.5513136e-34
-9.5090964e-34
-1.7106293e-21
-2.5623824e-21
1.70115e-21
-9.3785214e-34
-2.7895955e-33
8.2984733e-22
8.2072921e-22
1.6224632e-21
-2.4026763e-21
-7.9179745e-22
1.5741702e-21
-1.5700122e-21
-4.4304963e-37
2.299762e-21
7.5145897e-22
-7.3720377e-22
-2.1753296e-21
2.3897034e-33
1.424552e-21
7.0605285e-22
-1.3934717e-21
-2.0538201e-21
2.0127522e-21
6.5668274e-22
7.1298668e-34
6.2761407e-22
-1.2282079e-21
3.353308e-34
-5.9631328e-22
5.8522983e-22
-1.895237e-33
-1.6524752e-21
1.5998023e-21
1.5586772e-21
0
0
0
-4.7434221e-22
-1.3635021e-21
-4.3630762e-22
-4.6934226e-34
-4.1376233e-22
1.2178837e-21
3.9568264e-22
-3.8093496e-22
-3.6274468e-22
-3.4503241e-22
6.5974417e-22
-3.1728677e-22
3.0659541e-22
-9.856512e-34
-5.6869292e-22
8.1576598e-22
5.1831017e-22
0
-4.6475204e-22
-2.429229e-34
2.0643013e-22
-5.890249e-22
-1.8803283e-22
1.7968822e-22
0
0
1.4170719e-22
2.6249987e-22
-2.7614719e-34
-2.3841759e-22
-1.1289537e-22
1.038852e-22
-9.3232857e-23
8.424449e-23
2.0217973e-50
-1.2461736e-34
2.1057896e-22
0
0
-8.7638226e-23
-8.2812445e-23
-4.2969055e-23
4.95889e-35
1.3024594e-22
-4.1722058e-35
-5.7587074e-23
0
4.2585649e-23
2.3865174e-23
-5.4246252e-23
2.9131499e-23
2.9809055e-23
-9.0059861e-23
3.0602203e-23
-1.0280874e-34
-5.9352847e-23
8.6986786e-23
6.4408876e-23
0
0
0
-1.8251595e-22
-1.1364501e-22
1.5960239e-22
1.1536515e-22
0
-1.7354885e-22
1.1128606e-34
1.0689144e-22
-2.1048189e-22
1.0042784e-22
-1.0211781e-22
-1.1430037e-22
3.9765621e-22
-3.0089983e-22
-3.2776084e-22
1.7050499e-22
-1.7045197e-22
3.3854247e-22
5.2192425e-22
0
-6.1417178e-22
-4.4571964e-22
2.3760317e-22
2.4644165e-22
-2.7646814e-34
2.500111e-22
-8.5088051e-34
-2.6753707e-22
-1.5789935e-34
2.9853385e-51
3.1711776e-22
0
3.289766e-22
-6.6237611e-22
-1.0131127e-21
1.0488114e-21
1.0959544e-21
0
-7.8854901e-22
-8.0186863e-22
8.0627068e-22
-4.0669761e-22
-4.1406196e-22
1.275572e-21
-8.7871811e-22
-9.0623495e-22
4.6196083e-22
9.2932022e-22
4.6607848e-22
-1.4107091e-21
-4.7802732e-22
-8.1448286e-34
1.0025643e-21
2.8992856e-37
-1.5396528e-21
1.0267541e-21
1.5442502e-21
5.1926049e-22
-1.581084e-21
-1.0739482e-21
1.6336949e-21
-1.2151992e-33
-1.0932527e-21
-5.4648121e-22
3.0466989e-34
1.1082857e-21
-6.2348579e-34
5.6669347e-22
5.6733903e-22
-1.6979022e-21
-5.6508806e-22
-6.2892977e-34
1.1414141e-21
-1.917263e-33
-1.7324757e-21
1.1490875e-21
-6.3424611e-34
-6.3237653e-34
-1.266097e-33
-5.7512019e-22
1.7413593e-21
-5.8125805e-22
-9.5954202e-34
-1.9004865e-33
-1.7013347e-21
5.6642599e-22
1.1385447e-21
-6.3646286e-34
5.7541742e-22
5.7341921e-22
-1.137683e-21
-1.1301567e-21
6.2446498e-34
1.6840705e-21
-6.2375828e-34
-5.637815e-22
1.1285085e-21
-5.6195166e-22
-5.5765962e-22
3.0713989e-34
-3.0605666e-34
5.5173763e-22
-1.1090857e-21
5.5581406e-22
-1.8439213e-33
-1.8285773e-33
1.6341228e-21
-1.0861298e-21
1.548563e-37
1.0977858e-21
-5.5023062e-22
-1.6401626e-21
-5.4189513e-22
1.6151672e-21
-5.9724841e-34
-5.4139871e-22
1.0922514e-21
-1.0955985e-21
-2.7199755e-33
5.4003307e-22
-5.3771624e-22
5.3800568e-22
-1.0832081e-21
5.4514471e-22
1.6375331e-21
0
0
-1.0813165e-21
-1.5425505e-37
1.0932554e-21
-5.4860681e-22
-1.6388969e-21
-5.4317569e-22
1.6245503e-21
1.5413706e-37
6.0720112e-34
1.1034402e-21
-1.6573309e-21
-2.7402517e-33
5.4431812e-22
-5.4221134e-22
-5.4343206e-22
6.0979327e-34
5.5418183e-22
-1.1094671e-21
1.101058e-21
-1.8189366e-33
-1.0872472e-21
1.6321558e-21
1.0972692e-21
-5.5287655e-22
-1.658954e-21
-5.4887383e-22
5.4438492e-22
0
-5.4129933e-22
5.4446593e-22
1.6388325e-21
3.0207277e-34
-1.0802952e-21
5.3585755e-22
5.3363452e-22
-1.069549e-21
5.3618888e-22
-5.3432437e-22
-1.0562424e-21
1.5621003e-21
-1.71807e-33
1.1452816e-33
1.0398659e-21
-1.0437488e-21
-5.1746238e-22
-5.0756429e-22
-5.5247283e-34
4.9090419e-22
-9.815906e-22
9.9121641e-22
1.4975175e-21
0
-4.8566559e-22
2.6345757e-34
1.3253653e-37
-1.3875184e-21
-4.6432663e-22
1.4023322e-21
-4.6640079e-22
-5.7047632e-50
1.345731e-21
-4.3891015e-22
-1.2982622e-21
-4.3109523e-22
8.6513273e-22
-4.3318886e-22
4.2913009e-22
-1.3978158e-33
-8.196877e-22
1.2074474e-21
4.4285368e-34
-1.7713784e-33
7.99693e-22
-7.9396145e-22
-4.3193715e-34
3.7971223e-22
-7.4419377e-22
-3.6836814e-22
0
0
7.3530787e-22
-8.0220076e-34
-2.0059538e-37
-3.839174e-34
-3.4253908e-22
-3.4277794e-22
3.4424569e-22
3.4306953e-22
-6.7581111e-22
6.6162345e-22
-3.6083688e-34
-6.4583689e-22
6.4820217e-22
1.0869343e-33
-3.6204068e-34
3.2183452e-22
-6.3060518e-22
3.1016307e-22
-6.858288e-34
-6.2226808e-22
0
6.3370507e-22
3.1514588e-22
-6.2032804e-22
-3.0577724e-22
3.0414805e-22
-5.0864692e-34
-3.0900307e-22
0
0
6.2704726e-22
6.2129859e-22
0
-6.1537633e-22
-3.0918337e-22
3.127656e-22
-3.1742755e-22
3.2171783e-22
0
-6.4264662e-22
0
0
3.2049963e-22
-3.6145802e-34
-3.3126085e-22
0
3.3150439e-22
1.8258382e-34
-3.2964661e-22
0
6.8728432e-22
7.053147e-22
-3.5820467e-22
-3.9639648e-34
3.5082109e-22
-6.9001748e-22
-6.8607035e-22
6.9137895e-22
1.0031743e-37
8.0497313e-34
1.0551222e-37
-7.5625087e-22
3.8252175e-22
-4.2489497e-34
3.7875025e-22
-3.7416234e-22
-1.1175864e-21
1.1233479e-21
3.7962735e-22
-3.8675916e-22
-4.3691696e-34
-3.9947479e-22
8.0912477e-22
8.1439876e-22
-8.102842e-22
-1.3306973e-33
-3.954642e-22
-3.9602253e-22
8.0539783e-22
-4.1363185e-22
4.7007377e-34
-2.3751431e-34
4.2436736e-22
8.3515194e-22
-8.2641736e-22
-8.2743317e-22
0
4.2951929e-22
4.8635735e-34
-8.8513089e-22
-4.9009592e-34
1.3104003e-21
8.6710424e-22
0
-8.7298735e-22
-9.8618254e-34
-4.5264352e-22
-4.5766796e-22
1.371047e-21
-2.5125688e-34
-8.9977181e-22
4.4999464e-22
9.0780978e-22
-4.6160474e-22
-9.3897183e-22
-4.7357816e-22
0
9.407874e-22
-4.6954243e-22
-1.4140005e-21
4.7602187e-22
4.8262591e-22
9.7535051e-22
4.8967175e-22
-9.7993058e-22
-4.9058248e-22
-4.9310622e-22
5.5267029e-34
5.0381736e-22
5.0800946e-22
1.0172768e-21
5.0872697e-22
0
0
0
-1.0574514e-21
-1.0667691e-21
1.0665646e-21
5.913551e-34
5.9271971e-34
-5.9692862e-34
-1.2118001e-33
1.1106304e-21
0
-1.1257989e-21
-5.6229661e-22
5.6300666e-22
-5.6621616e-22
-5.7288183e-22
0
0
1.1920093e-21
-1.9883703e-33
-1.3269212e-33
1.1991608e-21
-1.2064465e-21
-1.2192333e-21
0
1.2521794e-21
-7.002659e-34
-1.2651845e-21
1.2680044e-21
7.0684259e-34
-1.2802546e-21
0
1.3034729e-21
6.5776251e-22
-1.3244118e-21
6.6523321e-22
1.4823855e-33
-1.3389232e-21
1.3434354e-21
1.3475734e-21
0
0
0
-1.3774015e-21
-1.376425e-21
1.3733727e-21
0
-1.370123e-21
0
-6.9370389e-22
1.3931926e-21
6.9460905e-22
-6.9103028e-22
1.3755195e-21
6.8536738e-22
-1.3723852e-21
-6.8760117e-22
-7.6231922e-34
6.8290787e-22
-1.504522e-33
3.8238705e-37
1.3399186e-21
0
-6.6374155e-22
-1.31308e-21
-6.4716128e-22
0
0
0
-6.2837167e-22
1.2398666e-21
6.0732271e-22
-5.935011e-22
-5.8122317e-22
5.7281957e-22
5.6836375e-22
-1.1248427e-21
0
1.0740113e-21
1.0420855e-21
0
0
-9.686626e-22
-5.2462207e-34
-4.5610403e-22
-4.3737689e-22
4.201079e-22
-4.0607481e-22
3.9510282e-22
7.6461196e-22
3.6339066e-22
0
-6.267307e-22
-3.2587779e-34
2.8052982e-22
-2.7084103e-22
-2.5878439e-22
-4.7864371e-22
4.2254622e-22
1.8031782e-22
-4.3781337e-38
1.3644328e-22
-2.4931756e-22
1.1255344e-22
-9.6180208e-23
-6.1555218e-50
4.4042239e-23
-2.4304267e-23
-3.0125049e-23
-6.8154207e-23
0
6.1032512e-23
1.5760429e-22
-5.6640425e-35
-1.3085202e-22
-1.6233628e-22
3.803405e-22
4.1902962e-22
-2.2272383e-22
-4.7266884e-22
-5.0790092e-22
2.7646203e-22
6.0561362e-22
-3.3060284e-22
3.5688464e-22
-6.281005e-34
-3.9144898e-22
8.0838234e-22
-8.3843897e-22
-4.8556618e-34
2.5464265e-33
-9.6319745e-22
1.0081338e-21
2.3264777e-33
-5.3864834e-22
1.0990513e-21
-5.6047114e-22
1.6303662e-37
-2.6178339e-33
-6.0689506e-22
1.2487109e-21
-1.4216795e-33
3.614537e-34
-6.5798865e-22
1.8885686e-37
1.3466484e-21
-1.3684065e-21
-3.9597721e-37
3.1493578e-33
-1.4357751e-21
1.4420581e-21
1.6032317e-33
-1.4498031e-21
7.2993625e-22
7.3673899e-22
7.4412779e-22
-7.4874108e-22
8.3051657e-34
1.4888148e-21
0
0
-1.4832496e-21
-2.1105537e-37
1.4829704e-21
-7.3684567e-22
8.1024368e-34
-7.23557e-22
-1.5943291e-33
1.4251841e-21
0
6.9714452e-22
-1.3759536e-21
-6.7857972e-22
1.4864957e-33
-6.5994587e-22
1.2960256e-21
-6.3361324e-22
6.8710153e-34
1.2107462e-21
0
0
-5.6884701e-22
3.0619363e-34
-5.3192199e-22
5.1325811e-22
1.4889649e-21
-1.4443633e-21
-4.6751146e-22
9.0110104e-22
-4.2930226e-22
-6.768972e-34
-3.8518299e-22
2.0810238e-37
1.1629447e-33
-3.3243889e-22
6.2501992e-22
2.8897476e-22
0
2.416396e-22
-2.2103531e-22
-2.0259555e-22
-1.8380485e-22
3.5959103e-34
-1.5260926e-34
1.2523065e-34
1.7918002e-22
-6.8871025e-23
-8.3117874e-35
5.9575408e-23
-9.9405807e-40
1.7260239e-23
8.2980438e-23
1.2749039e-22
-1.6621924e-22
-1.1328698e-34
-1.2278715e-22
-1.4542374e-22
3.3735372e-22
-3.8125478e-22