/*--------------------------------*- C++ -*----------------------------------*\
  =========                 |
  \\      /  F ield         | OpenFOAM: The Open Source CFD Toolbox
   \\    /   O peration     | Website:  https://openfoam.org
    \\  /    A nd           | Version:  7
     \\/     M anipulation  |
\*---------------------------------------------------------------------------*/
FoamFile
{
    version     2.0;
    format      ascii;
    class       surfaceScalarField;
    location    "0.00098";
    object      phi;
}
// * * * * * * * * * * * * * * * * * * * * * * * * * * * * * * * * * * * * * //

dimensions      [1 0 -1 0 0 0 0];

internalField   nonuniform List<scalar> 
4999
(
1.3500312e-13
1.4921397e-13
1.4210855e-13
1.4921397e-13
1.4921397e-13
1.4210855e-13
1.4210855e-13
1.6342483e-13
1.563194e-13
1.4921397e-13
1.4921397e-13
1.563194e-13
1.3500312e-13
1.4210855e-13
1.3500312e-13
1.4210855e-13
1.2789769e-13
1.4210855e-13
1.3500312e-13
1.3500312e-13
1.2079227e-13
1.3500312e-13
1.4210855e-13
1.4210855e-13
1.3500312e-13
1.4921397e-13
1.3500312e-13
1.4921397e-13
1.4210855e-13
1.2789769e-13
1.3500312e-13
1.2789769e-13
1.2789769e-13
1.2079227e-13
1.2079227e-13
1.2079227e-13
1.2789769e-13
1.2079227e-13
1.4210855e-13
1.4210855e-13
1.2079227e-13
1.2079227e-13
1.2079227e-13
1.4210855e-13
1.3500312e-13
1.2789769e-13
1.3500312e-13
1.2079227e-13
1.2079227e-13
1.0658141e-13
1.0658141e-13
9.9475983e-14
9.9475983e-14
9.9475983e-14
1.0658141e-13
1.2079227e-13
1.2079227e-13
1.2789769e-13
1.4210855e-13
1.4921397e-13
1.4921397e-13
1.563194e-13
1.6342483e-13
1.6342483e-13
1.6342483e-13
1.563194e-13
1.563194e-13
1.7053026e-13
1.563194e-13
1.563194e-13
1.6342483e-13
1.7763568e-13
1.9184654e-13
1.9184654e-13
1.9184654e-13
1.8474111e-13
1.7053026e-13
1.7763568e-13
1.7763568e-13
1.7763568e-13
1.9184654e-13
1.9184654e-13
1.9895197e-13
1.9895197e-13
2.1316282e-13
1.9895197e-13
1.9895197e-13
1.8474111e-13
1.9895197e-13
1.9184654e-13
1.9895197e-13
1.9895197e-13
2.0605739e-13
2.0605739e-13
2.0605739e-13
2.2026825e-13
2.1316282e-13
2.344791e-13
2.1316282e-13
2.1316282e-13
2.0605739e-13
2.1316282e-13
2.1316282e-13
2.1316282e-13
2.344791e-13
2.344791e-13
2.2026825e-13
2.2026825e-13
2.2737368e-13
2.2737368e-13
2.2026825e-13
2.344791e-13
2.2737368e-13
2.2737368e-13
2.2026825e-13
2.2026825e-13
2.2026825e-13
2.1316282e-13
2.1316282e-13
1.9895197e-13
2.1316282e-13
2.2026825e-13
2.2026825e-13
2.1316282e-13
2.1316282e-13
2.0605739e-13
2.2026825e-13
2.1316282e-13
2.2026825e-13
2.0605739e-13
1.9895197e-13
2.0605739e-13
2.0605739e-13
1.9895197e-13
2.0605739e-13
2.0605739e-13
2.1316282e-13
1.9895197e-13
1.9184654e-13
1.7763568e-13
1.7763568e-13
1.6342483e-13
1.7053026e-13
1.563194e-13
1.7763568e-13
1.7053026e-13
1.8474111e-13
1.7763568e-13
1.7763568e-13
1.7763568e-13
1.7763568e-13
1.7053026e-13
1.7763568e-13
1.6342483e-13
1.7053026e-13
1.7763568e-13
1.7763568e-13
1.7053026e-13
1.7053026e-13
1.7763568e-13
1.7763568e-13
1.8474111e-13
1.8474111e-13
1.8474111e-13
1.8474111e-13
1.8474111e-13
1.7763568e-13
1.7763568e-13
1.8474111e-13
1.8474111e-13
1.8474111e-13
1.7763568e-13
1.9184654e-13
1.7763568e-13
1.8474111e-13
1.7053026e-13
1.6342483e-13
1.7763568e-13
1.7053026e-13
1.6342483e-13
1.7053026e-13
1.6342483e-13
1.563194e-13
1.4921397e-13
1.563194e-13
1.563194e-13
1.6342483e-13
1.6342483e-13
1.4921397e-13
1.4921397e-13
1.4921397e-13
1.4210855e-13
1.563194e-13
1.6342483e-13
1.6342483e-13
1.563194e-13
1.4921397e-13
1.563194e-13
1.6342483e-13
1.7053026e-13
1.8474111e-13
1.7763568e-13
1.8474111e-13
1.8474111e-13
1.8474111e-13
1.8474111e-13
1.9184654e-13
1.9184654e-13
1.9184654e-13
2.0605739e-13
1.9184654e-13
1.9895197e-13
2.0605739e-13
1.9895197e-13
1.8474111e-13
1.7763568e-13
1.7053026e-13
1.9184654e-13
1.8474111e-13
1.7763568e-13
1.7053026e-13
1.8474111e-13
1.7763568e-13
1.8474111e-13
1.8474111e-13
1.7763568e-13
1.7763568e-13
1.8474111e-13
1.9895197e-13
1.8474111e-13
1.9895197e-13
1.9184654e-13
1.9895197e-13
2.0605739e-13
1.9184654e-13
1.9895197e-13
1.9895197e-13
1.9895197e-13
1.9895197e-13
1.7763568e-13
1.8474111e-13
1.7763568e-13
1.7763568e-13
1.7763568e-13
1.6342483e-13
1.7053026e-13
1.563194e-13
1.6342483e-13
1.6342483e-13
1.6342483e-13
1.6342483e-13
1.563194e-13
1.563194e-13
1.7053026e-13
1.6342483e-13
1.6342483e-13
1.8474111e-13
1.7763568e-13
1.7763568e-13
1.7053026e-13
1.7763568e-13
1.7053026e-13
1.563194e-13
1.563194e-13
1.7053026e-13
1.7053026e-13
1.7763568e-13
1.7763568e-13
1.8474111e-13
1.6342483e-13
1.6342483e-13
1.7053026e-13
1.7763568e-13
1.6342483e-13
1.6342483e-13
1.563194e-13
1.4921397e-13
1.4921397e-13
1.4210855e-13
1.4921397e-13
1.3500312e-13
1.4210855e-13
1.4210855e-13
1.563194e-13
1.6342483e-13
1.563194e-13
1.563194e-13
1.563194e-13
1.563194e-13
1.7763568e-13
1.7763568e-13
1.7053026e-13
1.6342483e-13
1.7763568e-13
1.7053026e-13
1.8474111e-13
1.9184654e-13
1.9895197e-13
1.8474111e-13
1.7763568e-13
1.9184654e-13
1.9184654e-13
1.9895197e-13
2.1316282e-13
2.1316282e-13
2.2026825e-13
2.2026825e-13
2.2026825e-13
2.344791e-13
2.4158453e-13
2.4868996e-13
2.5579538e-13
2.7711167e-13
2.9842795e-13
3.126388e-13
3.3395509e-13
3.4106051e-13
3.6948222e-13
3.9790393e-13
4.1922021e-13
4.6185278e-13
4.8316906e-13
5.0448534e-13
5.5422333e-13
5.968559e-13
6.3948846e-13
7.0343731e-13
7.531753e-13
8.2422957e-13
8.8107299e-13
9.6633812e-13
1.0516032e-12
1.1439738e-12
1.2434498e-12
1.3500312e-12
1.4708235e-12
1.6058266e-12
1.7479351e-12
1.9326762e-12
2.1032065e-12
2.3163693e-12
2.543743e-12
2.7853275e-12
3.0553338e-12
3.3466563e-12
3.6592951e-12
3.9932502e-12
4.3840487e-12
4.8032689e-12
5.2651217e-12
5.769607e-12
6.3096195e-12
6.9064754e-12
7.5601747e-12
8.2778229e-12
9.0523145e-12
9.926282e-12
1.0864198e-11
1.1894485e-11
1.3017143e-11
1.4239276e-11
1.5582202e-11
1.7053026e-11
1.8644641e-11
2.0406787e-11
2.2325253e-11
2.4414248e-11
2.6716407e-11
2.9210412e-11
3.1946001e-11
3.4930281e-11
3.8177461e-11
4.173728e-11
4.5609738e-11
4.9830362e-11
5.444889e-11
5.9472427e-11
6.4972028e-11
7.0961903e-11
7.7491791e-11
8.4604324e-11
9.2356345e-11
1.008118e-10
1.0999912e-10
1.2002488e-10
1.3094592e-10
1.4284041e-10
1.5578649e-10
1.6988366e-10
1.8523849e-10
2.0192914e-10
2.2010482e-10
2.3987212e-10
2.6138025e-10
2.8475e-10
3.1018033e-10
3.3784175e-10
3.6789061e-10
4.0056136e-10
4.3607429e-10
4.7465676e-10
5.1657878e-10
5.6211746e-10
6.1157834e-10
6.6527406e-10
7.2358119e-10
7.8686924e-10
8.555503e-10
9.3009334e-10
1.0109673e-09
1.0987122e-09
1.1938823e-09
1.2970744e-09
1.4089778e-09
1.5302959e-09
1.6617889e-09
1.8042954e-09
1.9587176e-09
2.1260078e-09
2.3072175e-09
2.5034836e-09
2.7160354e-09
2.9461447e-09
3.1952467e-09
3.464848e-09
3.7566252e-09
4.0722981e-09
4.413792e-09
4.7831605e-09
5.1826063e-09
5.614524e-09
6.0814429e-09
6.5861485e-09
7.1315824e-09
7.7209421e-09
8.3576523e-09
9.045408e-09
9.788188e-09
1.0590242e-08
1.145618e-08
1.2390906e-08
1.339972e-08
1.4488336e-08
1.5662842e-08
1.6929789e-08
1.8296262e-08
1.9769786e-08
2.1358517e-08
2.3071145e-08
2.4917028e-08
2.69062e-08
2.9049403e-08
3.1358205e-08
3.3844934e-08
3.6522884e-08
3.9406238e-08
4.2510237e-08
4.5851195e-08
4.944657e-08
5.3315098e-08
5.747679e-08
6.1953124e-08
6.6767015e-08
7.1943049e-08
7.7507522e-08
8.3488558e-08
8.9916178e-08
9.6822596e-08
1.0424215e-07
1.1221162e-07
1.2077024e-07
1.2995998e-07
1.3982566e-07
1.5041515e-07
1.617796e-07
1.7397355e-07
1.870553e-07
2.0108701e-07
2.1613504e-07
2.3227016e-07
2.4956788e-07
2.6810869e-07
2.8797843e-07
3.0926864e-07
3.3207683e-07
3.565069e-07
3.8266957e-07
4.1068277e-07
4.4067205e-07
4.7277113e-07
5.0712234e-07
5.4387718e-07
5.8319681e-07
6.2525275e-07
6.7022734e-07
7.1831463e-07
7.6972078e-07
8.2466506e-07
8.8338049e-07
9.461146e-07
1.0131305e-06
1.0847074e-06
1.1611421e-06
1.2427496e-06
1.3298642e-06
1.4228407e-06
1.5220558e-06
1.6279086e-06
1.740823e-06
1.8612482e-06
1.9896604e-06
2.1265645e-06
2.2724953e-06
2.4280199e-06
2.5937386e-06
2.7702874e-06
2.9583396e-06
3.1586081e-06
3.3718474e-06
3.5988558e-06
3.8404781e-06
4.0976078e-06
4.3711896e-06
4.6622225e-06
4.9717627e-06
5.300926e-06
5.6508917e-06
6.0229054e-06
6.418283e-06
6.8384136e-06
7.2847639e-06
7.7588819e-06
8.262401e-06
8.7970449e-06
9.3646312e-06
9.967077e-06
1.0606403e-05
1.1284741e-05
1.2004335e-05
1.2767551e-05
1.3576881e-05
1.4434949e-05
1.5344519e-05
1.6308499e-05
1.7329952e-05
1.8412098e-05
1.9558327e-05
2.0772202e-05
2.2057471e-05
2.3418075e-05
2.4858154e-05
2.6382059e-05
2.7994363e-05
2.9699865e-05
3.1503608e-05
3.3410885e-05
3.542725e-05
3.7558533e-05
3.9810851e-05
4.2190616e-05
4.4704556e-05
4.7359721e-05
5.0163503e-05
5.3123646e-05
5.6248262e-05
5.9545851e-05
6.302531e-05
6.6695954e-05
7.0567532e-05
7.4650246e-05
7.8954769e-05
8.3492261e-05
8.8274394e-05
9.3313368e-05
9.8621933e-05
0.00010421341
0.00011010172
0.00011630139
0.0001228276
0.00012969619
0.00013692368
0.00014452732
0.00015252509
0.00016093577
0.00016977888
0.00017907483
0.00018884484
0.00019911104
0.00020989646
0.00022122509
0.0002331219
0.00024561289
0.00025872507
0.00027248658
0.00028692665
0.00030207567
0.00031796524
0.00033462819
0.0003520986
0.00037041188
0.0003896048
0.00040971552
0.00043078361
0.00045285015
0.00047595773
0.00050015051
0.00052547426
0.00055197642
0.00057970611
0.00060871423
0.00063905346
0.00067077835
0.00070394531
0.00073861273
0.000774841
0.00081269253
0.00085223186
0.00089352564
0.00093664278
0.00098165439
0.0010286339
0.0010776572
0.0011288023
0.0011821501
0.0012377837
0.0012957889
0.001356254
0.0014192702
0.0014849313
0.0015533338
0.0016245773
0.0016987639
0.001775999
0.0018563909
0.0019400508
0.0020270931
0.0021176355
0.0022117985
0.0023097062
0.0024114859
0.002517268
0.0026271867
0.0027413793
0.0028599866
0.002983153
0.0031110264
0.0032437582
0.0033815036
0.0035244213
0.0036726736
0.0038264268
0.0039858506
0.0041511187
0.0043224086
0.0044999013
0.0046837821
0.0048742396
0.0050714668
0.0052756601
0.00548702
0.0057057509
0.005932061
0.0061661624
0.006408271
0.0066586067
0.006917393
0.0071848576
0.0074612316
0.0077467501
0.0080416521
0.0083461801
0.0086605803
0.0089851027
0.0093200008
0.0096655318
0.010021956
0.010389538
0.010768545
0.011159248
0.01156192
0.01197684
0.012404288
0.012844546
0.013297903
0.013764646
0.014245067
0.014739463
0.015248129
0.015771367
0.016309477
0.016862765
0.017431536
0.018016101
0.018616768
0.01923385
0.019867662
0.020518517
0.021186734
0.02187263
0.022576524
0.023298736
0.024039586
0.024799396
0.025578487
0.026377181
0.027195801
0.028034668
0.028894105
0.029774432
0.030675971
0.031599042
0.032543964
0.033511055
0.034500632
0.03551301
0.036548505
0.037607427
0.038690086
0.039796792
0.040927848
0.042083559
0.043264226
0.044470144
0.04570161
0.046958913
0.048242343
0.049552184
0.050888715
0.052252214
0.053642954
0.055061202
0.056507222
0.057981274
0.059483613
0.061014487
0.062574142
0.064162817
0.065780746
0.067428158
0.069105275
0.070812315
0.072549489
0.074317002
0.076115054
0.077943836
0.079803537
0.081694334
0.083616403
0.085569909
0.087555012
0.089571865
0.091620615
0.093701399
0.09581435
0.097959592
0.10013724
0.10234741
0.1045902
0.1068657
0.10917401
0.1115152
0.11388935
0.11629651
0.11873675
0.12121012
0.12371666
0.1262564
0.12882936
0.13143558
0.13407505
0.13674778
0.13945377
0.142193
0.14496545
0.14777111
0.15060992
0.15348185
0.15638685
0.15932486
0.16229581
0.16529964
0.16833626
0.17140558
0.17450752
0.17764196
0.1808088
0.18400792
0.18723921
0.19050252
0.19379773
0.19712469
0.20048324
0.20387324
0.20729452
0.21074691
0.21423023
0.21774431
0.22128894
0.22486394
0.22846911
0.23210424
0.23576912
0.23946353
0.24318724
0.24694003
0.25072167
0.2545319
0.2583705
0.2622372
0.26613175
0.2700539
0.27400337
0.2779799
0.28198322
0.28601304
0.29006908
0.29415106
0.29825868
0.30239164
0.30654966
0.31073242
0.31493961
0.31917094
0.32342607
0.3277047
0.33200649
0.33633114
0.3406783
0.34504765
0.34943884
0.35385156
0.35828545
0.36274016
0.36721537
0.37171071
0.37622583
0.38076038
0.38531401
0.38988636
0.39447706
0.39908575
0.40371207
0.40835564
0.41301611
0.4176931
0.42238623
0.42709513
0.43181943
0.43655874
0.44131268
0.44608088
0.45086294
0.4556585
0.46046715
0.46528851
0.47012219
0.4749678
0.47982495
0.48469325
0.48957231
0.49446172
0.49936109
0.50427002
0.50918812
0.51411499
0.51905022
0.52399342
0.52894418
0.5339021
0.53886677
0.54383779
0.54881476
0.55379727
0.55878491
0.56377728
0.56877396
0.57377455
0.57877863
0.5837858
0.58879565
0.59380776
0.59882172
0.60383712
0.60885355
0.61387059
0.61888783
0.62390485
0.62892124
0.63393658
0.63895046
0.64396246
0.64897217
0.65397915
0.65898301
0.66398331
0.66897964
0.67397157
0.6789587
0.68394061
0.68891686
0.69388705
0.69885075
0.70380754
0.708757
0.71369872
0.71863227
0.72355722
0.72847317
0.73337969
0.73827636
0.74316276
0.74803846
0.75290305
0.75775611
0.76259721
0.76742594
0.77224188
0.77704461
0.7818337
0.78660875
0.79136932
0.79611501
0.8008454
0.80556006
0.81025859
0.81494057
0.81960558
0.82425321
0.82888305
0.83349469
0.83808771
0.8426617
0.84721627
0.85175099
0.85626547
0.8607593
0.86523207
0.86968339
0.87411286
0.87852008
0.88290465
0.88726619
0.89160429
0.89591858
0.90020865
0.90447415
0.90871466
0.91292984
0.91711928
0.92128263
0.92541951
0.92952956
0.93361242
0.93766771
0.94169511
0.94569423
0.94966476
0.95360633
0.95751861
0.96140127
0.96525397
0.9690764
0.97286823
0.97662915
0.98035884
0.98405702
0.98772337
0.99135761
0.99495946
0.99852862
1.0020648
1.0055678
1.0090374
1.0124732
1.015875
1.0192426
1.0225758
1.0258743
1.0291379
1.0323665
1.0355597
1.0387175
1.0418397
1.044926
1.0479763
1.0509905
1.0539684
1.0569099
1.0598149
1.0626831
1.0655146
1.0683093
1.071067
1.0737876
1.0764712
1.0791176
1.0817269
1.0842989
1.0868337
1.0893312
1.0917915
1.0942145
1.0966003
1.0989489
1.1012604
1.1035348
1.1057722
1.1079726
1.1101361
1.112263
1.1143532
1.1164068
1.1184241
1.1204052
1.1223502
1.1242593
1.1261326
1.1279704
1.1297729
1.1315403
1.1332727
1.1349705
1.1366339
1.138263
1.1398583
1.14142
1.1429482
1.1444435
1.1459059
1.1473359
1.1487338
1.1500998
1.1514344
1.1527379
1.1540105
1.1552527
1.1564649
1.1576474
1.1588005
1.1599248
1.1610204
1.162088
1.1631278
1.1641402
1.1651257
1.1660847
1.1670176
1.1679248
1.1688067
1.1696638
1.1704965
1.1713052
1.1720904
1.1728524
1.1735918
1.174309
1.1750043
1.1756783
1.1763313
1.1769639
1.1775764
1.1781693
1.1787429
1.1792979
1.1798344
1.1803531
1.1808543
1.1813384
1.1818059
1.1822571
1.1826925
1.1831125
1.1835174
1.1839078
1.1842839
1.1846461
1.1849949
1.1853307
1.1856537
1.1859644
1.1862631
1.1865502
1.1868261
1.187091
1.1873453
1.1875894
1.1878235
1.1880481
1.1882633
1.1884696
1.1886672
1.1888564
1.1890375
1.1892107
1.1893765
1.1895349
1.1896863
1.189831
1.1899692
1.1901011
1.1902269
1.190347
1.1904615
1.1905706
1.1906746
1.1907736
1.1908679
1.1909576
1.1910429
1.1911241
1.1912012
1.1912745
1.1913441
1.1914102
1.1914729
1.1915324
1.1915889
1.1916424
1.191693
1.191741
1.1917865
1.1918295
1.1918701
1.1919086
1.1919449
1.1919793
1.1920117
1.1920423
1.1920712
1.1920984
1.1921241
1.1921483
1.1921711
1.1921926
1.1922128
1.1922317
1.1922496
1.1922664
1.1922821
1.1922969
1.1923108
1.1923238
1.192336
1.1923475
1.1923582
1.1923682
1.1923776
1.1923863
1.1923945
1.1924022
1.1924093
1.192416
1.1924222
1.192428
1.1924334
1.1924384
1.192443
1.1924474
1.1924514
1.1924552
1.1924587
1.1924619
1.1924649
1.1924677
1.1924703
1.1924727
1.1924749
1.192477
1.192479
1.1924808
1.1924825
1.1924841
1.1924855
1.1924869
1.1924883
1.1924895
1.1924907
1.1924918
1.1924929
1.1924939
1.1924949
1.1924959
1.1924968
1.1924977
1.1924986
1.1924996
1.1925005
1.1925013
1.1925022
1.1925031
1.1925039
1.1925046
1.1925053
1.192506
1.1925066
1.192507
1.1925075
1.1925079
1.1925083
1.1925084
1.1925087
1.1925093
1.19251
1.1925105
1.1925112
1.1925119
1.1925126
1.1925134
1.1925142
1.192515
1.1925158
1.1925166
1.1925175
1.1925185
1.1925194
1.1925203
1.1925212
1.1925222
1.1925232
1.1925242
1.1925251
1.1925261
1.1925271
1.192528
1.1925288
1.1925297
1.1925306
1.1925314
1.1925322
1.192533
1.1925338
1.1925345
1.1925352
1.1925359
1.1925366
1.1925372
1.1925377
1.1925382
1.1925386
1.1925389
1.1925393
1.1925397
1.1925401
1.1925404
1.1925409
1.1925413
1.1925417
1.1925422
1.1925427
1.1925432
1.1925437
1.1925442
1.1925447
1.1925452
1.1925457
1.1925461
1.1925466
1.1925471
1.1925475
1.1925479
1.1925484
1.192549
1.1925495
1.1925498
1.1925502
1.1925507
1.1925512
1.1925516
1.192552
1.1925525
1.1925529
1.1925533
1.1925537
1.1925541
1.1925546
1.1925551
1.1925555
1.1925559
1.1925563
1.1925568
1.1925572
1.1925576
1.192558
1.1925584
1.1925588
1.1925591
1.1925595
1.1925599
1.1925603
1.1925606
1.192561
1.1925614
1.1925618
1.1925621
1.1925625
1.1925629
1.1925633
1.1925637
1.1925641
1.1925645
1.1925649
1.1925653
1.1925657
1.1925661
1.1925665
1.1925668
1.1925672
1.1925675
1.1925678
1.1925681
1.1925683
1.1925686
1.1925688
1.1925689
1.1925688
1.1925687
1.1925686
1.1925686
1.1925686
1.1925686
1.1925687
1.1925688
1.1925689
1.1925691
1.1925694
1.1925698
1.1925702
1.1925705
1.1925709
1.1925713
1.1925719
1.1925724
1.192573
1.1925735
1.192574
1.1925744
1.1925748
1.1925752
1.1925756
1.1925759
1.1925761
1.1925764
1.1925767
1.1925769
1.1925771
1.1925772
1.1925774
1.1925776
1.1925778
1.192578
1.1925781
1.1925783
1.1925785
1.1925786
1.1925788
1.192579
1.1925791
1.1925793
1.1925794
1.1925796
1.1925797
1.1925799
1.19258
1.1925801
1.1925801
1.1925802
1.1925802
1.1925803
1.1925803
1.1925803
1.1925803
1.1925803
1.1925803
1.1925803
1.1925802
1.1925802
1.1925801
1.1925799
1.1925798
1.1925797
1.1925796
1.1925795
1.1925794
1.1925793
1.1925792
1.1925792
1.1925791
1.1925791
1.1925791
1.1925791
1.1925791
1.1925791
1.1925792
1.1925793
1.1925794
1.1925795
1.1925796
1.1925797
1.1925797
1.1925798
1.1925799
1.1925799
1.1925799
1.1925799
1.1925799
1.1925799
1.1925799
1.1925799
1.1925798
1.1925797
1.1925797
1.1925796
1.1925795
1.1925794
1.1925793
1.1925792
1.1925791
1.192579
1.1925789
1.1925788
1.1925787
1.1925786
1.1925785
1.1925784
1.1925782
1.1925781
1.192578
1.1925778
1.1925777
1.1925775
1.1925774
1.1925772
1.1925771
1.1925769
1.1925767
1.1925766
1.1925764
1.1925762
1.1925761
1.1925759
1.1925758
1.1925756
1.1925755
1.1925753
1.1925752
1.1925751
1.1925749
1.1925748
1.1925747
1.1925746
1.1925745
1.1925744
1.1925743
1.1925742
1.192574
1.1925739
1.1925738
1.1925737
1.1925736
1.1925735
1.1925733
1.1925732
1.1925731
1.1925729
1.1925728
1.1925726
1.1925724
1.1925723
1.1925721
1.1925719
1.1925717
1.1925715
1.1925713
1.1925711
1.1925709
1.1925707
1.1925705
1.1925703
1.1925701
1.1925699
1.1925697
1.1925695
1.1925693
1.1925691
1.1925689
1.1925688
1.1925686
1.1925684
1.1925682
1.1925681
1.1925679
1.1925677
1.1925676
1.1925674
1.1925673
1.1925671
1.192567
1.1925669
1.1925667
1.1925666
1.1925664
1.1925663
1.1925662
1.192566
1.1925659
1.1925658
1.1925656
1.1925655
1.1925654
1.1925652
1.1925651
1.1925649
1.1925648
1.1925646
1.1925645
1.1925644
1.1925642
1.192564
1.1925639
1.1925637
1.1925636
1.1925634
1.1925633
1.1925631
1.192563
1.1925628
1.1925627
1.1925625
1.1925624
1.1925622
1.1925621
1.1925619
1.1925618
1.1925616
1.1925615
1.1925614
1.1925612
1.1925611
1.1925609
1.1925608
1.1925607
1.1925605
1.1925604
1.1925603
1.1925601
1.19256
1.1925599
1.1925598
1.1925597
1.1925595
1.1925594
1.1925593
1.1925592
1.1925591
1.1925589
1.1925588
1.1925587
1.1925586
1.1925585
1.1925584
1.1925583
1.1925582
1.1925581
1.192558
1.1925579
1.1925578
1.1925577
1.1925576
1.1925576
1.1925575
1.1925574
1.1925573
1.1925572
1.1925571
1.192557
1.1925569
1.1925568
1.1925567
1.1925566
1.1925565
1.1925564
1.1925563
1.1925563
1.1925562
1.1925561
1.192556
1.1925558
1.1925557
1.1925556
1.1925555
1.1925554
1.1925553
1.1925551
1.192555
1.1925549
1.1925548
1.1925547
1.1925545
1.1925544
1.1925543
1.1925541
1.192554
1.1925539
1.1925537
1.1925536
1.1925534
1.1925533
1.1925531
1.192553
1.1925528
1.1925527
1.1925526
1.1925524
1.1925523
1.1925522
1.192552
1.1925519
1.1925518
1.1925516
1.1925515
1.1925514
1.1925512
1.1925511
1.1925509
1.1925508
1.1925507
1.1925506
1.1925504
1.1925503
1.1925502
1.1925501
1.1925499
1.1925498
1.1925497
1.1925496
1.1925494
1.1925493
1.1925492
1.1925491
1.192549
1.1925489
1.1925487
1.1925486
1.1925485
1.1925484
1.1925483
1.1925482
1.192548
1.1925479
1.1925478
1.1925477
1.1925476
1.1925475
1.1925473
1.1925472
1.1925471
1.192547
1.1925469
1.1925468
1.1925467
1.1925466
1.1925465
1.1925464
1.1925463
1.1925461
1.192546
1.1925459
1.1925458
1.1925457
1.1925456
1.1925455
1.1925454
1.1925453
1.1925452
1.1925451
1.192545
1.192545
1.1925449
1.1925448
1.1925447
1.1925446
1.1925445
1.1925444
1.1925443
1.1925442
1.1925442
1.1925441
1.192544
1.1925439
1.1925438
1.1925437
1.1925436
1.1925435
1.1925434
1.1925434
1.1925433
1.1925432
1.1925431
1.192543
1.192543
1.1925429
1.1925428
1.1925427
1.1925426
1.1925425
1.1925425
1.1925424
1.1925423
1.1925422
1.1925422
1.1925421
1.192542
1.1925419
1.1925418
1.1925418
1.1925417
1.1925416
1.1925415
1.1925415
1.1925414
1.1925413
1.1925412
1.1925412
1.1925411
1.192541
1.1925409
1.1925409
1.1925408
1.1925407
1.1925406
1.1925406
1.1925405
1.1925404
1.1925403
1.1925402
1.1925401
1.1925401
1.19254
1.1925399
1.1925398
1.1925397
1.1925396
1.1925395
1.1925394
1.1925393
1.1925392
1.1925392
1.1925391
1.192539
1.1925389
1.1925388
1.1925387
1.1925386
1.1925385
1.1925384
1.1925383
1.1925382
1.1925381
1.192538
1.1925379
1.1925378
1.1925377
1.1925375
1.1925374
1.1925373
1.1925372
1.1925371
1.192537
1.1925369
1.1925368
1.1925367
1.1925366
1.1925365
1.1925363
1.1925362
1.1925361
1.192536
1.1925359
1.1925358
1.1925357
1.1925356
1.1925355
1.1925354
1.1925353
1.1925352
1.1925351
1.192535
1.1925349
1.1925348
1.1925347
1.1925346
1.1925345
1.1925344
1.1925343
1.1925342
1.1925341
1.192534
1.1925339
1.1925338
1.1925337
1.1925336
1.1925335
1.1925334
1.1925334
1.1925333
1.1925332
1.1925331
1.192533
1.1925329
1.1925329
1.1925328
1.1925327
1.1925326
1.1925325
1.1925324
1.1925323
1.1925323
1.1925322
1.1925321
1.192532
1.1925319
1.1925319
1.1925318
1.1925317
1.1925316
1.1925315
1.1925315
1.1925314
1.1925313
1.1925312
1.1925311
1.1925311
1.192531
1.1925309
1.1925308
1.1925307
1.1925306
1.1925306
1.1925305
1.1925304
1.1925303
1.1925303
1.1925302
1.1925301
1.19253
1.1925299
1.1925299
1.1925298
1.1925297
1.1925296
1.1925295
1.1925295
1.1925294
1.1925293
1.1925292
1.1925292
1.1925291
1.192529
1.1925289
1.1925289
1.1925288
1.1925287
1.1925286
1.1925286
1.1925285
1.1925284
1.1925284
1.1925283
1.1925282
1.1925282
1.1925281
1.192528
1.1925279
1.1925279
1.1925278
1.1925277
1.1925277
1.1925276
1.1925275
1.1925275
1.1925274
1.1925273
1.1925273
1.1925272
1.1925271
1.1925271
1.192527
1.1925269
1.1925269
1.1925268
1.1925267
1.1925267
1.1925266
1.1925265
1.1925264
1.1925264
1.1925263
1.1925262
1.1925261
1.192526
1.192526
1.1925259
1.1925258
1.1925257
1.1925256
1.1925255
1.1925255
1.1925254
1.1925253
1.1925252
1.1925251
1.192525
1.1925249
1.1925248
1.1925247
1.1925246
1.1925245
1.1925244
1.1925243
1.1925242
1.1925241
1.192524
1.1925239
1.1925238
1.1925237
1.1925235
1.1925234
1.1925233
1.1925232
1.1925231
1.192523
1.1925229
1.1925228
1.1925226
1.1925225
1.1925224
1.1925223
1.1925222
1.1925221
1.192522
1.1925219
1.1925218
1.1925217
1.1925216
1.1925215
1.1925213
1.1925212
1.1925211
1.192521
1.192521
1.1925209
1.1925208
1.1925207
1.1925206
1.1925205
1.1925204
1.1925203
1.1925202
1.1925201
1.19252
1.19252
1.1925199
1.1925198
1.1925197
1.1925196
1.1925195
1.1925195
1.1925194
1.1925193
1.1925192
1.1925192
1.1925191
1.192519
1.1925189
1.1925189
1.1925188
1.1925187
1.1925186
1.1925186
1.1925185
1.1925184
1.1925184
1.1925183
1.1925182
1.1925181
1.1925181
1.192518
1.1925179
1.1925178
1.1925178
1.1925177
1.1925176
1.1925175
1.1925175
1.1925174
1.1925173
1.1925172
1.1925171
1.1925171
1.192517
1.1925169
1.1925168
1.1925168
1.1925167
1.1925166
1.1925165
1.1925164
1.1925163
1.1925162
1.1925162
1.1925161
1.192516
1.1925159
1.1925158
1.1925157
1.1925156
1.1925156
1.1925155
1.1925154
1.1925153
1.1925152
1.1925152
1.1925151
1.192515
1.1925149
1.1925148
1.1925148
1.1925147
1.1925146
1.1925145
1.1925145
1.1925144
1.1925143
1.1925142
1.1925142
1.1925141
1.192514
1.1925139
1.1925139
1.1925138
1.1925137
1.1925137
1.1925136
1.1925136
1.1925135
1.1925135
1.1925134
1.1925133
1.1925133
1.1925132
1.1925131
1.1925131
1.192513
1.192513
1.1925129
1.1925128
1.1925128
1.1925127
1.1925127
1.1925126
1.1925126
1.1925125
1.1925125
1.1925124
1.1925123
1.1925123
1.1925122
1.1925121
1.1925121
1.192512
1.1925119
1.1925119
1.1925118
1.1925118
1.1925117
1.1925116
1.1925116
1.1925115
1.1925114
1.1925113
1.1925113
1.1925112
1.1925111
1.1925111
1.192511
1.1925109
1.1925108
1.1925108
1.1925107
1.1925106
1.1925105
1.1925104
1.1925104
1.1925103
1.1925102
1.1925101
1.19251
1.1925099
1.1925098
1.1925098
1.1925097
1.1925096
1.1925095
1.1925094
1.1925093
1.1925092
1.1925091
1.192509
1.1925089
1.1925089
1.1925088
1.1925087
1.1925086
1.1925085
1.1925084
1.1925083
1.1925082
1.1925081
1.192508
1.1925079
1.1925078
1.1925077
1.1925076
1.1925075
1.1925075
1.1925074
1.1925073
1.1925072
1.1925071
1.192507
1.1925069
1.1925068
1.1925067
1.1925066
1.1925065
1.1925064
1.1925063
1.1925062
1.1925061
1.192506
1.192506
1.1925059
1.1925058
1.1925057
1.1925056
1.1925055
1.1925054
1.1925053
1.1925052
1.1925051
1.192505
1.1925049
1.1925048
1.1925047
1.1925046
1.1925045
1.1925044
1.1925044
1.1925043
1.1925042
1.1925041
1.192504
1.1925039
1.1925038
1.1925037
1.1925036
1.1925035
1.1925034
1.1925033
1.1925032
1.1925031
1.192503
1.1925029
1.1925028
1.1925027
1.1925026
1.1925025
1.1925024
1.1925023
1.1925022
1.1925021
1.192502
1.1925019
1.1925018
1.1925017
1.1925016
1.1925015
1.1925014
1.1925013
1.1925012
1.1925011
1.192501
1.1925009
1.1925008
1.1925007
1.1925006
1.1925005
1.1925004
1.1925003
1.1925002
1.1925001
1.1925
1.1924999
1.1924998
1.1924997
1.1924995
1.1924994
1.1924993
1.1924992
1.1924991
1.192499
1.1924989
1.1924988
1.1924986
1.1924985
1.1924984
1.1924983
1.1924982
1.1924981
1.192498
1.1924979
1.1924978
1.1924977
1.1924976
1.1924974
1.1924973
1.1924972
1.1924971
1.192497
1.1924969
1.1924968
1.1924966
1.1924965
1.1924964
1.1924963
1.1924962
1.1924961
1.192496
1.1924959
1.1924958
1.1924957
1.1924956
1.1924955
1.1924954
1.1924952
1.1924951
1.192495
1.1924949
1.1924948
1.1924947
1.1924946
1.1924945
1.1924944
1.1924943
1.1924942
1.1924941
1.192494
1.1924939
1.1924938
1.1924937
1.1924936
1.1924935
1.1924935
1.1924934
1.1924933
1.1924932
1.1924931
1.192493
1.1924929
1.1924928
1.1924927
1.1924926
1.1924925
1.1924924
1.1924923
1.1924922
1.1924921
1.192492
1.1924919
1.1924918
1.1924917
1.1924917
1.1924916
1.1924915
1.1924914
1.1924913
1.1924912
1.1924911
1.192491
1.1924909
1.1924908
1.1924907
1.1924906
1.1924905
1.1924904
1.1924903
1.1924902
1.19249
1.1924899
1.1924898
1.1924897
1.1924896
1.1924895
1.1924894
1.1924893
1.1924892
1.1924891
1.192489
1.1924889
1.1924887
1.1924886
1.1924885
1.1924884
1.1924883
1.1924882
1.1924881
1.192488
1.1924878
1.1924877
1.1924876
1.1924874
1.1924873
1.1924872
1.1924871
1.1924869
1.1924868
1.1924867
1.1924866
1.1924864
1.1924863
1.1924862
1.192486
1.1924859
1.1924858
1.1924856
1.1924855
1.1924854
1.1924852
1.1924851
1.192485
1.1924848
1.1924847
1.1924845
1.1924844
1.1924843
1.1924841
1.192484
1.1924839
1.1924837
1.1924836
1.1924834
1.1924833
1.1924831
1.192483
1.1924828
1.1924827
1.1924825
1.1924824
1.1924822
1.1924821
1.1924819
1.1924818
1.1924816
1.1924815
1.1924813
1.1924811
1.192481
1.1924808
1.1924807
1.1924805
1.1924804
1.1924802
1.1924801
1.1924799
1.1924797
1.1924796
1.1924794
1.1924792
1.1924791
1.1924789
1.1924787
1.1924786
1.1924784
1.1924782
1.1924781
1.1924779
1.1924777
1.1924775
1.1924774
1.1924772
1.192477
1.1924768
1.1924766
1.1924765
1.1924763
1.1924761
1.192476
1.1924758
1.1924757
1.1924755
1.1924753
1.1924751
1.1924749
1.1924747
1.1924745
1.1924744
1.1924742
1.192474
1.1924738
1.1924736
1.1924734
1.1924732
1.192473
1.1924728
1.1924727
1.1924725
1.1924723
1.1924721
1.1924718
1.1924716
1.1924714
1.1924712
1.192471
1.1924708
1.1924706
1.1924704
1.1924702
1.19247
1.1924698
1.1924696
1.1924694
1.1924692
1.1924689
1.1924687
1.1924685
1.1924682
1.192468
1.1924678
1.1924676
1.1924673
1.1924671
1.1924669
1.1924667
1.1924664
1.1924662
1.192466
1.1924657
1.1924655
1.1924652
1.192465
1.1924647
1.1924645
1.1924642
1.1924639
1.1924637
1.1924634
1.1924631
1.1924629
1.1924626
1.1924623
1.192462
1.1924617
1.1924614
1.1924612
1.1924609
1.1924606
1.1924603
1.19246
1.1924597
1.1924594
1.1924591
1.1924588
1.1924585
1.1924582
1.1924579
1.1924576
1.1924573
1.1924569
1.1924566
1.1924563
1.1924559
1.1924556
1.1924552
1.1924548
1.1924544
1.192454
1.1924537
1.1924533
1.1924529
1.1924525
1.1924521
1.1924518
1.1924514
1.192451
1.1924506
1.1924501
1.1924497
1.1924493
1.1924488
1.1924484
1.1924479
1.1924475
1.192447
1.1924465
1.1924461
1.1924456
1.1924451
1.1924446
1.1924441
1.1924436
1.1924431
1.1924426
1.1924421
1.1924415
1.192441
1.1924405
1.19244
1.1924394
1.1924389
1.1924384
1.1924378
1.1924373
1.1924367
1.1924362
1.1924356
1.1924351
1.1924346
1.1924341
1.1924336
1.1924331
1.1924327
1.1924323
1.1924319
1.1924315
1.1924311
1.1924308
1.1924305
1.1924303
1.1924301
1.1924299
1.1924298
1.1924297
1.1924296
1.1924295
1.1924295
1.1924295
1.1924295
1.1924296
1.1924297
1.1924299
1.19243
1.1924301
1.1924302
1.1924303
1.1924303
1.1924303
1.1924302
1.1924302
1.1924301
1.1924299
1.1924296
1.192429
1.1924283
1.1924275
1.1924265
1.1924256
1.1924245
1.1924234
1.1924223
1.1924212
1.19242
1.1924189
1.1924177
1.1924164
1.1924151
1.1924138
1.1924125
1.1924112
1.19241
1.1924089
1.192408
1.1924072
1.1924066
1.1924061
1.1924058
1.1924056
1.1924054
1.1924053
1.1924053
1.1924051
1.1924049
1.1924044
1.1924036
1.1924023
1.1924003
1.1923968
1.1923898
1.192374
1.1923357
1.1922392
1.1919941
1.1913706
1.1897995
1.1864048
1.1821658
1.1773263
1.172124
1.1668016
1.1615815
1.156647
1.1521337
1.1481268
1.1446653
1.1417499
1.1393518
1.1374228
1.1359038
1.1347316
1.1338445
1.1331858
1.1327057
1.1323622
1.1321209
1.1319548
1.1318428
1.1317692
1.1317222
1.1316935
1.131677
1.1316685
1.131665
1.1316642
1.1316643
1.131667
1.1316725
1.1316774
1.1316818
1.1316857
1.1316891
1.1316922
1.1316949
1.1316973
1.1316995
1.1317015
1.1317034
1.1317051
1.1317067
1.1317083
1.1317098
1.1317112
1.1317126
1.1317139
1.1317151
1.1317163
1.1317175
1.1317187