/*--------------------------------*- C++ -*----------------------------------*\
| =========                 |                                                 |
| \\      /  F ield         | OpenFOAM: The Open Source CFD Toolbox           |
|  \\    /   O peration     | Version:  4.x                                   |
|   \\  /    A nd           | Web:      www.OpenFOAM.org                      |
|    \\/     M anipulation  |                                                 |
\*---------------------------------------------------------------------------*/
FoamFile
{
    version     2.0;
    format      ascii;
    class       volScalarField;
    location    "0.0003";
    object      k;
}
// * * * * * * * * * * * * * * * * * * * * * * * * * * * * * * * * * * * * * //

dimensions      [0 2 -2 0 0 0 0];

internalField   nonuniform List<scalar> 
23120
(
965.94
943.439
934.411
939.204
946.007
961.3
962.564
944.501
952.876
953.958
962.148
963.845
963.722
960.876
947.443
956.829
961.226
963.248
964.165
964.572
964.741
964.788
964.752
964.625
964.359
963.882
963.103
961.95
960.445
958.525
954.138
950.725
965.676
942.999
933.135
932.49
934.076
936.121
936.113
932.499
933.054
934.114
935.605
936.401
936.45
935.353
933.235
934.077
935.277
936.164
936.705
936.998
937.135
937.171
937.131
937.005
936.764
936.368
935.782
934.999
934.073
933.118
932.223
931.525
965.473
942.647
932.292
929.012
928.304
928.244
928.08
927.349
927.189
927.429
927.808
928.086
928.15
927.91
927.559
927.606
927.831
928.059
928.229
928.333
928.385
928.398
928.379
928.325
928.227
928.076
927.867
927.608
927.318
927.034
926.789
926.608
965.386
942.489
931.96
927.935
926.597
926.18
926.022
925.855
925.783
925.82
925.905
925.978
926.004
925.966
925.909
925.904
925.938
925.984
926.024
926.051
926.065
926.068
926.062
926.046
926.019
925.978
925.926
925.863
925.796
925.732
925.678
925.637
965.359
942.437
931.862
927.674
926.2
925.722
925.57
925.507
925.482
925.484
925.5
925.515
925.523
925.518
925.509
925.507
925.511
925.519
925.527
925.532
925.535
925.536
925.535
925.531
925.525
925.517
925.506
925.493
925.481
925.469
925.458
925.45
965.352
942.424
931.838
927.62
926.122
925.634
925.484
925.438
925.424
925.421
925.423
925.426
925.427
925.427
925.426
925.425
925.425
925.427
925.428
925.429
925.43
925.43
925.429
925.429
925.428
925.426
925.424
925.422
925.42
925.418
925.416
925.415
965.351
942.421
931.833
927.611
926.108
925.618
925.469
925.426
925.413
925.41
925.41
925.41
925.41
925.41
925.41
925.41
925.41
925.41
925.41
925.411
925.411
925.411
925.411
925.411
925.41
925.41
925.41
925.409
925.409
925.409
925.409
925.408
965.35
942.422
931.835
927.611
926.107
925.616
925.467
925.424
925.412
925.409
925.408
925.408
925.408
925.408
925.408
925.408
925.408
925.408
925.408
925.408
925.408
925.408
925.408
925.408
925.408
925.408
925.407
925.407
925.407
925.407
925.407
925.407
965.278
942.353
931.792
927.589
926.098
925.613
925.466
925.423
925.411
925.408
925.407
925.407
925.407
925.407
925.407
925.407
925.407
925.407
925.407
925.407
925.407
925.407
925.407
925.407
925.407
925.407
925.407
925.407
925.407
925.407
925.407
925.407
965.138
942.222
931.711
927.551
926.082
925.607
925.463
925.422
925.411
925.408
925.407
925.407
925.407
925.407
925.407
925.407
925.407
925.407
925.407
925.407
925.407
925.407
925.407
925.407
925.407
925.407
925.407
925.407
925.407
925.407
925.407
925.407
965.006
942.099
931.637
927.515
926.067
925.601
925.462
925.422
925.411
925.408
925.407
925.407
925.407
925.407
925.407
925.407
925.407
925.407
925.407
925.407
925.407
925.407
925.407
925.407
925.407
925.407
925.407
925.407
925.407
925.407
925.407
925.407
964.881
941.983
931.568
927.483
926.054
925.597
925.46
925.421
925.411
925.408
925.407
925.407
925.407
925.407
925.407
925.407
925.407
925.407
925.407
925.407
925.407
925.407
925.407
925.407
925.407
925.407
925.407
925.407
925.407
925.407
925.407
925.407
964.763
941.875
931.503
927.452
926.042
925.592
925.459
925.421
925.411
925.408
925.407
925.407
925.407
925.407
925.407
925.407
925.407
925.407
925.407
925.407
925.407
925.407
925.407
925.407
925.407
925.407
925.407
925.407
925.407
925.407
925.407
925.407
964.651
941.772
931.443
927.424
926.03
925.588
925.457
925.42
925.411
925.408
925.407
925.407
925.407
925.407
925.407
925.407
925.407
925.407
925.407
925.407
925.407
925.407
925.407
925.407
925.407
925.407
925.407
925.407
925.407
925.407
925.407
925.408
964.546
941.676
931.386
927.397
926.019
925.584
925.456
925.42
925.41
925.408
925.407
925.407
925.407
925.407
925.407
925.407
925.407
925.407
925.407
925.407
925.407
925.407
925.407
925.407
925.407
925.407
925.407
925.408
925.408
925.408
925.409
925.41
964.446
941.585
931.332
927.372
926.01
925.581
925.455
925.42
925.41
925.408
925.407
925.407
925.407
925.407
925.407
925.407
925.407
925.407
925.407
925.407
925.407
925.407
925.407
925.407
925.407
925.408
925.408
925.409
925.411
925.412
925.415
925.417
964.352
941.499
931.282
927.349
926
925.577
925.454
925.419
925.41
925.408
925.407
925.407
925.407
925.407
925.407
925.407
925.407
925.407
925.407
925.407
925.407
925.407
925.407
925.408
925.409
925.41
925.412
925.416
925.421
925.427
925.435
925.445
964.263
941.419
931.235
927.327
925.992
925.574
925.453
925.419
925.41
925.408
925.407
925.407
925.407
925.407
925.407
925.407
925.407
925.407
925.407
925.407
925.407
925.408
925.409
925.41
925.414
925.419
925.427
925.439
925.456
925.477
925.503
925.532
964.178
941.343
931.191
927.307
925.984
925.572
925.452
925.419
925.41
925.408
925.407
925.407
925.407
925.407
925.407
925.407
925.407
925.407
925.407
925.408
925.408
925.41
925.413
925.419
925.43
925.448
925.474
925.512
925.562
925.625
925.699
925.779
964.099
941.271
931.149
927.288
925.976
925.569
925.451
925.419
925.41
925.408
925.407
925.407
925.407
925.407
925.407
925.407
925.407
925.407
925.408
925.409
925.411
925.416
925.426
925.446
925.48
925.533
925.611
925.718
925.854
926.019
926.207
926.399
964.023
941.203
931.11
927.27
925.969
925.566
925.45
925.418
925.41
925.408
925.407
925.407
925.407
925.407
925.407
925.407
925.407
925.408
925.409
925.412
925.419
925.434
925.465
925.522
925.617
925.761
925.966
926.237
926.57
926.957
927.377
927.778
963.951
941.139
931.073
927.253
925.963
925.564
925.449
925.418
925.41
925.408
925.407
925.407
925.407
925.407
925.407
925.407
925.408
925.409
925.412
925.421
925.44
925.482
925.566
925.714
925.953
926.309
926.795
927.412
928.137
928.933
929.744
930.457
963.884
941.079
931.038
927.237
925.956
925.562
925.449
925.418
925.41
925.408
925.407
925.407
925.407
925.407
925.407
925.408
925.409
925.412
925.421
925.442
925.492
925.597
925.8
926.15
926.701
927.491
928.528
929.774
931.148
932.544
933.842
934.854
963.82
941.022
931.005
927.222
925.951
925.56
925.448
925.418
925.41
925.408
925.407
925.407
925.407
925.407
925.407
925.408
925.411
925.419
925.439
925.49
925.604
925.844
926.294
927.049
928.198
929.773
931.722
933.892
936.069
938.042
939.652
940.702
963.759
940.968
930.974
927.208
925.945
925.558
925.447
925.417
925.41
925.408
925.407
925.407
925.407
925.407
925.408
925.41
925.416
925.433
925.477
925.586
925.829
926.328
927.239
928.719
930.869
933.635
936.773
939.899
942.637
944.741
946.145
946.787
963.701
940.917
930.945
927.195
925.94
925.556
925.447
925.417
925.41
925.408
925.407
925.407
925.407
925.407
925.409
925.413
925.425
925.459
925.548
925.761
926.235
927.188
928.868
931.483
935.038
939.209
943.401
946.995
949.598
951.149
951.836
951.741
963.647
940.868
930.918
927.182
925.935
925.555
925.446
925.417
925.41
925.408
925.407
925.407
925.407
925.408
925.41
925.417
925.44
925.503
925.667
926.054
926.907
928.572
931.387
935.504
940.615
945.927
950.51
953.742
955.534
956.176
955.98
955.27
963.595
940.823
930.892
927.171
925.931
925.553
925.446
925.417
925.41
925.408
925.407
925.407
925.407
925.408
925.412
925.425
925.465
925.574
925.851
926.505
927.922
930.584
934.845
940.587
946.958
952.7
956.834
959.135
959.967
959.779
959.081
958.181
963.546
940.78
930.867
927.16
925.927
925.552
925.445
925.417
925.41
925.408
925.407
925.407
925.408
925.409
925.416
925.437
925.501
925.675
926.115
927.145
929.32
933.217
939.047
946.183
953.176
958.575
961.786
963.157
963.262
962.8
962.144
961.588
963.5
940.739
930.844
927.149
925.923
925.55
925.445
925.417
925.409
925.408
925.407
925.407
925.408
925.411
925.421
925.453
925.549
925.811
926.465
927.982
931.079
936.328
943.606
951.649
958.598
963.221
965.57
966.292
966.237
966.073
966.01
966.361
963.456
940.7
930.822
927.14
925.919
925.549
925.445
925.417
925.409
925.408
925.407
925.407
925.408
925.413
925.427
925.474
925.611
925.981
926.9
928.997
933.107
939.678
948.097
956.521
963.012
966.861
968.622
969.172
969.507
970.141
971.207
973.01
963.415
940.664
930.801
927.13
925.915
925.548
925.444
925.417
925.409
925.408
925.407
925.408
925.409
925.415
925.435
925.499
925.685
926.182
927.405
930.142
935.273
943.012
952.206
960.626
966.544
969.85
971.374
972.233
973.376
975.263
977.947
981.69
963.375
940.629
930.782
927.122
925.912
925.547
925.444
925.416
925.409
925.408
925.407
925.408
925.41
925.417
925.444
925.528
925.768
926.404
927.957
931.349
937.435
946.126
955.78
963.999
969.435
972.476
974.111
975.638
977.925
981.446
986.17
992.258
963.338
940.597
930.763
927.113
925.909
925.546
925.444
925.416
925.409
925.408
925.407
925.408
925.41
925.42
925.454
925.558
925.857
926.639
928.529
932.549
939.477
948.9
958.791
966.763
971.889
974.9
976.936
979.375
983.067
988.537
995.679
1004.42
963.302
940.565
930.746
927.106
925.906
925.545
925.443
925.416
925.409
925.408
925.407
925.408
925.411
925.423
925.464
925.59
925.946
926.873
929.089
933.679
941.317
951.283
961.28
969.038
974.022
977.191
979.817
983.324
988.615
996.304
1006.21
1017.8
963.268
940.536
930.729
927.098
925.903
925.544
925.443
925.416
925.409
925.408
925.407
925.408
925.412
925.426
925.474
925.62
926.032
927.096
929.611
934.697
942.911
953.271
963.308
970.91
975.882
979.329
982.641
987.298
994.33
1004.49
1017.52
1032.03
963.236
940.507
930.713
927.091
925.9
925.543
925.443
925.416
925.409
925.408
925.407
925.408
925.413
925.429
925.483
925.649
926.112
927.298
930.075
935.575
944.245
954.889
964.934
972.436
977.466
981.237
985.253
991.071
999.939
1012.84
1029.51
1046.78
963.206
940.48
930.697
927.083
925.897
925.542
925.442
925.416
925.409
925.408
925.408
925.409
925.413
925.431
925.491
925.674
926.181
927.474
930.47
936.305
945.331
956.176
966.21
973.637
978.732
982.81
987.471
994.383
1005.11
1021.07
1042.26
1061.87
963.177
940.453
930.681
927.076
925.894
925.541
925.442
925.416
925.409
925.408
925.408
925.409
925.414
925.434
925.498
925.695
926.238
927.618
930.79
936.885
946.173
957.146
967.135
974.48
979.617
983.937
989.131
996.975
1009.39
1028.45
1055.07
1079.14
963.15
940.428
930.664
927.068
925.891
925.539
925.442
925.416
925.409
925.408
925.408
925.409
925.414
925.435
925.504
925.71
926.281
927.723
931.014
937.268
946.691
957.695
967.62
974.912
980.1
984.616
990.211
998.73
1012.31
1033.23
1061.37
1080.46
925.407
925.407
925.407
925.407
925.407
925.407
925.407
925.407
925.407
925.407
925.407
925.407
925.407
925.407
925.407
925.407
925.407
925.407
925.407
925.407
925.407
925.407
925.407
925.407
925.407
925.407
925.407
925.407
925.407
925.407
925.407
925.407
925.407
925.407
925.407
925.407
925.407
925.407
925.407
925.407
925.407
925.407
925.407
925.407
925.407
925.407
925.407
925.407
925.407
925.407
925.407
925.407
925.407
925.407
925.407
925.407
925.407
925.407
925.407
925.407
925.407
925.407
925.407
925.407
925.407
925.407
925.407
925.407
925.407
925.407
925.407
925.407
925.407
925.407
925.407
925.407
925.407
925.407
925.407
925.407
925.407
925.407
925.407
925.407
925.407
925.407
925.407
925.407
925.407
925.407
925.407
925.407
925.407
925.407
925.407
925.407
925.407
925.407
925.407
925.407
925.407
925.407
925.407
925.407
925.407
925.407
925.407
925.407
925.407
925.407
925.407
925.407
925.407
925.407
925.407
925.407
925.407
925.407
925.407
925.407
925.407
925.407
925.407
925.407
925.407
925.407
925.407
925.407
925.407
925.407
925.407
925.407
925.407
925.407
925.407
925.407
925.407
925.407
925.407
925.407
925.407
925.407
925.407
925.407
925.407
925.407
925.407
925.407
925.407
925.407
925.407
925.407
925.408
925.408
925.408
925.408
925.408
925.408
925.408
925.407
925.408
925.408
925.408
925.408
925.408
925.408
925.408
925.408
925.408
925.408
925.408
925.408
925.409
925.409
925.409
925.409
925.409
925.409
925.409
925.409
925.409
925.409
925.409
925.409
925.409
925.409
925.409
925.409
925.409
925.409
925.409
925.409
925.41
925.41
925.411
925.411
925.411
925.411
925.412
925.412
925.412
925.413
925.413
925.413
925.413
925.413
925.414
925.414
925.414
925.414
925.414
925.414
925.414
925.414
925.414
925.414
925.414
925.414
925.414
925.414
925.414
925.414
925.414
925.414
925.419
925.42
925.421
925.422
925.423
925.424
925.425
925.426
925.427
925.427
925.428
925.429
925.43
925.43
925.431
925.431
925.432
925.432
925.432
925.432
925.433
925.433
925.433
925.433
925.433
925.432
925.432
925.432
925.432
925.431
925.431
925.43
925.451
925.454
925.458
925.461
925.463
925.466
925.469
925.471
925.474
925.476
925.478
925.48
925.482
925.483
925.485
925.486
925.487
925.487
925.488
925.488
925.489
925.488
925.488
925.488
925.487
925.486
925.485
925.484
925.483
925.482
925.48
925.479
925.55
925.56
925.568
925.576
925.584
925.591
925.598
925.605
925.61
925.616
925.621
925.625
925.629
925.633
925.636
925.638
925.64
925.641
925.641
925.642
925.641
925.64
925.639
925.637
925.634
925.631
925.628
925.624
925.62
925.615
925.61
925.605
925.825
925.847
925.868
925.887
925.905
925.922
925.937
925.951
925.964
925.976
925.986
925.994
926.002
926.008
926.012
926.016
926.018
926.018
926.017
926.015
926.011
926.006
926
925.993
925.984
925.975
925.965
925.953
925.941
925.928
925.914
925.9
926.502
926.548
926.59
926.629
926.666
926.698
926.728
926.754
926.777
926.797
926.813
926.826
926.836
926.843
926.847
926.847
926.845
926.839
926.83
926.819
926.805
926.788
926.769
926.747
926.723
926.697
926.669
926.64
926.608
926.575
926.541
926.507
927.978
928.057
928.128
928.195
928.255
928.307
928.352
928.39
928.421
928.445
928.462
928.472
928.476
928.473
928.464
928.449
928.428
928.401
928.369
928.332
928.29
928.244
928.193
928.138
928.079
928.017
927.951
927.883
927.812
927.739
927.665
927.59
930.77
930.874
930.965
931.049
931.121
931.18
931.225
931.257
931.277
931.284
931.278
931.261
931.232
931.193
931.143
931.084
931.015
930.937
930.851
930.757
930.657
930.549
930.436
930.317
930.192
930.064
929.932
929.796
929.657
929.517
929.375
929.234
935.217
935.293
935.354
935.406
935.442
935.46
935.46
935.44
935.401
935.344
935.27
935.179
935.072
934.951
934.815
934.667
934.507
934.336
934.154
933.964
933.766
933.56
933.348
933.13
932.908
932.682
932.453
932.221
931.987
931.753
931.519
931.287
940.938
940.89
940.829
940.761
940.68
940.58
940.461
940.322
940.163
939.984
939.786
939.57
939.338
939.089
938.826
938.55
938.262
937.964
937.657
937.342
937.02
936.692
936.36
936.025
935.686
935.347
935.006
934.666
934.327
933.989
933.653
933.322
946.684
946.43
946.169
945.906
945.636
945.356
945.064
944.76
944.443
944.111
943.767
943.409
943.038
942.655
942.26
941.856
941.443
941.023
940.595
940.163
939.726
939.287
938.845
938.403
937.96
937.519
937.08
936.643
936.21
935.781
935.355
934.936
951.254
950.79
950.328
949.869
949.414
948.96
948.507
948.055
947.602
947.147
946.689
946.227
945.759
945.286
944.807
944.321
943.83
943.334
942.833
942.328
941.819
941.308
940.796
940.282
939.769
939.257
938.746
938.238
937.733
937.231
936.731
936.239
954.548
953.975
953.407
952.841
952.281
951.73
951.189
950.66
950.142
949.634
949.134
948.64
948.149
947.659
947.169
946.676
946.179
945.677
945.169
944.655
944.134
943.607
943.074
942.536
941.991
941.442
940.889
940.332
939.773
939.211
938.645
938.084
957.504
956.962
956.428
955.892
955.357
954.83
954.316
953.817
953.335
952.869
952.419
951.981
951.554
951.132
950.713
950.294
949.87
949.44
948.999
948.547
948.08
947.599
947.101
946.586
946.053
945.503
944.936
944.351
943.748
943.128
942.489
941.842
961.277
960.928
960.589
960.243
959.889
959.534
959.185
958.846
958.522
958.212
957.918
957.638
957.37
957.109
956.851
956.592
956.326
956.049
955.756
955.442
955.104
954.736
954.338
953.905
953.436
952.93
952.383
951.797
951.169
950.498
949.783
949.037
966.734
966.732
966.747
966.754
966.747
966.73
966.708
966.686
966.668
966.655
966.65
966.653
966.663
966.675
966.687
966.693
966.687
966.662
966.613
966.531
966.412
966.247
966.032
965.76
965.428
965.031
964.565
964.027
963.414
962.724
961.954
961.118
974.356
974.834
975.338
975.839
976.327
976.802
977.264
977.716
978.16
978.598
979.032
979.462
979.888
980.308
980.719
981.117
981.495
981.847
982.164
982.437
982.658
982.817
982.905
982.913
982.832
982.654
982.373
981.981
981.473
980.844
980.088
979.225
984.235
985.293
986.377
987.464
988.543
989.609
990.662
991.7
992.723
993.731
994.726
995.708
996.678
997.635
998.577
999.501
1000.4
1001.27
1002.1
1002.89
1003.61
1004.26
1004.82
1005.29
1005.64
1005.86
1005.95
1005.88
1005.65
1005.26
1004.68
1003.94
996.13
997.813
999.509
1001.2
1002.89
1004.55
1006.2
1007.84
1009.45
1011.05
1012.64
1014.21
1015.78
1017.33
1018.89
1020.43
1021.97
1023.49
1024.99
1026.45
1027.87
1029.23
1030.51
1031.69
1032.75
1033.67
1034.43
1035
1035.37
1035.52
1035.43
1035.14
1009.59
1011.86
1014.1
1016.3
1018.46
1020.59
1022.69
1024.76
1026.81
1028.85
1030.88
1032.92
1034.97
1037.05
1039.16
1041.31
1043.5
1045.73
1048
1050.3
1052.62
1054.93
1057.23
1059.48
1061.64
1063.7
1065.61
1067.33
1068.84
1070.1
1071.09
1071.82
1024.01
1026.67
1029.19
1031.59
1033.87
1036.07
1038.19
1040.25
1042.28
1044.3
1046.34
1048.42
1050.57
1052.81
1055.17
1057.66
1060.31
1063.13
1066.12
1069.29
1072.63
1076.14
1079.77
1083.52
1087.33
1091.15
1094.94
1098.62
1102.15
1105.46
1108.5
1111.32
1038.55
1041.12
1043.33
1045.24
1046.9
1048.36
1049.67
1050.88
1052.04
1053.19
1054.4
1055.72
1057.19
1058.86
1060.79
1063.01
1065.57
1068.5
1071.84
1075.61
1079.84
1084.52
1089.65
1095.21
1101.17
1107.46
1114.01
1120.73
1127.51
1134.24
1140.81
1147.33
1052
1053.38
1053.96
1053.91
1053.39
1052.5
1051.37
1050.09
1048.77
1047.51
1046.4
1045.52
1044.95
1044.77
1045.06
1045.88
1047.3
1049.39
1052.22
1055.84
1060.31
1065.68
1072.01
1079.31
1087.59
1096.84
1106.99
1117.93
1129.5
1141.46
1153.47
1165.6
1061.72
1059.1
1055.04
1050.12
1044.68
1038.95
1033.07
1027.17
1021.37
1015.8
1010.56
1005.75
1001.49
997.843
994.911
992.774
991.516
991.22
991.977
993.881
997.035
1001.55
1007.54
1015.14
1024.47
1035.64
1048.76
1063.86
1080.92
1099.63
1119.2
1138.42
1060.95
1044.53
1025.2
1005.28
986.02
967.892
951.024
935.44
921.14
908.112
896.339
885.79
876.441
868.26
861.234
855.341
850.605
847.013
844.646
843.508
843.756
845.421
848.761
853.847
861.062
870.55
882.794
898.142
916.833
939.916
965.342
993.723
971.928
890.737
827.449
776.866
735.215
700.044
669.865
643.766
621.129
601.505
584.536
569.941
557.475
546.969
538.21
531.087
525.388
521.074
517.908
515.991
515.047
515.328
516.57
519.183
522.815
528.22
534.998
544.043
555.033
569.241
586.653
610.369
949.014
948.026
947.414
947.133
947.083
947.133
947.142
946.997
946.639
946.059
945.279
944.339
943.286
942.175
941.066
940.018
939.085
938.305
937.7
937.276
937.025
936.928
936.961
937.094
937.301
937.558
937.854
938.188
938.573
939.029
939.579
940.237
931.2
931.032
930.956
930.962
931.032
931.14
931.256
931.353
931.408
931.409
931.351
931.236
931.072
930.872
930.654
930.435
930.232
930.06
929.927
929.837
929.791
929.786
929.814
929.871
929.949
930.043
930.153
930.277
930.423
930.595
930.802
931.048
926.524
926.48
926.456
926.452
926.464
926.487
926.517
926.547
926.574
926.593
926.602
926.601
926.59
926.571
926.547
926.521
926.496
926.476
926.461
926.453
926.453
926.46
926.473
926.492
926.517
926.545
926.579
926.617
926.662
926.714
926.776
926.847
925.617
925.605
925.597
925.593
925.592
925.593
925.596
925.6
925.604
925.607
925.609
925.61
925.61
925.608
925.605
925.603
925.6
925.598
925.597
925.597
925.599
925.602
925.606
925.611
925.618
925.625
925.634
925.645
925.657
925.671
925.687
925.705
925.446
925.444
925.442
925.44
925.44
925.439
925.439
925.439
925.439
925.439
925.439
925.439
925.439
925.438
925.438
925.437
925.437
925.437
925.437
925.437
925.437
925.438
925.439
925.44
925.441
925.443
925.445
925.448
925.451
925.454
925.457
925.461
925.414
925.414
925.413
925.413
925.413
925.413
925.412
925.412
925.412
925.412
925.412
925.412
925.412
925.412
925.412
925.412
925.411
925.411
925.411
925.411
925.411
925.412
925.412
925.412
925.412
925.413
925.413
925.413
925.414
925.415
925.415
925.416
925.408
925.408
925.408
925.408
925.408
925.408
925.408
925.408
925.408
925.408
925.408
925.408
925.408
925.408
925.408
925.408
925.408
925.408
925.408
925.408
925.408
925.408
925.408
925.408
925.408
925.408
925.408
925.408
925.408
925.408
925.408
925.408
925.407
925.407
925.407
925.407
925.407
925.407
925.407
925.407
925.407
925.407
925.407
925.407
925.407
925.407
925.407
925.407
925.407
925.407
925.407
925.407
925.407
925.407
925.407
925.407
925.407
925.407
925.407
925.407
925.407
925.407
925.407
925.407
940.849
941.388
941.977
942.609
943.276
943.969
944.676
945.388
946.094
946.784
947.452
948.09
948.696
949.265
949.796
950.289
950.743
951.159
951.537
951.878
952.181
952.437
952.635
952.759
952.788
952.699
952.466
952.066
951.484
950.713
949.761
948.649
947.41
946.079
944.693
943.282
941.871
940.486
939.156
937.921
936.832
935.958
935.37
935.134
935.289
935.843
936.784
938.126
939.951
942.422
945.647
949.292
952.872
955.556
958.365
959.898
960.938
961.733
962.354
962.816
963.126
963.29
963.308
963.14
962.6
961.071
956.822
953.796
951.526
949.659
948
946.486
945.132
943.974
943.036
942.332
941.883
941.745
942.03
942.858
943.983
944.19
943.193
941.508
939.78
938.56
938.534
941.107
949.648
955.25
958.878
961.188
962.628
963.505
964.027
964.332
964.51
964.618
964.678
964.686
964.537
963.594
958.426
954.495
950.813
947.743
945.897
945.592
946.608
949.539
957.523
960.423
959.473
962.256
962.925
962.981
962.785
962.199
959.972
952.286
943.784
935.96
931.852
929.344
927.841
926.982
926.537
926.37
926.397
926.545
926.73
926.868
926.898
926.798
926.593
926.337
926.09
925.903
925.818
925.882
926.174
926.779
927.677
928.655
929.456
930.002
930.339
930.711
932.012
937.597
931.275
931.475
931.694
931.93
932.18
932.443
932.713
932.988
933.264
933.537
933.802
934.058
934.3
934.528
934.738
934.93
935.103
935.257
935.392
935.507
935.603
935.679
935.734
935.766
935.772
935.748
935.689
935.589
935.445
935.252
935.01
934.719
934.383
934.005
933.592
933.15
932.685
932.206
931.721
931.246
930.797
930.394
930.06
929.814
929.672
929.643
929.728
929.924
930.233
930.655
931.182
931.776
932.388
932.978
933.545
934.073
934.56
934.996
935.366
935.657
935.861
935.976
936.008
935.966
935.851
935.647
935.327
935.001
934.704
934.432
934.177
933.934
933.707
933.504
933.333
933.201
933.115
933.09
933.139
933.263
933.399
933.378
933.114
932.66
932.138
931.69
931.477
931.7
932.513
933.498
934.43
935.208
935.808
936.243
936.548
936.757
936.899
936.994
937.051
937.07
937.035
936.887
936.457
935.851
935.109
934.397
933.916
933.792
934
934.537
935.359
935.87
936.105
936.27
936.236
936.052
935.789
935.43
934.735
933.215
931.377
929.655
928.296
927.321
926.674
926.275
926.058
925.977
925.999
926.089
926.202
926.289
926.311
926.256
926.136
925.985
925.841
925.739
925.716
925.823
926.143
926.762
927.663
928.642
929.444
929.982
930.281
930.463
930.83
931.69
926.911
926.967
927.028
927.093
927.163
927.235
927.311
927.388
927.466
927.543
927.619
927.692
927.762
927.828
927.889
927.944
927.994
928.037
928.073
928.104
928.128
928.146
928.159
928.165
928.166
928.161
928.149
928.131
928.106
928.072
928.03
927.978
927.918
927.847
927.767
927.677
927.579
927.473
927.362
927.247
927.133
927.024
926.924
926.838
926.77
926.723
926.698
926.698
926.721
926.769
926.838
926.928
927.034
927.153
927.281
927.414
927.546
927.671
927.78
927.87
927.934
927.972
927.986
927.978
927.954
927.921
927.884
927.851
927.826
927.812
927.805
927.803
927.804
927.807
927.811
927.815
927.821
927.831
927.845
927.861
927.869
927.851
927.794
927.7
927.585
927.472
927.39
927.368
927.423
927.537
927.679
927.822
927.952
928.061
928.149
928.218
928.27
928.309
928.334
928.342
928.332
928.298
928.23
928.129
928.002
927.877
927.788
927.76
927.797
927.888
928.005
928.1
928.157
928.171
928.133
928.05
927.942
927.813
927.638
927.359
927.006
926.638
926.31
926.049
925.86
925.735
925.664
925.638
925.65
925.688
925.735
925.773
925.785
925.765
925.719
925.659
925.607
925.582
925.617
925.763
926.108
926.741
927.648
928.63
929.435
929.97
930.252
930.351
930.415
930.479
925.721
925.734
925.749
925.764
925.78
925.797
925.815
925.833
925.851
925.869
925.886
925.903
925.92
925.935
925.949
925.962
925.974
925.984
925.992
925.999
926.004
926.008
926.01
926.011
926.011
926.01
926.007
926.004
926
925.994
925.988
925.98
925.971
925.96
925.948
925.934
925.918
925.9
925.881
925.86
925.839
925.818
925.797
925.778
925.762
925.748
925.739
925.733
925.732
925.735
925.743
925.756
925.773
925.794
925.818
925.844
925.871
925.897
925.921
925.94
925.955
925.965
925.969
925.968
925.964
925.958
925.952
925.948
925.946
925.948
925.952
925.959
925.967
925.975
925.983
925.99
925.997
926.002
926.007
926.01
926.011
926.007
925.997
925.981
925.96
925.937
925.917
925.904
925.901
925.907
925.921
925.939
925.958
925.977
925.995
926.011
926.025
926.036
926.044
926.046
926.043
926.034
926.018
925.997
925.973
925.95
925.934
925.93
925.937
925.955
925.977
925.998
926.012
926.016
926.008
925.988
925.96
925.927
925.886
925.834
925.769
925.699
925.633
925.576
925.533
925.502
925.484
925.478
925.483
925.495
925.51
925.522
925.527
925.522
925.509
925.494
925.486
925.5
925.565
925.731
926.09
926.732
927.643
928.627
929.436
929.973
930.251
930.328
930.32
930.243
925.464
925.467
925.47
925.473
925.477
925.48
925.484
925.487
925.491
925.494
925.498
925.501
925.505
925.508
925.51
925.513
925.515
925.517
925.519
925.52
925.521
925.522
925.522
925.522
925.522
925.522
925.521
925.521
925.52
925.519
925.518
925.517
925.516
925.514
925.513
925.511
925.509
925.506
925.504
925.501
925.498
925.494
925.491
925.488
925.485
925.483
925.48
925.479
925.478
925.478
925.479
925.481
925.483
925.487
925.49
925.495
925.499
925.504
925.508
925.512
925.515
925.517
925.518
925.518
925.517
925.516
925.515
925.515
925.515
925.515
925.516
925.518
925.52
925.522
925.524
925.526
925.528
925.53
925.531
925.532
925.532
925.531
925.53
925.528
925.524
925.52
925.517
925.513
925.511
925.51
925.51
925.511
925.513
925.516
925.519
925.522
925.525
925.527
925.529
925.53
925.529
925.527
925.523
925.519
925.514
925.509
925.507
925.506
925.507
925.511
925.516
925.52
925.524
925.525
925.524
925.521
925.515
925.508
925.5
925.491
925.479
925.467
925.455
925.444
925.436
925.43
925.426
925.425
925.426
925.429
925.433
925.436
925.438
925.437
925.435
925.435
925.442
925.47
925.545
925.719
926.084
926.73
927.645
928.634
929.447
929.988
930.266
930.34
930.318
930.216
925.417
925.417
925.418
925.418
925.419
925.419
925.42
925.421
925.421
925.422
925.423
925.423
925.424
925.424
925.425
925.425
925.426
925.426
925.426
925.426
925.426
925.427
925.427
925.427
925.427
925.427
925.426
925.426
925.426
925.426
925.426
925.426
925.426
925.425
925.425
925.425
925.425
925.425
925.424
925.424
925.424
925.423
925.423
925.422
925.422
925.422
925.421
925.421
925.421
925.421
925.421
925.421
925.421
925.422
925.422
925.423
925.424
925.424
925.425
925.426
925.426
925.427
925.427
925.427
925.427
925.427
925.427
925.427
925.427
925.427
925.427
925.427
925.427
925.428
925.428
925.429
925.429
925.429
925.429
925.429
925.43
925.43
925.429
925.429
925.429
925.428
925.427
925.427
925.426
925.426
925.425
925.425
925.425
925.426
925.426
925.427
925.427
925.428
925.428
925.428
925.428
925.428
925.427
925.426
925.425
925.424
925.424
925.424
925.424
925.425
925.425
925.426
925.427
925.427
925.427
925.427
925.426
925.425
925.423
925.422
925.42
925.418
925.416
925.414
925.413
925.412
925.411
925.411
925.411
925.412
925.412
925.413
925.414
925.414
925.415
925.418
925.43
925.461
925.539
925.715
926.081
926.73
927.652
928.648
929.467
930.012
930.293
930.367
930.342
930.235
925.409
925.409
925.409
925.409
925.409
925.409
925.409
925.409
925.409
925.409
925.409
925.41
925.41
925.41
925.41
925.41
925.41
925.41
925.41
925.41
925.41
925.41
925.41
925.41
925.41
925.41
925.41
925.41
925.41
925.41
925.41
925.41
925.41
925.41
925.41
925.41
925.41
925.41
925.41
925.41
925.41
925.41
925.41
925.41
925.41
925.41
925.409
925.409
925.409
925.409
925.409
925.409
925.41
925.41
925.41
925.41
925.41
925.41
925.41
925.41
925.41
925.41
925.41
925.41
925.41
925.41
925.41
925.41
925.41
925.41
925.41
925.41
925.41
925.41
925.41
925.411
925.411
925.411
925.411
925.411
925.411
925.411
925.411
925.411
925.411
925.411
925.41
925.41
925.41
925.41
925.41
925.41
925.41
925.41
925.41
925.41
925.41
925.41
925.41
925.41
925.41
925.41
925.41
925.41
925.41
925.41
925.41
925.41
925.41
925.41
925.41
925.41
925.41
925.41
925.41
925.41
925.41
925.41
925.41
925.409
925.409
925.409
925.409
925.408
925.408
925.408
925.408
925.408
925.408
925.408
925.408
925.408
925.408
925.409
925.41
925.414
925.427
925.458
925.536
925.711
926.078
926.73
927.66
928.666
929.493
930.043
930.327
930.403
930.377
930.267
925.407
925.407
925.407
925.407
925.407
925.407
925.407
925.407
925.407
925.407
925.407
925.407
925.407
925.407
925.407
925.407
925.407
925.407
925.407
925.408
925.408
925.408
925.408
925.408
925.408
925.408
925.408
925.407
925.407
925.407
925.407
925.407
925.407
925.407
925.407
925.407
925.407
925.407
925.407
925.407
925.407
925.407
925.407
925.407
925.407
925.407
925.407
925.407
925.407
925.407
925.407
925.407
925.407
925.407
925.407
925.407
925.407
925.408
925.408
925.408
925.408
925.408
925.408
925.408
925.408
925.408
925.408
925.408
925.408
925.408
925.408
925.408
925.408
925.408
925.408
925.408
925.408
925.408
925.408
925.408
925.408
925.408
925.408
925.408
925.408
925.408
925.408
925.408
925.408
925.408
925.408