/*--------------------------------*- C++ -*----------------------------------*\
  =========                 |
  \\      /  F ield         | OpenFOAM: The Open Source CFD Toolbox
   \\    /   O peration     | Website:  https://openfoam.org
    \\  /    A nd           | Version:  7
     \\/     M anipulation  |
\*---------------------------------------------------------------------------*/
FoamFile
{
    version     2.0;
    format      ascii;
    class       volScalarField;
    location    "0.00226";
    object      T;
}
// * * * * * * * * * * * * * * * * * * * * * * * * * * * * * * * * * * * * * //

dimensions      [0 0 0 1 0 0 0];

internalField   nonuniform List<scalar> 
5000
(
277.93639
277.9364
277.93633
277.93627
277.93622
277.93618
277.93615
277.93613
277.93611
277.9361
277.9361
277.93609
277.93609
277.93609
277.93609
277.93609
277.93609
277.93609
277.93609
277.93609
277.93609
277.93609
277.93609
277.93609
277.93609
277.9361
277.9361
277.9361
277.9361
277.9361
277.9361
277.9361
277.9361
277.9361
277.9361
277.9361
277.9361
277.93611
277.93611
277.93611
277.93611
277.93611
277.93611
277.93611
277.93611
277.93611
277.93611
277.93612
277.93612
277.93612
277.93612
277.93612
277.93612
277.93612
277.93612
277.93612
277.93613
277.93613
277.93613
277.93613
277.93613
277.93613
277.93613
277.93613
277.93613
277.93614
277.93614
277.93614
277.93614
277.93614
277.93614
277.93614
277.93614
277.93614
277.93615
277.93615
277.93615
277.93615
277.93615
277.93615
277.93615
277.93615
277.93616
277.93616
277.93616
277.93616
277.93616
277.93616
277.93616
277.93616
277.93617
277.93617
277.93617
277.93617
277.93617
277.93617
277.93617
277.93617
277.93618
277.93618
277.93618
277.93618
277.93618
277.93618
277.93618
277.93618
277.93619
277.93619
277.93619
277.93619
277.93619
277.93619
277.93619
277.93619
277.9362
277.9362
277.9362
277.9362
277.9362
277.9362
277.9362
277.9362
277.93621
277.93621
277.93621
277.93621
277.93621
277.93621
277.93621
277.93621
277.93621
277.93622
277.93622
277.93622
277.93622
277.93622
277.93622
277.93622
277.93622
277.93623
277.93623
277.93623
277.93623
277.93623
277.93623
277.93623
277.93623
277.93623
277.93623
277.93624
277.93624
277.93624
277.93624
277.93624
277.93624
277.93624
277.93624
277.93625
277.93625
277.93625
277.93625
277.93625
277.93625
277.93625
277.93625
277.93625
277.93625
277.93626
277.93626
277.93626
277.93626
277.93626
277.93626
277.93626
277.93626
277.93626
277.93626
277.93626
277.93627
277.93627
277.93627
277.93627
277.93627
277.93627
277.93627
277.93627
277.93627
277.93627
277.93628
277.93628
277.93628
277.93628
277.93628
277.93628
277.93628
277.93628
277.93628
277.93628
277.93628
277.93628
277.93628
277.93629
277.93629
277.93629
277.93629
277.93629
277.93629
277.93629
277.93629
277.93629
277.93629
277.93629
277.93629
277.9363
277.9363
277.9363
277.9363
277.9363
277.9363
277.9363
277.9363
277.9363
277.9363
277.9363
277.9363
277.9363
277.9363
277.93631
277.93631
277.93631
277.93631
277.93631
277.93631
277.93631
277.93631
277.93631
277.93631
277.93631
277.93631
277.93631
277.93631
277.93631
277.93632
277.93632
277.93632
277.93632
277.93632
277.93632
277.93632
277.93632
277.93632
277.93632
277.93632
277.93632
277.93632
277.93632
277.93632
277.93633
277.93633
277.93633
277.93633
277.93633
277.93633
277.93633
277.93633
277.93633
277.93633
277.93633
277.93633
277.93633
277.93633
277.93633
277.93634
277.93634
277.93634
277.93634
277.93634
277.93634
277.93634
277.93634
277.93634
277.93634
277.93634
277.93634
277.93634
277.93634
277.93634
277.93634
277.93635
277.93635
277.93635
277.93635
277.93635
277.93635
277.93635
277.93635
277.93635
277.93635
277.93635
277.93635
277.93635
277.93635
277.93636
277.93636
277.93636
277.93636
277.93636
277.93636
277.93636
277.93636
277.93636
277.93636
277.93636
277.93636
277.93636
277.93636
277.93636
277.93637
277.93637
277.93637
277.93637
277.93637
277.93637
277.93637
277.93637
277.93637
277.93637
277.93637
277.93637
277.93637
277.93637
277.93637
277.93638
277.93638
277.93638
277.93638
277.93638
277.93638
277.93638
277.93638
277.93638
277.93638
277.93638
277.93638
277.93638
277.93639
277.93639
277.93639
277.93639
277.93639
277.93639
277.93639
277.93639
277.93639
277.93639
277.93639
277.93639
277.93639
277.9364
277.9364
277.9364
277.9364
277.9364
277.9364
277.9364
277.9364
277.9364
277.9364
277.9364
277.9364
277.93641
277.93641
277.93641
277.93641
277.93641
277.93641
277.93641
277.93641
277.93641
277.93641
277.93641
277.93641
277.93642
277.93642
277.93642
277.93642
277.93642
277.93642
277.93642
277.93642
277.93642
277.93642
277.93642
277.93642
277.93643
277.93643
277.93643
277.93643
277.93643
277.93643
277.93643
277.93643
277.93643
277.93643
277.93643
277.93644
277.93644
277.93644
277.93644
277.93644
277.93644
277.93644
277.93644
277.93644
277.93644
277.93645
277.93645
277.93645
277.93645
277.93645
277.93645
277.93645
277.93645
277.93645
277.93645
277.93646
277.93646
277.93646
277.93646
277.93646
277.93646
277.93646
277.93646
277.93646
277.93647
277.93647
277.93647
277.93647
277.93647
277.93647
277.93647
277.93647
277.93647
277.93648
277.93648
277.93648
277.93648
277.93648
277.93648
277.93648
277.93648
277.93649
277.93649
277.93649
277.93649
277.93649
277.93649
277.93649
277.9365
277.9365
277.9365
277.9365
277.9365
277.9365
277.9365
277.9365
277.93651
277.93651
277.93651
277.93651
277.93651
277.93651
277.93651
277.93652
277.93652
277.93652
277.93652
277.93652
277.93652
277.93652
277.93653
277.93653
277.93653
277.93653
277.93653
277.93653
277.93653
277.93654
277.93654
277.93654
277.93654
277.93654
277.93654
277.93655
277.93655
277.93655
277.93655
277.93655
277.93655
277.93656
277.93656
277.93656
277.93656
277.93656
277.93656
277.93657
277.93657
277.93657
277.93657
277.93657
277.93658
277.93658
277.93658
277.93658
277.93658
277.93659
277.93659
277.93659
277.93659
277.93659
277.9366
277.9366
277.9366
277.9366
277.9366
277.9366
277.93661
277.93661
277.93661
277.93661
277.93662
277.93662
277.93662
277.93662
277.93662
277.93663
277.93663
277.93663
277.93663
277.93664
277.93664
277.93664
277.93664
277.93665
277.93665
277.93665
277.93665
277.93666
277.93666
277.93666
277.93666
277.93667
277.93667
277.93667
277.93667
277.93668
277.93668
277.93668
277.93668
277.93669
277.93669
277.93669
277.9367
277.9367
277.9367
277.9367
277.93671
277.93671
277.93671
277.93672
277.93672
277.93672
277.93672
277.93673
277.93673
277.93673
277.93674
277.93674
277.93674
277.93675
277.93675
277.93675
277.93675
277.93676
277.93676
277.93676
277.93677
277.93677
277.93678
277.93678
277.93678
277.93679
277.93679
277.93679
277.93679
277.9368
277.9368
277.9368
277.93681
277.93681
277.93682
277.93682
277.93682
277.93683
277.93683
277.93683
277.93684
277.93684
277.93684
277.93685
277.93685
277.93686
277.93686
277.93686
277.93687
277.93687
277.93688
277.93688
277.93688
277.93689
277.93689
277.9369
277.9369
277.9369
277.93691
277.93691
277.93692
277.93692
277.93693
277.93693
277.93693
277.93694
277.93694
277.93695
277.93695
277.93696
277.93696
277.93697
277.93697
277.93698
277.93698
277.93699
277.93699
277.93699
277.937
277.937
277.93701
277.93701
277.93702
277.93702
277.93703
277.93703
277.93704
277.93704
277.93705
277.93705
277.93706
277.93706
277.93707
277.93707
277.93708
277.93709
277.93709
277.9371
277.9371
277.93711
277.93711
277.93712
277.93712
277.93713
277.93713
277.93714
277.93714
277.93715
277.93716
277.93716
277.93717
277.93717
277.93718
277.93719
277.93719
277.9372
277.9372
277.93721
277.93721
277.93722
277.93723
277.93723
277.93724
277.93725
277.93725
277.93726
277.93727
277.93727
277.93728
277.93729
277.93729
277.9373
277.93731
277.93731
277.93732
277.93733
277.93733
277.93734
277.93735
277.93736
277.93736
277.93737
277.93738
277.93738
277.93739
277.9374
277.9374
277.93741
277.93742
277.93743
277.93744
277.93744
277.93745
277.93746
277.93747
277.93748
277.93749
277.93749
277.9375
277.93751
277.93752
277.93752
277.93753
277.93754
277.93755
277.93756
277.93756
277.93757
277.93758
277.93759
277.9376
277.93761
277.93762
277.93763
277.93764
277.93765
277.93766
277.93767
277.93768
277.93769
277.9377
277.93771
277.93772
277.93773
277.93774
277.93775
277.93776
277.93777
277.93778
277.93779
277.9378
277.93781
277.93782
277.93783
277.93785
277.93786
277.93787
277.93788
277.93789
277.9379
277.93792
277.93793
277.93794
277.93796
277.93797
277.93798
277.938
277.93801
277.93802
277.93804
277.93805
277.93807
277.93808
277.9381
277.93811
277.93813
277.93815
277.93816
277.93818
277.9382
277.93821
277.93823
277.93825
277.93827
277.93829
277.93831
277.93833
277.93835
277.93837
277.93839
277.93841
277.93843
277.93845
277.93848
277.9385
277.93853
277.93855
277.93858
277.9386
277.93863
277.93865
277.93868
277.93871
277.93874
277.93877
277.93881
277.93884
277.93887
277.93891
277.93894
277.93898
277.93901
277.93905
277.93909
277.93913
277.93917
277.93922
277.93926
277.9393
277.93935
277.9394
277.93945
277.9395
277.93956
277.93961
277.93967
277.93973
277.93979
277.93985
277.93991
277.93998
277.94004
277.94011
277.94018
277.94026
277.94033
277.94041
277.94049
277.94058
277.94066
277.94075
277.94085
277.94094
277.94104
277.94114
277.94124
277.94135
277.94146
277.94158
277.9417
277.94182
277.94194
277.94207
277.94221
277.94234
277.94249
277.94263
277.94279
277.94294
277.9431
277.94327
277.94344
277.94362
277.9438
277.94399
277.94418
277.94438
277.94459
277.9448
277.94502
277.94524
277.94547
277.94571
277.94596
277.94621
277.94647
277.94674
277.94702
277.94731
277.9476
277.9479
277.94821
277.94853
277.94886
277.9492
277.94955
277.94991
277.95027
277.95065
277.95104
277.95145
277.95186
277.95228
277.95272
277.95317
277.95363
277.9541
277.95459
277.95509
277.95561
277.95613
277.95668
277.95723
277.9578
277.95839
277.95899
277.95961
277.96025
277.9609
277.96157
277.96225
277.96296
277.96368
277.96442
277.96518
277.96596
277.96676
277.96757
277.96841
277.96927
277.97015
277.97105
277.97198
277.97292
277.97389
277.97489
277.9759
277.97694
277.97801
277.9791
277.98021
277.98136
277.98252
277.98372
277.98494
277.98619
277.98747
277.98878
277.99011
277.99148
277.99287
277.9943
277.99576
277.99725
277.99877
278.00032
278.00191
278.00353
278.00519
278.00688
278.0086
278.01036
278.01216
278.01399
278.01586
278.01777
278.01972
278.0217
278.02373
278.02579
278.0279
278.03004
278.03223
278.03446
278.03673
278.03904
278.0414
278.0438
278.04625
278.04874
278.05127
278.05386
278.05649
278.05916
278.06188
278.06466
278.06748
278.07034
278.07326
278.07623
278.07925
278.08232
278.08544
278.08861
278.09184
278.09512
278.09845
278.10184
278.10528
278.10878
278.11233
278.11594
278.1196
278.12332
278.1271
278.13093
278.13483
278.13878
278.14279
278.14686
278.15099
278.15518
278.15943
278.16374
278.16811
278.17255
278.17705
278.18161
278.18623
278.19091
278.19566
278.20047
278.20535
278.21029
278.2153
278.22037
278.22551
278.23072
278.23599
278.24133
278.24673
278.2522
278.25774
278.26334
278.26902
278.27476
278.28057
278.28645
278.29239
278.29841
278.30449
278.31065
278.31687
278.32317
278.32953
278.33596
278.34247
278.34904
278.35569
278.36241
278.36919
278.37605
278.38298
278.38998
278.39705
278.40419
278.41141
278.41869
278.42605
278.43348
278.44098
278.44855
278.45619
278.46391
278.47169
278.47955
278.48748
278.49548
278.50356
278.5117
278.51992
278.52821
278.53657
278.545
278.5535
278.56208
278.57072
278.57944
278.58822
278.59708
278.60601
278.61501
278.62408
278.63322
278.64243
278.65171
278.66106
278.67048
278.67997
278.68953
278.69916
278.70886
278.71863
278.72846
278.73837
278.74834
278.75838
278.76849
278.77867
278.78891
278.79923
278.8096
278.82005
278.83056
278.84114
278.85178
278.86249
278.87326
278.8841
278.89501
278.90598
278.91701
278.92811
278.93927
278.9505
278.96179
278.97314
278.98455
278.99603
279.00756
279.01916
279.03082
279.04254
279.05433
279.06617
279.07807
279.09003
279.10205
279.11413
279.12627
279.13847
279.15072
279.16303
279.1754
279.18783
279.20031
279.21284
279.22544
279.23808
279.25079
279.26354
279.27636
279.28922
279.30214
279.31511
279.32813
279.34121
279.35434
279.36752
279.38075
279.39403
279.40736
279.42074
279.43417
279.44765
279.46118
279.47476
279.48839
279.50206
279.51578
279.52954
279.54335
279.55721
279.57111
279.58506
279.59906
279.61309
279.62717
279.6413
279.65547
279.66968
279.68393
279.69823
279.71256
279.72694
279.74136
279.75582
279.77031
279.78485
279.79943
279.81404
279.8287
279.84339
279.85812
279.87288
279.88768
279.90252
279.9174
279.93231
279.94725
279.96223
279.97725
279.9923
280.00738
280.02249
280.03764
280.05282
280.06803
280.08327
280.09855
280.11385
280.12918
280.14455
280.15994
280.17537
280.19082
280.2063
280.22181
280.23735
280.25291
280.2685
280.28412
280.29976
280.31543
280.33113
280.34685
280.36259
280.37836
280.39415
280.40997
280.4258
280.44167
280.45755
280.47345
280.48938
280.50533
280.5213
280.53729
280.5533
280.56933
280.58538
280.60145
280.61753
280.63364
280.64976
280.6659
280.68206
280.69824
280.71443
280.73063
280.74686
280.76309
280.77935
280.79562
280.8119
280.8282
280.84451
280.86083
280.87717
280.89352
280.90988
280.92625
280.94264
280.95903
280.97544
280.99186
281.00829
281.02472
281.04117
281.05763
281.07409
281.09057
281.10705
281.12354
281.14004
281.15654
281.17306
281.18957
281.2061
281.22263
281.23917
281.25571
281.27225
281.2888
281.30536
281.32191
281.33848
281.35504
281.37161
281.38818
281.40475
281.42132
281.4379
281.45448
281.47105
281.48763
281.50421
281.52079
281.53737
281.55395
281.57052
281.5871
281.60367
281.62024
281.63681
281.65338
281.66994
281.6865
281.70306
281.71961
281.73616
281.7527
281.76924
281.78577
281.8023
281.81882
281.83534
281.85185
281.86835
281.88485
281.90134
281.91782
281.93429
281.95075
281.96721
281.98365
282.00009
282.01652
282.03294
282.04934
282.06574
282.08213
282.0985
282.11486
282.13121
282.14755
282.16388
282.18019
282.19649
282.21278
282.22905
282.24531
282.26156
282.27779
282.294
282.3102
282.32639
282.34255
282.35871
282.37484
282.39096
282.40706
282.42315
282.43921
282.45526
282.47129
282.4873
282.50329
282.51927
282.53522
282.55115
282.56707
282.58296
282.59883
282.61468
282.63051
282.64631
282.6621
282.67786
282.6936
282.70931
282.725
282.74067
282.75632
282.77194
282.78753
282.8031
282.81865
282.83417
282.84966
282.86513
282.88057
282.89598
282.91137
282.92672
282.94205
282.95736
282.97263
282.98788
283.00309
283.01828
283.03344
283.04856
283.06366
283.07872
283.09376
283.10876
283.12373
283.13867
283.15358
283.16846
283.1833
283.19811
283.21288
283.22763
283.24233
283.25701
283.27165
283.28625
283.30082
283.31535
283.32984
283.3443
283.35873
283.37311
283.38746
283.40177
283.41605
283.43028
283.44448
283.45864
283.47276
283.48684
283.50088
283.51488
283.52884
283.54275
283.55663
283.57047
283.58427
283.59802
283.61173
283.6254
283.63903
283.65261
283.66615
283.67965
283.6931
283.70651
283.71987
283.73319
283.74647
283.7597
283.77288
283.78602
283.79911
283.81215
283.82515
283.8381
283.85101
283.86386
283.87667
283.88943
283.90214
283.91481
283.92742
283.93999
283.9525
283.96497
283.97738
283.98975
284.00206
284.01433
284.02654
284.0387
284.05081
284.06287
284.07487
284.08683
284.09873
284.11058
284.12237
284.13412
284.1458
284.15744
284.16902
284.18055
284.19202
284.20344
284.2148
284.22611
284.23736
284.24855
284.2597
284.27078
284.28181
284.29278
284.3037
284.31456
284.32536
284.3361
284.34679
284.35742
284.36799
284.37851
284.38896
284.39936
284.4097
284.41999
284.43021
284.44037
284.45048
284.46053
284.47051
284.48044
284.49031
284.50012
284.50986
284.51955
284.52918
284.53875
284.54826
284.5577
284.56709
284.57642
284.58568
284.59489
284.60403
284.61311
284.62213
284.63109
284.63999
284.64883
284.65761
284.66632
284.67498
284.68357
284.6921
284.70057
284.70898
284.71732
284.72561
284.73383
284.74199
284.75009
284.75813
284.7661
284.77402
284.78187
284.78966
284.79739
284.80505
284.81266
284.8202
284.82769
284.83511
284.84247
284.84976
284.857
284.86418
284.87129
284.87834
284.88533
284.89227
284.89913
284.90594
284.91269
284.91938
284.92601
284.93257
284.93908
284.94553
284.95191
284.95824
284.96451
284.97071
284.97686
284.98295
284.98898
284.99495
285.00086
285.00671
285.0125
285.01824
285.02392
285.02953
285.0351
285.0406
285.04605
285.05144
285.05677
285.06205
285.06726
285.07243
285.07753
285.08259
285.08758
285.09252
285.09741
285.10224
285.10701
285.11174
285.1164
285.12102
285.12558
285.13008
285.13454
285.13894
285.14329
285.14759
285.15183
285.15603
285.16017
285.16426
285.1683
285.17229
285.17623
285.18013
285.18397
285.18776
285.1915
285.1952
285.19885
285.20245
285.206
285.20951
285.21297
285.21638
285.21975
285.22307
285.22634
285.22958
285.23276
285.2359
285.239
285.24206
285.24507
285.24804
285.25097
285.25385
285.2567
285.2595
285.26226
285.26498
285.26766
285.2703
285.2729
285.27546
285.27798
285.28047
285.28291
285.28532
285.28769
285.29003
285.29232
285.29459
285.29681
285.299
285.30116
285.30328
285.30537
285.30742
285.30944
285.31143
285.31338
285.3153
285.31719
285.31905
285.32087
285.32267
285.32443
285.32617
285.32787
285.32955
285.33119
285.33281
285.3344
285.33596
285.3375
285.339
285.34048
285.34193
285.34336
285.34476
285.34614
285.34749
285.34881
285.35011
285.35139
285.35264
285.35387
285.35508
285.35626
285.35742
285.35856
285.35967
285.36077
285.36184
285.3629
285.36393
285.36494
285.36593
285.36691
285.36786
285.36879
285.36971
285.37061
285.37148
285.37234
285.37319
285.37401
285.37482
285.37561
285.37639
285.37715
285.37789
285.37862
285.37933
285.38003
285.38071
285.38138
285.38203
285.38267
285.3833
285.38391
285.38451
285.38509
285.38566
285.38622
285.38677
285.3873
285.38783
285.38834
285.38884
285.38933
285.38981
285.39027
285.39073
285.39118
285.39161
285.39204
285.39245
285.39286
285.39325
285.39364
285.39402
285.39439
285.39475
285.3951
285.39544
285.39578
285.3961
285.39642
285.39673
285.39704
285.39733
285.39762
285.3979
285.39818
285.39844
285.39871
285.39896
285.39921
285.39945
285.39969
285.39992
285.40014
285.40036
285.40057
285.40078
285.40098
285.40118
285.40137
285.40156
285.40174
285.40192
285.40209
285.40226
285.40242
285.40258
285.40274
285.40289
285.40304
285.40318
285.40332
285.40346
285.40359
285.40372
285.40384
285.40396
285.40408
285.4042
285.40431
285.40442
285.40453
285.40463
285.40473
285.40483
285.40492
285.40501
285.4051
285.40519
285.40528
285.40536
285.40544
285.40552
285.40559
285.40567
285.40574
285.40581
285.40587
285.40594
285.406
285.40607
285.40613
285.40618
285.40624
285.4063
285.40635
285.4064
285.40645
285.4065
285.40655
285.40659
285.40664
285.40668
285.40672
285.40677
285.4068
285.40684
285.40688
285.40692
285.40695
285.40699
285.40702
285.40706
285.40709
285.40712
285.40715
285.40718
285.40721
285.40723
285.40726
285.40729
285.40731
285.40734
285.40736
285.40738
285.4074
285.40743
285.40745
285.40747
285.40749
285.40751
285.40753
285.40754
285.40756
285.40758
285.4076
285.40761
285.40763
285.40764
285.40766
285.40767
285.40769
285.4077
285.40772
285.40773
285.40774
285.40775
285.40777
285.40778
285.40779
285.4078
285.40781
285.40782
285.40783
285.40784
285.40785
285.40786
285.40787
285.40788
285.40789
285.4079
285.40791
285.40792
285.40793
285.40794
285.40794
285.40795
285.40796
285.40797
285.40797
285.40798
285.40799
285.408
285.408
285.40801
285.40801
285.40802
285.40803
285.40803
285.40804
285.40805
285.40805
285.40806
285.40806
285.40807
285.40807
285.40808
285.40809
285.40809
285.4081
285.4081
285.40811
285.40811
285.40812
285.40812
285.40813
285.40813
285.40814
285.40814
285.40815
285.40815
285.40816
285.40816
285.40817
285.40817
285.40818
285.40818
285.40818
285.40819
285.40819
285.4082
285.4082
285.40821
285.40821
285.40822
285.40822
285.40822
285.40823
285.40823
285.40824
285.40824
285.40824
285.40825
285.40825
285.40826
285.40826
285.40827
285.40827
285.40827
285.40828
285.40828
285.40829
285.40829
285.4083
285.4083
285.4083
285.40831
285.40831
285.40832
285.40832
285.40832
285.40833
285.40833
285.40834
285.40834
285.40834
285.40835
285.40835
285.40836
285.40836
285.40836
285.40837
285.40837
285.40838
285.40838
285.40838
285.40839
285.40839
285.4084
285.4084
285.40841
285.40841
285.40841
285.40842
285.40842
285.40843
285.40843
285.40844
285.40844
285.40845
285.40845
285.40845
285.40846
285.40846
285.40847
285.40847
285.40847
285.40848
285.40848
285.40849
285.40849
285.4085
285.4085
285.4085
285.40851
285.40851
285.40852
285.40852
285.40853
285.40853
285.40853
285.40854
285.40854
285.40854
285.40855
285.40855
285.40856
285.40856
285.40857
285.40857
285.40858
285.40858
285.40859
285.40859
285.4086
285.4086
285.40861
285.40861
285.40861
285.40862
285.40862
285.40863
285.40863
285.40864
285.40864
285.40864
285.40865
285.40865
285.40866
285.40866
285.40867
285.40867
285.40868
285.40868
285.40868
285.40869
285.40869
285.4087
285.4087
285.40871
285.40871
285.40872
285.40872
285.40873
285.40873
285.40874
285.40874
285.40875
285.40875
285.40876
285.40876
285.40877
285.40877
285.40877
285.40878
285.40878
285.40879
285.40879
285.4088
285.4088
285.40881
285.40881
285.40882
285.40882
285.40883
285.40883
285.40884
285.40884
285.40885
285.40885
285.40886
285.40886
285.40887
285.40887
285.40888
285.40888
285.40889
285.40889
285.4089
285.4089
285.40891
285.40891
285.40892
285.40892
285.40893
285.40894
285.40894
285.40895
285.40895
285.40896
285.40896
285.40897
285.40897
285.40898
285.40898
285.40899
285.40899
285.409
285.409
285.40901
285.40901
285.40902
285.40902
285.40903
285.40903
285.40904
285.40904
285.40905
285.40906
285.40906
285.40907
285.40907
285.40908
285.40908
285.40909
285.4091
285.4091
285.40911
285.40911
285.40912
285.40912
285.40913
285.40914
285.40914
285.40915
285.40915
285.40916
285.40916
285.40917
285.40917
285.40918
285.40918
285.40919
285.4092
285.4092
285.40921
285.40921
285.40922
285.40923
285.40923
285.40924
285.40924
285.40925
285.40926
285.40926
285.40927
285.40927
285.40928
285.40929
285.40929
285.4093
285.4093
285.40931
285.40932
285.40932
285.40933
285.40933
285.40934
285.40935
285.40935
285.40936
285.40937
285.40937
285.40938
285.40938
285.40939
285.4094
285.4094
285.40941
285.40942
285.40942
285.40943
285.40943
285.40944
285.40945
285.40945
285.40946
285.40947
285.40947
285.40948
285.40949
285.40949
285.4095
285.4095
285.40951
285.40952
285.40953
285.40953
285.40954
285.40955
285.40955
285.40956
285.40957
285.40957
285.40958
285.40959
285.40959
285.4096
285.40961
285.40962
285.40962
285.40963
285.40964
285.40964
285.40965
285.40966
285.40966
285.40967
285.40968
285.40968
285.40969
285.4097
285.4097
285.40971
285.40972
285.40973
285.40973
285.40974
285.40975
285.40976
285.40976
285.40977
285.40978
285.40979
285.40979
285.4098
285.40981
285.40982
285.40982
285.40983
285.40984
285.40985
285.40985
285.40986
285.40987
285.40988
285.40988
285.40989
285.4099
285.40991
285.40991
285.40992
285.40993
285.40994
285.40995
285.40995
285.40996
285.40997
285.40998
285.40999
285.40999
285.41
285.41001
285.41002
285.41003
285.41004
285.41004
285.41005
285.41006
285.41007
285.41008
285.41008
285.41009
285.4101
285.41011
285.41012
285.41012
285.41013
285.41014
285.41015
285.41016
285.41017
285.41018
285.41018
285.41019
285.4102
285.41021
285.41022
285.41023
285.41024
285.41025
285.41025
285.41026
285.41027
285.41028
285.41029
285.4103
285.41031
285.41032
285.41033
285.41034
285.41034
285.41035
285.41036
285.41037
285.41038
285.41039
285.4104
285.41041
285.41042
285.41043
285.41043
285.41044
285.41045
285.41046
285.41047
285.41048
285.41049
285.4105
285.41051
285.41052
285.41053
285.41054
285.41055
285.41056
285.41057
285.41058
285.41059
285.4106
285.41061
285.41062
285.41063
285.41064
285.41065
285.41066
285.41067
285.41068
285.41069
285.4107
285.41071
285.41072
285.41074
285.41075
285.41076
285.41077
285.41078
285.41079
285.4108
285.41081
285.41082
285.41083
285.41084
285.41085
285.41086
285.41087
285.41088
285.41089
285.41091
285.41092
285.41093
285.41094
285.41095
285.41096
285.41097
285.41098
285.411
285.41101
285.41102
285.41103
285.41104
285.41105
285.41107
285.41108
285.41109
285.4111
285.41111
285.41112
285.41114
285.41115
285.41116
285.41117
285.41119
285.4112
285.41121
285.41122
285.41123
285.41125
285.41126
285.41127
285.41128
285.4113
285.41131
285.41132
285.41133
285.41135
285.41136
285.41137
285.41139
285.4114
285.41141
285.41143
285.41144
285.41145
285.41147
285.41148
285.41149
285.41151
285.41152
285.41153
285.41155
285.41156
285.41157
285.41159
285.4116
285.41161
285.41163
285.41164
285.41166
285.41167
285.41168
285.4117
285.41171
285.41173
285.41174
285.41176
285.41177
285.41179
285.4118
285.41182
285.41183
285.41185
285.41186
285.41188
285.41189
285.41191
285.41193
285.41194
285.41196
285.41197
285.41199
285.41201
285.41202
285.41204
285.41205
285.41207
285.41208
285.4121
285.41211
285.41213
285.41215
285.41216
285.41218
285.4122
285.41221
285.41223
285.41225
285.41226
285.41228
285.4123
285.41232
285.41234
285.41235
285.41237
285.41239
285.41241
285.41242
285.41244
285.41246
285.41248
285.41249
285.41251
285.41253
285.41255
285.41257
285.41258
285.4126
285.41262
285.41264
285.41266
285.41268
285.4127
285.41272
285.41274
285.41276
285.41278
285.4128
285.41282
285.41284
285.41286
285.41288
285.4129
285.41292
285.41294
285.41296
285.41298
285.41301
285.41303
285.41305
285.41307
285.41309
285.41311
285.41313
285.41315
285.41317
285.4132
285.41322
285.41324
285.41326
285.41328
285.41331
285.41333
285.41335
285.41338
285.4134
285.41342
285.41345
285.41347
285.4135
285.41352
285.41354
285.41357
285.41359
285.41361
285.41364
285.41366
285.41369
285.41372
285.41374
285.41377
285.4138
285.41382
285.41385
285.41388
285.4139
285.41393
285.41396
285.41398
285.41401
285.41404
285.41407
285.41409
285.41412
285.41415
285.41418
285.4142
285.41423
285.41426
285.41429
285.41432
285.41435
285.41438
285.41441
285.41444
285.41448
285.41451
285.41454
285.41457
285.4146
285.41464
285.41467
285.4147
285.41473
285.41476
285.41479
285.41482
285.41486
285.41489
285.41492
285.41495
285.41499
285.41502
285.41505
285.41509
285.41512
285.41516
285.41519
285.41523
285.41527
285.4153
285.41534
285.41538
285.41542
285.41546
285.4155
285.41554
285.41558
285.41562
285.41566
285.4157
285.41574
285.41579
285.41583
285.41587
285.41591
285.41596
285.416
285.41604
285.41609
285.41613
285.41617
285.41622
285.41626
285.41631
285.41636
285.4164
285.41645
285.4165
285.41655
285.41659
285.41664
285.41669
285.41674
285.4168
285.41685
285.4169
285.41695
285.417
285.41706
285.41711
285.41716
285.41722
285.41727
285.41733
285.41738
285.41744
285.4175
285.41756
285.41762
285.41768
285.41774
285.4178
285.41786
285.41793
285.41799
285.41806
285.41812
285.41819
285.41826
285.41832
285.41839
285.41846
285.41853
285.4186
285.41868
285.41875
285.41883
285.4189
285.41898
285.41906
285.41914
285.41922
285.4193
285.41938
285.41946
285.41955
285.41963
285.41972
285.4198
285.41989
285.41998
285.42007
285.42016
285.42026
285.42035
285.42045
285.42055
285.42065
285.42075
285.42085
285.42096
285.42107
285.42117
285.42128
285.42139
285.4215
285.42161
285.42172
285.42183
285.42195
285.42206
285.42218
285.42229
285.42241
285.42252
285.42264
285.42276
285.42287
285.42299
285.4231
285.42321
285.42332
285.42342
285.42352
285.42362
285.42371
285.4238
285.42388
285.42395
285.42402
285.42408
285.42414
285.42418
285.42422
285.42425
285.42427
285.42429
285.4243
285.4243
285.4243
285.4243
285.4243
285.42428
285.42426
285.42424
285.42423
285.42421
285.4242
285.4242
285.42419
285.42419
285.4242
285.4242
285.42423
285.42429
285.42439
285.4245
285.42464
285.42479
285.42496
285.42515
285.42536
285.42558
285.42581
285.42606
285.42631
285.42657
285.42683
285.42709
285.42735
285.4276
285.42785
285.42809
285.42832
285.42854
285.42874
285.42892
285.42907
285.4292
285.4293
285.42938
285.42943
285.42946
285.42949
285.42955
285.42968
285.42995
285.43059
285.43213
285.43586
285.44505
285.46769
285.52361
285.66111
285.96498
286.3905
286.91828
287.54318
288.25526
289.04086
289.88349
290.76495
291.66637
292.56923
293.45631
294.31233
295.12452
295.8829
296.58036
297.21256
297.77773
298.27631
298.71058
299.0842
299.40185
299.66881
299.89069
300.07309
300.22145
300.34086
300.43597
300.51096
300.56946
300.61462
300.64911
300.67516
300.6946
300.70892
300.71931
300.72672
300.7319
300.73543
300.73775
300.7392
300.74002
300.74042
300.74055
300.74055
300.74045
300.74011
300.7396
300.7391
300.73863
300.73818
300.73775
300.73734
300.73694
300.73656
300.73619
300.73582
300.73545
300.73508
300.73471
300.73433
300.73393
300.73353
300.73311
300.73268
300.73224
300.73178
300.73131
300.73084
300.73035
300.72986
300.72937
300.72888
300.72839
300.7279
300.72743
300.72696
300.72651
300.72607
300.72564
300.72523
300.72484
300.72446
300.7241
300.72375
300.72343
300.72311
300.72282
300.72253
300.72226
300.72201
300.72176
300.72153
300.7213
300.72109
300.72089
300.72069
300.7205
300.72032
300.72014
300.71997
300.71981
300.71965
300.71949
300.71934
300.71919
300.71905
300.71891
300.71877
300.71864
300.71851
300.71838
300.71826
300.71813
300.71801
300.7179
300.71778
300.71766
300.71755
300.71744
300.71733
300.71722
300.71712
300.71701
300.71691
300.71681
300.71671
300.71661
300.71652
300.71642
300.71633
300.71624
300.71615
300.71606
300.71597
300.71588
300.7158
300.71571
300.71563
300.71555
300.71547
300.71539
300.71531
300.71523
300.71515
300.71508
300.715
300.71493
300.71486
300.71479
300.71471
300.71464
300.71457
300.71451
300.71444
300.71437
300.7143
300.71424
300.71418
300.71411
300.71405
300.71399
300.71393
300.71386
300.7138
300.71374
300.71369
300.71363
300.71357
300.71351
300.71345
300.7134
300.71334
300.71329
300.71323
300.71318
300.71313
300.71307
300.71302
300.71297
300.71292
300.71287
300.71282
300.71277
300.71272
300.71267
300.71262
300.71257
300.71253
300.71248
300.71243
300.71239
300.71234
300.7123
300.71225
300.71221
300.71217
300.71212
300.71208
300.71204
300.712
300.71195
300.71191
300.71187
300.71183
300.71179
300.71175
300.71171
300.71167
300.71163
300.71159
300.71155
300.71151
300.71148
300.71144
300.7114
300.71136
300.71133
300.71129
300.71126
300.71122
300.71118
300.71115
300.71111
300.71108