/*--------------------------------*- C++ -*----------------------------------*\
  =========                 |
  \\      /  F ield         | OpenFOAM: The Open Source CFD Toolbox
   \\    /   O peration     | Website:  https://openfoam.org
    \\  /    A nd           | Version:  7
     \\/     M anipulation  |
\*---------------------------------------------------------------------------*/
FoamFile
{
    version     2.0;
    format      ascii;
    class       volScalarField;
    location    "0.0017";
    object      p;
}
// * * * * * * * * * * * * * * * * * * * * * * * * * * * * * * * * * * * * * //

dimensions      [1 -1 -2 0 0 0 0];

internalField   nonuniform List<scalar> 
5000
(
99832.994
99833.162
99833.333
99833.508
99833.762
99834.067
99834.419
99834.821
99835.272
99835.773
99836.325
99836.927
99837.579
99838.282
99839.037
99839.843
99840.701
99841.612
99842.575
99843.592
99844.662
99845.786
99846.965
99848.199
99849.489
99850.835
99852.238
99853.698
99855.217
99856.794
99858.43
99860.127
99861.884
99863.703
99865.584
99867.529
99869.537
99871.609
99873.747
99875.951
99878.222
99880.561
99882.968
99885.445
99887.993
99890.612
99893.303
99896.068
99898.906
99901.82
99904.81
99907.877
99911.022
99914.245
99917.549
99920.934
99924.4
99927.95
99931.583
99935.302
99939.106
99942.998
99946.977
99951.046
99955.205
99959.455
99963.797
99968.232
99972.762
99977.387
99982.108
99986.926
99991.843
99996.859
100001.98
100007.19
100012.51
100017.94
100023.47
100029.1
100034.84
100040.69
100046.64
100052.71
100058.88
100065.17
100071.57
100078.08
100084.7
100091.44
100098.3
100105.27
100112.36
100119.56
100126.89
100134.34
100141.9
100149.59
100157.4
100165.33
100173.39
100181.57
100189.87
100198.3
100206.86
100215.54
100224.35
100233.29
100242.36
100251.55
100260.88
100270.33
100279.92
100289.64
100299.49
100309.47
100319.58
100329.83
100340.21
100350.72
100361.37
100372.15
100383.07
100394.12
100405.31
100416.63
100428.08
100439.67
100451.4
100463.26
100475.26
100487.4
100499.67
100512.08
100524.62
100537.3
100550.12
100563.07
100576.16
100589.38
100602.74
100616.24
100629.87
100643.64
100657.54
100671.58
100685.75
100700.06
100714.51
100729.08
100743.79
100758.64
100773.62
100788.73
100803.97
100819.35
100834.86
100850.5
100866.27
100882.18
100898.21
100914.37
100930.67
100947.09
100963.64
100980.32
100997.12
101014.05
101031.11
101048.3
101065.61
101083.04
101100.6
101118.28
101136.09
101154.02
101172.07
101190.23
101208.52
101226.93
101245.46
101264.11
101282.87
101301.75
101320.75
101339.86
101359.08
101378.42
101397.87
101417.44
101437.11
101456.9
101476.8
101496.8
101516.92
101537.14
101557.46
101577.9
101598.43
101619.07
101639.82
101660.67
101681.62
101702.66
101723.81
101745.06
101766.41
101787.85
101809.39
101831.02
101852.75
101874.58
101896.49
101918.5
101940.6
101962.78
101985.06
102007.43
102029.88
102052.42
102075.04
102097.75
102120.55
102143.42
102166.38
102189.42
102212.53
102235.73
102259.01
102282.36
102305.79
102329.29
102352.87
102376.52
102400.24
102424.04
102447.91
102471.84
102495.85
102519.92
102544.06
102568.27
102592.54
102616.87
102641.27
102665.73
102690.26
102714.84
102739.48
102764.18
102788.94
102813.76
102838.63
102863.56
102888.54
102913.57
102938.66
102963.8
102988.99
103014.22
103039.51
103064.84
103090.22
103115.65
103141.12
103166.64
103192.2
103217.8
103243.44
103269.12
103294.85
103320.61
103346.41
103372.24
103398.11
103424.02
103449.96
103475.94
103501.95
103527.98
103554.05
103580.15
103606.28
103632.44
103658.62
103684.83
103711.07
103737.33
103763.61
103789.92
103816.24
103842.59
103868.96
103895.35
103921.76
103948.18
103974.62
104001.08
104027.55
104054.04
104080.54
104107.05
104133.58
104160.11
104186.66
104213.21
104239.77
104266.34
104292.92
104319.5
104346.09
104372.68
104399.27
104425.87
104452.46
104479.06
104505.66
104532.25
104558.85
104585.44
104612.03
104638.61
104665.19
104691.76
104718.33
104744.88
104771.43
104797.97
104824.5
104851.02
104877.52
104904.01
104930.49
104956.96
104983.41
105009.84
105036.25
105062.65
105089.03
105115.39
105141.73
105168.05
105194.35
105220.62
105246.87
105273.09
105299.29
105325.47
105351.62
105377.73
105403.83
105429.89
105455.92
105481.92
105507.89
105533.82
105559.72
105585.59
105611.42
105637.22
105662.98
105688.7
105714.38
105740.02
105765.63
105791.19
105816.71
105842.19
105867.62
105893.01
105918.36
105943.66
105968.91
105994.11
106019.27
106044.38
106069.43
106094.44
106119.39
106144.3
106169.15
106193.94
106218.68
106243.36
106267.99
106292.56
106317.07
106341.53
106365.92
106390.25
106414.53
106438.74
106462.88
106486.96
106510.98
106534.93
106558.82
106582.64
106606.39
106630.07
106653.69
106677.23
106700.7
106724.1
106747.43
106770.69
106793.87
106816.97
106840.01
106862.96
106885.84
106908.64
106931.36
106954
106976.56
106999.04
107021.44
107043.75
107065.98
107088.13
107110.2
107132.17
107154.07
107175.87
107197.59
107219.22
107240.76
107262.21
107283.57
107304.84
107326.02
107347.1
107368.1
107388.99
107409.8
107430.51
107451.12
107471.63
107492.05
107512.37
107532.6
107552.72
107572.74
107592.67
107612.49
107632.21
107651.83
107671.35
107690.76
107710.07
107729.27
107748.37
107767.36
107786.25
107805.03
107823.7
107842.27
107860.73
107879.08
107897.31
107915.44
107933.46
107951.37
107969.17
107986.85
108004.43
108021.89
108039.24
108056.47
108073.59
108090.6
108107.49
108124.27
108140.93
108157.48
108173.91
108190.22
108206.42
108222.5
108238.46
108254.31
108270.04
108285.65
108301.14
108316.51
108331.77
108346.9
108361.92
108376.81
108391.59
108406.25
108420.79
108435.21
108449.5
108463.68
108477.74
108491.68
108505.49
108519.19
108532.77
108546.22
108559.56
108572.77
108585.86
108598.84
108611.69
108624.42
108637.03
108649.52
108661.89
108674.15
108686.28
108698.29
108710.18
108721.95
108733.6
108745.14
108756.55
108767.85
108779.02
108790.08
108801.02
108811.85
108822.55
108833.14
108843.61
108853.97
108864.21
108874.33
108884.34
108894.23
108904.01
108913.67
108923.22
108932.66
108941.98
108951.19
108960.29
108969.28
108978.15
108986.92
108995.57
109004.12
109012.56
109020.89
109029.11
109037.22
109045.23
109053.13
109060.92
109068.61
109076.2
109083.68
109091.06
109098.34
109105.51
109112.59
109119.56
109126.44
109133.21
109139.89
109146.47
109152.95
109159.34
109165.63
109171.83
109177.94
109183.95
109189.87
109195.69
109201.43
109207.08
109212.64
109218.1
109223.49
109228.78
109233.99
109239.12
109244.16
109249.12
109253.99
109258.78
109263.5
109268.13
109272.68
109277.15
109281.55
109285.87
109290.12
109294.29
109298.38
109302.41
109306.36
109310.23
109314.04
109317.78
109321.45
109325.05
109328.58
109332.05
109335.45
109338.79
109342.06
109345.27
109348.42
109351.51
109354.53
109357.5
109360.41
109363.26
109366.05
109368.79
109371.47
109374.09
109376.66
109379.18
109381.65
109384.07
109386.43
109388.74
109391.01
109393.23
109395.4
109397.52
109399.59
109401.63
109403.61
109405.55
109407.45
109409.31
109411.13
109412.9
109414.64
109416.33
109417.99
109419.61
109421.19
109422.73
109424.24
109425.71
109427.15
109428.55
109429.92
109431.26
109432.57
109433.84
109435.08
109436.3
109437.48
109438.63
109439.76
109440.85
109441.92
109442.97
109443.98
109444.97
109445.94
109446.88
109447.8
109448.69
109449.56
109450.4
109451.23
109452.03
109452.81
109453.57
109454.32
109455.04
109455.74
109456.42
109457.08
109457.73
109458.36
109458.97
109459.56
109460.14
109460.7
109461.25
109461.78
109462.3
109462.8
109463.28
109463.76
109464.22
109464.66
109465.1
109465.52
109465.92
109466.32
109466.71
109467.08
109467.44
109467.79
109468.13
109468.47
109468.79
109469.1
109469.4
109469.69
109469.98
109470.25
109470.52
109470.78
109471.03
109471.27
109471.51
109471.73
109471.95
109472.17
109472.37
109472.57
109472.77
109472.96
109473.14
109473.31
109473.48
109473.65
109473.81
109473.96
109474.11
109474.26
109474.4
109474.53
109474.66
109474.79
109474.91
109475.03
109475.14
109475.25
109475.36
109475.46
109475.56
109475.65
109475.75
109475.84
109475.92
109476
109476.08
109476.16
109476.24
109476.31
109476.38
109476.45
109476.51
109476.57
109476.63
109476.69
109476.75
109476.8
109476.85
109476.9
109476.95
109477
109477.04
109477.09
109477.13
109477.17
109477.21
109477.25
109477.28
109477.32
109477.35
109477.38
109477.41
109477.44
109477.47
109477.5
109477.52
109477.55
109477.57
109477.6
109477.62
109477.64
109477.66
109477.68
109477.7
109477.72
109477.74
109477.76
109477.77
109477.79
109477.8
109477.82
109477.83
109477.84
109477.86
109477.87
109477.88
109477.89
109477.9
109477.91
109477.92
109477.93
109477.94
109477.95
109477.96
109477.97
109477.98
109477.98
109477.99
109478
109478
109478.01
109478.02
109478.02
109478.03
109478.03
109478.04
109478.04
109478.05
109478.05
109478.06
109478.06
109478.06
109478.07
109478.07
109478.07
109478.08
109478.08
109478.08
109478.09
109478.09
109478.09
109478.09
109478.09
109478.1
109478.1
109478.1
109478.1
109478.1
109478.11
109478.11
109478.11
109478.11
109478.11
109478.11
109478.11
109478.11
109478.12
109478.12
109478.12
109478.12
109478.12
109478.12
109478.12
109478.12
109478.12
109478.12
109478.12
109478.12
109478.12
109478.12
109478.13
109478.13
109478.13
109478.13
109478.13
109478.13
109478.13
109478.13
109478.13
109478.13
109478.13
109478.13
109478.13
109478.13
109478.13
109478.13
109478.13
109478.13
109478.13
109478.13
109478.13
109478.13
109478.13
109478.13
109478.13
109478.13
109478.13
109478.13
109478.13
109478.13
109478.13
109478.14
109478.14
109478.14
109478.14
109478.14
109478.14
109478.14
109478.14
109478.14
109478.14
109478.14
109478.14
109478.14
109478.14
109478.14
109478.14
109478.14
109478.14
109478.14
109478.14
109478.14
109478.15
109478.15
109478.15
109478.15
109478.15
109478.15
109478.15
109478.15
109478.15
109478.15
109478.15
109478.15
109478.15
109478.15
109478.15
109478.15
109478.15
109478.16
109478.16
109478.16
109478.16
109478.16
109478.16
109478.16
109478.16
109478.16
109478.16
109478.16
109478.16
109478.16
109478.16
109478.16
109478.16
109478.16
109478.16
109478.16
109478.16
109478.16
109478.17
109478.17
109478.17
109478.17
109478.17
109478.17
109478.17
109478.17
109478.17
109478.17
109478.17
109478.17
109478.17
109478.17
109478.17
109478.17
109478.17
109478.17
109478.17
109478.17
109478.17
109478.17
109478.17
109478.17
109478.17
109478.17
109478.17
109478.17
109478.17
109478.17
109478.17
109478.17
109478.17
109478.17
109478.17
109478.17
109478.18
109478.18
109478.18
109478.18
109478.18
109478.18
109478.18
109478.18
109478.18
109478.18
109478.18
109478.18
109478.18
109478.18
109478.18
109478.18
109478.18
109478.18
109478.18
109478.18
109478.18
109478.18
109478.18
109478.18
109478.18
109478.18
109478.18
109478.18
109478.18
109478.18
109478.18
109478.18
109478.18
109478.18
109478.18
109478.18
109478.18
109478.18
109478.18
109478.18
109478.18
109478.19
109478.19
109478.19
109478.19
109478.19
109478.19
109478.19
109478.19
109478.19
109478.19
109478.19
109478.19
109478.19
109478.19
109478.19
109478.19
109478.19
109478.19
109478.19
109478.19
109478.19
109478.19
109478.19
109478.19
109478.19
109478.19
109478.19
109478.19
109478.19
109478.19
109478.19
109478.19
109478.19
109478.19
109478.19
109478.19
109478.19
109478.2
109478.2
109478.2
109478.2
109478.2
109478.2
109478.2
109478.2
109478.2
109478.2
109478.2
109478.2
109478.2
109478.2
109478.2
109478.2
109478.2
109478.2
109478.2
109478.2
109478.2
109478.2
109478.2
109478.2
109478.2
109478.2
109478.2
109478.2
109478.2
109478.2
109478.2
109478.2
109478.2
109478.2
109478.2
109478.2
109478.2
109478.2
109478.2
109478.2
109478.2
109478.2
109478.2
109478.2
109478.2
109478.2
109478.2
109478.2
109478.2
109478.2
109478.2
109478.21
109478.21
109478.21
109478.21
109478.21
109478.21
109478.21
109478.21
109478.21
109478.21
109478.21
109478.21
109478.21
109478.21
109478.21
109478.21
109478.21
109478.21
109478.21
109478.21
109478.21
109478.21
109478.21
109478.21
109478.21
109478.21
109478.21
109478.21
109478.21
109478.21
109478.21
109478.21
109478.21
109478.21
109478.21
109478.21
109478.21
109478.21
109478.21
109478.21
109478.21
109478.21
109478.21
109478.21
109478.21
109478.22
109478.22
109478.22
109478.22
109478.22
109478.22
109478.22
109478.22
109478.22
109478.22
109478.22
109478.22
109478.22
109478.22
109478.22
109478.22
109478.22
109478.22
109478.22
109478.22
109478.22
109478.22
109478.22
109478.22
109478.22
109478.22
109478.22
109478.22
109478.22
109478.22
109478.22
109478.22
109478.22
109478.22
109478.22
109478.22
109478.22
109478.22
109478.22
109478.22
109478.22
109478.22
109478.22
109478.22
109478.22
109478.22
109478.22
109478.22
109478.23
109478.23
109478.23
109478.23
109478.23
109478.23
109478.23
109478.23
109478.23
109478.23
109478.23
109478.23
109478.23
109478.23
109478.23
109478.23
109478.23
109478.23
109478.23
109478.23
109478.23
109478.23
109478.23
109478.23
109478.23
109478.23
109478.23
109478.23
109478.23
109478.23
109478.23
109478.23
109478.23
109478.23
109478.23
109478.23
109478.23
109478.23
109478.23
109478.23
109478.24
109478.24
109478.24
109478.24
109478.24
109478.24
109478.24
109478.24
109478.24
109478.24
109478.24
109478.24
109478.24
109478.24
109478.24
109478.24
109478.24
109478.24
109478.24
109478.24
109478.24
109478.24
109478.24
109478.24
109478.24
109478.24
109478.24
109478.24
109478.24
109478.24
109478.24
109478.24
109478.24
109478.24
109478.24
109478.24
109478.24
109478.24
109478.24
109478.24
109478.24
109478.24
109478.25
109478.25
109478.25
109478.25
109478.25
109478.25
109478.25
109478.25
109478.25
109478.25
109478.25
109478.25
109478.25
109478.25
109478.25
109478.25
109478.25
109478.25
109478.25
109478.25
109478.25
109478.25
109478.25
109478.25
109478.25
109478.25
109478.25
109478.25
109478.25
109478.25
109478.25
109478.25
109478.25
109478.25
109478.25
109478.25
109478.25
109478.25
109478.25
109478.25
109478.25
109478.25
109478.25
109478.25
109478.25
109478.25
109478.25
109478.25
109478.25
109478.25
109478.25
109478.25
109478.25
109478.25
109478.25
109478.25
109478.25
109478.25
109478.25
109478.25
109478.25
109478.25
109478.25
109478.25
109478.25
109478.25
109478.25
109478.25
109478.25
109478.25
109478.25
109478.25
109478.25
109478.25
109478.25
109478.25
109478.25
109478.25
109478.25
109478.25
109478.25
109478.25
109478.25
109478.25
109478.25
109478.25
109478.25
109478.25
109478.25
109478.25
109478.25
109478.25
109478.25
109478.25
109478.25
109478.25
109478.25
109478.25
109478.25
109478.26
109478.26
109478.26
109478.26
109478.26
109478.26
109478.26
109478.26
109478.26
109478.26
109478.26
109478.26
109478.26
109478.26
109478.26
109478.26
109478.26
109478.26
109478.26
109478.26
109478.26
109478.26
109478.26
109478.26
109478.26
109478.26
109478.26
109478.26
109478.26
109478.26
109478.26
109478.26
109478.26
109478.26
109478.26
109478.26
109478.26
109478.26
109478.26
109478.26
109478.26
109478.26
109478.26
109478.26
109478.26
109478.26
109478.26
109478.26
109478.26
109478.26
109478.26
109478.26
109478.26
109478.26
109478.26
109478.27
109478.27
109478.27
109478.27
109478.27
109478.27
109478.27
109478.27
109478.27
109478.27
109478.27
109478.27
109478.27
109478.27
109478.27
109478.27
109478.27
109478.27
109478.27
109478.27
109478.27
109478.27
109478.27
109478.27
109478.27
109478.27
109478.27
109478.27
109478.27
109478.27
109478.27
109478.27
109478.27
109478.27
109478.27
109478.27
109478.27
109478.27
109478.27
109478.27
109478.27
109478.27
109478.27
109478.27
109478.27
109478.27
109478.27
109478.27
109478.27
109478.27
109478.27
109478.27
109478.27
109478.27
109478.27
109478.27
109478.27
109478.27
109478.27
109478.27
109478.27
109478.27
109478.27
109478.27
109478.27
109478.27
109478.28
109478.28
109478.28
109478.28
109478.28
109478.28
109478.28
109478.28
109478.28
109478.28
109478.28
109478.28
109478.28
109478.28
109478.28
109478.28
109478.28
109478.28
109478.28
109478.28
109478.28
109478.28
109478.28
109478.28
109478.28
109478.28
109478.28
109478.28
109478.28
109478.28
109478.28
109478.28
109478.28
109478.28
109478.28
109478.28
109478.28
109478.28
109478.28
109478.28
109478.28
109478.28
109478.28
109478.28
109478.28
109478.28
109478.28
109478.28
109478.28
109478.28
109478.28
109478.28
109478.28
109478.28
109478.28
109478.28
109478.28
109478.28
109478.28
109478.28
109478.28
109478.28
109478.28
109478.28
109478.28
109478.28
109478.28
109478.28
109478.28
109478.28
109478.28
109478.28
109478.28
109478.28
109478.28
109478.28
109478.29
109478.29
109478.29
109478.29
109478.29
109478.29
109478.29
109478.29
109478.29
109478.29
109478.29
109478.29
109478.29
109478.29
109478.29
109478.29
109478.29
109478.29
109478.29
109478.29
109478.29
109478.29
109478.29
109478.29
109478.29
109478.29
109478.29
109478.29
109478.29
109478.29
109478.29
109478.29
109478.29
109478.29
109478.29
109478.29
109478.29
109478.29
109478.29
109478.29
109478.29
109478.29
109478.29
109478.29
109478.29
109478.29
109478.29
109478.29
109478.29
109478.29
109478.29
109478.29
109478.29
109478.29
109478.29
109478.29
109478.29
109478.29
109478.29
109478.29
109478.29
109478.29
109478.29
109478.29
109478.29
109478.29
109478.29
109478.29
109478.29
109478.29
109478.29
109478.29
109478.29
109478.3
109478.3
109478.3
109478.3
109478.3
109478.3
109478.3
109478.3
109478.3
109478.3
109478.3
109478.3
109478.3
109478.3
109478.3
109478.3
109478.3
109478.3
109478.3
109478.3
109478.3
109478.3
109478.3
109478.3
109478.3
109478.3
109478.3
109478.3
109478.3
109478.3
109478.3
109478.3
109478.3
109478.3
109478.3
109478.3
109478.3
109478.3
109478.3
109478.3
109478.3
109478.3
109478.3
109478.3
109478.3
109478.3
109478.3
109478.3
109478.3
109478.3
109478.3
109478.3
109478.3
109478.3
109478.3
109478.3
109478.3
109478.3
109478.3
109478.3
109478.3
109478.3
109478.3
109478.3
109478.3
109478.3
109478.3
109478.3
109478.3
109478.3
109478.3
109478.3
109478.3
109478.3
109478.31
109478.31
109478.31
109478.31
109478.31
109478.31
109478.31
109478.31
109478.31
109478.31
109478.31
109478.31
109478.31
109478.31
109478.31
109478.31
109478.31
109478.31
109478.31
109478.31
109478.31
109478.31
109478.31
109478.31
109478.31
109478.31
109478.31
109478.31
109478.31
109478.31
109478.31
109478.31
109478.31
109478.31
109478.31
109478.31
109478.31
109478.31
109478.31
109478.31
109478.31
109478.31
109478.31
109478.31
109478.31
109478.31
109478.31
109478.31
109478.31
109478.31
109478.31
109478.31
109478.31
109478.31
109478.31
109478.31
109478.31
109478.31
109478.31
109478.31
109478.31
109478.31
109478.31
109478.31
109478.31
109478.31
109478.31
109478.31
109478.31
109478.31
109478.31
109478.31
109478.31
109478.31
109478.31
109478.31
109478.31
109478.31
109478.31
109478.31
109478.31
109478.31
109478.31
109478.31
109478.31
109478.31
109478.31
109478.31
109478.31
109478.31
109478.31
109478.31
109478.31
109478.31
109478.31
109478.31
109478.31
109478.31
109478.31
109478.31
109478.31
109478.31
109478.31
109478.31
109478.31
109478.31
109478.31
109478.31
109478.31
109478.31
109478.31
109478.31
109478.31
109478.31
109478.31
109478.31
109478.31
109478.31
109478.31
109478.31
109478.31
109478.31
109478.31
109478.31
109478.31
109478.31
109478.31
109478.31
109478.31
109478.31
109478.31
109478.31
109478.31
109478.31
109478.31
109478.31
109478.31
109478.31
109478.31
109478.31
109478.31
109478.31
109478.31
109478.31
109478.31
109478.31
109478.31
109478.31
109478.31
109478.31
109478.31
109478.31
109478.31
109478.31
109478.31
109478.31
109478.31
109478.31
109478.31
109478.31
109478.31
109478.31
109478.31
109478.31
109478.31
109478.31
109478.31
109478.31
109478.31
109478.31
109478.31
109478.31
109478.31
109478.31
109478.31
109478.31
109478.31
109478.31
109478.31
109478.31
109478.31
109478.31
109478.31
109478.31
109478.31
109478.31
109478.31
109478.31
109478.31
109478.31
109478.31
109478.32
109478.32
109478.32
109478.32
109478.32
109478.32
109478.32
109478.32
109478.32
109478.32
109478.32
109478.32
109478.32
109478.32
109478.32
109478.32
109478.32
109478.32
109478.32
109478.32
109478.32
109478.32
109478.32
109478.32
109478.32
109478.32
109478.32
109478.32
109478.32
109478.32
109478.32
109478.32
109478.32
109478.32
109478.32
109478.32
109478.32
109478.32
109478.32
109478.32
109478.32
109478.32
109478.32
109478.32
109478.32
109478.32
109478.32
109478.32
109478.32
109478.32
109478.32
109478.32
109478.32
109478.32
109478.32
109478.32
109478.32
109478.32
109478.32
109478.32
109478.32
109478.32
109478.32
109478.32
109478.32
109478.32
109478.32
109478.32
109478.32
109478.32
109478.32
109478.32
109478.32
109478.32
109478.32
109478.32
109478.32
109478.32
109478.32
109478.32
109478.32
109478.32
109478.32
109478.32
109478.32
109478.32
109478.33
109478.33
109478.33
109478.33
109478.33
109478.33
109478.33
109478.33
109478.33
109478.33
109478.33
109478.33
109478.33
109478.33
109478.33
109478.33
109478.33
109478.33
109478.33
109478.33
109478.33
109478.33
109478.33
109478.33
109478.33
109478.33
109478.33
109478.33
109478.33
109478.33
109478.33
109478.33
109478.33
109478.33
109478.33
109478.33
109478.33
109478.33
109478.33
109478.33
109478.33
109478.33
109478.33
109478.33
109478.33
109478.33
109478.33
109478.33
109478.33
109478.33
109478.33
109478.33
109478.33
109478.33
109478.33
109478.33
109478.33
109478.33
109478.33
109478.33
109478.33
109478.33
109478.33
109478.33
109478.33
109478.33
109478.33
109478.33
109478.33
109478.33
109478.33
109478.33
109478.33
109478.33
109478.33
109478.33
109478.33
109478.33
109478.33
109478.33
109478.33
109478.33
109478.33
109478.33
109478.33
109478.33
109478.33
109478.33
109478.33
109478.33
109478.33
109478.33
109478.33
109478.33
109478.33
109478.33
109478.33
109478.33
109478.33
109478.33
109478.33
109478.33
109478.33
109478.33
109478.33
109478.33
109478.33
109478.33
109478.33
109478.33
109478.33
109478.33
109478.33
109478.33
109478.33
109478.33
109478.33
109478.33
109478.33
109478.33
109478.33
109478.33
109478.33
109478.33
109478.33
109478.33
109478.33
109478.33
109478.33
109478.33
109478.33
109478.33
109478.33
109478.33
109478.33
109478.33
109478.33
109478.33
109478.33
109478.33
109478.33
109478.33
109478.33
109478.33
109478.33
109478.33
109478.33
109478.33
109478.33
109478.33
109478.33
109478.33
109478.33
109478.33
109478.33
109478.33
109478.33
109478.33
109478.33
109478.33
109478.33
109478.33
109478.33
109478.33
109478.33
109478.33
109478.33
109478.33
109478.33
109478.33
109478.33
109478.33
109478.33
109478.34
109478.34
109478.34
109478.34
109478.34
109478.34
109478.34
109478.34
109478.34
109478.34
109478.34
109478.34
109478.34
109478.34
109478.34
109478.34
109478.34
109478.34
109478.34
109478.34
109478.34
109478.34
109478.34
109478.34
109478.34
109478.34
109478.34
109478.34
109478.34
109478.34
109478.34
109478.34
109478.34
109478.34
109478.34
109478.34
109478.34
109478.34
109478.34
109478.34
109478.34
109478.34
109478.34
109478.34
109478.34
109478.34
109478.34
109478.34
109478.34
109478.34
109478.34
109478.34
109478.34
109478.34
109478.34
109478.34
109478.34
109478.34
109478.34
109478.34
109478.34
109478.34
109478.34
109478.34
109478.34
109478.34
109478.34
109478.34
109478.34
109478.34
109478.34
109478.34
109478.34
109478.34
109478.34
109478.34
109478.34
109478.34
109478.34
109478.34
109478.34
109478.34
109478.34
109478.34
109478.34
109478.34
109478.34
109478.34
109478.34
109478.34
109478.34
109478.34
109478.34
109478.34
109478.34
109478.34
109478.34
109478.34
109478.34
109478.34
109478.34
109478.34
109478.34
109478.34
109478.34
109478.34
109478.34
109478.34
109478.34
109478.34
109478.34
109478.34
109478.34
109478.34
109478.34
109478.34
109478.34
109478.34
109478.34
109478.34
109478.34
109478.34
109478.34
109478.34
109478.34
109478.34
109478.34
109478.34
109478.34
109478.34
109478.34
109478.34
109478.34
109478.34
109478.34
109478.34
109478.34
109478.34
109478.34
109478.34
109478.34
109478.34
109478.34
109478.34
109478.34
109478.34
109478.34
109478.34
109478.34
109478.34
109478.34
109478.34
109478.34
109478.34
109478.34
109478.34
109478.34
109478.34
109478.34
109478.34
109478.34
109478.34
109478.34
109478.34
109478.34
109478.34
109478.34
109478.34
109478.34
109478.34
109478.34
109478.34
109478.34
109478.34
109478.34
109478.34
109478.34
109478.34
109478.34
109478.34
109478.34
109478.34
109478.34
109478.34
109478.34
109478.34
109478.34
109478.34
109478.34
109478.34
109478.34
109478.34
109478.34
109478.34
109478.34
109478.34
109478.34
109478.34
109478.34
109478.34
109478.34
109478.34
109478.34
109478.34
109478.34
109478.34
109478.34
109478.34
109478.34
109478.34
109478.34
109478.34
109478.34
109478.34
109478.34
109478.34
109478.34
109478.34
109478.34
109478.34
109478.34
109478.34
109478.34
109478.34
109478.34
109478.34
109478.34
109478.34
109478.34
109478.34
109478.34
109478.34
109478.34
109478.34
109478.34
109478.34
109478.34
109478.34
109478.34
109478.34
109478.34
109478.34
109478.34
109478.35
109478.35
109478.35
109478.35
109478.35
109478.35
109478.35
109478.35
109478.35
109478.35
109478.35
109478.35
109478.35
109478.35
109478.35
109478.35
109478.35
109478.35
109478.35
109478.35
109478.35
109478.35
109478.35
109478.35
109478.35
109478.35
109478.35
109478.35
109478.35
109478.35
109478.35
109478.35
109478.35
109478.35
109478.35
109478.35
109478.35
109478.35
109478.35
109478.35
109478.35
109478.35
109478.35
109478.35
109478.35
109478.35
109478.35
109478.35
109478.35
109478.35
109478.35
109478.35
109478.35
109478.35
109478.35
109478.35
109478.35
109478.35
109478.35
109478.35
109478.35
109478.35
109478.35
109478.35
109478.35
109478.35
109478.35
109478.35
109478.35
109478.35
109478.35
109478.35
109478.35
109478.35
109478.35
109478.35
109478.35
109478.35
109478.35
109478.35
109478.35
109478.35
109478.35
109478.35
109478.35
109478.35
109478.35
109478.35
109478.35
109478.35
109478.35
109478.35
109478.35
109478.35
109478.35
109478.35
109478.35
109478.35
109478.35
109478.35
109478.35
109478.35
109478.35
109478.35
109478.35
109478.35
109478.35
109478.35
109478.35
109478.35
109478.35
109478.35
109478.35
109478.35
109478.35
109478.35
109478.35
109478.35
109478.35
109478.35
109478.35
109478.35
109478.35
109478.35
109478.35
109478.35
109478.35
109478.35
109478.35
109478.35
109478.35
109478.35
109478.35
109478.35
109478.35
109478.35
109478.35
109478.35
109478.35
109478.35
109478.35
109478.35
109478.35
109478.35
109478.35
109478.35
109478.35
109478.35
109478.35
109478.35
109478.35
109478.35
109478.35
109478.35
109478.35
109478.35
109478.35
109478.35
109478.35
109478.35
109478.35
109478.35
109478.35
109478.35
109478.35
109478.35
109478.35
109478.35
109478.35
109478.35
109478.35
109478.35
109478.35
109478.35
109478.35
109478.35
109478.35
109478.35
109478.35
109478.35
109478.35
109478.35
109478.35
109478.35
109478.35
109478.35
109478.35
109478.35
109478.35
109478.35
109478.35
109478.35
109478.35
109478.35
109478.35
109478.35
109478.35
109478.35
109478.35
109478.35
109478.35
109478.35
109478.35
109478.35
109478.35
109478.35
109478.35
109478.35
109478.35
109478.35
109478.35
109478.35
109478.35
109478.35
109478.35
109478.35
109478.35
109478.35
109478.35
109478.35
109478.35
109478.35
109478.35
109478.35
109478.35
109478.35
109478.35
109478.35
109478.35
109478.35
109478.35
109478.35
109478.35
109478.35
109478.35
109478.35
109478.35
109478.35
109478.35
109478.35
109478.35
109478.35
109478.35
109478.35
109478.35
109478.35
109478.35
109478.35
109478.35
109478.34
109478.34
109478.34
109478.34
109478.34
109478.34
109478.34
109478.35
109478.36
109478.37
109478.37
109478.38
109478.38
109478.4
109478.28
109478.32
109478.33
109478.33
109478.33
109478.34
109478.34
109478.34
109478.35
109478.35
109478.35
109478.35
109478.35
109478.35
109478.35
109478.35
109478.35
109478.35
109478.35
109478.35
109478.35
109478.35
109478.35
109478.35
109478.35
109478.35
109478.35
109478.35
109478.35
109478.35
109478.35
109478.35
109478.35
109478.35
109478.35
109478.35
109478.35
109478.35
109478.35
109478.35
109478.35
109478.35
109478.35
109478.35
109478.35
109478.35
109478.35
109478.35
109478.35
109478.35
109478.35
109478.35
109478.35
109478.35
109478.35
109478.35
109478.35
109478.35
109478.35
109478.35
109478.35
109478.35
109478.35
109478.35
109478.35
109478.35
109478.35
109478.35
109478.35
109478.35
109478.35
109478.35
109478.35
109478.35
109478.35
109478.35
109478.35
109478.35
109478.35
109478.35
109478.35
109478.35
109478.35
109478.35
109478.35
109478.35
109478.35
109478.35
109478.35
109478.35
109478.35
109478.35
109478.35
109478.35
109478.35
109478.35
109478.35
109478.35
109478.35
109478.35
109478.35
109478.35
109478.35
109478.35
109478.35
109478.35
109478.35
109478.35
109478.35
109478.35
109478.35
109478.35
109478.35
109478.35
109478.35
109478.35
109478.35
109478.35
109478.35
109478.35
109478.35
109478.35
109478.35
109478.35
109478.35
109478.35
109478.35
109478.35
109478.35
109478.35
109478.35
109478.35
109478.35
109478.35
109478.35
109478.35
109478.35
109478.35
109478.35
109478.35
109478.35
109478.35
109478.35
109478.35
109478.35
109478.35
109478.35
109478.35
109478.35
109478.35
109478.35
109478.35
109478.35
109478.35
109478.35
109478.35
109478.35
109478.35
109478.35
109478.35
109478.35
109478.35
109478.35
109478.35
109478.35
109478.35
109478.35
109478.35
109478.35
109478.35
109478.35
109478.35
109478.35
109478.35
109478.35
109478.35
109478.35
109478.35
109478.35
109478.35
109478.35
109478.35
109478.35
109478.35
109478.35
109478.35
109478.35
109478.35
109478.35
109478.35
109478.35
109478.35
109478.35
109478.35
109478.35
109478.35
109478.35
109478.35
109478.35
109478.35
109478.35
109478.35
109478.35
109478.35
109478.35
109478.35
109478.35
109478.35
109478.35
109478.35
109478.35
109478.35
109478.35
109478.35
109478.35
109478.35
109478.35
109478.35
109478.35
109478.35
109478.35
109478.35
109478.35
109478.35
109478.35
109478.35
109478.35
109478.35
109478.35
109478.35
109478.35
109478.35
109478.35
109478.35
109478.35
109478.35
109478.35
109478.35
109478.35
109478.35
109478.35
109478.35
109478.35
109478.35
109478.35
109478.35
109478.35
109478.35
109478.35
109478.35
109478.35
109478.35
109478.35
109478.35
109478.35
109478.35
109478.35
109478.35
109478.35
109478.35
109478.35
109478.35
109478.35
109478.35
109478.35
109478.35
109478.35
109478.35
109478.35
109478.35
109478.35