/*--------------------------------*- C++ -*----------------------------------*\
  =========                 |
  \\      /  F ield         | OpenFOAM: The Open Source CFD Toolbox
   \\    /   O peration     | Website:  https://openfoam.org
    \\  /    A nd           | Version:  7
     \\/     M anipulation  |
\*---------------------------------------------------------------------------*/
FoamFile
{
    version     2.0;
    format      ascii;
    class       volScalarField;
    location    "0.0017";
    object      T;
}
// * * * * * * * * * * * * * * * * * * * * * * * * * * * * * * * * * * * * * //

dimensions      [0 0 0 1 0 0 0];

internalField   nonuniform List<scalar> 
5000
(
277.97169
277.97183
277.97188
277.97197
277.97212
277.97233
277.97258
277.97288
277.97323
277.97362
277.97406
277.97454
277.97506
277.97562
277.97622
277.97686
277.97755
277.97828
277.97905
277.97986
277.98072
277.98162
277.98256
277.98355
277.98458
277.98566
277.98678
277.98795
277.98916
277.99042
277.99173
277.99309
277.9945
277.99595
277.99746
277.99901
278.00062
278.00228
278.00399
278.00575
278.00756
278.00943
278.01136
278.01334
278.01538
278.01747
278.01962
278.02183
278.0241
278.02643
278.02882
278.03127
278.03379
278.03636
278.03901
278.04171
278.04448
278.04732
278.05022
278.05319
278.05623
278.05934
278.06252
278.06577
278.06909
278.07249
278.07596
278.0795
278.08312
278.08681
278.09058
278.09443
278.09835
278.10236
278.10644
278.11061
278.11486
278.11919
278.1236
278.1281
278.13268
278.13734
278.1421
278.14694
278.15186
278.15688
278.16198
278.16717
278.17246
278.17783
278.1833
278.18886
278.19451
278.20026
278.2061
278.21204
278.21807
278.2242
278.23042
278.23674
278.24316
278.24968
278.2563
278.26301
278.26983
278.27675
278.28376
278.29088
278.2981
278.30543
278.31285
278.32038
278.32801
278.33575
278.34359
278.35153
278.35958
278.36773
278.37599
278.38436
278.39283
278.4014
278.41008
278.41887
278.42777
278.43677
278.44588
278.45509
278.46441
278.47384
278.48338
278.49302
278.50277
278.51262
278.52259
278.53266
278.54284
278.55312
278.56351
278.57401
278.58462
278.59533
278.60615
278.61708
278.62811
278.63924
278.65049
278.66184
278.67329
278.68485
278.69651
278.70828
278.72016
278.73213
278.74421
278.7564
278.76869
278.78108
278.79357
278.80616
278.81886
278.83166
278.84456
278.85756
278.87066
278.88385
278.89715
278.91055
278.92404
278.93763
278.95132
278.96511
278.97899
278.99297
279.00704
279.02121
279.03547
279.04983
279.06427
279.07881
279.09344
279.10817
279.12298
279.13788
279.15288
279.16796
279.18313
279.19838
279.21373
279.22916
279.24467
279.26027
279.27596
279.29172
279.30758
279.32351
279.33952
279.35562
279.37179
279.38805
279.40438
279.42079
279.43728
279.45384
279.47048
279.4872
279.50399
279.52086
279.53779
279.5548
279.57188
279.58903
279.60626
279.62355
279.64091
279.65833
279.67583
279.69339
279.71101
279.7287
279.74646
279.76428
279.78216
279.8001
279.81811
279.83617
279.8543
279.87248
279.89072
279.90902
279.92737
279.94578
279.96425
279.98277
280.00135
280.01997
280.03865
280.05738
280.07616
280.09499
280.11387
280.1328
280.15177
280.1708
280.18987
280.20898
280.22814
280.24734
280.26659
280.28587
280.3052
280.32457
280.34398
280.36343
280.38292
280.40245
280.42201
280.44161
280.46125
280.48092
280.50063
280.52036
280.54014
280.55994
280.57978
280.59964
280.61954
280.63946
280.65942
280.6794
280.69941
280.71944
280.7395
280.75959
280.7797
280.79983
280.81999
280.84017
280.86037
280.88059
280.90083
280.92109
280.94137
280.96167
280.98198
281.00231
281.02266
281.04302
281.0634
281.08379
281.1042
281.12461
281.14504
281.16548
281.18593
281.20639
281.22686
281.24734
281.26782
281.28832
281.30882
281.32932
281.34983
281.37035
281.39086
281.41138
281.43191
281.45243
281.47296
281.49349
281.51402
281.53454
281.55507
281.57559
281.59611
281.61663
281.63714
281.65765
281.67815
281.69865
281.71914
281.73962
281.7601
281.78057
281.80102
281.82147
281.84191
281.86233
281.88275
281.90315
281.92354
281.94391
281.96428
281.98462
282.00495
282.02527
282.04556
282.06584
282.08611
282.10635
282.12657
282.14678
282.16696
282.18712
282.20726
282.22738
282.24748
282.26755
282.2876
282.30762
282.32761
282.34759
282.36753
282.38744
282.40733
282.42719
282.44702
282.46682
282.48659
282.50633
282.52604
282.54571
282.56535
282.58496
282.60454
282.62408
282.64358
282.66305
282.68248
282.70187
282.72123
282.74054
282.75982
282.77906
282.79826
282.81742
282.83653
282.85561
282.87464
282.89363
282.91257
282.93147
282.95032
282.96913
282.9879
283.00661
283.02528
283.0439
283.06247
283.08099
283.09947
283.11789
283.13626
283.15458
283.17285
283.19106
283.20922
283.22733
283.24538
283.26338
283.28132
283.29921
283.31704
283.33481
283.35252
283.37018
283.38777
283.40531
283.42279
283.4402
283.45756
283.47485
283.49208
283.50925
283.52635
283.54339
283.56036
283.57727
283.59412
283.6109
283.62761
283.64425
283.66083
283.67734
283.69378
283.71015
283.72645
283.74268
283.75884
283.77493
283.79094
283.80689
283.82276
283.83856
283.85428
283.86993
283.8855
283.901
283.91643
283.93178
283.94705
283.96224
283.97736
283.9924
284.00736
284.02225
284.03705
284.05177
284.06642
284.08098
284.09546
284.10987
284.12418
284.13842
284.15258
284.16665
284.18064
284.19455
284.20837
284.22211
284.23577
284.24933
284.26282
284.27622
284.28953
284.30276
284.3159
284.32895
284.34192
284.3548
284.3676
284.3803
284.39292
284.40545
284.41789
284.43024
284.4425
284.45468
284.46676
284.47876
284.49066
284.50248
284.51421
284.52584
284.53739
284.54884
284.56021
284.57148
284.58266
284.59376
284.60476
284.61567
284.62649
284.63721
284.64785
284.6584
284.66885
284.67921
284.68948
284.69966
284.70975
284.71975
284.72965
284.73947
284.74919
284.75882
284.76836
284.77781
284.78717
284.79644
284.80561
284.8147
284.82369
284.8326
284.84141
284.85014
284.85877
284.86732
284.87577
284.88414
284.89241
284.9006
284.9087
284.91671
284.92463
284.93247
284.94021
284.94787
284.95544
284.96293
284.97032
284.97764
284.98486
284.992
284.99905
285.00602
285.01291
285.01971
285.02643
285.03306
285.03961
285.04608
285.05246
285.05876
285.06499
285.07113
285.07719
285.08317
285.08907
285.09489
285.10063
285.1063
285.11188
285.11739
285.12283
285.12818
285.13347
285.13867
285.1438
285.14886
285.15384
285.15875
285.16359
285.16836
285.17305
285.17768
285.18223
285.18672
285.19113
285.19548
285.19976
285.20397
285.20812
285.2122
285.21621
285.22016
285.22404
285.22786
285.23162
285.23532
285.23895
285.24253
285.24604
285.24949
285.25289
285.25622
285.2595
285.26272
285.26588
285.26899
285.27204
285.27504
285.27798
285.28087
285.28371
285.2865
285.28923
285.29192
285.29455
285.29713
285.29967
285.30215
285.30459
285.30698
285.30932
285.31162
285.31388
285.31609
285.31825
285.32038
285.32246
285.32449
285.32649
285.32844
285.33036
285.33223
285.33407
285.33587
285.33763
285.33936
285.34104
285.3427
285.34431
285.34589
285.34744
285.34895
285.35043
285.35187
285.35329
285.35467
285.35602
285.35734
285.35863
285.35989
285.36113
285.36233
285.36351
285.36466
285.36578
285.36688
285.36795
285.36899
285.37001
285.37101
285.37198
285.37293
285.37385
285.37475
285.37563
285.37649
285.37733
285.37815
285.37895
285.37972
285.38048
285.38122
285.38193
285.38263
285.38332
285.38398
285.38463
285.38526
285.38587
285.38647
285.38705
285.38762
285.38817
285.38871
285.38923
285.38974
285.39023
285.39071
285.39118
285.39164
285.39208
285.39251
285.39293
285.39333
285.39373
285.39411
285.39449
285.39485
285.3952
285.39554
285.39588
285.3962
285.39651
285.39682
285.39711
285.3974
285.39768
285.39795
285.39821
285.39846
285.39871
285.39895
285.39918
285.39941
285.39963
285.39984
285.40004
285.40024
285.40043
285.40062
285.4008
285.40098
285.40115
285.40131
285.40147
285.40163
285.40178
285.40192
285.40206
285.4022
285.40233
285.40246
285.40258
285.4027
285.40282
285.40293
285.40304
285.40314
285.40324
285.40334
285.40343
285.40352
285.40361
285.4037
285.40378
285.40386
285.40394
285.40401
285.40408
285.40415
285.40422
285.40429
285.40435
285.40441
285.40447
285.40452
285.40458
285.40463
285.40468
285.40473
285.40478
285.40483
285.40487
285.40491
285.40495
285.40499
285.40503
285.40507
285.4051
285.40514
285.40517
285.4052
285.40523
285.40526
285.40529
285.40532
285.40535
285.40537
285.4054
285.40542
285.40544
285.40546
285.40549
285.40551
285.40553
285.40555
285.40556
285.40558
285.4056
285.40562
285.40563
285.40565
285.40566
285.40567
285.40569
285.4057
285.40572
285.40573
285.40574
285.40575
285.40576
285.40577
285.40578
285.40579
285.4058
285.40581
285.40582
285.40583
285.40583
285.40584
285.40585
285.40586
285.40587
285.40587
285.40588
285.40589
285.40589
285.4059
285.40591
285.40591
285.40592
285.40592
285.40592
285.40593
285.40593
285.40594
285.40594
285.40595
285.40595
285.40595
285.40596
285.40596
285.40596
285.40597
285.40597
285.40597
285.40598
285.40598
285.40598
285.40599
285.40599
285.40599
285.40599
285.40599
285.406
285.406
285.406
285.406
285.40601
285.40601
285.40601
285.40601
285.40601
285.40602
285.40602
285.40602
285.40602
285.40602
285.40603
285.40603
285.40603
285.40603
285.40603
285.40604
285.40604
285.40604
285.40604
285.40604
285.40604
285.40604
285.40604
285.40604
285.40604
285.40605
285.40605
285.40605
285.40605
285.40605
285.40605
285.40605
285.40606
285.40606
285.40606
285.40606
285.40606
285.40606
285.40606
285.40607
285.40607
285.40607
285.40607
285.40607
285.40607
285.40607
285.40607
285.40607
285.40608
285.40608
285.40608
285.40608
285.40608
285.40608
285.40609
285.40609
285.40609
285.40609
285.40609
285.40609
285.40609
285.4061
285.4061
285.4061
285.4061
285.4061
285.4061
285.40611
285.40611
285.40611
285.40611
285.40611
285.40611
285.40612
285.40612
285.40612
285.40612
285.40612
285.40612
285.40612
285.40612
285.40612
285.40613
285.40613
285.40613
285.40613
285.40613
285.40614
285.40614
285.40614
285.40614
285.40614
285.40614
285.40614
285.40615
285.40615
285.40615
285.40615
285.40615
285.40615
285.40616
285.40616
285.40616
285.40616
285.40616
285.40616
285.40617
285.40617
285.40617
285.40617
285.40617
285.40617
285.40617
285.40617
285.40618
285.40618
285.40618
285.40618
285.40618
285.40618
285.40618
285.40619
285.40619
285.40619
285.40619
285.40619
285.40619
285.40619
285.4062
285.4062
285.4062
285.4062
285.4062
285.4062
285.4062
285.40621
285.40621
285.40621
285.40621
285.40621
285.40621
285.40621
285.40621
285.40621
285.40622
285.40622
285.40622
285.40622
285.40622
285.40623
285.40623
285.40623
285.40623
285.40623
285.40623
285.40623
285.40623
285.40624
285.40624
285.40624
285.40624
285.40624
285.40624
285.40624
285.40625
285.40625
285.40625
285.40625
285.40625
285.40625
285.40625
285.40626
285.40626
285.40626
285.40626
285.40626
285.40626
285.40626
285.40626
285.40627
285.40627
285.40627
285.40627
285.40627
285.40627
285.40627
285.40627
285.40628
285.40628
285.40628
285.40628
285.40628
285.40629
285.40629
285.40629
285.40629
285.40629
285.40629
285.4063
285.4063
285.4063
285.4063
285.4063
285.4063
285.4063
285.4063
285.4063
285.40631
285.40631
285.40631
285.40631
285.40632
285.40632
285.40632
285.40632
285.40632
285.40632
285.40632
285.40632
285.40632
285.40633
285.40633
285.40633
285.40633
285.40633
285.40633
285.40633
285.40634
285.40634
285.40634
285.40634
285.40634
285.40634
285.40634
285.40635
285.40635
285.40635
285.40635
285.40635
285.40635
285.40635
285.40636
285.40636
285.40636
285.40636
285.40636
285.40637
285.40637
285.40637
285.40637
285.40637
285.40637
285.40637
285.40637
285.40638
285.40638
285.40638
285.40638
285.40638
285.40638
285.40638
285.40638
285.40639
285.40639
285.40639
285.40639
285.40639
285.4064
285.4064
285.4064
285.4064
285.4064
285.4064
285.40641
285.40641
285.40641
285.40641
285.40641
285.40641
285.40641
285.40641
285.40641
285.40642
285.40642
285.40642
285.40642
285.40643
285.40643
285.40643
285.40643
285.40643
285.40643
285.40643
285.40643
285.40644
285.40644
285.40644
285.40644
285.40644
285.40644
285.40644
285.40645
285.40645
285.40645
285.40645
285.40645
285.40646
285.40646
285.40646
285.40646
285.40646
285.40646
285.40646
285.40646
285.40647
285.40647
285.40647
285.40647
285.40647
285.40648
285.40648
285.40648
285.40648
285.40648
285.40648
285.40648
285.40649
285.40649
285.40649
285.40649
285.40649
285.40649
285.4065
285.4065
285.4065
285.4065
285.4065
285.4065
285.40651
285.40651
285.40651
285.40651
285.40651
285.40651
285.40652
285.40652
285.40652
285.40652
285.40652
285.40652
285.40653
285.40653
285.40653
285.40653
285.40653
285.40653
285.40653
285.40654
285.40654
285.40654
285.40654
285.40654
285.40654
285.40655
285.40655
285.40655
285.40655
285.40655
285.40655
285.40656
285.40656
285.40656
285.40656
285.40656
285.40656
285.40657
285.40657
285.40657
285.40657
285.40658
285.40658
285.40658
285.40658
285.40658
285.40658
285.40658
285.40658
285.40659
285.40659
285.40659
285.40659
285.40659
285.4066
285.4066
285.4066
285.4066
285.4066
285.4066
285.40661
285.40661
285.40661
285.40661
285.40661
285.40661
285.40662
285.40662
285.40662
285.40662
285.40662
285.40663
285.40663
285.40663
285.40663
285.40663
285.40663
285.40663
285.40664
285.40664
285.40664
285.40664
285.40664
285.40665
285.40665
285.40665
285.40665
285.40665
285.40666
285.40666
285.40666
285.40666
285.40666
285.40667
285.40667
285.40667
285.40667
285.40667
285.40667
285.40668
285.40668
285.40668
285.40668
285.40668
285.40668
285.40668
285.40668
285.40669
285.40669
285.40669
285.40669
285.40669
285.4067
285.4067
285.4067
285.4067
285.4067
285.40671
285.40671
285.40671
285.40671
285.40671
285.40672
285.40672
285.40672
285.40672
285.40672
285.40672
285.40672
285.40673
285.40673
285.40673
285.40673
285.40673
285.40674
285.40674
285.40674
285.40674
285.40674
285.40674
285.40675
285.40675
285.40675
285.40675
285.40675
285.40676
285.40676
285.40676
285.40676
285.40676
285.40676
285.40677
285.40677
285.40677
285.40677
285.40677
285.40677
285.40678
285.40678
285.40678
285.40678
285.40679
285.40679
285.40679
285.40679
285.40679
285.40679
285.4068
285.4068
285.4068
285.4068
285.4068
285.4068
285.4068
285.40681
285.40681
285.40681
285.40681
285.40681
285.40681
285.40682
285.40682
285.40682
285.40682
285.40682
285.40683
285.40683
285.40683
285.40683
285.40683
285.40684
285.40684
285.40684
285.40684
285.40684
285.40685
285.40685
285.40685
285.40685
285.40685
285.40685
285.40686
285.40686
285.40686
285.40686
285.40686
285.40687
285.40687
285.40687
285.40687
285.40687
285.40688
285.40688
285.40688
285.40688
285.40689
285.40689
285.40689
285.40689
285.40689
285.40689
285.4069
285.4069
285.4069
285.4069
285.4069
285.4069
285.40691
285.40691
285.40691
285.40691
285.40692
285.40692
285.40692
285.40692
285.40692
285.40693
285.40693
285.40693
285.40693
285.40693
285.40694
285.40694
285.40694
285.40694
285.40694
285.40694
285.40695
285.40695
285.40695
285.40695
285.40696
285.40696
285.40696
285.40696
285.40697
285.40697
285.40697
285.40697
285.40697
285.40698
285.40698
285.40698
285.40698
285.40699
285.40699
285.40699
285.40699
285.40699
285.407
285.407
285.407
285.407
285.407
285.40701
285.40701
285.40701
285.40701
285.40701
285.40702
285.40702
285.40702
285.40702
285.40702
285.40703
285.40703
285.40703
285.40703
285.40703
285.40704
285.40704
285.40704
285.40704
285.40704
285.40705
285.40705
285.40705
285.40705
285.40705
285.40706
285.40706
285.40706
285.40706
285.40706
285.40707
285.40707
285.40707
285.40707
285.40708
285.40708
285.40708
285.40708
285.40709
285.40709
285.40709
285.40709
285.4071
285.4071
285.4071
285.4071
285.40711
285.40711
285.40711
285.40711
285.40711
285.40712
285.40712
285.40712
285.40712
285.40712
285.40713
285.40713
285.40713
285.40713
285.40713
285.40714
285.40714
285.40714
285.40714
285.40715
285.40715
285.40715
285.40715
285.40716
285.40716
285.40716
285.40716
285.40716
285.40717
285.40717
285.40717
285.40717
285.40718
285.40718
285.40718
285.40718
285.40718
285.40719
285.40719
285.40719
285.4072
285.4072
285.4072
285.4072
285.4072
285.40721
285.40721
285.40721
285.40721
285.40721
285.40722
285.40722
285.40722
285.40722
285.40722
285.40723
285.40723
285.40723
285.40724
285.40724
285.40724
285.40725
285.40725
285.40725
285.40725
285.40726
285.40726
285.40726
285.40726
285.40726
285.40727
285.40727
285.40727
285.40727
285.40727
285.40728
285.40728
285.40728
285.40729
285.40729
285.40729
285.40729
285.4073
285.4073
285.4073
285.4073
285.4073
285.40731
285.40731
285.40731
285.40731
285.40732
285.40732
285.40732
285.40732
285.40733
285.40733
285.40733
285.40733
285.40734
285.40734
285.40734
285.40734
285.40735
285.40735
285.40735
285.40735
285.40736
285.40736
285.40736
285.40737
285.40737
285.40737
285.40737
285.40738
285.40738
285.40738
285.40738
285.40738
285.40739
285.40739
285.40739
285.40739
285.4074
285.4074
285.4074
285.40741
285.40741
285.40741
285.40742
285.40742
285.40742
285.40742
285.40743
285.40743
285.40743
285.40743
285.40743
285.40744
285.40744
285.40744
285.40745
285.40745
285.40745
285.40745
285.40746
285.40746
285.40746
285.40746
285.40747
285.40747
285.40747
285.40747
285.40748
285.40748
285.40748
285.40748
285.40749
285.40749
285.40749
285.4075
285.4075
285.4075
285.40751
285.40751
285.40751
285.40752
285.40752
285.40752
285.40752
285.40752
285.40753
285.40753
285.40753
285.40754
285.40754
285.40754
285.40754
285.40755
285.40755
285.40755
285.40756
285.40756
285.40756
285.40756
285.40757
285.40757
285.40757
285.40757
285.40758
285.40758
285.40758
285.40759
285.40759
285.40759
285.40759
285.4076
285.4076
285.4076
285.4076
285.40761
285.40761
285.40761
285.40762
285.40762
285.40762
285.40763
285.40763
285.40763
285.40764
285.40764
285.40764
285.40765
285.40765
285.40765
285.40765
285.40766
285.40766
285.40766
285.40766
285.40767
285.40767
285.40767
285.40768
285.40768
285.40768
285.40769
285.40769
285.40769
285.4077
285.4077
285.4077
285.40771
285.40771
285.40771
285.40772
285.40772
285.40772
285.40772
285.40773
285.40773
285.40773
285.40774
285.40774
285.40774
285.40774
285.40775
285.40775
285.40775
285.40776
285.40776
285.40776
285.40776
285.40777
285.40777
285.40778
285.40778
285.40778
285.40779
285.40779
285.40779
285.4078
285.4078
285.4078
285.40781
285.40781
285.40781
285.40782
285.40782
285.40782
285.40782
285.40783
285.40783
285.40783
285.40784
285.40784
285.40784
285.40785
285.40785
285.40785
285.40786
285.40786
285.40786
285.40787
285.40787
285.40787
285.40788
285.40788
285.40788
285.40789
285.40789
285.40789
285.4079
285.4079
285.4079
285.40791
285.40791
285.40791
285.40792
285.40792
285.40792
285.40793
285.40793
285.40793
285.40794
285.40794
285.40794
285.40795
285.40795
285.40795
285.40796
285.40796
285.40796
285.40797
285.40797
285.40797
285.40798
285.40798
285.40798
285.40799
285.40799
285.40799
285.408
285.408
285.408
285.40801
285.40801
285.40801
285.40802
285.40802
285.40802
285.40803
285.40803
285.40803
285.40804
285.40804
285.40805
285.40805
285.40805
285.40806
285.40806
285.40806
285.40806
285.40807
285.40807
285.40807
285.40808
285.40808
285.40809
285.40809
285.40809
285.4081
285.4081
285.4081
285.40811
285.40811
285.40812
285.40812
285.40812
285.40813
285.40813
285.40813
285.40814
285.40814
285.40814
285.40815
285.40815
285.40816
285.40816
285.40816
285.40817
285.40817
285.40817
285.40818
285.40818
285.40819
285.40819
285.40819
285.4082
285.4082
285.4082
285.40821
285.40821
285.40822
285.40822
285.40822
285.40823
285.40823
285.40824
285.40824
285.40824
285.40825
285.40825
285.40826
285.40826
285.40826
285.40827
285.40827
285.40828
285.40828
285.40828
285.40829
285.40829
285.4083
285.4083
285.4083
285.40831
285.40831
285.40832
285.40832
285.40832
285.40833
285.40833
285.40834
285.40834
285.40835
285.40835
285.40836
285.40836
285.40837
285.40837
285.40837
285.40838
285.40838
285.40839
285.40839
285.40839
285.4084
285.4084
285.40841
285.40841
285.40842
285.40842
285.40842
285.40843
285.40843
285.40844
285.40844
285.40845
285.40845
285.40845
285.40846
285.40846
285.40847
285.40847
285.40847
285.40848
285.40849
285.40849
285.4085
285.4085
285.40851
285.40851
285.40851
285.40852
285.40852
285.40853
285.40853
285.40854
285.40854
285.40854
285.40855
285.40855
285.40856
285.40856
285.40857
285.40857
285.40858
285.40858
285.40859
285.40859
285.4086
285.4086
285.4086
285.40861
285.40861
285.40862
285.40862
285.40863
285.40863
285.40864
285.40864
285.40865
285.40865
285.40866
285.40866
285.40867
285.40867
285.40868
285.40868
285.40869
285.40869
285.4087
285.4087
285.4087
285.40871
285.40871
285.40872
285.40872
285.40873
285.40873
285.40874
285.40874
285.40875
285.40876
285.40876
285.40877
285.40877
285.40878
285.40878
285.40879
285.40879
285.4088
285.4088
285.40881
285.40881
285.40882
285.40882
285.40883
285.40883
285.40884
285.40884
285.40885
285.40885
285.40886
285.40886
285.40887
285.40887
285.40888
285.40888
285.40889
285.40889
285.4089
285.40891
285.40891
285.40892
285.40892
285.40893
285.40893
285.40894
285.40894
285.40895
285.40895
285.40896
285.40896
285.40897
285.40898
285.40898
285.40899
285.40899
285.409
285.409
285.40901
285.40902
285.40902
285.40903
285.40903
285.40904
285.40904
285.40905
285.40906
285.40906
285.40907
285.40907
285.40908
285.40908
285.40909
285.40909
285.4091
285.4091
285.40911
285.40912
285.40912
285.40913
285.40913
285.40914
285.40915
285.40915
285.40916
285.40917
285.40917
285.40918
285.40918
285.40919
285.4092
285.4092
285.40921
285.40921
285.40922
285.40923
285.40923
285.40924
285.40924
285.40925
285.40926
285.40926
285.40927
285.40927
285.40928
285.40929
285.40929
285.4093
285.40931
285.40931
285.40932
285.40933
285.40933
285.40934
285.40934
285.40935
285.40936
285.40936
285.40937
285.40938
285.40938
285.40939
285.4094
285.4094
285.40941
285.40941
285.40942
285.40943
285.40943
285.40944
285.40945
285.40946
285.40946
285.40947
285.40948
285.40948
285.40949
285.4095
285.40951
285.40951
285.40952
285.40953
285.40953
285.40954
285.40955
285.40955
285.40956
285.40957
285.40957
285.40958
285.40959
285.40959
285.4096
285.40961
285.40961
285.40962
285.40963
285.40963
285.40964
285.40965
285.40966
285.40966
285.40967
285.40968
285.40969
285.4097
285.40971
285.40971
285.40972
285.40973
285.40974
285.40974
285.40975
285.40976
285.40976
285.40977
285.40978
285.40979
285.40979
285.4098
285.40981
285.40982
285.40982
285.40983
285.40984
285.40985
285.40986
285.40986
285.40987
285.40988
285.40989
285.4099
285.4099
285.40991
285.40992
285.40993
285.40994
285.40995
285.40995
285.40996
285.40997
285.40998
285.40999
285.40999
285.41
285.41001
285.41002
285.41003
285.41003
285.41004
285.41005
285.41006
285.41007
285.41008
285.41009
285.41009
285.4101
285.41011
285.41012
285.41013
285.41014
285.41015
285.41016
285.41016
285.41017
285.41018
285.41019
285.4102
285.41021
285.41022
285.41023
285.41024
285.41025
285.41026
285.41027
285.41027
285.41028
285.41029
285.4103
285.41031
285.41032
285.41033
285.41034
285.41034
285.41035
285.41036
285.41037
285.41038
285.41039
285.4104
285.41041
285.41042
285.41043
285.41044
285.41045
285.41046
285.41047
285.41048
285.41049
285.4105
285.41051
285.41052
285.41053
285.41054
285.41055
285.41056
285.41057
285.41058
285.41059
285.4106
285.41061
285.41062
285.41063
285.41064
285.41066
285.41067
285.41068
285.41069
285.4107
285.41071
285.41072
285.41073
285.41074
285.41075
285.41076
285.41077
285.41078
285.41079
285.4108
285.41081
285.41083
285.41084
285.41085
285.41086
285.41087
285.41088
285.41089
285.41091
285.41092
285.41093
285.41094
285.41095
285.41096
285.41097
285.41099
285.411
285.41101
285.41102
285.41103
285.41105
285.41106
285.41107
285.41108
285.4111
285.41111
285.41112
285.41113
285.41114
285.41116
285.41117
285.41118
285.41119
285.41121
285.41122
285.41123
285.41124
285.41126
285.41127
285.41128
285.4113
285.41131
285.41132
285.41134
285.41135
285.41136
285.41138
285.41139
285.4114
285.41142
285.41143
285.41144
285.41146
285.41147
285.41148
285.4115
285.41151
285.41153
285.41154
285.41155
285.41157
285.41158
285.4116
285.41161
285.41162
285.41164
285.41165
285.41167
285.41168
285.4117
285.41171
285.41173
285.41174
285.41176
285.41177
285.41179
285.4118
285.41182
285.41184
285.41185
285.41187
285.41188
285.4119
285.41192
285.41193
285.41195
285.41196
285.41198
285.412
285.41201
285.41203
285.41204
285.41206
285.41207
285.41209
285.41211
285.41212
285.41214
285.41216
285.41218
285.41219
285.41221
285.41223
285.41225
285.41226
285.41228
285.4123
285.41232
285.41234
285.41235
285.41237
285.41239
285.41241
285.41242
285.41244
285.41246
285.41248
285.41249
285.41251
285.41253
285.41255
285.41257
285.41259
285.41261
285.41263
285.41265
285.41267
285.41269
285.41271
285.41273
285.41275
285.41277
285.41279
285.41281
285.41283
285.41285
285.41287
285.41289
285.41292
285.41294
285.41296
285.41298
285.413
285.41302
285.41304
285.41307
285.41309
285.41311
285.41313
285.41315
285.41317
285.41319
285.41322
285.41324
285.41326
285.41329
285.41331
285.41333
285.41336
285.41338
285.41341
285.41343
285.41345
285.41348
285.4135
285.41352
285.41355
285.41357
285.4136
285.41362
285.41365
285.41368
285.4137
285.41373
285.41376
285.41379
285.41381
285.41384
285.41387
285.41389
285.41392
285.41395
285.41397
285.414
285.41403
285.41406
285.41408
285.41411
285.41414
285.41417
285.4142
285.41423
285.41426
285.41429
285.41432
285.41435
285.41438
285.41441
285.41445
285.41448
285.41451
285.41454
285.41457
285.41461
285.41464
285.41467
285.4147
285.41473
285.41476
285.41479
285.41483
285.41486
285.41489
285.41492
285.41496
285.41499
285.41502
285.41506
285.4151
285.41513
285.41517
285.41521
285.41524
285.41528
285.41532
285.41536
285.4154
285.41544
285.41548
285.41552
285.41556
285.4156
285.41564
285.41569
285.41573
285.41577
285.41581
285.41586
285.4159
285.41594
285.41599
285.41603
285.41608
285.41612
285.41616
285.41621
285.41626
285.4163
285.41635
285.4164
285.41644
285.41649
285.41654
285.41659
285.41664
285.41669
285.41674
285.4168
285.41685
285.4169
285.41695
285.41701
285.41706
285.41711
285.41717
285.41722
285.41728
285.41733
285.41739
285.41745
285.41751
285.41757
285.41763
285.41769
285.41776
285.41782
285.41788
285.41795
285.41801
285.41808
285.41815
285.41821
285.41828
285.41835
285.41842
285.41849
285.41856
285.41864
285.41871
285.41879
285.41886
285.41894
285.41902
285.4191
285.41918
285.41926
285.41934
285.41943
285.41951
285.4196
285.41968
285.41977
285.41986
285.41995
285.42004
285.42013
285.42022
285.42032
285.42042
285.42052
285.42062
285.42072
285.42083
285.42094
285.42104
285.42115
285.42126
285.42137
285.42148
285.42159
285.42171
285.42182
285.42193
285.42204
285.42216
285.42227
285.42239
285.42251
285.42263
285.42274
285.42286
285.42298
285.42309
285.4232
285.42331
285.42342
285.42352
285.42361
285.4237
285.42379
285.42387
285.42395
285.42401
285.42407
285.42412
285.42417
285.4242
285.42423
285.42425
285.42426
285.42426
285.42426
285.42426
285.42426
285.42424
285.42421
285.42418
285.42415
285.42413
285.4241
285.42409
285.42408
285.42407
285.42407
285.42407
285.42408
285.4241
285.42416
285.42426
285.4244
285.42455
285.42472
285.4249
285.42511
285.42532
285.42556
285.4258
285.42606
285.42633
285.4266
285.42688
285.42715
285.42743
285.42769
285.42795
285.4282
285.42843
285.42864
285.42884
285.42902
285.42917
285.42931
285.42942
285.4295
285.42956
285.4296
285.42962
285.42965
285.42972
285.42985
285.43015
285.43084
285.43254
285.43671
285.44705
285.47272
285.53684
285.69504
286.07023
286.63434
287.32808
288.13792
289.04313
290.01851
291.03654
292.0694
293.09078
294.07733
295.00971
295.87313
296.65753
297.35738
297.97118
298.50078
298.95065
299.32713
299.63768
299.89031
300.09306
300.25366
300.37924
300.47618
300.55006
300.60565
300.64691
300.67711
300.69887
300.7143
300.72501
300.73227
300.73704
300.74004
300.74179
300.7427
300.74307
300.74313
300.74306
300.74273
300.74204
300.74136
300.74072
300.74012
300.73956
300.73904
300.73856
300.7381
300.73768
300.73727
300.73689
300.73652
300.73617
300.73582
300.73547
300.73513
300.73478
300.73442
300.73405
300.73366
300.73326
300.73284
300.73241
300.73196
300.73149
300.73101
300.73052
300.73002
300.72952
300.72901
300.7285
300.728
300.72751
300.72702
300.72655
300.72609
300.72565
300.72523
300.72482
300.72443
300.72406
300.72371
300.72338
300.72306
300.72276
300.72248
300.72221
300.72195
300.7217
300.72147
300.72125
300.72104
300.72083
300.72064
300.72045
300.72027
300.72009
300.71992
300.71976
300.7196
300.71944
300.71929
300.71915
300.719
300.71886
300.71872
300.71859
300.71846
300.71833
300.71821
300.71808
300.71796
300.71785
300.71773
300.71762
300.7175
300.71739
300.71728
300.71717
300.71707
300.71696
300.71686
300.71676
300.71666
300.71656
300.71646
300.71637
300.71627
300.71618
300.71609
300.716
300.71591
300.71583
300.71574
300.71566
300.71557
300.71549
300.71541
300.71533
300.71525
300.71517
300.7151
300.71502
300.71494
300.71487
300.7148
300.71472
300.71465
300.71458
300.71451
300.71444
300.71438
300.71431
300.71424
300.71418
300.71411
300.71405
300.71398
300.71392
300.71386
300.7138
300.71374
300.71368
300.71362
300.71356
300.71351
300.71345
300.71339
300.71333
300.71328
300.71322
300.71317
300.71311
300.71306
300.71301
300.71296
300.7129
300.71285
300.7128
300.71275
300.7127
300.71265
300.7126
300.71256
300.71251
300.71246
300.71241
300.71237
300.71232
300.71227
300.71223
300.71218
300.71214
300.7121
300.71205
300.71201
300.71197
300.71193
300.71188
300.71184
300.7118
300.71176
300.71172
300.71168
300.71164
300.7116
300.71156
300.71152
300.71148
300.71144
300.7114
300.71137
300.71133
300.71129
300.71125
300.71122
300.71118
300.71115
300.71111
300.71108
300.71104
300.71101
300.71097
300.71094
300.7109
300.71087
300.71083
300.7108
300.71077
300.71073
300.7107
300.71067
300.71064
300.71061
300.71058
300.71054
300.71051
300.71048
300.71045
300.71042
300.71039
300.71036
300.71033
300.7103
300.71027
300.71024
300.71021
300.71018
300.71016
300.71013
300.7101
300.71007
300.71004
300.71001
300.70998
300.70996
300.70993
300.7099
300.70988
300.70985
300.70982
300.7098
300.70977
300.70975
300.70972
300.7097
300.70967
300.70965
300.70962
300.70959
300.70957
300.70954
300.70952
300.70949
300.70947
300.70945
300.70942
300.7094
300.70937
300.70935
300.70933