/*--------------------------------*- C++ -*----------------------------------*\
  =========                 |
  \\      /  F ield         | OpenFOAM: The Open Source CFD Toolbox
   \\    /   O peration     | Website:  https://openfoam.org
    \\  /    A nd           | Version:  7
     \\/     M anipulation  |
\*---------------------------------------------------------------------------*/
FoamFile
{
    version     2.0;
    format      ascii;
    class       volScalarField;
    location    "0.00092";
    object      Ux;
}
// * * * * * * * * * * * * * * * * * * * * * * * * * * * * * * * * * * * * * //

dimensions      [0 1 -1 0 0 0 0];

internalField   nonuniform List<scalar> 
5000
(
-39.333291
-39.299756
-39.278086
-39.250308
-39.223874
-39.196522
-39.169262
-39.141486
-39.113732
-39.085638
-39.057564
-39.029299
-39.001047
-38.972702
-38.944364
-38.91599
-38.887617
-38.859237
-38.830857
-38.80248
-38.774105
-38.745735
-38.717369
-38.689009
-38.660654
-38.632306
-38.603962
-38.575626
-38.547295
-38.518971
-38.490652
-38.46234
-38.434033
-38.405734
-38.377439
-38.349152
-38.32087
-38.292595
-38.264326
-38.236063
-38.207806
-38.179556
-38.151311
-38.123074
-38.094841
-38.066616
-38.038396
-38.010183
-37.981975
-37.953775
-37.92558
-37.897392
-37.869209
-37.841034
-37.812863
-37.7847
-37.756542
-37.728391
-37.700245
-37.672107
-37.643974
-37.615848
-37.587727
-37.559614
-37.531505
-37.503404
-37.475308
-37.447219
-37.419135
-37.391059
-37.362987
-37.334923
-37.306864
-37.278812
-37.250765
-37.222726
-37.194691
-37.166664
-37.138642
-37.110627
-37.082617
-37.054615
-37.026618
-36.998628
-36.970644
-36.942668
-36.914698
-36.886735
-36.85878
-36.830832
-36.802892
-36.774961
-36.747038
-36.719124
-36.691218
-36.663323
-36.635436
-36.607559
-36.579693
-36.551835
-36.523988
-36.496151
-36.468323
-36.440504
-36.412694
-36.384893
-36.357099
-36.329312
-36.301532
-36.273758
-36.245988
-36.218223
-36.190461
-36.162701
-36.134942
-36.107185
-36.079427
-36.051669
-36.023909
-35.996147
-35.968383
-35.940616
-35.912846
-35.885072
-35.857296
-35.829515
-35.801731
-35.773944
-35.746154
-35.718361
-35.690565
-35.662767
-35.634967
-35.607166
-35.579364
-35.551561
-35.523758
-35.495955
-35.468154
-35.440353
-35.412555
-35.384758
-35.356964
-35.329173
-35.301384
-35.2736
-35.245819
-35.218042
-35.190269
-35.162501
-35.134738
-35.106979
-35.079225
-35.051477
-35.023734
-34.995996
-34.968263
-34.940537
-34.912815
-34.8851
-34.85739
-34.829686
-34.801988
-34.774295
-34.746609
-34.718928
-34.691253
-34.663584
-34.635922
-34.608265
-34.580614
-34.552969
-34.525329
-34.497696
-34.470069
-34.442448
-34.414833
-34.387223
-34.35962
-34.332023
-34.304432
-34.276846
-34.249267
-34.221694
-34.194126
-34.166565
-34.139009
-34.11146
-34.083917
-34.056379
-34.028848
-34.001322
-33.973803
-33.94629
-33.918782
-33.891281
-33.863786
-33.836297
-33.808813
-33.781336
-33.753866
-33.726401
-33.698942
-33.67149
-33.644044
-33.616604
-33.58917
-33.561743
-33.534322
-33.506907
-33.479499
-33.452097
-33.424702
-33.397313
-33.369931
-33.342555
-33.315186
-33.287824
-33.260468
-33.23312
-33.205778
-33.178443
-33.151115
-33.123794
-33.096479
-33.069172
-33.041871
-33.014578
-32.987291
-32.960012
-32.932739
-32.905473
-32.878213
-32.85096
-32.823714
-32.796475
-32.769241
-32.742014
-32.714793
-32.687578
-32.660368
-32.633164
-32.605966
-32.578772
-32.551584
-32.5244
-32.497221
-32.470047
-32.442876
-32.415709
-32.388545
-32.361385
-32.334228
-32.307074
-32.279923
-32.252774
-32.225627
-32.198482
-32.171339
-32.144197
-32.117057
-32.089919
-32.062781
-32.035645
-32.008509
-31.981375
-31.954241
-31.927108
-31.899975
-31.872844
-31.845713
-31.818583
-31.791453
-31.764324
-31.737196
-31.710069
-31.682943
-31.655818
-31.628695
-31.601572
-31.574451
-31.547332
-31.520214
-31.493098
-31.465984
-31.438872
-31.411763
-31.384656
-31.357551
-31.33045
-31.303351
-31.276255
-31.249163
-31.222073
-31.194988
-31.167906
-31.140827
-31.113753
-31.086682
-31.059616
-31.032554
-31.005496
-30.978442
-30.951393
-30.924349
-30.897309
-30.870274
-30.843244
-30.816219
-30.789199
-30.762184
-30.735174
-30.708168
-30.681168
-30.654174
-30.627184
-30.6002
-30.573221
-30.546247
-30.519278
-30.492315
-30.465358
-30.438405
-30.411458
-30.384516
-30.35758
-30.330649
-30.303723
-30.276803
-30.249888
-30.222979
-30.196075
-30.169176
-30.142283
-30.115395
-30.088513
-30.061636
-30.034764
-30.007898
-29.981038
-29.954183
-29.927333
-29.900489
-29.873651
-29.846819
-29.819992
-29.793171
-29.766355
-29.739546
-29.712742
-29.685945
-29.659153
-29.632368
-29.605589
-29.578816
-29.55205
-29.52529
-29.498537
-29.471791
-29.445051
-29.418318
-29.391593
-29.364874
-29.338163
-29.311459
-29.284763
-29.258074
-29.231393
-29.204719
-29.178054
-29.151397
-29.124747
-29.098106
-29.071473
-29.044848
-29.018232
-28.991624
-28.965024
-28.938433
-28.91185
-28.885276
-28.85871
-28.832152
-28.805603
-28.779061
-28.752528
-28.726003
-28.699486
-28.672977
-28.646475
-28.619981
-28.593494
-28.567014
-28.540542
-28.514076
-28.487617
-28.461164
-28.434717
-28.408276
-28.381841
-28.355411
-28.328986
-28.302566
-28.27615
-28.249739
-28.223332
-28.196929
-28.170529
-28.144133
-28.11774
-28.091349
-28.064961
-28.038575
-28.012192
-27.98581
-27.95943
-27.933052
-27.906674
-27.880298
-27.853923
-27.827549
-27.801175
-27.774802
-27.74843
-27.722058
-27.695686
-27.669315
-27.642943
-27.616572
-27.590201
-27.56383
-27.53746
-27.511089
-27.484719
-27.458349
-27.431979
-27.40561
-27.379241
-27.352872
-27.326504
-27.300137
-27.27377
-27.247404
-27.22104
-27.194676
-27.168313
-27.141952
-27.115592
-27.089234
-27.062878
-27.036523
-27.01017
-26.98382
-26.957471
-26.931125
-26.904781
-26.87844
-26.852102
-26.825766
-26.799434
-26.773104
-26.746778
-26.720455
-26.694135
-26.667819
-26.641507
-26.615198
-26.588893
-26.562592
-26.536295
-26.510002
-26.483713
-26.457428
-26.431148
-26.404871
-26.3786
-26.352333
-26.32607
-26.299812
-26.273558
-26.247309
-26.221065
-26.194826
-26.168592
-26.142362
-26.116137
-26.089917
-26.063703
-26.037493
-26.011288
-25.985088
-25.958893
-25.932703
-25.906518
-25.880339
-25.854164
-25.827995
-25.80183
-25.775671
-25.749517
-25.723369
-25.697225
-25.671086
-25.644953
-25.618825
-25.592702
-25.566585
-25.540472
-25.514365
-25.488263
-25.462166
-25.436074
-25.409988
-25.383907
-25.357831
-25.33176
-25.305695
-25.279634
-25.253579
-25.227529
-25.201485
-25.175445
-25.149411
-25.123382
-25.097358
-25.071339
-25.045326
-25.019318
-24.993315
-24.967317
-24.941324
-24.915337
-24.889355
-24.863378
-24.837406
-24.811439
-24.785478
-24.759521
-24.73357
-24.707624
-24.681683
-24.655748
-24.629817
-24.603892
-24.577972
-24.552057
-24.526147
-24.500242
-24.474343
-24.448449
-24.422559
-24.396675
-24.370796
-24.344923
-24.319054
-24.29319
-24.267332
-24.241479
-24.215631
-24.189788
-24.16395
-24.138117
-24.112289
-24.086467
-24.060649
-24.034837
-24.009029
-23.983227
-23.95743
-23.931638
-23.905851
-23.88007
-23.854293
-23.828521
-23.802755
-23.776993
-23.751237
-23.725485
-23.699739
-23.673998
-23.648261
-23.62253
-23.596804
-23.571083
-23.545367
-23.519656
-23.49395
-23.468249
-23.442554
-23.416863
-23.391177
-23.365496
-23.33982
-23.314149
-23.288484
-23.262823
-23.237167
-23.211516
-23.18587
-23.16023
-23.134594
-23.108963
-23.083337
-23.057716
-23.0321
-23.006489
-22.980882
-22.955281
-22.929685
-22.904093
-22.878507
-22.852925
-22.827349
-22.801777
-22.77621
-22.750648
-22.725091
-22.699538
-22.673991
-22.648448
-22.62291
-22.597377
-22.571848
-22.546325
-22.520806
-22.495292
-22.469782
-22.444278
-22.418778
-22.393282
-22.367792
-22.342306
-22.316824
-22.291347
-22.265875
-22.240407
-22.214944
-22.189485
-22.164031
-22.138581
-22.113135
-22.087694
-22.062257
-22.036824
-22.011396
-21.985971
-21.960551
-21.935135
-21.909723
-21.884315
-21.858911
-21.833511
-21.808114
-21.782721
-21.757332
-21.731947
-21.706565
-21.681186
-21.655811
-21.630439
-21.605071
-21.579705
-21.554342
-21.528982
-21.503625
-21.478271
-21.452919
-21.427569
-21.402222
-21.376877
-21.351533
-21.326192
-21.300852
-21.275514
-21.250176
-21.22484
-21.199505
-21.17417
-21.148836
-21.123502
-21.098168
-21.072833
-21.047498
-21.022162
-20.996825
-20.971487
-20.946146
-20.920804
-20.895459
-20.870112
-20.844761
-20.819407
-20.794048
-20.768686
-20.743318
-20.717945
-20.692566
-20.667181
-20.641789
-20.616389
-20.590982
-20.565566
-20.540141
-20.514705
-20.48926
-20.463803
-20.438334
-20.412852
-20.387357
-20.361847
-20.336323
-20.310782
-20.285224
-20.259648
-20.234053
-20.208439
-20.182803
-20.157145
-20.131464
-20.105758
-20.080027
-20.054269
-20.028482
-20.002666
-19.976819
-19.95094
-19.925026
-19.899077
-19.873091
-19.847066
-19.821001
-19.794893
-19.768742
-19.742544
-19.716299
-19.690003
-19.663656
-19.637255
-19.610798
-19.584282
-19.557706
-19.531066
-19.504361
-19.477588
-19.450744
-19.423827
-19.396834
-19.369763
-19.34261
-19.315372
-19.288046
-19.26063
-19.23312
-19.205513
-19.177806
-19.149995
-19.122077
-19.094048
-19.065905
-19.037643
-19.00926
-18.98075
-18.952111
-18.923339
-18.894428
-18.865375
-18.836176
-18.806826
-18.777321
-18.747656
-18.717827
-18.687829
-18.657657
-18.627306
-18.596772
-18.56605
-18.535134
-18.504019
-18.472699
-18.441171
-18.409428
-18.377465
-18.345276
-18.312856
-18.280199
-18.2473
-18.214152
-18.18075
-18.147088
-18.11316
-18.078959
-18.044481
-18.009718
-17.974665
-17.939315
-17.903663
-17.867701
-17.831424
-17.794825
-17.757898
-17.720636
-17.683033
-17.645082
-17.606778
-17.568112
-17.52908
-17.489674
-17.449888
-17.409716
-17.36915
-17.328185
-17.286813
-17.245029
-17.202825
-17.160196
-17.117135
-17.073635
-17.029691
-16.985295
-16.940442
-16.895125
-16.849338
-16.803075
-16.756329
-16.709096
-16.661364
-16.613127
-16.564387
-16.515138
-16.465367
-16.415076
-16.364253
-16.312898
-16.261005
-16.208563
-16.155575
-16.102029
-16.047925
-15.993253
-15.938014
-15.8822
-15.825806
-15.768831
-15.711265
-15.653111
-15.594356
-15.535006
-15.47505
-15.414487
-15.353315
-15.291526
-15.229122
-15.166095
-15.102447
-15.03817
-14.973267
-14.907731
-14.84156
-14.774756
-14.70731
-14.639228
-14.570499
-14.501131
-14.431116
-14.360454
-14.289146
-14.217187
-14.144582
-14.071323
-13.997416
-13.922857
-13.847646
-13.771785
-13.695271
-13.618108
-13.540291
-13.461826
-13.382709
-13.302946
-13.222534
-13.141473
-13.05977
-12.977419
-12.894428
-12.810793
-12.726523
-12.641613
-12.556068
-12.469892
-12.383083
-12.295648
-12.207584
-12.118902
-12.029597
-11.939676
-11.849143
-11.757997
-11.666247
-11.57389
-11.480937
-11.387385
-11.293243
-11.198513
-11.103197
-11.007304
-10.910832
-10.813792
-10.716182
-10.618014
-10.519286
-10.420007
-10.32018
-10.21981
-10.118904
-10.017463
-9.9154993
-9.8130114
-9.710008
-9.606495
-9.502475
-9.3979585
-9.2929456
-9.1874491
-9.0814681
-8.9750127
-8.8680884
-8.7606991
-8.6528549
-8.5445572
-8.4358191
-8.3266399
-8.2170307
-8.1069969
-7.9965432
-7.8856801
-7.7744094
-7.6627446
-7.5506853
-7.4382434
-7.3254244
-7.2122335
-7.0986815
-6.9847707
-6.8705149
-6.7559141
-6.6409804
-6.5257198
-6.4101379
-6.2942457
-6.1780458
-6.0615524
-5.9447661
-5.8276989
-5.7103569
-5.592746
-5.47488
-5.3567583
-5.2383956
-5.1197959
-5.0009671
-4.8819208
-4.7626588
-4.6431962
-4.5235359
-4.4036866
-4.2836585
-4.163457
-4.0430927
-3.9225719
-3.8019044
-3.681097
-3.5601594
-3.4390986
-3.3179242
-3.1966433
-3.0752658
-2.9537986
-2.8322517
-2.710632
-2.5889499
-2.4672122
-2.3454291
-2.223608
-2.1017584
-1.9798888
-1.8580076
-1.7361243
-1.614247
-1.4923853
-1.3705473
-1.2487427
-1.1269797
-1.005268
-0.88361572
-0.76203259
-0.64052674
-0.5191079
-0.39778406
-0.27656509
-0.1554589
-0.034475373
0.08637921
0.20709283
0.3276544
0.44805386
0.56828454
0.68833639
0.80829534
0.92795732
1.0473102
1.1665399
1.2855486
1.4043221
1.5228508
1.6411257
1.7591371
1.8768762
1.9943331
2.1114988
2.2283631
2.3449171
2.4611503
2.5770537
2.6926172
2.8078317
2.922687
3.0371745
3.1512837
3.2650068
3.3783325
3.4912634
3.60377
3.7158359
3.8274732
3.9386717
4.0494169
4.1597007
4.2695119
4.3788429
4.4876834
4.5960248
4.7038578
4.8111733
4.9179626
5.0242163
5.1299262
5.2350826
5.3396806
5.4437021
5.5471756
5.6500448
5.7522742
5.8539228
5.954971
6.0553968
6.1551939
6.2543545
6.3528718
6.4507369
6.5479436
6.6444833
6.7403499
6.8355353
6.9300337
7.0238374
7.1169402
7.2093363
7.301019
7.3919799
7.4822144
7.5717184
7.6604861
7.7485115
7.8357895
7.9223153
8.0080839
8.0930913
8.1773328
8.2608047
8.3435028
8.4254241
8.5065646
8.586922
8.6664927
8.745275
8.8232658
8.9004635
8.9768657
9.0524719
9.1272804
9.20129
9.2745003
9.346911
9.4185215
9.4893323
9.5593439
9.6285571
9.6969728
9.7645923
9.8314174
9.8974497
9.9626917
10.027146
10.090814
10.153701
10.215809
10.277142
10.337703
10.397498
10.45653
10.514804
10.572325
10.629098
10.68513
10.740425
10.79499
10.848832
10.901956
10.95437
11.006079
11.057093
11.107417
11.15706
11.20603
11.254335
11.301983
11.348982
11.395341
11.441077
11.486189
11.530683
11.574579
11.617874
11.660586
11.702726
11.744295
11.785311
11.825775
11.865702
11.905106
11.943987
11.982365
12.020244
12.057632
12.094546
12.130989
12.166986
12.202542
12.237648
12.272328
12.30659
12.340447
12.373911
12.406981
12.439678
12.472008
12.503976
12.5356
12.566881
12.597834
12.628469
12.658786
12.688807
12.718531
12.747971
12.777134
12.806027
12.834659
12.863038
12.891161
12.919059
12.946717
12.974176
13.001482
13.02857
13.055402
13.082021
13.108479
13.134784
13.160906
13.186856
13.212651
13.238289
13.263785
13.289137
13.314352
13.339446
13.364409
13.38925
13.413976
13.438585
13.463097
13.487506
13.51181
13.536025
13.560144
13.584184
13.608154
13.63205
13.655869
13.6796
13.703256
13.726859
13.750398
13.773881
13.797313
13.820695
13.844029
13.867296
13.890509
13.913693
13.936836
13.959938
13.982998
14.006016
14.029009
14.051967
14.074891
14.097792
14.120659
14.143501
14.166315
14.1891
14.211871
14.234617
14.257339
14.280046
14.302728
14.325396
14.348049
14.370678
14.393299
14.415903
14.43849
14.461069
14.483629
14.50618
14.528723
14.551247
14.573766
14.596274
14.618769
14.641261
14.663738
14.686208
14.708675
14.731127
14.753572
14.776016
14.798445
14.820873
14.843293
14.865702
14.888114
14.910511
14.932907
14.955297
14.977679
15.000059
15.02243
15.044802
15.067163
15.089524
15.111876
15.134226
15.156571
15.178909
15.201247
15.223575
15.245904
15.268225
15.290544
15.312857
15.335167
15.357472
15.379771
15.402071
15.424361
15.446652
15.468935
15.491217
15.513492
15.535765
15.558033
15.580296
15.602558
15.624812
15.647066
15.669312
15.691557
15.713796
15.736032
15.758263
15.780492
15.802714
15.824933
15.847149
15.86936
15.891568
15.913771
15.935971
15.958165
15.980357
16.002543
16.024728
16.046905
16.069082
16.091252
16.113419
16.135583
16.15774
16.179897
16.202046
16.224194
16.246336
16.268475
16.290611
16.31274
16.334869
16.35699
16.37911
16.401224
16.423335
16.445443
16.467543
16.489644
16.51174
16.533828
16.555918
16.577999
16.600077
16.622154
16.644223
16.666292
16.688356
16.710412
16.732468
16.75452
16.776567
16.798612
16.82065
16.842684
16.864719
16.886745
16.908766
16.930789
16.952804
16.974814
16.996824
17.018828
17.040826
17.062824
17.084817
17.106803
17.128788
17.150771
17.172745
17.194716
17.216688
17.238652
17.26061
17.282569
17.304524
17.32647
17.348413
17.370358
17.392295
17.414225
17.436154
17.458082
17.480002
17.501916
17.52383
17.545742
17.567645
17.589543
17.611441
17.633337
17.655223
17.677106
17.698986
17.720865
17.742737
17.764602
17.786465
17.808327
17.830184
17.852033
17.873878
17.895722
17.917562
17.939395
17.961223
17.983047
18.00487
18.026687
18.048498
18.070304
18.092107
18.113907
18.135702
18.15749
18.179273
18.201053
18.222829
18.2446
18.266365
18.288124
18.309879
18.33163
18.353377
18.375117
18.396851
18.41858
18.440305
18.462024
18.483738
18.505445
18.527146
18.548842
18.570533
18.592217
18.613896
18.635567
18.657232
18.67889
18.700543
18.722189
18.743828
18.765459
18.787083
18.8087
18.83031
18.851912
18.873505
18.895091
18.916668
18.938237
18.959798
18.981349
19.002892
19.024425
19.045948
19.067461
19.088965
19.110459
19.131941
19.153413
19.174873
19.196322
19.217759
19.239184
19.260597
19.281996
19.303383
19.324756
19.346115
19.36746
19.38879
19.410105
19.431404
19.452688
19.473955
19.495205
19.516438
19.537653
19.558849
19.580027
19.601185
19.622324
19.643442
19.664539
19.685614
19.706667
19.727698
19.748705
19.769687
19.790645
19.811578
19.832485
19.853364
19.874217
19.89504
19.915836
19.936601
19.957336
19.978039
19.99871
20.019349
20.039954
20.060524
20.081059
20.101557
20.122018
20.142441
20.162825
20.183169
20.203472
20.223734
20.243953
20.264128
20.284259
20.304345
20.324385
20.344376
20.36432
20.384213
20.404054
20.423844
20.44358
20.463262
20.482888
20.502457
20.521967
20.541418
20.56081
20.58014
20.599407
20.618608
20.637745
20.656816
20.675821
20.694755
20.713618
20.73241
20.751131
20.769777
20.788348
20.806841
20.825257
20.843595
20.861853
20.880028
20.89812
20.916128
20.934051
20.951888
20.969637
20.987296
21.004864
21.022342
21.039727
21.057018
21.074213
21.091312
21.108312
21.125214
21.142015
21.158714
21.175311
21.191803
21.208191
21.224472
21.240645
21.25671
21.272665
21.28851
21.304242
21.319862
21.335368
21.35076
21.366036
21.381194
21.396234
21.411156
21.425957
21.440638
21.455196
21.469633
21.483945
21.498133
21.512196
21.526133
21.539943
21.553626
21.56718
21.580607
21.593903
21.607069
21.620105
21.63301
21.645784
21.658425
21.670933
21.683309
21.695552
21.707661
21.719636
21.731477
21.743184
21.754756
21.766194
21.777497
21.788665
21.799698
21.810595
21.821358
21.831985
21.842478
21.852835
21.863057
21.873145
21.883098
21.892917
21.902601
21.912152
21.921569
21.930853
21.940005
21.949023
21.95791
21.966665
21.97529
21.983783
21.992146
22.00038
22.008484
22.016459
22.024306
22.032023
22.039613
22.047075
22.054409
22.061618
22.0687
22.075658
22.082495
22.089215
22.095817
22.102299
22.108663
22.11491
22.121043
22.127061
22.132965
22.138757
22.144437
22.150008
22.155469
22.160822
22.166068
22.171208
22.176243
22.181176
22.186007
22.190738
22.195368
22.199901
22.204336
22.208676
22.212921
22.217072
22.22113
22.225097
22.228974
22.232762
22.236462
22.240076
22.243607
22.247054
22.250419
22.253703
22.256908
22.260036
22.263087
22.266062
22.268964
22.271793
22.27455
22.277236
22.279854
22.282405
22.284889
22.287308
22.289663
22.291955
22.294185
22.296355
22.298467
22.300521
22.302517
22.304458
22.306345
22.308179
22.30996
22.31169
22.313371
22.315003
22.316588
22.318127
22.319619
22.321066
22.32247
22.323832
22.325154
22.326435
22.327677
22.328879
22.330044
22.331172
22.332265
22.333324
22.33435
22.335341
22.336301
22.337228
22.338127
22.338996
22.339836
22.340647
22.341431
22.342189
22.342922
22.34363
22.344313
22.344972
22.345608
22.346222
22.346816
22.347388
22.34794
22.348471
22.348984
22.349478
22.349955
22.350414
22.350856
22.351281
22.351691
22.352087
22.352467
22.352833
22.353184
22.353522
22.353848
22.354162
22.354462
22.354751
22.355029
22.355296
22.355553
22.3558
22.356036
22.356262
22.35648
22.35669
22.356891
22.357083
22.357267
22.357443
22.357612
22.357775
22.357932
22.358082
22.358225
22.358361
22.358492
22.358617
22.358737
22.358853
22.358963
22.359068
22.359168
22.359264
22.359356
22.359444
22.359529
22.359608
22.359684
22.359757
22.359827
22.359895
22.359959
22.360019
22.360076
22.360131
22.360184
22.360235
22.360283
22.360328
22.360371
22.360413
22.360452
22.36049
22.360526
22.36056
22.360592
22.360623
22.360652
22.360681
22.360707
22.360732
22.360756
22.360779
22.3608
22.360821
22.360841
22.360859
22.360877
22.360893
22.360909
22.360924
22.360939
22.360952
22.360965
22.360977
22.360988
22.360999
22.36101
22.361019
22.361029
22.361037
22.361046
22.361054
22.361061
22.361068
22.361074
22.361081
22.361087
22.361092
22.361097
22.361102
22.361107
22.361112
22.361116
22.361119
22.361123
22.361127
22.36113
22.361133
22.361136
22.361138
22.361141
22.361144
22.361146
22.361148
22.36115
22.361151
22.361153
22.361155
22.361157
22.361158
22.36116
22.361161
22.361162
22.361163
22.361164
22.361164
22.361165
22.361166
22.361167
22.361168
22.361168
22.361169
22.361169
22.361169
22.361169
22.36117
22.36117
22.36117
22.36117
22.36117
22.361171
22.36117
22.36117
22.36117
22.36117
22.361169
22.361169
22.361169
22.361168
22.361168
22.361167
22.361167
22.361166
22.361166
22.361165
22.361163
22.361163
22.361162
22.361161
22.36116
22.361159
22.361157
22.361156
22.361155
22.361154
22.361152
22.361151
22.361149
22.361147
22.361146
22.361144
22.361143
22.361141
22.361138
22.361136
22.361134
22.361133
22.36113
22.361128
22.361126
22.361123
22.36112
22.361118
22.361116
22.361113
22.361111
22.361108
22.361105
22.361101
22.361099
22.361096
22.361093
22.36109
22.361087
22.361083
22.36108
22.361076
22.361073
22.36107
22.361066
22.361062
22.361059
22.361055
22.361051
22.361047
22.361043
22.36104
22.361036
22.361032
22.361028
22.361023
22.361019
22.361015
22.361011
22.361007
22.361003
22.360998
22.360994
22.36099
22.360986
22.360981
22.360977
22.360972
22.360968
22.360964
22.360959
22.360955
22.36095
22.360946
22.360941
22.360937
22.360932
22.360927
22.360922
22.360918
22.360914
22.360909
22.360905
22.3609
22.360895
22.360891
22.360886
22.360881
22.360877
22.360872
22.360868
22.360863
22.360858
22.360853
22.360848
22.360844
22.360839
22.360835
22.36083
22.360825
22.36082
22.360815
22.360811
22.360806
22.360801
22.360797
22.360792
22.360787
22.360782
22.360777
22.360773
22.360768
22.360763
22.360759
22.360754
22.360749
22.360745
22.36074
22.360735
22.36073
22.360726
22.360721
22.360717
22.360712
22.360707
22.360703
22.360698
22.360694
22.360689
22.360685
22.36068
22.360676
22.360672
22.360667
22.360663
22.360659
22.360654
22.36065
22.360646
22.360641
22.360637
22.360633
22.360629
22.360624
22.36062
22.360616
22.360612
22.360608
22.360604
22.3606
22.360596
22.360593
22.360589
22.360585
22.360581
22.360577
22.360574
22.36057
22.360567
22.360563
22.36056
22.360556
22.360553
22.36055
22.360547
22.360544
22.360541
22.360538
22.360535
22.360532
22.36053
22.360527
22.360525
22.360522
22.36052
22.360517
22.360515
22.360514
22.360512
22.36051
22.360508
22.360506
22.360504
22.360503
22.360501
22.3605
22.360499
22.360498
22.360497
22.360496
22.360495
22.360494
22.360493
22.360492
22.360491
22.360491
22.36049
22.360489
22.360489
22.360488
22.360488
22.360487
22.360487
22.360486
22.360486
22.360485
22.360485
22.360485
22.360484
22.360484
22.360484
22.360483
22.360483
22.360482
22.360482
22.360481
22.360481
22.360481
22.36048
22.36048
22.360479
22.360479
22.360479
22.360478
22.360478
22.360477
22.360477
22.360476
22.360476
22.360475
22.360475
22.360474
22.360474
22.360474
22.360473
22.360473
22.360472
22.360472
22.360472
22.360471
22.360471
22.360471
22.36047
22.36047
22.36047
22.36047
22.36047
22.360469
22.360469
22.360469
22.360469
22.360469
22.360469
22.360469
22.360468
22.360468
22.360468
22.360469
22.360469
22.360469
22.360469
22.360469
22.360469
22.360469
22.360469
22.360469
22.360469
22.360469
22.360469
22.360469
22.360469
22.360469
22.360469
22.360469
22.360469
22.360469
22.360469
22.360469
22.360468
22.360468
22.360467
22.360467
22.360467
22.360467
22.360466
22.360465
22.360465
22.360464
22.360464
22.360463
22.360462
22.360461
22.36046
22.360459
22.360458
22.360457
22.360456
22.360455
22.360454
22.360452
22.360451
22.36045
22.360449
22.360447
22.360446
22.360444
22.360442
22.360441
22.360439
22.360438
22.360436
22.360434
22.360432
22.36043
22.360429
22.360427
22.360425
22.360424
22.360422
22.36042
22.360418
22.360416
22.360414
22.360412
22.360411
22.360409
22.360406
22.360404
22.360402
22.360401
22.360399
22.360397
22.360395
22.360393
22.360391
22.360389
22.360388
22.360386
22.360384
22.360383
22.360381
22.360379
22.360377
22.360376
22.360374
22.360372
22.36037
22.360369
22.360367
22.360366
22.360364
22.360363
22.360361
22.360359
22.360358
22.360357
22.360355
22.360354
22.360352
22.360351
22.360349
22.360348
22.360347
22.360346
22.360344
22.360343
22.360341
22.36034
22.360339
22.360338
22.360337
22.360336
22.360334
22.360333
22.360331
22.360331
22.36033
22.360328
22.360327
22.360326
22.360325
22.360324
22.360323
22.360322
22.360321
22.36032
22.360318
22.360317
22.360316
22.360315
22.360315
22.360313
22.360312
22.360311
22.36031
22.360309
22.360308
22.360308
22.360307
22.360306
22.360304
22.360303
22.360303
22.360302
22.360301
22.3603
22.360299
22.360298
22.360297
22.360297
22.360296
22.360295
22.360294
22.360293
22.360292
22.360291
22.360291
22.36029
22.360289
22.360288
22.360287
22.360286
22.360286
22.360285
22.360284
22.360283
22.360282
22.360281
22.36028
22.36028
22.360279
22.360278
22.360278
22.360277
22.360275
22.360275
22.360274
22.360274
22.360273
22.360272
22.360271
22.36027
22.360269
22.360269
22.360268
22.360267
22.360266
22.360265
22.360264
22.360263
22.360263
22.360262
22.360261
22.36026
22.360259
22.360258
22.360257
22.360257
22.360256
22.360255
22.360254
22.360253
22.360252
22.360251
22.36025
22.360249
22.360248
22.360247
22.360246
22.360246
22.360245
22.360244
22.360242
22.360241
22.36024
22.360239
22.360238
22.360238
22.360237
22.360236
22.360235
22.360233
22.360232
22.360231
22.36023
22.36023
22.360229
22.360227
22.360226
22.360225
22.360224
22.360223
22.360222
22.360221
22.36022
22.360219
22.360218
22.360217
22.360216
22.360215
22.360214
22.360213
22.360211
22.36021
22.36021
22.360209
22.360207
22.360206
22.360205
22.360204
22.360203
22.360202
22.360201
22.3602
22.360198
22.360197
22.360196
22.360195
22.360194
22.360193
22.360191
22.36019
22.360189
22.360188
22.360187
22.360186
22.360184
22.360183
22.360182
22.360181
22.36018
22.360179
22.360177
22.360176
22.360175
22.360174
22.360173
22.360172
22.360171
22.360169
22.360168
22.360167
22.360166
22.360165
22.360164
22.360163
22.360162
22.360161
22.36016
22.360159
22.360158
22.360157
22.360156
22.360155
22.360154
22.360153
22.360153
22.360152
22.360151
22.36015
22.360149
22.360148
22.360148
22.360147
22.360146
22.360146
22.360145
22.360144
22.360143
22.360142
22.360141
22.360141
22.36014
22.360139
22.360139
22.360138
22.360137
22.360136
22.360135
22.360134
22.360134
22.360133
22.360132
22.360132
22.360131
22.36013
22.360129
22.360128
22.360128
22.360127
22.360126
22.360125
22.360124
22.360123
22.360123
22.360122
22.360121
22.36012
22.360119
22.360118
22.360118
22.360117
22.360116
22.360115
22.360115
22.360114
22.360113
22.360112
22.360111
22.36011
22.360109
22.360108
22.360107
22.360107
22.360106
22.360105
22.360104
22.360103
22.360102
22.360101
22.3601
22.360099
22.360098
22.360097
22.360096
22.360095
22.360094
22.360093
22.360092
22.360091
22.36009
22.360089
22.360088
22.360087
22.360086
22.360085
22.360084
22.360083
22.360082
22.36008
22.360079
22.360079
22.360078
22.360077
22.360076
22.360075
22.360073
22.360073
22.360072
22.360071
22.36007
22.360069
22.360068
22.360067
22.360066
22.360065
22.360064
22.360063
22.360062
22.360062
22.360061
22.36006
22.360059
22.360058
22.360057
22.360056
22.360055
22.360054
22.360054
22.360053
22.360052
22.360052
22.360051
22.360051
22.360051
22.36005
22.36005
22.360049
22.360048
22.360046
22.360044
22.360042
22.360041
22.360039
22.360039
22.360038
22.360039
22.36004
22.360041
22.360043
22.360045
22.360046
22.360046
22.360045
22.360042
22.360036
22.36003
22.360022
22.360015
22.360008
22.360005
22.360006
22.360012
22.360023
22.360037
22.360055
22.360072
22.360086
22.360093
22.36009
22.360073
22.360043
22.360002
22.359959
22.359928
22.359949
22.360087
22.36053
22.361771
22.364875
22.363725
22.359532
22.359396
22.359867
22.35984
22.359807
22.359848
22.35991
22.359954
22.359992
22.360024
22.360044
22.360055
22.360058
22.360055
22.36005
22.360042
22.360035
22.360028
22.360023
22.36002
22.360018
22.360017
22.360018
22.360019
22.36002
22.360021
22.36002
22.360011
22.36001
22.36002
22.360022
22.36002
22.360018
22.360017
22.360016
22.360015
22.360015
22.360014
22.360013
22.360013
22.360013
22.360012
22.360012
22.360011
22.36001
22.36001
22.360009
22.360008
22.360007
22.360006
22.360005
22.360005
22.360004
22.360003
22.360002
22.360001
22.36
22.359999
22.359998
22.359997
22.359996
22.359995
22.359994
22.359993
22.359992
22.359991
22.359991
22.35999
22.359989
22.359988
22.359987
22.359986
22.359985
22.359984
22.359984
22.359983
22.359982
22.359981
22.35998
22.35998
22.359979
22.359978
22.359977
22.359976
22.359976
22.359975
22.359974
22.359973
22.359972
22.359971
22.35997
22.359969
22.359968
22.359968
22.359967
22.359966
22.359965
22.359964
22.359963
22.359962
22.359961
22.35996
22.359959
22.359957
22.359956
22.359955
22.359954
22.359953
22.359952
22.359951
22.35995
22.359948
22.359947
22.359946
22.359945
22.359944
22.359942
22.359941
22.35994
22.359939
22.359938
22.359937
22.359935
22.359934
22.359933
22.359932
22.359931
22.35993
22.359929
22.359928
22.359927
22.359926
22.359925
22.359924
22.359923
22.359922
22.359921
22.35992
22.359919
22.359918
22.359917
22.359916
22.359915
22.359914
22.359913
22.359912
22.359911
22.35991
22.359909
22.359908
22.359907
22.359906
22.359905
22.359905
22.359904
22.359903
22.359902
22.359901
22.3599
22.359899
22.359898
22.359897
22.359896
22.359895
22.359895
22.359894
22.359893
22.359892
22.359891
22.35989
22.35989
22.359889
22.359888
22.359887
22.359887
22.359886
22.359885
22.359884
22.359884
22.359883
22.359882
22.359882
22.359881
22.35988
22.35988
22.359879
22.359878
22.359878
22.359877
22.359876
22.359876
22.359875
22.359874
22.359874
22.359873
22.359872
22.359872
22.359871
22.35987
22.35987
22.359869
22.359868
22.359868
22.359867
22.359866
22.359865
22.359865
22.359864
22.359863
22.359862
22.359861
22.359861
22.35986
22.359859
22.359858
22.359858
22.359857
22.359856
22.359855
22.359855
22.359854
22.359853
22.359852
22.359851
22.359851
22.35985
22.359849
22.359848
22.359847
22.359847
22.359846
22.359845
22.359844
22.359843
22.359842
22.359841
22.359841
22.35984
22.359839
22.359838
22.359837
22.359836
22.359835
22.359835
22.359834
22.359833
22.359832
22.359831
22.35983
22.359829
22.359828
22.359827
22.359826
22.359825
22.359824
22.359824
22.359823
22.359822
22.359821
22.35982
22.359819
22.359818
22.359817