/*--------------------------------*- C++ -*----------------------------------*\
  =========                 |
  \\      /  F ield         | OpenFOAM: The Open Source CFD Toolbox
   \\    /   O peration     | Website:  https://openfoam.org
    \\  /    A nd           | Version:  7
     \\/     M anipulation  |
\*---------------------------------------------------------------------------*/
FoamFile
{
    version     2.0;
    format      ascii;
    class       volScalarField;
    location    "0.00265";
    object      mag(U);
}
// * * * * * * * * * * * * * * * * * * * * * * * * * * * * * * * * * * * * * //

dimensions      [0 1 -1 0 0 0 0];

internalField   nonuniform List<scalar> 
5000
(
0.075578446
0.076405134
0.074231075
0.076417318
0.075300862
0.07555726
0.075524782
0.075525082
0.07558665
0.075578925
0.075560535
0.075560591
0.075560972
0.075558923
0.075556011
0.075554056
0.075552798
0.075551633
0.075550493
0.075549372
0.075548276
0.07554719
0.075546107
0.075545058
0.075544037
0.075543028
0.075542035
0.075541059
0.075540103
0.075539165
0.075538243
0.075537333
0.075536436
0.075535558
0.075534696
0.07553385
0.075533019
0.075532201
0.075531392
0.075530597
0.075529819
0.075529055
0.075528307
0.075527568
0.075526839
0.075526123
0.075525412
0.075524711
0.075524029
0.07552336
0.075522698
0.075522045
0.075521403
0.075520772
0.075520154
0.075519548
0.075518986
0.075518679
0.075518742
0.075518839
0.075518841
0.075518854
0.075518875
0.075518966
0.075519289
0.075520129
0.075519746
0.075517674
0.075516719
0.075516773
0.075516848
0.075517079
0.075516018
0.075514793
0.075515076
0.07551552
0.075515595
0.07551507
0.075515252
0.075515937
0.07551469
0.075511866
0.075511606
0.075513665
0.075513378
0.0755111
0.075510961
0.07551151
0.075509712
0.075509024
0.075511001
0.075510812
0.075508161
0.075507717
0.075508855
0.075507672
0.075506882
0.075508469
0.075508254
0.075505767
0.075505365
0.075506315
0.075504894
0.075504474
0.075505404
0.075503994
0.075503571
0.075504488
0.075503107
0.075502535
0.075504307
0.075504144
0.075501866
0.075501467
0.07550327
0.075503094
0.075500766
0.075500347
0.0755021
0.075501921
0.075499773
0.07549861
0.075498692
0.075498785
0.075499116
0.075499785
0.075499612
0.075497984
0.075497625
0.075499174
0.075499007
0.075497033
0.075496738
0.07549743
0.075496409
0.075495533
0.075495593
0.075495673
0.075495893
0.075495335
0.075495302
0.075496453
0.075496211
0.07549449
0.075494221
0.075495157
0.075494716
0.075493932
0.075493946
0.075493581
0.075493567
0.075493749
0.075492847
0.075492657
0.075493765
0.07549364
0.075492232
0.07549204
0.075492546
0.075491811
0.075491582
0.075492018
0.075491323
0.075491096
0.075491959
0.075491842
0.075490706
0.075490445
0.07549115
0.075491046
0.075490118
0.075489929
0.075490537
0.07549045
0.075489551
0.075489411
0.075489712
0.075489188
0.075489029
0.07548931
0.075488819
0.075488691
0.07548896
0.075488457
0.075488065
0.075488254
0.075488546
0.075488515
0.075487891
0.075487754
0.075488357
0.07548827
0.075487466
0.075487367
0.075487638
0.075487166
0.075487053
0.075487331
0.075486867
0.075486736
0.075486999
0.075486566
0.075486464
0.075487077
0.075486996
0.0754862
0.07548608
0.075486337
0.075485923
0.075485828
0.075486089
0.07548567
0.075485553
0.07548612
0.075486042
0.075485294
0.075485191
0.075485541
0.075485191
0.075484687
0.075484698
0.075484697
0.075484697
0.075484701
0.075484357
0.075484101
0.075484122
0.07548415
0.075484253
0.075484468
0.075484408
0.075483847
0.075483485
0.075483494
0.075483501
0.075483541
0.075483565
0.075483652
0.075483624
0.075483295
0.075483014
0.075483085
0.075483074
0.075482652
0.075482382
0.075482392
0.075482406
0.075482455
0.075482554
0.075482884
0.075482791
0.075481984
0.075481873
0.075482186
0.075481654
0.075481503
0.075482199
0.075482107
0.07548119
0.075481058
0.07548136
0.075480889
0.075480478
0.075480507
0.075480543
0.075480682
0.075480973
0.0754809
0.075480147
0.075480034
0.075480813
0.075480707
0.075479683
0.075479548
0.075479904
0.075479362
0.075479231
0.075479569
0.075479025
0.075478903
0.075479254
0.075478711
0.075478266
0.075478334
0.075478326
0.07547836
0.075478356
0.075478501
0.075478777
0.075478387
0.075477469
0.075477166
0.075477228
0.075477299
0.075477529
0.075477314
0.075477289
0.07547741
0.075476769
0.075476286
0.075476289
0.075476292
0.075476306
0.075476345
0.075476444
0.07547625
0.07547624
0.075476317
0.075475686
0.075475596
0.075475953
0.075475403
0.075475272
0.075476056
0.075475952
0.075474945
0.075474765
0.075475061
0.075474605
0.075474297
0.075474388
0.07547421
0.075474081
0.075474094
0.075474111
0.075474175
0.075474345
0.075474223
0.075473583
0.075473287
0.075473378
0.07547321
0.075473092
0.075473117
0.075473155
0.075473287
0.075473251
0.075473019
0.075472898
0.075472586
0.075472072
0.075471985
0.07547202
0.075472058
0.075472181
0.0754719
0.075471683
0.075471748
0.075471848
0.075472191
0.075472117
0.07547144
0.075471341
0.075471696
0.075471252
0.075470542
0.075470527
0.075470576
0.075470627
0.075470794
0.075470559
0.075470521
0.075470951
0.075470877
0.075470287
0.07547018
0.075470353
0.075470058
0.075469981
0.075470146
0.075469838
0.075469727
0.075469871
0.075469611
0.075469546
0.075469883
0.075469823
0.075469374
0.075469188
0.075469226
0.075469283
0.075469479
0.075469419
0.075468986
0.075468903
0.07546921
0.07546916
0.075468749
0.075468649
0.075468746
0.075468576
0.075468453
0.075468512
0.075468607
0.075468597
0.075468355
0.075468315
0.07546842
0.075468252
0.075468202
0.075468288
0.07546814
0.075468065
0.075468118
0.07546803
0.075467963
0.075467977
0.07546796
0.075467949
0.075467958
0.075467969
0.075467995
0.075468044
0.075468123
0.075468237
0.075468391
0.07546859
0.075468838
0.075469144
0.075469518
0.07546997
0.07547051
0.075471148
0.075471888
0.075472729
0.075473669
0.075474696
0.075475804
0.07547698
0.075478218
0.07547951
0.075480847
0.07548222
0.075483619
0.075485035
0.075486436
0.075487822
0.075489236
0.075490671
0.075492117
0.075493497
0.075494726
0.075495941
0.075497215
0.075498512
0.075499836
0.075501188
0.075502652
0.075504253
0.075505985
0.075507803
0.075509655
0.075511608
0.075513734
0.075516032
0.075518417
0.075520733
0.075523033
0.075525475
0.075528096
0.075530786
0.075533292
0.075535582
0.075537827
0.075540123
0.075542465
0.075544822
0.075547155
0.075549368
0.075551334
0.075553067
0.075554812
0.075556818
0.075559118
0.075561406
0.075563426
0.075565468
0.075567934
0.075570869
0.07557376
0.0755761
0.075578145
0.075580289
0.075582689
0.075585061
0.075587015
0.075588724
0.075590426
0.075592154
0.075593773
0.075595184
0.07559651
0.075597865
0.07559918
0.075600261
0.075601012
0.075601443
0.075601994
0.075603156
0.075604352
0.07560457
0.075604116
0.075604317
0.075605959
0.075608191
0.075609471
0.075609688
0.075609961
0.075611361
0.075613437
0.075614826
0.075615394
0.075615924
0.075617203
0.075618956
0.075620227
0.075620899
0.075621416
0.075622401
0.075623865
0.0756251
0.075625847
0.075626413
0.075627333
0.075628695
0.07562999
0.075631065
0.075632091
0.07563306
0.075633898
0.075634527
0.07563513
0.075636103
0.07563733
0.075638337
0.075639107
0.07563985
0.075640679
0.075641535
0.07564231
0.075642952
0.075643195
0.075643135
0.075643842
0.075645762
0.075647793
0.075649197
0.075650356
0.075651506
0.075652558
0.075653378
0.075654163
0.075655364
0.075656803
0.075657907
0.075658525
0.075658628
0.07565848
0.075658423
0.075658259
0.075657928
0.075657374
0.07565626
0.075656218
0.07565883
0.07566233
0.075664356
0.075665304
0.075666014
0.075666953
0.075668152
0.075668893
0.075668839
0.075669088
0.075670298
0.075671065
0.075670973
0.075670924
0.075670782
0.075670529
0.075670233
0.075669653
0.075668492
0.075667997
0.075670269
0.075673598
0.075674301
0.075673805
0.075673574
0.075672781
0.075671237
0.075671344
0.07567382
0.07567532
0.075674512
0.075673448
0.075674227
0.075676755
0.075677855
0.075677444
0.075677194
0.075676334
0.075674771
0.075675117
0.075678691
0.075682003
0.075682082
0.075681564
0.075681459
0.075681097
0.075680656
0.075679712
0.075679217
0.075681239
0.075684306
0.075685238
0.075685008
0.07568493
0.075684673
0.075684255
0.075683529
0.075682026
0.075681963
0.07568448
0.075686131
0.075685409
0.075684371
0.075684141
0.075686195
0.075689251
0.075690035
0.075689689
0.075689586
0.075689244
0.075688794
0.075687885
0.075687177
0.07568911
0.075692127
0.075692162
0.07569149
0.075691043
0.07568996
0.075690876
0.075693537
0.075694089
0.075693454
0.075693094
0.075691807
0.07569144
0.075694325
0.075697532
0.075697414
0.075696831
0.07569655
0.075695232
0.07569509
0.075697515
0.075699513
0.075698828
0.075697466
0.075697641
0.075700116
0.075702636
0.0757028
0.075702306
0.075701927
0.075701552
0.075702689
0.075704559
0.075704779
0.075704047
0.075703254
0.075703626
0.075705592
0.075706552
0.075706188
0.075705756
0.075704594
0.075704631
0.075707583
0.075710333
0.075710343
0.075709842
0.075709488
0.07570841
0.075708365
0.075710748
0.075713392
0.075714146
0.075713971
0.075713824
0.075713474
0.075712733
0.075712991
0.075715136
0.0757171
0.075717254
0.075716893
0.075716746
0.075716253
0.075715852
0.075717121
0.07571925
0.075719675
0.075718853
0.075717835
0.075717917
0.075720334
0.075722673
0.075722641
0.075721992
0.075721477
0.075722036
0.075723992
0.075724866
0.075724144
0.075723096
0.075723103
0.075725342
0.075727905
0.075728296
0.075727572
0.075726707
0.075726738
0.075728808
0.075731224
0.075731881
0.075731518
0.075731166
0.075731849
0.075733388
0.075734015
0.075733523
0.075732892
0.075733401
0.075735557
0.075737682
0.075738622
0.075739045
0.075739144
0.075738994
0.075738753
0.075738441
0.075739128
0.075740889
0.075741734
0.075741231
0.075740403
0.075740543
0.075742546
0.075744774
0.075745199
0.075744584
0.075743795
0.075743839
0.075745784
0.075748189
0.075748938
0.07574849
0.075747785
0.075747811
0.075749492
0.075751731
0.075752633
0.075752305
0.075751643
0.075751675
0.075753234
0.075755473
0.0757569
0.075757474
0.075757688
0.075758045
0.07575878
0.075759184
0.075758902
0.075759095
0.075760536
0.075762069
0.07576253
0.075762218
0.075761831
0.075762473
0.075764395
0.07576606
0.075766573
0.075766359
0.075765987
0.075766497
0.075768256
0.075770018
0.075770813
0.075770818
0.075770401
0.075770463
0.07577178
0.075773623
0.075774644
0.075774602
0.075774102
0.075774321
0.075775894
0.075777763
0.075778634
0.075778515
0.075778056
0.075778427
0.075780159
0.075782075
0.075783025
0.075783081
0.075782717
0.075783009
0.075784544
0.075786234
0.075786943
0.075786779
0.075786285
0.07578655
0.075788281
0.075790426
0.075791716
0.075792286
0.075792296
0.075791912
0.075792148
0.075793649
0.075795528
0.075796766
0.075797556
0.075798277
0.075798968
0.075799495
0.075799842
0.075800448
0.075801546
0.075802651
0.075803331
0.07580361
0.075803981
0.075804998
0.075806328
0.075807313
0.075807829
0.075807993
0.075808444
0.075809673
0.075811063
0.075811989
0.075812488
0.075812722
0.075813291
0.075814554
0.075815872
0.075816744
0.07581722
0.075817452
0.07581807
0.075819399
0.07582074
0.075821623
0.075822133
0.075822324
0.075822792
0.075824076
0.075825586
0.075826643
0.075827398
0.075827952
0.075828302
0.075828945
0.07583021
0.075831559
0.075832538
0.075833306
0.075833922
0.075834418
0.075835198
0.075836437
0.075837669
0.07583859
0.075839319
0.075839846
0.075840305
0.075841207
0.075842607
0.075843903
0.075844849
0.075845627
0.075846265
0.07584684
0.075847715
0.075848971
0.075850197
0.075851181
0.075852062
0.075852937
0.075853845
0.075854779
0.075855697
0.075856635
0.075857637
0.075858635
0.075859545
0.075860336
0.075861098
0.075862084
0.075863312
0.075864467
0.075865412
0.075866179
0.075866808
0.075867632
0.075868909
0.075870288
0.0758714
0.07587234
0.075873196
0.075873954
0.075874801
0.075875963
0.075877288
0.075878466
0.07587947
0.075880362
0.075881156
0.075882044
0.075883244
0.075884574
0.075885736
0.075886728
0.075887606
0.075888449
0.075889503
0.075890825
0.075892117
0.075893204
0.075894143
0.075894994
0.075895974
0.075897263
0.075898632
0.07589981
0.07590083
0.075901756
0.075902701
0.075903872
0.075905243
0.075906545
0.075907675
0.075908694
0.075909652
0.075910715
0.07591202
0.075913401
0.075914641
0.075915754
0.075916791
0.07591782
0.075919004
0.075920376
0.075921735
0.075922955
0.075924083
0.075925178
0.075926344
0.075927658
0.075929017
0.075930293
0.075931486
0.075932651
0.075933877
0.07593521
0.075936561
0.075937838
0.075939055
0.075940267
0.075941555
0.075942933
0.075944307
0.075945611
0.075946874
0.075948161
0.075949509
0.075950881
0.075952212
0.075953509
0.075954856
0.075956292
0.075957724
0.075959065
0.075960321
0.07596157
0.075962963
0.075964539
0.075966111
0.075967543
0.075968877
0.075970164
0.075971479
0.07597294
0.075974547
0.075976149
0.075977653
0.075979093
0.0759805
0.075981894
0.075983339
0.075984892
0.075986516
0.075988109
0.075989628
0.0759911
0.075992561
0.075994077
0.075995695
0.075997367
0.075998998
0.076000556
0.076002064
0.076003573
0.076005177
0.076006903
0.076008649
0.076010316
0.076011905
0.076013456
0.076015035
0.076016732
0.076018541
0.076020353
0.076022088
0.076023764
0.076025415
0.076027083
0.076028821
0.076030631
0.076032462
0.076034265
0.076036038
0.076037807
0.076039599
0.07604143
0.076043282
0.076045128
0.076046962
0.076048806
0.076050692
0.07605262
0.076054548
0.07605644
0.076058304
0.076060188
0.076062151
0.076064188
0.076066222
0.076068195
0.07607012
0.076072047
0.076074045
0.076076145
0.076078283
0.076080379
0.076082415
0.076084424
0.076086464
0.07608859
0.076090794
0.076093008
0.07609518
0.076097312
0.076099441
0.076101618
0.07610387
0.076106167
0.076108447
0.076110682
0.07611289
0.07611512
0.076117426
0.076119823
0.076122262
0.076124676
0.076127039
0.076129368
0.076131703
0.076134094
0.076136564
0.076139089
0.076141628
0.07614416
0.076146685
0.076149205
0.076151719
0.076154242
0.076156805
0.076159441
0.07616214
0.076164859
0.076167556
0.076170222
0.076172877
0.076175558
0.076178302
0.076181124
0.076183995
0.076186867
0.076189713
0.076192536
0.076195364
0.076198234
0.076201182
0.076204206
0.076207264
0.076210302
0.0762133
0.076216281
0.076219297
0.076222397
0.07622559
0.076228832
0.076232067
0.076235267
0.076238447
0.076241645
0.076244899
0.076248233
0.076251634
0.076255066
0.076258495
0.076261912
0.076265329
0.076268774
0.076272272
0.076275837
0.076279456
0.076283102
0.076286753
0.076290406
0.076294076
0.076297787
0.076301553
0.076305373
0.076309233
0.076313111
0.076316998
0.076320903
0.07632485
0.076328857
0.076332921
0.07633702
0.076341128
0.076345239
0.076349379
0.076353583
0.076357865
0.076362203
0.076366557
0.076370903
0.076375253
0.076379647
0.076384123
0.076388681
0.076393289
0.076397909
0.076402527
0.07640716
0.076411841
0.076416597
0.076421428
0.076426312
0.076431221
0.07643614
0.076441082
0.07644607
0.076451124
0.076456251
0.076461436
0.076466657
0.076471899
0.076477164
0.076482469
0.076487833
0.076493261
0.076498747
0.076504275
0.076509838
0.076515442
0.076521103
0.076526829
0.076532613
0.076538439
0.076544296
0.076550187
0.076556132
0.076562145
0.076568225
0.076574356
0.076580528
0.076586744
0.076593017
0.076599353
0.076605746
0.076612182
0.07661866
0.076625194
0.076631799
0.076638478
0.076645212
0.076651981
0.076658783
0.076665639
0.076672577
0.076679601
0.076686694
0.076693826
0.076700985
0.076708183
0.076715449
0.076722807
0.07673025
0.07673776
0.076745307
0.076752888
0.076760516
0.076768216
0.076776005
0.076783878
0.076791818
0.0767998
0.076807822
0.076815895
0.076824044
0.076832284
0.076840614
0.07684901
0.076857451
0.076865929
0.076874456
0.076883059
0.076891761
0.076900561
0.076909445
0.076918385
0.076927368
0.076936391
0.076945472
0.07695463
0.076963878
0.07697322
0.076982648
0.076992148
0.077001711
0.077011331
0.07702101
0.077030759
0.077040589
0.077050512
0.07706053
0.077070628
0.07708079
0.077091006
0.077101281
0.077111625
0.077122058
0.077132595
0.077143239
0.077153975
0.07716478
0.077175639
0.07718655
0.077197528
0.077208593
0.077219762
0.077231039
0.077242414
0.077253871
0.0772654
0.077276998
0.077288663
0.077300405
0.077312237
0.077324175
0.077336225
0.077348374
0.077360608
0.077372915
0.077385292
0.077397745
0.077410288
0.077422936
0.077435699
0.077448573
0.07746154
0.077474587
0.07748771
0.077500919
0.077514225
0.07752764
0.077541167
0.077554804
0.077568536
0.077582358
0.077596269
0.077610278
0.077624396
0.077638629
0.077652975
0.077667429
0.077681983
0.077696633
0.077711387
0.077726255
0.077741246
0.077756358
0.077771581
0.077786907
0.077802337
0.077817882
0.077833554
0.077849359
0.07786529
0.077881337
0.077897494
0.077913769
0.077930176
0.077946723
0.07796341
0.077980223
0.077997154
0.078014208
0.0780314
0.078048746
0.078066251
0.078083903
0.078101688
0.078119598
0.078137641
0.078155835
0.078174196
0.078192731
0.078211435
0.078230299
0.078249317
0.078268492
0.078287834
0.078307349
0.078327041
0.078346911
0.078366962
0.078387199
0.078407626
0.078428249
0.07844907
0.078470092
0.07849132
0.078512758
0.078534412
0.078556279
0.078578361
0.078600662
0.078623196
0.078645978
0.078669019
0.078692318
0.078715869
0.078739669
0.078763727
0.078788058
0.078812675
0.078837589
0.078862805
0.078888326
0.078914161
0.078940316
0.078966798
0.078993614
0.07902077
0.079048281
0.079076168
0.079104447
0.079133127
0.079162204
0.079191678
0.079221558
0.079251869
0.079282639
0.07931389
0.079345632
0.079377866
0.079410592
0.079443827
0.079477595
0.079511924
0.079546837
0.079582347
0.079618465
0.079655202
0.079692581
0.07973063
0.079769377
0.079808846
0.07984905
0.079890006
0.079931734
0.079974268
0.080017648
0.080061905
0.080107063
0.080153136
0.080200144
0.080248123
0.08029712
0.080347181
0.080398341
0.080450623
0.08050405
0.080558655
0.080614484
0.080671595
0.080730041
0.080789864
0.080851095
0.080913767
0.080977923
0.08104362
0.081110926
0.081179905
0.081250609
0.081323082
0.081397367
0.081473522
0.081551616
0.081631728
0.081713932
0.081798294
0.081884872
0.081973726
0.082064927
0.082158561
0.082254719
0.082353492
0.082454962
0.082559204
0.082666295
0.082776322
0.082889386
0.083005596
0.08312506
0.08324788
0.083374154
0.083503984
0.083637479
0.08377476
0.083915948
0.084061167
0.084210539
0.084364191
0.084522257
0.084684879
0.084852199
0.085024355
0.085201484
0.085383732
0.085571258
0.085764236
0.085962841
0.086167239
0.086377588
0.086594051
0.086816802
0.087046037
0.087281963
0.087524789
0.087774712
0.088031926
0.088296625
0.088569017
0.088849331
0.089137806
0.089434684
0.089740205
0.090054602
0.090378112
0.090710981
0.091053474
0.091405865
0.091768437
0.092141471
0.092525248
0.09292005
0.093326168
0.093743906
0.094173585
0.094615532
0.095070076
0.095537538
0.096018247
0.096512539
0.097020774
0.097543325
0.098080575
0.098632901
0.099200677
0.099784278
0.10038409
0.10100053
0.10163401
0.10228497
0.10295385
0.10364109
0.10434711
0.10507238
0.10581736
0.10658251
0.10736832
0.10817528
0.1090039
0.10985469
0.11072817
0.11162485
0.11254527
0.11348995
0.11445945
0.11545435
0.11647522
0.11752265
0.11859723
0.11969954
0.12083018
0.12198976
0.12317893
0.12439834
0.12564864
0.12693048
0.12824452
0.1295914
0.13097183
0.1323865
0.13383614
0.13532146
0.13684318
0.13840202
0.13999873
0.14163406
0.14330878
0.14502366
0.14677948
0.14857703
0.1504171
0.15230051
0.15422809
0.15620067
0.15821911
0.16028422
0.16239685
0.16455787
0.16676816
0.16902862
0.17134017
0.17370369
0.17612009
0.17859026
0.18111514
0.18369566
0.1863328
0.18902751
0.19178076
0.1945935
0.19746671
0.20040137
0.20339846
0.20645901
0.20958402
0.21277452
0.21603152
0.21935605
0.22274913
0.2262118
0.22974514
0.23335021
0.23702807
0.24077978
0.2446064
0.24850899
0.25248864
0.25654645
0.26068353
0.26490099
0.26919992
0.27358143
0.27804661
0.28259656
0.28723242
0.2919553
0.29676634
0.30166667
0.30665741
0.31173971
0.31691468
0.32218346
0.32754718
0.33300697
0.33856397
0.34421933
0.3499742
0.35582971
0.36178701
0.36784722
0.37401148
0.38028091
0.38665667
0.39313991
0.39973173
0.40643328
0.41324566
0.42017
0.42720744
0.43435909
0.44162609
0.44900953
0.4565105
0.46413008
0.47186939
0.47972952
0.48771159
0.49581667
0.50404585
0.51240016
0.52088065
0.52948838
0.5382244
0.54708976
0.55608551
0.56521267
0.57447225
0.58386526
0.59339268
0.60305552
0.61285474
0.62279132
0.63286623
0.64308042
0.65343484
0.66393041
0.67456805
0.68534866
0.69627315
0.7073424
0.71855727
0.72991865
0.74142739
0.75308432
0.76489027
0.77684603
0.78895241
0.80121019
0.81362015
0.82618307
0.83889968
0.85177072
0.8647969
0.87797891
0.89131743
0.90481316
0.91846676
0.93227889
0.94625016
0.9603812
0.97467258
0.98912489
1.0037387
1.0185146
1.033453
1.0485546
1.0638199
1.0792493
1.0948432
1.1106022
1.1265267
1.1426171
1.1588739
1.1752974
1.1918879
1.208646
1.2255719
1.2426659
1.2599283
1.2773595
1.2949597
1.3127291
1.3306681
1.3487769
1.3670557
1.3855046
1.4041239
1.4229137
1.4418741
1.4610053
1.4803074
1.4997806
1.5194248
1.5392402
1.5592268
1.5793846
1.5997137
1.6202141
1.6408857
1.6617285
1.6827425
1.7039277
1.7252838
1.746811
1.7685089
1.7903776
1.8124169
1.8346266
1.8570066
1.8795568
1.9022768
1.9251665
1.9482257
1.9714541
1.9948515
2.0184177
2.0421523
2.0660551
2.0901257
2.1143639
2.1387692
2.1633414
2.1880801
2.212985
2.2380556
2.2632916
2.2886926
2.3142581
2.3399877
2.365881
2.3919375
2.4181567
2.4445382
2.4710816
2.4977862
2.5246517
2.5516774
2.5788628
2.6062075
2.6337108
2.6613722
2.6891912
2.7171672
2.7452995
2.7735876
2.8020309
2.8306287
2.8593806
2.8882857
2.9173435
2.9465533
2.9759145
3.0054265
3.0350885
3.0649
3.0948601
3.1249682
3.1552237
3.1856257
3.2161736
3.2468668
3.2777044
3.3086858
3.3398101
3.3710768
3.4024849
3.4340338
3.4657227
3.4975509
3.5295175
3.561622
3.5938633
3.6262408
3.6587537
3.6914012
3.7241824
3.7570967
3.7901432
3.8233212
3.8566297
3.890068
3.9236353
3.9573307
3.9911535
4.0251028
4.0591778
4.0933777
4.1277016
4.1621488
4.1967183
4.2314093
4.266221
4.3011526
4.3362032
4.371372
4.4066582
4.4420608
4.477579
4.5132121
4.548959
4.5848191
4.6207914
4.6568752
4.6930694
4.7293733
4.7657861
4.8023068
4.8389346
4.8756687
4.9125082
4.9494523
4.9865
5.0236506
5.0609031
5.0982568
5.1357108
5.1732641
5.2109161
5.2486658
5.2865123
5.3244548
5.3624924
5.4006244
5.4388498
5.4771678
5.5155776
5.5540783
5.592669
5.631349
5.6701173
5.7089731
5.7479156
5.786944
5.8260573
5.8652548
5.9045357
5.943899
5.983344
6.0228698
6.0624756
6.1021605
6.1419238
6.1817646
6.2216821
6.2616755
6.3017438
6.3418865
6.3821025
6.422391
6.4627514
6.5031827
6.5436841
6.584255
6.6248943
6.6656014
6.7063754
6.7472155
6.7881209
6.8290909
6.8701246
6.9112212
6.95238
6.9936002
7.0348809
7.0762214
7.1176209
7.1590786
7.2005938
7.2421657
7.2837935
7.3254763
7.3672136
7.4090044
7.450848
7.4927437
7.5346906
7.5766882
7.6187354
7.6608317
7.7029763
7.7451683
7.7874071
7.829692
7.8720221
7.9143967
7.9568151
7.9992766
8.0417803
8.0843257
8.1269118
8.1695381
8.2122038
8.254908
8.2976502
8.3404296
8.3832455
8.4260972
8.4689838
8.5119048
8.5548594
8.5978469
8.6408666
8.6839178
8.7269997
8.7701117
8.813253
8.856423
8.899621
8.9428462
8.986098
9.0293757
9.0726785
9.1160058
9.1593569
9.2027312
9.2461278
9.2895462
9.3329857
9.3764455
9.419925
9.4634235
9.5069403
9.5504748
9.5940263
9.6375941
9.6811776
9.724776
9.7683887
9.8120151
9.8556544
9.8993061
9.9429693
9.9866436
10.030328
10.074022
10.117726
10.161437
10.205157
10.248883
10.292615
10.336354
10.380097
10.423845
10.467597
10.511352
10.555109
10.598868
10.642628
10.686389
10.73015
10.77391
10.817669
10.861425
10.905179
10.94893
10.992676
11.036418
11.080155
11.123886
11.167611
11.211328
11.255037
11.298739
11.342431
11.386113
11.429785
11.473446
11.517096
11.560733
11.604358
11.647969
11.691566
11.735148
11.778715
11.822266
11.8658
11.909318
11.952817
11.996298
12.039759
12.083201
12.126623
12.170023
12.213402
12.256759
12.300092
12.343403
12.386689
12.42995
12.473186
12.516396
12.559579
12.602736
12.645864
12.688963
12.732034
12.775075
12.818085
12.861065
12.904012
12.946928
12.989811
13.03266
13.075475
13.118255
13.161
13.203708
13.246381
13.289015
13.331612
13.374171
13.41669
13.45917
13.501609
13.544007
13.586363
13.628677
13.670948
13.713176
13.755359
13.797498
13.839591
13.881638
13.923639
13.965592
14.007497
14.049353
14.09116
14.132918
14.174624
14.21628
14.257884
14.299436
14.340934
14.382379
14.423769
14.465105
14.506385
14.547609
14.588775
14.629885
14.670936
14.711928
14.752862
14.793735
14.834547
14.875298
14.915987
14.956613
14.997177
15.037676
15.078111
15.11848
15.158784
15.199021
15.239192
15.279294
15.319328
15.359293
15.399189
15.439014
15.478768
15.51845
15.558061
15.597598
15.637062
15.676452
15.715767
15.755006
15.794169
15.833256
15.872265
15.911196
15.950048
15.988821
16.027514
16.066127
16.104658
16.143107
16.181474
16.219757
16.257957
16.296072
16.334102
16.372046
16.409904
16.447675
16.485358
16.522952
16.560458
16.597874
16.6352
16.672434
16.709578
16.746629
16.783587
16.820452
16.857222
16.893898
16.930479
16.966963
17.003351
17.039641
17.075834
17.111928
17.147923
17.183818
17.219613
17.255307
17.290898
17.326388
17.361775
17.397058
17.432237
17.467311
17.50228
17.537143
17.571899
17.606548
17.64109
17.675522
17.709846
17.74406
17.778164
17.812157
17.846038
17.879808
17.913465
17.947008
17.980438
18.013754
18.046954
18.080039
18.113008
18.14586
18.178595
18.211212
18.24371
18.27609
18.30835
18.34049
18.372509
18.404407
18.436184
18.467838
18.499369
18.530777
18.562061
18.593221
18.624256
18.655165
18.685948
18.716605
18.747135
18.777538
18.807812
18.837958
18.867976
18.897863
18.927621
18.957248
18.986745
19.01611
19.045343
19.074445
19.103413
19.132248
19.16095
19.189518
19.217951
19.24625
19.274413
19.30244
19.330332
19.358087
19.385705
19.413186
19.440529
19.467734
19.494801
19.521729
19.548518
19.575167
19.601677
19.628047
19.654276
19.680364
19.706312
19.732118
19.757782
19.783304
19.808684
19.833922
19.859017
19.883968
19.908777
19.933442
19.957963
19.98234
20.006573
20.030661
20.054605
20.078404
20.102057
20.125566
20.148929
20.172147
20.195219
20.218145
20.240925
20.263559
20.286047
20.308388
20.330583
20.352632
20.374533
20.396289
20.417897
20.439359
20.460673
20.481841
20.502862
20.523736
20.544463
20.565043
20.585476
20.605762
20.625902
20.645894
20.66574
20.685439
20.704991
20.724397
20.743656
20.762769
20.781736
20.800556
20.819231
20.837759
20.856142
20.874379
20.892471
20.910418
20.928219
20.945876
20.963388
20.980755
20.997979
21.015058
21.031994
21.048786
21.065435
21.081942
21.098305
21.114526
21.130606
21.146543
21.16234
21.177995
21.193509
21.208884
21.224118
21.239213
21.254168
21.268985
21.283663
21.298204
21.312607
21.326872
21.341001
21.354994
21.368851
21.382573
21.39616
21.409613
21.422932
21.436117
21.44917
21.462091
21.474879
21.487537
21.500064
21.51246
21.524727
21.536866
21.548875
21.560757
21.572512
21.58414
21.595642
21.607019
21.618271
21.629399
21.640404
21.651285
21.662045
21.672683
21.6832
21.693597
21.703874
21.714032
21.724073
21.733996
21.743802
21.753493
21.763068
21.772528
21.781875
21.791108
21.800229
21.809239
21.818137
21.826926
21.835605
21.844175
21.852638
21.860994
21.869243
21.877387
21.885425
21.89336
21.901192
21.908921
21.916549
21.924076
21.931503
21.938831
21.94606
21.953192
21.960227
21.967165
21.974009
21.980758
21.987414
21.993977
22.000448
22.006828
22.013118
22.019319
22.02543
22.031454
22.037391
22.043241
22.049007
22.054688
22.060285
22.065799
22.071231
22.076582
22.081852
22.087043
22.092155
22.097189
22.102146
22.107026
22.111831
22.116562
22.121218
22.125801
22.130312
22.134752
22.13912
22.143419
22.147649
22.15181
22.155904
22.159931
22.163892
22.167788
22.17162
22.175388
22.179093
22.182736
22.186317
22.189839
22.1933
22.196702
22.200046
22.203332
22.206562
22.209735
22.212853
22.215917
22.218926
22.221883
22.224787
22.227639
22.23044
22.23319
22.235891
22.238544
22.241147
22.243703
22.246213
22.248675
22.251093
22.253465
22.255793
22.258077
22.260319
22.262518
22.264675
22.266791
22.268867
22.270903
22.272899
22.274857
22.276777
22.278659
22.280504
22.282313
22.284087
22.285825
22.287528
22.289198
22.290834
22.292437
22.294007
22.295546
22.297053
22.29853
22.299976
22.301393
22.30278
22.304138
22.305468
22.30677
22.308045
22.309293
22.310515
22.31171
22.31288
22.314026
22.315146
22.316243
22.317315
22.318365
22.319391
22.320396
22.321378
22.322338
22.323278
22.324196
22.325094
22.325972
22.326831
22.32767
22.32849
22.329291
22.330075
22.33084
22.331588
22.332319
22.333033
22.333731
22.334412
22.335078
22.335728
22.336363
22.336983
22.337588
22.338179
22.338756
22.339319
22.339869
22.340406
22.34093
22.341441
22.34194
22.342426
22.342901
22.343364
22.343816
22.344257
22.344687
22.345106
22.345515
22.345914
22.346303
22.346682
22.347051
22.347412
22.347763
22.348105
22.348438
22.348763
22.34908
22.349389
22.349689
22.349982
22.350267
22.350545
22.350816
22.351079
22.351336
22.351586
22.351829
22.352066
22.352297
22.352521
22.352739
22.352952
22.353159
22.35336
22.353556
22.353746
22.353932
22.354112
22.354287
22.354458
22.354624
22.354785
22.354942
22.355094
22.355242
22.355386
22.355526
22.355662
22.355794
22.355923
22.356047
22.356168
22.356286
22.3564
22.356511
22.356619
22.356724
22.356825
22.356924
22.357019
22.357112
22.357202
22.35729
22.357374
22.357456
22.357536
22.357613
22.357688
22.357761
22.357831
22.357899
22.357965
22.358029
22.358091
22.35815
22.358208
22.358264
22.358318
22.358371
22.358421
22.35847
22.358517
22.358563
22.358606
22.358649
22.35869
22.358729
22.358767
22.358803
22.358838
22.358871
22.358904
22.358935
22.358964
22.358992
22.359019
22.359045
22.35907
22.359093
22.359115
22.359136
22.359156
22.359175
22.359192
22.359208
22.359224
22.359238
22.359251
22.359263
22.359274
22.359283
22.359292
22.359299
22.359306
22.359311
22.359315
22.359318
22.35932
22.359321
22.35932
22.359319
22.359316
22.359312
22.359307
22.3593
22.359292
22.359283
22.359273
22.359261
22.359248
22.359233
22.359217
22.3592
22.35918
22.35916
22.359137
22.359113
22.359087
22.35906
22.35903
22.358999
22.358965
22.35893
22.358892
22.358852
22.35881
22.358765
22.358718
22.358669
22.358617
22.358561
22.358504
22.358443
22.358379
22.358312
22.358241
22.358167
22.358089
22.358008
22.357923
22.357833
22.357739
22.357641