/*--------------------------------*- C++ -*----------------------------------*\
  =========                 |
  \\      /  F ield         | OpenFOAM: The Open Source CFD Toolbox
   \\    /   O peration     | Website:  https://openfoam.org
    \\  /    A nd           | Version:  7
     \\/     M anipulation  |
\*---------------------------------------------------------------------------*/
FoamFile
{
    version     2.0;
    format      ascii;
    class       volScalarField;
    location    "0.00265";
    object      T;
}
// * * * * * * * * * * * * * * * * * * * * * * * * * * * * * * * * * * * * * //

dimensions      [0 0 0 1 0 0 0];

internalField   nonuniform List<scalar> 
5000
(
277.93643
277.93644
277.93638
277.93631
277.93626
277.93622
277.93619
277.93617
277.93615
277.93614
277.93614
277.93613
277.93613
277.93613
277.93613
277.93613
277.93613
277.93613
277.93613
277.93613
277.93613
277.93613
277.93613
277.93613
277.93613
277.93613
277.93613
277.93613
277.93613
277.93613
277.93613
277.93613
277.93613
277.93613
277.93613
277.93614
277.93614
277.93614
277.93614
277.93614
277.93614
277.93614
277.93614
277.93614
277.93614
277.93614
277.93614
277.93614
277.93614
277.93615
277.93615
277.93615
277.93615
277.93615
277.93615
277.93615
277.93615
277.93615
277.93615
277.93615
277.93615
277.93616
277.93616
277.93616
277.93616
277.93616
277.93616
277.93616
277.93616
277.93616
277.93616
277.93616
277.93617
277.93617
277.93617
277.93617
277.93617
277.93617
277.93617
277.93617
277.93617
277.93617
277.93617
277.93618
277.93618
277.93618
277.93618
277.93618
277.93618
277.93618
277.93618
277.93618
277.93618
277.93619
277.93619
277.93619
277.93619
277.93619
277.93619
277.93619
277.93619
277.93619
277.93619
277.9362
277.9362
277.9362
277.9362
277.9362
277.9362
277.9362
277.9362
277.9362
277.9362
277.93621
277.93621
277.93621
277.93621
277.93621
277.93621
277.93621
277.93621
277.93621
277.93621
277.93621
277.93622
277.93622
277.93622
277.93622
277.93622
277.93622
277.93622
277.93622
277.93622
277.93622
277.93622
277.93622
277.93623
277.93623
277.93623
277.93623
277.93623
277.93623
277.93623
277.93623
277.93623
277.93623
277.93623
277.93624
277.93624
277.93624
277.93624
277.93624
277.93624
277.93624
277.93624
277.93624
277.93624
277.93624
277.93624
277.93624
277.93625
277.93625
277.93625
277.93625
277.93625
277.93625
277.93625
277.93625
277.93625
277.93625
277.93625
277.93625
277.93625
277.93625
277.93626
277.93626
277.93626
277.93626
277.93626
277.93626
277.93626
277.93626
277.93626
277.93626
277.93626
277.93626
277.93626
277.93626
277.93626
277.93626
277.93627
277.93627
277.93627
277.93627
277.93627
277.93627
277.93627
277.93627
277.93627
277.93627
277.93627
277.93627
277.93627
277.93627
277.93627
277.93627
277.93627
277.93627
277.93627
277.93628
277.93628
277.93628
277.93628
277.93628
277.93628
277.93628
277.93628
277.93628
277.93628
277.93628
277.93628
277.93628
277.93628
277.93628
277.93628
277.93628
277.93628
277.93628
277.93628
277.93628
277.93628
277.93628
277.93628
277.93628
277.93629
277.93629
277.93629
277.93629
277.93629
277.93629
277.93629
277.93629
277.93629
277.93629
277.93629
277.93629
277.93629
277.93629
277.93629
277.93629
277.93629
277.93629
277.93629
277.93629
277.93629
277.93629
277.93629
277.93629
277.93629
277.93629
277.93629
277.93629
277.93629
277.93629
277.93629
277.9363
277.9363
277.9363
277.9363
277.9363
277.9363
277.9363
277.9363
277.9363
277.9363
277.9363
277.9363
277.9363
277.9363
277.9363
277.9363
277.9363
277.9363
277.9363
277.9363
277.9363
277.9363
277.9363
277.9363
277.9363
277.9363
277.9363
277.9363
277.9363
277.9363
277.9363
277.9363
277.9363
277.9363
277.93631
277.93631
277.93631
277.93631
277.93631
277.93631
277.93631
277.93631
277.93631
277.93631
277.93631
277.93631
277.93631
277.93631
277.93631
277.93631
277.93631
277.93631
277.93631
277.93631
277.93631
277.93631
277.93631
277.93631
277.93631
277.93631
277.93631
277.93631
277.93631
277.93631
277.93631
277.93631
277.93631
277.93632
277.93632
277.93632
277.93632
277.93632
277.93632
277.93632
277.93632
277.93632
277.93632
277.93632
277.93632
277.93632
277.93632
277.93632
277.93632
277.93632
277.93632
277.93632
277.93632
277.93632
277.93632
277.93632
277.93632
277.93632
277.93632
277.93632
277.93632
277.93632
277.93632
277.93632
277.93633
277.93633
277.93633
277.93633
277.93633
277.93633
277.93633
277.93633
277.93633
277.93633
277.93633
277.93633
277.93633
277.93633
277.93633
277.93633
277.93633
277.93633
277.93633
277.93633
277.93633
277.93633
277.93633
277.93633
277.93633
277.93633
277.93633
277.93633
277.93634
277.93634
277.93634
277.93634
277.93634
277.93634
277.93634
277.93634
277.93634
277.93634
277.93634
277.93634
277.93634
277.93634
277.93634
277.93634
277.93634
277.93634
277.93634
277.93634
277.93634
277.93634
277.93634
277.93634
277.93634
277.93634
277.93634
277.93635
277.93635
277.93635
277.93635
277.93635
277.93635
277.93635
277.93635
277.93635
277.93635
277.93635
277.93635
277.93635
277.93635
277.93635
277.93635
277.93635
277.93635
277.93635
277.93635
277.93635
277.93635
277.93636
277.93636
277.93636
277.93636
277.93636
277.93636
277.93636
277.93636
277.93636
277.93636
277.93636
277.93636
277.93636
277.93636
277.93636
277.93636
277.93636
277.93636
277.93636
277.93636
277.93637
277.93637
277.93637
277.93637
277.93637
277.93637
277.93637
277.93637
277.93637
277.93637
277.93637
277.93637
277.93637
277.93637
277.93637
277.93637
277.93637
277.93637
277.93637
277.93638
277.93638
277.93638
277.93638
277.93638
277.93638
277.93638
277.93638
277.93638
277.93638
277.93638
277.93638
277.93638
277.93638
277.93638
277.93638
277.93638
277.93638
277.93638
277.93638
277.93639
277.93639
277.93639
277.93639
277.93639
277.93639
277.93639
277.93639
277.93639
277.93639
277.93639
277.93639
277.93639
277.93639
277.93639
277.93639
277.93639
277.93639
277.9364
277.9364
277.9364
277.9364
277.9364
277.9364
277.9364
277.9364
277.9364
277.9364
277.9364
277.9364
277.9364
277.9364
277.9364
277.9364
277.9364
277.9364
277.9364
277.93641
277.93641
277.93641
277.93641
277.93641
277.93641
277.93641
277.93641
277.93641
277.93641
277.93641
277.93641
277.93641
277.93641
277.93642
277.93642
277.93642
277.93642
277.93642
277.93642
277.93642
277.93642
277.93642
277.93642
277.93642
277.93642
277.93642
277.93642
277.93642
277.93642
277.93642
277.93642
277.93643
277.93643
277.93643
277.93643
277.93643
277.93643
277.93643
277.93643
277.93643
277.93643
277.93643
277.93643
277.93643
277.93643
277.93643
277.93643
277.93643
277.93644
277.93644
277.93644
277.93644
277.93644
277.93644
277.93644
277.93644
277.93644
277.93644
277.93644
277.93644
277.93644
277.93644
277.93644
277.93645
277.93645
277.93645
277.93645
277.93645
277.93645
277.93645
277.93645
277.93645
277.93645
277.93645
277.93645
277.93645
277.93645
277.93645
277.93645
277.93646
277.93646
277.93646
277.93646
277.93646
277.93646
277.93646
277.93646
277.93646
277.93646
277.93646
277.93646
277.93646
277.93646
277.93646
277.93646
277.93646
277.93646
277.93646
277.93647
277.93647
277.93647
277.93647
277.93647
277.93647
277.93647
277.93647
277.93647
277.93647
277.93647
277.93648
277.93648
277.93648
277.93648
277.93648
277.93648
277.93648
277.93648
277.93648
277.93648
277.93648
277.93648
277.93648
277.93648
277.93648
277.93649
277.93649
277.93649
277.93649
277.93649
277.93649
277.93649
277.93649
277.93649
277.93649
277.93649
277.93649
277.93649
277.93649
277.93649
277.93649
277.93649
277.9365
277.9365
277.9365
277.9365
277.9365
277.9365
277.9365
277.9365
277.9365
277.9365
277.9365
277.9365
277.9365
277.9365
277.93651
277.93651
277.93651
277.93651
277.93651
277.93651
277.93651
277.93651
277.93651
277.93651
277.93651
277.93651
277.93651
277.93652
277.93652
277.93652
277.93652
277.93652
277.93652
277.93652
277.93652
277.93652
277.93652
277.93652
277.93652
277.93652
277.93652
277.93653
277.93653
277.93653
277.93653
277.93653
277.93653
277.93653
277.93653
277.93653
277.93653
277.93653
277.93653
277.93653
277.93653
277.93653
277.93653
277.93654
277.93654
277.93654
277.93654
277.93654
277.93654
277.93654
277.93654
277.93654
277.93655
277.93655
277.93655
277.93655
277.93655
277.93655
277.93655
277.93655
277.93655
277.93655
277.93655
277.93655
277.93655
277.93655
277.93656
277.93656
277.93656
277.93656
277.93656
277.93656
277.93656
277.93656
277.93656
277.93656
277.93656
277.93656
277.93656
277.93657
277.93657
277.93657
277.93657
277.93657
277.93657
277.93657
277.93657
277.93657
277.93657
277.93657
277.93657
277.93658
277.93658
277.93658
277.93658
277.93658
277.93658
277.93658
277.93658
277.93658
277.93658
277.93658
277.93658
277.93659
277.93659
277.93659
277.93659
277.93659
277.93659
277.93659
277.93659
277.93659
277.93659
277.93659
277.93659
277.93659
277.9366
277.9366
277.9366
277.9366
277.9366
277.9366
277.9366
277.9366
277.9366
277.93661
277.93661
277.93661
277.93661
277.93661
277.93661
277.93661
277.93661
277.93661
277.93661
277.93661
277.93661
277.93662
277.93662
277.93662
277.93662
277.93662
277.93662
277.93662
277.93662
277.93662
277.93663
277.93663
277.93663
277.93663
277.93663
277.93663
277.93663
277.93663
277.93663
277.93663
277.93663
277.93663
277.93664
277.93664
277.93664
277.93664
277.93664
277.93664
277.93664
277.93664
277.93664
277.93664
277.93664
277.93664
277.93665
277.93665
277.93665
277.93665
277.93665
277.93665
277.93665
277.93665
277.93665
277.93666
277.93666
277.93666
277.93666
277.93666
277.93666
277.93666
277.93666
277.93666
277.93667
277.93667
277.93667
277.93667
277.93667
277.93667
277.93667
277.93667
277.93667
277.93667
277.93668
277.93668
277.93668
277.93668
277.93668
277.93668
277.93668
277.93668
277.93668
277.93668
277.93668
277.93669
277.93669
277.93669
277.93669
277.93669
277.93669
277.93669
277.93669
277.93669
277.9367
277.9367
277.9367
277.9367
277.9367
277.9367
277.9367
277.9367
277.9367
277.93671
277.93671
277.93671
277.93671
277.93671
277.93671
277.93671
277.93671
277.93671
277.93671
277.93672
277.93672
277.93672
277.93672
277.93672
277.93672
277.93672
277.93673
277.93673
277.93673
277.93673
277.93673
277.93673
277.93673
277.93673
277.93674
277.93674
277.93674
277.93674
277.93674
277.93674
277.93674
277.93674
277.93674
277.93674
277.93674
277.93675
277.93675
277.93675
277.93675
277.93675
277.93675
277.93675
277.93676
277.93676
277.93676
277.93676
277.93676
277.93676
277.93676
277.93676
277.93676
277.93676
277.93677
277.93677
277.93677
277.93677
277.93677
277.93677
277.93677
277.93678
277.93678
277.93678
277.93678
277.93678
277.93678
277.93678
277.93678
277.93678
277.93679
277.93679
277.93679
277.93679
277.93679
277.93679
277.93679
277.9368
277.9368
277.9368
277.9368
277.9368
277.9368
277.9368
277.9368
277.93681
277.93681
277.93681
277.93681
277.93681
277.93681
277.93681
277.93682
277.93682
277.93682
277.93682
277.93682
277.93682
277.93682
277.93682
277.93682
277.93683
277.93683
277.93683
277.93683
277.93683
277.93683
277.93684
277.93684
277.93684
277.93684
277.93684
277.93684
277.93684
277.93685
277.93685
277.93685
277.93685
277.93685
277.93685
277.93685
277.93686
277.93686
277.93686
277.93686
277.93686
277.93686
277.93686
277.93687
277.93687
277.93687
277.93687
277.93687
277.93687
277.93688
277.93688
277.93688
277.93688
277.93688
277.93688
277.93688
277.93688
277.93689
277.93689
277.93689
277.93689
277.93689
277.93689
277.93689
277.9369
277.9369
277.9369
277.9369
277.9369
277.93691
277.93691
277.93691
277.93691
277.93691
277.93691
277.93692
277.93692
277.93692
277.93692
277.93692
277.93692
277.93692
277.93693
277.93693
277.93693
277.93693
277.93693
277.93694
277.93694
277.93694
277.93694
277.93694
277.93695
277.93695
277.93695
277.93695
277.93695
277.93695
277.93695
277.93696
277.93696
277.93696
277.93696
277.93696
277.93697
277.93697
277.93697
277.93697
277.93697
277.93698
277.93698
277.93698
277.93698
277.93698
277.93698
277.93699
277.93699
277.93699
277.93699
277.93699
277.937
277.937
277.937
277.937
277.93701
277.93701
277.93701
277.93701
277.93701
277.93702
277.93702
277.93702
277.93702
277.93703
277.93703
277.93703
277.93703
277.93703
277.93703
277.93704
277.93704
277.93704
277.93704
277.93705
277.93705
277.93705
277.93705
277.93706
277.93706
277.93706
277.93706
277.93707
277.93707
277.93707
277.93707
277.93708
277.93708
277.93708
277.93708
277.93708
277.93709
277.93709
277.93709
277.93709
277.9371
277.9371
277.9371
277.93711
277.93711
277.93711
277.93711
277.93712
277.93712
277.93712
277.93712
277.93713
277.93713
277.93713
277.93714
277.93714
277.93714
277.93714
277.93715
277.93715
277.93715
277.93716
277.93716
277.93716
277.93716
277.93717
277.93717
277.93717
277.93718
277.93718
277.93718
277.93718
277.93719
277.93719
277.93719
277.9372
277.9372
277.9372
277.93721
277.93721
277.93721
277.93722
277.93722
277.93722
277.93723
277.93723
277.93723
277.93724
277.93724
277.93724
277.93725
277.93725
277.93725
277.93726
277.93726
277.93727
277.93727
277.93727
277.93728
277.93728
277.93728
277.93729
277.93729
277.9373
277.9373
277.9373
277.93731
277.93731
277.93732
277.93732
277.93732
277.93733
277.93733
277.93733
277.93734
277.93734
277.93735
277.93735
277.93735
277.93736
277.93736
277.93737
277.93737
277.93737
277.93738
277.93738
277.93739
277.93739
277.9374
277.9374
277.9374
277.93741
277.93741
277.93742
277.93742
277.93743
277.93743
277.93744
277.93744
277.93745
277.93745
277.93746
277.93746
277.93747
277.93747
277.93748
277.93748
277.93749
277.93749
277.9375
277.9375
277.9375
277.93751
277.93751
277.93752
277.93752
277.93753
277.93754
277.93754
277.93755
277.93755
277.93756
277.93756
277.93757
277.93757
277.93758
277.93758
277.93759
277.93759
277.9376
277.93761
277.93761
277.93762
277.93762
277.93763
277.93763
277.93764
277.93764
277.93765
277.93766
277.93766
277.93767
277.93767
277.93768
277.93769
277.93769
277.9377
277.9377
277.93771
277.93772
277.93772
277.93773
277.93774
277.93774
277.93775
277.93776
277.93776
277.93777
277.93778
277.93778
277.93779
277.9378
277.9378
277.93781
277.93782
277.93782
277.93783
277.93784
277.93784
277.93785
277.93786
277.93787
277.93787
277.93788
277.93789
277.93789
277.9379
277.93791
277.93792
277.93793
277.93793
277.93794
277.93795
277.93796
277.93797
277.93797
277.93798
277.93799
277.938
277.93801
277.93802
277.93802
277.93803
277.93804
277.93805
277.93806
277.93807
277.93808
277.93808
277.93809
277.9381
277.93811
277.93812
277.93813
277.93814
277.93815
277.93816
277.93817
277.93818
277.93819
277.9382
277.93821
277.93822
277.93823
277.93824
277.93825
277.93827
277.93828
277.93829
277.9383
277.93831
277.93832
277.93834
277.93835
277.93836
277.93837
277.93838
277.9384
277.93841
277.93842
277.93844
277.93845
277.93847
277.93848
277.93849
277.93851
277.93852
277.93854
277.93855
277.93857
277.93859
277.9386
277.93862
277.93863
277.93865
277.93867
277.93869
277.9387
277.93872
277.93874
277.93876
277.93878
277.9388
277.93882
277.93884
277.93886
277.93888
277.93891
277.93893
277.93895
277.93898
277.939
277.93903
277.93905
277.93908
277.9391
277.93913
277.93916
277.93919
277.93922
277.93925
277.93928
277.93931
277.93934
277.93938
277.93941
277.93945
277.93948
277.93952
277.93956
277.9396
277.93964
277.93968
277.93972
277.93977
277.93981
277.93986
277.93991
277.93996
277.94001
277.94006
277.94011
277.94016
277.94022
277.94028
277.94034
277.9404
277.94046
277.94052
277.94059
277.94066
277.94073
277.9408
277.94087
277.94095
277.94103
277.94111
277.94119
277.94128
277.94136
277.94145
277.94155
277.94164
277.94174
277.94184
277.94194
277.94205
277.94216
277.94227
277.94239
277.94251
277.94263
277.94276
277.94289
277.94302
277.94316
277.9433
277.94344
277.94359
277.94375
277.94391
277.94407
277.94424
277.94441
277.94458
277.94477
277.94495
277.94514
277.94534
277.94554
277.94575
277.94597
277.94618
277.94641
277.94664
277.94688
277.94712
277.94737
277.94763
277.9479
277.94817
277.94845
277.94873
277.94903
277.94933
277.94964
277.94995
277.95028
277.95061
277.95096
277.95131
277.95167
277.95204
277.95242
277.95281
277.95321
277.95362
277.95404
277.95447
277.95491
277.95536
277.95583
277.9563
277.95679
277.95728
277.9578
277.95832
277.95885
277.9594
277.95996
277.96054
277.96113
277.96173
277.96235
277.96298
277.96362
277.96429
277.96496
277.96566
277.96636
277.96709
277.96783
277.96859
277.96936
277.97015
277.97096
277.97179
277.97264
277.9735
277.97438
277.97529
277.97621
277.97715
277.97811
277.9791
277.9801
277.98112
277.98217
277.98324
277.98433
277.98544
277.98658
277.98774
277.98892
277.99013
277.99136
277.99261
277.99389
277.9952
277.99653
277.99789
277.99927
278.00068
278.00212
278.00359
278.00508
278.0066
278.00815
278.00973
278.01134
278.01298
278.01465
278.01635
278.01808
278.01984
278.02164
278.02346
278.02532
278.02721
278.02914
278.0311
278.03309
278.03511
278.03718
278.03927
278.0414
278.04357
278.04578
278.04802
278.05029
278.05261
278.05496
278.05735
278.05978
278.06225
278.06475
278.0673
278.06989
278.07251
278.07518
278.07789
278.08064
278.08343
278.08627
278.08915
278.09207
278.09503
278.09804
278.10109
278.10418
278.10732
278.1105
278.11373
278.11701
278.12033
278.12369
278.1271
278.13056
278.13407
278.13762
278.14123
278.14488
278.14857
278.15232
278.15612
278.15996
278.16385
278.1678
278.17179
278.17584
278.17993
278.18408
278.18827
278.19252
278.19682
278.20117
278.20557
278.21003
278.21454
278.2191
278.22371
278.22838
278.2331
278.23787
278.2427
278.24758
278.25251
278.2575
278.26254
278.26764
278.27279
278.278
278.28327
278.28858
278.29396
278.29939
278.30487
278.31041
278.31601
278.32166
278.32737
278.33313
278.33895
278.34483
278.35077
278.35676
278.3628
278.36891
278.37507
278.38128
278.38756
278.39389
278.40028
278.40672
278.41323
278.41979
278.4264
278.43308
278.43981
278.4466
278.45344
278.46034
278.4673
278.47432
278.48139
278.48853
278.49571
278.50296
278.51026
278.51762
278.52503
278.53251
278.54004
278.54762
278.55527
278.56297
278.57072
278.57853
278.5864
278.59433
278.60231
278.61035
278.61844
278.62659
278.63479
278.64305
278.65137
278.65974
278.66817
278.67665
278.68519
278.69378
278.70242
278.71112
278.71988
278.72869
278.73755
278.74647
278.75544
278.76447
278.77354
278.78268
278.79186
278.8011
278.81039
278.81973
278.82912
278.83857
278.84807
278.85762
278.86722
278.87687
278.88658
278.89633
278.90614
278.91599
278.9259
278.93586
278.94586
278.95592
278.96602
278.97617
278.98638
278.99663
279.00693
279.01727
279.02767
279.03811
279.0486
279.05914
279.06972
279.08035
279.09103
279.10176
279.11252
279.12334
279.1342
279.14511
279.15606
279.16705
279.17809
279.18917
279.2003
279.21147
279.22268
279.23394
279.24524
279.25658
279.26797
279.27939
279.29086
279.30237
279.31392
279.32551
279.33714
279.34881
279.36052
279.37227
279.38406
279.39589
279.40776
279.41966
279.43161
279.44359
279.45561
279.46767
279.47976
279.49189
279.50406
279.51627
279.52851
279.54078
279.55309
279.56544
279.57782
279.59024
279.60269
279.61517
279.62769
279.64024
279.65283
279.66544
279.67809
279.69077
279.70349
279.71624
279.72901
279.74182
279.75466
279.76753
279.78043
279.79336
279.80632
279.81931
279.83233
279.84538
279.85846
279.87156
279.8847
279.89786
279.91105
279.92426
279.93751
279.95078
279.96407
279.97739
279.99074
280.00412
280.01752
280.03094
280.04439
280.05786
280.07136
280.08488
280.09843
280.112
280.12559
280.1392
280.15284
280.1665
280.18018
280.19389
280.20761
280.22136
280.23513
280.24892
280.26273
280.27656
280.29041
280.30428
280.31816
280.33207
280.346
280.35995
280.37391
280.38789
280.40189
280.41591
280.42995
280.444
280.45807
280.47216
280.48626
280.50038
280.51452
280.52867
280.54284
280.55702
280.57121
280.58543
280.59965
280.61389
280.62815
280.64241
280.6567
280.67099
280.6853
280.69962
280.71395
280.7283
280.74265
280.75702
280.7714
280.7858
280.8002
280.81461
280.82904
280.84347
280.85792
280.87237
280.88684
280.90131
280.9158
280.93029
280.94479
280.9593
280.97382
280.98834
281.00288
281.01742
281.03197
281.04652
281.06109
281.07566
281.09023
281.10482
281.1194
281.134
281.1486
281.1632
281.17781
281.19243
281.20705
281.22168
281.2363
281.25094
281.26557
281.28021
281.29486
281.30951
281.32416
281.33881
281.35346
281.36812
281.38278
281.39744
281.4121
281.42677
281.44143
281.4561
281.47076
281.48543
281.5001
281.51477
281.52943
281.5441
281.55877
281.57344
281.5881
281.60276
281.61743
281.63209
281.64675
281.6614
281.67606
281.69071
281.70536
281.72001
281.73465
281.74929
281.76393
281.77856
281.79319
281.80782
281.82244
281.83705
281.85166
281.86627
281.88087
281.89547
281.91006
281.92464
281.93922
281.95379
281.96835
281.98291
281.99746
282.01201
282.02655
282.04108
282.0556
282.07011
282.08462
282.09912
282.1136
282.12808
282.14256
282.15702
282.17147
282.18591
282.20035
282.21477
282.22918
282.24358
282.25798
282.27236
282.28673
282.30108
282.31543
282.32976
282.34409
282.3584
282.3727
282.38698
282.40125
282.41551
282.42976
282.44399
282.45821
282.47242
282.48661
282.50079
282.51495
282.5291
282.54323
282.55735
282.57145
282.58554
282.59961
282.61366
282.6277
282.64172
282.65573
282.66972
282.68369
282.69765
282.71158
282.7255
282.73941
282.75329
282.76715
282.781
282.79483
282.80864
282.82243
282.8362
282.84995
282.86368
282.87739
282.89108
282.90475
282.9184
282.93202
282.94563
282.95922
282.97278
282.98632
282.99984
283.01334
283.02682
283.04027
283.0537
283.0671
283.08049
283.09385
283.10718
283.1205
283.13378
283.14705
283.16029
283.1735
283.18669
283.19985
283.21299
283.2261
283.23919
283.25225
283.26528
283.27829
283.29127
283.30422
283.31715
283.33004
283.34292
283.35576
283.36857
283.38136
283.39412
283.40685
283.41955
283.43222
283.44486
283.45747
283.47005
283.4826
283.49512
283.50761
283.52008
283.5325
283.5449
283.55727
283.5696
283.58191
283.59418
283.60641
283.61862
283.63079
283.64294
283.65504
283.66712
283.67916
283.69116
283.70314
283.71508
283.72698
283.73885
283.75068
283.76248
283.77425
283.78598
283.79767
283.80933
283.82095
283.83253
283.84408
283.85559
283.86707
283.87851
283.88991
283.90127
283.9126
283.92389
283.93513
283.94635
283.95752
283.96865
283.97975
283.99081
284.00182
284.0128
284.02374
284.03464
284.04549
284.05631
284.06709
284.07783
284.08852
284.09918
284.10979
284.12036
284.13089
284.14138
284.15183
284.16223
284.17259
284.18292
284.19319
284.20343
284.21362
284.22377
284.23388
284.24394
284.25396
284.26393
284.27386
284.28375
284.29359
284.30339
284.31315
284.32286
284.33252
284.34214
284.35172
284.36125
284.37073
284.38017
284.38956
284.39891
284.40821
284.41746
284.42667
284.43583
284.44495
284.45402
284.46304
284.47202
284.48094
284.48983
284.49866
284.50745
284.51619
284.52488
284.53352
284.54212
284.55067
284.55917
284.56762
284.57603
284.58439
284.59269
284.60095
284.60917
284.61733
284.62544
284.63351
284.64153
284.6495
284.65742
284.66529
284.67311
284.68088
284.68861
284.69628
284.70391
284.71149
284.71902
284.7265
284.73392
284.7413
284.74864
284.75592
284.76315
284.77033
284.77746
284.78455
284.79158
284.79857
284.8055
284.81239
284.81922
284.82601
284.83275
284.83944
284.84607
284.85266
284.8592
284.86569
284.87214
284.87853
284.88487
284.89117
284.89741
284.90361
284.90976
284.91586
284.9219
284.92791
284.93386
284.93976
284.94562
284.95142
284.95718
284.96289
284.96855
284.97416
284.97973
284.98524
284.99071
284.99613
285.00151
285.00683
285.01211
285.01734
285.02253
285.02766
285.03275
285.03779
285.04279
285.04774
285.05264
285.0575
285.06231
285.06708
285.07179
285.07647
285.0811
285.08568
285.09022
285.09471
285.09916
285.10356
285.10792
285.11223
285.1165
285.12072
285.1249
285.12904
285.13314
285.13719
285.1412
285.14516
285.14908
285.15296
285.1568
285.1606
285.16435
285.16807
285.17174
285.17537
285.17896
285.18251
285.18602
285.18948
285.19291
285.1963
285.19965
285.20296
285.20623
285.20946
285.21266
285.21581
285.21893
285.22201
285.22505
285.22805
285.23102
285.23395
285.23684
285.2397
285.24252
285.24531
285.24806
285.25077
285.25345
285.2561
285.25871
285.26129
285.26383
285.26634
285.26881
285.27126
285.27367
285.27604
285.27839
285.2807
285.28298
285.28523
285.28745
285.28964
285.29179
285.29392
285.29602
285.29808
285.30012
285.30213
285.30411
285.30606
285.30798
285.30987
285.31174
285.31358
285.31539
285.31717
285.31893
285.32066
285.32236
285.32404
285.32569
285.32732
285.32892
285.3305
285.33205
285.33358
285.33509
285.33657
285.33802
285.33946
285.34087
285.34226
285.34362
285.34496
285.34629
285.34759
285.34887
285.35012
285.35136
285.35258
285.35377
285.35495
285.3561
285.35724
285.35836
285.35945
285.36053
285.36159
285.36264
285.36366
285.36467
285.36565
285.36662
285.36758
285.36852
285.36944
285.37034
285.37123
285.3721
285.37296
285.3738
285.37462
285.37543
285.37623
285.37701
285.37777
285.37853
285.37926
285.37999
285.3807
285.3814
285.38208
285.38275
285.38341
285.38405
285.38469
285.38531
285.38592
285.38652
285.3871
285.38768
285.38824
285.38879
285.38933
285.38987
285.39039
285.3909
285.3914
285.39189
285.39237
285.39284
285.3933
285.39375
285.39419
285.39462
285.39505
285.39546
285.39587
285.39627
285.39666
285.39704
285.39742
285.39779
285.39815
285.3985
285.39884
285.39918
285.39951
285.39984
285.40015
285.40046
285.40077
285.40107
285.40136
285.40164
285.40192
285.4022
285.40246
285.40272
285.40298
285.40323
285.40347
285.40371
285.40395
285.40418
285.4044
285.40462
285.40484
285.40505
285.40525
285.40545
285.40565
285.40584
285.40603
285.40622
285.4064
285.40657
285.40675
285.40692
285.40708
285.40724
285.4074
285.40756
285.40771
285.40786
285.408
285.40814
285.40828
285.40842
285.40855
285.40868
285.40881
285.40893
285.40906
285.40918
285.40929
285.40941
285.40952
285.40963
285.40974
285.40985
285.40995
285.41005
285.41015
285.41025
285.41034
285.41044
285.41053
285.41062
285.41071
285.4108
285.41088
285.41096
285.41105
285.41113
285.41121
285.41128
285.41136
285.41143
285.4115
285.41158
285.41165
285.41172
285.41178
285.41185
285.41192
285.41198
285.41204
285.41211
285.41217
285.41223
285.41229
285.41235
285.41241
285.41246
285.41252
285.41257
285.41263
285.41268
285.41274
285.41279
285.41284
285.41289
285.41294
285.413
285.41305
285.4131
285.41315
285.4132
285.41324
285.41329
285.41334
285.41339
285.41343
285.41348
285.41352
285.41357
285.41361
285.41366
285.4137
285.41374
285.41379
285.41383
285.41388
285.41392
285.41396
285.41401
285.41405
285.41409
285.41414
285.41418
285.41422
285.41427
285.41431
285.41435
285.4144
285.41444
285.41448
285.41452
285.41457
285.41461
285.41465
285.41469
285.41473
285.41478
285.41482
285.41486
285.4149
285.41495
285.41499
285.41503
285.41508
285.41512
285.41517
285.41521
285.41526
285.41531
285.41535
285.4154
285.41545
285.4155
285.41555
285.4156
285.41565
285.4157
285.41575
285.41581
285.41586
285.41591
285.41597
285.41602
285.41608
285.41613
285.41619
285.41625
285.41631
285.41637
285.41643
285.41649
285.41655
285.41661
285.41667
285.41674
285.41681
285.41687
285.41694
285.41701
285.41708
285.41716
285.41723
285.41731
285.41738
285.41746
285.41754
285.41762
285.41771
285.41779
285.41788
285.41797
285.41806
285.41815
285.41825
285.41835
285.41845
285.41855
285.41866
285.41877
285.41888
285.41899
285.41911
285.41923
285.41935
285.41948
285.41961
285.41974
285.41988
285.42002
285.42017
285.42032
285.42047
285.42063
285.42079
285.42096
285.42114
285.42131
285.4215
285.42169
285.42188
285.42209
285.42229
285.42251
285.42273
285.42295
285.42319
285.42343
285.42368
285.42394
285.4242
285.42448
285.42476
285.42506
285.42536
285.42567
285.426
285.42633
285.42668
285.42704
285.42741
285.42779
285.42819
285.4286
285.42902
285.42946
285.42991
285.43037
285.43085
285.43135
285.43186
285.4324
285.43294
285.43351
285.4341
285.4347
285.43533
285.43597
285.43664
285.43732
285.43803
285.43876
285.43951
285.44028
285.44108
285.4419
285.44275
285.44362
285.44451
285.44544
285.44639
285.44736
285.44837
285.44941
285.45048
285.45158
285.45272
285.4539
285.45512
285.45639
285.4577
285.45906
285.46046
285.46192
285.46344
285.46501
285.46665
285.46836
285.47014
285.47198
285.4739
285.47589
285.47798
285.48018
285.48247
285.48488
285.4874
285.49003
285.49278
285.49564
285.49863
285.50174
285.50497
285.50834
285.51183
285.51545
285.51922
285.52311
285.52715
285.53133
285.53566
285.54013
285.54475
285.54953
285.55447
285.55956
285.56482
285.57024
285.57582
285.58158
285.58752
285.59365
285.6
285.60657
285.61339
285.6205
285.628
285.63612
285.64559
285.65836
285.67985
285.72267
285.81466
286.02373
286.34774
286.76219
287.26549
287.85316
288.5176
289.24834
290.03263
290.85612
291.70368
292.56008
293.4107
294.24213
295.04265
295.8025
296.51409
297.17202
297.77302
298.31576
298.80063
299.22941
299.60505
299.93128
300.21239
300.45297
300.65768
300.83113
300.97767
301.10137
301.20595
301.2947
301.37055
301.43599
301.49319
301.54396
301.58979
301.63193
301.67138
301.70897
301.74533
301.78097
301.81629
301.8516
301.88718
301.92321
301.95983
301.99709
302.03504
302.07375
302.11327
302.15363
302.19488
302.23704
302.28011
302.3241
302.369
302.41481
302.46153
302.50915
302.55765
302.60704
302.6573
302.70842
302.76039
302.8132
302.86682
302.92126
302.97649
303.0325
303.08927
303.14679
303.20502
303.26396
303.32358
303.38385
303.44476
303.50627
303.56836
303.63099
303.69415
303.75779
303.82188
303.88638
303.95127
304.01651
304.08205
304.14786
304.2139
304.28013
304.34652
304.41301
304.47958
304.54618
304.61277
304.67932
304.74577
304.81209
304.87825
304.94421
305.00992
305.07534
305.14046
305.20522
305.26959
305.33355
305.39705
305.46006
305.52257
305.58453
305.64591
305.7067
305.76687
305.82638
305.88523
305.94338
306.00081
306.05752
306.11348
306.16866
306.22307
306.27669
306.32949
306.38148
306.43264
306.48297
306.53245
306.58108
306.62886
306.67578
306.72184
306.76704
306.81137
306.85484
306.89745
306.9392
306.98009
307.02013
307.05932
307.09767
307.13519
307.17187
307.20773
307.24278
307.27702
307.31046
307.34311
307.37499
307.40609
307.43644
307.46605
307.49491
307.52306
307.55049
307.57721
307.60325
307.62862
307.65331
307.67736
307.70077
307.72354
307.74571
307.76726
307.78823
307.80862
307.82845
307.84772
307.86645
307.88465
307.90233
307.91951
307.93619
307.9524
307.96813
307.9834
307.99823
308.01262
308.02659
308.04014