/*--------------------------------*- C++ -*----------------------------------*\
  =========                 |
  \\      /  F ield         | OpenFOAM: The Open Source CFD Toolbox
   \\    /   O peration     | Website:  https://openfoam.org
    \\  /    A nd           | Version:  7
     \\/     M anipulation  |
\*---------------------------------------------------------------------------*/
FoamFile
{
    version     2.0;
    format      ascii;
    class       volScalarField;
    location    "0.00157";
    object      Uy;
}
// * * * * * * * * * * * * * * * * * * * * * * * * * * * * * * * * * * * * * //

dimensions      [0 1 -1 0 0 0 0];

internalField   nonuniform List<scalar> 
5000
(
3.791832e-19
3.9921986e-18
0
0
-6.4194963e-18
8.9767475e-33
9.3345827e-18
0
0
-1.3640553e-17
-3.0152179e-17
1.6511401e-17
1.7946521e-17
-1.9381396e-17
0
-2.2250291e-17
1.1049243e-45
2.5117839e-17
0
2.798377e-17
-2.9416038e-17
-3.084779e-17
6.4557966e-17
-3.3709575e-17
-3.5139521e-17
-3.0141065e-31
3.7997285e-17
3.9425004e-17
-8.1703751e-17
7.3298127e-31
-7.6389756e-31
4.5126845e-17
9.3099502e-17
-9.5943017e-17
8.5632195e-31
-4.419081e-30
-1.8110206e-30
1.0729131e-16
-1.101212e-16
-1.1294789e-16
1.1577122e-16
-4.0783767e-30
-1.2140708e-16
6.2109628e-17
1.9054099e-16
-6.4915555e-17
-6.6315198e-17
-4.6380559e-30
-1.3821461e-16
0
7.1889103e-17
1.0413125e-32
-7.4659667e-17
1.5208086e-16
-2.7064333e-30
-1.5758457e-16
8.0163111e-17
-2.815437e-30
-8.2893877e-17
0
8.560918e-17
2.9658849e-30
2.5098597e-32
8.9650542e-17
-9.0988621e-17
3.2274542e-30
9.3650251e-17
-9.4973473e-17
-9.6291406e-17
9.7603879e-17
9.8910718e-17
-1.0021174e-16
-1.0150678e-16
2.0559126e-16
1.0407813e-16
-1.0535408e-16
0
1.0788557e-16
-1.5509829e-32
-1.1038856e-16
1.116289e-16
-3.2077172e-32
3.2425249e-32
1.1530277e-16
1.1651102e-16
4.0982874e-30
-1.1890174e-16
0
-1.2125669e-16
-1.2699781e-29
-4.3199936e-30
1.2471839e-16
1.2585259e-16
-2.5395317e-16
-8.8647186e-30
1.2919313e-16
0
0
-1.3243614e-16
-9.2577053e-30
2.6908231e-16
-1.3557594e-16
-2.7319726e-16
0
1.3860691e-16
1.3959208e-16
-1.4056435e-16
-1.415235e-16
0
0
1.4432037e-16
1.4522513e-16
0
-1.4699217e-16
5.1687887e-30
1.4870147e-16
-1.4953399e-16
4.2732474e-32
-5.2841447e-30
3.8500756e-47
3.0542513e-16
-6.5427559e-32
-1.5420865e-16
0
-1.5564093e-16
1.5633277e-16
1.5700824e-16
-3.1533438e-16
-1.5830949e-16
3.1787005e-16
1.5954366e-16
-1.6013529e-16
-1.607098e-16
-1.6126708e-16
0
1.6232958e-16
1.6283468e-16
-1.6332214e-16
-5.6793985e-30
1.6424385e-16
-1.6467805e-16
-1.6509438e-16
0
1.6587317e-16
1.6623553e-16
-1.6657982e-16
1.6690601e-16
-9.5050183e-32
-1.6750394e-16
1.6777564e-16
-1.6802916e-16
1.1716792e-29
1.684816e-16
-1.6868053e-16
1.6886128e-16
1.6902386e-16
-1.691683e-16
0
0
-1.6949305e-16
-1.6956534e-16
1.6961963e-16
1.6965593e-16
-1.6967438e-16
-1.1766794e-29
1.6965816e-16
-1.6962357e-16
-1.6957141e-16
0
1.6941479e-16
1.693105e-16
0
-1.6905046e-16
-1.6889492e-16
0
1.6853334e-16
3.5020024e-29
-1.6810522e-16
1.6786651e-16
1.6761154e-16
-1.6734045e-16
-1.1537499e-29
1.1469187e-29
7.0954206e-32
1.6609783e-16
-1.6574819e-16
-2.2938324e-29
1.1349022e-29
-1.1321865e-29
1.6419894e-16
0
0
-1.6288305e-16
-1.6241598e-16
0
0
1.6093186e-16
2.435776e-47
-1.5987513e-16
0
1.5876622e-16
-1.5819265e-16
-4.3674625e-29
3.1401642e-16
-1.5639775e-16
-3.2342189e-29
-2.2046913e-32
-1.5449561e-16
1.5383849e-16
-2.1766806e-32
-2.1106864e-29
1.0505683e-29
-1.5110063e-16
0
1.4966856e-16
1.0307492e-29
4.1130155e-29
1.4744593e-16
0
-1.4591677e-16
-1.4513856e-16
0
0
0
1.4193931e-16
9.7663942e-30
-1.4029066e-16
0
0
1.3776061e-16
1.3690281e-16
-1.3603818e-16
-1.3516683e-16
0
1.3340477e-16
1.3251446e-16
-1.3161821e-16
-1.3071621e-16
0
1.2889572e-16
-3.5536832e-29
-8.8110975e-30
1.2612655e-16
-1.2519398e-16
-1.2425698e-16
0
1.2237037e-16
-1.687538e-29
1.2046832e-16
1.6576043e-29
-2.3710383e-16
1.1758889e-16
-1.6175357e-29
-4.015177e-29
-7.9368253e-30
-1.137087e-16
1.1273247e-16
1.1175413e-16
0
-1.0979179e-16
-1.0880812e-16
0
1.0683667e-16
1.058492e-16
-2.0972164e-16
-1.0387168e-16
1.0288193e-16
1.0189178e-16
2.7989634e-29
-9.9910871e-17
9.8920335e-17
-6.7913467e-30
-9.6940139e-17
9.5950789e-17
-6.5990199e-30
6.5437284e-30
-2.6428619e-32
-6.3540783e-30
9.1017365e-17
0
0
-8.8073507e-17
-8.7095813e-17
0
0
0
0
8.224073e-17
5.6018544e-30
-1.6063386e-16
3.3832948e-32
7.8405028e-17
7.7453953e-17
-1.0622135e-29
-1.046957e-29
-1.0604364e-32
-7.3684821e-17
-7.2751958e-17
-7.1823107e-17
1.4179677e-16
2.0993373e-16
-6.90618e-17
-1.3630033e-16
0
6.6340777e-17
6.5443243e-17
-6.4550634e-17
1.8094133e-32
-2.676499e-32
1.7594001e-32
6.1031481e-17
6.0165029e-17
-5.9304122e-17
-1.1689768e-16
5.7599285e-17
4.0349502e-47
5.5917727e-17
1.5264948e-29
-1.0852036e-16
0
0
1.0364074e-16
-2.8334383e-29
-1.0045157e-16
0
4.8657463e-17
4.7883339e-17
-4.7115972e-17
6.5875008e-33
-6.331349e-30
6.3742837e-33
4.4115317e-17
-4.3382636e-17
-4.2657038e-17
0
4.1227265e-17
-5.6262379e-30
-3.9826291e-17
7.8273365e-17
-1.0667081e-29
-3.7779347e-17
-1.0305171e-29
-7.2902659e-17
7.1596718e-17
3.5152769e-17
-3.4514559e-17
-4.8151676e-33
-3.3260298e-17
0
0
3.1434437e-17
-4.2775303e-30
-6.0508395e-17
4.2170954e-33
8.731059e-17
-2.8539269e-17
-2.7982378e-17
5.4865694e-17
-2.6890666e-17
2.635582e-17
5.1656594e-17
-2.5308084e-17
-2.479516e-17
-2.4289501e-17
2.3791092e-17
4.6906246e-47
-2.2815947e-17
2.233916e-17
-2.1869525e-17
2.1407016e-17
5.8059328e-30
5.8273729e-33
2.0061918e-17
-3.9255155e-17
1.9200186e-17
5.2147495e-30
-5.0946751e-30
-1.7959276e-17
-3.5118482e-17
5.1497764e-17
4.6544986e-30
-9.0981496e-30
4.4409145e-30
-3.1317449e-17
3.059632e-17
-4.1453955e-30
-2.9192177e-17
0
0
1.3589667e-17
-1.8400198e-30
-1.2949079e-17
-1.2637691e-17
1.2332153e-17
3.609719e-17
-1.1738354e-17
-1.1449956e-17
-3.1738915e-33
-1.0889834e-17
0
2.0703002e-17
2.0180679e-17
-9.8344296e-18
-1.916741e-17
-9.3381025e-18
1.8195116e-17
1.7724014e-17
-1.7262774e-17
-1.6811266e-17
0
1.5936945e-17
-7.7569362e-18
-1.5100017e-17
7.3476236e-18
7.1497145e-18
-9.8853676e-34
9.3953565e-31
6.5821255e-18
-6.4014084e-18
-6.2248318e-18
6.0523375e-18
-8.1607838e-31
-8.1276475e-34
-7.7098271e-31
-5.401977e-18
5.2489616e-18
-2.1240609e-30
-6.8777164e-31
-1.3353703e-30
-4.672841e-18
4.5375613e-18
-6.1166041e-31
-1.185729e-30
-5.8991939e-34
-8.0578485e-18
-3.9097017e-18
3.7933855e-18
7.3600351e-18
-4.956119e-31
-6.9244485e-18
-3.3575216e-18
6.5108767e-18
3.1560022e-18
-3.0592608e-18
-2.9651279e-18
-7.974889e-31
2.7841317e-18
0
0
2.5306083e-18
0
-2.3729275e-18
2.2973754e-18
3.1603862e-34
-5.9739467e-31
0
-2.015643e-18
1.9502337e-18
1.8866694e-18
-3.6496821e-18
-1.7647667e-18
1.7065164e-18
0
0
-1.5419041e-18
4.1398983e-31
1.4399792e-18
0
0
-1.2984527e-18
5.2248609e-31
1.2109208e-18
0
0
0
0
0
0
0
0
1.7572919e-18
4.7035916e-31
-8.1713329e-19
7.8779525e-19
-7.5933911e-19
7.318337e-19
-1.9605087e-31
-6.7967807e-19
-1.8183117e-31
-6.3072567e-19
0
0
5.6340842e-19
1.506149e-31
-5.2205254e-19
0
0
0
0
0
0
0
7.651255e-19
-3.0607296e-31
-7.0659617e-19
3.3946178e-19
4.6344055e-35
3.1322707e-19
-1.6679684e-31
-5.7771216e-19
-2.7735645e-19
-5.2528705e-49
7.666528e-19
0
-4.7078003e-19
0
0
4.1573754e-19
-5.5303984e-32
-5.7359453e-19
1.8333075e-19
1.7576186e-19
-1.6849052e-19
1.6149533e-19
-1.5476079e-19
-4.1135935e-32
1.4208589e-19
-1.361023e-19
0
-1.2477614e-19
1.1946392e-19
2.2870151e-19
-1.0940498e-19
-1.0465077e-19
-1.0011908e-19
-9.5758804e-20
1.8301466e-19
8.737885e-20
-8.3408218e-20
0
7.5942274e-20
-7.24202e-20
-6.9033098e-20
1.9736296e-19
1.7813469e-35
-1.1935436e-19
5.6790531e-20
7.5004605e-33
5.1370879e-20
-1.3878506e-35
-9.28419e-20
4.4212794e-20
0
-1.1164156e-32
-5.4351136e-36
-3.6480087e-20
3.4866501e-20
-9.2200953e-33
-4.3673023e-33
-4.2387408e-36
-2.825201e-20
2.674959e-20
6.7399375e-50
-6.6494617e-33
-3.2166783e-36
-4.2755544e-20
-2.7976646e-33
1.9011333e-20
0
0
-1.5816458e-20
-6.1936726e-33
1.4137719e-20
-1.3636248e-20
1.8240254e-33
1.5486857e-49
-1.6196492e-33
1.1077057e-20
1.0450932e-20
1.3612619e-33
-9.2111458e-21
0
0
7.3259209e-21
-6.8543738e-21
5.4421175e-33
6.0640313e-21
-5.451101e-21
0
4.2380834e-21
3.4989756e-21
-2.9219807e-21
-2.4086643e-21
0
8.5070199e-22
6.8657572e-22
-5.1351891e-22
1.6039168e-22
-2.1288768e-22
-5.0981755e-22
-1.2313433e-34
-1.045275e-21
-2.9857785e-34
2.0285886e-21
0
0
0
-1.577351e-21
-1.9757585e-21
0
1.0137441e-21
1.6475139e-34
-1.2288386e-21
0
0
-2.7539997e-22
2.6498963e-35
-5.6737117e-35
-2.4411005e-22
1.1407183e-21
-6.289774e-34
-1.5497539e-21
0
-9.561709e-22
-5.4539515e-35
5.1155526e-22
-9.4062328e-22
1.5837728e-21
1.9289193e-21
-1.2006607e-21
0
1.0320593e-21
1.7368022e-21
-2.3047001e-21
-2.4178913e-21
0
-1.7102091e-21
1.4045872e-21
1.0844708e-21
-9.8503215e-22
-2.3807041e-21
8.1138579e-34
4.9349828e-21
-1.5332372e-51
-1.7748482e-21
-3.6937602e-21
1.0991723e-33
4.3232061e-21
-2.3921736e-21
2.715305e-21
-3.1253012e-21
-3.5173086e-21
7.7435333e-21
0
0
-1.0779268e-20
1.3683921e-49
1.2624184e-20
0
0
-1.5299872e-20
2.1329255e-49
1.7956688e-20
0
0
-1.8717626e-20
-8.9680881e-21
1.8615278e-20
9.8273597e-21
0
-2.0835409e-20
5.5529144e-33
2.0190778e-20
-1.0985403e-20
0
1.0832625e-20
-1.0851849e-20
1.462062e-36
1.0815701e-20
-1.043944e-20
1.0114765e-20
1.0013551e-20
-9.3995224e-21
-9.600083e-21
2.786191e-33
9.1487171e-21
-8.7125004e-21
-2.3741667e-33
8.1219414e-21
-8.5060492e-21
7.7291992e-21
6.7835241e-21
-6.6808611e-21
-6.8979588e-21
1.9885787e-33
7.1695609e-21
-6.8631059e-21
8.8045919e-37
5.7036884e-21
-5.6649068e-21
5.7601176e-21
5.6552887e-21
-5.3750194e-21
-1.0094159e-20
2.7083712e-33
9.7822539e-21
-4.788446e-21
6.4442864e-37
8.7966771e-21
1.2515761e-36
-4.443098e-21
0
4.2492043e-21
0
-4.3249532e-21
0
0
0
-4.3882303e-21
-1.64077e-51
4.4852073e-21
0
4.1892054e-21
-1.1894052e-33
-4.5635745e-21
0
0
0
-4.5904665e-21
1.2612832e-33
4.6411429e-21
0
4.7210387e-21
1.2710639e-33
-4.395247e-21
0
4.4718945e-21
-4.5170268e-21
2.4523037e-33
4.2347745e-21
-4.0391932e-21
0
-3.9967647e-21
-1.0898139e-33
3.7304315e-21
0
3.5758894e-21
-3.5686981e-21
-1.92929e-33
3.3331642e-21
-1.8221687e-33
-4.6684296e-37
9.0567976e-34
-4.4965275e-37
-3.0605914e-21
0
3.1722651e-21
-9.055403e-34
-9.1227065e-34
-2.8943003e-51
-9.3258587e-34
0
-7.012376e-21
-9.9992627e-34
3.7416323e-21
-3.9183553e-21
1.1178396e-33
4.0704586e-21
4.2063148e-21
1.2409209e-33
-1.3094318e-33
4.8667918e-21
-4.9317055e-21
-4.8974398e-21
0
-5.3140935e-21
1.5542635e-33
5.7617583e-21
0
0
0
-1.2210477e-20
7.028328e-33
1.2811553e-20
0
0
0
0
0
0
0
-1.2267614e-20
3.3170894e-33
1.2386505e-20
6.3676487e-21
-6.3511259e-21
-6.2005421e-21
1.6505429e-33
3.201119e-33
5.8123457e-21
-5.8532925e-21
5.7878751e-21
5.6078004e-21
-5.4154059e-21
-5.2203678e-21
2.7107199e-33
4.6804842e-21
4.7339461e-21
-1.3310937e-33
-4.7766273e-21
-4.6487081e-21
4.4769399e-21
4.3180315e-21
-4.1983597e-21
4.1054715e-21
0
-3.8750167e-21
-3.7119558e-21
1.0046803e-33
3.6337533e-21
-3.6206241e-21
3.513152e-21
3.3509733e-21
-3.195583e-21
3.1333905e-21
8.7946215e-34
-3.1948486e-21
-3.1263785e-21
-4.2867571e-37
5.9154106e-21
1.6519073e-33
-3.0441739e-21
-3.0672686e-21
0
2.9401393e-21
0
0
0
3.0970525e-21
3.1252195e-21
-3.0727376e-21
-3.0073115e-21
0
3.1166271e-21
-9.0747579e-34
-3.3769024e-21
0
0
3.4499722e-21
-1.9444394e-33
-3.5577638e-21
0
0
3.7690145e-21
-2.1105712e-33
-3.7921741e-21
0
3.9214333e-21
-1.1206821e-33
1.1367011e-33
-1.1285528e-33
-3.9472292e-21
0
-4.0449043e-21
2.3356226e-33
4.3004803e-21
0
4.2965083e-21
-4.27801e-21
-4.2787285e-21
8.5632961e-21
1.1779106e-33
-8.4084711e-21
1.174854e-33
4.2727975e-21
0
0
4.132213e-21
-1.1358694e-33
-4.1124142e-21
0
4.0991412e-21
-4.0079294e-21
-3.9430877e-21
3.9434412e-21
0
-3.9881837e-21
3.9555609e-21
2.1580939e-33
-2.1267041e-33
3.7858694e-21
-3.0847345e-33
3.66331e-21
-3.7118266e-21
1.0410001e-33
-2.075313e-33
-7.3237645e-21
9.7973131e-34
3.4739998e-21
0
0
0
-7.2276518e-21
-3.513262e-21
6.8311912e-21
3.4048363e-21
0
0
3.5559715e-21
2.8162257e-51
-3.4181803e-21
0
-6.9453825e-21
-3.5219958e-21
7.0187315e-21
3.4470874e-21
0
-6.6266448e-21
-9.5057154e-37
1.0255641e-20
-9.5644432e-34
-6.8049308e-21
3.3335823e-21
1.8533048e-36
-3.2380482e-21
9.1507469e-34
1.8469907e-33
3.3091541e-21
0
3.1654081e-21
-1.7356984e-33
-6.3122277e-21
3.1948844e-21
-5.3240646e-33
-3.1564273e-21
6.1875979e-21
-4.3429737e-37
-3.0601816e-21
0
0
0
-2.9941094e-21
2.9768327e-21
5.9588587e-21
-2.9751405e-21
-8.1908387e-34
-8.0637853e-34
-2.8912439e-21
0
2.9244745e-21
-4.1335541e-37
-5.7328452e-21
2.8480114e-21
1.5916578e-33
-2.8990421e-21
-2.8874263e-21
1.5843711e-33
5.6386509e-21
0
2.8909093e-21
2.9355474e-21
0
-2.8311063e-21
-2.7824103e-21
2.8087884e-21
0
-3.0153084e-21
0
0
2.9265868e-21
-2.3897271e-33
-2.8834243e-21
0
0
3.1751253e-21
3.1886789e-21
-3.1525395e-21
-3.114297e-21
3.0838441e-21
3.1210033e-21
-6.4790184e-21
-3.3400528e-21
9.4112494e-34
3.3865181e-21
-1.8738777e-33
-1.8686914e-33
3.392693e-21
-3.4795437e-21
3.5639957e-21
-3.5868513e-21
-3.0507919e-36
3.5570585e-21
-7.1422138e-21
-3.6647956e-21
-3.743563e-21
7.5364841e-21
7.5263305e-21
-3.7264555e-21
3.7127598e-21
-3.7690788e-21
2.1380274e-33
7.8104559e-21
-3.9222787e-21
1.0867416e-33
-1.0856023e-33
-3.8868061e-21
0
0
3.9066381e-21
3.9180338e-21
0
-3.8540414e-21
-3.8166576e-21
0
-3.8169514e-21
1.0548367e-33
3.7142411e-21
-3.648847e-21
1.0169588e-33
3.681671e-21
0
3.5742601e-21
1.9145723e-33
-3.3695749e-21
3.3998515e-21
-9.4834512e-34
-3.3920625e-21
-3.3148007e-21
-8.8431789e-34
3.0891673e-21
0
-3.1079845e-21
3.0972431e-21
-8.6321686e-37
1.6392762e-33
2.8457018e-21
-2.7711806e-21
0
-5.5305943e-21
6.1059775e-33
2.6862848e-21
1.4466307e-33
5.0672578e-21
-4.9721322e-21
-4.955081e-21
4.9255821e-21
4.8350827e-21
2.3572174e-21
0
-2.2580545e-21
-4.4960235e-21
3.1818415e-37
-2.2060612e-21
2.1601967e-21
2.1191356e-21
-2.0906043e-21
4.1502324e-21
-4.1124576e-21
-3.376919e-33
4.0013246e-21
-3.9693267e-21
1.0931584e-33
-1.9330368e-21
1.8887992e-21
1.8551747e-21
-1.8384645e-21
-5.10091e-34
-3.6746237e-21
3.640692e-21
3.5907899e-21
-3.5439307e-21
-4.856848e-34
-1.7181004e-21
9.3297179e-34
1.6605991e-21
4.6292211e-34
-1.694072e-52
1.6752484e-21
3.2180745e-21
-1.5334352e-21
8.4257748e-51
-1.5017289e-21
-2.5776912e-33
1.5773186e-21
-3.1224498e-21
8.3084614e-34
2.8479579e-21
4.1795539e-52
-1.3674053e-21
0
0
-1.4262943e-21
1.3943582e-21
2.6726912e-21
0
0
0
-1.310191e-21
-1.3203643e-21
0
1.2741163e-21
-1.2509869e-21
-2.0662664e-33
2.4695606e-21
0
0
0
-1.2682367e-21
-1.2637243e-21
1.2489624e-21
-1.2410101e-21
-6.9809588e-34
2.5850344e-21
0
0
-2.642435e-21
3.7439298e-37
1.3448465e-21
-1.3987245e-21
1.4511656e-21
-1.477765e-21
8.1955748e-34
2.9498353e-21
0
0
-1.6486603e-21
-1.7048337e-21
0
0
1.7343668e-21
1.7752716e-21
0
-1.9410924e-21
-2.0156123e-21
2.0580444e-21
-2.0764387e-21
-2.1002583e-21
2.134028e-21
2.1845447e-21
-1.2562721e-33
-2.342018e-21
2.3989057e-21
6.7382529e-34
-2.4534536e-21
0
-2.5230203e-21
1.4394403e-33
2.6588547e-21
-2.6975138e-21
1.5111856e-33
2.7408919e-21
0
-2.8100995e-21
7.9466138e-34
4.1106693e-37
-2.9042439e-21
2.909862e-21
2.9245021e-21
0
-5.9598967e-21
3.3205481e-33
2.9702793e-21
4.1920694e-37
5.917799e-21
-5.9659211e-21
-5.9957782e-21
5.9809283e-21
2.9500875e-21
0
-5.8162468e-21
4.8392536e-33
5.7716547e-21
0
-5.5065356e-21
-1.4941461e-33
2.7105754e-21
7.6190235e-34
5.484295e-21
-5.3760182e-21
-6.5331062e-33
5.0669084e-21
-4.9472715e-21
1.3693842e-33
4.9325904e-21
2.4366001e-21
-4.7455218e-21
-2.2978371e-21
4.4518634e-21
-4.3522785e-21
-5.3897044e-33
4.2901762e-21
-4.2166264e-21
5.6836013e-34
-1.9787318e-21
2.1175873e-33
5.5742856e-21
-1.0209095e-33
-3.6649121e-21
1.8088218e-21
3.5019014e-21
-1.6852817e-21
9.0628602e-34
-1.6063305e-21
-1.7892686e-33
1.6160017e-21
-3.1875815e-21
1.279277e-33
-1.6404803e-33
7.9825976e-34
1.4333569e-21
0
1.4817264e-21
1.4840777e-21
0
0
0
0
0
-1.4412835e-21
-1.465802e-21
0
1.515465e-21
-1.5203585e-21
-2.5228562e-33
3.0291057e-21
0
0
0
-1.6425704e-21
-1.6759514e-21
1.7023996e-21
1.7229841e-21
-3.4840935e-21
-2.9402102e-33
3.5853019e-21
0
-3.7342373e-21
-3.1671242e-33
1.9234821e-21
-1.9428689e-21
1.9673516e-21
-1.9980516e-21
-1.1314609e-33
4.1553028e-21
0
0
-2.1692058e-21
-2.1945552e-21
0
-2.1842388e-21
-6.1524319e-37
-2.1733116e-21
2.2389425e-21
6.9271659e-21
0
4.7093619e-21
4.6786659e-21
0
-6.9488656e-21
-4.6319493e-21
4.692837e-21
-2.381541e-21
-2.4064559e-21
7.2393003e-21
2.4029429e-21
3.3951201e-37
2.3723001e-21
-2.3535737e-21
-2.3481883e-21
-2.3621219e-21
-6.8220094e-52
-2.3602926e-21
-2.3405388e-21
2.306719e-21
0
4.5618386e-21
4.5685758e-21
0
-2.24296e-21
-4.3942726e-21
-1.1997115e-33
-2.1612121e-21
-4.3258296e-21
4.2969354e-21
4.2315754e-21
2.0656333e-21
2.0238801e-21
0
-2.0072928e-21
-5.9882489e-21
1.9598808e-21
1.9629861e-49
-5.5932794e-21
3.6705135e-21
1.828563e-21
1.8153663e-21
3.5670914e-21
-3.4844942e-21
-1.6967806e-21
1.6617574e-21
1.6450605e-21
1.6303623e-21
-4.8171577e-21
-1.5700498e-21
4.59099e-21
1.4979061e-21
-1.4731971e-21
-2.9039598e-21
1.4258736e-21
-1.394233e-21
2.2774641e-33
-2.2496734e-33
-3.9971976e-21
1.3044734e-21
1.2730187e-21
2.489724e-21
1.226984e-21
-2.4411851e-21
-3.4451917e-37
-1.193556e-21
1.1706554e-21
3.4536737e-21
-3.4240445e-21
-1.1407418e-21
3.4142303e-21
0
-3.3180528e-21
-1.0964092e-21
3.2927809e-21
-1.1087588e-21
-2.2368299e-21
-6.1990832e-34
1.2342116e-33
1.1139329e-21
0
2.2698017e-21
2.2812193e-21
-1.1394301e-21
-1.1392247e-21
-2.3038462e-21
1.1784327e-21
1.211224e-21
-2.4673921e-21
0
2.4738022e-21
2.4866049e-21
-1.2616893e-21
-2.5842066e-21
7.3727964e-34
1.3582821e-21
-2.7494967e-21
1.3813023e-21
-4.6300201e-33
-2.8116197e-21
1.4307571e-21
0
2.9960424e-21
0
-3.385036e-33
-1.5343601e-21
-3.1040101e-21
4.7451471e-21
-4.5710748e-37
-3.2410371e-21
0
3.2553841e-21
1.6397051e-21
-3.3425897e-21
1.8900818e-33
1.7158696e-21
-3.4187858e-21
1.6948665e-21
-2.8115493e-33
-3.4103442e-21
1.74278e-21
-1.7691257e-21
3.5439274e-21
5.2748155e-21
0
-5.1803892e-21
-3.4713542e-21
5.2889691e-21
3.5571536e-21
-1.7733375e-21
-3.5098905e-21
1.7289173e-21
1.7125585e-21
-3.4384449e-21
1.741464e-21
3.4992478e-21
-1.7360869e-21
2.4325353e-37
-3.3642111e-21
-3.3273612e-21
5.0026906e-21
-1.6837386e-21
-2.8113888e-33
5.0167971e-21
0
-4.8810305e-21
-3.2248715e-21
1.6129662e-21
1.6153661e-21
1.6093877e-21
0
1.5705925e-21
-8.6298155e-34
-3.100759e-21
8.6057102e-34
1.5467371e-21
0
1.5144839e-21
-3.0033824e-21
-4.5008105e-21
2.999167e-21
4.4739631e-21
1.4768654e-21
-1.4584291e-21
-2.8995076e-21
1.4571619e-21
-1.4648826e-21
-1.4600026e-21
2.880527e-21
-2.8321413e-21
-1.4036622e-21
4.2316297e-21
2.8621324e-21
-1.4421508e-21
-4.3042461e-21
3.1438597e-33
-3.103237e-33
-1.3897508e-21
-1.5500967e-33
-1.4128878e-21
1.4250793e-21
1.4257987e-21
1.4192465e-21
-1.4130693e-21
-1.4101213e-21
4.2273928e-21
-1.4114288e-21
-2.8371124e-21
4.2801796e-21
4.0649602e-37
-1.4255884e-21
2.8385615e-21
1.4168539e-21
0
-1.4387651e-21
-1.4510469e-21
-2.9007228e-21
1.4452501e-21
-4.8010366e-33
-4.3385323e-21
1.4641229e-21
1.4799147e-21
1.4847132e-21
-1.4822512e-21
-1.4775789e-21
4.4464315e-21
-1.5008844e-21
-3.0450732e-21
-2.5592016e-33
-1.5408097e-21
3.0828492e-21
4.6440522e-21
8.6796947e-34
-8.7918773e-34
-2.2725048e-37
-1.6095183e-21
-3.233885e-21
-1.6289841e-21
4.94204e-21
-1.8493929e-33
-3.3460942e-21
0
0
1.6927974e-21
-9.6096231e-34
9.7824109e-34
1.7766141e-21
-3.5585167e-21
-1.7743597e-21
-1.9728538e-33
1.804006e-21
5.5451391e-21
1.8821127e-21
0
0
0
-5.7288639e-21
-3.8573341e-21
5.891613e-21
-2.2164496e-33
-4.019488e-21
0
0
4.0486063e-21
-4.5372585e-33
-2.293537e-33
4.1607525e-21
-2.0866217e-21
-4.1654457e-21
-4.1582407e-21
2.0937453e-21
6.338827e-21
2.1221777e-21
0
0
0
-6.2881286e-21
-4.2305612e-21
6.3802966e-21
-4.7056009e-33
-2.1025318e-21
2.9572006e-37
-2.0586361e-21
4.0995135e-21
-2.2739902e-33
-2.0471312e-21
4.0744459e-21
0
-1.1056129e-33
-3.9069332e-21
-3.820681e-21
5.6446694e-21
3.7502463e-21
-1.8640573e-21
-1.0193024e-33
1.7981982e-21
-5.2372585e-21
-3.3945278e-21
1.6695678e-21
1.6493252e-21
-1.6211829e-21
-1.5766902e-21
1.520061e-21
1.4653378e-21
-7.8923016e-34
7.7056677e-34
1.352344e-21
0
1.2386867e-21
-2.3595479e-21
-3.3883059e-21
2.1750157e-21
2.0872383e-21
9.8839577e-22
-1.0280431e-33
-1.7342859e-21
8.1455189e-22
-7.6290742e-22
-7.0573026e-22
1.2851092e-21
-1.1607115e-21
-5.2918411e-22
4.8698555e-22
8.8546413e-22
3.8564814e-22
-6.2799418e-22
1.3483738e-34
-1.8764559e-22
-1.4805586e-22
3.3881819e-22
-7.0818101e-23
-1.7419323e-23
-1.3054636e-22
1.4395826e-38
4.436013e-22
1.8536403e-22
-6.6648136e-22
2.636106e-22
-2.5131192e-49
5.9420645e-34
7.887945e-22
-8.442022e-22
-8.942681e-22
4.7508516e-22
-5.6437338e-34
-1.0917495e-21
5.8130437e-22
1.8196106e-21
6.2030314e-22
-6.2932005e-22
0
-6.5366845e-22
-1.3423293e-21
9.8160864e-38
2.1207087e-21
7.1310526e-22
-1.4198261e-21
1.0005426e-37
1.400293e-21
-1.3984633e-21
1.1619964e-33
1.3802834e-21
-2.0320526e-21
-1.3269336e-21
0
0
6.211427e-22
1.7745136e-21
5.5913536e-22
-1.5877805e-21
5.6191222e-34
9.763983e-22
-9.2879595e-22
-8.5606769e-22
3.8389471e-22
6.7975135e-22
-3.0091912e-22
-2.6678529e-22
6.93079e-22
1.8862827e-22
2.3527598e-34
-5.1660071e-35
-4.5551066e-23
-2.3044439e-24
1.0283035e-22
3.0580514e-22
0
-5.9615365e-22
-4.9636447e-22
9.0729446e-22
-1.0225486e-37
-4.1693663e-22
9.3980591e-22
-5.1803508e-22
-5.6702021e-22
-6.8937229e-34
6.782098e-22
1.4698944e-21
-7.8750488e-22
-1.6720099e-21
-1.7701918e-21
1.0409217e-33
9.907805e-22
-1.0412868e-21
2.1727801e-21
3.3898592e-21
0
-3.6680224e-21
-2.5466901e-21
3.95935e-21
-1.5060283e-33
-1.3881398e-21
1.4201648e-21
1.4549037e-21
-8.298912e-34
-3.079625e-21
8.7562152e-34
3.2139739e-21
-1.8135281e-33
-1.8449167e-33
-3.3735297e-21
-5.1275622e-21
3.4589407e-21
-1.9362856e-33
-5.8397167e-33
1.7696847e-21
1.7997603e-21
3.6519965e-21
-5.4963198e-21
-1.8301587e-21
3.6327979e-21
-3.6108636e-21
-1.0367578e-36
5.5668159e-21
1.8748573e-21
-1.8721157e-21
-5.5859089e-21
6.1410595e-33
3.6490153e-21
1.8245321e-21
-3.6781887e-21
-5.5387903e-21
5.51523e-21
1.8238711e-21
2.0001861e-33
1.7775896e-21
-3.5265584e-21
9.7801022e-34
-1.7630983e-21
1.753522e-21
-5.7781235e-33
-5.1423527e-21
5.0784284e-21
5.035127e-21
0
0
0
-1.5870895e-21
-4.7395788e-21
-1.5737476e-21
-1.7254641e-33
-1.525639e-21
4.4783387e-21
1.4661075e-21
-1.4584847e-21
-1.451581e-21
-1.4362992e-21
2.8287242e-21
-1.3838584e-21
1.357472e-21
-4.4831166e-33
-2.6774108e-21
3.9815005e-21
2.6169775e-21
0
-2.5162877e-21
-1.3847513e-33
1.2424954e-21
-3.7012097e-21
-1.2141297e-21
1.1884842e-21
0
0
1.1515651e-21
2.302568e-21
-2.5328826e-33
-2.2467008e-21
-1.1078228e-21
1.0974373e-21
-1.0885141e-21
1.0764514e-21
8.7016193e-50
-1.7375921e-33
3.0952612e-21
0
0
-2.0645144e-21
-2.0189665e-21
-9.813346e-22
1.068954e-33
2.8954683e-21
-1.0916037e-33
-1.9957984e-21
0
1.9335838e-21
9.3712058e-22
-1.8279628e-21
9.0942305e-22
9.2731806e-22
-2.8395864e-21
9.5556145e-22
-3.1527197e-33
-1.8459357e-21
2.7027489e-21
1.7699681e-21
0
0
0
-2.7460869e-21
-1.8230062e-21
2.6793688e-21
1.7455523e-21
0
-1.7069168e-21
9.5784088e-34
8.7707698e-22
-1.775121e-21
8.8506161e-22
-8.6757081e-22
-8.4868377e-22
2.5089384e-21
-1.6711174e-21
-1.6957856e-21
8.6325722e-22
-8.7144365e-22
1.7329226e-21
2.5541034e-21
0
-2.4968267e-21
-1.6721821e-21
8.4982162e-22
8.6397552e-22
-9.6386572e-34
8.6081211e-22
-2.8309421e-33
-8.4243315e-22
-4.6850706e-34
2.7926033e-51
8.7054831e-22
0
8.7932425e-22
-1.7432728e-21
-2.5960348e-21
2.6008412e-21
2.6337304e-21
0
-1.8142448e-21
-1.8190445e-21
1.8099341e-21
-9.0146853e-22
-9.0477246e-22
2.7481817e-21
-1.8660399e-21
-1.8908976e-21
9.4931883e-22
1.8983137e-21
9.5017409e-22
-2.8697827e-21
-9.6919001e-22
-1.6383601e-33
1.987376e-21
5.6585019e-37
-2.9879497e-21
1.9994287e-21
3.0244098e-21
1.0232951e-21
-3.108787e-21
-2.0828042e-21
3.1240266e-21
-2.3125931e-33
-2.0922369e-21
-1.0566096e-21
5.9456858e-34
2.1667534e-21
-1.2084828e-33
1.0900839e-21
1.092511e-21
-3.2869016e-21
-1.0986823e-21
-1.2223482e-33
2.2076052e-21
-3.694903e-33
-3.3522898e-21
2.244192e-21
-1.2425525e-33
-1.2367527e-33
-2.4622873e-33
-1.1085378e-21
3.3501213e-21
-1.1226731e-21
-1.8645818e-33
-3.6978496e-33
-3.2950616e-21
1.0913783e-21
2.1866016e-21
-1.2228224e-33
1.102615e-21
1.0907855e-21
-2.1494974e-21
-2.1192796e-21
1.1658122e-33
3.1509846e-21
-1.1687714e-33
-1.0480641e-21
2.0620841e-21
-1.0114525e-21
-9.9429258e-22
5.4519286e-34
-5.4397619e-34
9.7630422e-22
-1.9289918e-21
9.4450843e-22
-3.073582e-33
-3.014408e-33
2.6810277e-21
-1.7742001e-21
2.4915858e-37
1.712759e-21
-8.3310324e-22
-2.4375941e-21
-7.975299e-22
2.3680349e-21
-8.6514158e-34
-7.6110182e-22
1.4704888e-21
-1.4186996e-21
-3.4509327e-33
6.8040518e-22
-6.747018e-22
6.6491591e-22
-1.2924721e-21
6.2050193e-22
1.7881275e-21
0
0
-1.1254141e-21
-1.5752334e-37
1.0780264e-21
-5.1801465e-22
-1.4945548e-21
-4.8464814e-22
1.4318981e-21
1.3447095e-37
5.16802e-34
9.035727e-22
-1.3061041e-21
-2.110413e-33
4.1676847e-22
-4.1629847e-22
-4.1514807e-22
4.5319892e-34
3.9464404e-22
-7.6654783e-22
7.6244778e-22
-1.2900044e-33
-7.9204825e-22
1.1943247e-21
7.7874852e-22
-3.7530205e-22
-1.1038576e-21
-3.7507906e-22
3.9231186e-22
0
-4.2163167e-22
4.2098266e-22
1.2343132e-21
2.2532405e-34
-8.2365105e-22
4.2873695e-22
4.5191883e-22
-9.4609588e-22
4.8671547e-22
-4.907244e-22
-9.8035513e-22
1.4829899e-21
-1.6870903e-33
1.1687723e-33
1.1018356e-21
-1.1486726e-21
-5.8968056e-22
-5.9494616e-22
-6.6552476e-34
6.0885879e-22
-1.2530283e-21
1.3032114e-21
2.036718e-21
0
-7.0686405e-22
3.9493731e-34
2.043646e-37
-2.2014927e-21
-7.5699824e-22
2.3525826e-21
-8.0434212e-22
1.2928891e-50
2.4525584e-21
-8.2233415e-22
-2.496732e-21
-8.5005179e-22
1.7470006e-21
-8.914325e-22
8.9906598e-22
-3.0000351e-33
-1.8033805e-21
2.7160736e-21
1.0169499e-33
-4.141819e-33
1.8902683e-21
-1.8961496e-21
-1.0493905e-33
9.4022624e-22
-1.8743581e-21
-9.4080777e-22
0
0
1.9062852e-21
-2.0957359e-33
-5.3016588e-37
-1.0246796e-33
-9.1843298e-22
-9.1856444e-22
9.1703726e-22
9.0946756e-22
-1.7941342e-21
1.7668524e-21
-9.6555215e-34
-1.7101015e-21
1.6775805e-21
2.7391795e-33
-8.9741093e-34
7.9630263e-22
-1.5628484e-21
7.5968143e-22
-1.6320852e-33
-1.4217766e-21
0
1.3516294e-21
6.6103299e-22
-1.2819413e-21
-6.1409553e-22
5.8513704e-22
-9.3159071e-34
-5.3811431e-22
0
0
9.4734159e-22
8.9122813e-22
0
-7.904435e-22
-3.747699e-22
3.5419248e-22
-3.3185564e-22
3.0831995e-22
0
-5.1862828e-22
0
0
1.7309178e-22
-1.7224704e-34
-1.4501666e-22
0
1.2206476e-22
5.681388e-35
-7.8443474e-23
0
7.3307757e-23
3.7189383e-23
5.2421493e-25
2.2825658e-35
-3.5064029e-23
7.8400352e-23
7.4735503e-23
-7.3933726e-23
-1.2147587e-38
-1.3056976e-34
-2.4044308e-38
2.1591999e-22
-1.151674e-22
1.1822893e-34
-9.3642343e-23
8.5524008e-23
2.5418521e-22
-2.6785839e-22
-9.722828e-23
1.0789721e-22
1.2739768e-34
1.0940557e-22
-1.8577019e-22
-1.4827892e-22
1.2072291e-22
1.7927816e-34
5.5033059e-23
5.9865655e-23
-1.1588565e-22
4.3264937e-23
-2.2525368e-35
-1.5142834e-36
2.0864214e-23
6.4757292e-23
-7.5204794e-23
-8.4217167e-23
0
7.4278062e-23
1.1057354e-34
-2.4850048e-22
-1.6068003e-34
4.7920065e-22
3.4325271e-22
0
-4.1177545e-22
-5.0881248e-34
-2.5353379e-22
-2.7509469e-22
8.7595221e-22
-1.7091962e-34
-6.5522601e-22
3.5123205e-22
7.5403145e-22
-4.0158425e-22
-8.4184544e-22
-4.3499628e-22
0
9.4046789e-22
-4.9470291e-22
-1.5666773e-21
5.4817487e-22
5.679191e-22
1.1635413e-21
5.9573617e-22
-1.2267528e-21
-6.3423184e-22
-6.5752594e-22
7.5598416e-34
7.021262e-22
7.195136e-22
1.4671347e-21
7.4716415e-22
0
0
0
-1.6385114e-21
-1.6760743e-21
1.7028482e-21
9.5656914e-34
9.6871014e-34
-9.8249552e-34
-1.9985612e-33
1.8343322e-21
0
-1.8899041e-21
-9.5510673e-22
9.6620228e-22
-9.7666092e-22
-9.8605102e-22
0
0
2.0145594e-21
-3.3832672e-33
-2.2852926e-33
2.0818264e-21
-2.0877756e-21
-2.0874848e-21
0
2.0859107e-21
-1.1702146e-33
-2.1376156e-21
2.154107e-21
1.1947869e-33
-2.1431589e-21
0
2.1273649e-21
1.0739572e-21
-2.1680191e-21
1.0870318e-21
2.4081073e-33
-2.1541878e-21
2.1411781e-21
2.141129e-21
0
0
0
-2.1231066e-21
-2.1009819e-21
2.0920345e-21
0
-2.1042471e-21
0
-1.0327759e-21
2.0304099e-21
1.0007441e-21
-9.9858571e-22
2.0086359e-21
1.0043558e-21
-1.9889724e-21
-9.7894257e-22
-1.0658372e-33
9.435545e-22
-2.0780029e-33
5.3176853e-37
1.8660457e-21
0
-9.0409713e-22
-1.7727649e-21
-8.7188169e-22
0
0
0
-8.2497626e-22
1.6039287e-21
7.8382737e-22
-7.7614892e-22
-7.7494735e-22
7.7013077e-22
7.5338731e-22
-1.4497025e-21
0
1.3449519e-21
1.3221525e-21
0
0
-1.3083752e-21
-7.0648878e-34
-6.0814174e-22
-5.7928442e-22
5.5507094e-22
-5.4021832e-22
5.3603208e-22
1.0703018e-21
5.3094735e-22
0
-9.7682456e-22
-5.0645167e-34
4.3023527e-22
-4.1803703e-22
-4.1781525e-22
-8.3887898e-22
8.3121216e-22
4.0198944e-22
-1.0704262e-37
3.4648254e-22
-6.4516851e-22
3.108173e-22
-3.0955978e-22
-4.8872187e-51
3.0795757e-22
-5.962012e-22
5.6106439e-22
5.1696583e-22
0
-2.2626416e-22
-4.4037342e-22
1.211691e-34
2.162217e-22
2.1107465e-22
-4.0380963e-22
-3.7766667e-22
1.7395861e-22
3.2261549e-22
3.0688597e-22
-1.5054473e-22
-3.0082004e-22
1.4946367e-22
-1.45001e-22
2.2604508e-34
1.2377372e-22
-2.2914592e-22
2.2293556e-22
1.2532236e-34
-6.3937654e-34
2.2932341e-22
-2.1832235e-22
-4.4404319e-34
9.2964794e-23
-1.8368164e-22
9.5225945e-23
-2.8253691e-38
4.4723513e-34
9.7415111e-23
-1.8309909e-22
1.9592389e-34
-4.9776748e-35
9.3810318e-23
-2.7734913e-38
-1.9718116e-22
1.9416673e-22
5.4830961e-38
-4.3835231e-34
2.0532689e-22
-2.1191954e-22
-2.3677686e-34
2.1137931e-22
-1.0682885e-22
-1.1179313e-22
-1.1874113e-22
1.2461156e-22
-1.4005859e-34
-2.4695937e-22
0
0
2.7062282e-22
4.1154344e-38
-3.0095179e-22
1.5007582e-22
-1.6254316e-34
1.4629108e-22
3.3888679e-34
-3.2551013e-22
0
-1.7746282e-22
3.5270895e-22
1.7361786e-22
-3.8876522e-34
1.8203595e-22
-3.8353316e-22
2.0052108e-22
-2.269762e-34
-4.0605335e-22
0
0
2.1128723e-22
-1.2230194e-34
2.2731299e-22
-2.2945678e-22
-6.8401443e-22
6.8400322e-22
2.324807e-22
-4.8044053e-22
2.484209e-22
4.211203e-34
2.5204407e-22
-1.4243254e-37
-8.4192761e-34
2.5892015e-22
-5.3450664e-22
-2.7305713e-22
0
-2.7133079e-22
2.7112435e-22
2.7601589e-22
2.8442618e-22
-6.4864189e-34
3.2691568e-34
-3.227578e-34
-5.7469724e-22
2.8983394e-22
4.9648918e-34
-6.1781866e-22
4.4752174e-38
3.1270532e-22
6.1074153e-22
6.0199597e-22
-6.1141452e-22
-3.5263722e-34
-3.3007545e-22
-3.3597407e-22
6.6420643e-22
-6.4466337e-22