/*--------------------------------*- C++ -*----------------------------------*\
  =========                 |
  \\      /  F ield         | OpenFOAM: The Open Source CFD Toolbox
   \\    /   O peration     | Website:  https://openfoam.org
    \\  /    A nd           | Version:  7
     \\/     M anipulation  |
\*---------------------------------------------------------------------------*/
FoamFile
{
    version     2.0;
    format      ascii;
    class       volVectorField;
    location    "0.00294";
    object      U;
}
// * * * * * * * * * * * * * * * * * * * * * * * * * * * * * * * * * * * * * //

dimensions      [0 1 -1 0 0 0 0];

internalField   nonuniform List<vector> 
5000
(
(-89.548859 1.9450829e-17 0)
(-89.475852 1.8820731e-17 0)
(-89.435129 0 0)
(-89.392094 0 0)
(-89.349744 -9.9386805e-18 0)
(-89.307325 1.1271872e-32 -9.9148438e-18)
(-89.264919 9.8940082e-18 -2.1090347e-32)
(-89.222452 0 2.9624684e-17)
(-89.179975 0 9.8571778e-18)
(-89.137422 -9.8402324e-18 -1.9680465e-17)
(-89.09486 -1.9647608e-17 -1.9647608e-17)
(-89.052215 9.8076564e-18 9.8076564e-18)
(-89.009566 9.7917341e-18 -8.3489346e-32)
(-88.966832 -9.7758594e-18 -8.6132457e-32)
(-88.924099 0 1.9519897e-17)
(-88.881285 -9.7440298e-18 -1.948806e-17)
(-88.838473 -1.1875317e-47 -5.9376587e-48)
(-88.795587 9.7122954e-18 -8.5572411e-32)
(-88.752702 0 -9.6964939e-18)
(-88.709749 9.6807805e-18 1.9361561e-17)
(-88.666796 -9.6651426e-18 9.6651426e-18)
(-88.62378 -9.6496318e-18 0)
(-88.580765 1.9268296e-17 0)
(-88.537691 -9.6188023e-18 -9.6188023e-18)
(-88.494618 -9.6035583e-18 8.1884863e-32)
(-88.451489 -7.9031668e-32 -7.9031668e-32)
(-88.408362 9.5736036e-18 -9.5736036e-18)
(-88.365182 9.5588945e-18 9.5588945e-18)
(-88.322004 -1.9088669e-17 9.5443347e-18)
(-88.278774 1.6522517e-31 -9.5300718e-18)
(-88.235546 -1.6633084e-31 1.6633084e-31)
(-88.19227 9.5019055e-18 -8.1018119e-32)
(-88.148996 1.8976244e-17 -9.4881221e-18)
(-88.105674 -1.894942e-17 9.4747098e-18)
(-88.062353 1.6403392e-31 9.4613612e-18)
(-88.018988 -8.2171314e-31 0)
(-87.975624 -3.2715792e-31 0)
(-87.932217 1.8844873e-17 -9.4224364e-18)
(-87.88881 -1.8819798e-17 -9.409899e-18)
(-87.845362 -1.8795415e-17 9.3977075e-18)
(-87.801915 1.8771241e-17 -1.5738567e-31)
(-87.758426 -6.4473817e-31 -9.3738461e-18)
(-87.714939 -1.8724332e-17 9.3621661e-18)
(-87.671411 9.3508048e-18 -1.5813068e-31)
(-87.627885 2.8018669e-17 -9.3395562e-18)
(-87.584319 -9.3286391e-18 9.3286391e-18)
(-87.540754 -9.317835e-18 -3.2044285e-31)
(-87.49715 -6.3751939e-31 3.1875969e-31)
(-87.453547 -1.8593941e-17 -3.1972531e-31)
(-87.409907 0 1.5836967e-31)
(-87.366268 9.2769088e-18 9.2769088e-18)
(-87.322592 1.3169517e-33 0)
(-87.278916 -9.2576211e-18 0)
(-87.235205 1.8496618e-17 0)
(-87.191494 -3.2298687e-31 0)
(-87.147749 -1.8460393e-17 0)
(-87.104003 9.2213644e-18 0)
(-87.060224 -3.1814086e-31 0)
(-87.016445 -9.2043639e-18 0)
(-86.972633 0 0)
(-86.928821 9.1880426e-18 0)
(-86.884977 3.1310201e-31 0)
(-86.841131 2.6069708e-33 0)
(-86.797258 9.1649509e-18 -9.1649509e-18)
(-86.753378 -9.1574827e-18 -9.1574827e-18)
(-86.709476 3.1988114e-31 9.1502576e-18)
(-86.665563 9.1430468e-18 -1.5721592e-31)
(-86.621634 -9.1360731e-18 -3.2410097e-49)
(-86.577688 -9.1291525e-18 9.1291525e-18)
(-86.533732 9.122451e-18 0)
(-86.489755 9.1157305e-18 0)
(-86.445773 -9.1092611e-18 -9.1092611e-18)
(-86.401765 -9.1028132e-18 -9.1028132e-18)
(-86.357757 1.8193088e-17 0)
(-86.313721 9.0903005e-18 9.0903005e-18)
(-86.269686 -9.0842748e-18 3.137016e-31)
(-86.225624 0 -9.0782596e-18)
(-86.181562 9.072457e-18 -9.072457e-18)
(-86.137474 -1.2884498e-33 9.0666592e-18)
(-86.093387 -9.0610673e-18 1.8122135e-17)
(-86.049274 9.0554738e-18 -1.8110948e-17)
(-86.005161 -2.5721873e-33 5.1443746e-33)
(-85.961024 2.5706518e-33 2.7134031e-17)
(-85.916888 9.0394657e-18 -1.8078931e-17)
(-85.872727 9.0342382e-18 -9.3977269e-31)
(-85.828567 3.1436573e-31 1.8058385e-17)
(-85.784383 -9.0241216e-18 -2.7072365e-17)
(-85.740201 0 9.0192226e-18)
(-85.695995 -9.0142889e-18 9.0142889e-18)
(-85.65179 -9.3464053e-31 -9.0095179e-18)
(-85.607564 -3.1479278e-31 9.0047043e-18)
(-85.563338 9.0000463e-18 9.0000463e-18)
(-85.519091 8.9953402e-18 3.1318711e-31)
(-85.474845 -1.7981569e-17 -1.7981569e-17)
(-85.430578 -6.2190509e-31 -6.2190509e-31)
(-85.386313 8.9817148e-18 -8.9817148e-18)
(-85.342028 0 -8.977196e-18)
(-85.297743 0 -3.1495317e-31)
(-85.253441 -8.9683761e-18 6.2449662e-31)
(-85.209139 -6.2164889e-31 1.7928136e-17)
(-85.164819 1.7919381e-17 8.9596906e-18)
(-85.1205 -8.95544e-18 -8.95544e-18)
(-85.076164 -1.790223e-17 1.2720299e-33)
(-85.031829 0 8.946912e-18)
(-84.987477 8.942631e-18 0)
(-84.943126 8.938469e-18 -8.938469e-18)
(-84.898761 -8.9342261e-18 -3.1105932e-31)
(-84.854395 -8.9300983e-18 8.9300983e-18)
(-84.810015 0 -8.9258858e-18)
(-84.765636 0 -8.9217836e-18)
(-84.721243 8.9175917e-18 1.7835183e-17)
(-84.67685 8.9135042e-18 8.9135042e-18)
(-84.632445 0 -2.6727964e-17)
(-84.58804 -8.9052369e-18 -8.9052369e-18)
(-84.543623 3.1116923e-31 2.6703156e-17)
(-84.499206 8.8969603e-18 -8.8969603e-18)
(-84.454778 -8.8927641e-18 -8.8927641e-18)
(-84.410351 2.5263084e-33 -5.0526169e-33)
(-84.365913 -3.1058862e-31 -8.8844436e-18)
(-84.321476 -1.9139674e-49 2.6640949e-17)
(-84.277028 1.7752158e-17 -6.2059241e-31)
(-84.232582 -3.7823292e-33 -1.774385e-17)
(-84.188126 -8.8676585e-18 1.7735317e-17)
(-84.143671 0 8.8634722e-18)
(-84.099208 -8.8591702e-18 -8.8591702e-18)
(-84.054745 8.8549454e-18 8.8549454e-18)
(-84.010274 8.8506028e-18 -8.8506028e-18)
(-83.965804 -1.7692671e-17 -1.7692671e-17)
(-83.921328 -8.8419492e-18 8.8419492e-18)
(-83.876852 1.7675275e-17 3.0518463e-31)
(-83.83237 8.8332067e-18 8.8332067e-18)
(-83.787889 -8.8288501e-18 1.76577e-17)
(-83.743402 -8.8243746e-18 -8.8243746e-18)
(-83.698916 -8.8199728e-18 -8.8199728e-18)
(-83.654425 0 -8.8154518e-18)
(-83.609935 8.8110034e-18 -3.0676913e-31)
(-83.565441 8.8064352e-18 -3.0535861e-31)
(-83.520947 -8.8019384e-18 3.0645351e-31)
(-83.47645 -3.0504257e-31 1.7594642e-17)
(-83.431953 8.7927736e-18 8.7927736e-18)
(-83.387454 -8.7881053e-18 -8.7881053e-18)
(-83.342955 -8.7835074e-18 -1.7567015e-17)
(-83.298454 0 -8.7787888e-18)
(-83.253953 8.7741378e-18 -8.7741378e-18)
(-83.209452 8.7693647e-18 6.0814642e-31)
(-83.16495 -8.7646639e-18 1.7529328e-17)
(-83.120448 8.7598455e-18 -2.4896978e-33)
(-83.075945 -4.9766945e-33 2.4883472e-33)
(-83.031443 -8.7502149e-18 1.8795846e-48)
(-82.986941 8.7454038e-18 8.7454038e-18)
(-82.942439 -8.7404734e-18 -6.0614284e-31)
(-82.897938 6.082886e-31 1.2165772e-30)
(-82.853438 8.7306356e-18 8.7306356e-18)
(-82.808938 -8.7257299e-18 -8.7257299e-18)
(-82.764439 8.7207091e-18 8.7207091e-18)
(-82.71994 8.7157618e-18 3.0221456e-31)
(-82.675443 -8.710701e-18 -8.710701e-18)
(-82.630947 0 8.7057139e-18)
(-82.586452 0 -1.2364315e-33)
(-82.541959 -8.6955849e-18 -8.6955849e-18)
(-82.497467 -8.690443e-18 0)
(-82.452977 8.6853744e-18 8.6853744e-18)
(-82.408488 8.6801933e-18 6.0072894e-31)
(-82.364001 -8.6750864e-18 -1.7350173e-17)
(-82.319516 -6.0124648e-31 8.6698687e-18)
(-82.275032 8.6647264e-18 -2.4626634e-33)
(-82.230551 -8.6594748e-18 -8.6594748e-18)
(-82.186072 -8.6542993e-18 8.6542993e-18)
(-82.141595 0 -8.6490156e-18)
(-82.09712 8.6438084e-18 8.6438084e-18)
(-82.052648 8.6384934e-18 -3.5993342e-30)
(-82.008178 0 -2.3948294e-30)
(-81.963711 -8.6279096e-18 8.6279096e-18)
(-81.919246 -8.6226413e-18 -1.7245283e-17)
(-81.874784 0 0)
(-81.830325 8.6119711e-18 -5.9723133e-31)
(-81.785869 1.7905705e-30 -1.7905705e-30)
(-81.741415 -8.60125e-18 8.60125e-18)
(-81.696965 8.5958272e-18 8.5958272e-18)
(-81.652518 8.5904859e-18 5.9207901e-31)
(-81.608073 -8.5850451e-18 -8.5850451e-18)
(-81.563632 -5.92554e-31 8.5796874e-18)
(-81.519194 5.897403e-31 5.897403e-31)
(-81.474759 3.6531254e-33 3.6531254e-33)
(-81.430328 8.5633946e-18 1.1865083e-30)
(-81.3859 -8.5580123e-18 -1.7116025e-17)
(-81.341475 -1.1862189e-30 8.552534e-18)
(-81.297054 5.8787689e-31 8.5471402e-18)
(-81.252636 -5.874993e-31 -5.874993e-31)
(-81.208222 8.5362448e-18 5.8834058e-31)
(-81.163811 0 -1.7735826e-30)
(-81.119404 0 5.8879959e-31)
(-81.075 -8.5198151e-18 -8.5198151e-18)
(-81.0306 -8.5143883e-18 0)
(-80.986204 0 0)
(-80.941811 0 0)
(-80.897422 8.4979093e-18 0)
(-80.853038 2.5504004e-49 -8.4924709e-18)
(-80.808656 -8.4869421e-18 1.7693003e-30)
(-80.764279 0 8.4815007e-18)
(-80.719905 8.4759694e-18 8.4759694e-18)
(-80.675536 -8.4705254e-18 -8.4705254e-18)
(-80.63117 -2.345748e-30 -8.4649917e-18)
(-80.586808 1.691909e-17 1.691909e-17)
(-80.542451 -8.4540087e-18 5.8507541e-31)
(-80.498097 -1.7540948e-30 -1.7540948e-30)
(-80.453747 -1.1998253e-33 -8.4430202e-18)
(-80.409401 -8.4375683e-18 -8.4375683e-18)
(-80.365059 8.432028e-18 8.432028e-18)
(-80.320721 -1.1974883e-33 0)
(-80.276388 -1.1655868e-30 8.4210347e-18)
(-80.232058 5.8241605e-31 5.8241605e-31)
(-80.187733 -8.4100433e-18 -8.4100433e-18)
(-80.143411 0 -8.4045925e-18)
(-80.099094 8.3990559e-18 1.1697061e-30)
(-80.054781 5.8089523e-31 8.3936073e-18)
(-80.010472 2.328009e-30 -1.6776146e-17)
(-79.966167 8.3826266e-18 8.3826266e-18)
(-79.921867 0 8.3770946e-18)
(-79.87757 -8.3716501e-18 -8.3716501e-18)
(-79.833278 -8.3661204e-18 8.3661204e-18)
(-79.78899 0 0)
(-79.744706 0 0)
(-79.700426 0 0)
(-79.656151 8.3441871e-18 8.3441871e-18)
(-79.61188 5.7709871e-31 -8.3387498e-18)
(-79.567613 -8.3332286e-18 -1.6666457e-17)
(-79.52335 0 8.3277948e-18)
(-79.479092 0 -5.7832408e-31)
(-79.434837 8.3168491e-18 8.3168491e-18)
(-79.390587 8.3113377e-18 8.3113377e-18)
(-79.346342 -8.305914e-18 -1.6611828e-17)
(-79.3021 -8.3004078e-18 2.3591178e-33)
(-79.257863 0 -2.3575776e-33)
(-79.21363 8.2894869e-18 8.2894869e-18)
(-79.169401 8.2840715e-18 8.2840715e-18)
(-79.125176 -8.2785729e-18 -1.6557146e-17)
(-79.080956 -8.2731599e-18 1.1756867e-33)
(-79.03674 0 -1.7224117e-30)
(-78.992528 8.2622521e-18 8.2622521e-18)
(-78.94832 -2.2927373e-30 -4.5854746e-30)
(-78.904117 -5.7222252e-31 -1.144445e-30)
(-78.859918 8.2458568e-18 8.2458568e-18)
(-78.815723 -8.2404507e-18 -8.2404507e-18)
(-78.771533 -8.2349627e-18 0)
(-78.727347 0 -8.2295594e-18)
(-78.683165 8.2240736e-18 8.2240736e-18)
(-78.638987 -1.1422487e-30 8.2186716e-18)
(-78.594813 8.2131873e-18 -8.2131873e-18)
(-78.550644 1.1384032e-30 0)
(-78.506479 -1.6404614e-17 -8.2023071e-18)
(-78.462319 8.1969119e-18 8.1969119e-18)
(-78.418162 -1.1361353e-30 8.191436e-18)
(-78.37401 -2.8419587e-30 -2.8419587e-30)
(-78.329862 -5.661517e-31 -1.6361143e-17)
(-78.285718 -8.1751834e-18 -1.6350367e-17)
(-78.241579 8.1697157e-18 2.4509147e-17)
(-78.197444 8.1643341e-18 1.6328668e-17)
(-78.153313 0 0)
(-78.109186 -8.1535001e-18 -1.6307e-17)
(-78.065063 -8.1480451e-18 -8.1480451e-18)
(-78.020945 0 8.1426714e-18)
(-77.97683 8.1372145e-18 8.1372145e-18)
(-77.93272 8.131838e-18 8.131838e-18)
(-77.888614 -1.6252761e-17 -1.6252761e-17)
(-77.844512 -8.1210063e-18 -1.6242013e-17)
(-77.800415 8.1155548e-18 8.1155548e-18)
(-77.756321 8.1101884e-18 1.6220377e-17)
(-77.712232 2.2482227e-30 2.2482227e-30)
(-77.668147 -8.0993823e-18 -1.6198765e-17)
(-77.624066 8.0939397e-18 8.0939397e-18)
(-77.579989 -5.6093446e-31 -1.1218689e-30)
(-77.535916 -8.0831318e-18 -8.0831318e-18)
(-77.491847 8.0777667e-18 1.6155533e-17)
(-77.447783 -5.6095433e-31 -8.0723214e-18)
(-77.403722 5.6172792e-31 1.1234558e-30)
(-77.359666 -2.2912198e-33 8.0615131e-18)
(-77.315614 -5.5639601e-31 -8.05615e-18)
(-77.271566 8.0507073e-18 8.0507073e-18)
(-77.227522 0 -1.6090689e-17)
(-77.183482 0 3.3544942e-30)
(-77.139447 -8.0345414e-18 1.6069083e-17)
(-77.095415 -8.0291027e-18 -1.6058205e-17)
(-77.051388 0 -5.5529828e-31)
(-77.007364 0 8.0183128e-18)
(-76.963345 0 0)
(-76.91933 0 0)
(-76.875319 8.0021852e-18 8.0021852e-18)
(-76.831311 5.5115777e-31 -7.9967587e-18)
(-76.787308 -1.5982821e-17 -1.5982821e-17)
(-76.743309 3.4046292e-33 7.9859826e-18)
(-76.699314 7.9806319e-18 -2.268232e-33)
(-76.655323 7.9752016e-18 7.9752016e-18)
(-76.611336 -1.1065342e-30 7.9698487e-18)
(-76.567353 -1.1035165e-30 -7.9644177e-18)
(-76.523374 -1.1310513e-33 0)
(-76.479399 -7.9536373e-18 -7.9536373e-18)
(-76.435428 -7.948289e-18 -7.948289e-18)
(-76.391462 -7.9428656e-18 0)
(-76.347499 1.5875044e-17 1.5875044e-17)
(-76.30354 2.3796309e-17 7.932103e-18)
(-76.259585 -7.9267629e-18 -1.5853526e-17)
(-76.215634 -1.5842693e-17 5.4821155e-31)
(-76.171687 0 -2.2498649e-33)
(-76.127744 7.9105935e-18 7.9105935e-18)
(-76.083805 7.9052557e-18 7.9052557e-18)
(-76.039869 -7.8998408e-18 -7.8998408e-18)
(-75.995938 2.2437524e-33 7.894502e-18)
(-75.952011 -3.3633196e-33 -7.8890859e-18)
(-75.908087 2.2406952e-33 4.4813905e-33)
(-75.864168 7.8783281e-18 1.5756656e-17)
(-75.820252 7.8729872e-18 -7.8729872e-18)
(-75.77634 -7.8675707e-18 -7.8675707e-18)
(-75.732433 -1.5724463e-17 -7.8622317e-18)
(-75.688529 7.8568185e-18 -1.0897246e-30)
(-75.644629 2.5148234e-49 7.8514833e-18)
(-75.600733 7.8460742e-18 0)
(-75.556841 2.1727613e-30 0)
(-75.512952 -1.5670674e-17 -7.8353371e-18)
(-75.469068 0 1.0871187e-30)
(-75.425187 0 -2.1716252e-30)
(-75.381311 1.5638555e-17 -1.0867401e-30)
(-75.337438 -4.3395157e-30 7.8138758e-18)
(-75.293568 -1.5617099e-17 -7.8085495e-18)
(-75.249703 0 1.1088941e-33)
(-75.205842 7.7978222e-18 7.7978222e-18)
(-75.161984 7.7924209e-18 0)
(-75.11813 -7.7870938e-18 0)
(-75.07428 1.1058449e-33 0)
(-75.030434 -1.0796706e-30 0)
(-74.986591 1.1043196e-33 0)
(-74.942752 7.7656271e-18 0)
(-74.898918 -7.7602208e-18 0)
(-74.855087 -7.7548877e-18 -7.7548877e-18)
(-74.81126 0 0)
(-74.767436 7.7441473e-18 7.7441473e-18)
(-74.723617 -1.0744472e-30 0)
(-74.679801 -7.7334105e-18 -7.7334105e-18)
(-74.635989 1.5456016e-17 -2.1437176e-30)
(-74.592182 -2.14224e-30 7.7226813e-18)
(-74.548377 -7.7172837e-18 0)
(-74.504577 -2.1414583e-30 0)
(-74.46078 -1.5413139e-17 -7.7065693e-18)
(-74.416987 1.5402504e-17 -1.0692422e-30)
(-74.373198 7.6958634e-18 7.6958634e-18)
(-74.329412 -7.6905489e-18 0)
(-74.285631 -1.0921273e-33 0)
(-74.241853 -7.6798493e-18 -7.6798493e-18)
(-74.198078 0 -7.6744638e-18)
(-74.154307 0 7.6691509e-18)
(-74.11054 7.6637657e-18 7.6637657e-18)
(-74.066777 -1.0622117e-30 0)
(-74.023018 -1.5306136e-17 -7.6530682e-18)
(-73.979262 1.0868115e-33 1.0868115e-33)
(-73.935509 2.2927119e-17 7.6423729e-18)
(-73.891761 -7.6370629e-18 -7.6370629e-18)
(-73.848016 -7.6316829e-18 -7.6316829e-18)
(-73.804275 1.5252753e-17 7.6263765e-18)
(-73.760537 -7.6210007e-18 7.6210007e-18)
(-73.716803 7.6156983e-18 0)
(-73.673073 1.5220652e-17 -7.6103261e-18)
(-73.629346 -7.6050264e-18 -7.6050264e-18)
(-73.585623 -7.5996561e-18 7.5996561e-18)
(-73.541904 -7.5943571e-18 7.5943571e-18)
(-73.498188 7.5889871e-18 0)
(-73.454476 5.0077941e-49 -7.5836875e-18)
(-73.410767 -7.5783171e-18 -7.5783171e-18)
(-73.367062 7.5730173e-18 7.5730173e-18)
(-73.32336 -7.5676477e-18 7.5676477e-18)
(-73.279663 7.5623496e-18 0)
(-73.235968 2.0941281e-30 0)
(-73.192278 2.146319e-33 0)
(-73.148591 7.5463267e-18 0)
(-73.104907 -1.5082074e-17 0)
(-73.061228 7.5356794e-18 0)
(-73.017551 2.0910402e-30 0)
(-72.973879 -2.0874143e-30 0)
(-72.930209 -7.519751e-18 -7.519751e-18)
(-72.886544 -1.502879e-17 -3.8012376e-48)
(-72.842882 2.2527324e-17 7.5091079e-18)
(-72.799223 2.0815098e-30 0)
(-72.755568 -4.1600865e-30 0)
(-72.711917 2.0764283e-30 0)
(-72.668269 -1.4975655e-17 -7.4878273e-18)
(-72.624624 1.4964956e-17 -1.0378043e-30)
(-72.580984 -2.0741444e-30 7.4771995e-18)
(-72.537346 -1.494371e-17 -7.4718548e-18)
(-72.493713 0 1.0366605e-30)
(-72.450082 0 -1.0603057e-33)
(-72.406456 7.455962e-18 -1.0351861e-30)
(-72.362833 -1.0333852e-30 7.4506168e-18)
(-72.319213 -7.4453398e-18 -7.4453398e-18)
(-72.275597 -7.4399934e-18 7.4399934e-18)
(-72.231984 7.4347133e-18 -4.1310569e-30)
(-72.188375 2.2288105e-17 -7.4293684e-18)
(-72.144769 -7.4240987e-18 7.4240987e-18)
(-72.101167 -7.4187696e-18 0)
(-72.057568 -2.1070465e-33 0)
(-72.013973 -7.4081839e-18 -7.4081839e-18)
(-71.970381 0 -1.0278236e-30)
(-71.926793 1.4795258e-17 7.3976288e-18)
(-71.883208 1.4784766e-17 -7.392383e-18)
(-71.839627 -7.3870407e-18 -7.3870407e-18)
(-71.796049 -1.4763558e-17 0)
(-71.752475 -7.3764921e-18 7.3764921e-18)
(-71.708904 1.4742443e-17 7.3712213e-18)
(-71.665336 1.4731628e-17 -7.3658138e-18)
(-71.621772 -1.4721075e-17 -2.0428288e-30)
(-71.578211 -1.4710564e-17 9.2755255e-49)
(-71.534654 0 -1.0204841e-30)
(-71.4911 1.4689749e-17 7.3448745e-18)
(-71.447549 -7.3395506e-18 -7.3395506e-18)
(-71.404003 -1.466809e-17 -3.7773665e-48)
(-71.360459 7.3288835e-18 -1.0175426e-30)
(-71.316919 7.3236858e-18 -7.3236858e-18)
(-71.273382 -1.0400156e-33 0)
(-71.229849 1.0153519e-30 0)
(-71.186319 7.3078325e-18 7.3078325e-18)
(-71.142793 -7.3025384e-18 1.0377531e-33)
(-71.09927 -7.297311e-18 -3.036366e-30)
(-71.05575 7.2920314e-18 7.2920314e-18)
(-71.012234 -1.0106618e-30 0)
(-70.968721 -1.0347635e-33 0)
(-70.925211 -1.009201e-30 -7.2762508e-18)
(-70.881705 -7.2709847e-18 2.015908e-30)
(-70.838203 7.265736e-18 7.265736e-18)
(-70.794703 -3.0241349e-30 0)
(-70.751207 -1.0073159e-30 0)
(-70.707715 -2.0121428e-30 0)
(-70.664225 -7.2447229e-18 -7.2447229e-18)
(-70.62074 7.2394758e-18 1.0287914e-33)
(-70.577257 -1.0044005e-30 7.2342277e-18)
(-70.533778 -2.0042633e-30 -7.2289848e-18)
(-70.490302 -1.026555e-33 7.2237383e-18)
(-70.446829 -1.4436998e-17 -2.0064852e-30)
(-70.40336 -7.2132551e-18 -1.442651e-17)
(-70.359894 7.2080197e-18 7.2080197e-18)
(-70.316432 1.4405559e-17 3.0001027e-30)
(-70.272973 -9.9930796e-31 9.9930796e-31)
(-70.229517 -1.4384625e-17 -9.9858101e-31)
(-70.186064 -7.1870862e-18 -7.1870862e-18)
(-70.142615 1.436371e-17 0)
(-70.099169 7.1766334e-18 0)
(-70.055727 -7.1714061e-18 7.1714061e-18)
(-70.012287 -7.1661878e-18 9.9495387e-31)
(-69.968851 -1.9874393e-30 -1.9874393e-30)
(-69.925418 7.1557469e-18 2.4073512e-49)
(-69.881989 0 -7.150524e-18)
(-69.838562 0 7.1453096e-18)
(-69.79514 7.1400883e-18 7.1400883e-18)
(-69.75172 0 0)
(-69.708304 -7.1296572e-18 -7.1296572e-18)
(-69.66489 7.1244478e-18 -9.8915869e-31)
(-69.621481 1.0117037e-33 7.1192321e-18)
(-69.578074 -1.9744125e-30 0)
(-69.534671 0 0)
(-69.491271 -7.1036115e-18 -7.1036115e-18)
(-69.447874 7.0984033e-18 2.0174876e-33)
(-69.404481 7.0932034e-18 2.3987291e-49)
(-69.361091 -1.4175997e-17 -7.0879984e-18)
(-69.317704 -7.0828002e-18 7.0828002e-18)
(-69.27432 7.0775974e-18 -9.8064241e-31)
(-69.23094 0 9.8193233e-31)
(-69.187563 0 -1.961416e-30)
(-69.144189 -7.0620001e-18 -7.0620001e-18)
(-69.100818 1.9605355e-30 7.0567991e-18)
(-69.057451 7.0515999e-18 -1.958089e-30)
(-69.014087 0 1.957646e-30)
(-68.970726 0 -1.956201e-30)
(-68.927369 -7.035994e-18 -7.035994e-18)
(-68.884014 2.9294644e-30 7.030789e-18)
(-68.840663 7.0255821e-18 -1.9508644e-30)
(-68.797316 0 9.7670404e-31)
(-68.753971 0 0)
(-68.71063 0 -7.0099394e-18)
(-68.667292 0 7.004717e-18)
(-68.623958 0 -9.718091e-31)
(-68.580626 0 9.9394298e-34)
(-68.537298 0 -9.7035412e-31)
(-68.493974 0 9.7061761e-31)
(-68.450652 1.3956991e-17 6.9784956e-18)
(-68.407334 3.8706717e-30 -6.9732285e-18)
(-68.36402 -6.9679508e-18 -6.9679508e-18)
(-68.320708 6.9626692e-18 6.9626692e-18)
(-68.277401 -6.9573797e-18 6.9573797e-18)
(-68.234096 6.9520902e-18 0)
(-68.190795 -1.9309619e-30 -6.9467979e-18)
(-68.147497 -6.9415118e-18 -6.9415118e-18)
(-68.104203 -1.926053e-30 0)
(-68.060912 -6.9309619e-18 6.9309619e-18)
(-68.017624 0 -9.6156545e-31)
(-67.97434 0 9.8345854e-34)
(-67.931059 6.9152639e-18 9.5913288e-31)
(-67.887781 1.9187935e-30 -6.9100865e-18)
(-67.844507 -6.9049412e-18 6.9049412e-18)
(-67.801235 0 9.5699351e-31)
(-67.757967 0 -1.9145432e-30)
(-67.714701 0 -6.8897745e-18)
(-67.671439 0 -6.8848217e-18)
(-67.628179 0 1.3759864e-17)
(-67.584922 0 -9.7701087e-34)
(-67.541668 0 9.529025e-31)
(-67.498416 1.37313e-17 6.8656502e-18)
(-67.455167 -5.7116145e-30 -6.86103e-18)
(-67.41192 -1.3712955e-17 9.5195366e-31)
(-67.368676 6.8519971e-18 6.8519971e-18)
(-67.325433 9.7309991e-34 0)
(-67.282193 6.8432346e-18 0)
(-67.238954 -3.7922471e-30 0)
(-67.195718 -1.3669434e-17 -6.8347169e-18)
(-67.152483 -6.8305366e-18 -6.8305366e-18)
(-67.10925 -1.8803086e-49 6.8264049e-18)
(-67.066018 2.0466928e-17 6.8223094e-18)
(-67.022789 0 0)
(-66.97956 -1.362842e-17 -6.8142098e-18)
(-66.936334 0 -6.8101904e-18)
(-66.893108 0 6.8061767e-18)
(-66.849885 1.3604333e-17 6.8021667e-18)
(-66.806662 -1.8857779e-30 0)
(-66.763442 -2.0382345e-17 -6.794115e-18)
(-66.720222 6.790059e-18 -6.790059e-18)
(-66.677005 6.7859782e-18 6.7859782e-18)
(-66.633788 -6.7818615e-18 1.883188e-30)
(-66.590574 6.7777101e-18 -6.7777101e-18)
(-66.547361 -6.7735145e-18 0)
(-66.50415 -1.8777697e-30 0)
(-66.460941 6.7649915e-18 0)
(-66.417734 -6.7606603e-18 0)
(-66.374529 0 6.7562774e-18)
(-66.331326 -6.7518479e-18 -1.8729348e-30)
(-66.288125 6.7473663e-18 -6.7473663e-18)
(-66.244926 1.3485678e-17 6.7428389e-18)
(-66.20173 -6.7382612e-18 9.3554053e-31)
(-66.158536 -6.7336407e-18 -9.3585593e-31)
(-66.115344 -6.7289739e-18 2.1532185e-49)
(-66.072155 -6.7242694e-18 6.7242694e-18)
(-66.028969 1.3439048e-17 6.7195242e-18)
(-65.985785 6.7147475e-18 -1.3429495e-17)
(-65.942603 -6.7099365e-18 -9.3160793e-31)
(-65.899425 0 9.2998358e-31)
(-65.856249 6.7002351e-18 -6.7002351e-18)
(-65.813076 -6.69535e-18 0)
(-65.769905 -6.6904412e-18 6.6904412e-18)
(-65.726738 2.0056549e-17 6.6855165e-18)
(-65.683573 1.8987328e-33 -6.6805721e-18)
(-65.640411 -1.3351231e-17 -1.8517883e-30)
(-65.597252 6.6706429e-18 6.6706429e-18)
(-65.554096 9.2546079e-31 0)
(-65.510943 6.6606674e-18 0)
(-65.467792 -1.8916545e-33 -6.6556677e-18)
(-65.424645 -1.3301316e-17 9.224326e-31)
(-65.3815 6.6456456e-18 6.6456456e-18)
(-65.338359 0 0)
(-65.295221 -1.8425754e-30 -6.6356049e-18)
(-65.252085 -9.4226191e-34 9.4226191e-34)
(-65.208953 -6.6255538e-18 -1.8397845e-30)
(-65.165823 6.6205253e-18 -9.1825323e-31)
(-65.122697 -1.8369926e-30 6.6154996e-18)
(-65.079573 -9.1685883e-31 -6.6104718e-18)
(-65.036453 -9.3869065e-34 9.3869065e-34)
(-64.993335 -6.6004236e-18 -1.8328063e-30)
(-64.950221 6.595404e-18 -6.595404e-18)
(-64.907109 2.3171657e-49 6.5903838e-18)
(-64.864001 -1.8286259e-30 1.8286259e-30)
(-64.820895 -9.3512439e-34 9.3512439e-34)
(-64.777792 -1.3150683e-17 -9.1292078e-31)
(-64.734693 -9.1129112e-31 -6.5703291e-18)
(-64.691596 6.5653206e-18 6.5653206e-18)
(-64.648502 0 0)
(-64.605411 0 -3.639623e-30)
(-64.562323 -6.5502944e-18 -9.0851235e-31)
(-64.519238 -2.7234545e-30 -2.7234545e-30)
(-64.476156 6.5402826e-18 -9.2943006e-34)
(-64.433077 -6.5352803e-18 -6.5352803e-18)
(-64.390001 9.0666399e-31 6.530277e-18)
(-64.346928 9.2635814e-49 9.2635814e-49)
(-64.303858 -9.0527603e-31 -9.0527603e-31)
(-64.260791 6.5152871e-18 1.8091656e-30)
(-64.217727 6.5102938e-18 -9.0388951e-31)
(-64.174666 9.0227256e-31 1.3010612e-17)
(-64.131608 -6.500318e-18 -6.500318e-18)
(-64.088553 0 -6.4953357e-18)
(-64.0455 0 -9.0112095e-31)
(-64.002451 6.4853764e-18 9.0042998e-31)
(-63.959405 -6.4803995e-18 1.2960799e-17)
(-63.916362 5.3906123e-30 -6.4754287e-18)
(-63.873321 6.470458e-18 -6.470458e-18)
(-63.830284 -6.4654933e-18 2.3015844e-49)
(-63.787249 0 0)
(-63.744218 6.4555693e-18 2.2993511e-49)
(-63.701189 6.4506095e-18 -6.4506095e-18)
(-63.658163 -6.4456552e-18 6.4456552e-18)
(-63.615141 -6.4406998e-18 2.2897096e-49)
(-63.572121 0 -8.9262525e-31)
(-63.529104 6.4307987e-18 -9.1387145e-34)
(-63.48609 6.4258532e-18 -6.4258532e-18)
(-63.443079 -1.2841814e-17 1.2841814e-17)
(-63.400071 -6.4159664e-18 1.7815862e-30)
(-63.357065 6.4110251e-18 -6.4110251e-18)
(-63.314063 6.4060897e-18 8.8851146e-31)
(-63.271064 8.8782679e-31 -8.8782679e-31)
(-63.228067 6.3962224e-18 6.3962224e-18)
(-63.185074 1.7747342e-30 -6.3912904e-18)
(-63.142083 -1.2772727e-17 -9.1411217e-49)
(-63.099096 0 -2.6589033e-30)
(-63.056111 0 1.7715367e-30)
(-63.013129 0 -1.7683579e-30)
(-62.97015 6.3666692e-18 -1.7678974e-30)
(-62.927175 6.3617501e-18 2.2765589e-49)
(-62.884202 0 0)
(-62.841232 -6.3519206e-18 6.3519206e-18)
(-62.798265 -8.7941519e-31 0)
(-62.7553 6.3420985e-18 0)
(-62.712339 0 -6.3371899e-18)
(-62.669381 0 -1.7583485e-30)
(-62.626426 -6.3273741e-18 6.3273741e-18)
(-62.583473 -8.7691315e-31 0)
(-62.540524 8.7533494e-31 0)
(-62.497578 -6.3126556e-18 -1.2625311e-17)
(-62.454634 6.3077518e-18 -5.251026e-30)
(-62.411694 -2.6225766e-30 1.2605698e-17)
(-62.368756 -6.2979487e-18 -6.2979487e-18)
(-62.325822 0 8.9429621e-34)
(-62.28289 -6.2881542e-18 -8.7304765e-31)
(-62.239962 -8.7236825e-31 -6.2832608e-18)
(-62.197036 6.2783707e-18 0)
(-62.154113 -6.2734839e-18 0)
(-62.111194 6.2686013e-18 0)
(-62.068277 6.2637233e-18 -6.2637233e-18)
(-62.025363 -6.2588511e-18 -1.7361795e-30)
(-61.982452 0 6.2539854e-18)
(-61.939544 6.2491279e-18 0)
(-61.89664 6.2442798e-18 0)
(-61.853738 -6.239443e-18 -6.239443e-18)
(-61.810839 -6.2346194e-18 8.859927e-34)
(-61.767943 0 6.2298111e-18)
(-61.725049 -6.2250203e-18 0)
(-61.682159 6.2202493e-18 0)
(-61.639272 6.2155005e-18 -6.2155005e-18)
(-61.596387 -6.2107761e-18 -1.7228437e-30)
(-61.553505 -1.2412156e-17 -1.7241863e-30)
(-61.510626 3.4440155e-30 1.7220078e-30)
(-61.46775 1.8590307e-17 6.1967692e-18)
(-61.424876 2.1265704e-49 -6.1921614e-18)
(-61.382005 -6.1875866e-18 1.7172904e-30)
(-61.339137 -1.2366092e-17 -1.7160302e-30)
(-61.296271 3.4278037e-30 1.7139019e-30)
(-61.253407 1.2348145e-17 6.1740725e-18)
(-61.210546 -6.1696414e-18 0)
(-61.167688 6.1652484e-18 0)
(-61.124832 -6.1608943e-18 -6.1608943e-18)
(-61.081978 -6.1565793e-18 -4.9624115e-48)
(-61.039126 1.2304607e-17 6.1523035e-18)
(-60.996277 0 0)
(-60.95343 0 0)
(-60.910585 -1.2279412e-17 -6.1397058e-18)
(-60.867742 -1.5165389e-48 -3.0330778e-48)
(-60.824901 1.2262975e-17 6.1314873e-18)
(-60.782062 0 0)
(-60.739225 0 0)
(-60.696389 -1.2238781e-17 -6.1193905e-18)
(-60.653556 -1.463602e-48 -2.9272039e-48)
(-60.610725 1.2222896e-17 6.1114479e-18)
(-60.567895 0 0)
(-60.525067 0 0)
(-60.482241 -1.2199302e-17 -6.0996509e-18)
(-60.439417 -6.0957356e-18 8.6625612e-34)
(-60.396595 1.2183645e-17 6.0918226e-18)
(-60.353774 6.0879084e-18 -6.0879084e-18)
(-60.310955 0 1.6902674e-30)
(-60.268138 -1.2160126e-17 -1.6891765e-30)
(-60.225323 3.3744381e-30 1.687219e-30)
(-60.182509 1.2144347e-17 6.0721737e-18)
(-60.139698 -6.068206e-18 0)
(-60.096888 0 0)
(-60.054081 6.0602131e-18 0)
(-60.011275 -6.0561841e-18 0)
(-59.968471 8.6005961e-34 0)
(-59.92567 6.048054e-18 -6.048054e-18)
(-59.88287 -6.0439508e-18 1.677426e-30)
(-59.840073 6.0398213e-18 6.0398213e-18)
(-59.797278 6.035665e-18 0)
(-59.754485 -6.0314819e-18 0)
(-59.711695 -6.0272723e-18 0)
(-59.668906 1.6724774e-30 0)
(-59.626121 6.0187756e-18 0)
(-59.583337 -6.0144901e-18 0)
(-59.540556 -1.6689076e-30 0)
(-59.497778 6.0058489e-18 -6.0058489e-18)
(-59.455002 -6.0014952e-18 3.3312859e-30)
(-59.412229 5.997121e-18 5.997121e-18)
(-59.369458 5.9927277e-18 0)
(-59.32669 -5.9883166e-18 0)
(-59.283925 -5.9838892e-18 0)
(-59.241162 1.6603733e-30 0)
(-59.198402 5.9749899e-18 0)
(-59.155645 -5.9705203e-18 0)
(-59.11289 8.4782512e-34 0)
(-59.070139 5.9615469e-18 -5.9615469e-18)
(-59.02739 -5.9570458e-18 1.6533065e-30)
(-58.984644 5.952537e-18 5.952537e-18)
(-58.941901 5.9480214e-18 0)
(-58.89916 -5.9434999e-18 0)
(-58.856423 -1.1877946e-17 -5.9389731e-18)
(-58.813689 3.2974395e-30 1.6487198e-30)
(-58.770957 1.1859814e-17 5.9299071e-18)
(-58.728228 -5.9253699e-18 0)
(-58.685502 8.4140078e-34 0)
(-58.64278 1.1832585e-17 0)
(-58.60006 1.6802214e-33 -5.9117534e-18)
(-58.557343 -5.9072133e-18 -1.641155e-30)
(-58.514629 0 5.9026721e-18)
(-58.471917 5.89813e-18 0)
(-58.429209 0 0)
(-58.386504 -5.8890471e-18 0)
(-58.343802 0 0)
(-58.301102 0 0)
(-58.258406 0 0)
(-58.215713 -5.87091e-18 0)
(-58.173022 -2.1054325e-49 -5.8663795e-18)
(-58.130334 5.8618497e-18 8.3301895e-34)
(-58.08765 0 5.8573217e-18)
(-58.044968 5.8527967e-18 0)
(-58.00229 -1.6239498e-30 0)
(-57.959614 -5.8437585e-18 0)
(-57.916941 0 0)
(-57.874271 0 0)
(-57.831604 0 0)
(-57.78894 -5.8256967e-18 0)
(-57.746279 1.6164267e-30 -5.8211831e-18)
(-57.703621 5.8166745e-18 -8.2659916e-34)
(-57.660967 0 5.8121724e-18)
(-57.618314 5.807676e-18 0)
(-57.575665 1.6106036e-30 0)
(-57.533019 -5.7986884e-18 0)
(-57.490376 0 -5.7941918e-18)
(-57.447736 5.7896936e-18 3.2145426e-30)
(-57.405098 -5.7851971e-18 5.7851971e-18)
(-57.362464 3.2120172e-30 0)
(-57.319833 5.7762238e-18 -5.7762238e-18)
(-57.277204 -5.7717483e-18 -1.6035199e-30)
(-57.234579 0 5.7672758e-18)
(-57.191956 -5.7628013e-18 0)
(-57.149336 -1.5989714e-30 0)
(-57.106719 5.753838e-18 -5.753838e-18)
(-57.064106 0 -5.7493548e-18)
(-57.021495 5.7448783e-18 5.7448783e-18)
(-56.978887 -5.7404126e-18 5.7404126e-18)
(-56.936282 -3.1855222e-30 0)
(-56.89368 5.7315057e-18 0)
(-56.851081 -3.1797625e-30 0)
(-56.808484 -8.1322868e-34 0)
(-56.765891 1.5886195e-30 5.7181155e-18)
(-56.7233 -8.1195694e-34 -8.1195694e-34)
(-56.680713 -5.7091675e-18 -1.1418335e-17)
(-56.638129 0 -5.7047086e-18)
(-56.595548 5.7002641e-18 1.1400528e-17)
(-56.552969 -1.580809e-30 1.1391658e-17)
(-56.510393 -1.579578e-30 -5.6913936e-18)
(-56.46782 2.0717286e-49 -5.6869485e-18)
(-56.42525 -1.5779143e-30 0)
(-56.382683 0 0)
(-56.340119 -1.1347106e-17 0)
(-56.297558 -1.5741954e-30 0)
(-56.255 5.6646592e-18 -5.6646592e-18)
(-56.212445 -5.6602375e-18 -1.5725397e-30)
(-56.169893 1.5697055e-30 5.655822e-18)
(-56.127343 5.6513996e-18 0)
(-56.084796 5.6469605e-18 0)
(-56.042252 1.5668108e-30 0)
(-55.999711 -1.5655699e-30 0)
(-55.957174 5.6335674e-18 0)
(-55.914639 -5.6291141e-18 0)
(-55.872107 -5.6246799e-18 0)
(-55.829578 0 0)
(-55.787052 -5.6158478e-18 0)
(-55.744529 1.5581814e-30 0)
(-55.702008 5.6069877e-18 0)
(-55.65949 0 0)
(-55.616975 0 0)
(-55.574464 0 0)
(-55.531955 -1.1178235e-17 -5.5891175e-18)
(-55.48945 6.2030044e-30 3.1015022e-30)
(-55.446947 1.1160472e-17 5.580236e-18)
(-55.404448 0 0)
(-55.36195 0 0)
(-55.319456 0 5.5669763e-18)
(-55.276964 0 -1.5446057e-30)
(-55.234475 0 7.8985049e-34)
(-55.19199 0 -5.5536072e-18)
(-55.149507 0 -5.54913e-18)
(-55.107027 -1.1089316e-17 -3.0784944e-30)
(-55.064551 3.0783826e-30 1.5391913e-30)
(-55.022078 1.1071545e-17 5.5357727e-18)
(-54.979607 5.5313731e-18 0)
(-54.937139 -5.5269999e-18 0)
(-54.894673 -5.5226396e-18 0)
(-54.85221 1.5330984e-30 0)
(-54.809749 3.0590532e-30 0)
(-54.767291 5.5094453e-18 -5.5094453e-18)
(-54.724837 -5.5049888e-18 3.0564694e-30)
(-54.682386 5.5005353e-18 5.5005353e-18)