-1.25 	299.9631790708081 	1 	101354.3892626145
-1.247497497497497 	300.0038410709384 	1.273735675507963 	101331.5530760686
-1.244994994994995 	300.0301024296941 	0.916208394779329 	101363.1044311833
-1.242492492492492 	300.0178842569787 	1.066649555467015 	101348.138867649
-1.23998998998999 	300.0224609732634 	1.100736190586602 	101352.7302167998
-1.237487487487487 	300.0257954302076 	1.059090599043154 	101355.9940831989
-1.234984984984985 	300.0260763454538 	1.072697294568085 	101355.8721961464
-1.232482482482482 	300.0242986838343 	1.070857614596308 	101353.6779702082
-1.22997997997998 	300.021028875775 	1.060778377502592 	101349.8587298321
-1.227477477477477 	300.0174933408288 	1.050637541870761 	101345.6917159027
-1.224974974974975 	300.0147961904696 	1.043430739194637 	101342.494311191
-1.222472472472472 	300.0131437450925 	1.038250665960665 	101340.539811974
-1.21996996996997 	300.0119512069435 	1.034431208974303 	101339.1296059055
-1.217467467467467 	300.0105508942677 	1.030386401054274 	101337.4735790054
-1.214964964964965 	300.0086615016908 	1.024908239202129 	101335.240376651
-1.212462462462462 	300.0062740648938 	1.017997575120122 	101332.4180904268
-1.20995995995996 	300.003484227151 	1.009943293786084 	101329.1198007724
-1.207457457457457 	300.0003239219178 	1.00071758888574 	101325.3837831068
-1.204954954954955 	299.9966200144801 	0.990005143140497 	101321.0051316535
-1.202452452452452 	299.9924736873274 	0.9783105132892447 	101316.1034457785
-1.19994994994995 	299.9887192306385 	0.9678070103344718 	101311.6652190562
-1.197447447447447 	299.9863094774198 	0.9608634233747171 	101308.816596674
-1.194944944944945 	299.9853326290743 	0.9576955004985126 	101307.6615976702
-1.192442442442442 	299.9848941714367 	0.9559793686209783 	101307.1429514123
-1.18993993993994 	299.983808168768 	0.952573691817557 	101305.859083137
-1.187437437437437 	299.9813974331052 	0.9457215989898331 	101303.0097755792
-1.184934934934935 	299.9780276800288 	0.9364414278045312 	101299.0269232693
-1.182432432432432 	299.9749737068032 	0.928083767314777 	101295.4171886769
-1.17992992992993 	299.9735268918477 	0.9240676824601511 	101293.7074406583
-1.177427427427427 	299.9741494404827 	0.9256932258719659 	101294.4437316256
-1.174924924924925 	299.9763593567156 	0.9317327432513465 	101297.0551099256
-1.172422422422422 	299.9791857703979 	0.939607426168134 	101300.3951580041
-1.16991991991992 	299.9817905375493 	0.9470534517971857 	101303.4740348208
-1.167417417417417 	299.9838907044432 	0.9532151016472592 	101305.9565087266
-1.164914914914915 	299.985667812412 	0.9584404318843855 	101308.0572234156
-1.162412412412412 	299.9873244250886 	0.9632543129450439 	101310.0154846346
-1.15990990990991 	299.9889258582568 	0.9679664528684068 	101311.9083695803
-1.157407407407407 	299.9906824361713 	0.9732304680072086 	101313.9847670872
-1.154904904904904 	299.9930494300746 	0.9802210174151585 	101316.7827782594
-1.152402402402403 	299.9963659968996 	0.9897810150473437 	101320.7032548218
-1.1498998998999 	300.0004929707113 	1.001501711195814 	101325.5820415328
-1.147397397397397 	300.0047907582682 	1.013627932688767 	101330.6630241022
-1.144894894894895 	300.0083907823297 	1.023825080987812 	101334.9192041626
-1.142392392392392 	300.010686943836 	1.030518274014746 	101337.6340284484
-1.13988988988989 	300.0117987169461 	1.034048493148484 	101338.9485763001
-1.137387387387387 	300.0125497194938 	1.036593504962066 	101339.8364862205
-1.134884884884885 	300.0139233769484 	1.040772538383271 	101341.4605130562
-1.132382382382382 	300.016446223474 	1.04798204439348 	101344.4432544201
-1.12987987987988 	300.0198419877754 	1.057449428608874 	101348.4581739994
-1.127377377377377 	300.0231214962358 	1.066529525152922 	101352.3359258537
-1.124874874874875 	300.0251733919505 	1.072281693204884 	101354.7622378047
-1.122372372372372 	300.025490708049 	1.073318228967434 	101355.1366441181
-1.11986986986987 	300.0243831216507 	1.070371325523502 	101353.8272600037
-1.117367367367367 	300.0225438644702 	1.065233594202839 	101351.6533532107
-1.114864864864865 	300.0204903601485 	1.059343032788138 	101349.2253406674
-1.112362362362362 	300.0184019444472 	1.053311427334454 	101346.7560694953
-1.10985985985986 	300.0163467115734 	1.047425640808747 	101344.3259686335
-1.107357357357357 	300.0145073888392 	1.042180377690451 	101342.151138766
-1.104854854854855 	300.013088230413 	1.03803090692204 	101340.473331512
-1.102352352352353 	300.0119689346768 	1.034564105128906 	101339.1498698874
-1.09984984984985 	300.0105515603563 	1.030179188311064 	101337.4741388718
-1.097347347347347 	300.0081069471637 	1.022989309679447 	101334.5842112991
-1.094844844844845 	300.004363684848 	1.012329468713732 	101330.1587062372
-1.092342342342342 	299.9998259094169 	0.9995802718706726 	101324.7941291278
-1.08983983983984 	299.9955535982264 	0.9875683956862051 	101319.7434929752
-1.087337337337337 	299.9925093163405 	0.9788248883902169 	101316.1445060922
-1.084834834834835 	299.99088398978 	0.9738410586947994 	101314.2232344442
-1.082332332332332 	299.9899458744168 	0.9707108388279329 	101313.1142753942
-1.07982982982983 	299.9886039196589 	0.9665791412022233 	101311.5280674771
-1.077327327327327 	299.986207813014 	0.9597011687412563 	101308.6959532979
-1.074824824824825 	299.982920521172 	0.9504571312242198 	101304.8103594909
-1.072322322322323 	299.9794846038657 	0.9408031270534344 	101300.7491895996
-1.06981981981982 	299.9767064894003 	0.9329331543701447 	101297.4655051899
-1.067317317317317 	299.9750736613148 	0.9282412075378587 	101295.5355705142
-1.064814814814815 	299.9746959105823 	0.9271065340895825 	101295.0895680399
-1.062312312312312 	299.9754565455225 	0.9292259559298062 	101295.9886980042
-1.05980980980981 	299.9771114258743 	0.9338797367768953 	101297.9442853483
-1.057307307307307 	299.9792699745369 	0.9399460472677335 	101300.495400483
-1.054804804804805 	299.9814258418044 	0.9460290562520857 	101303.0437134183
-1.052302302302302 	299.9831444700204 	0.950961869883083 	101305.0753244855
-1.0497997997998 	299.9843073590341 	0.9544490015667402 	101306.4499284624
-1.047297297297297 	299.9852375592932 	0.9573892347311357 	101307.5494520371
-1.044794794794795 	299.9865931357634 	0.9615605232774022 	101309.1517704538
-1.042292292292292 	299.989017351155 	0.9686579974316052 	101312.0172278479
-1.03978978978979 	299.992693396274 	0.9791197771090315 	101316.362554178
-1.037287287287287 	299.9971095818768 	0.9915452578888264 	101321.5831110915
-1.034784784784785 	300.001283457831 	1.003313737715547 	101326.5174403293
-1.032282282282283 	300.0043608137616 	1.012166392260467 	101330.1556565694
-1.02977977977978 	300.0061817883906 	1.017675979623029 	101332.3084878277
-1.027277277277277 	300.0073689453771 	1.021461838552874 	101333.711880365
-1.024774774774775 	300.0088421658305 	1.025940504501362 	101335.4535762085
-1.022272272272272 	300.011166167289 	1.032638110388492 	101338.2011074566
-1.01976976976977 	300.0142570575932 	1.04139329151416 	101341.8554413985
-1.017267267267267 	300.0175889679625 	1.050836961598924 	101345.7949033789
-1.014764764764765 	300.0205979839351 	1.059422843193115 	101349.3526781835
-1.012262262262262 	300.0229191585823 	1.066079457447195 	101352.0972820494
-1.00975975975976 	300.0243586722488 	1.070193842352977 	101353.7994473075
-1.007257257257257 	300.0247672626126 	1.071330848470369 	101354.2820487855
-1.004754754754755 	300.0240394680636 	1.069261172972128 	101353.4212443963
-1.002252252252252 	300.0223032910864 	1.064422431704757 	101351.3690015878
-0.9997497497497498 	300.0200792461112 	1.058263400793453 	101348.7395881543
-0.9972472472472473 	300.0181223901125 	1.052797063919467 	101346.4257418644
-0.9947447447447449 	300.0169632477912 	1.049398105971118 	101345.0551153849
-0.9922422422422421 	300.0164843244838 	1.047722955342263 	101344.488789751
-0.9897397397397399 	300.0159198585056 	1.045738696300876 	101343.8209330498
-0.9872372372372376 	300.0143515647567 	1.041034968126417 	101341.9667350533
-0.9847347347347346 	300.0113620403235 	1.03251855279974 	101338.4326569949
-0.9822322322322323 	300.0073364660277 	1.021197811828583 	101333.6734751413
-0.9797297297297296 	300.0031828905086 	1.009474050784859 	101328.7628968621
-0.9772272272272275 	299.9997283244788 	0.9995722737726023 	101324.6787839771
-0.9747247247247248 	299.9972620198452 	0.9923169057243657 	101321.763110857
-0.9722222222222224 	299.9954934847983 	0.9869776039383886 	101319.6723725606
-0.9697197197197196 	299.9938448568462 	0.9820140769813692 	101317.7234125104
-0.9672172172172175 	299.9918083785629 	0.9760314690267407 	101315.3161552355
-0.9647147147147147 	299.9891553646826 	0.9683736318301004 	101312.1800928859
-0.9622122122122124 	299.9859602093646 	0.9592275253677889 	101308.4031749602
-0.9597097097097099 	299.9825254849983 	0.9494373243199774 	101304.3432472412
-0.9572072072072073 	299.9792918655729 	0.9402506370759176 	101300.5210475731
-0.9547047047047047 	299.9767545204579 	0.933065040979275 	101297.521799242
-0.9522022022022023 	299.9753563579146 	0.9291050669379513 	101295.8692911157
-0.9496996996996998 	299.975325785474 	0.9289649307696385 	101295.8338206327
-0.9471971971971973 	299.9765012788657 	0.9321500837977801 	101297.2227778191
-0.9446946946946947 	299.978283040468 	0.937016637797183 	101299.328233067
-0.9421921921921923 	299.9798843337432 	0.9414631816593361 	101301.220945276
-0.93968968968969 	299.9807972201353 	0.944154446590169 	101302.2999745338
-0.9371871871871872 	299.9811493317636 	0.9454413015099749 	101302.7162789452
-0.9346846846846848 	299.9816480330165 	0.9471961127533637 	101303.3062353872
-0.9321821821821823 	299.9831085369681 	0.9515651317562595 	101305.0323953036
-0.9296796796796799 	299.9858901257574 	0.9594977437734793 	101308.3198400785
-0.9271771771771771 	299.9896565360493 	0.9701139341673809 	101312.7718727482
-0.9246746746746748 	299.9936214744331 	0.981330278697971 	101317.4588252446
-0.9221721721721724 	299.9970616836837 	0.9911974177116016 	101321.5257201903
-0.9196696696696698 	299.9997048924868 	0.9989332074934913 	101324.6506162769
-0.9171671671671672 	300.0017522325143 	1.00501733516963 	101327.0710151098
-0.9146646646646649 	300.0036114610418 	1.010525641530896 	101329.269018331
-0.9121621621621623 	300.0056180240712 	1.01639997783905 	101331.6412277815
-0.9096596596596597 	300.0079487788806 	1.023182895234629 	101334.3966890948
-0.9071571571571573 	300.0106920196712 	1.031144932961787 	101337.639967996
-0.9046546546546547 	300.0138800383493 	1.040334257400689 	101341.4092018981
-0.9021521521521524 	300.0173730040768 	1.050288500650544 	101345.5390366563
-0.8996496496496498 	300.0207181145525 	1.059718143669735 	101349.4943007886
-0.8971471471471473 	300.0232176201093 	1.066731533970555 	101352.4499348181
-0.894644644644645 	300.024276126924 	1.06975959429051 	101353.7012990367
-0.892142142142142 	300.0238097872898 	1.068612731137208 	101353.1493538664
-0.8896396396396397 	300.0223763704073 	1.064795495432039 	101351.4550935682
-0.8871371371371374 	300.0208692792658 	1.060681648367504 	101349.6734924846
-0.8846346346346349 	300.0199590489757 	1.058065279039474 	101348.59725031
-0.8821321321321324 	300.0197026215097 	1.057123505211438 	101348.2940373858
-0.8796296296296297 	300.0195728617252 	1.056472240035956 	101348.1401559696
-0.8771271271271271 	300.0188396088902 	1.054167945963048 	101347.2729875183
-0.8746246246246248 	300.0170244017861 	1.048918097430956 	101345.1274268595
-0.8721221221221224 	300.0141479693804 	1.040752590656524 	101341.7269248154
-0.8696196196196196 	300.010657245467 	1.030858441128655 	101337.5998392026
-0.8671171171171175 	300.0071408118293 	1.020833039188763 	101333.4424425772
-0.8646146146146148 	300.0040389009387 	1.011902052213331 	101329.7751092939
-0.8621121121121121 	300.0015063304947 	1.004527245157309 	101326.7810443429
-0.8596096096096097 	299.9994419526342 	0.9984509845013457 	101324.3405950198
-0.857107107107107 	299.9975823081429 	0.9929362755479136 	101322.1421067436
-0.8546046046046049 	299.9955775119475 	0.9869959354766749 	101319.7721667733
-0.8521021021021022 	299.9930695080097 	0.9796451597430217 	101316.8075436816
-0.8495995995995997 	299.9898372072934 	0.9703166330829076 	101312.9866241414
-0.8470970970970974 	299.9859893811944 	0.9593637334951484 	101308.438230164
-0.8445945945945946 	299.9820572060038 	0.9482672824449958 	101303.7902759171
-0.8420920920920922 	299.9788322603147 	0.9391743489402379 	101299.9782214506
-0.8395895895895897 	299.9769746541864 	0.9338488622410258 	101297.7824391878
-0.8370870870870872 	299.9766215510674 	0.9326482024736474 	101297.3655582838
-0.8345845845845846 	299.9772874912875 	0.9342738035036745 	101298.1524610086
-0.8320820820820823 	299.9781610560211 	0.9365717327849218 	101299.1845673669
-0.8295795795795798 	299.9786220895023 	0.9378850595933138 	101299.7294518818
-0.8270770770770772 	299.9786073394465 	0.9380170469080351 	101299.7118905651
-0.8245745745745746 	299.9785770908766 	0.9381647165507995 	101299.6764914615
-0.8220720720720721 	299.9791522251015 	0.9399726698337717 	101300.3567705404
-0.8195695695695699 	299.9807076416572 	0.9444604485596684 	101302.1946296905
-0.817067067067067 	299.9831996983852 	0.9515540070687389 	101305.1397403005
-0.8145645645645651 	299.9862941659956 	0.9603761294018356 	101308.7974844944
-0.8120620620620621 	299.9896020644993 	0.9698490474677078 	101312.7076525062
-0.8095595595595597 	299.9928156145928 	0.9790776686017957 	101316.5064209462
-0.8070570570570572 	299.9957082160347 	0.9873986769535598 	101319.9259855197
-0.8045545545545546 	299.99812283504 	0.994388006600305 	101322.7804378288
-0.8020520520520523 	300.0000537745784 	1.000075417590794 	101325.0631499646
-0.7995495495495494 	300.0017609787297 	1.00520679774328 	101327.0814535241
-0.7970470470470474 	300.0037430448997 	1.011134037058699 	101329.424598824
-0.7945445445445446 	300.0064888881906 	1.019144036263551 	101332.6707446452
-0.7920420420420423 	300.0101357720117 	1.029562260986819 	101336.9822980622
-0.7895395395395397 	300.0142831380311 	1.041280285931 	101341.8858173196
-0.7870370370370371 	300.0181341825964 	1.052141206322065 	101346.4391946694
-0.7845345345345348 	300.0209005549214 	1.060017552468977 	101349.7102512132
-0.7820320320320323 	300.02221884942 	1.063920680204733 	101351.2690569606
-0.7795295295295296 	300.0223187028349 	1.064446843446353 	101351.3867628065
-0.7770270270270272 	300.0218379929997 	1.063295970487599 	101350.818712056
-0.7745245245245247 	300.021424059764 	1.062207555911504 	101350.3294380993
-0.7720220220220222 	300.0213763607712 	1.062014502743832 	101350.2732741503
-0.7695195195195199 	300.0215516687996 	1.06236483501082 	101350.4804593157
-0.767017017017017 	300.0215312458546 	1.062146482129496 	101350.455694047
-0.7645145145145147 	300.0208903295628 	1.060203861751645 	101349.6979096493
-0.7620120120120122 	300.0193955986125 	1.055878500015603 	101347.9311701967
-0.7595095095095097 	300.0170567365817 	1.049179802494403 	101345.1660131689
-0.7570070070070072 	300.0140845914473 	1.040699220179713 	101341.6519946026
-0.7545045045045048 	300.0108359494521 	1.031445850544032 	101337.8111004584
-0.7520020020020022 	300.007740708022 	1.022616809982303 	101334.1515672853
-0.7494994994994997 	300.0051673374124 	1.015208859488846 	101331.1091782055
-0.7469969969969972 	300.0032337772139 	1.009510572370435 	101328.823177212
-0.7444944944944945 	300.0016726035644 	1.004770820700477 	101326.9775175699
-0.7419919919919924 	299.9999001825982 	0.9994113637759038 	101324.8821046252
-0.7394894894894897 	299.9973205016464 	0.9918505622932456 	101321.8323892605
-0.7369869869869872 	299.9937097298393 	0.9815196386516258 	101317.5639113357
-0.7344844844844846 	299.9894218587364 	0.969389242056739 	101312.4951489598
-0.7319819819819822 	299.9852394668444 	0.9575666585050349 	101307.5511907755
-0.7294794794794797 	299.9819481371417 	0.9481717161524731 	101303.6607181584
-0.7269769769769773 	299.9799211890657 	0.9422342356999763 	101301.2647629073
-0.7244744744744747 	299.9789842182035 	0.9393281152788516 	101300.1573480385
-0.721971971971972 	299.9786242461428 	0.9381055091489732 	101299.7319822553
-0.7194694694694695 	299.978355422544 	0.937253226362686 	101299.4143616913
-0.7169669669669674 	299.9779716199776 	0.9361769081636988 	101298.9608844438
-0.7144644644644647 	299.9775599419253 	0.9350737387720907 	101298.4742911456
-0.711961961961962 	299.9773590248806 	0.93458579446256 	101298.2369158321
-0.7094594594594597 	299.9776244488182 	0.9354344583084186 	101298.5509985026
-0.7069569569569573 	299.9785710353997 	0.9382290095093797 	101299.6693835012
-0.7044544544544545 	299.9803377155282 	0.9433493716019264 	101301.7571834352
-0.7019519519519523 	299.9829223290819 	0.9507554944396226 	101304.8120677821
-0.6994494494494495 	299.9860950691804 	0.9597778796155467 	101308.5622172167
-0.6969469469469471 	299.9893959791332 	0.9691439200862094 	101312.4641541709
-0.6944444444444446 	299.9922974038099 	0.9774273652228026 	101315.8939634322
-0.6919419419419421 	299.9944775045817 	0.9837797808481913 	101318.47118783
-0.6894394394394396 	299.9960399640585 	0.9885000731020573 	101320.3183097718
-0.6869369369369374 	299.9975057194367 	0.9929952342922184 	101322.0509742606
-0.6844344344344344 	299.9995390529966 	0.9990448468355289 	101324.4547010744
-0.6819319319319321 	300.002560196722 	1.007766233146459 	101328.0262221458
-0.6794294294294296 	300.0064815932975 	1.018916601989063 	101332.6621379423
-0.6769269269269272 	300.0107391818509 	1.030976086293985 	101337.6959102669
-0.6744244244244245 	300.0145950694293 	1.041943714443188 	101342.2547980547
-0.6719219219219222 	300.0175036027192 	1.050318114995028 	101345.6938815426
-0.6694194194194195 	300.0193239428319 	1.055678031770644 	101347.8463192204
-0.6669169169169172 	300.0202871520077 	1.05861664609225 	101348.9851651564
-0.6644144144144146 	300.0207941480391 	1.060215338796963 	101349.584742103
-0.661911911911912 	300.0211994353149 	1.061454863466771 	101350.0638428979
-0.6594094094094097 	300.0216843750063 	1.062851932010376 	101350.6372933741
-0.656906906906907 	300.022228565751 	1.064354246487082 	101351.2807690018
-0.6544044044044046 	300.022629078352 	1.065391483941846 	101351.7542024174
-0.6519019019019021 	300.0225532773666 	1.065038553182979 	101351.6640997961
-0.6493993993993996 	300.0216490941435 	1.062345930104723 	101350.595012843
-0.6468968968968971 	300.0197292552222 	1.056836883579758 	101348.3256748871
-0.6443943943943946 	300.0169421984207 	1.04894783376685 	101345.0306099147
-0.6418918918918921 	300.0137885538363 	1.040052021076995 	101341.301841682
-0.6393893893893897 	300.0109121741657 	1.031883497574783 	101337.9010779233
-0.6368868868868871 	300.0087485276021 	1.025599434974473 	101335.342943822
-0.6343843843843846 	300.0072509087578 	1.021067745717968 	101333.5723162686
-0.6318818818818821 	300.0059023270688 	1.016907690401047 	101331.9779730246
-0.6293793793793795 	300.0040270372957 	1.011313920286222 	101329.761032338
-0.6268768768768773 	300.001195989747 	1.003131778407075 	101326.4142295543
-0.6243743743743745 	299.9974624259548 	0.9924902890363829 	101322.0002750059
-0.6218718718718721 	299.9932964813769 	0.9806469573543569 	101317.07560374
-0.6193693693693696 	299.9893063910072 	0.9692573311839157 	101312.3590573795
-0.6168668668668671 	299.9859537718269 	0.9596103048925 	101308.3958572943
-0.6143643643643645 	299.9834212033792 	0.9522491437657764 	101305.4022755901
-0.6118618618618621 	299.9816450072875 	0.9470282020212387 	101303.3026177708
-0.6093593593593596 	299.9804198998492 	0.9433887626203271 	101301.8545367588
-0.6068568568568571 	299.9794973739453 	0.940636082465359 	101300.7641855861
-0.6043543543543546 	299.9786584466817 	0.9381624149316571 	101299.7724208184
-0.6018518518518521 	299.9777888147552 	0.9356683665176974 	101298.7446318157
-0.5993493493493496 	299.9769605703918 	0.9333742912946683 	101297.7656747411
-0.5968468468468471 	299.9764597773176 	0.9320770312943222 	101297.1736797981
-0.5943443443443446 	299.9766952681655 	0.9328856272862389 	101297.4528442661
-0.591841841841842 	299.9779914789443 	0.9366450563410307 	101298.984412584
-0.5893393393393397 	299.9803501982974 	0.9433309185223575 	101301.7717640196
-0.5868368368368371 	299.9833715917894 	0.9518449918871833 	101305.3430445774
-0.5843343343343346 	299.9864129963705 	0.9604468807898319 	101308.93809217
-0.5818318318318321 	299.9889144222089 	0.9676272249243923 	101311.895079678
-0.5793293293293297 	299.990698755119 	0.9729043031383698 	101314.0043721362
-0.5768268268268271 	299.992054655173 	0.9770454606695005 	101315.6071499885
-0.5743243243243245 	299.9935527016427 	0.9815820258554134 	101317.3780232046
-0.5718218218218221 	299.9957199677863 	0.9879412115260842 	101319.9399332525
-0.5693193193193196 	299.9987726597477 	0.9967222500594372 	101323.5486191277
-0.5668168168168171 	300.0025421579338 	1.007481420501579 	101328.0048720078
-0.5643143143143147 	300.006593216148 	1.019033939022771 	101332.7942401936
-0.5618118118118121 	300.0104273233319 	1.029997449089651 	101337.3272360927
-0.5593093093093094 	300.0136523753686 	1.03926854666317 	101341.1403012616
-0.5568068068068072 	300.0160739435793 	1.046294671904922 	101344.0036256967
-0.5543043043043046 	300.0177245342944 	1.05116279300184 	101345.955181767
-0.551801801801802 	300.0188423934607 	1.054532485368582 	101347.2768764367
-0.5492992992992995 	300.0197832741768 	1.057372255938731 	101348.3895352959
-0.5467967967967969 	300.0208509784017 	1.06048780144861 	101349.6518406763
-0.5442942942942947 	300.022101915446 	1.064006970461393 	101351.1308990423
-0.5417917917917919 	300.0232527554869 	1.067148962494308 	101352.4918515236
-0.5392892892892895 	300.0237909416239 	1.068533457392677 	101353.1278419363
-0.536786786786787 	300.0232591686084 	1.066947903003525 	101352.4981984587
-0.5342842842842846 	300.0215513394034 	1.062134975708347 	101350.4798748634
-0.531781781781782 	300.0190280800111 	1.055063687601318 	101347.4968399677
-0.5292792792792794 	300.0163271950159 	1.047450982232141 	101344.3033749096
-0.526776776776777 	300.0140170236818 	1.040836260426808 	101341.571954443
-0.5242742742742745 	300.0123078539623 	1.035804754943937 	101339.5511454398
-0.521771771771772 	300.0109869791675 	1.031804036171592 	101337.9893769052
-0.5192692692692695 	300.0095877552645 	1.027582893431995 	101336.3351676521
-0.516766766766767 	300.0076578610908 	1.021905501862822 	101334.0535769613
-0.5142642642642645 	300.0049623197057 	1.014112776077218 	101330.8667821438
-0.511761761761762 	300.0015449702746 	1.004310288115813 	101326.8268043058
-0.5092592592592596 	299.9976720551978 	0.9932298772744448 	101322.2482708571
-0.506756756756757 	299.9937257857724 	0.9819408116796502 	101317.5831884767
-0.5042542542542544 	299.9900982926239 	0.9715433758335031 	101313.2950586308
-0.5017517517517521 	299.9870915788974 	0.9628772607558801 	101309.7407799607
-0.4992492492492494 	299.9848224098443 	0.9562590102697082 	101307.0584622042
-0.496746746746747 	299.9831671135264 	0.9513452754720324 	101305.1017890333
-0.4942442442442445 	299.9818062342212 	0.9472728024782023 	101303.4932001603
-0.4917417417417421 	299.9803927692565 	0.9431196379823344 	101301.8225172487
-0.4892392392392395 	299.9787739716681 	0.9384962041246138 	101299.9090994369
-0.486736736736737 	299.9771304722876 	0.9339071141246195 	101297.9664714476
-0.4842342342342345 	299.9759235875378 	0.9306012781044137 	101296.5399737837
-0.481731731731732 	299.9756580930703 	0.9299344448630705 	101296.2267365491
-0.4792292292292296 	299.976595464503 	0.9325966654675838 	101297.3347633283
-0.4767267267267268 	299.9785833765519 	0.9381681773068177 	101299.6836217848
-0.4742242242242246 	299.9811187121675 	0.9452942093110948 	101302.6801973995
-0.471721721721722 	299.9836122614125 	0.9523721259650653 	101305.627540818
-0.4692192192192195 	299.9856685826112 	0.9583113650036006 	101308.0583442642
-0.4667167167167169 	299.9872352105871 	0.9629448708276904 	101309.9102145515
-0.4642142142142145 	299.9885658178794 	0.9669476813922486 	101311.4829846033
-0.461711711711712 	299.9900604880769 	0.9714142409976961 	101313.2498994445
-0.4592092092092094 	299.9920885969106 	0.9773668511730038 	101315.6471874917
-0.456706706706707 	299.9948578018978 	0.9853820094796426 	101318.9206521804
-0.4542042042042045 	299.9983440128145 	0.9953843420410462 	101323.0419235181
-0.451701701701702 	300.0022786507035 	1.006617739477653 	101327.6933420102
-0.4491991991991995 	300.0062124694343 	1.017838124041791 	101332.344131791
-0.4466966966966969 	300.009671489866 	1.02774790467049 	101336.4336862603
-0.4441941941941945 	300.012360504774 	1.035548774002629 	101339.6129778482
-0.441691691691692 	300.0143119297021 	1.041328738182853 	101341.9202854953
-0.4391891891891895 	300.0158660753736 	1.045994678501639 	101343.7577544864
-0.436686686686687 	300.0174595852656 	1.050704107779842 	101345.6419059337
-0.4341841841841846 	300.0193389234046 	1.056102193677237 	101347.8639307101
-0.431681681681682 	300.0213790295338 	1.061844504121362 	101350.2761039702
-0.4291791791791794 	300.0231312678927 	1.066724114869997 	101352.3481496976
-0.426676676676677 	300.0240712603215 	1.069329231790773 	101353.4594729502
-0.4241741741741744 	300.0238885500466 	1.068818719768904 	101353.2425312195
-0.421671671671672 	300.0226433004443 	1.065357843668604 	101351.7709517381
-0.4191691691691694 	300.0207277539625 	1.059996399009476 	101349.506359683
-0.4166666666666669 	300.0186470816321 	1.054112113988344 	101347.0463269074
-0.4141641641641645 	300.016790224091 	1.048784118805917 	101344.8508402403
-0.411661661661662 	300.0152983298873 	1.044419717605535 	101343.0867629319
-0.4091591591591594 	300.0140580273426 	1.040721447259972 	101341.6203956031
-0.406656656656657 	300.0127829518892 	1.036900776055841 	101340.1128698597
-0.4041541541541545 	300.01112790431 	1.032000683194099 	101338.1560429635
-0.401651651651652 	300.0088087484629 	1.025240144263948 	101335.4142854031
-0.3991491491491494 	300.0057159907635 	1.016330447271682 	101331.7579196091
-0.396646646646647 	300.0019904936934 	1.005676503452225 	101327.3534429055
-0.3941441441441444 	299.9980114695352 	0.9943295363903091 	101322.6495362318
-0.3916416416416419 	299.9942655068129 	0.9836198378476217 	101318.2212264
-0.3891391391391395 	299.9911341530311 	0.974583393006823 	101314.5194136166
-0.3866366366366368 	299.9887100741742 	0.9674745176414976 	101311.653976308
-0.3841341341341344 	299.9867610293979 	0.9616767901401512 	101309.3500383534
-0.381631631631632 	299.9848832757773 	0.9561199444188486 	101307.1303671248
-0.3791291291291294 	299.9827658988465 	0.949983010178546 	101304.6276788782
-0.3766266266266269 	299.9804023857699 	0.9432567713841595 	101301.8339289815
-0.3741241241241244 	299.9781174054962 	0.9368205623564771 	101299.1330797271
-0.371621621621622 	299.9764021343443 	0.9320046028803288 	101297.1056321309
-0.3691191191191194 	299.975665276976 	0.9299234925598604 	101296.2347444819
-0.366616616616617 	299.9760450398691 	0.9309640884267498 	101296.6843770709
-0.3641141141141143 	299.9773709861807 	0.9346596495560764 	101298.2507204995
-0.3616116116116119 	299.9792496709189 	0.9399394551355875 	101300.4710542684
-0.3591091091091095 	299.9812385431584 	0.9455766432337349 	101302.8218645124
-0.356606606606607 	299.982997540109 	0.9506235029739331 	101304.901026685
-0.3541041041041044 	299.984393547633 	0.95471071650648 	101306.5512803825
-0.3516016016016019 	299.9855435191018 	0.9581633979465556 	101307.9105146379
-0.3490990990990994 	299.9867761969566 	0.9618879300441714 	101309.3675465765
-0.346596596596597 	299.9885038838611 	0.967007839093641 	101311.4098624635
-0.3440940940940944 	299.9910298167485 	0.9743343124213757 	101314.3954995255
-0.3415915915915919 	299.9943717687162 	0.983900250293005 	101318.3460756008
-0.3390890890890895 	299.9982141326438 	0.9948397275762166 	101322.8884270351
-0.3365865865865869 	300.002039896468 	1.005749862296341 	101327.4110960976
-0.3340840840840844 	300.0053851198843 	1.015374065010357 	101331.3660877063
-0.3315815815815819 	300.008069739236 	1.023214231768987 	101334.5400667202
-0.3290790790790794 	300.0102607509452 	1.029701500336562 	101337.1303944751
-0.3265765765765769 	300.0123314909938 	1.035822730958277 	101339.5787514645
-0.3240740740740744 	300.0146079791661 	1.042443096880725 	101342.270209739
-0.3215715715715718 	300.0171584474313 	1.049743392051403 	101345.2856893385
-0.3190690690690695 	300.0197463166063 	1.057084480025696 	101348.3456643242
-0.3165665665665668 	300.021952173463 	1.063324734124237 	101350.9538421431
-0.3140640640640644 	300.0233729827644 	1.067359250840891 	101352.6338992793
-0.311561561561562 	300.0237910301857 	1.068581296357651 	101353.1280243983
-0.3090590590590593 	300.023241460558 	1.067080793738635 	101352.4776520755
-0.3065565565565568 	300.021979523355 	1.063567512428822 	101350.9863741965
-0.3040540540540545 	300.0203895494439 	1.059099870793661 	101349.106632425
-0.3015515515515518 	300.0188464483192 	1.05471807767382 	101347.2819306679
-0.2990490490490494 	300.0175895341527 	1.051080882588477 	101345.7958212348
-0.2965465465465469 	300.0166268337524 	1.048202118379834 	101344.6576097797
-0.2940440440440444 	300.015713171637 	1.045404193466914 	101343.577237126
-0.2915415415415418 	300.0144414754853 	1.041578673529992 	101342.0738099994
-0.2890390390390395 	300.0124334593956 	1.035705645482074 	101339.6997573661
-0.2865365365365368 	300.0095439178594 	1.027404364104255 	101336.2834336062
-0.2840340340340343 	300.005964498514 	1.017203070774668 	101332.051747319
-0.2815315315315318 	300.0021486597605 	1.00633049561485 	101327.5404379636
-0.2790290290290295 	299.9985861816162 	0.9961165387022637 	101323.3288885243
-0.2765265265265269 	299.9955640550724 	0.9873490884560887 	101319.7562426249
-0.2740240240240244 	299.993050882851 	0.9799630236807977 	101316.7852098753