/*--------------------------------*- C++ -*----------------------------------*\
  =========                 |
  \\      /  F ield         | OpenFOAM: The Open Source CFD Toolbox
   \\    /   O peration     | Website:  https://openfoam.org
    \\  /    A nd           | Version:  7
     \\/     M anipulation  |
\*---------------------------------------------------------------------------*/
FoamFile
{
    version     2.0;
    format      ascii;
    class       volScalarField;
    location    "0.00342";
    object      p;
}
// * * * * * * * * * * * * * * * * * * * * * * * * * * * * * * * * * * * * * //

dimensions      [1 -1 -2 0 0 0 0];

internalField   nonuniform List<scalar> 
5000
(
99789.133
99789.134
99789.134
99789.134
99789.134
99789.134
99789.134
99789.134
99789.134
99789.134
99789.134
99789.134
99789.134
99789.134
99789.134
99789.134
99789.134
99789.134
99789.134
99789.134
99789.134
99789.134
99789.135
99789.135
99789.135
99789.135
99789.135
99789.135
99789.135
99789.135
99789.135
99789.135
99789.135
99789.135
99789.135
99789.135
99789.135
99789.135
99789.135
99789.135
99789.135
99789.135
99789.135
99789.135
99789.135
99789.136
99789.136
99789.136
99789.136
99789.136
99789.136
99789.136
99789.136
99789.136
99789.136
99789.136
99789.136
99789.136
99789.136
99789.136
99789.136
99789.136
99789.136
99789.136
99789.136
99789.136
99789.136
99789.136
99789.136
99789.137
99789.137
99789.137
99789.137
99789.137
99789.137
99789.137
99789.137
99789.137
99789.137
99789.137
99789.137
99789.137
99789.137
99789.137
99789.137
99789.137
99789.137
99789.137
99789.137
99789.137
99789.137
99789.137
99789.137
99789.137
99789.138
99789.138
99789.138
99789.138
99789.138
99789.138
99789.138
99789.138
99789.138
99789.138
99789.138
99789.138
99789.138
99789.138
99789.138
99789.138
99789.138
99789.138
99789.138
99789.138
99789.138
99789.138
99789.138
99789.138
99789.138
99789.139
99789.139
99789.139
99789.139
99789.139
99789.139
99789.139
99789.139
99789.139
99789.139
99789.139
99789.139
99789.139
99789.139
99789.139
99789.139
99789.139
99789.139
99789.139
99789.139
99789.139
99789.139
99789.139
99789.139
99789.14
99789.14
99789.14
99789.14
99789.14
99789.14
99789.14
99789.14
99789.14
99789.14
99789.14
99789.14
99789.14
99789.14
99789.14
99789.14
99789.14
99789.14
99789.14
99789.14
99789.14
99789.14
99789.14
99789.141
99789.141
99789.141
99789.141
99789.141
99789.141
99789.141
99789.141
99789.141
99789.141
99789.141
99789.141
99789.141
99789.141
99789.141
99789.141
99789.141
99789.141
99789.141
99789.141
99789.141
99789.141
99789.142
99789.142
99789.142
99789.142
99789.142
99789.142
99789.142
99789.142
99789.142
99789.142
99789.142
99789.142
99789.142
99789.142
99789.142
99789.142
99789.142
99789.142
99789.142
99789.142
99789.142
99789.142
99789.143
99789.143
99789.143
99789.143
99789.143
99789.143
99789.143
99789.143
99789.143
99789.143
99789.143
99789.143
99789.143
99789.143
99789.143
99789.143
99789.143
99789.143
99789.143
99789.143
99789.143
99789.144
99789.144
99789.144
99789.144
99789.144
99789.144
99789.144
99789.144
99789.144
99789.144
99789.144
99789.144
99789.144
99789.144
99789.144
99789.144
99789.144
99789.144
99789.144
99789.144
99789.144
99789.145
99789.145
99789.145
99789.145
99789.145
99789.145
99789.145
99789.145
99789.145
99789.145
99789.145
99789.145
99789.145
99789.145
99789.145
99789.145
99789.145
99789.145
99789.145
99789.145
99789.145
99789.146
99789.146
99789.146
99789.146
99789.146
99789.146
99789.146
99789.146
99789.146
99789.146
99789.146
99789.146
99789.146
99789.146
99789.146
99789.146
99789.146
99789.146
99789.146
99789.146
99789.146
99789.147
99789.147
99789.147
99789.147
99789.147
99789.147
99789.147
99789.147
99789.147
99789.147
99789.147
99789.147
99789.147
99789.147
99789.147
99789.147
99789.147
99789.147
99789.147
99789.147
99789.147
99789.147
99789.148
99789.148
99789.148
99789.148
99789.148
99789.148
99789.148
99789.148
99789.148
99789.148
99789.148
99789.148
99789.148
99789.148
99789.148
99789.148
99789.148
99789.148
99789.148
99789.148
99789.148
99789.148
99789.148
99789.149
99789.149
99789.149
99789.149
99789.149
99789.149
99789.149
99789.149
99789.149
99789.149
99789.149
99789.149
99789.149
99789.149
99789.149
99789.149
99789.149
99789.149
99789.149
99789.149
99789.149
99789.149
99789.149
99789.149
99789.15
99789.15
99789.15
99789.15
99789.15
99789.15
99789.15
99789.15
99789.15
99789.15
99789.15
99789.15
99789.15
99789.15
99789.15
99789.15
99789.15
99789.15
99789.15
99789.15
99789.15
99789.15
99789.15
99789.15
99789.15
99789.151
99789.151
99789.151
99789.151
99789.151
99789.151
99789.151
99789.151
99789.151
99789.151
99789.151
99789.151
99789.151
99789.151
99789.151
99789.151
99789.151
99789.151
99789.151
99789.151
99789.151
99789.151
99789.151
99789.151
99789.151
99789.152
99789.152
99789.152
99789.152
99789.152
99789.152
99789.152
99789.152
99789.152
99789.152
99789.152
99789.152
99789.152
99789.152
99789.152
99789.152
99789.152
99789.152
99789.152
99789.152
99789.152
99789.152
99789.152
99789.152
99789.153
99789.153
99789.153
99789.153
99789.153
99789.153
99789.153
99789.153
99789.153
99789.153
99789.153
99789.153
99789.153
99789.153
99789.153
99789.153
99789.153
99789.153
99789.153
99789.153
99789.153
99789.153
99789.154
99789.154
99789.154
99789.154
99789.154
99789.154
99789.154
99789.154
99789.154
99789.154
99789.154
99789.154
99789.154
99789.154
99789.154
99789.154
99789.154
99789.154
99789.154
99789.154
99789.154
99789.155
99789.155
99789.155
99789.155
99789.155
99789.155
99789.155
99789.155
99789.155
99789.155
99789.155
99789.155
99789.155
99789.155
99789.155
99789.155
99789.155
99789.155
99789.155
99789.156
99789.156
99789.156
99789.156
99789.156
99789.156
99789.156
99789.156
99789.156
99789.156
99789.156
99789.156
99789.156
99789.156
99789.156
99789.156
99789.156
99789.156
99789.157
99789.157
99789.157
99789.157
99789.157
99789.157
99789.157
99789.157
99789.157
99789.157
99789.157
99789.157
99789.157
99789.157
99789.157
99789.157
99789.157
99789.158
99789.158
99789.158
99789.158
99789.158
99789.158
99789.158
99789.158
99789.158
99789.158
99789.158
99789.158
99789.158
99789.158
99789.158
99789.158
99789.158
99789.159
99789.159
99789.159
99789.159
99789.159
99789.159
99789.159
99789.159
99789.159
99789.159
99789.159
99789.159
99789.159
99789.159
99789.159
99789.159
99789.159
99789.16
99789.16
99789.16
99789.16
99789.16
99789.16
99789.16
99789.16
99789.16
99789.16
99789.16
99789.16
99789.16
99789.16
99789.16
99789.16
99789.16
99789.161
99789.161
99789.161
99789.161
99789.161
99789.161
99789.161
99789.161
99789.161
99789.161
99789.161
99789.161
99789.161
99789.161
99789.161
99789.161
99789.162
99789.162
99789.162
99789.162
99789.162
99789.162
99789.162
99789.162
99789.162
99789.162
99789.162
99789.162
99789.162
99789.162
99789.162
99789.162
99789.162
99789.162
99789.163
99789.163
99789.163
99789.163
99789.163
99789.163
99789.163
99789.163
99789.163
99789.163
99789.163
99789.163
99789.163
99789.163
99789.163
99789.163
99789.163
99789.163
99789.164
99789.164
99789.164
99789.164
99789.164
99789.164
99789.164
99789.164
99789.164
99789.164
99789.164
99789.164
99789.164
99789.164
99789.164
99789.164
99789.164
99789.164
99789.165
99789.165
99789.165
99789.165
99789.165
99789.165
99789.165
99789.165
99789.165
99789.165
99789.165
99789.165
99789.165
99789.165
99789.165
99789.165
99789.165
99789.165
99789.165
99789.166
99789.166
99789.166
99789.166
99789.166
99789.166
99789.166
99789.166
99789.166
99789.166
99789.166
99789.166
99789.166
99789.166
99789.166
99789.166
99789.166
99789.166
99789.166
99789.167
99789.167
99789.167
99789.167
99789.167
99789.167
99789.167
99789.167
99789.167
99789.167
99789.167
99789.167
99789.167
99789.167
99789.167
99789.167
99789.167
99789.167
99789.167
99789.168
99789.168
99789.168
99789.168
99789.168
99789.168
99789.168
99789.168
99789.168
99789.168
99789.168
99789.168
99789.168
99789.168
99789.168
99789.168
99789.168
99789.168
99789.168
99789.169
99789.169
99789.169
99789.169
99789.169
99789.169
99789.169
99789.169
99789.169
99789.169
99789.169
99789.169
99789.169
99789.169
99789.169
99789.169
99789.169
99789.169
99789.169
99789.169
99789.17
99789.17
99789.17
99789.17
99789.17
99789.17
99789.17
99789.17
99789.17
99789.17
99789.17
99789.17
99789.17
99789.17
99789.17
99789.17
99789.17
99789.17
99789.17
99789.17
99789.17
99789.171
99789.171
99789.171
99789.171
99789.171
99789.171
99789.171
99789.171
99789.171
99789.171
99789.171
99789.171
99789.171
99789.171
99789.171
99789.171
99789.171
99789.171
99789.171
99789.171
99789.171
99789.171
99789.171
99789.172
99789.172
99789.172
99789.172
99789.172
99789.172
99789.172
99789.172
99789.172
99789.172
99789.172
99789.172
99789.172
99789.172
99789.172
99789.172
99789.172
99789.172
99789.172
99789.172
99789.172
99789.172
99789.172
99789.172
99789.172
99789.172
99789.173
99789.173
99789.173
99789.173
99789.173
99789.173
99789.173
99789.173
99789.173
99789.173
99789.173
99789.173
99789.173
99789.173
99789.173
99789.173
99789.173
99789.173
99789.173
99789.173
99789.173
99789.173
99789.173
99789.173
99789.173
99789.173
99789.173
99789.173
99789.173
99789.173
99789.173
99789.173
99789.173
99789.173
99789.174
99789.174
99789.174
99789.174
99789.174
99789.174
99789.174
99789.174
99789.174
99789.174
99789.174
99789.174
99789.174
99789.174
99789.174
99789.174
99789.174
99789.174
99789.174
99789.174
99789.174
99789.174
99789.174
99789.174
99789.174
99789.174
99789.174
99789.174
99789.174
99789.174
99789.174
99789.174
99789.174
99789.174
99789.174
99789.174
99789.174
99789.174
99789.174
99789.174
99789.174
99789.174
99789.174
99789.174
99789.174
99789.174
99789.174
99789.174
99789.174
99789.174
99789.174
99789.174
99789.174
99789.174
99789.174
99789.174
99789.174
99789.174
99789.174
99789.174
99789.174
99789.174
99789.174
99789.174
99789.174
99789.174
99789.174
99789.174
99789.174
99789.174
99789.174
99789.174
99789.174
99789.174
99789.174
99789.174
99789.174
99789.174
99789.174
99789.174
99789.174
99789.174
99789.174
99789.174
99789.174
99789.174
99789.174
99789.174
99789.174
99789.174
99789.174
99789.174
99789.174
99789.173
99789.173
99789.173
99789.173
99789.173
99789.173
99789.173
99789.173
99789.173
99789.173
99789.173
99789.173
99789.173
99789.173
99789.173
99789.173
99789.173
99789.173
99789.173
99789.173
99789.173
99789.173
99789.173
99789.173
99789.172
99789.172
99789.172
99789.172
99789.172
99789.172
99789.172
99789.172
99789.172
99789.172
99789.172
99789.172
99789.172
99789.172
99789.172
99789.172
99789.172
99789.171
99789.171
99789.171
99789.171
99789.171
99789.171
99789.171
99789.171
99789.171
99789.171
99789.171
99789.171
99789.171
99789.17
99789.17
99789.17
99789.17
99789.17
99789.17
99789.17
99789.17
99789.17
99789.17
99789.17
99789.169
99789.169
99789.169
99789.169
99789.169
99789.169
99789.169
99789.169
99789.169
99789.169
99789.168
99789.168
99789.168
99789.168
99789.168
99789.168
99789.168
99789.168
99789.167
99789.167
99789.167
99789.167
99789.167
99789.167
99789.167
99789.167
99789.166
99789.166
99789.166
99789.166
99789.166
99789.166
99789.166
99789.165
99789.165
99789.165
99789.165
99789.165
99789.165
99789.165
99789.164
99789.164
99789.164
99789.164
99789.164
99789.164
99789.164
99789.163
99789.163
99789.163
99789.163
99789.163
99789.163
99789.162
99789.162
99789.162
99789.162
99789.162
99789.162
99789.161
99789.161
99789.161
99789.161
99789.161
99789.161
99789.16
99789.16
99789.16
99789.16
99789.16
99789.159
99789.159
99789.159
99789.159
99789.159
99789.159
99789.158
99789.158
99789.158
99789.158
99789.158
99789.157
99789.157
99789.157
99789.157
99789.157
99789.156
99789.156
99789.156
99789.156
99789.156
99789.156
99789.155
99789.155
99789.155
99789.155
99789.155
99789.154
99789.154
99789.154
99789.154
99789.154
99789.153
99789.153
99789.153
99789.153
99789.153
99789.152
99789.152
99789.152
99789.152
99789.152
99789.151
99789.151
99789.151
99789.151
99789.151
99789.15
99789.15
99789.15
99789.15
99789.15
99789.149
99789.149
99789.149
99789.149
99789.149
99789.149
99789.148
99789.148
99789.148
99789.148
99789.148
99789.148
99789.147
99789.147
99789.147
99789.147
99789.147
99789.147
99789.146
99789.146
99789.146
99789.146
99789.146
99789.146
99789.146
99789.146
99789.146
99789.145
99789.145
99789.145
99789.145
99789.145
99789.145
99789.145
99789.145
99789.145
99789.145
99789.145
99789.145
99789.145
99789.145
99789.145
99789.145
99789.145
99789.145
99789.145
99789.145
99789.145
99789.146
99789.146
99789.146
99789.146
99789.146
99789.147
99789.147
99789.147
99789.147
99789.148
99789.148
99789.148
99789.149
99789.149
99789.15
99789.15
99789.151
99789.151
99789.152
99789.152
99789.153
99789.154
99789.154
99789.155
99789.156
99789.157
99789.158
99789.159
99789.16
99789.161
99789.162
99789.163
99789.164
99789.165
99789.167
99789.168
99789.17
99789.171
99789.173
99789.175
99789.176
99789.178
99789.18
99789.182
99789.185
99789.187
99789.189
99789.192
99789.194
99789.197
99789.2
99789.203
99789.206
99789.209
99789.213
99789.216
99789.22
99789.224
99789.228
99789.232
99789.237
99789.241
99789.246
99789.251
99789.256
99789.262
99789.268
99789.274
99789.28
99789.286
99789.293
99789.3
99789.308
99789.315
99789.323
99789.332
99789.34
99789.349
99789.359
99789.369
99789.379
99789.389
99789.401
99789.412
99789.424
99789.437
99789.45
99789.463
99789.478
99789.492
99789.508
99789.524
99789.54
99789.558
99789.576
99789.595
99789.614
99789.634
99789.656
99789.678
99789.701
99789.724
99789.749
99789.775
99789.802
99789.83
99789.859
99789.889
99789.92
99789.953
99789.987
99790.022
99790.059
99790.097
99790.137
99790.178
99790.221
99790.266
99790.312
99790.361
99790.411
99790.463
99790.517
99790.573
99790.632
99790.693
99790.756
99790.822
99790.89
99790.961
99791.035
99791.111
99791.191
99791.273
99791.359
99791.449
99791.541
99791.637
99791.737
99791.841
99791.949
99792.061
99792.177
99792.298
99792.424
99792.554
99792.689
99792.83
99792.976
99793.127
99793.284
99793.447
99793.617
99793.793
99793.975
99794.165
99794.361
99794.566
99794.777
99794.997
99795.225
99795.462
99795.708
99795.963
99796.228
99796.502
99796.787
99797.082
99797.389
99797.707
99798.037
99798.379
99798.734
99799.103
99799.484
99799.881
99800.291
99800.717
99801.159
99801.618
99802.093
99802.585
99803.096
99803.626
99804.175
99804.744
99805.334
99805.946
99806.58
99807.237
99807.919
99808.625
99809.357
99810.115
99810.901
99811.716
99812.56
99813.434
99814.34
99815.279
99816.252
99817.26
99818.304
99819.385
99820.505
99821.666
99822.868
99824.113
99825.403
99826.738
99828.121
99829.553
99831.036
99832.571
99834.161
99835.806
99837.51
99839.273
99841.099
99842.988
99844.943
99846.966
99849.06
99851.227
99853.469
99855.789
99858.189
99860.672
99863.241
99865.898
99868.647
99871.49
99874.43
99877.47
99880.614
99883.866
99887.227
99890.703
99894.296
99898.011
99901.851
99905.82
99909.922
99914.161
99918.542
99923.069
99927.746
99932.579
99937.571
99942.728
99948.055
99953.558
99959.24
99965.108
99971.167
99977.424
99983.883
99990.551
99997.434
100004.54
100011.87
100019.44
100027.24
100035.3
100043.61
100052.18
100061.03
100070.15
100079.55
100089.25
100099.25
100109.56
100120.18
100131.13
100142.42
100154.05
100166.03
100178.38
100191.09
100204.19
100217.68
100231.56
100245.86
100260.58
100275.73
100291.32
100307.36
100323.86
100340.84
100358.3
100376.26
100394.72
100413.7
100433.21
100453.25
100473.85
100495.01
100516.75
100539.07
100561.99
100585.52
100609.67
100634.45
100659.88
100685.96
100712.7
100740.13
100768.24
100797.06
100826.58
100856.83
100887.81
100919.53
100952
100985.23
101019.24
101054.03
101089.6
101125.98
101163.16
101201.15
101239.96
101279.6
101320.07
101361.38
101403.54
101446.54
101490.39
101535.1
101580.66
101627.09
101674.37
101722.51
101771.51
101821.37
101872.09
101923.65
101976.06
102029.32
102083.41
102138.33
102194.08
102250.64
102308
102366.15
102425.08
102484.79
102545.24
102606.44
102668.36
102730.98
102794.3
102858.28
102922.92
102988.19
103054.06
103120.52
103187.54
103255.1
103323.18
103391.74
103460.76
103530.21
103600.07
103670.31
103740.89
103811.8
103882.99
103954.43
104026.11
104097.97
104170
104242.16
104314.43
104386.75
104459.11
104531.48
104603.81
104676.08
104748.26
104820.31
104892.21
104963.91
105035.4
105106.64
105177.6
105248.25
105318.56
105388.51
105458.06
105527.2
105595.89
105664.1
105731.82
105799.02
105865.68
105931.77
105997.28
106062.18
106126.45
106190.08
106253.05
106315.33
106376.92
106437.81
106497.96
106557.39
106616.06
106673.97
106731.12
106787.48
106843.06
106897.85
106951.83
107005.01
107057.37
107108.92
107159.65
107209.56
107258.64
107306.91
107354.34
107400.96
107446.75
107491.72
107535.88
107579.21
107621.74
107663.46
107704.38
107744.5
107783.82
107822.36
107860.13
107897.12
107933.34
107968.8
108003.52
108037.5
108070.74
108103.25
108135.06
108166.15
108196.55
108226.26
108255.3
108283.67
108311.38
108338.44
108364.86
108390.66
108415.85
108440.42
108464.4
108487.8
108510.62
108532.88
108554.58
108575.74
108596.37
108616.47
108636.06
108655.15
108673.75
108691.87
108709.51
108726.69
108743.42
108759.71
108775.56
108791
108806.01
108820.63
108834.85
108848.68
108862.13
108875.22
108887.94
108900.32
108912.35
108924.04
108935.41
108946.46
108957.2
108967.63
108977.77
108987.62
108997.19
109006.49
109015.52
109024.29
109032.8
109041.07
109049.1
109056.89
109064.46
109071.8
109078.93
109085.85
109092.56
109099.08
109105.4
109111.53
109117.48
109123.25
109128.84
109134.27
109139.54
109144.64
109149.6
109154.4
109159.05
109163.56
109167.94
109172.18
109176.29
109180.27
109184.13
109187.88
109191.5
109195.02
109198.42
109201.72
109204.92
109208.01
109211.01
109213.92
109216.73
109219.46
109222.1
109224.65
109227.13
109229.53
109231.85
109234.1
109236.27
109238.38
109240.42
109242.4
109244.31
109246.16
109247.95
109249.68
109251.36
109252.99
109254.56
109256.08
109257.55
109258.98
109260.36
109261.69
109262.98
109264.23
109265.44
109266.61
109267.74
109268.84
109269.9
109270.92
109271.91
109272.87
109273.8
109274.7
109275.56
109276.4
109277.22
109278
109278.76
109279.5
109280.21
109280.89
109281.56
109282.2
109282.82
109283.43
109284.01
109284.57
109285.11
109285.64
109286.15
109286.64
109287.12
109287.58
109288.03
109288.46
109288.88
109289.28
109289.67
109290.05
109290.41
109290.77
109291.11
109291.44
109291.76
109292.07
109292.37
109292.66
109292.94
109293.22
109293.48
109293.73
109293.98
109294.22
109294.45
109294.68
109294.89
109295.1
109295.31
109295.51
109295.7
109295.88
109296.06
109296.24
109296.41
109296.57
109296.73
109296.89
109297.04
109297.18
109297.33
109297.46
109297.6
109297.73
109297.85
109297.98
109298.1
109298.21
109298.33
109298.44
109298.54
109298.65
109298.75
109298.85
109298.95
109299.04
109299.13
109299.22
109299.31
109299.4
109299.48
109299.56
109299.65
109299.72
109299.8
109299.88
109299.95
109300.03
109300.1
109300.17
109300.24
109300.3
109300.37
109300.44
109300.5
109300.57
109300.63
109300.69
109300.75
109300.81
109300.87
109300.93
109300.99
109301.05
109301.11
109301.17
109301.22
109301.28
109301.33
109301.39
109301.44
109301.5
109301.55
109301.61
109301.66
109301.72
109301.77
109301.82
109301.88
109301.93
109301.98
109302.04
109302.09
109302.14
109302.19
109302.25
109302.3
109302.35
109302.41
109302.46
109302.51
109302.57
109302.62
109302.67
109302.73
109302.78
109302.84
109302.89
109302.95
109303
109303.06
109303.11
109303.17
109303.22
109303.28
109303.34
109303.39
109303.45
109303.51
109303.57
109303.62
109303.68
109303.74
109303.8
109303.86
109303.92
109303.98
109304.04
109304.1
109304.16
109304.22
109304.29
109304.35
109304.41
109304.48
109304.54
109304.61
109304.67
109304.74
109304.8
109304.87
109304.94
109305
109305.07
109305.14
109305.21
109305.28
109305.35
109305.42
109305.49
109305.56
109305.63
109305.7
109305.78
109305.85
109305.92
109306
109306.07
109306.15
109306.23
109306.3
109306.38
109306.46
109306.54
109306.62
109306.69
109306.77
109306.86
109306.94
109307.02
109307.1
109307.18
109307.27
109307.35
109307.44
109307.52
109307.61
109307.69
109307.78
109307.87
109307.96
109308.05
109308.14
109308.23
109308.32
109308.41
109308.5
109308.59
109308.69
109308.78
109308.87
109308.97
109309.06
109309.16
109309.26
109309.36
109309.45
109309.55
109309.65
109309.75
109309.85
109309.95
109310.06
109310.16
109310.26
109310.37
109310.47
109310.58
109310.68
109310.79
109310.89
109311
109311.11
109311.22
109311.33
109311.44
109311.55
109311.66
109311.78
109311.89
109312
109312.12
109312.23
109312.35
109312.46
109312.58
109312.7
109312.82
109312.93
109313.05
109313.17
109313.29
109313.42
109313.54
109313.66
109313.78
109313.91
109314.03
109314.16
109314.28
109314.41
109314.54
109314.67
109314.79
109314.92
109315.05
109315.18
109315.32
109315.45
109315.58
109315.71
109315.85
109315.98
109316.12
109316.25
109316.39
109316.53
109316.66
109316.8
109316.94
109317.08
109317.22
109317.36
109317.5
109317.64
109317.79
109317.93
109318.07
109318.22
109318.36
109318.51
109318.66
109318.8
109318.95
109319.1
109319.25
109319.4
109319.55
109319.7
109319.85
109320
109320.16
109320.31
109320.46
109320.62
109320.77
109320.93
109321.08
109321.24
109321.4
109321.56
109321.72
109321.88
109322.04
109322.2
109322.36
109322.52
109322.68
109322.84
109323.01
109323.17
109323.33
109323.5
109323.67
109323.83
109324
109324.17
109324.33
109324.5
109324.67
109324.84
109325.01
109325.18
109325.35
109325.52
109325.7
109325.87
109326.04
109326.22
109326.39
109326.57
109326.74
109326.92
109327.1
109327.27
109327.45
109327.63
109327.81
109327.99
109328.17
109328.35
109328.53
109328.71
109328.89
109329.07
109329.25
109329.44
109329.62
109329.8
109329.99
109330.17
109330.36
109330.55
109330.73
109330.92
109331.11
109331.3
109331.48
109331.67
109331.86
109332.05
109332.24
109332.43
109332.62
109332.81
109333.01
109333.2
109333.39
109333.58
109333.78
109333.97
109334.17
109334.36
109334.56
109334.75
109334.95
109335.15
109335.34
109335.54
109335.74
109335.94
109336.13
109336.33
109336.53
109336.73
109336.93
109337.13
109337.33
109337.54
109337.74
109337.94
109338.14
109338.34
109338.55
109338.75
109338.95
109339.16
109339.36
109339.57
109339.77
109339.98
109340.18
109340.39
109340.6
109340.8
109341.01
109341.22
109341.43
109341.64
109341.84
109342.05
109342.26
109342.47
109342.68
109342.89
109343.1
109343.31
109343.52
109343.73
109343.95
109344.16
109344.37
109344.58
109344.8
109345.01
109345.22
109345.43
109345.65
109345.86
109346.08
109346.29
109346.51
109346.72
109346.94
109347.15
109347.37
109347.58
109347.8
109348.02
109348.23
109348.45
109348.67
109348.89
109349.1
109349.32
109349.54
109349.76
109349.98
109350.19
109350.41
109350.63
109350.85
109351.07
109351.29
109351.51
109351.73
109351.95
109352.17
109352.39
109352.61
109352.84
109353.06
109353.28
109353.5
109353.72
109353.94
109354.17
109354.39
109354.61
109354.83
109355.06
109355.28
109355.5
109355.73
109355.95
109356.17
109356.4
109356.62
109356.84
109357.07
109357.29
109357.52
109357.74
109357.97
109358.19
109358.41
109358.64
109358.87
109359.09
109359.32
109359.54
109359.77
109359.99
109360.22
109360.44
109360.67
109360.9
109361.12
109361.35
109361.57
109361.8
109362.03
109362.25
109362.48
109362.71
109362.94
109363.16
109363.39
109363.62
109363.84
109364.07
109364.3
109364.52
109364.75
109364.98
109365.2
109365.43
109365.66
109365.88
109366.11
109366.34
109366.57
109366.79
109367.02
109367.25
109367.47
109367.7
109367.93
109368.16
109368.38
109368.61
109368.84
109369.07
109369.29
109369.52
109369.75
109369.97
109370.2
109370.43
109370.66
109370.88
109371.11
109371.34
109371.56
109371.79
109372.02
109372.24
109372.47
109372.7
109372.93
109373.15
109373.38
109373.61
109373.83
109374.06
109374.29
109374.51
109374.74
109374.97
109375.19
109375.42
109375.64
109375.87
109376.1
109376.32
109376.55
109376.77
109377
109377.22
109377.45
109377.68
109377.9
109378.13
109378.35
109378.58
109378.8
109379.03
109379.25
109379.48
109379.7
109379.92
109380.15
109380.37
109380.6
109380.82
109381.04
109381.27
109381.49
109381.71
109381.94
109382.16
109382.38
109382.6
109382.83
109383.05
109383.27
109383.49
109383.71
109383.94
109384.16
109384.38
109384.6
109384.82
109385.04
109385.26
109385.48
109385.7
109385.92
109386.14
109386.36
109386.58
109386.8
109387.02
109387.24
109387.46
109387.68
109387.89
109388.11
109388.33
109388.55
109388.77
109388.98
109389.2
109389.42
109389.63
109389.85
109390.06
109390.28
109390.5
109390.71
109390.93
109391.14
109391.35
109391.57
109391.78
109392
109392.21
109392.42
109392.63
109392.85
109393.06
109393.27
109393.48
109393.69
109393.91
109394.12
109394.33
109394.54
109394.75
109394.96
109395.17
109395.37
109395.58
109395.79
109396
109396.21
109396.41
109396.62
109396.83
109397.03
109397.24
109397.45
109397.65
109397.86
109398.06
109398.26
109398.47
109398.67
109398.87
109399.08
109399.28
109399.48
109399.68
109399.88
109400.09
109400.29
109400.49
109400.69
109400.89
109401.08
109401.28
109401.48
109401.68
109401.88
109402.07
109402.27
109402.47
109402.66
109402.86
109403.05
109403.25
109403.44
109403.63
109403.83
109404.02
109404.21
109404.4
109404.6
109404.79
109404.98
109405.17
109405.36
109405.55
109405.73
109405.92
109406.11
109406.3
109406.48
109406.67
109406.86
109407.04
109407.23
109407.41
109407.6
109407.78
109407.96
109408.14
109408.33
109408.51
109408.69
109408.87
109409.05
109409.23
109409.41
109409.59
109409.76
109409.94
109410.12
109410.29
109410.47
109410.65
109410.82
109410.99
109411.17
109411.34
109411.51
109411.69
109411.86
109412.03
109412.2
109412.37
109412.54
109412.71
109412.87
109413.04
109413.21
109413.37
109413.54
109413.71
109413.87
109414.03
109414.2
109414.36
109414.52
109414.68
109414.85
109415.01
109415.17
109415.33
109415.48
109415.64
109415.8
109415.96
109416.11
109416.27
109416.42
109416.58
109416.73
109416.89
109417.04
109417.19
109417.34
109417.49
109417.64
109417.79
109417.94
109418.09
109418.24
109418.38
109418.53
109418.68
109418.82
109418.97
109419.11
109419.25
109419.39
109419.54
109419.68
109419.82
109419.96
109420.1
109420.24
109420.37
109420.51
109420.65
109420.78
109420.92
109421.05
109421.19
109421.32
109421.45
109421.58
109421.72
109421.85
109421.98
109422.11
109422.24
109422.36
109422.49
109422.62
109422.74
109422.87
109422.99
109423.12
109423.24
109423.37
109423.49
109423.61
109423.73
109423.85
109423.97
109424.09
109424.21
109424.33
109424.45
109424.57
109424.68
109424.8
109424.91
109425.03
109425.14
109425.26
109425.37
109425.48
109425.6
109425.71
109425.82
109425.93
109426.04
109426.15
109426.26
109426.37
109426.48
109426.59
109426.69
109426.8
109426.91
109427.01
109427.12
109427.23
109427.33
109427.44
109427.54
109427.64
109427.75
109427.85
109427.95
109428.05
109428.16
109428.26
109428.36
109428.46
109428.56
109428.66
109428.76
109428.86
109428.96
109429.07
109429.17
109429.27
109429.37
109429.46
109429.56
109429.66
109429.76
109429.86
109429.96
109430.06
109430.16
109430.26
109430.36
109430.46
109430.56
109430.66
109430.76
109430.86
109430.96
109431.06
109431.16
109431.26
109431.36
109431.46
109431.56
109431.66
109431.76
109431.87
109431.97
109432.07
109432.17
109432.27
109432.37
109432.48
109432.59
109432.69
109432.8
109432.91
109433.02
109433.13
109433.24
109433.36
109433.47
109433.58
109433.69
109433.81
109433.93
109434.05
109434.16
109434.28
109434.39
109434.52
109434.65
109434.78
109434.92
109435.05
109435.18
109435.32
109435.47
109435.61
109435.75
109435.9
109436.05
109436.2
109436.36
109436.52
109436.68
109436.84
109437.01
109437.18
109437.36
109437.54
109437.72
109437.9
109438.09
109438.29
109438.48
109438.68
109438.89
109439.1
109439.31
109439.53
109439.76
109439.98
109440.21
109440.45
109440.69
109440.94
109441.19
109441.44
109441.71
109441.97
109442.25
109442.53
109442.81
109443.1
109443.39
109443.7
109444
109444.32
109444.64
109444.96
109445.3
109445.64
109445.98
109446.34
109446.7
109447.07
109447.45
109447.83
109448.22
109448.62
109449.03
109449.45
109449.88
109450.31
109450.76
109451.21
109451.67
109452.14
109452.62
109453.11
109453.62
109454.13
109454.65
109455.18
109455.73
109456.28
109456.85
109457.43
109458.01
109458.61
109459.23
109459.85
109460.48
109461.12
109461.78
109462.45
109463.13
109463.82
109464.52
109465.23
109465.96
109466.7
109467.45
109468.21
109468.99
109469.77
109470.57
109471.38
109472.22
109473.07
109473.94
109474.83
109475.73
109476.64
109477.57
109478.51
109479.47
109480.44
109481.43
109482.44
109483.47
109484.52
109485.59
109486.68
109487.79
109488.92
109490.07
109491.25
109492.45
109493.67
109494.92
109496.18
109497.47
109498.78
109500.11
109501.46
109502.83
109504.23
109505.65
109507.1
109508.56
109510.06
109511.58
109513.12
109514.69
109516.28
109517.9
109519.55
109521.22
109522.91
109524.64
109526.39
109528.17
109529.98
109531.81
109533.67
109535.56
109537.48
109539.44
109541.42
109543.43
109545.47
109547.54
109549.64
109551.78
109553.94
109556.14
109558.37
109560.63
109562.92
109565.25
109567.61
109570.01
109572.43
109574.89
109577.39
109579.92
109582.49
109585.09
109587.73
109590.4
109593.11
109595.86
109598.64
109601.46
109604.31
109607.21
109610.14
109613.11
109616.12
109619.17
109622.26
109625.38
109628.55
109631.75
109635
109638.29
109641.61
109644.98
109648.39
109651.84
109655.33
109658.87
109662.44
109666.06
109669.72
109673.42
109677.17
109680.96
109684.8
109688.68
109692.6
109696.57
109700.58
109704.63
109708.74
109712.88
109717.07
109721.31
109725.6
109729.93
109734.3
109738.72
109743.19
109747.71
109752.27
109756.89
109761.54
109766.25
109771
109775.81
109780.66
109785.56
109790.5
109795.5
109800.54
109805.64
109810.78
109815.98
109821.22
109826.51
109831.85
109837.24
109842.69
109848.18
109853.72
109859.32
109864.96
109870.66
109876.4
109882.2
109888.05
109893.94
109899.89
109905.9
109911.95
109918.06
109924.21
109930.42
109936.68
109942.99
109949.36
109955.77
109962.24
109968.77
109975.34
109981.96
109988.64
109995.37
110002.16
110008.99
110015.88
110022.82
110029.81
110036.86
110043.96
110051.11
110058.31
110065.57
110072.88
110080.24
110087.66
110095.13
110102.65
110110.22
110117.85
110125.53
110133.26
110141.05
110148.88
110156.77