/*--------------------------------*- C++ -*----------------------------------*\
  =========                 |
  \\      /  F ield         | OpenFOAM: The Open Source CFD Toolbox
   \\    /   O peration     | Website:  https://openfoam.org
    \\  /    A nd           | Version:  7
     \\/     M anipulation  |
\*---------------------------------------------------------------------------*/
FoamFile
{
    version     2.0;
    format      ascii;
    class       volVectorField;
    location    "0.00342";
    object      U;
}
// * * * * * * * * * * * * * * * * * * * * * * * * * * * * * * * * * * * * * //

dimensions      [0 1 -1 0 0 0 0];

internalField   nonuniform List<vector> 
5000
(
(0.075272699 9.1355972e-22 0)
(0.075694821 1.6853952e-21 0)
(0.074584586 0 0)
(0.075688741 0 0)
(0.075138364 -5.804404e-22 0)
(0.075232177 4.7017845e-37 -4.1357333e-22)
(0.075247359 3.9513796e-22 -8.4228723e-37)
(0.075234869 0 1.2607738e-21)
(0.075274761 0 4.2892166e-22)
(0.075275264 -4.445668e-22 -8.891336e-22)
(0.075258708 -9.0239806e-22 -9.0239806e-22)
(0.075256954 4.4189566e-22 4.4189566e-22)
(0.075258635 4.3521735e-22 -3.7108863e-36)
(0.075256963 -4.3612478e-22 -3.8425776e-36)
(0.075253101 0 8.7720942e-22)
(0.075250247 -4.3877162e-22 -8.7754324e-22)
(0.075249047 -1.563385e-51 -7.816925e-52)
(0.075248141 4.3527494e-22 -3.8350899e-36)
(0.075247222 0 -4.3385495e-22)
(0.075246313 4.3252608e-22 8.6505216e-22)
(0.075245431 -4.3116508e-22 4.3116508e-22)
(0.075244564 -4.2977847e-22 0)
(0.075243702 8.5679031e-22 0)
(0.075242869 -4.270233e-22 -4.270233e-22)
(0.075242062 -4.2567222e-22 3.6294996e-36)
(0.075241268 -3.4975265e-36 -3.4975265e-36)
(0.075240487 4.2301894e-22 -4.2301894e-22)
(0.075239722 4.2171337e-22 4.2171337e-22)
(0.075238975 -8.4084985e-22 4.2042492e-22)
(0.075238243 7.2669982e-36 -4.1915536e-22)
(0.075237526 -7.3046908e-36 7.3046908e-36)
(0.075236819 4.1666713e-22 -3.5527177e-36)
(0.075236122 8.3088684e-22 -4.1544342e-22)
(0.075235442 -8.2847043e-22 4.1423521e-22)
(0.075234775 7.1610265e-36 4.1304299e-22)
(0.075234119 -3.5820034e-35 0)
(0.075233476 -1.4240727e-35 0)
(0.075232843 8.1907784e-22 -4.0953892e-22)
(0.075232218 -8.167685e-22 -4.0838425e-22)
(0.075231604 -8.1446455e-22 4.0723228e-22)
(0.075231001 8.1216587e-22 -6.809527e-36)
(0.075230409 -2.7851684e-35 -4.0493554e-22)
(0.075229829 -8.0757766e-22 4.0378883e-22)
(0.075229255 4.0263969e-22 -6.8090064e-36)
(0.075228689 1.2044644e-21 -4.0148812e-22)
(0.075228132 -4.0033743e-22 4.0033743e-22)
(0.07522758 -3.9918842e-22 -1.3728197e-35)
(0.075227033 -2.7263658e-35 1.3631829e-35)
(0.0752265 -7.9373671e-22 -1.3648409e-35)
(0.07522611 0 6.6867947e-36)
(0.075226062 3.8390876e-22 3.8390876e-22)
(0.075226158 5.4350093e-38 0)
(0.075226182 -3.8521223e-22 0)
(0.075226217 7.684388e-22 0)
(0.075226309 -1.34258e-35 0)
(0.075226391 -7.6702622e-22 0)
(0.075226641 3.7988835e-22 0)
(0.075227036 -1.29408e-35 0)
(0.07522701 -3.7294943e-22 0)
(0.075226832 0 0)
(0.075226831 3.7813394e-22 0)
(0.075226847 1.2761728e-35 0)
(0.075226897 1.0613587e-37 0)
(0.075227023 3.7297521e-22 -3.7297521e-22)
(0.075227548 -3.7261714e-22 -3.7261714e-22)
(0.075229013 1.3032887e-35 3.728081e-22)
(0.075228703 3.7415358e-22 -6.433621e-36)
(0.075225903 -3.7750729e-22 1.4696579e-52)
(0.075224043 -3.7689909e-22 3.7689909e-22)
(0.075224296 3.7513788e-22 0)
(0.075224613 3.7449845e-22 0)
(0.075225592 -3.7164741e-22 -3.7164741e-22)
(0.075225128 -3.7006305e-22 -3.7006305e-22)
(0.075223901 7.3682957e-22 0)
(0.075223938 3.6860544e-22 3.6860544e-22)
(0.075223461 -3.7395862e-22 1.291368e-35)
(0.075223301 0 -3.7617853e-22)
(0.075223453 3.7561296e-22 -3.7561296e-22)
(0.075223676 -5.3392218e-38 3.7571433e-22)
(0.075224239 -3.7281078e-22 7.4562156e-22)
(0.075223645 3.6929456e-22 -7.3858912e-22)
(0.075221661 -1.0423162e-37 2.0846324e-37)
(0.075222139 1.0380771e-37 1.0957227e-21)
(0.075224151 3.6627795e-22 -7.325559e-22)
(0.075223313 3.6996014e-22 -3.8484533e-35)
(0.075219695 1.3035269e-35 7.4879636e-22)
(0.075219221 -3.7218352e-22 -1.1165506e-21)
(0.075220771 0 3.6868693e-22)
(0.075218729 -3.7206132e-22 3.7206132e-22)
(0.075217388 -3.8836196e-35 -3.7436361e-22)
(0.075220105 -1.3113879e-35 3.7512488e-22)
(0.0752202 3.7664789e-22 3.7664789e-22)
(0.075216906 3.7578592e-22 1.3083586e-35)
(0.075216438 -7.4153309e-22 -7.4153309e-22)
(0.07521834 -2.5446965e-35 -2.5446965e-35)
(0.075216664 3.7171844e-22 -3.7171844e-22)
(0.075215377 0 -3.7454386e-22)
(0.07521809 0 -1.3182067e-35)
(0.075218157 -3.7716038e-22 2.626288e-35)
(0.07521472 -2.6095024e-35 7.5257134e-22)
(0.075214179 7.4231905e-22 3.7115953e-22)
(0.075216014 -3.6792586e-22 -3.6792586e-22)
(0.075214106 -7.4405528e-22 5.2868307e-38)
(0.075213341 0 3.7158438e-22)
(0.075215086 3.6851776e-22 0)
(0.075213178 3.7259627e-22 -3.7259627e-22)
(0.075212414 -3.7217506e-22 -1.2957868e-35)
(0.075214148 -3.6918668e-22 3.6918668e-22)
(0.075212287 0 -3.7326271e-22)
(0.075211097 0 -3.7634109e-22)
(0.075213892 3.7766762e-22 7.5533525e-22)
(0.075213971 3.7960707e-22 3.7960707e-22)
(0.075210677 0 -1.1368037e-21)
(0.07520988 -3.7760548e-22 -3.7760548e-22)
(0.075212814 1.324991e-35 1.1370482e-21)
(0.075212885 3.8111175e-22 -3.8111175e-22)
(0.075209503 -3.8046689e-22 -3.8046689e-22)
(0.075208755 1.0777802e-37 -2.1555604e-37)
(0.075211847 -1.3311325e-35 -3.8077284e-22)
(0.075211863 7.4099664e-53 1.1494919e-21)
(0.07520862 7.6469296e-22 -2.6732674e-35)
(0.075206411 -1.6163324e-37 -7.5826186e-22)
(0.075206628 -3.7823634e-22 7.5647268e-22)
(0.075206859 0 3.786194e-22)
(0.075207666 -3.7739541e-22 -3.7739541e-22)
(0.075209287 3.7583758e-22 3.7583758e-22)
(0.075209256 3.7697689e-22 -3.7697689e-22)
(0.075206502 -7.6339827e-22 -7.6339827e-22)
(0.075205595 -3.8437437e-22 3.8437437e-22)
(0.075208443 7.7196976e-22 1.3328975e-35)
(0.075208494 3.8815512e-22 3.8815512e-22)
(0.075205176 -3.8770843e-22 7.7541685e-22)
(0.07520471 -3.8291155e-22 -3.8291155e-22)
(0.075206437 -3.793032e-22 -3.793032e-22)
(0.075204981 0 -3.8218948e-22)
(0.0752031 3.8338084e-22 -1.3348015e-35)
(0.075203216 3.8314281e-22 -1.328528e-35)
(0.0752034 -3.8394716e-22 1.3367732e-35)
(0.075203958 -1.3326091e-35 7.686396e-22)
(0.075202757 3.8788605e-22 3.8788605e-22)
(0.075202713 -3.8782222e-22 -3.8782222e-22)
(0.075205535 -3.8335736e-22 -7.6671472e-22)
(0.0752055 0 -3.8565272e-22)
(0.075202024 3.9216883e-22 -3.9216883e-22)
(0.075201391 3.9089845e-22 2.7108405e-35)
(0.075203439 -3.8807376e-22 7.7614752e-22)
(0.075202659 3.9303394e-22 -1.1170696e-37)
(0.075201806 -2.2369301e-37 1.1184651e-37)
(0.075202353 -3.9082215e-22 -5.8498716e-52)
(0.075200552 3.9517813e-22 3.9517813e-22)
(0.075200189 -3.9530263e-22 -2.7413831e-35)
(0.075201483 2.7337174e-35 5.4674348e-35)
(0.075199727 3.9718815e-22 3.9718815e-22)
(0.075198973 -4.0122079e-22 -4.0122079e-22)
(0.075201639 4.0327246e-22 4.0327246e-22)
(0.075201661 4.0556275e-22 1.406268e-35)
(0.075198522 -4.0534806e-22 -4.0534806e-22)
(0.075198094 0 4.0078792e-22)
(0.07519965 0 -5.6550721e-38)
(0.075197989 -4.0286109e-22 -4.0286109e-22)
(0.075197404 -4.0317783e-22 0)
(0.075198849 4.0049337e-22 4.0049337e-22)
(0.075197215 4.0533156e-22 2.8051725e-35)
(0.075196546 -4.0590389e-22 -8.1180778e-22)
(0.07519928 -2.7802579e-35 4.0090832e-22)
(0.07519928 4.0329452e-22 -1.146232e-37)
(0.075196101 -4.10211e-22 -4.10211e-22)
(0.07519545 -4.0939594e-22 4.0939594e-22)
(0.075198166 0 -4.0402119e-22)
(0.075198159 4.0638973e-22 4.0638973e-22)
(0.075195081 4.1337277e-22 -1.7223683e-34)
(0.075194488 0 -1.1446124e-34)
(0.075197137 -4.0721573e-22 4.0721573e-22)
(0.075197136 -4.0948333e-22 -8.1896665e-22)
(0.075194059 0 0)
(0.075193579 4.1539573e-22 -2.8807267e-35)
(0.07519499 8.5774653e-35 -8.5774653e-35)
(0.075193414 -4.1704399e-22 4.1704399e-22)
(0.075192896 4.1724472e-22 4.1724472e-22)
(0.075194235 4.1432945e-22 2.8556682e-35)
(0.075192672 -4.1901195e-22 -4.1901195e-22)
(0.075192179 -2.8953077e-35 4.1921639e-22)
(0.075193503 2.8616766e-35 2.8616766e-35)
(0.075192108 1.7897363e-37 1.7897363e-37)
(0.075190533 4.2166315e-22 5.8423889e-35)
(0.075190694 -4.2119612e-22 -8.4239224e-22)
(0.075190925 -5.8445016e-35 4.2138344e-22)
(0.075191681 2.9031437e-35 4.2208797e-22)
(0.075191308 -2.9383915e-35 -2.9383915e-35)
(0.075191306 4.2790455e-22 2.9492314e-35)
(0.07519309 0 -8.782908e-35)
(0.075192694 0 2.9244349e-35)
(0.075189662 -4.2957917e-22 -4.2957917e-22)
(0.075189213 -4.2827172e-22 0)
(0.075190593 0 0)
(0.07518903 0 0)
(0.07518854 4.3012152e-22 0)
(0.075189865 -8.2193903e-53 -4.2732998e-22)
(0.075188309 -4.3214198e-22 9.0090038e-35)
(0.075187806 0 4.3244335e-22)
(0.075189121 4.2962352e-22 4.2962352e-22)
(0.075187584 -4.3437234e-22 -4.3437234e-22)
(0.075187017 -1.2051114e-34 -4.3488294e-22)
(0.075189595 8.5925338e-22 8.5925338e-22)
(0.075189577 -4.3170703e-22 2.9877089e-35)
(0.075186542 -9.1047426e-35 -9.1047426e-35)
(0.075186069 -6.215315e-38 -4.3736391e-22)
(0.075187436 -4.340782e-22 -4.340782e-22)
(0.075185898 4.3870265e-22 4.3870265e-22)
(0.075185417 -6.2356471e-38 0)
(0.075186722 -6.0312438e-35 4.357403e-22)
(0.07518519 3.0468083e-35 3.0468083e-35)
(0.075184613 -4.4051247e-22 -4.4051247e-22)
(0.075187162 0 -4.3501007e-22)
(0.075187139 4.3686973e-22 6.0841264e-35)
(0.075184125 3.0694022e-35 4.4351125e-22)
(0.075183653 1.2272607e-34 -8.8439116e-22)
(0.075185069 4.3884778e-22 4.3884778e-22)
(0.075183681 0 4.4338379e-22)
(0.075182941 -4.4313325e-22 -4.4313325e-22)
(0.075184048 -4.3965983e-22 4.3965983e-22)
(0.075182685 0 0)
(0.075182306 0 0)
(0.075183472 0 0)
(0.075182202 4.4274316e-22 4.4274316e-22)
(0.075180604 3.0747101e-35 -4.4427821e-22)
(0.075180715 -4.4372286e-22 -8.8744572e-22)
(0.075180865 0 4.44013e-22)
(0.075181411 0 -3.0810557e-35)
(0.075182587 4.4189786e-22 4.4189786e-22)
(0.075182464 4.4287183e-22 4.4287183e-22)
(0.075180311 -4.4757861e-22 -8.9515723e-22)
(0.075178542 -4.4876225e-22 1.275459e-37)
(0.075178614 0 -1.2732008e-37)
(0.075178689 4.48075e-22 4.48075e-22)
(0.075178952 4.4744061e-22 4.4744061e-22)
(0.075179392 -4.4672681e-22 -8.9345361e-22)
(0.075180699 -4.4362412e-22 6.3042779e-38)
(0.075180678 0 -9.239877e-35)
(0.075178268 4.4874291e-22 4.4874291e-22)
(0.07517764 -1.2428519e-34 -2.4857039e-34)
(0.075179958 -3.0597535e-35 -6.1195071e-35)
(0.075179906 4.4268754e-22 4.4268754e-22)
(0.075177204 -4.4884368e-22 -4.4884368e-22)
(0.075175481 -4.4956828e-22 0)
(0.075175559 0 -4.4859045e-22)
(0.07517564 4.4854891e-22 4.4854891e-22)
(0.075175924 -6.2217558e-35 4.4766579e-22)
(0.075176394 4.4669849e-22 -4.4669849e-22)
(0.075177811 6.150646e-35 0)
(0.075177765 -8.8635823e-22 -4.4317912e-22)
(0.075175039 4.4807634e-22 4.4807634e-22)
(0.075174559 -6.1913684e-35 4.4639223e-22)
(0.075175943 -1.5359872e-34 -1.5359872e-34)
(0.075174326 -3.088729e-35 -8.9260773e-22)
(0.075173686 -4.4584518e-22 -8.9169035e-22)
(0.075176324 4.3962685e-22 1.3188805e-21)
(0.075176289 4.4085445e-22 8.817089e-22)
(0.075173133 0 0)
(0.075172623 -4.4472511e-22 -8.8945022e-22)
(0.075174088 -4.3974464e-22 -4.3974464e-22)
(0.075172827 0 4.4145776e-22)
(0.075171113 4.4220226e-22 4.4220226e-22)
(0.07517121 4.4098082e-22 4.4098082e-22)
(0.075171351 -8.8145676e-22 -8.8145676e-22)
(0.075171868 -4.3975639e-22 -8.7951277e-22)
(0.075173035 4.379582e-22 4.379582e-22)
(0.075172898 4.383502e-22 8.7670041e-22)
(0.075170431 1.2280093e-34 1.2280093e-34)
(0.075169849 -4.4119478e-22 -8.8238956e-22)
(0.075172577 4.3465299e-22 4.3465299e-22)
(0.075172537 -3.0217968e-35 -6.0435936e-35)
(0.07516929 -4.4151718e-22 -4.4151718e-22)
(0.075168765 4.3915012e-22 8.7830024e-22)
(0.075170212 -3.0210256e-35 -4.3473574e-22)
(0.07516855 3.0527962e-35 6.1055924e-35)
(0.075167996 -1.243176e-37 4.3740366e-22)
(0.075169371 -2.992035e-35 -4.332217e-22)
(0.075167702 4.3681535e-22 4.3681535e-22)
(0.075167155 0 -8.7152025e-22)
(0.075168522 0 1.8007574e-34)
(0.075166932 -4.3513616e-22 8.7027231e-22)
(0.075166024 -4.3367192e-22 -8.6734384e-22)
(0.075167122 0 -2.9701004e-35)
(0.075166 0 4.3278521e-22)
(0.075164925 0 0)
(0.075165152 0 0)
(0.075165465 4.3058139e-22 4.3058139e-22)
(0.075166461 2.9412878e-35 -4.2675202e-22)
(0.075165495 -8.5465028e-22 -8.5465028e-22)
(0.075162504 1.8389125e-37 4.3133987e-22)
(0.075161984 4.2975347e-22 -1.2214328e-37)
(0.075162273 4.2812105e-22 4.2812105e-22)
(0.075162594 -5.9291338e-35 4.270478e-22)
(0.075163582 -5.8791486e-35 -4.2431621e-22)
(0.075162547 -6.0575439e-38 0)
(0.075162501 -4.2467923e-22 -4.2467923e-22)
(0.075163695 -4.2073542e-22 -4.2073542e-22)
(0.07516207 -4.2401873e-22 0)
(0.075160751 8.4370965e-22 8.4370965e-22)
(0.075161492 1.2499452e-21 4.1664839e-22)
(0.075160786 -4.2040643e-22 -8.4081286e-22)
(0.075160178 -8.4533492e-22 2.9251489e-35)
(0.075160286 0 -1.1969109e-37)
(0.075160418 4.2011701e-22 4.2011701e-22)
(0.075160876 4.1755115e-22 4.1755115e-22)
(0.075161951 -4.1414767e-22 -4.1414767e-22)
(0.075161688 1.1762281e-37 4.1384846e-22)
(0.075158967 -1.7814438e-37 -4.1785987e-22)
(0.075158477 1.1812552e-37 2.3625105e-37)
(0.075159925 4.1102306e-22 8.2204611e-22)
(0.075158209 4.1455534e-22 -4.1455534e-22)
(0.075157532 -4.1360271e-22 -4.1360271e-22)
(0.075160318 -8.1342395e-22 -4.0671198e-22)
(0.075160267 4.0756485e-22 -5.6528407e-35)
(0.075156916 -2.0602648e-52 4.1327708e-22)
(0.07515635 4.1055803e-22 0)
(0.075157802 1.1244437e-34 0)
(0.075156139 -8.1876848e-22 -4.0938424e-22)
(0.075155468 0 5.6656017e-35)
(0.075156776 0 -1.1179881e-34)
(0.075155468 8.0934614e-22 -5.6242337e-35)
(0.075153836 -2.2512599e-34 4.0536932e-22)
(0.075153943 -8.0738763e-22 -4.0369382e-22)
(0.075154088 0 5.7264498e-38)
(0.075154625 4.0143316e-22 4.0143316e-22)
(0.075155804 3.9909208e-22 0)
(0.075155625 -3.9911426e-22 0)
(0.075153101 5.7323709e-38 0)
(0.075152491 -5.5700682e-35 0)
(0.07515379 5.6336841e-38 0)
(0.075152341 3.9969719e-22 0)
(0.075150839 -4.0049229e-22 0)
(0.075151192 -3.9821847e-22 -3.9821847e-22)
(0.075151677 0 0)
(0.075153291 3.925778e-22 3.925778e-22)
(0.075153268 -5.45043e-35 0)
(0.075150408 -3.9758926e-22 -3.9758926e-22)
(0.075148605 7.8763927e-22 -1.0924395e-34)
(0.075149364 -1.076063e-34 3.8791601e-22)
(0.075148665 -3.9200651e-22 0)
(0.075148044 -1.0946638e-34 0)
(0.075148115 -7.857056e-22 -3.928528e-22)
(0.075148211 7.8362738e-22 -5.4399432e-35)
(0.075148482 3.8989289e-22 3.8989289e-22)
(0.075147496 -3.9164367e-22 0)
(0.075146708 -5.5683385e-38 0)
(0.075147075 -3.8982517e-22 -3.8982517e-22)
(0.075147592 0 -3.8852913e-22)
(0.07514931 0 3.845667e-22)
(0.075149271 3.8462102e-22 3.8462102e-22)
(0.075146272 -5.4099546e-35 0)
(0.07514572 -7.7595409e-22 -3.8797705e-22)
(0.075147718 5.4311079e-38 5.4311079e-38)
(0.075147108 1.149422e-21 3.8314068e-22)
(0.075145947 -3.821648e-22 -3.821648e-22)
(0.07514605 -3.8069524e-22 -3.8069524e-22)
(0.075144514 7.7165837e-22 3.8582919e-22)
(0.075144251 -3.8489415e-22 3.8489415e-22)
(0.075145198 3.8040913e-22 0)
(0.075143494 7.6838182e-22 -3.8419091e-22)
(0.075143052 -3.8369137e-22 -3.8369137e-22)
(0.075145754 -3.7685928e-22 3.7685928e-22)
(0.075145678 -3.7800595e-22 3.7800595e-22)
(0.075142386 3.8443269e-22 0)
(0.07514187 9.3569689e-52 -3.821017e-22)
(0.075143306 -3.7747753e-22 -3.7747753e-22)
(0.0751416 3.8164267e-22 3.8164267e-22)
(0.075141061 -3.807966e-22 3.807966e-22)
(0.075142435 3.7646812e-22 0)
(0.075140721 1.0547178e-34 0)
(0.075140163 1.0793096e-37 0)
(0.075141531 3.7542422e-22 0)
(0.07513984 -7.5919669e-22 0)
(0.075139212 3.7911991e-22 0)
(0.07514192 1.0334285e-34 0)
(0.075141822 -1.0362305e-34 0)
(0.075138699 -3.8000959e-22 -3.8000959e-22)
(0.075137096 -7.5962027e-22 -3.8350097e-51)
(0.075137505 1.1325058e-21 3.7750192e-22)
(0.075138041 1.044156e-34 0)
(0.075139821 -2.0646838e-34 0)
(0.075139816 1.031679e-34 0)
(0.075136851 -7.5651088e-22 -3.7825544e-22)
(0.075136252 7.5330362e-22 -5.2240831e-35)
(0.07513902 -1.0249684e-34 3.694966e-22)
(0.07513895 -7.4173761e-22 -3.7086881e-22)
(0.075135676 0 5.2437317e-35)
(0.075135169 0 -5.3364949e-38)
(0.075136568 3.7092878e-22 -5.1499771e-35)
(0.075135024 -5.1981177e-35 3.7477973e-22)
(0.075133411 -3.7602596e-22 -3.7602596e-22)
(0.075133632 -3.7410152e-22 3.7410152e-22)
(0.075133932 3.727729e-22 -2.0712918e-34)
(0.075134921 1.1032869e-21 -3.6776231e-22)
(0.075134807 -3.6446971e-22 3.6446971e-22)
(0.075134823 -3.6551215e-22 0)
(0.075134881 -1.0508193e-37 0)
(0.07513257 -3.7580238e-22 -3.7580238e-22)
(0.075132102 0 -5.19051e-35)
(0.075133483 7.3911816e-22 3.6955908e-22)
(0.075131791 7.4822535e-22 -3.7411267e-22)
(0.075131258 -3.7352666e-22 -3.7352666e-22)
(0.075132609 -7.3864567e-22 0)
(0.075130943 -3.7391221e-22 3.7391221e-22)
(0.075130419 7.4673867e-22 3.7336933e-22)
(0.075131745 7.3839366e-22 -3.6919683e-22)
(0.075130118 -7.4762329e-22 -1.0374693e-34)
(0.07512949 -7.4720215e-22 1.6243516e-51)
(0.075132019 0 -5.0888807e-35)
(0.075131942 7.3602499e-22 3.6801249e-22)
(0.075128959 -3.7540948e-22 -3.7540948e-22)
(0.075128464 -7.4723693e-22 -7.4682319e-51)
(0.075129689 3.6910014e-22 -5.1245882e-35)
(0.075128343 3.7332762e-22 -3.7332762e-22)
(0.075126935 -5.3315597e-38 0)
(0.075127028 5.1961481e-35 0)
(0.075127153 3.7400682e-22 3.7400682e-22)
(0.075127502 -3.7258384e-22 5.2947348e-38)
(0.075126758 -3.7543207e-22 -1.5621497e-34)
(0.075126561 3.7397774e-22 3.7397774e-22)
(0.075127183 -5.1312835e-35 0)
(0.07512638 -5.3301319e-38 0)
(0.075126151 -5.2054126e-35 -3.7530569e-22)
(0.07512681 -3.7146445e-22 1.0298992e-34)
(0.075126334 3.7680396e-22 3.7680396e-22)
(0.075125952 -1.5702935e-34 0)
(0.07512617 -5.1768589e-35 0)
(0.075125908 -1.0492985e-34 0)
(0.075125671 -3.8270136e-22 -3.8270136e-22)
(0.075125675 3.8276615e-22 5.4394341e-38)
(0.07512568 -5.3168781e-35 3.8294988e-22)
(0.075125699 -1.0634592e-34 -3.8356889e-22)
(0.075125722 -5.4621694e-38 3.84366e-22)
(0.075125801 -7.7287016e-22 -1.0741516e-34)
(0.075125913 -3.9079697e-22 -7.8159394e-22)
(0.075126097 3.9444542e-22 3.9444542e-22)
(0.075126375 7.9592476e-22 1.6575935e-34)
(0.075126715 -5.5810386e-35 5.5810386e-35)
(0.075127115 -8.1013473e-22 -5.6239573e-35)
(0.075127561 -4.0756111e-22 -4.0756111e-22)
(0.075128034 8.1910948e-22 0)
(0.075128549 4.1127078e-22 0)
(0.075129082 -4.1279374e-22 4.1279374e-22)
(0.07512965 -4.1409498e-22 5.7492968e-35)
(0.075130255 -1.15297e-34 -1.15297e-34)
(0.075130894 4.1673761e-22 -5.9621808e-53)
(0.075131588 0 -4.1805761e-22)
(0.075132332 0 4.1948002e-22)
(0.075133141 4.2093013e-22 4.2093013e-22)
(0.075134024 0 0)
(0.075134985 -4.2408306e-22 -4.2408306e-22)
(0.07513604 4.2579758e-22 -5.9117758e-35)
(0.075137188 6.076957e-38 4.2762783e-22)
(0.075138427 -1.1920459e-34 0)
(0.07513976 0 0)
(0.07514117 -4.3308306e-22 -4.3308306e-22)
(0.075142683 4.3469539e-22 1.2354786e-37)
(0.075144317 4.363612e-22 -8.292377e-53)
(0.075146058 -8.7625713e-22 -4.3812857e-22)
(0.075147889 -4.3991691e-22 4.3991691e-22)
(0.075149681 4.4148847e-22 -6.1170803e-35)
(0.075151372 0 6.1460028e-35)
(0.075153096 0 -1.2311076e-34)
(0.075154896 -4.4440485e-22 -4.4440485e-22)
(0.075156778 1.2367564e-34 4.4516109e-22)
(0.075158724 4.458318e-22 -1.2379862e-34)
(0.075160664 0 1.2406408e-34)
(0.075162446 0 -1.2432212e-34)
(0.075163957 -4.4855217e-22 -4.4855217e-22)
(0.075165164 1.8738017e-34 4.4971716e-22)
(0.075166247 4.511648e-22 -1.2527949e-34)
(0.075167473 0 6.2992897e-35)
(0.075169096 0 0)
(0.07517094 0 -4.5488717e-22)
(0.075172306 0 4.5626214e-22)
(0.07517323 0 -6.3725982e-35)
(0.075174349 0 6.5708031e-38)
(0.075176279 0 -6.4475362e-35)
(0.075178717 0 6.4605699e-35)
(0.07518044 9.3142153e-22 4.6571077e-22)
(0.075181371 2.6005346e-34 -4.6850066e-22)
(0.07518196 -4.7362732e-22 -4.7362732e-22)
(0.075182914 4.7791156e-22 4.7791156e-22)
(0.075184622 -4.7792692e-22 4.7792692e-22)
(0.075186172 4.7668571e-22 0)
(0.075187017 -1.3277758e-34 -4.7767849e-22)
(0.075187617 -4.7972041e-22 -4.7972041e-22)
(0.075188236 -1.347155e-34 0)
(0.075188589 -4.9382034e-22 4.9382034e-22)
(0.075188506 0 -6.8975903e-35)
(0.075188479 0 7.0508056e-38)
(0.075188423 4.9745513e-22 6.8996003e-35)
(0.075188301 1.378914e-34 -4.9658364e-22)
(0.075188171 -4.971291e-22 4.971291e-22)
(0.075187921 0 6.9416225e-35)
(0.075187273 0 -1.3939031e-34)
(0.075186475 0 -5.0453502e-22)
(0.075186691 0 -5.0848593e-22)
(0.075187088 0 1.020872e-21)
(0.075186819 0 -7.241977e-38)
(0.075186387 0 7.0658637e-35)
(0.075185056 1.0271009e-21 5.1355046e-22)
(0.075185454 -4.2885497e-34 -5.1515851e-22)
(0.075188295 -1.0235456e-21 7.105456e-35)
(0.075188948 5.1161938e-22 5.1161938e-22)
(0.075188298 7.2437627e-38 0)
(0.075187547 5.0533507e-22 0)
(0.075187232 -2.8176721e-34 0)
(0.075188693 -1.02664e-21 -5.1332001e-22)
(0.075189821 -5.1729927e-22 -5.1729927e-22)
(0.075188749 7.5130238e-53 5.20635e-22)
(0.075187117 1.5699468e-21 5.2331561e-22)
(0.075187197 0 0)
(0.07518963 -1.0430323e-21 -5.2151613e-22)
(0.075190931 0 -5.2167534e-22)
(0.075190202 0 5.2034345e-22)
(0.075189276 1.0306475e-21 5.1532373e-22)
(0.075188999 -1.4361269e-34 0)
(0.075190406 -1.5694445e-21 -5.2314815e-22)
(0.075191531 5.2683804e-22 -5.2683804e-22)
(0.075190943 5.2508624e-22 5.2508624e-22)
(0.075190226 -5.2016119e-22 1.4443841e-34)
(0.075189566 5.2535731e-22 -5.2535731e-22)
(0.075190751 -5.3645668e-22 0)
(0.07519323 -1.5081284e-34 0)
(0.075192993 5.4712015e-22 0)
(0.075192462 -5.506528e-22 0)
(0.075192479 0 5.5238873e-22)
(0.075192478 -5.4831831e-22 -1.5210124e-34)
(0.075192475 5.4338922e-22 -5.4338922e-22)
(0.075191731 1.0796104e-21 5.3980519e-22)
(0.075191153 -5.3837384e-22 7.4747851e-35)
(0.075192227 -5.4111763e-22 -7.5205696e-35)
(0.075193519 -5.4357558e-22 -3.1107442e-53)
(0.075193363 -5.4304016e-22 5.4304016e-22)
(0.075193349 1.0853735e-21 5.4268676e-22)
(0.075193298 5.4234911e-22 -1.0846982e-21)
(0.07519324 -5.4209944e-22 -7.5265113e-35)
(0.075193075 0 7.5142445e-35)
(0.075192754 5.3883533e-22 -5.3883533e-22)
(0.075192392 -5.373545e-22 0)
(0.075191418 -5.3952578e-22 5.3952578e-22)
(0.07519026 1.6349284e-21 5.4497613e-22)
(0.075191718 1.5592445e-37 -5.4861038e-22)
(0.075195472 -1.0962978e-21 -1.5205425e-34)
(0.075195947 5.5114638e-22 5.5114638e-22)
(0.075195173 7.6923093e-35 0)
(0.07519508 5.5332425e-22 0)
(0.075194726 -1.5697558e-37 -5.5230871e-22)
(0.075194379 -1.1011079e-21 7.6360697e-35)
(0.075193176 5.4957509e-22 5.4957509e-22)
(0.075192511 0 0)
(0.075193886 -1.5349775e-34 -5.5278628e-22)
(0.075194783 -7.8906604e-38 7.8906604e-38)
(0.075194428 -5.5586345e-22 -1.5435222e-34)
(0.075194412 5.556882e-22 -7.707281e-35)
(0.075194352 -1.5434091e-34 5.5582271e-22)
(0.075194285 -7.7109874e-35 -5.5595543e-22)
(0.075194066 -7.8920827e-38 7.8920827e-38)
(0.075193764 -5.5366401e-22 -1.5374148e-34)
(0.075193162 5.5288598e-22 -5.5288598e-22)
(0.07519209 3.9749021e-52 5.4899202e-22)
(0.075189992 -1.51014e-34 1.51014e-34)
(0.075189655 -7.757285e-38 7.757285e-38)
(0.075192325 -1.103514e-21 -7.6605972e-35)
(0.075194234 -7.7167769e-35 -5.5637285e-22)
(0.07519383 5.5750815e-22 5.5750815e-22)
(0.075193767 0 0)
(0.075193544 0 -3.086947e-34)
(0.075193265 -5.5449817e-22 -7.6907755e-35)
(0.07519274 -2.3011137e-34 -2.3011137e-34)
(0.075191376 5.5021761e-22 -7.8190625e-38)
(0.075190686 -5.5042659e-22 -5.5042659e-22)
(0.075191882 7.6885287e-35 5.5376879e-22)
(0.075193018 -4.0178436e-52 -4.0178436e-52)
(0.075192671 -7.7303716e-35 -7.7303716e-35)
(0.075192642 5.5662143e-22 1.5456269e-34)
(0.075192531 5.5658457e-22 -7.727623e-35)
(0.075192405 7.7197686e-35 1.1131771e-21)
(0.075191989 -5.557165e-22 -5.557165e-22)
(0.075191371 0 -5.5331517e-22)
(0.075190163 0 -7.6124336e-35)
(0.075187405 5.4241844e-22 7.5309403e-35)
(0.075187236 -5.4306287e-22 1.0861257e-21)
(0.075190358 4.5661909e-34 -5.4850993e-22)
(0.075191261 5.5198008e-22 -5.5198008e-22)
(0.07519068 -5.5180995e-22 1.2082096e-52)
(0.075190545 0 0)
(0.075190074 5.4999184e-22 1.2537887e-52)
(0.075189428 5.4360465e-22 -5.4360465e-22)
(0.075188173 -5.3888708e-22 5.3888708e-22)
(0.075187957 -5.4799342e-22 -8.4803809e-52)
(0.075188062 0 -7.7630015e-35)
(0.075187916 5.5895146e-22 -7.943178e-38)
(0.075187615 5.5649693e-22 -5.5649693e-22)
(0.075186534 -1.1152879e-21 1.1152879e-21)
(0.075187085 -5.5566054e-22 1.5429587e-34)
(0.075188137 5.5384256e-22 -5.5384256e-22)
(0.075188078 5.5310892e-22 7.6715069e-35)
(0.075187987 7.6403073e-35 -7.6403073e-35)
(0.075187572 5.4502736e-22 5.4502736e-22)
(0.075187081 1.4888715e-34 -5.3618228e-22)
(0.075185931 -1.0642059e-21 1.6057936e-52)
(0.075185191 0 -2.2520756e-34)
(0.075185713 0 1.5408613e-34)
(0.075185522 0 -1.5394535e-34)
(0.075185636 5.4244571e-22 -1.5062638e-34)
(0.075185641 5.4059815e-22 -4.2245923e-52)
(0.075185575 0 0)
(0.075185367 -5.4505545e-22 5.4505545e-22)
(0.075184964 -7.4879579e-35 0)
(0.075183299 5.3361162e-22 0)
(0.075183062 0 -5.2947067e-22)
(0.075185616 0 -1.4759814e-34)
(0.075186421 -5.3406784e-22 5.3406784e-22)
(0.075185754 -7.4023682e-35 0)
(0.075185715 7.3799373e-35 0)
(0.075185571 -5.3106484e-22 -1.0621297e-21)
(0.075185403 5.2872369e-22 -4.401476e-34)
(0.075184976 -2.1921207e-34 1.0536665e-21)
(0.07518428 -5.2049769e-22 -5.2049769e-22)
(0.075183253 0 7.2427267e-38)
(0.07518298 -5.0544906e-22 -7.0176573e-35)
(0.075182804 -7.0795709e-35 -5.0990841e-22)
(0.075182359 5.1507207e-22 0)
(0.075181975 -5.1793911e-22 0)
(0.075179837 5.1741261e-22 0)
(0.075179576 5.1606795e-22 -5.1606795e-22)
(0.075182444 -5.1853126e-22 -1.4383844e-34)
(0.075183355 0 5.2159677e-22)
(0.075182663 5.2163445e-22 0)
(0.075182626 5.2007432e-22 0)
(0.075182486 -5.1680634e-22 -5.1680634e-22)
(0.075182347 -5.1271169e-22 7.2860713e-38)
(0.075182001 0 5.0806494e-22)
(0.075181587 -5.0095038e-22 0)
(0.075181152 4.9767241e-22 0)
(0.07518063 4.9896896e-22 -4.9896896e-22)
(0.075179882 -4.9905398e-22 -1.3843552e-34)
(0.075179038 -1.000954e-21 -1.3904363e-34)
(0.075177464 2.7711639e-34 1.3855819e-34)
(0.075174507 1.4816832e-21 4.9389441e-22)
(0.075174461 -3.5004594e-52 -4.9552771e-22)
(0.075178062 -5.0226652e-22 1.3939804e-34)
(0.075179901 -1.0142971e-21 -1.4075299e-34)
(0.075179192 2.8110967e-34 1.4055484e-34)
(0.075178935 1.00917e-21 5.0458501e-22)
(0.075178127 -5.0130754e-22 0)
(0.075176779 4.9598067e-22 0)
(0.075176376 -4.9717806e-22 -4.9717806e-22)
(0.075177153 -5.0105337e-22 1.0593093e-51)
(0.075177232 1.003265e-21 5.0163252e-22)
(0.075177098 0 0)
(0.07517697 0 0)
(0.075176489 -1.0043996e-21 -5.0219979e-22)
(0.075175908 7.2849709e-53 1.4569942e-52)
(0.075176334 1.0076142e-21 5.0380711e-22)
(0.075176856 0 0)
(0.075176521 0 0)
(0.075176308 -9.9508688e-22 -4.9754344e-22)
(0.075175535 -5.0342702e-51 -1.006854e-50)
(0.075174791 9.6161211e-22 4.8080605e-22)
(0.075174656 0 0)
(0.075174333 0 0)
(0.075174267 -9.6831767e-22 -4.8415883e-22)
(0.075174122 -4.8446927e-22 6.8847224e-38)
(0.075173961 9.6896183e-22 4.8448092e-22)
(0.075173654 4.8465225e-22 -4.8465225e-22)
(0.075173282 0 1.3428462e-34)
(0.075172558 -9.6253666e-22 -1.3370703e-34)
(0.075172392 2.6780907e-34 1.3390454e-34)
(0.075171914 9.7231965e-22 4.8615983e-22)
(0.075171369 -4.9002748e-22 0)
(0.075172699 0 0)
(0.075173816 4.9417647e-22 0)
(0.075173281 -4.9348159e-22 0)
(0.075173033 6.9884597e-38 0)
(0.075172239 4.8805063e-22 -4.8805063e-22)
(0.075171076 -4.8306018e-22 1.3406755e-34)
(0.075170743 4.9203427e-22 4.9203427e-22)
(0.075170981 5.0895345e-22 0)
(0.0751708 -5.1571672e-22 0)
(0.075170827 -5.1521967e-22 0)
(0.07517082 1.4270293e-34 0)
(0.075170796 5.0942439e-22 0)
(0.075170306 -4.950017e-22 0)
(0.075169632 -1.3366388e-34 0)
(0.075169492 4.8164776e-22 -4.8164776e-22)
(0.075168993 -4.8396861e-22 2.6863935e-34)
(0.075168956 4.8362479e-22 4.8362479e-22)
(0.075168839 4.842154e-22 0)
(0.075168676 -4.8462057e-22 0)
(0.075168381 -4.8423027e-22 0)
(0.075167484 1.337716e-34 0)
(0.075167008 4.8779694e-22 0)
(0.075167036 -5.016969e-22 0)
(0.075166766 7.1297342e-38 0)
(0.075166916 4.8950067e-22 -4.8950067e-22)
(0.075166917 -4.8989627e-22 1.3596483e-34)
(0.075166891 4.9615073e-22 4.9615073e-22)
(0.075166301 4.8957462e-22 0)
(0.075166182 -4.8358022e-22 0)
(0.07516769 -9.7101776e-22 -4.8550888e-22)
(0.075167861 2.7076734e-34 1.3538367e-34)
(0.07516736 9.7265503e-22 4.8632752e-22)
(0.075167054 -4.8312909e-22 0)
(0.075166022 6.7538102e-38 0)
(0.075165355 9.3400534e-22 0)
(0.07516513 1.3299637e-37 -4.6793936e-22)
(0.075164618 -4.7144093e-22 -1.3097676e-34)
(0.075164178 0 4.7142362e-22)
(0.075162859 4.7229155e-22 0)
(0.075162651 0 0)
(0.075164546 -4.7982004e-22 0)
(0.075165401 0 0)
(0.075164952 0 0)
(0.075164796 0 0)
(0.075164267 -4.718947e-22 0)
(0.075163886 -1.3775233e-52 -4.6572725e-22)
(0.075163425 4.6563143e-22 6.6170205e-38)
(0.07516245 0 4.6503182e-22)
(0.075161999 4.6470563e-22 0)
(0.075161014 -1.2881449e-34 0)
(0.075159359 -4.6037768e-22 0)
(0.075159244 0 0)
(0.075160598 0 0)
(0.075160589 0 0)
(0.075160592 -4.9141893e-22 0)
(0.075160427 1.3415925e-34 -4.831432e-22)
(0.075160136 4.7631054e-22 -6.7687798e-38)
(0.07516144 0 4.7220336e-22)
(0.075161846 4.7108808e-22 0)
(0.075161271 1.3060822e-34 0)
(0.07516072 -4.6771255e-22 0)
(0.075158685 0 -4.6488349e-22)
(0.075158403 4.6463229e-22 2.5797226e-34)
(0.075160375 -4.6680415e-22 4.6680415e-22)
(0.075160692 2.6048405e-34 0)
(0.075160498 4.6885616e-22 -4.6885616e-22)
(0.075160431 -4.6785807e-22 -1.2998136e-34)
(0.075160174 0 4.6631314e-22)
(0.075159914 -4.6385589e-22 0)
(0.075159001 -1.2829703e-34 0)
(0.075158261 4.618898e-22 -4.618898e-22)
(0.075159008 0 -4.6250163e-22)
(0.075159242 4.628241e-22 4.628241e-22)
(0.075158856 -4.6153323e-22 4.6153323e-22)
(0.075158732 -2.5488629e-34 0)
(0.075158285 4.538469e-22 0)
(0.075158018 -2.4954612e-34 0)
(0.075157556 -6.367496e-38 0)
(0.075156678 1.2337668e-34 4.4408501e-22)
(0.075156212 -6.2884708e-38 -6.2884708e-38)
(0.075155179 -4.4143889e-22 -8.8287778e-22)
(0.075153504 0 -4.3730016e-22)
(0.07515319 4.4572089e-22 8.9144178e-22)
(0.075154281 -1.2736241e-34 9.1780165e-22)
(0.075154189 -1.273532e-34 -4.5886761e-22)
(0.075154013 -9.5797326e-53 -4.5628578e-22)
(0.0751532 -1.2681006e-34 0)
(0.075150568 0 0)
(0.075150888 -9.0119987e-22 0)
(0.075154744 -1.2320865e-34 0)
(0.075156206 4.4160225e-22 -4.4160225e-22)
(0.075155484 -4.4149487e-22 -1.2265708e-34)
(0.075155033 1.2159216e-34 4.3810998e-22)
(0.075153312 4.3435432e-22 0)
(0.075152717 4.3232267e-22 0)
(0.0751545 1.2024569e-34 0)
(0.075155169 -1.2059368e-34 0)
(0.075154719 4.3271787e-22 0)
(0.075154356 -4.286095e-22 0)
(0.075153071 -4.1884825e-22 0)
(0.075152562 0 0)
(0.075152331 -4.1895303e-22 0)
(0.075151554 1.2116182e-34 0)