/*--------------------------------*- C++ -*----------------------------------*\
  =========                 |
  \\      /  F ield         | OpenFOAM: The Open Source CFD Toolbox
   \\    /   O peration     | Website:  https://openfoam.org
    \\  /    A nd           | Version:  8
     \\/     M anipulation  |
\*---------------------------------------------------------------------------*/
FoamFile
{
    version     2.0;
    format      ascii;
    class       surfaceScalarField;
    location    "600";
    object      phi;
}
// * * * * * * * * * * * * * * * * * * * * * * * * * * * * * * * * * * * * * //

dimensions      [0 3 -1 0 0 0 0];

internalField   nonuniform List<scalar> 
246320
(
-2.7944274e-05
-4.6656667e-07
6.0304612e-06
-2.9021856e-05
-1.9791317e-06
2.9524626e-06
-2.7835617e-05
-1.3689257e-06
5.9147173e-08
-2.5183031e-05
-6.3102045e-07
-2.1037612e-06
-1.8339234e-05
-5.1501765e-07
-6.3847106e-06
-4.5095783e-06
-1.3832094e-05
-1.0275102e-05
-1.2029633e-06
1.1484299e-05
-3.0301252e-05
-2.6947707e-06
2.2216996e-05
-3.7423387e-05
-3.0018268e-06
8.0612538e-06
-3.8832233e-05
-3.7515857e-06
3.717851e-06
-3.736099e-05
-3.4602106e-06
1.308188e-06
-3.2222816e-05
-2.736013e-06
-2.9481009e-06
-1.6079573e-05
-1.7597268e-06
-1.8914262e-05
-1.7892079e-06
-1.4215339e-05
-1.3856771e-05
-4.2023651e-06
1.6939309e-05
-2.285468e-05
-7.9050978e-06
1.4187999e-05
-2.7669578e-05
-8.6758345e-06
1.0445672e-05
-3.0296686e-05
-9.0690755e-06
7.9039012e-06
-3.0772149e-05
-8.9143603e-06
5.9192329e-06
-2.7998757e-05
-8.2163566e-06
2.7094755e-06
-1.9309426e-05
-6.8771098e-06
-3.4821844e-06
-4.5807641e-06
-1.6502987e-05
-2.4492024e-05
-4.1002754e-06
2.4513734e-05
-3.566367e-05
-9.5361971e-06
1.2812043e-05
-4.041912e-05
-1.0676553e-05
6.7402588e-06
-4.2260372e-05
-1.0773384e-05
3.5545454e-06
-4.1938336e-05
-1.0407465e-05
1.186747e-06
-3.7950588e-05
-9.7203669e-06
-2.4454042e-06
-2.715452e-05
-7.8543568e-06
-9.7742923e-06
-4.4091708e-06
-2.7179845e-05
-3.0202153e-05
-2.9959955e-06
2.9184684e-05
-4.4333611e-05
-7.7263271e-06
1.2331677e-05
-4.9562018e-05
-9.3033654e-06
3.855485e-06
-5.0612041e-05
-9.5897111e-06
-1.3259451e-07
-4.9026246e-05
-9.2505611e-06
-2.7059527e-06
-4.3954936e-05
-8.4859383e-06
-6.262358e-06
-3.143945e-05
-6.6394321e-06
-1.3652529e-05
-3.2285725e-06
-3.2615927e-05
-2.9765851e-05
-2.1957192e-06
2.9060686e-05
-4.3930185e-05
-5.9320525e-06
1.2373157e-05
-4.9208573e-05
-7.6130689e-06
3.5730665e-06
-5.0349921e-05
-7.9600459e-06
-4.7444836e-07
-4.8948666e-05
-7.7028585e-06
-2.9199773e-06
-4.3993787e-05
-7.1005701e-06
-6.2895085e-06
-3.1574327e-05
-5.4900088e-06
-1.3517337e-05
-2.5546182e-06
-3.2129441e-05
-2.8236354e-05
-1.784413e-06
2.7904605e-05
-4.1955108e-05
-4.910448e-06
1.2695386e-05
-4.7374423e-05
-6.4869701e-06
4.2908213e-06
-4.873025e-05
-6.8923407e-06
2.9022823e-07
-4.752135e-05
-6.7034212e-06
-2.176834e-06
-4.2872649e-05
-6.1761543e-06
-5.5306553e-06
-3.0851654e-05
-4.7555541e-06
-1.2691107e-05
-2.237798e-06
-3.1174733e-05
-2.6530982e-05
-1.8591709e-06
2.6694029e-05
-3.9686992e-05
-4.8505231e-06
1.3100203e-05
-4.5184049e-05
-6.2851928e-06
5.2786162e-06
-4.6813365e-05
-6.6624843e-06
1.4093838e-06
-4.5891096e-05
-6.5015132e-06
-1.1041871e-06
-4.153194e-05
-5.9754855e-06
-4.5362458e-06
-2.9953634e-05
-4.6290253e-06
-1.1683661e-05
-2.2096696e-06
-2.9894414e-05
-2.5544174e-05
-2.2769977e-06
2.6032956e-05
-3.8288054e-05
-5.5377686e-06
1.3425133e-05
-4.3774724e-05
-6.8512494e-06
6.0535762e-06
-4.5536645e-05
-7.1804369e-06
2.2776378e-06
-4.4765078e-05
-7.0118935e-06
-2.5824589e-07
-4.0561856e-05
-6.4354176e-06
-3.7445636e-06
-2.9256981e-05
-5.029285e-06
-1.088576e-05
-2.5138004e-06
-2.8980286e-05
-2.5991837e-05
-2.6518817e-06
2.6438169e-05
-3.879366e-05
-6.3135935e-06
1.3580937e-05
-4.4233163e-05
-7.6104086e-06
6.1797621e-06
-4.5917542e-05
-7.9066516e-06
2.400431e-06
-4.5078933e-05
-7.7142918e-06
-1.5441781e-07
-4.0784437e-05
-7.0734472e-06
-3.681916e-06
-2.93863e-05
-5.5511877e-06
-1.089446e-05
-2.8174144e-06
-2.9022862e-05
-2.7353527e-05
-2.7765982e-06
2.7531709e-05
-4.0620821e-05
-6.674841e-06
1.3617685e-05
-4.6051996e-05
-8.0146391e-06
5.8253811e-06
-4.7576862e-05
-8.3165599e-06
1.9097355e-06
-4.6544697e-05
-8.0962109e-06
-6.7934129e-07
-4.1999744e-05
-7.4250505e-06
-4.2284648e-06
-3.018592e-05
-5.8229613e-06
-1.1554372e-05
-2.9612687e-06
-3.0092439e-05
-2.8672206e-05
-2.6686534e-06
2.8613136e-05
-4.2482587e-05
-6.5639329e-06
1.3697219e-05
-4.7984635e-05
-7.9673748e-06
5.4271996e-06
-4.9399238e-05
-8.2882283e-06
1.3576466e-06
-4.8200321e-05
-8.051377e-06
-1.2826529e-06
-4.3421692e-05
-7.3823052e-06
-4.867659e-06
-3.1188173e-05
-5.7713339e-06
-1.2322369e-05
-2.8738287e-06
-3.1239544e-05
-2.9463695e-05
-2.4837595e-06
2.9315757e-05
-4.3678686e-05
-6.2270032e-06
1.3865512e-05
-4.9284189e-05
-7.6715069e-06
5.2846942e-06
-5.0681402e-05
-8.0167655e-06
1.0860856e-06
-4.9396337e-05
-7.7819664e-06
-1.6000958e-06
-4.4468981e-05
-7.136662e-06
-5.223197e-06
-3.1921399e-05
-5.5618654e-06
-1.2782351e-05
-2.7447755e-06
-3.2108975e-05
-2.9718624e-05
-2.3503519e-06
2.9615589e-05
-4.4160131e-05
-5.926174e-06
1.4121917e-05
-4.9887593e-05
-7.3825743e-06
5.4015846e-06
-5.1340984e-05
-7.7380998e-06
1.1314599e-06
-5.005252e-05
-7.5154872e-06
-1.6053785e-06
-4.506623e-05
-6.8907362e-06
-5.277823e-06
-3.2375354e-05
-5.3634673e-06
-1.2923716e-05
-2.6232995e-06
-3.2473659e-05
-2.9662681e-05
-2.3429736e-06
2.9670387e-05
-4.4190472e-05
-5.8158777e-06
1.4394521e-05
-5.0029799e-05
-7.2627375e-06
5.6790665e-06
-5.1571794e-05
-7.616509e-06
1.3739907e-06
-5.0318583e-05
-7.4059579e-06
-1.4069356e-06
-4.5318684e-05
-6.7967637e-06
-5.1324833e-06
-3.2560556e-05
-5.2989979e-06
-1.283876e-05
-2.6193012e-06
-3.2608075e-05
-2.9584298e-05
-2.4463179e-06
2.9701506e-05
-4.4146177e-05
-5.9186291e-06
1.4629893e-05
-5.0077664e-05
-7.3381951e-06
5.962134e-06
-5.1702702e-05
-7.6769572e-06
1.6392784e-06
-5.0492045e-05
-7.4743324e-06
-1.1853552e-06
-4.5491094e-05
-6.8672628e-06
-4.9637594e-06
-3.2705733e-05
-5.3731028e-06
-1.2735468e-05
-2.6830642e-06
-3.2625003e-05
-2.973733e-05
-2.6021643e-06
2.9890817e-05
-4.4349139e-05
-6.1283475e-06
1.4793436e-05
-5.0344715e-05
-7.5110873e-06
6.125085e-06
-5.2012717e-05
-7.8303197e-06
1.7769333e-06
-5.0810403e-05
-7.6327956e-06
-1.0835759e-06
-4.577881e-05
-7.0288476e-06
-4.9047016e-06
-3.2905876e-05
-5.5221205e-06
-1.2739205e-05
-2.8050802e-06
-3.2821942e-05
-3.0236426e-05
-2.7103061e-06
3.0348208e-05
-4.4992023e-05
-6.2891222e-06
1.4883109e-05
-5.1032927e-05
-7.6204955e-06
6.1104027e-06
-5.2698268e-05
-7.9192036e-06
1.7129292e-06
-5.1463432e-05
-7.7213734e-06
-1.1856638e-06
-4.6358305e-05
-7.1212209e-06
-5.0457412e-06
-3.3326086e-05
-5.6128056e-06
-1.2970803e-05
-2.8715097e-06
-3.3255011e-05
-3.1020376e-05
-2.7084376e-06
3.1010218e-05
-4.6009042e-05
-6.2547974e-06
1.4929689e-05
-5.2090425e-05
-7.5271642e-06
5.9534539e-06
-5.3714982e-05
-7.8062662e-06
1.4748448e-06
-5.2408622e-05
-7.6052039e-06
-1.4576923e-06
-4.7189761e-05
-7.0222657e-06
-5.3520786e-06
-3.3905022e-05
-5.5417087e-06
-1.3377791e-05
-2.8481993e-06
-3.3968796e-05
-3.1890731e-05
-2.5662723e-06
3.1745435e-05
-4.7171621e-05
-5.9650775e-06
1.4964487e-05
-5.3298952e-05
-7.1683225e-06
5.7380946e-06
-5.4873143e-05
-7.4279898e-06
1.1644957e-06
-5.348538e-05
-7.224293e-06
-1.8014976e-06
-4.8144329e-05
-6.6680611e-06
-5.7256602e-06
-3.4587812e-05
-5.2563223e-06
-1.3873089e-05
-2.6822768e-06
-3.4755809e-05
-3.264849e-05
-2.3183378e-06
3.2388862e-05
-4.8207665e-05
-5.4495498e-06
1.5023331e-05
-5.4385495e-05
-6.576566e-06
5.5607178e-06
-5.5918809e-05
-6.8168765e-06
8.9434192e-07
-5.4457499e-05
-6.6155125e-06
-2.0984031e-06
-4.9008758e-05
-6.100651e-06
-6.0472709e-06
-3.5194307e-05
-4.7958015e-06
-1.4296752e-05
-2.4296131e-06
-3.5485456e-05
-3.3156948e-05
-2.0105118e-06
3.2842685e-05
-4.8940814e-05
-4.7999252e-06
1.5113575e-05
-5.5172581e-05
-5.8411564e-06
5.4737646e-06
-5.6690095e-05
-6.0614743e-06
7.378702e-07
-5.5185028e-05
-5.8708193e-06
-2.2779935e-06
-4.966204e-05
-5.4018948e-06
-6.2491991e-06
-3.5668618e-05
-4.2315883e-06
-1.458651e-05
-2.1141367e-06
-3.5988794e-05
-3.3378691e-05
-1.6987682e-06
3.3057373e-05
-4.9299298e-05
-4.1182663e-06
1.522437e-05
-5.5581797e-05
-5.0681922e-06
5.4910315e-06
-5.7109329e-05
-5.2708654e-06
7.1432037e-07
-5.5589583e-05
-5.0973459e-06
-2.3183353e-06
-5.0030314e-05
-4.6808851e-06
-6.3078627e-06
-3.5930323e-05
-3.6520589e-06
-1.4698691e-05
-1.8055232e-06
-3.6270376e-05
-3.333934e-05
-1.4223744e-06
3.3058712e-05
-4.9310704e-05
-3.499065e-06
1.5337767e-05
-5.5640219e-05
-4.354593e-06
5.5991304e-06
-5.7199724e-05
-4.539663e-06
8.0867925e-07
-5.5696278e-05
-4.3851215e-06
-2.2389946e-06
-5.0137256e-05
-4.0172462e-06
-6.2445955e-06
-3.6016843e-05
-3.1245431e-06
-1.4670157e-05
-1.5244747e-06
-3.6303373e-05
-3.3100949e-05
-1.2222399e-06
3.289484e-05
-4.90451e-05
-3.0174728e-06
1.5452337e-05
-5.5414616e-05
-3.7790868e-06
5.7804409e-06
-5.7022325e-05
-3.9437646e-06
9.9497586e-07
-5.5555638e-05
-3.8046714e-06
-2.0654288e-06
-5.0026821e-05
-3.4812685e-06
-6.0841951e-06
-3.5939037e-05
-2.7051309e-06
-1.4521178e-05
-1.3158675e-06
-3.617062e-05
-3.2771165e-05
-1.1205326e-06
3.2666742e-05
-4.8646698e-05
-2.7182925e-06
1.5565914e-05
-5.5052543e-05
-3.38078e-06
5.9952703e-06
-5.6717078e-05
-3.5160796e-06
1.2233256e-06
-5.5300335e-05
-3.3872958e-06
-1.8493846e-06
-4.9817557e-05
-3.0977132e-06
-5.8808437e-06
-3.579763e-05
-2.4138197e-06
-1.4326466e-05
-1.17892e-06
-3.5940022e-05
-3.2517206e-05
-1.1088529e-06
3.250143e-05
-4.8333901e-05
-2.5806668e-06
1.5670724e-05
-5.4771923e-05
-3.1348293e-06
6.1816902e-06
-5.6483474e-05
-3.2332097e-06
1.4170681e-06
-5.5105721e-05
-3.1082353e-06
-1.6690509e-06
-4.9657388e-05
-2.845974e-06
-5.712303e-06
-3.5682672e-05
-2.2345921e-06
-1.4164116e-05
-1.1153283e-06
-3.5761956e-05
-3.2532832e-05
-1.1334524e-06
3.2555236e-05
-4.8370517e-05
-2.5089906e-06
1.5757123e-05
-5.4838824e-05
-2.9424266e-06
6.265638e-06
-5.656936e-05
-2.9976333e-06
1.4844092e-06
-5.5198764e-05
-2.8726528e-06
-1.6170282e-06
-4.9746802e-05
-2.6358982e-06
-5.6729122e-06
-3.5746891e-05
-2.0938831e-06
-1.415182e-05
-1.0748052e-06
-3.5792703e-05
-3.2942947e-05
-1.1141238e-06
3.2920134e-05
-4.892748e-05
-2.3494465e-06
1.5816614e-05
-5.5426576e-05
-2.6512528e-06
6.1979843e-06
-5.713355e-05
-2.6640804e-06
1.3632227e-06
-5.5720554e-05
-2.5415217e-06
-1.7548288e-06
-5.0205902e-05
-2.3388034e-06
-5.8225355e-06
-3.6066916e-05
-1.8843331e-06
-1.4358242e-05
-9.9713528e-07
-3.6156955e-05
-3.3729603e-05
-9.7168342e-07
3.3584532e-05
-4.999404e-05
-1.9507323e-06
1.5856788e-05
-5.6531952e-05
-2.1075874e-06
5.9840739e-06
-5.8177696e-05
-2.0848566e-06
1.0562564e-06
-5.6675282e-05
-1.9726751e-06
-2.0819679e-06
-5.1043436e-05
-1.8187753e-06
-6.1636297e-06
-3.6659069e-05
-1.4938077e-06
-1.4787071e-05
-8.142312e-07
-3.6848654e-05
-3.4760082e-05
-6.6980213e-07
3.4454626e-05
-5.1394943e-05
-1.219882e-06
1.5895345e-05
-5.7979391e-05
-1.2061836e-06
5.6730197e-06
-5.9538664e-05
-1.160122e-06
6.2444774e-07
-5.7911095e-05
-1.0750364e-06
-2.5364281e-06
-5.2125369e-05
-9.8580851e-07
-6.6311551e-06
-3.74289e-05
-8.4650979e-07
-1.5355374e-05
-4.9412604e-07
-3.7760793e-05
-3.5938225e-05
-1.5044849e-07
3.5415864e-05
-5.2980786e-05
-5.5101672e-08
1.5868926e-05
-5.9611517e-05
1.7170928e-07
5.2429934e-06
-6.1052137e-05
2.0260664e-07
6.7661751e-08
-5.9261951e-05
2.3086316e-07
-3.1073776e-06
-5.3302388e-05
2.4795139e-07
-7.20626e-06
-3.8285144e-05
1.474348e-07
-1.6024221e-05
4.1882372e-10
-3.8787316e-05
-3.7071236e-05
6.3328403e-07
3.6283972e-05
-5.4470767e-05
1.6419176e-06
1.5694267e-05
-6.1105743e-05
2.1285347e-06
4.6686035e-06
-6.2466869e-05
2.1505418e-06
-5.9674731e-07
-6.0565187e-05
2.0796312e-06
-3.7617489e-06
-5.4423252e-05
1.9771503e-06
-7.8841426e-06
-3.9099006e-05
1.5759045e-06
-1.6764466e-05
7.3714894e-07
-3.9846387e-05
-3.8012523e-05
1.7189365e-06
3.6923939e-05
-5.5716709e-05
3.9405717e-06
1.5397552e-05
-6.2290105e-05
4.6562933e-06
4.0365079e-06
-6.3549851e-05
4.6638973e-06
-1.2633105e-06
-6.1554077e-05
4.4630525e-06
-4.390419e-06
-5.5240631e-05
4.1853627e-06
-8.5339467e-06
-3.9681294e-05
3.4534915e-06
-1.7449017e-05
1.7671414e-06
-4.0718475e-05
-3.8402942e-05
3.1546687e-06
3.6964507e-05
-5.6222639e-05
6.6351391e-06
1.5117805e-05
-6.2642773e-05
7.2687909e-06
3.7988156e-06
-6.3777495e-05
7.201033e-06
-1.4122211e-06
-6.1712016e-05
6.893296e-06
-4.5066951e-06
-5.5273726e-05
6.4102959e-06
-8.6759517e-06
-3.9621162e-05
5.4073915e-06
-1.7617174e-05
3.0778754e-06
-4.0940096e-05
-3.624801e-05
3.7189308e-06
3.5680977e-05
-5.3276388e-05
7.5630129e-06
1.6093557e-05
-5.9498907e-05
7.5128397e-06
5.9697383e-06
-6.0652293e-05
7.1647045e-06
1.1799569e-06
-5.8596841e-05
6.6710282e-06
-1.8447161e-06
-5.232349e-05
6.1535742e-06
-6.0290959e-06
-3.7319342e-05
5.2860676e-06
-1.4892555e-05
3.6193708e-06
-3.7873393e-05
-2.2878891e-05
2.6595856e-05
-3.3164855e-05
1.7844671e-05
-3.8329721e-05
1.2672952e-05
-4.0773119e-05
9.6028913e-06
-4.1211997e-05
7.1037397e-06
-3.8256071e-05
3.191899e-06
-2.8070306e-05
-4.9095726e-06
-2.4457139e-05
-1.9767636e-05
2.860179e-06
1.6703013e-05
-2.5701044e-05
-4.7052837e-06
1.046069e-05
-2.7075509e-05
-5.1877376e-06
6.3952024e-06
-2.5541447e-05
-4.780065e-06
3.1200246e-06
-1.9839379e-05
-4.5988504e-06
-1.1950789e-06
-9.8974923e-06
-9.9808076e-06
-1.6079414e-05
1.9321923e-06
1.3992901e-05
-2.6695348e-05
-3.5026243e-06
1.419157e-05
-3.8398557e-05
-2.2204739e-06
1.3671631e-05
-5.4226648e-05
-7.766515e-06
2.6413804e-05
-6.0762216e-05
-3.6015613e-06
5.3070447e-06
-6.1598188e-05
-3.9784848e-06
-5.0586618e-07
-5.9478883e-05
-3.0569697e-06
-3.9227816e-06
-5.4214424e-05
-1.5011731e-06
-8.4207471e-06
-4.2066968e-05
3.7688946e-06
-2.5790709e-05
-2.9917167e-05
-2.3156247e-06
-9.867761e-06
-1.8937988e-05
-4.6088942e-07
-1.0472387e-05
-5.5578202e-06
-1.3366232e-05
-1.6704683e-05
3.7070055e-06
1.3030798e-05
-3.9926139e-05
1.4488562e-07
2.5040567e-05
-5.936766e-05
1.8874252e-06
1.3897514e-05
-6.3458012e-05
-1.0298303e-05
1.2232695e-05
-8.0309848e-05
3.1997373e-06
1.1875474e-05
-8.4420193e-05
-2.3828711e-06
5.7395707e-06
-8.511328e-05
-3.0339618e-06
-2.7885829e-07
-8.3162069e-05
-2.6662117e-06
-4.5180423e-06
-7.8750974e-05
-2.6276611e-06
-9.691201e-06
-6.331375e-05
-9.4727801e-06
-1.6071954e-05
-5.7795884e-05
8.5806071e-06
-1.6300972e-05
-4.1595309e-05
-8.4431317e-07
-1.579525e-05
-2.0529507e-05
6.9616556e-07
-2.7255226e-05
-3.9409982e-06
-1.6558971e-05
-6.9127621e-06
-1.0668579e-06
8.2211107e-06
-2.5415363e-05
-1.6515421e-06
2.3921056e-05
-4.1683145e-05
-1.1631019e-06
1.7527894e-05
-5.8699269e-05
-1.1505862e-06
2.0088487e-05
-7.2861522e-05
-4.8691164e-06
2.0271691e-05
-6.1102771e-05
-4.4800371e-06
1.81105e-05
-6.2917955e-05
-3.6022862e-06
1.1048498e-05
-6.3683212e-05
-3.8238009e-06
5.209835e-06
-6.2604276e-05
-3.2996056e-06
8.2925744e-07
-6.081134e-05
-2.9677111e-06
-4.4238158e-06
-7.4517701e-05
-3.3767657e-06
-1.1239363e-05
-6.306393e-05
-3.5729256e-06
-1.3500151e-05
-4.7678429e-05
-3.9736986e-06
-1.2113078e-05
-3.4271777e-05
-2.5111384e-06
-1.0136449e-05
-1.4770553e-05
-1.7808374e-06
-2.1567655e-05
-1.6758236e-06
-1.3028273e-05
-1.048767e-05
-3.0166485e-06
1.2720649e-05
-1.9936171e-05
-6.1303044e-06
1.3936262e-05
-3.035827e-05
-7.115222e-06
1.6359317e-05
-4.4192639e-05
-8.2160563e-06
2.1020314e-05
-4.5960053e-05
-1.0264082e-05
2.4205312e-05
-5.0414079e-05
-7.9176416e-06
2.2087653e-05
-5.2819492e-05
-6.3951844e-06
1.5598241e-05
-5.3589939e-05
-5.9997381e-06
1.0838953e-05
-5.2208535e-05
-5.6220891e-06
6.8369511e-06
-4.9299067e-05
-5.4945915e-06
2.3427636e-06
-4.6556529e-05
-6.4552146e-06
-3.1147564e-06
-4.8608275e-05
-1.061508e-05
-7.1324721e-06
-3.7506662e-05
-9.4557397e-06
-5.5687592e-06
-2.8359743e-05
-8.629804e-06
-2.9163135e-06
-1.776207e-05
-7.126687e-06
-5.121809e-06
-4.514654e-06
-1.4827349e-05
-2.0344006e-05
-2.6582359e-06
2.016597e-05
-3.2460226e-05
-7.3141085e-06
1.3275736e-05
-4.4063452e-05
-9.4843502e-06
1.3969774e-05
-6.0085019e-05
-1.1237211e-05
1.9211571e-05
-5.5846593e-05
-1.2857981e-05
2.2964697e-05
-5.920708e-05
-1.0218059e-05
1.8473189e-05
-6.132941e-05
-8.5312345e-06
1.1006489e-05
-6.1692697e-05
-8.2338414e-06
6.1214628e-06
-6.0117469e-05
-7.9762397e-06
1.9644948e-06
-5.7229482e-05
-7.9064621e-06
-2.8976621e-06
-5.5228342e-05
-8.7025888e-06
-9.4360312e-06
-6.4372671e-05
-1.3410279e-05
-1.5226384e-05
-4.9334497e-05
-1.0964602e-05
-1.3376044e-05
-3.8443494e-05
-9.7780475e-06
-9.6354872e-06
-2.5944345e-05
-7.5085042e-06
-1.2017859e-05
-3.9703031e-06
-2.640426e-05
-2.4296841e-05
-1.8506501e-06
2.36073e-05
-3.9704148e-05
-5.6872059e-06
1.3739934e-05
-5.4057475e-05
-8.1145066e-06
1.3003229e-05
-7.2932163e-05
-1.0394424e-05
1.8144663e-05
-6.5190791e-05
-1.2419923e-05
2.1086251e-05
-6.7454956e-05
-1.0186596e-05
1.4569476e-05
-6.9101114e-05
-8.9657119e-06
5.8963866e-06
-6.9616639e-05
-8.7158579e-06
8.7664277e-07
-6.8337249e-05
-8.499406e-06
-3.4612153e-06
-6.5313916e-05
-8.4138338e-06
-8.7631575e-06
-6.2969075e-05
-8.8107364e-06
-1.5865768e-05
-7.4464523e-05
-1.2072894e-05
-2.2286038e-05
-5.6605616e-05
-9.6677199e-06
-1.9118014e-05
-4.4115713e-05
-8.3162488e-06
-1.3882889e-05
-2.9865268e-05
-6.0722375e-06
-1.560917e-05
-2.7200431e-06
-3.1045461e-05
-2.3863641e-05
-1.2516057e-06
2.3349072e-05
-3.9304634e-05
-4.0908757e-06
1.3805224e-05
-5.3953659e-05
-6.3748025e-06
1.2903038e-05
-7.3356258e-05
-8.672271e-06
1.7816387e-05
-6.6307542e-05
-1.0666406e-05
2.0323274e-05
-6.8719115e-05
-9.0450146e-06
1.3613753e-05
-7.0644404e-05
-8.1751636e-06
4.6989885e-06
-7.1432585e-05
-8.0002614e-06
-4.3574226e-07
-7.0113816e-05
-7.8737783e-06
-4.8677931e-06
-6.6855694e-05
-7.7932616e-06
-1.0143744e-05
-6.401386e-05
-7.9379491e-06
-1.7175301e-05
-7.448421e-05
-1.0347798e-05
-2.3399265e-05
-5.6404722e-05
-8.2208568e-06
-1.9440799e-05
-4.3952488e-05
-7.0359351e-06
-1.3668268e-05
-2.9819029e-05
-5.1055742e-06
-1.5046134e-05
-2.2967639e-06
-3.0193085e-05
-2.2531959e-05
-9.9958955e-07
2.2346505e-05
-3.7234224e-05
-3.3034758e-06
1.3866081e-05
-5.1509688e-05
-5.3464122e-06
1.3278993e-05
-7.0818572e-05
-7.4346427e-06
1.8169261e-05
-6.502481e-05
-9.2273091e-06
2.0726648e-05
-6.7752101e-05
-7.9685279e-06
1.4343167e-05
-6.9770102e-05
-7.309004e-06
5.3882431e-06
-7.0548392e-05
-7.1472959e-06
2.1017619e-07
-6.9269043e-05
-7.086522e-06
-4.2468275e-06
-6.603077e-05
-7.04116e-06
-9.5285764e-06
-6.3051071e-05
-7.1046176e-06
-1.6499009e-05
-7.2746632e-05
-9.0976498e-06
-2.2609998e-05
-5.5157154e-05
-7.2341397e-06
-1.8561448e-05
-4.3064505e-05
-6.1842701e-06
-1.2902102e-05
-2.9276868e-05
-4.5149829e-06
-1.4333809e-05
-2.0785052e-06
-2.9453469e-05
-2.1100986e-05
-1.168623e-06
2.1310813e-05
-3.5011963e-05
-3.433611e-06
1.3988957e-05
-4.8880651e-05
-5.3012725e-06
1.3820485e-05
-6.7909558e-05
-7.1233212e-06
1.8846199e-05
-6.3320465e-05
-8.738044e-06
2.1680694e-05
-6.6481857e-05
-7.4304636e-06
1.5685328e-05
-6.8613247e-05
-6.7587199e-06
6.85501e-06
-6.9347194e-05
-6.6276175e-06
1.5887694e-06
-6.8066676e-05
-6.5970235e-06
-2.900179e-06
-6.4867418e-05
-6.5966175e-06
-8.1801431e-06
-6.1770063e-05
-6.699847e-06
-1.5165009e-05
-7.0800844e-05
-8.7319669e-06
-2.1267903e-05
-5.3667105e-05
-6.9305215e-06
-1.7366486e-05
-4.1916402e-05
-5.9628259e-06
-1.1923705e-05
-2.8512258e-05
-4.4063859e-06
-1.3474842e-05
-2.0695898e-06
-2.8490201e-05
-2.0412867e-05
-1.5627089e-06
2.0829523e-05
-3.3836085e-05
-4.1779437e-06
1.4105097e-05
-4.7378152e-05
-5.9797254e-06
1.4246748e-05
-6.619963e-05
-7.6626259e-06
1.9445122e-05
-6.2302528e-05
-9.1438695e-06
2.2581728e-05
-6.5732271e-05
-7.4912233e-06
1.6923636e-05
-6.7967302e-05
-6.6594523e-06
8.141167e-06
-6.8634634e-05
-6.5252879e-06
2.8240238e-06
-6.7318991e-05
-6.5280561e-06
-1.6712015e-06
-6.4104052e-05
-6.5965311e-06
-7.0044371e-06
-6.0882441e-05
-6.8181996e-06
-1.4010004e-05
-6.9230846e-05
-9.1347223e-06
-2.0135363e-05
-5.2437315e-05
-7.3377487e-06
-1.6377714e-05
-4.091684e-05
-6.3506951e-06
-1.1097319e-05
-2.7830952e-05
-4.7388827e-06
-1.272009e-05
-2.2936329e-06
-2.7581475e-05
-2.0977917e-05
-1.853264e-06
2.1283403e-05
-3.4562648e-05
-4.8819323e-06
1.4235612e-05
-4.8187465e-05
-6.7629777e-06
1.4400177e-05
-6.709088e-05
-8.4105639e-06
1.9765767e-05
-6.295349e-05
-9.8661609e-06
2.3086319e-05
-6.6383558e-05
-7.9166642e-06
1.7399041e-05
-6.858167e-05
-6.8787961e-06
8.5884014e-06
-6.9187562e-05
-6.769291e-06
3.2094781e-06
-6.7802758e-05
-6.7937099e-06
-1.3223727e-06
-6.4498638e-05
-6.9002176e-06
-6.7099527e-06
-6.1160976e-05
-7.2281269e-06
-1.3828701e-05
-6.9434638e-05
-9.9225169e-06
-2.0020977e-05
-5.2469889e-05
-7.9460668e-06
-1.6299554e-05
-4.0885084e-05
-6.9066511e-06
-1.0994771e-05
-2.7787537e-05
-5.1615202e-06
-1.2654325e-05
-2.5324246e-06
-2.753144e-05
-2.2146521e-05
-1.8976417e-06
2.221561e-05
-3.6377019e-05
-5.1238868e-06
1.4425161e-05
-5.0416878e-05
-7.1068513e-06
1.4415042e-05
-6.9774e-05
-8.8559374e-06
1.9867543e-05
-6.488956e-05
-1.0363535e-05
2.3168101e-05
-6.8134427e-05
-8.2795825e-06
1.7232205e-05
-7.0264092e-05
-7.1793826e-06
8.2077476e-06
-7.0827875e-05
-7.100237e-06
2.7532021e-06
-6.936301e-05
-7.1484174e-06
-1.8574919e-06
-6.5938833e-05
-7.2682334e-06
-7.3542813e-06
-6.2553856e-05
-7.6263172e-06
-1.4579985e-05
-7.1193113e-05
-1.0427257e-05
-2.088617e-05
-5.3740428e-05
-8.3463823e-06
-1.7065866e-05
-4.1814677e-05
-7.2180311e-06
-1.1600579e-05
-2.8384219e-05
-5.3542966e-06
-1.3220446e-05
-2.6064595e-06
-2.8294567e-05
-2.3099928e-05
-1.7665431e-06
2.2991969e-05
-3.7983107e-05
-4.930551e-06
1.465906e-05
-5.2562125e-05
-6.9965928e-06
1.4461124e-05
-7.2453591e-05
-8.8279917e-06
1.9951683e-05
-6.689978e-05
-1.0416768e-05
2.3158912e-05
-6.9992599e-05
-8.4068287e-06
1.6876678e-05
-7.2063961e-05
-7.3366381e-06
7.6338274e-06
-7.2643386e-05
-7.2961877e-06
2.0730292e-06
-7.1132047e-05
-7.3580426e-06
-2.6574391e-06
-6.7601524e-05
-7.4643941e-06
-8.2439006e-06
-6.4179062e-05
-7.7961836e-06
-1.5597221e-05
-7.3370904e-05
-1.0546324e-05
-2.2006524e-05
-5.532019e-05
-8.3486711e-06
-1.8026738e-05
-4.3005519e-05
-7.171467e-06
-1.2350177e-05
-2.9169056e-05
-5.2696707e-06
-1.3912707e-05
-2.5170487e-06
-2.9245734e-05
-2.3523596e-05
-1.6010551e-06
2.3383773e-05
-3.8839437e-05
-4.5728522e-06
1.4923591e-05
-5.3810291e-05
-6.6396571e-06
1.4637536e-05
-7.418223e-05
-8.5546555e-06
2.0139315e-05
-6.8302122e-05
-1.0189338e-05
2.321551e-05
-7.1301665e-05
-8.3154712e-06
1.676364e-05
-7.3370647e-05
-7.3426314e-06
7.309105e-06
-7.3973684e-05
-7.3117515e-06
1.6453319e-06
-7.2436439e-05
-7.380901e-06
-3.1849415e-06
-6.8848183e-05
-7.4755122e-06
-8.8676531e-06
-6.5421196e-05
-7.7529291e-06
-1.6297141e-05
-7.4952291e-05
-1.0305901e-05
-2.2789456e-05
-5.6534937e-05
-8.1422736e-06
-1.8655002e-05
-4.39303e-05
-6.9371687e-06
-1.2844835e-05
-2.9782985e-05
-5.0535059e-06
-1.4355367e-05
-2.3778257e-06
-2.9909578e-05
-2.3514108e-05
-1.5103926e-06
2.3441375e-05
-3.8988131e-05
-4.2950774e-06
1.5167404e-05
-5.4224763e-05
-6.3404561e-06
1.4921096e-05
-7.4918066e-05
-8.253309e-06
2.0449151e-05
-6.9029618e-05
-9.9048095e-06
2.3459505e-05
-7.2041888e-05
-8.1554369e-06
1.6932676e-05
-7.4117502e-05
-7.2538349e-06
7.3330418e-06
-7.4732288e-05
-7.2128801e-06
1.5786413e-06
-7.3179753e-05
-7.2722926e-06
-3.3301672e-06
-6.9561162e-05
-7.3535633e-06
-9.0692044e-06
-6.6110308e-05
-7.5920577e-06
-1.6558975e-05
-7.5831816e-05
-1.0033153e-05
-2.3096424e-05
-5.720897e-05
-7.8947814e-06
-1.8869836e-05
-4.4446703e-05
-6.713248e-06
-1.2987931e-05
-3.0129845e-05
-4.8841964e-06
-1.4484834e-05
-2.294664e-06
-3.0204293e-05
-2.3306741e-05
-1.5382709e-06
2.3351727e-05
-3.8783159e-05
-4.2294994e-06
1.5381004e-05
-5.4130776e-05
-6.219964e-06
1.5238237e-05
-7.5050109e-05
-8.1166664e-06
2.0802055e-05
-6.9337175e-05
-9.7427749e-06
2.378893e-05
-7.241972e-05
-8.006848e-06
1.7298477e-05
-7.4518894e-05
-7.13016e-06
7.5975493e-06
-7.5120506e-05
-7.0570879e-06
1.7630262e-06
-7.3547141e-05
-7.1057317e-06
-3.2043661e-06
-6.9907754e-05
-7.1869026e-06
-8.9874839e-06
-6.6442718e-05
-7.4244854e-06
-1.6503103e-05
-7.6168639e-05
-9.8238961e-06
-2.3075579e-05
-5.7502453e-05
-7.7883164e-06
-1.8803144e-05
-4.4665949e-05
-6.6384296e-06
-1.2924132e-05
-3.0273736e-05
-4.8559617e-06
-1.4419204e-05
-2.3062681e-06
-3.0255567e-05
-2.3168717e-05
-1.6599125e-06
2.3305981e-05
-3.8598821e-05
-4.3652802e-06
1.5539291e-05
-5.4020961e-05
-6.3123302e-06
1.5496171e-05
-7.5071889e-05
-8.1430447e-06
2.1114797e-05
-6.953284e-05
-9.7336864e-06
2.4148876e-05
-7.2715783e-05
-7.9147668e-06
1.7678104e-05
-7.4843741e-05
-7.0009827e-06
7.908373e-06
-7.5426698e-05
-6.8894854e-06
1.9965896e-06
-7.3827176e-05
-6.9229471e-06
-3.0160891e-06
-7.0166748e-05
-7.0171479e-06
-8.8296131e-06
-6.6669612e-05
-7.2938256e-06
-1.6377531e-05
-7.640081e-05
-9.80487e-06
-2.2971369e-05
-5.7675197e-05
-7.8308194e-06
-1.8688961e-05
-4.4786925e-05
-6.7278452e-06
-1.280494e-05
-3.0351911e-05
-4.9754291e-06
-1.4319847e-05
-2.4037479e-06
-3.0251037e-05
-2.3303048e-05
-1.8066328e-06
2.3458553e-05
-3.8762329e-05
-4.5948639e-06
1.5658165e-05
-5.4237582e-05
-6.4930688e-06
1.5657773e-05
-7.5431088e-05
-8.274737e-06
2.1329977e-05
-6.9905884e-05
-9.7946656e-06
2.4417789e-05
-7.3157722e-05
-7.8312868e-06
1.7923017e-05
-7.5314282e-05
-6.8475468e-06
8.079803e-06
-7.5874107e-05
-6.6982711e-06
2.1017855e-06
-7.4245929e-05
-6.7265119e-06
-2.9526966e-06
-7.055728e-05
-6.8442121e-06
-8.7997684e-06
-6.7052172e-05
-7.187584e-06
-1.6385724e-05
-7.6830791e-05
-9.8380395e-06
-2.3006433e-05
-5.8010023e-05
-7.9675039e-06
-1.8713842e-05
-4.5041618e-05
-6.9071579e-06
-1.2811527e-05
-3.0521409e-05
-5.1532646e-06
-1.4346799e-05
-2.5311423e-06
-3.0392482e-05
-2.3768525e-05
-1.8995054e-06
2.3862153e-05
-3.9388058e-05
-4.7669851e-06
1.5760542e-05
-5.4997607e-05
-6.630892e-06
1.5714486e-05
-7.6362066e-05
-8.3346109e-06
2.1446248e-05
-7.0622035e-05
-9.7752611e-06
2.458019e-05
-7.3881251e-05
-7.6869858e-06
1.7967927e-05
-7.6050355e-05
-6.6353488e-06
8.0324996e-06
-7.6600777e-05
-6.4677493e-06
1.9924596e-06
-7.4948886e-05
-6.4925385e-06
-3.1061193e-06
-7.1236034e-05
-6.6325581e-06
-8.999587e-06
-6.7735133e-05
-7.037549e-06
-1.6637115e-05
-7.7747307e-05
-9.8365155e-06
-2.3302219e-05
-5.8691449e-05
-8.0347161e-06
-1.9002009e-05
-4.5569701e-05
-7.021898e-06
-1.3020264e-05
-3.0880098e-05
-5.2713985e-06
-1.4580126e-05
-2.6149647e-06
-3.0796871e-05
-2.4460705e-05
-1.8866092e-06
2.4444589e-05
-4.0383465e-05
-4.7558888e-06
1.587347e-05
-5.6180919e-05
-6.5655481e-06
1.5723418e-05
-7.7797321e-05
-8.2134969e-06
2.149208e-05
-7.1654193e-05
-9.5572486e-06
2.4641561e-05
-7.4860288e-05
-7.4233106e-06
1.7849099e-05
-7.7031123e-05
-6.34508e-06
7.8049e-06
-7.7582631e-05
-6.1733732e-06
1.7047177e-06
-7.5917293e-05
-6.2016183e-06
-3.4449668e-06
-7.2179515e-05
-6.3537224e-06
-9.3967796e-06
-6.872381e-05
-6.7949471e-06
-1.7108535e-05
-7.9087485e-05
-9.6034214e-06
-2.3843008e-05
-5.9720456e-05
-7.9145082e-06
-1.9522246e-05
-4.6379901e-05
-6.9408847e-06
-1.3445262e-05
-3.1434128e-05
-5.2158101e-06
-1.5008631e-05
-2.5901045e-06
-3.1460641e-05
-2.5188981e-05
-1.7625984e-06
2.5058015e-05
-4.1478942e-05
-4.5142911e-06
1.6013894e-05
-5.753995e-05
-6.2589419e-06
1.5720258e-05
-7.9438353e-05
-7.8302399e-06
2.1527751e-05
-7.2832418e-05
-9.0872054e-06
2.4663616e-05
-7.5952207e-05
-7.0211492e-06
1.7664578e-05
-7.8116194e-05
-5.9724402e-06
7.5108427e-06
-7.8686807e-05
-5.8105436e-06
1.3488082e-06
-7.7019316e-05
-5.8381369e-06
-3.8551995e-06
-7.3261177e-05
-5.9866447e-06
-9.8736299e-06
-6.9845545e-05
-6.4214887e-06
-1.7678019e-05
-8.0640445e-05
-9.1201104e-06
-2.4500376e-05
-6.0899233e-05
-7.5190958e-06
-2.0153494e-05
-4.7309058e-05
-6.5949589e-06
-1.3950538e-05
-3.2071262e-05
-4.9455926e-06
-1.5517958e-05
-2.4390752e-06
-3.222517e-05
-2.5782155e-05
-1.5564394e-06
2.5569034e-05
-4.2424096e-05
-4.0791502e-06
1.6169933e-05
-5.8736957e-05
-5.7261547e-06
1.5767219e-05
-8.0940004e-05
-7.2299805e-06
2.1596126e-05
-7.3941928e-05
-8.3954522e-06
2.4692362e-05
-7.6975936e-05
-6.4985031e-06
1.7520866e-05
-7.9133851e-05
-5.5324563e-06
7.262144e-06
-7.9727843e-05
-5.383151e-06
1.0441561e-06
-7.8063212e-05
-5.4088518e-06
-4.2138594e-06
-7.4283065e-05
-5.5399802e-06
-1.0297378e-05
-7.0904518e-05
-5.9310518e-06
-1.8195161e-05
-8.2045421e-05
-8.3651851e-06
-2.5108632e-05
-6.198283e-05
-6.8972639e-06
-2.0717817e-05
-4.816638e-05
-6.0282766e-06
-1.4404536e-05
-3.2658385e-05
-4.4953505e-06
-1.5966306e-05
-2.1919821e-06
-3.2908678e-05
-2.6146576e-05
-1.3158811e-06
2.5898713e-05
-4.3047556e-05
-3.5377184e-06
1.6328691e-05
-5.9587707e-05
-5.0727656e-06
1.5856305e-05
-8.2048281e-05
-6.4767539e-06
2.1713378e-05
-7.4822405e-05
-7.5580902e-06
2.4773649e-05
-7.7803907e-05
-5.8971869e-06
1.7481892e-05
-7.9958763e-05
-5.0469858e-06
7.1304993e-06
-8.0574333e-05
-4.9110528e-06
8.6457042e-07
-7.8911805e-05
-4.9284237e-06
-4.4404785e-06
-7.5109876e-05
-5.0316372e-06
-1.057945e-05
-7.1730556e-05
-5.353322e-06
-1.8558365e-05
-8.310891e-05
-7.4716522e-06
-2.5552651e-05
-6.2786424e-05
-6.1223639e-06
-2.1115821e-05
-4.8799304e-05
-5.3234022e-06
-1.4705142e-05
-3.3093422e-05
-3.9457652e-06
-1.6265803e-05
-1.898388e-06
-3.3391238e-05
-2.6263456e-05
-1.084847e-06
2.6026578e-05
-4.3312428e-05
-2.9882257e-06
1.6469651e-05
-6.0000342e-05
-4.3832812e-06
1.5986794e-05
-8.2666341e-05
-5.6847466e-06
2.1867241e-05
-7.5399498e-05
-6.6753946e-06
2.4902064e-05
-7.8376199e-05
-5.2677468e-06
1.7560749e-05
-8.0535115e-05
-4.5445445e-06
7.1345182e-06
-8.11598e-05
-4.4184501e-06
8.30512e-07
-7.9490143e-05
-4.4247254e-06
-4.5110691e-06
-7.566028e-05
-4.4987391e-06
-1.0691546e-05
-7.2258004e-05
-4.7463718e-06
-1.8732341e-05
-8.3707627e-05
-6.5157577e-06
-2.5788295e-05
-6.3242188e-05
-5.3158073e-06
-2.1299993e-05
-4.9158547e-05
-4.5903027e-06
-1.4836228e-05
-3.3338817e-05
-3.3803462e-06
-1.6394347e-05
-1.6058009e-06
-3.3635937e-05
-2.6172321e-05
-8.9706695e-07
2.5978979e-05
-4.3251183e-05
-2.5127039e-06
1.6579538e-05
-6.0026971e-05
-3.7575136e-06
1.6126432e-05
-8.2814584e-05
-4.9319883e-06
2.2038564e-05
-7.5674092e-05
-5.8367117e-06
2.5073587e-05
-7.8692371e-05
-4.6574683e-06
1.7735168e-05
-8.0862669e-05
-4.0481955e-06
7.2604638e-06
-8.1485048e-05
-3.928853e-06
9.256281e-07
-7.980104e-05
-3.9230793e-06
-4.4426511e-06
-7.5939612e-05
-3.9717963e-06
-1.0649338e-05