/*--------------------------------*- C++ -*----------------------------------*\
  =========                 |
  \\      /  F ield         | OpenFOAM: The Open Source CFD Toolbox
   \\    /   O peration     | Website:  https://openfoam.org
    \\  /    A nd           | Version:  7
     \\/     M anipulation  |
\*---------------------------------------------------------------------------*/
FoamFile
{
    version     2.0;
    format      ascii;
    class       volScalarField;
    location    "0.00157";
    object      mag(U);
}
// * * * * * * * * * * * * * * * * * * * * * * * * * * * * * * * * * * * * * //

dimensions      [0 1 -1 0 0 0 0];

internalField   nonuniform List<scalar> 
5000
(
43.241889
43.167881
43.122022
43.074372
43.0273
42.980625
42.934467
42.888822
42.843649
42.798901
42.754544
42.710552
42.666908
42.623603
42.580631
42.537987
42.495671
42.453684
42.412026
42.370697
42.329698
42.289026
42.248681
42.208661
42.168963
42.129584
42.090522
42.051773
42.013335
41.975205
41.93738
41.899856
41.86263
41.825695
41.789048
41.752685
41.716602
41.680797
41.645266
41.610008
41.57502
41.540297
41.505836
41.471634
41.437689
41.403997
41.370555
41.337358
41.304402
41.271683
41.239195
41.206934
41.174896
41.143078
41.111474
41.080081
41.048895
41.01791
40.987123
40.956529
40.926124
40.895906
40.865872
40.836016
40.806335
40.776824
40.747479
40.718298
40.689278
40.660416
40.631707
40.603147
40.574732
40.54646
40.518328
40.490333
40.462471
40.434738
40.407131
40.379647
40.352284
40.325038
40.297906
40.270885
40.243972
40.217165
40.190461
40.163857
40.137351
40.11094
40.084621
40.058393
40.032252
40.006195
39.980221
39.954328
39.928513
39.902775
39.87711
39.851515
39.82599
39.800532
39.775139
39.74981
39.724542
39.699334
39.674184
39.649092
39.624054
39.599069
39.574135
39.549251
39.524414
39.499625
39.47488
39.450179
39.425519
39.400901
39.376321
39.35178
39.327275
39.302807
39.278374
39.253975
39.229608
39.205272
39.180967
39.156691
39.132443
39.108222
39.084028
39.059859
39.035716
39.011596
38.987499
38.963425
38.939372
38.915341
38.891329
38.867336
38.843361
38.819404
38.795464
38.771541
38.747634
38.723742
38.699865
38.676002
38.652152
38.628315
38.604491
38.580678
38.556876
38.533086
38.509305
38.485535
38.461774
38.438023
38.41428
38.390545
38.366817
38.343097
38.319383
38.295676
38.271975
38.248279
38.224589
38.200903
38.177222
38.153545
38.129872
38.106202
38.082536
38.058874
38.035216
38.011561
37.987909
37.964261
37.940615
37.916972
37.893332
37.869696
37.846063
37.822435
37.79881
37.775189
37.751572
37.727959
37.704349
37.680741
37.657136
37.633532
37.609931
37.58633
37.562731
37.539134
37.515536
37.49194
37.468342
37.444743
37.421141
37.397538
37.373929
37.350317
37.326699
37.303077
37.279449
37.255817
37.232178
37.208532
37.184878
37.161216
37.137545
37.113866
37.090176
37.066476
37.042765
37.019044
36.995313
36.971572
36.947818
36.924053
36.900273
36.876481
36.852675
36.828857
36.805024
36.781177
36.757315
36.733439
36.709547
36.685642
36.661721
36.637784
36.61383
36.589859
36.56587
36.541864
36.51784
36.493798
36.469737
36.445658
36.42156
36.397443
36.373307
36.349153
36.324978
36.300781
36.276564
36.252324
36.228063
36.203782
36.179481
36.155157
36.130811
36.106441
36.082048
36.057634
36.033198
36.00874
35.984258
35.959753
35.935223
35.910669
35.886093
35.861494
35.836872
35.812226
35.787555
35.762858
35.738138
35.713394
35.688627
35.663836
35.63902
35.614178
35.589311
35.564419
35.539503
35.514563
35.489598
35.464608
35.439591
35.414548
35.38948
35.364387
35.33927
35.314126
35.288957
35.263762
35.23854
35.213293
35.18802
35.162722
35.137397
35.112048
35.086672
35.061272
35.035845
35.010391
34.984912
34.959408
34.933879
34.908325
34.882746
34.857141
34.83151
34.805853
34.780172
34.754467
34.728738
34.702984
34.677206
34.651402
34.625575
34.599723
34.573848
34.54795
34.522029
34.496084
34.470117
34.444128
34.418116
34.392081
34.366025
34.339947
34.313849
34.287731
34.261593
34.235436
34.209259
34.183063
34.156848
34.130616
34.104365
34.078097
34.051812
34.025511
33.999193
33.97286
33.946511
33.920148
33.893771
33.867381
33.840978
33.814563
33.788134
33.761694
33.735241
33.708776
33.6823
33.655813
33.629316
33.602809
33.576293
33.549768
33.523233
33.496689
33.470136
33.443575
33.417005
33.390428
33.363844
33.337252
33.310653
33.284047
33.257434
33.230814
33.204188
33.177555
33.150916
33.124271
33.097621
33.070965
33.044303
33.017636
32.990963
32.964285
32.937602
32.910915
32.884223
32.857527
32.830828
32.804124
32.777417
32.750707
32.723994
32.697277
32.670559
32.643837
32.617114
32.59039
32.563663
32.536936
32.510207
32.483478
32.456747
32.430017
32.403286
32.376557
32.349827
32.323099
32.296371
32.269645
32.24292
32.216196
32.189473
32.162753
32.136034
32.109318
32.082603
32.055891
32.029181
32.002473
31.975768
31.949066
31.922366
31.895669
31.868974
31.842282
31.815593
31.788906
31.762223
31.735541
31.708863
31.682187
31.655513
31.628842
31.602172
31.575505
31.548841
31.522179
31.495518
31.46886
31.442205
31.415551
31.388899
31.36225
31.335602
31.308956
31.282312
31.25567
31.22903
31.202391
31.175755
31.149121
31.122489
31.09586
31.069233
31.042608
31.015986
30.989365
30.962748
30.936133
30.909521
30.882911
30.856305
30.829701
30.803101
30.776504
30.74991
30.723319
30.696733
30.670149
30.64357
30.616994
30.590422
30.563853
30.537289
30.510728
30.484171
30.457618
30.431069
30.404524
30.377983
30.351446
30.324913
30.298383
30.271858
30.245336
30.218818
30.192303
30.165792
30.139285
30.112781
30.086281
30.059784
30.03329
30.0068
29.980312
29.953828
29.927347
29.900868
29.874392
29.847918
29.821448
29.79498
29.768515
29.742053
29.715593
29.689135
29.66268
29.636227
29.609777
29.58333
29.556884
29.530442
29.504001
29.477563
29.451127
29.424694
29.398264
29.371836
29.345411
29.31899
29.29257
29.266154
29.239741
29.213331
29.186925
29.160521
29.134121
29.107725
29.081332
29.054942
29.028557
29.002175
28.975797
28.949423
28.923052
28.896686
28.870324
28.843967
28.817614
28.791265
28.76492
28.73858
28.712245
28.685914
28.659588
28.633266
28.606949
28.580636
28.554328
28.528024
28.501725
28.475431
28.44914
28.422855
28.396573
28.370296
28.344022
28.317753
28.291487
28.265226
28.238968
28.212714
28.186464
28.160217
28.133974
28.107734
28.081497
28.055264
28.029033
28.002806
27.976581
27.95036
27.924141
27.897924
27.87171
27.845498
27.819289
27.793082
27.766878
27.740677
27.714477
27.688279
27.662084
27.635891
27.609699
27.583511
27.557324
27.531141
27.504959
27.47878
27.452604
27.42643
27.400259
27.37409
27.347924
27.321761
27.295601
27.269443
27.243288
27.217136
27.190987
27.164842
27.138699
27.11256
27.086424
27.060292
27.034163
27.008037
26.981915
26.955796
26.929681
26.90357
26.877462
26.851358
26.825257
26.799161
26.773068
26.746978
26.720892
26.69481
26.668731
26.642656
26.616584
26.590515
26.56445
26.538389
26.512331
26.486276
26.460224
26.434176
26.40813
26.382088
26.356048
26.330012
26.303978
26.277947
26.251919
26.225893
26.199871
26.173851
26.147834
26.121819
26.095807
26.069796
26.043789
26.017784
25.991782
25.965782
25.939784
25.913789
25.887797
25.861806
25.835819
25.809833
25.783851
25.757871
25.731893
25.705918
25.679946
25.653976
25.62801
25.602045
25.576084
25.550126
25.52417
25.498217
25.472268
25.446321
25.420377
25.394437
25.368499
25.342565
25.316634
25.290707
25.264782
25.238861
25.212943
25.187028
25.161116
25.135207
25.109301
25.083399
25.057499
25.031603
25.00571
24.97982
24.953934
24.928051
24.90217
24.876293
24.850419
24.824547
24.798679
24.772813
24.746951
24.721091
24.695234
24.66938
24.643528
24.617679
24.591832
24.565989
24.540148
24.514309
24.488472
24.462639
24.436807
24.410978
24.385152
24.359328
24.333506
24.307687
24.28187
24.256055
24.230243
24.204433
24.178626
24.152822
24.127019
24.10122
24.075422
24.049628
24.023836
23.998046
23.97226
23.946476
23.920695
23.894917
23.869141
23.843369
23.817599
23.791833
23.76607
23.74031
23.714553
23.688799
23.663049
23.637302
23.611559
23.585819
23.560082
23.534349
23.508619
23.482893
23.457171
23.431453
23.405738
23.380026
23.354319
23.328615
23.302915
23.277219
23.251526
23.225837
23.200152
23.17447
23.148792
23.123118
23.097447
23.07178
23.046117
23.020457
22.994801
22.969148
22.943498
22.917852
22.892209
22.86657
22.840934
22.8153
22.78967
22.764044
22.73842
22.712799
22.687181
22.661566
22.635953
22.610344
22.584737
22.559133
22.533531
22.507932
22.482336
22.456742
22.43115
22.405561
22.379975
22.354391
22.328809
22.303229
22.277652
22.252077
22.226505
22.200935
22.175368
22.149803
22.12424
22.098679
22.07312
22.047564
22.022011
21.99646
21.970911
21.945365
21.91982
21.894279
21.86874
21.843203
21.817669
21.792138
21.766609
21.741083
21.715559
21.690038
21.66452
21.639004
21.613491
21.587981
21.562474
21.536969
21.511466
21.485967
21.46047
21.434977
21.409486
21.383997
21.358512
21.333029
21.307549
21.282071
21.256596
21.231124
21.205655
21.180188
21.154724
21.129262
21.103803
21.078346
21.052892
21.027441
21.001992
20.976546
20.951102
20.92566
20.90022
20.874783
20.849348
20.823916
20.798486
20.773058
20.747632
20.722209
20.696787
20.671368
20.645951
20.620537
20.595124
20.569714
20.544305
20.518899
20.493495
20.468094
20.442695
20.417297
20.391902
20.366508
20.341118
20.315731
20.290346
20.264962
20.239578
20.214196
20.188821
20.163452
20.138086
20.112718
20.087339
20.061965
20.036603
20.011257
19.985922
19.960585
19.935208
19.90983
19.884463
19.859123
19.833813
19.808523
19.783236
19.757905
19.732524
19.707135
19.681756
19.656401
19.631067
19.605742
19.580412
19.555085
19.529774
19.50449
19.479231
19.453984
19.428735
19.403453
19.378171
19.352885
19.327603
19.30233
19.277074
19.251836
19.226614
19.2014
19.176181
19.150936
19.125694
19.100461
19.075244
19.050043
19.024848
18.999642
18.974424
18.949216
18.924019
18.898833
18.873651
18.84847
18.823286
18.798101
18.772906
18.747716
18.722539
18.697385
18.672248
18.647116
18.621946
18.59676
18.571589
18.546438
18.521307
18.496187
18.471066
18.445941
18.420824
18.395718
18.370624
18.345535
18.320436
18.295323
18.270217
18.245121
18.22004
18.194968
18.169893
18.144777
18.119666
18.094573
18.069512
18.044475
18.019441
17.994332
17.969211
17.944119
17.919073
17.894069
17.869078
17.844008
17.818878
17.793774
17.768706
17.743679
17.718676
17.693668
17.668598
17.643536
17.618484
17.593454
17.568441
17.543433
17.518406
17.493369
17.468344
17.44334
17.418355
17.393378
17.36836
17.343312
17.318283
17.293283
17.268316
17.243364
17.21839
17.19336
17.168338
17.143319
17.118305
17.093299
17.068305
17.043333
17.018386
16.993455
16.968524
16.943551
16.918572
16.893597
16.868625
16.843654
16.818684
16.793722
16.768774
16.743839
16.718913
16.693989
16.669059
16.644125
16.61918
16.594235
16.569301
16.54439
16.519501
16.494622
16.469739
16.444829
16.419923
16.395016
16.3701
16.345177
16.320268
16.295389
16.270548
16.245728
16.220906
16.196016
16.171115
16.146215
16.121324
16.096451
16.071602
16.046778
16.021974
15.997177
15.972369
15.947539
15.922714
15.897877
15.873037
15.848205
15.823397
15.798619
15.773862
15.749106
15.724301
15.699496
15.674696
15.649899
15.625102
15.600313
15.575547
15.550817
15.526117
15.501426
15.47668
15.451886
15.427103
15.402334
15.37759
15.352869
15.328164
15.303468
15.278775
15.254082
15.229387
15.204691
15.179996
15.155303
15.130614
15.105931
15.081256
15.056586
15.03192
15.007254
14.982592
14.957939
14.933297
14.908661
14.884015
14.859349
14.834698
14.810075
14.785482
14.760902
14.736287
14.711604
14.686935
14.66228
14.637653
14.613055
14.588478
14.563913
14.539352
14.51479
14.490229
14.465664
14.441095
14.416528
14.391968
14.367417
14.342869
14.318308
14.293736
14.269178
14.244646
14.220138
14.195638
14.171089
14.146494
14.121912
14.097347
14.072811
14.0483
14.023806
13.99932
13.974835
13.950347
13.92586
13.901369
13.876873
13.852379
13.827891
13.803411
13.778935
13.754443
13.729937
13.705448
13.680988
13.656552
13.632121
13.607616
13.583076
13.558555
13.534062
13.509602
13.485162
13.460725
13.436281
13.411848
13.38743
13.363023
13.338596
13.314085
13.289567
13.26506
13.240582
13.216141
13.191732
13.167342
13.14296
13.118577
13.094184
13.06979
13.045389
13.020988
12.996585
12.972183
12.947783
12.923383
12.898986
12.87459
12.850196
12.825804
12.801415
12.777029
12.752645
12.728266
12.703893
12.679527
12.655165
12.630797
12.606411
12.582028
12.557653
12.53329
12.508938
12.48459
12.460241
12.435891
12.411545
12.387203
12.362865
12.338531
12.314198
12.289868
12.26554
12.241217
12.216897
12.192581
12.16827
12.143961
12.119654
12.095351
12.071054
12.046766
12.022482
11.998183
11.973872
11.94958
11.925319
11.90108
11.876841
11.852516
11.828193
11.803893
11.779626
11.75539
11.731173
11.706966
11.682759
11.658525
11.634295
11.610079
11.585882
11.56169
11.537456
11.513191
11.488944
11.464721
11.440524
11.416347
11.392183
11.368022
11.34385
11.319665
11.295492
11.271339
11.247203
11.223063
11.198844
11.174634
11.150447
11.126294
11.102168
11.078057
11.053953
11.029845
11.005713
10.981584
10.957478
10.933399
10.909326
10.885175
10.860991
10.83684
10.812729
10.788654
10.764597
10.740547
10.716494
10.692421
10.668338
10.644275
10.62024
10.596218
10.572142
10.547997
10.523887
10.499816
10.475783
10.451771
10.427765
10.403755
10.379738
10.355705
10.331682
10.307673
10.283675
10.259669
10.235604
10.211549
10.187507
10.163488
10.139501
10.115548
10.091614
10.067647
10.043576
10.019531
9.9955143
9.9715416
9.9476099
9.9237005
9.8997629
9.8757143
9.8516922
9.8277022
9.8037505
9.7798233
9.7559049
9.7319767
9.7080123
9.6840373
9.6600694
9.6361111
9.6121718
9.5882581
9.5643622
9.5404493
9.516439
9.4924504
9.4684943
9.4445771
9.4206877
9.3968112
9.3729266
9.3489687
9.3250124
9.3010784
9.2771695
9.2532784
9.2293981
9.2055222
9.181626
9.1576944
9.1337727
9.1098605
9.0859667
9.0621002
9.0382569
9.0144145
8.9904656
8.9665099
8.9425988
8.9187348
8.8948987
8.8710704
8.8472309
8.8233643
8.7994709
8.7755931
8.7517285
8.727878
8.7040447
8.6802272
8.6564122
8.6325268
8.6086206
8.5847516
8.5609288
8.5371418
8.5133646
8.4895191
8.465642
8.4418027
8.4180045
8.3942262
8.3704146
8.3465785
8.3227712
8.2989853
8.2752047
8.2513957
8.2275953
8.2038136
8.1800459
8.1562758
8.1324735
8.1086844
8.0849153
8.0611645
8.0374178
8.0136403
7.9898666
7.9661103
7.9423745
7.918648
7.8948987
7.8711318
7.8473884
7.8236723
7.7999725
7.7762504
7.7524826
7.7287485
7.7050581
7.6813983
7.6577078
7.6339115
7.6101722
7.5865054
7.5628896
7.5392465
7.5154612
7.4917378
7.4680866
7.4444866
7.4208736
7.3971472
7.3734634
7.3498246
7.3262188
7.3026079
7.2789413
7.2552995
7.2316758
7.20806
7.1844406
7.1608288
7.1372211
7.1135931
7.089976
7.0663835
7.0428034
7.0192132
6.9956276
6.9720539
6.9484809
6.924899
6.9013306
6.877773
6.8542147
6.8306504
6.8071005
6.7835603
6.7600157
6.7364679
6.7129373
6.6894168
6.6658841
6.6423502
6.6188391
6.5953406
6.5718194
6.5482959
6.5248045
6.5013303
6.4778162
6.454298
6.43083
6.4073886
6.3838718
6.360337
6.3368869
6.3134838
6.2899963
6.2664551
6.2430196
6.2196406
6.1961883
6.1726566
6.1492278
6.1258523
6.1024416
6.0789576
6.0555406
6.0321539
6.0087464
5.9852984
5.9618906
5.9385012
5.9150968
5.8916723
5.8682747
5.8448898
5.8214924
5.7980858
5.7746992
5.7513219
5.7279321
5.7045406
5.6811649
5.6577958
5.6344128
5.6110346
5.5876703
5.5643099
5.5409325
5.5175657
5.4942131
5.4708617
5.4474883
5.4241318
5.4007915
5.3774494
5.354077
5.3307296
5.3074037
5.2840718
5.260694
5.2373549
5.2140484
5.1907288
5.1673287
5.143994
5.1207151
5.097421
5.0739879
5.0506423
5.0273718
5.0041163
4.9807895
4.9574854
4.9341749
4.9108586
4.8875536
4.8642473
4.8409155
4.8176137
4.7943294
4.7709612
4.7476297
4.7243788
4.7011412
4.6778356
4.6545593
4.631278
4.6079861
4.5847054
4.5614252
4.5381401
4.5148633
4.4915877
4.4683062
4.4450407
4.4217819
4.3984447
4.375143
4.3519165
4.3287001
4.3054225
4.2821843
4.2589468
4.2356895
4.2124467
4.1892048
4.1659572
4.1427178
4.1194813
4.0962418
4.073009
4.0497808
4.0265426
4.003317
3.9801088
3.9568402
3.9335734
3.9103925
3.8872366
3.864015
3.8408193
3.8176236
3.7944185
3.7712236
3.7480321
3.7248383
3.7016502
3.6784664
3.6552809
3.6321013
3.6089305
3.5857476
3.562564
3.5394065
3.5162487
3.4930696
3.4699231
3.4467856
3.423629
3.400484
3.377342
3.3541982
3.3310597
3.3079247
3.2847906
3.2616607
3.2385356
3.2154111
3.1922909
3.1691789
3.1460536
3.1229177
3.0998223
3.0767443
3.0536407
3.0305482
3.0074586
2.9843691
2.9612843
2.9382034
2.9151253
2.8920509
2.8689808
2.8459136
2.8228497
2.79979
2.7767335
2.7536801
2.7306307
2.7075839
2.6845395
2.6615003
2.6384647
2.6154308
2.5924002
2.5693729
2.5463485
2.5233272
2.5003092
2.4772951
2.4542842
2.4312761
2.4082725
2.3852723
2.362273
2.3392816
2.3163015
2.2933078
2.2703204
2.2473546
2.2243719
2.2013888
2.1784248
2.1554577
2.1324912
2.109537
2.0865854
2.063631
2.0406886
2.0177565
1.9948138
1.9718843
1.9489822
1.9260418
1.9031314
1.8803297
1.8573942
1.8344034
1.811532
1.7886283
1.7657098
1.742828
1.7199399
1.6970442
1.6741669
1.6512958
1.6284158
1.6055472
1.582696
1.5598251
1.5369618
1.5141472
1.491277
1.4684107
1.4456906
1.4228294
1.3998829
1.3770782
1.3542463
1.3313961
1.3085847
1.2857706
1.262944
1.2401373
1.2173427
1.1945322
1.171731
1.1489612
1.1261661
1.1033694
1.0805913
1.0578081
1.0350847
1.0123093
0.98949305
0.96675569
0.94399327
0.92122566
0.89848078
0.87572863
0.85303414
0.83029401
0.80751375
0.78481213
0.76208411
0.73934801
0.71663781
0.69391803
0.67125337
0.64854845
0.62580439
0.60313841
0.58044426
0.55773974
0.53506567
0.51238062
0.4897472
0.46707784
0.44437029
0.42174014
0.39907912
0.37640337
0.35375994
0.33110249
0.30849109
0.2858451
0.26315935
0.24054772
0.21790017
0.19523307
0.17260079
0.1499501
0.12733498
0.10468299
0.08199173
0.059382974
0.036732491
0.014051634
0.0085626387
0.031157005
0.053744843
0.076331742
0.098919295
0.1215078
0.1440969
0.16668647
0.18927559
0.21186381
0.23445124
0.25703761
0.27962317
0.30220697
0.32478841
0.34736701
0.36994257
0.39251554
0.41508584
0.43765286
0.46021607
0.48277508
0.5053305
0.52788256
0.55043121
0.57297586
0.59551597
0.61805163
0.64058339
0.6631116
0.68563601
0.70815599
0.73067143
0.75318259
0.7756902
0.79819438
0.82069448
0.84318987
0.86568087
0.88816794
0.91065166
0.93313179
0.9556079
0.97807956
1.0005473
1.0230117
1.0454728
1.06793
1.0903829
1.1128317
1.1352771
1.1577192
1.1801578
1.2025919
1.2250219
1.2474485
1.269872
1.2922924
1.3147093
1.3371221
1.3595305
1.3819353
1.4043368
1.4267353
1.4491306
1.4715224
1.4939101
1.5162939
1.5386741
1.5610512
1.5834253
1.6057959
1.6281627
1.6505257
1.6728849
1.6952408
1.7175939
1.7399438
1.7622901
1.7846323
1.8069708
1.8293061
1.8516386
1.8739679
1.8962936
1.9186152
1.9409331
1.9632477
1.9855595
2.0078681
2.0301731
2.0524742
2.0747718
2.0970662
2.1193576
2.1416458
2.1639304
2.1862111
2.2084883
2.2307622
2.2530331
2.2753009
2.2975653
2.3198259
2.3420828
2.3643364
2.3865868
2.4088342
2.4310783
2.4533188
2.4755557
2.4977892
2.5200194
2.5422464
2.5644701
2.5866905
2.6089073
2.6311207
2.6533308
2.6755377
2.6977413
2.7199415
2.7421382
2.7643316
2.7865216
2.8087085
2.830892
2.853072
2.8752487
2.8974221
2.9195923
2.9417592
2.9639226
2.9860826
3.0082393
3.0303928
3.0525431
3.07469
3.0968336
3.1189739
3.141111
3.1632446
3.1853746
3.2075011
3.2296246
3.2517451
3.2738626
3.2959769
3.3180875
3.3401944
3.362298
3.3843984
3.4064957
3.4285898
3.4506808
3.4727685
3.4948528
3.5169337
3.5390114
3.5610858
3.5831569
3.6052247
3.6272893
3.6493507
3.671409
3.6934641
3.7155158
3.7375643
3.7596095
3.7816514
3.8036902
3.8257257
3.847758
3.869787
3.891813
3.9138358
3.9358553
3.9578716
3.9798846
4.0018945
4.0239013
4.045905
4.0679054
4.0899024
4.1118964
4.1338873
4.1558752
4.17786
4.1998415
4.2218196
4.2437946
4.2657667
4.2877357
4.3097018
4.3316646
4.3536242
4.3755806
4.3975339
4.4194843
4.4414317
4.463376
4.4853172
4.5072552
4.5291901
4.5511221
4.5730511
4.5949772
4.6169
4.6388198
4.6607365
4.6826503
4.7045613
4.7264694
4.7483743
4.7702761
4.7921748
4.8140705
4.8359635
4.8578537
4.8797409
4.9016252
4.9235064
4.9453845
4.9672598
4.9891321
5.0110017
5.0328685
5.0547324
5.0765933
5.0984513
5.1203064
5.1421587
5.1640082
5.1858549
5.2076987
5.2295395
5.2513775
5.2732128
5.2950453
5.316875
5.338702
5.360526
5.3823474
5.404166
5.4259818
5.4477948
5.469605
5.4914124
5.5132172
5.5350195
5.556819
5.5786157
5.6004096
5.6222008
5.6439894
5.6657754
5.6875587
5.7093392
5.7311169
5.752892
5.7746646
5.7964346
5.8182019
5.8399666
5.8617287
5.8834882
5.9052451
5.9269994
5.9487511
5.9705
5.9922464
6.0139904
6.0357319
6.0574709
6.0792071
6.1009406
6.1226715
6.1444001
6.1661263
6.18785
6.2095713
6.23129
6.253006
6.2747194
6.2964303
6.3181388
6.339845
6.3615487
6.38325
6.4049487
6.4266449
6.4483386
6.47003
6.4917189
6.5134054
6.5350894
6.5567711
6.5784503
6.600127
6.6218014
6.6434733
6.6651428
6.68681
6.7084748
6.7301372
6.7517971
6.7734546
6.7951098
6.8167627
6.8384132
6.8600613
6.881707
6.9033503
6.9249912
6.94663
6.9682664
6.9899004
7.011532
7.0331612
7.0547881
7.0764127
7.098035
7.1196549
7.1412725
7.1628878
7.1845009
7.2061115
7.2277198
7.2493258
7.2709295
7.292531
7.3141302
7.335727
7.3573214
7.3789135
7.4005034
7.4220911
7.4436766
7.4652596
7.4868403
7.5084187
7.5299948
7.5515687
7.5731404
7.5947098
7.6162769
7.6378416
7.659404
7.6809641
7.7025222
7.7240779
7.7456315
7.7671826
7.7887314
7.8102779
7.8318222
7.8533643
7.8749042
7.8964417
7.917977
7.93951
7.9610407
7.9825692
8.0040955
8.0256195
8.047141
8.0686602
8.0901772
8.111692
8.1332046
8.1547151
8.1762233
8.197729
8.2192323
8.2407332
8.262232
8.2837286
8.3052229
8.326715
8.3482048
8.3696921
8.3911771
8.4126598
8.4341402
8.4556183
8.4770942
8.4985678
8.5200391
8.5415079
8.5629744
8.5844385
8.6059003
8.6273598
8.648817
8.6702718
8.6917243
8.7131742
8.7346218
8.756067
8.77751
8.7989506
8.8203888
8.8418245
8.8632578
8.8846885
8.9061169
8.927543
8.9489666
8.9703879
8.9918066
9.0132229
9.0346367
9.056048
9.0774568
9.0988632
9.1202672
9.1416686
9.1630676
9.1844641
9.205858
9.2272494
9.2486383
9.2700247
9.2914086
9.3127899
9.3341688
9.3555451
9.3769188
9.39829
9.4196586
9.4410247
9.4623883
9.4837494
9.5051079
9.5264639
9.5478172
9.569168
9.5905162
9.611862
9.6332052
9.6545458
9.6758839
9.6972195
9.7185527
9.7398833
9.7612113
9.7825368
9.8038597
9.8251802
9.8464984
9.8678142
9.8891275
9.9104383
9.9317467
9.9530526
9.9743562
9.9956574
10.016956
10.038253
10.059548
10.08084
10.10213
10.123417
10.144703
10.165986
10.187268
10.208547
10.229825
10.2511
10.272374
10.293645
10.314915
10.336183
10.35745
10.378714
10.399978
10.421239
10.4425
10.463758
10.485016
10.506272
10.527527
10.548782
10.570035
10.591287
10.612538
10.633789
10.655039
10.676289
10.697539
10.718788
10.740037
10.761286
10.782535
10.803784
10.825034
10.846284
10.867535
10.888786
10.910039
10.931293
10.952548
10.973805
10.995063
11.016323
11.037585
11.058849
11.080116
11.101386
11.122658
11.143934
11.165212
11.186495
11.207781
11.229071
11.250365
11.271665
11.292969
11.314278
11.335592
11.356912
11.378239
11.399571
11.420911
11.442257
11.463611
11.484972
11.506342
11.52772
11.549107
11.570503
11.591908
11.613324
11.63475
11.656187
11.677635
11.699095
11.720567
11.742052
11.76355
11.785062
11.806588
11.828129
11.849684
11.871256
11.892844
11.914448
11.93607
11.95771
11.979369
12.001047
12.022745
12.044463
12.066202
12.087963
12.109746
12.131553
12.153383
12.175238
12.197118
12.219024
12.240956
12.262916
12.284905
12.306922
12.328968
12.351046
12.373154
12.395295
12.417469
12.439677
12.461919
12.484197
12.506512
12.528863
12.551253
12.573682
12.596152
12.618662
12.641214
12.663808
12.686447
12.709131
12.73186
12.754636
12.77746
12.800332
12.823254
12.846227
12.869252
12.89233
12.915462
12.938648
12.96189
12.98519
13.008547
13.031964
13.055441
13.078979
13.10258
13.126244
13.149972
13.173766
13.197627
13.221556
13.245554
13.269621
13.29376
13.31797
13.342254
13.366612
13.391046
13.415556
13.440144
13.46481
13.489556
13.514382
13.539291
13.564282
13.589357
13.614517
13.639763
13.665096
13.690517
13.716027
13.741627
13.767318
13.793101
13.818977
13.844946
13.871011
13.897171
13.923427
13.949781
13.976233
14.002785
14.029437
14.056189
14.083043
14.11
14.13706
14.164224
14.191493
14.218867
14.246347
14.273935
14.301629
14.329432
14.357344
14.385365
14.413497
14.441739
14.470091
14.498556
14.527132
14.555822
14.584624
14.613539
14.642568
14.671712
14.70097
14.730343
14.759831
14.789435
14.819154
14.848989
14.878941
14.909009
14.939193
14.969493
14.999911
15.030445
15.061097
15.091865
15.122749
15.153751
15.18487
15.216105
15.247457
15.278926
15.310511
15.342212
15.374029
15.405962
15.438011
15.470175
15.502454
15.534848
15.567356
15.599978
15.632714
15.665564
15.698526
15.7316
15.764787
15.798085
15.831494
15.865013
15.898643
15.932381
15.966229
16.000184
16.034248
16.068418
16.102694
16.137076
16.171563
16.206154
16.240848
16.275646
16.310545
16.345545
16.380646
16.415847
16.451146
16.486544
16.522038
16.557629
16.593316
16.629097
16.664972
16.700939
16.736999
16.77315
16.809391
16.845721
16.882139
16.918645
16.955237
16.991915
17.028677
17.065523
17.102451
17.139461
17.176551
17.213721
17.25097
17.288296
17.325699
17.363177
17.400731
17.438358
17.476057
17.513828
17.55167
17.589582
17.627562
17.66561
17.703725
17.741905
17.78015
17.818458
17.856829
17.895262
17.933756
17.972309
18.010922
18.049591
18.088318
18.127101
18.165938
18.20483
18.243774
18.28277
18.321818
18.360916
18.400063
18.439258
18.478501
18.517791
18.557126
18.596506
18.635929
18.675396
18.714905
18.754455
18.794046
18.833676
18.873345
18.913052
18.952797
18.992577
19.032394
19.072245
19.11213
19.152048
19.191999
19.231981
19.271994
19.312038
19.352112
19.392214
19.432344
19.472502
19.512686
19.552897
19.593133
19.633394
19.673679
19.713988
19.754319
19.794671
19.835044
19.87544
19.915857
19.956294
19.99675
20.037225
20.077719
20.11823
20.158759
20.199304
20.239866
20.280443
20.321036
20.361643
20.402264
20.442899
20.483548
20.52421
20.564884
20.60557
20.646267
20.686976
20.727695
20.768425
20.809165
20.849915
20.890674
20.931441
20.972217
21.013002
21.053794
21.094593
21.1354
21.176213
21.217032
21.257858
21.29869
21.339526
21.380368
21.421215
21.462066
21.502921
21.54378
21.584642
21.625506
21.666372
21.707238
21.748102
21.788963
21.829813
21.870654
21.91148
21.952292
21.99311
22.033951
22.07484
22.115794
22.156812
22.197866
22.238929
22.279917
22.320691
22.361452
22.40226
22.44314
22.484071
22.525028
22.565921
22.606764
22.647616
22.688483
22.729362
22.77024
22.8111
22.851955
22.892809
22.93366
22.974508
23.015352
23.05619
23.097023
23.137851
23.178674
23.21949
23.2603
23.301103
23.3419
23.38269
23.423473
23.464249
23.505018
23.54578
23.586535
23.627282
23.66802
23.708749
23.749468
23.790176
23.830874
23.87156
23.912236
23.952901
23.993556
24.034202
24.074838
24.115463
24.156078
24.196681
24.23727
24.277844
24.318401
24.358942
24.399465
24.439972
24.480464
24.520942
24.561408
24.601863
24.642305
24.682735
24.723148
24.763542
24.803913
24.844259
24.884577
24.924868
24.965134
25.005377
25.0456
25.085806
25.125997
25.166168
25.206317
25.246434
25.286513
25.326547
25.366531
25.406468
25.446362
25.486213
25.526026
25.565796
25.605492
25.645147
25.684739
25.724304
25.763874
25.803447
25.843028
25.882568
25.921967
25.961265
26.000473
26.039613
26.078739
26.117934
26.157298
26.196979
26.23742
26.281381
26.31936
26.353001
26.391214
26.432293
26.471543
26.510712
26.550359
26.590017
26.629457
26.668853
26.708134
26.747283
26.786309
26.825228
26.864048
26.902781
26.941443
26.980044
27.018585
27.057072
27.095506
27.133882
27.172195
27.210439
27.248619
27.286734
27.324781
27.362766
27.400694
27.438567
27.476383
27.514111
27.551789
27.589462
27.627067
27.664582
27.702038
27.739431
27.776757
27.814017
27.851209
27.888334
27.925391
27.96238
27.999302
28.036155
28.072939
28.109653
28.146296
28.182868
28.219366
28.255791
28.292141
28.328416
28.364614
28.400737
28.436782
28.472751
28.508641
28.544454
28.580188
28.615842
28.651416
28.686909
28.72232
28.757649
28.792895
28.828058
28.863137
28.898132
28.933042
28.967866
29.002605
29.037258
29.071823
29.106302
29.140693
29.174995
29.209209
29.243334
29.277369
29.311314
29.345169
29.378934
29.412607
29.446189
29.479679
29.513078
29.546384
29.579597
29.612717
29.645745
29.678678
29.711518
29.744265
29.776917
29.809475
29.841938
29.874307
29.906581
29.93876
29.970844
30.002833
30.034727
30.066525
30.098229
30.129836
30.161348
30.192765
30.224087
30.255313
30.286444
30.31748
30.348421
30.379266
30.410017
30.440673
30.471233
30.5017
30.532072
30.562349
30.592533
30.622623
30.652619
30.682522
30.712332
30.74205
30.771674
30.801207
30.830647
30.859996
30.889254
30.918422
30.947498
30.976485
31.005382
31.03419
31.062909
31.09154
31.120083
31.148539
31.176908
31.20519
31.233387
31.261498
31.289525
31.317467
31.345325
31.3731
31.400793
31.428404
31.455934
31.483383
31.510751
31.538041
31.565251
31.592383
31.619438
31.646415
31.673317
31.700143
31.726894
31.753572
31.780175
31.806707
31.833166
31.859554
31.885871
31.912119
31.938298
31.964408
31.990451
32.016427
32.042337
32.068182
32.093962
32.119679
32.145333
32.170924
32.196454
32.221924
32.247333
32.272683
32.297976
32.32321
32.348388
32.373511
32.398577
32.42359
32.448548
32.473454
32.498309
32.523111
32.547864
32.572566
32.59722
32.621825
32.646383
32.670895
32.69536
32.71978
32.744156
32.768488
32.792778
32.817025
32.841231
32.865396
32.889521
32.913607
32.937655
32.961664
32.985637
33.009573
33.033473
33.057338
33.081169
33.104966
33.128731
33.152463
33.176163
33.199832
33.22347
33.247079
33.270659
33.29421
33.317734
33.341229
33.364699
33.388142
33.411559
33.434952
33.45832
33.481665
33.504986
33.528284
33.55156
33.574814
33.598047
33.62126
33.644452
33.667625
33.690779
33.713914
33.73703
33.760129
33.783211
33.806276
33.829324
33.852356
33.875373
33.898375
33.921362
33.944335
33.967294
33.990239
34.013171
34.03609
34.058997
34.081892
34.104775
34.127647
34.150508
34.173358
34.196198
34.219028
34.241847
34.264658
34.287459
34.310252
34.333036
34.355811
34.378579
34.401339
34.424091
34.446836
34.469574
34.492305
34.51503
34.537748
34.560461
34.583167
34.605868
34.628563
34.651253