/*--------------------------------*- C++ -*----------------------------------*\
  =========                 |
  \\      /  F ield         | OpenFOAM: The Open Source CFD Toolbox
   \\    /   O peration     | Website:  https://openfoam.org
    \\  /    A nd           | Version:  7
     \\/     M anipulation  |
\*---------------------------------------------------------------------------*/
FoamFile
{
    version     2.0;
    format      ascii;
    class       volScalarField;
    location    "0.00118";
    object      rho;
}
// * * * * * * * * * * * * * * * * * * * * * * * * * * * * * * * * * * * * * //

dimensions      [1 -3 0 0 0 0 0];

internalField   nonuniform List<scalar> 
5000
(
1.4235637
1.4235637
1.4235637
1.4235637
1.4235637
1.4235637
1.4235637
1.4235637
1.4235637
1.4235637
1.4235637
1.4235637
1.4235637
1.4235637
1.4235637
1.4235637
1.4235637
1.4235637
1.4235637
1.4235637
1.4235637
1.4235637
1.4235637
1.4235637
1.4235637
1.4235637
1.4235637
1.4235637
1.4235637
1.4235637
1.4235637
1.4235637
1.4235637
1.4235637
1.4235637
1.4235637
1.4235637
1.4235637
1.4235637
1.4235637
1.4235637
1.4235637
1.4235637
1.4235637
1.4235637
1.4235637
1.4235637
1.4235637
1.4235637
1.4235637
1.4235637
1.4235637
1.4235637
1.4235637
1.4235637
1.4235637
1.4235637
1.4235637
1.4235637
1.4235637
1.4235637
1.4235637
1.4235637
1.4235637
1.4235637
1.4235637
1.4235637
1.4235637
1.4235637
1.4235637
1.4235637
1.4235637
1.4235637
1.4235637
1.4235637
1.4235637
1.4235637
1.4235637
1.4235637
1.4235637
1.4235637
1.4235637
1.4235637
1.4235637
1.4235637
1.4235637
1.4235637
1.4235637
1.4235637
1.4235637
1.4235637
1.4235637
1.4235637
1.4235637
1.4235637
1.4235637
1.4235637
1.4235637
1.4235637
1.4235637
1.4235637
1.4235637
1.4235637
1.4235636
1.4235636
1.4235636
1.4235636
1.4235636
1.4235636
1.4235636
1.4235636
1.4235636
1.4235636
1.4235636
1.4235636
1.4235636
1.4235636
1.4235636
1.4235636
1.4235636
1.4235636
1.4235636
1.4235636
1.4235636
1.4235636
1.4235636
1.4235636
1.4235636
1.4235636
1.4235636
1.4235636
1.4235636
1.4235636
1.4235636
1.4235636
1.4235636
1.4235635
1.4235635
1.4235635
1.4235635
1.4235635
1.4235635
1.4235635
1.4235635
1.4235635
1.4235635
1.4235634
1.4235634
1.4235634
1.4235634
1.4235634
1.4235634
1.4235633
1.4235633
1.4235633
1.4235633
1.4235633
1.4235632
1.4235632
1.4235632
1.4235632
1.4235631
1.4235631
1.4235631
1.423563
1.423563
1.4235629
1.4235629
1.4235629
1.4235628
1.4235628
1.4235627
1.4235627
1.4235626
1.4235625
1.4235625
1.4235624
1.4235623
1.4235623
1.4235622
1.4235621
1.423562
1.4235619
1.4235618
1.4235617
1.4235616
1.4235615
1.4235614
1.4235612
1.4235611
1.423561
1.4235608
1.4235606
1.4235605
1.4235603
1.4235601
1.4235599
1.4235597
1.4235595
1.4235593
1.4235591
1.4235588
1.4235586
1.4235583
1.423558
1.4235577
1.4235574
1.4235571
1.4235567
1.4235564
1.423556
1.4235556
1.4235552
1.4235548
1.4235543
1.4235538
1.4235533
1.4235528
1.4235523
1.4235517
1.4235511
1.4235505
1.4235498
1.4235491
1.4235484
1.4235477
1.4235469
1.4235461
1.4235452
1.4235443
1.4235434
1.4235424
1.4235414
1.4235403
1.4235392
1.423538
1.4235368
1.4235355
1.4235342
1.4235328
1.4235314
1.4235299
1.4235283
1.4235267
1.423525
1.4235232
1.4235214
1.4235194
1.4235174
1.4235153
1.4235132
1.4235109
1.4235085
1.4235061
1.4235035
1.4235008
1.4234981
1.4234952
1.4234922
1.4234891
1.4234859
1.4234825
1.423479
1.4234754
1.4234716
1.4234677
1.4234636
1.4234594
1.423455
1.4234504
1.4234457
1.4234408
1.4234357
1.4234305
1.423425
1.4234193
1.4234135
1.4234074
1.4234011
1.4233945
1.4233878
1.4233807
1.4233735
1.423366
1.4233582
1.4233501
1.4233418
1.4233332
1.4233243
1.4233151
1.4233055
1.4232957
1.4232855
1.423275
1.4232641
1.4232529
1.4232413
1.4232293
1.4232169
1.4232041
1.423191
1.4231774
1.4231633
1.4231489
1.4231339
1.4231185
1.4231027
1.4230863
1.4230695
1.4230521
1.4230342
1.4230158
1.4229968
1.4229772
1.4229571
1.4229364
1.4229151
1.4228932
1.4228706
1.4228474
1.4228236
1.422799
1.4227738
1.4227479
1.4227213
1.4226939
1.4226658
1.4226369
1.4226073
1.4225769
1.4225456
1.4225136
1.4224807
1.4224469
1.4224123
1.4223768
1.4223404
1.4223031
1.4222648
1.4222256
1.4221854
1.4221443
1.4221021
1.4220589
1.4220147
1.4219695
1.4219231
1.4218757
1.4218272
1.4217776
1.4217268
1.4216749
1.4216219
1.4215676
1.4215121
1.4214555
1.4213975
1.4213384
1.4212779
1.4212162
1.4211532
1.4210888
1.4210232
1.4209561
1.4208877
1.420818
1.4207468
1.4206742
1.4206002
1.4205247
1.4204478
1.4203694
1.4202895
1.420208
1.4201251
1.4200406
1.4199546
1.419867
1.4197778
1.4196871
1.4195947
1.4195007
1.4194051
1.4193078
1.4192089
1.4191082
1.4190059
1.4189019
1.4187962
1.4186888
1.4185796
1.4184687
1.4183561
1.4182416
1.4181254
1.4180074
1.4178876
1.417766
1.4176426
1.4175174
1.4173904
1.4172615
1.4171307
1.4169981
1.4168637
1.4167273
1.4165891
1.416449
1.4163071
1.4161632
1.4160175
1.4158698
1.4157203
1.4155688
1.4154154
1.4152601
1.4151029
1.4149437
1.4147827
1.4146197
1.4144547
1.4142879
1.4141191
1.4139484
1.4137757
1.4136011
1.4134246
1.4132462
1.4130658
1.4128835
1.4126993
1.4125131
1.4123251
1.4121351
1.4119432
1.4117494
1.4115536
1.411356
1.4111565
1.4109551
1.4107517
1.4105465
1.4103395
1.4101305
1.4099197
1.409707
1.4094925
1.4092761
1.4090579
1.4088378
1.408616
1.4083923
1.4081668
1.4079395
1.4077104
1.4074796
1.4072469
1.4070126
1.4067764
1.4065385
1.4062989
1.4060576
1.4058146
1.4055699
1.4053235
1.4050754
1.4048257
1.4045743
1.4043212
1.4040666
1.4038104
1.4035525
1.4032931
1.4030321
1.4027695
1.4025054
1.4022397
1.4019726
1.4017039
1.4014338
1.4011622
1.4008891
1.4006146
1.4003387
1.4000613
1.3997826
1.3995024
1.3992209
1.3989381
1.3986539
1.3983684
1.3980816
1.3977935
1.3975041
1.3972135
1.3969217
1.3966286
1.3963343
1.3960389
1.3957422
1.3954445
1.3951456
1.3948455
1.3945444
1.3942422
1.3939389
1.3936346
1.3933292
1.3930228
1.3927155
1.3924071
1.3920978
1.3917876
1.3914764
1.3911644
1.3908514
1.3905376
1.3902229
1.3899074
1.3895911
1.389274
1.3889562
1.3886375
1.3883182
1.3879981
1.3876773
1.3873559
1.3870337
1.386711
1.3863876
1.3860636
1.385739
1.3854139
1.3850882
1.384762
1.3844353
1.3841081
1.3837804
1.3834523
1.3831238
1.3827948
1.3824655
1.3821358
1.3818057
1.3814753
1.3811446
1.3808136
1.3804824
1.3801509
1.3798191
1.3794872
1.379155
1.3788227
1.3784903
1.3781577
1.377825
1.3774922
1.3771593
1.3768264
1.3764935
1.3761606
1.3758276
1.3754947
1.3751619
1.3748291
1.3744965
1.3741639
1.3738315
1.3734992
1.3731672
1.3728353
1.3725036
1.3721722
1.3718411
1.3715102
1.3711796
1.3708494
1.3705195
1.37019
1.3698608
1.3695321
1.3692038
1.3688759
1.3685486
1.3682217
1.3678953
1.3675695
1.3672443
1.3669196
1.3665955
1.3662721
1.3659493
1.3656271
1.3653057
1.3649849
1.3646649
1.3643457
1.3640272
1.3637095
1.3633926
1.3630766
1.3627615
1.3624472
1.3621338
1.3618214
1.3615099
1.3611994
1.3608898
1.3605813
1.3602738
1.3599674
1.3596621
1.3593579
1.3590547
1.3587528
1.358452
1.3581523
1.3578539
1.3575568
1.3572608
1.3569662
1.3566728
1.3563808
1.3560901
1.3558007
1.3555128
1.3552262
1.3549411
1.3546574
1.3543751
1.3540944
1.3538151
1.3535374
1.3532612
1.3529866
1.3527135
1.3524421
1.3521723
1.3519041
1.3516376
1.3513728
1.3511096
1.3508482
1.3505886
1.3503306
1.3500745
1.3498202
1.3495676
1.3493169
1.3490681
1.348821
1.3485759
1.3483327
1.3480914
1.347852
1.3476145
1.347379
1.3471455
1.346914
1.3466845
1.346457
1.3462315
1.346008
1.3457867
1.3455673
1.3453501
1.345135
1.3449219
1.344711
1.3445022
1.3442955
1.344091
1.3438887
1.3436885
1.3434904
1.3432946
1.3431009
1.3429095
1.3427202
1.3425332
1.3423483
1.3421657
1.3419853
1.3418071
1.3416312
1.3414574
1.341286
1.3411167
1.3409497
1.3407849
1.3406224
1.3404621
1.340304
1.3401482
1.3399946
1.3398432
1.3396941
1.3395472
1.3394025
1.33926
1.3391197
1.3389817
1.3388458
1.3387121
1.3385806
1.3384513
1.3383241
1.3381991
1.3380762
1.3379555
1.3378368
1.3377203
1.3376059
1.3374936
1.3373833
1.3372752
1.337169
1.3370649
1.3369628
1.3368627
1.3367646
1.3366684
1.3365742
1.3364819
1.3363915
1.3363031
1.3362165
1.3361318
1.3360489
1.3359678
1.3358885
1.335811
1.3357353
1.3356613
1.335589
1.3355184
1.3354494
1.3353822
1.3353165
1.3352525
1.33519
1.3351291
1.3350697
1.3350118
1.3349555
1.3349006
1.3348471
1.334795
1.3347444
1.3346951
1.3346472
1.3346005
1.3345552
1.3345112
1.3344684
1.3344268
1.3343864
1.3343472
1.3343092
1.3342723
1.3342365
1.3342018
1.3341682
1.3341355
1.3341039
1.3340733
1.3340437
1.334015
1.3339873
1.3339604
1.3339345
1.3339093
1.3338851
1.3338616
1.333839
1.3338171
1.3337959
1.3337756
1.3337559
1.3337369
1.3337186
1.333701
1.333684
1.3336676
1.3336518
1.3336366
1.333622
1.3336079
1.3335944
1.3335814
1.3335689
1.3335569
1.3335453
1.3335342
1.3335236
1.3335133
1.3335035
1.3334941
1.3334851
1.3334764
1.3334681
1.3334602
1.3334526
1.3334453
1.3334383
1.3334317
1.3334253
1.3334192
1.3334133
1.3334078
1.3334024
1.3333973
1.3333925
1.3333879
1.3333834
1.3333792
1.3333752
1.3333714
1.3333677
1.3333642
1.3333609
1.3333578
1.3333548
1.3333519
1.3333492
1.3333466
1.3333441
1.3333418
1.3333396
1.3333375
1.3333355
1.3333336
1.3333318
1.3333301
1.3333285
1.333327
1.3333255
1.3333242
1.3333229
1.3333216
1.3333205
1.3333194
1.3333183
1.3333174
1.3333164
1.3333156
1.3333147
1.333314
1.3333132
1.3333125
1.3333119
1.3333113
1.3333107
1.3333101
1.3333096
1.3333091
1.3333087
1.3333083
1.3333079
1.3333075
1.3333071
1.3333068
1.3333065
1.3333062
1.3333059
1.3333057
1.3333054
1.3333052
1.333305
1.3333048
1.3333047
1.3333045
1.3333043
1.3333042
1.3333041
1.333304
1.3333039
1.3333038
1.3333037
1.3333036
1.3333035
1.3333035
1.3333034
1.3333034
1.3333033
1.3333033
1.3333032
1.3333032
1.3333031
1.333303
1.3333029
1.3333028
1.3333028
1.3333027
1.3333026
1.3333025
1.3333024
1.3333023
1.3333022
1.3333021
1.333302
1.3333019
1.3333018
1.3333017
1.3333016
1.3333015
1.3333014
1.3333014
1.3333013
1.3333012
1.3333011
1.333301
1.3333009
1.3333008
1.3333007
1.3333007
1.3333006
1.3333005
1.3333004
1.3333003
1.3333003
1.3333002
1.3333001
1.3333001
1.3333
1.3333
1.3332999
1.3332999
1.3332999
1.3332998
1.3332998
1.3332998
1.3332997
1.3332997
1.3332997
1.3332997
1.3332996
1.3332996
1.3332995
1.3332995
1.3332994
1.3332993
1.3332993
1.3332992
1.3332991
1.3332991
1.333299
1.333299
1.3332989
1.3332989
1.3332988
1.3332987
1.3332986
1.3332986
1.3332986
1.3332985
1.3332984
1.3332984
1.3332983
1.3332983
1.3332982
1.3332981
1.3332981
1.3332981
1.333298
1.3332979
1.3332979
1.3332979
1.3332978
1.3332978
1.3332977
1.3332977
1.3332976
1.3332976
1.3332976
1.3332975
1.3332975
1.3332974
1.3332974
1.3332973
1.3332973
1.3332972
1.3332972
1.3332971
1.333297
1.3332969
1.3332969
1.3332968
1.3332968
1.3332968
1.3332967
1.3332967
1.3332967
1.3332967
1.3332966
1.3332966
1.3332965
1.3332965
1.3332964
1.3332964
1.3332964
1.3332963
1.3332963
1.3332962
1.3332962
1.3332961
1.333296
1.333296
1.3332959
1.3332959
1.3332958
1.3332958
1.3332957
1.3332957
1.3332957
1.3332956
1.3332956
1.3332956
1.3332956
1.3332955
1.3332955
1.3332955
1.3332955
1.3332955
1.3332955
1.3332954
1.3332954
1.3332954
1.3332954
1.3332954
1.3332954
1.3332953
1.3332953
1.3332952
1.3332952
1.3332952
1.3332951
1.3332951
1.333295
1.333295
1.3332949
1.3332949
1.3332948
1.3332948
1.3332948
1.3332947
1.3332947
1.3332946
1.3332946
1.3332946
1.3332945
1.3332945
1.3332945
1.3332945
1.3332945
1.3332945
1.3332945
1.3332944
1.3332944
1.3332944
1.3332943
1.3332943
1.3332943
1.3332943
1.3332943
1.3332942
1.3332942
1.3332942
1.3332942
1.3332942
1.3332941
1.3332941
1.3332941
1.3332941
1.3332941
1.3332941
1.3332941
1.3332941
1.333294
1.333294
1.333294
1.333294
1.333294
1.333294
1.333294
1.3332939
1.3332939
1.3332939
1.3332939
1.3332939
1.3332939
1.3332939
1.3332938
1.3332938
1.3332938
1.3332938
1.3332938
1.3332938
1.3332938
1.3332938
1.3332937
1.3332937
1.3332937
1.3332937
1.3332937
1.3332936
1.3332936
1.3332936
1.3332936
1.3332936
1.3332936
1.3332936
1.3332936
1.3332936
1.3332935
1.3332935
1.3332935
1.3332935
1.3332935
1.3332935
1.3332935
1.3332934
1.3332934
1.3332934
1.3332934
1.3332934
1.3332933
1.3332933
1.3332933
1.3332933
1.3332933
1.3332932
1.3332932
1.3332932
1.3332932
1.3332932
1.3332931
1.3332931
1.3332931
1.3332931
1.3332931
1.3332931
1.3332931
1.3332931
1.3332931
1.3332931
1.3332931
1.3332931
1.3332931
1.3332931
1.3332931
1.3332931
1.3332931
1.3332931
1.3332931
1.3332931
1.3332931
1.3332931
1.3332931
1.3332931
1.3332931
1.3332931
1.3332931
1.3332932
1.3332932
1.3332932
1.3332932
1.3332932
1.3332932
1.3332932
1.3332932
1.3332932
1.3332932
1.3332932
1.3332932
1.3332932
1.3332932
1.3332932
1.3332932
1.3332932
1.3332932
1.3332932
1.3332932
1.3332932
1.3332932
1.3332932
1.3332932
1.3332932
1.3332932
1.3332932
1.3332932
1.3332932
1.3332932
1.3332932
1.3332932
1.3332932
1.3332931
1.3332931
1.3332931
1.3332931
1.3332931
1.3332931
1.3332931
1.3332931
1.3332931
1.3332931
1.3332931
1.3332931
1.3332931
1.3332931
1.3332931
1.3332931
1.3332931
1.3332931
1.3332931
1.3332931
1.3332931
1.3332931
1.3332931
1.3332931
1.3332931
1.3332931
1.3332931
1.3332931
1.3332931
1.3332931
1.3332931
1.3332931
1.3332931
1.3332932
1.3332932
1.3332932
1.3332932
1.3332931
1.3332932
1.3332932
1.3332932
1.3332932
1.3332931
1.3332931
1.3332931
1.3332932
1.3332932
1.3332932
1.3332932
1.3332932
1.3332932
1.3332932
1.3332932
1.3332932
1.3332932
1.3332932
1.3332932
1.3332932
1.3332932
1.3332932
1.3332932
1.3332932
1.3332932
1.3332932
1.3332932
1.3332932
1.3332932
1.3332932
1.3332932
1.3332932
1.3332932
1.3332932
1.3332932
1.3332932
1.3332932
1.3332932
1.3332932
1.3332932
1.3332932
1.3332932
1.3332932
1.3332932
1.3332932
1.3332932
1.3332933
1.3332933
1.3332933
1.3332933
1.3332933
1.3332933
1.3332932
1.3332932
1.3332933
1.3332933
1.3332933
1.3332933
1.3332933
1.3332932
1.3332932
1.3332932
1.3332932
1.3332932
1.3332932
1.3332932
1.3332932
1.3332932
1.3332932
1.3332932
1.3332932
1.3332932
1.3332932
1.3332932
1.3332932
1.3332932
1.3332932
1.3332932
1.3332932
1.3332932
1.3332932
1.3332932
1.3332932
1.3332932
1.3332932
1.3332932
1.3332932
1.3332932
1.3332932
1.3332932
1.3332932
1.3332932
1.3332932
1.3332932
1.3332932
1.3332931
1.3332931
1.3332931
1.3332931
1.3332931
1.3332931
1.3332931
1.3332931
1.3332931
1.3332931
1.3332931
1.3332931
1.3332931
1.3332931
1.3332931
1.3332931
1.3332931
1.3332931
1.3332931
1.3332931
1.3332931
1.3332931
1.3332931
1.3332931
1.3332931
1.3332931
1.3332931
1.3332931
1.3332931
1.3332931
1.3332931
1.3332931
1.3332931
1.333293
1.333293
1.333293
1.333293
1.333293
1.333293
1.333293
1.333293
1.333293
1.333293
1.333293
1.333293
1.333293
1.333293
1.333293
1.333293
1.333293
1.333293
1.333293
1.333293
1.333293
1.333293
1.333293
1.333293
1.333293
1.333293
1.3332929
1.3332929
1.3332929
1.3332929
1.3332929
1.3332929
1.3332929
1.3332929
1.3332929
1.3332929
1.3332929
1.3332929
1.3332929
1.3332929
1.3332929
1.3332929
1.3332929
1.3332929
1.3332928
1.3332928
1.3332928
1.3332928
1.3332928
1.3332928
1.3332928
1.3332928
1.3332928
1.3332928
1.3332928
1.3332928
1.3332928
1.3332928
1.3332928
1.3332928
1.3332928
1.3332928
1.3332927
1.3332927
1.3332927
1.3332927
1.3332927
1.3332927
1.3332927
1.3332927
1.3332927
1.3332927
1.3332927
1.3332927
1.3332927
1.3332927
1.3332927
1.3332927
1.3332927
1.3332927
1.3332927
1.3332927
1.3332927
1.3332927
1.3332926
1.3332926
1.3332926
1.3332926
1.3332926
1.3332926
1.3332926
1.3332926
1.3332926
1.3332926
1.3332926
1.3332926
1.3332926
1.3332926
1.3332926
1.3332926
1.3332926
1.3332926
1.3332926
1.3332926
1.3332925
1.3332925
1.3332925
1.3332925
1.3332925
1.3332925
1.3332925
1.3332925
1.3332925
1.3332925
1.3332925
1.3332925
1.3332925
1.3332925
1.3332925
1.3332925
1.3332925
1.3332925
1.3332925
1.3332925
1.3332924
1.3332924
1.3332924
1.3332924
1.3332924
1.3332924
1.3332924
1.3332924
1.3332924
1.3332924
1.3332924
1.3332924
1.3332923
1.3332923
1.3332923
1.3332923
1.3332923
1.3332923
1.3332923
1.3332923
1.3332923
1.3332923
1.3332923
1.3332923
1.3332922
1.3332922
1.3332922
1.3332922
1.3332922
1.3332922
1.3332922
1.3332922
1.3332922
1.3332922
1.3332922
1.3332921
1.3332921
1.3332921
1.3332921
1.3332921
1.3332921
1.3332921
1.3332921
1.3332921
1.3332921
1.333292
1.333292
1.333292
1.333292
1.333292
1.333292
1.333292
1.333292
1.333292
1.333292
1.333292
1.3332919
1.3332919
1.3332919
1.3332919
1.3332919
1.3332919
1.3332919
1.3332919
1.3332919
1.3332919
1.3332919
1.3332919
1.3332919
1.3332919
1.3332918
1.3332918
1.3332918
1.3332918
1.3332918
1.3332918
1.3332918
1.3332918
1.3332918
1.3332918
1.3332918
1.3332918
1.3332918
1.3332917
1.3332917
1.3332917
1.3332917
1.3332917
1.3332917
1.3332917
1.3332917
1.3332917
1.3332917
1.3332916
1.3332916
1.3332916
1.3332916
1.3332916
1.3332916
1.3332916
1.3332916
1.3332916
1.3332916
1.3332916
1.3332916
1.3332916
1.3332915
1.3332915
1.3332915
1.3332915
1.3332915
1.3332915
1.3332915
1.3332915
1.3332915
1.3332915
1.3332915
1.3332914
1.3332914
1.3332914
1.3332914
1.3332914
1.3332914
1.3332914
1.3332914
1.3332914
1.3332914
1.3332914
1.3332913
1.3332913
1.3332913
1.3332913
1.3332913
1.3332913
1.3332913
1.3332913
1.3332913
1.3332913
1.3332913
1.3332913
1.3332912
1.3332912
1.3332912
1.3332912
1.3332912
1.3332912
1.3332912
1.3332912
1.3332912
1.3332912
1.3332911
1.3332911
1.3332911
1.3332911
1.3332911
1.3332911
1.3332911
1.3332911
1.3332911
1.3332911
1.333291
1.333291
1.333291
1.333291
1.333291
1.333291
1.333291
1.333291
1.333291
1.3332909
1.3332909
1.3332909
1.3332909
1.3332909
1.3332909
1.3332909
1.3332909
1.3332908
1.3332908
1.3332908
1.3332908
1.3332908
1.3332908
1.3332908
1.3332908
1.3332908
1.3332907
1.3332907
1.3332907
1.3332907
1.3332907
1.3332907
1.3332907
1.3332907
1.3332907
1.3332906
1.3332906
1.3332906
1.3332906
1.3332906
1.3332906
1.3332906
1.3332906
1.3332906
1.3332905
1.3332905
1.3332905
1.3332905
1.3332905
1.3332905
1.3332905
1.3332905
1.3332905
1.3332904
1.3332904
1.3332904
1.3332904
1.3332904
1.3332904
1.3332904
1.3332904
1.3332904
1.3332904
1.3332904
1.3332903
1.3332903
1.3332903
1.3332903
1.3332903
1.3332903
1.3332903
1.3332903
1.3332902
1.3332902
1.3332902
1.3332902
1.3332902
1.3332902
1.3332902
1.3332902
1.3332902
1.3332901
1.3332901
1.3332901
1.3332901
1.3332901
1.3332901
1.3332901
1.3332901
1.33329
1.33329
1.33329
1.33329
1.33329
1.33329
1.33329
1.33329
1.3332899
1.3332899
1.3332899
1.3332899
1.3332899
1.3332899
1.3332899
1.3332899
1.3332898
1.3332898
1.3332898
1.3332898
1.3332898
1.3332898
1.3332898
1.3332897
1.3332897
1.3332897
1.3332897
1.3332897
1.3332897
1.3332897
1.3332896
1.3332896
1.3332896
1.3332896
1.3332896
1.3332896
1.3332896
1.3332895
1.3332895
1.3332895
1.3332895
1.3332895
1.3332895
1.3332895
1.3332894
1.3332894
1.3332894
1.3332894
1.3332894
1.3332894
1.3332894
1.3332893
1.3332893
1.3332893
1.3332893
1.3332893
1.3332893
1.3332892
1.3332892
1.3332892
1.3332892
1.3332892
1.3332892
1.3332892
1.3332891
1.3332891
1.3332891
1.3332891
1.3332891
1.3332891
1.333289
1.333289
1.333289
1.333289
1.333289
1.333289
1.3332889
1.3332889
1.3332889
1.3332889
1.3332889
1.3332889
1.3332889
1.3332888
1.3332888
1.3332888
1.3332888
1.3332888
1.3332887
1.3332887
1.3332887
1.3332887
1.3332887
1.3332886
1.3332886
1.3332886
1.3332886
1.3332886
1.3332886
1.3332885
1.3332885
1.3332885
1.3332885
1.3332885
1.3332885
1.3332884
1.3332884
1.3332884
1.3332884
1.3332884
1.3332884
1.3332883
1.3332883
1.3332883
1.3332883
1.3332883
1.3332883
1.3332882
1.3332882
1.3332882
1.3332882
1.3332882
1.3332881
1.3332881
1.3332881
1.3332881
1.3332881
1.3332881
1.333288
1.333288
1.333288
1.333288
1.333288
1.3332879
1.3332879
1.3332879
1.3332879
1.3332879
1.3332878
1.3332878
1.3332878
1.3332878
1.3332878
1.3332878
1.3332877
1.3332877
1.3332877
1.3332877
1.3332877
1.3332876
1.3332876
1.3332876
1.3332876
1.3332876
1.3332875
1.3332875
1.3332875
1.3332875
1.3332875
1.3332875
1.3332874
1.3332874
1.3332874
1.3332874
1.3332874
1.3332873
1.3332873
1.3332873
1.3332873
1.3332873
1.3332872
1.3332872
1.3332872
1.3332872
1.3332872
1.3332871
1.3332871
1.3332871
1.3332871
1.3332871
1.3332871
1.333287
1.333287
1.333287
1.333287
1.3332869
1.3332869
1.3332869
1.3332869
1.3332869
1.3332868
1.3332868
1.3332868
1.3332868
1.3332868
1.3332867
1.3332867
1.3332867
1.3332867
1.3332867
1.3332866
1.3332866
1.3332866
1.3332866
1.3332866
1.3332865
1.3332865
1.3332865
1.3332865
1.3332865
1.3332864
1.3332864
1.3332864
1.3332864
1.3332864
1.3332863
1.3332863
1.3332863
1.3332863
1.3332862
1.3332862
1.3332862
1.3332862
1.3332861
1.3332861
1.3332861
1.3332861
1.3332861
1.333286
1.333286
1.333286
1.333286
1.3332859
1.3332859
1.3332859
1.3332859
1.3332858
1.3332858
1.3332858
1.3332858
1.3332857
1.3332857
1.3332857
1.3332857
1.3332857
1.3332856
1.3332856
1.3332856
1.3332855
1.3332855
1.3332855
1.3332855
1.3332854
1.3332854
1.3332854
1.3332854
1.3332853
1.3332853
1.3332853
1.3332853
1.3332852
1.3332852
1.3332852
1.3332852
1.3332851
1.3332851
1.3332851
1.3332851
1.333285
1.333285
1.333285
1.333285
1.3332849
1.3332849
1.3332849
1.3332849
1.3332848
1.3332848
1.3332848
1.3332848
1.3332847
1.3332847
1.3332847
1.3332846
1.3332846
1.3332846
1.3332846
1.3332845
1.3332845
1.3332845
1.3332845
1.3332844
1.3332844
1.3332844
1.3332844
1.3332843
1.3332843
1.3332843
1.3332842
1.3332842
1.3332842
1.3332841
1.3332841
1.3332841
1.3332841
1.333284
1.333284
1.333284
1.3332839
1.3332839
1.3332839
1.3332839
1.3332838
1.3332838
1.3332838
1.3332837
1.3332837
1.3332837
1.3332837
1.3332836
1.3332836
1.3332836
1.3332835
1.3332835
1.3332835
1.3332834
1.3332834
1.3332834
1.3332834
1.3332833
1.3332833
1.3332833
1.3332833
1.3332832
1.3332832
1.3332832
1.3332831
1.3332831
1.333283
1.333283
1.333283
1.3332829
1.3332829
1.3332829
1.3332829
1.3332828
1.3332828
1.3332828
1.3332827
1.3332827
1.3332827
1.3332826
1.3332826
1.3332826
1.3332825
1.3332825
1.3332825
1.3332824
1.3332824
1.3332824
1.3332823
1.3332823
1.3332823
1.3332822
1.3332822
1.3332822
1.3332821
1.3332821
1.3332821
1.333282
1.333282
1.333282
1.3332819
1.3332819
1.3332819
1.3332818
1.3332818
1.3332818
1.3332817
1.3332817
1.3332816
1.3332816
1.3332816
1.3332815
1.3332815
1.3332815
1.3332814
1.3332814
1.3332814
1.3332813
1.3332813
1.3332812
1.3332812
1.3332812
1.3332811
1.3332811
1.333281
1.333281
1.333281
1.3332809
1.3332809
1.3332809
1.3332808
1.3332808
1.3332807
1.3332807
1.3332807
1.3332806
1.3332806
1.3332805
1.3332805
1.3332805
1.3332804
1.3332804
1.3332803
1.3332803
1.3332803
1.3332802
1.3332802
1.3332801
1.3332801
1.3332801
1.33328
1.33328
1.3332799
1.3332799
1.3332798
1.3332798
1.3332798
1.3332797
1.3332797
1.3332796
1.3332796
1.3332795
1.3332795
1.3332795
1.3332794
1.3332794
1.3332793
1.3332793
1.3332792
1.3332792
1.3332792
1.3332791
1.3332791
1.333279
1.333279
1.333279
1.3332789
1.3332789
1.3332788
1.3332788
1.3332787
1.3332787
1.3332786
1.3332786
1.3332785
1.3332785
1.3332784
1.3332784
1.3332783
1.3332783
1.3332782
1.3332782
1.3332782
1.3332781
1.3332781
1.333278
1.333278
1.3332779
1.3332779
1.3332778
1.3332778
1.3332777
1.3332777
1.3332776
1.3332776
1.3332775
1.3332775
1.3332774
1.3332774
1.3332773
1.3332773
1.3332772
1.3332772
1.3332771
1.3332771
1.333277
1.333277
1.3332769
1.3332769
1.3332768
1.3332768
1.3332767
1.3332766
1.3332766
1.3332765
1.3332765
1.3332764
1.3332764
1.3332763
1.3332763
1.3332762
1.3332762
1.3332761
1.3332761
1.333276
1.333276
1.3332759
1.3332758
1.3332758
1.3332757
1.3332757
1.3332756
1.3332755
1.3332755
1.3332754
1.3332754
1.3332753
1.3332752
1.3332752
1.3332751
1.3332751
1.333275
1.3332749
1.3332749
1.3332748
1.3332748
1.3332747
1.3332746
1.3332746
1.3332745
1.3332744
1.3332744
1.3332743
1.3332743
1.3332742
1.3332741
1.3332741
1.333274
1.3332739
1.3332739
1.3332738
1.3332737
1.3332737
1.3332736
1.3332735
1.3332735
1.3332734
1.3332733
1.3332733
1.3332732
1.3332731
1.3332731
1.333273
1.3332729
1.3332728
1.3332728
1.3332727
1.3332726
1.3332725
1.3332725
1.3332724
1.3332723
1.3332722
1.3332722
1.3332721
1.333272
1.3332719
1.3332719
1.3332718
1.3332717
1.3332717
1.3332716
1.3332715
1.3332714
1.3332713
1.3332713
1.3332712
1.3332711
1.333271
1.3332709
1.3332709
1.3332708
1.3332707
1.3332706
1.3332705
1.3332704
1.3332704
1.3332703
1.3332702
1.3332701
1.33327
1.3332699
1.3332699
1.3332698
1.3332697
1.3332696
1.3332695
1.3332694
1.3332694
1.3332693
1.3332692
1.3332691
1.333269
1.3332689
1.3332688
1.3332687
1.3332686
1.3332685
1.3332684
1.3332684
1.3332683
1.3332682
1.3332681
1.333268
1.3332679
1.3332678
1.3332677
1.3332676
1.3332675
1.3332674
1.3332673
1.3332672
1.3332671
1.333267
1.3332669
1.3332668
1.3332667
1.3332666
1.3332665
1.3332664
1.3332663
1.3332662
1.3332661
1.333266
1.3332659
1.3332658
1.3332656
1.3332655
1.3332654
1.3332653
1.3332652
1.3332651
1.3332649
1.3332648
1.3332647
1.3332646
1.3332645
1.3332644
1.3332642
1.3332641
1.333264
1.3332639
1.3332638
1.3332636
1.3332635
1.3332634
1.3332633
1.3332632
1.333263
1.3332629
1.3332628
1.3332627
1.3332625
1.3332624
1.3332623
1.3332621
1.333262
1.3332618
1.3332617
1.3332616
1.3332614
1.3332613
1.3332611
1.333261
1.3332608
1.3332607
1.3332605
1.3332604
1.3332603
1.3332601
1.33326
1.3332599
1.3332597
1.3332596
1.3332594
1.3332593
1.3332591
1.333259
1.3332588
1.3332587
1.3332585
1.3332583
1.3332582
1.333258
1.3332578
1.3332577
1.3332575
1.3332573
1.3332572
1.333257
1.3332568
1.3332567
1.3332565
1.3332563
1.3332561
1.3332559
1.3332557
1.3332555
1.3332554
1.3332552
1.333255
1.3332548
1.3332546
1.3332544
1.3332542
1.333254
1.3332538
1.3332536
1.3332534
1.3332532
1.333253
1.3332528
1.3332526
1.3332524
1.3332522
1.3332519
1.3332517
1.3332515
1.3332513
1.3332511
1.3332509
1.3332506
1.3332504
1.3332502
1.3332499
1.3332497
1.3332494
1.3332492
1.3332489
1.3332487
1.3332484
1.3332482
1.3332479
1.3332476
1.3332473
1.3332471
1.3332468
1.3332465
1.3332462
1.333246
1.3332457
1.3332454
1.3332451
1.3332448
1.3332446
1.3332443
1.333244
1.3332437
1.3332434
1.333243
1.3332427
1.3332424
1.3332421
1.3332418
1.3332415
1.3332411
1.3332408
1.3332404
1.33324
1.3332396
1.3332393
1.3332389
1.3332385
1.3332381
1.3332377
1.3332374
1.333237
1.3332366
1.3332362
1.3332358
1.3332354
1.3332349
1.3332345
1.3332341
1.3332336
1.3332332
1.3332327
1.3332322
1.3332318
1.3332313
1.3332308
1.3332303
1.3332298
1.3332293
1.3332288
1.3332283
1.3332278
1.3332272
1.3332267
1.3332262
1.3332256
1.3332251
1.3332246
1.333224
1.3332235
1.3332229
1.3332224
1.3332218
1.3332213
1.3332207
1.3332202
1.3332196
1.3332191
1.3332186
1.3332181
1.3332177
1.3332173
1.3332168
1.3332165
1.3332161
1.3332158
1.3332155
1.3332153
1.3332151
1.3332149
1.3332148
1.3332147
1.3332146
1.3332146
1.3332146
1.3332146
1.3332146
1.3332147
1.3332149
1.3332151
1.3332153
1.3332155
1.3332156
1.3332157
1.3332158
1.3332159
1.3332159
1.3332159
1.3332159
1.3332159
1.3332157
1.3332153
1.3332147
1.3332139
1.333213
1.3332121
1.3332111
1.33321
1.3332089
1.3332077
1.3332065
1.3332052
1.333204
1.3332026
1.3332013
1.3331999
1.3331985
1.3331972
1.333196
1.3331948
1.3331938
1.3331929
1.3331921
1.3331914
1.3331907
1.3331902
1.3331898
1.3331894
1.3331892
1.333189
1.3331889
1.3331887
1.3331885
1.333188
1.333187
1.3331847
1.3331792
1.3331655
1.3331311
1.3330445
1.3328262
1.3322765
1.3309016
1.3278942
1.3239014
1.3192318
1.3140779
1.3086541
1.3031716
1.2978212
1.2927603
1.2881067
1.2839367
1.2802881
1.277166
1.2745498
1.2724003
1.2706673
1.269295
1.2682271
1.26741
1.2667949
1.2663394
1.2660076
1.2657698
1.2656025
1.2654869
1.2654088
1.2653575
1.265325
1.2653053
1.2652944
1.2652893
1.2652876
1.2652876
1.2652886
1.2652921
1.2652969
1.2653012
1.265305
1.2653085
1.2653116
1.2653144
1.265317
1.2653193
1.2653215
1.2653235
1.2653254
1.2653272
1.265329
1.2653306
1.2653322
1.2653336
1.2653351
1.2653365
1.2653378
1.2653392
1.2653406
1.265342
1.2653435
1.265345
1.2653467
1.2653484
1.2653502
1.2653521
1.2653541
1.2653562
1.2653583
1.2653604
1.2653626
1.2653648
1.265367
1.2653692
1.2653714
1.2653735
1.2653755
1.2653775
1.2653794
1.2653812
1.2653829
1.2653845
1.2653861
1.2653875
1.2653889
1.2653902
1.2653914
1.2653926
1.2653937
1.2653948
1.2653958
1.2653967
1.2653976
1.2653985
1.2653993
1.2654002
1.2654009
1.2654017
1.2654024
1.2654031
1.2654038
1.2654044
1.2654051
1.2654057
1.2654063
1.2654069
1.2654075
1.2654081
1.2654086
1.2654092
1.2654097
1.2654102
1.2654107
1.2654112
1.2654117
1.2654122
1.2654127
1.2654132
1.2654136
1.2654141
1.2654146
1.265415
1.2654154
1.2654159
1.2654163
1.2654167
1.2654171
1.2654175
1.2654179
1.2654183
1.2654187
1.2654191
1.2654194
1.2654198
1.2654202
1.2654205
1.2654209
1.2654212
1.2654216
1.2654219
1.2654223
1.2654226
1.2654229
1.2654233
1.2654236
1.2654239
1.2654242
1.2654245
1.2654248
1.2654251
1.2654254
1.2654257
1.265426
1.2654263
1.2654265
1.2654268
1.2654271
1.2654273
1.2654276
1.2654279
1.2654281
1.2654284
1.2654286
1.2654289
1.2654292
1.2654294
1.2654297
1.2654299
1.2654302
1.2654304
1.2654306
1.2654309
1.2654311
1.2654313
1.2654316
1.2654318
1.265432
1.2654322
1.2654324
1.2654326
1.2654328
1.2654331
1.2654333
1.2654335
1.2654337
1.2654339
1.2654341
1.2654343
1.2654345
1.2654347
1.2654349
1.2654351
1.2654353
1.2654355
1.2654357
1.2654358
1.265436
1.2654362
1.2654364
1.2654366
1.2654367
1.2654369
1.2654371
1.2654373
1.2654374
1.2654376
1.2654378
1.2654379
1.2654381
1.2654382
1.2654384
1.2654386
1.2654387
1.2654389
1.2654391
1.2654392
1.2654394
1.2654395
1.2654397
1.2654398
1.26544
1.2654401
1.2654403
1.2654404
1.2654406
1.2654407
1.2654408
1.265441
1.2654411
1.2654413
1.2654414
1.2654415
1.2654417
1.2654418
1.2654419
1.2654421
1.2654422
1.2654423
1.2654425
1.2654426
1.2654427
1.2654429
1.265443
1.2654431
1.2654433
1.2654434
1.2654435
1.2654436
1.2654438
1.2654439
1.265444
1.2654441
1.2654442
1.2654443
1.2654444
1.2654445
1.2654447
1.2654448
1.2654449
1.265445
1.2654451
1.2654452
1.2654454
1.2654455
1.2654456
1.2654457
1.2654458
1.2654459
1.265446
1.2654461
1.2654462
1.2654463
1.2654464
1.2654465
1.2654466
1.2654468
1.2654469
1.265447
1.2654471
1.2654472
1.2654472
1.2654473
1.2654474
1.2654475
1.2654476
1.2654477
1.2654478
1.2654479
1.265448
1.2654481
1.2654482
1.2654483
1.2654484
1.2654485
1.2654486
1.2654487
1.2654488
1.2654488
1.2654489
1.265449
1.2654491
1.2654492
1.2654493
1.2654493
1.2654494
1.2654495
1.2654496
1.2654497
1.2654498
1.2654499
1.26545
1.26545
1.2654501
1.2654502
1.2654503
1.2654504
1.2654504
1.2654505
1.2654506
1.2654507
1.2654508
1.2654508
1.2654509
1.265451
1.2654511
1.2654511
1.2654512
1.2654513
1.2654514
1.2654514
1.2654515
1.2654516
1.2654516
1.2654517
1.2654518
1.2654519