/*--------------------------------*- C++ -*----------------------------------*\
  =========                 |
  \\      /  F ield         | OpenFOAM: The Open Source CFD Toolbox
   \\    /   O peration     | Website:  https://openfoam.org
    \\  /    A nd           | Version:  7
     \\/     M anipulation  |
\*---------------------------------------------------------------------------*/
FoamFile
{
    version     2.0;
    format      ascii;
    class       volScalarField;
    location    "0.00071";
    object      Uz;
}
// * * * * * * * * * * * * * * * * * * * * * * * * * * * * * * * * * * * * * //

dimensions      [0 1 -1 0 0 0 0];

internalField   nonuniform List<scalar> 
5000
(
0
0
0
0
0
-8.1152535e-17
-1.7325615e-31
2.4404948e-16
8.1401738e-17
-1.628559e-16
-1.6288687e-16
8.144538e-17
-6.9441517e-31
-7.1748343e-31
1.628419e-16
-1.6281372e-16
-3.3887368e-48
-7.169688e-31
-8.1356929e-17
1.6268221e-16
8.1323602e-17
0
0
-8.1274852e-17
6.9284393e-31
-6.6962216e-31
-8.1225198e-17
8.1210089e-17
8.1193487e-17
-8.1178917e-17
1.418678e-30
-6.9192124e-31
-8.1134652e-17
8.1122361e-17
8.1109459e-17
0
0
-8.1080934e-17
-8.1073102e-17
8.1068504e-17
-1.3593374e-30
-8.1061808e-17
8.1059523e-17
-1.3708008e-30
-8.1059497e-17
8.1060831e-17
-2.7876778e-30
2.7761519e-30
-2.7875448e-30
1.3821746e-30
8.1042034e-17
0
0
0
0
0
0
0
0
0
0
0
0
-8.0423617e-17
-8.0338747e-17
8.0251627e-17
-1.3784192e-30
-3.9407351e-48
7.9987812e-17
0
0
-7.9744643e-17
-7.9673323e-17
0
7.9550849e-17
2.7453623e-30
-7.9459734e-17
-7.942702e-17
7.9403152e-17
1.5877619e-16
-1.5876284e-16
4.5123644e-32
2.3817214e-16
-1.5881294e-16
-8.2624816e-30
1.589153e-16
-2.3847466e-16
7.9529906e-17
7.9571862e-17
-7.9616573e-17
7.966321e-17
7.9710981e-17
2.7769416e-30
-1.59614e-16
-5.5264412e-30
-7.9899431e-17
-7.9942982e-17
-2.8075106e-30
5.572242e-30
1.6011697e-16
8.0091121e-17
-8.0120582e-17
1.1389548e-32
8.0169822e-17
0
-8.0206351e-17
-2.7929894e-30
8.0230916e-17
-8.0239056e-17
-8.0244655e-17
1.6049555e-16
8.0248533e-17
-2.4074165e-16
-8.0244091e-17
2.4071801e-16
-8.0233117e-17
-8.0225581e-17
-4.5598014e-32
-8.020713e-17
2.4058941e-16
-5.6063276e-30
-1.6034568e-16
1.6032013e-16
8.0146764e-17
-8.0133006e-17
8.0118858e-17
-8.0104376e-17
-1.6017922e-16
8.0074608e-17
2.7646414e-30
8.0044027e-17
1.6005702e-16
-8.0012878e-17
-7.9997149e-17
-7.9981342e-17
-2.7841253e-30
-2.7722094e-30
2.7830151e-30
1.5983517e-16
7.9901565e-17
-7.9885525e-17
-1.5973894e-16
-7.9853408e-17
-7.9837339e-17
5.5355227e-30
1.5961039e-16
-2.2677432e-32
2.2672865e-32
4.1865514e-48
7.9740925e-17
-5.5288377e-30
1.1100759e-29
7.9692779e-17
-7.9676745e-17
7.9660718e-17
2.7616389e-30
-7.9628687e-17
7.9612685e-17
-1.131137e-32
-7.9580704e-17
0
7.9548758e-17
5.5042154e-30
-1.5903369e-16
7.9500904e-17
-2.2590987e-32
-7.9469045e-17
7.9453129e-17
-7.9437222e-17
7.9421323e-17
-3.3085247e-29
-2.2022335e-29
7.937368e-17
-1.5871563e-16
0
-5.5011845e-30
-1.6500259e-29
7.929445e-17
7.927863e-17
5.4630032e-30
-7.9247017e-17
7.9231223e-17
5.4484804e-30
3.3764847e-32
1.0971391e-29
-1.5833627e-16
7.9152387e-17
7.9136646e-17
-5.4419789e-30
5.4521389e-30
-1.6443082e-29
5.4612103e-30
-7.905807e-17
0
0
0
0
-7.897971e-17
1.6461894e-29
7.8948427e-17
7.8932798e-17
-7.8917178e-17
-7.8901566e-17
1.5777193e-16
5.4583708e-30
-1.6371876e-29
-7.8839206e-17
-7.8823637e-17
7.8808077e-17
0
7.8776982e-17
5.4508327e-30
-7.8745922e-17
-7.8730404e-17
1.0962338e-29
7.8699394e-17
-1.573678e-16
7.8668419e-17
7.8652943e-17
-7.8637477e-17
7.8622018e-17
0
0
0
7.856027e-17
-7.8544854e-17
-1.5705889e-16
7.8514047e-17
-5.4549563e-30
7.8483273e-17
7.8467899e-17
-1.5690507e-16
2.2293186e-32
-2.2288824e-32
7.8406486e-17
7.8391154e-17
-1.5675166e-16
1.1135699e-32
-1.6321745e-29
7.8329908e-17
-4.3492821e-29
-1.0859957e-29
7.828406e-17
-7.8268794e-17
0
-7.8238287e-17
7.8223046e-17
7.8207813e-17
-7.8192589e-17
0
-7.8162164e-17
7.8146964e-17
7.8131772e-17
-2.7119828e-29
-1.5620283e-16
-1.5617249e-16
2.3421326e-16
1.5611187e-16
0
-1.5605132e-16
-7.8010533e-17
7.7995415e-17
7.7980305e-17
7.7965204e-17
-1.5590022e-16
-1.5587005e-16
7.7919947e-17
1.5580976e-16
2.1606315e-29
-1.5574953e-16
7.7859718e-17
-1.0796897e-29
-7.7829653e-17
1.5562926e-16
-7.7799619e-17
1.0832781e-29
7.7769618e-17
-7.775463e-17
7.7739649e-17
-1.5544935e-16
3.2422877e-29
1.5538951e-16
-1.5535961e-16
-5.3749418e-30
7.7649935e-17
0
0
7.7605185e-17
-7.7590285e-17
-1.5515078e-16
7.7560508e-17
-2.2039794e-32
7.7530763e-17
7.7515902e-17
-7.7501049e-17
0
-7.7471367e-17
-7.7456538e-17
0
1.5485381e-16
7.7412098e-17
-1.547946e-16
5.3554008e-30
-2.1989231e-32
7.7352955e-17
7.7338189e-17
-7.732343e-17
7.730868e-17
-7.7293937e-17
4.392814e-32
1.5452895e-16
-7.7249756e-17
-7.7235044e-17
-7.722034e-17
-1.0708264e-29
7.7190956e-17
0
0
-7.7146938e-17
1.070905e-29
-2.1403072e-29
-1.071594e-29
7.7088355e-17
-7.7073728e-17
1.0950758e-32
7.7044498e-17
0
0
0
0
0
0
0
-7.6927884e-17
0
7.6898806e-17
0
-7.6869759e-17
-2.1319329e-29
7.6840742e-17
0
0
-7.6797273e-17
-1.0660528e-29
7.6768331e-17
0
0
-7.6724975e-17
-7.6710538e-17
7.6696108e-17
7.6681686e-17
0
-7.6652864e-17
1.0890981e-32
7.6624071e-17
-7.6609687e-17
-7.6595309e-17
7.6580939e-17
7.6566577e-17
0
-7.6537874e-17
-7.6523534e-17
7.6509202e-17
7.6494877e-17
0
-7.6466249e-17
-7.6451946e-17
7.6437651e-17
7.6423364e-17
0
0
0
0
0
0
0
0
-7.6295115e-17
-6.4665108e-48
7.6266699e-17
0
0
0
-7.6209959e-17
-1.05682e-29
7.6181634e-17
-7.6167483e-17
1.0573134e-29
-1.0820032e-32
-1.056921e-29
7.6110957e-17
-7.6096844e-17
7.6082739e-17
-4.2267116e-29
-7.6054551e-17
7.6040468e-17
0
0
-7.5998265e-17
-1.0549652e-29
7.5970166e-17
-7.5956127e-17
-7.5942095e-17
0
7.5914053e-17
7.5900042e-17
-7.5886038e-17
-2.1057374e-29
1.5874882e-48
-1.0530194e-29
7.5830088e-17
-7.5816117e-17
-6.3375646e-48
-1.0522436e-29
-7.5774239e-17
0
0
7.5732414e-17
1.0760244e-32
-3.1500199e-29
7.5690639e-17
0
0
-7.564891e-17
2.0970092e-29
7.5621115e-17
0
0
0
-7.5565582e-17
1.0736544e-32
7.5537843e-17
-7.5523981e-17
7.5510123e-17
-2.0985269e-29
-1.5096484e-16
7.5468578e-17
3.142842e-29
1.0474219e-29
-1.04723e-29
-7.5413259e-17
0
0
7.5371833e-17
1.0462714e-29
-2.0910892e-29
3.9081571e-49
-7.53167e-17
7.5302939e-17
7.5289187e-17
0
-7.5261715e-17
-1.0447436e-29
7.5234291e-17
0
0
-7.5193258e-17
2.1367331e-32
3.8467855e-49
-7.5152373e-17
7.5138782e-17
-1.0409036e-29
1.0428507e-29
-2.0842586e-29
-7.5084637e-17
7.5071161e-17
-2.0842033e-29
2.0848971e-29
-2.0845251e-29
-7.5017541e-17
7.5004214e-17
-2.0823486e-29
1.0431212e-29
0
-7.4951257e-17
7.4938113e-17
-1.0402592e-29
1.0645628e-32
-1.0398972e-29
1.0407813e-29
7.4873038e-17
-7.4860161e-17
-7.4847334e-17
7.4834558e-17
7.4821833e-17
0
-7.4796545e-17
-7.4783983e-17
0
7.475903e-17
-1.0377827e-29
1.0620385e-32
1.0363794e-29
-7.4709835e-17
7.4697688e-17
1.035874e-29
-2.0735368e-29
-7.4661626e-17
-7.4649732e-17
1.492758e-16
-1.0605012e-32
1.0348869e-29
7.4602801e-17
-7.459123e-17
1.0354653e-29
7.4568281e-17
0
0
0
-7.4523153e-17
-7.4512029e-17
7.4500966e-17
7.4489965e-17
0
-7.4468144e-17
-7.4457322e-17
7.4446558e-17
7.4435851e-17
0
-7.4414605e-17
-7.4404062e-17
7.4393573e-17
2.0654716e-29
-7.4372746e-17
0
0
0
0
7.4321512e-17
-2.0613676e-29
-7.4301323e-17
7.4291288e-17
1.0313218e-29
-1.032239e-29
2.1303516e-49
7.4251517e-17
7.4241659e-17
-1.4846366e-16
-1.0304991e-29
1.0293089e-29
-7.4202529e-17
0
7.4183127e-17
7.4173463e-17
-7.4163822e-17
-2.0570071e-29
7.4144605e-17
0
0
-7.4115927e-17
1.0278406e-29
7.4096897e-17
0
-7.407793e-17
1.0525763e-32
-2.0564717e-29
-1.0270526e-29
7.4040168e-17
-7.403076e-17
1.0519069e-32
-2.0551654e-29
-7.4002609e-17
7.3993249e-17
2.0543857e-29
1.0512418e-32
-1.0269337e-29
-7.3955919e-17
7.3946614e-17
0
-4.1046184e-29
-1.0252381e-29
-3.0753289e-29
-1.0501858e-32
-7.389102e-17
7.3881795e-17
7.2912295e-49
-1.0255196e-29
2.050784e-29
-1.0252646e-29
1.4767171e-16
-7.3826708e-17
-7.3817574e-17
-1.0247569e-29
1.0246305e-29
1.4758051e-16
-7.378118e-17
-7.377212e-17
1.7499292e-49
0
1.7359085e-49
-7.3736035e-17
7.3727055e-17
1.7142047e-49
-1.0223306e-29
-1.047343e-32
-7.3691299e-17
1.473648e-16
2.0457671e-29
-7.3664659e-17
1.021591e-29
-1.0214685e-29
7.3638168e-17
-7.3629369e-17
-6.5395367e-49
-3.0671267e-29
2.0448566e-29
-2.0425222e-29
-2.0433257e-29
1.6048759e-49
0
7.3559501e-17
0
0
-7.3533497e-17
-2.0416386e-29
7.3516201e-17
0
0
-1.4698059e-16
-6.1171421e-29
1.4694608e-16
-7.3464409e-17
1.0438694e-32
-1.0197405e-29
-7.34385e-17
0
0
0
-7.3403848e-17
-2.0359514e-29
7.3386446e-17
0
0
-7.3360207e-17
1.0423863e-32
7.3342602e-17
0
0
-7.3315987e-17
-2.0335075e-29
-2.0363836e-29
2.0350919e-29
7.3280037e-17
-7.3270954e-17
2.0332941e-29
-2.0330396e-29
2.031743e-29
7.3234185e-17
0
0
-7.3206102e-17
-5.028122e-48
7.3187114e-17
0
0
-7.3158206e-17
-3.4489985e-48
7.3138633e-17
0
0
-7.3108802e-17
-3.7022029e-48
7.3088588e-17
0
0
-7.3057762e-17
1.0380653e-32
7.3036867e-17
-7.3026316e-17
2.0285382e-29
-2.0282411e-29
2.0269049e-29
7.2983411e-17
0
0
0
0
0
-7.2916962e-17
2.0234087e-29
7.2894265e-17
0
0
0
0
0
0
0
-7.2800876e-17
4.0403385e-29
7.2776917e-17
0
0
0
0
0
0
0
-7.2678916e-17
2.0167699e-29
7.2653929e-17
0
0
-7.2616128e-17
2.017085e-29
7.2590731e-17
0
0
0
-7.2539521e-17
-2.0149511e-29
7.251373e-17
0
0
0
0
0
0
0
-7.2409589e-17
1.0288159e-32
7.2383362e-17
0
0
0
0
0
0
0
-7.2277965e-17
-1.0269439e-32
7.2251535e-17
0
0
0
-7.2198627e-17
4.0078637e-29
7.2172161e-17
0
-7.2145694e-17
-2.004e-29
7.2119231e-17
0
0
-7.2079554e-17
-7.2066335e-17
7.2053119e-17
7.2039908e-17
0
0
0
0
7.1973927e-17
-1.0226237e-32
-1.4389515e-16
-7.1934409e-17
1.438425e-16
1.4381619e-16
-7.189495e-17
-7.1881811e-17
0
0
0
0
-7.1816227e-17
-1.9948505e-29
7.1790045e-17
0
0
0
0
0
0
0
0
0
0
0
0
0
0
-7.1594658e-17
3.9753623e-29
7.1568733e-17
0
0
7.1529898e-17
-1.9858839e-29
1.0161336e-32
-7.1491126e-17
-7.1478215e-17
-3.9678834e-29
1.9851068e-29
7.1439523e-17
0
0
0
0
0
-7.1362311e-17
3.9614513e-29
7.1336623e-17
0
0
0
0
0
0
0
-7.1234101e-17
3.9533239e-29
7.1208526e-17
0
0
0
0
0
0
0
-7.1106438e-17
5.9203711e-29
7.1080967e-17
0
0
0
0
0
0
0
0
-7.0966584e-17
1.0083155e-32
7.0941217e-17
0
0
0
0
-7.0877879e-17
7.0865224e-17
7.0852574e-17
-1.4167986e-16
-1.9667328e-29
7.0814649e-17
0
0
0
0
-7.0751525e-17
1.9632736e-29
1.4145261e-16
-7.07137e-17
-7.07011e-17
7.0688504e-17
0
0
0
-7.0638158e-17
-1.9591245e-29
7.0613008e-17
7.0600439e-17
-7.0587873e-17
-7.0575311e-17
7.0562754e-17
0
0
-7.0525102e-17
-7.0512558e-17
7.0500018e-17
7.0487482e-17
7.0474949e-17
3.9132024e-29
-7.0449894e-17
0
0
0
-7.0399824e-17
-7.0387315e-17
7.0374809e-17
7.0362307e-17
7.0349807e-17
1.9521276e-29
-7.0324818e-17
0
0
0
-7.0274876e-17
1.9500485e-29
7.0249924e-17
0
0
0
0
0
0
0
-7.0150226e-17
1.9465898e-29
1.4025066e-16
1.9468953e-29
-7.0100441e-17
0
0
-7.0063129e-17
9.9548027e-33
-1.9448233e-29
1.9434831e-29
7.0013413e-17
7.0000989e-17
-1.9434433e-29
-6.9976149e-17
0
0
-6.9938904e-17
5.8231713e-29
1.9403815e-29
-9.9336259e-33
6.9889273e-17
-6.987687e-17
-6.9864469e-17
1.3970414e-16
-3.8746475e-29
-6.9827275e-17
6.9814881e-17
0
-6.9790097e-17
-1.9385797e-29
6.976532e-17
0
-6.9740549e-17
6.9728165e-17
-7.7414929e-29
-6.9703403e-17
6.9691023e-17
0
-6.9666269e-17
0
6.9641519e-17
0
-6.9616774e-17
6.9604404e-17
-3.8609088e-29
-6.9579665e-17
6.9567298e-17
0
-6.9542566e-17
-1.9307153e-29
6.9517837e-17
0
-6.9493113e-17
6.9480752e-17
-1.9744104e-32
-6.9456032e-17
6.9443673e-17
0
-6.9418958e-17
-6.9406602e-17
6.9394246e-17
6.938189e-17
-6.9369536e-17
6.9357181e-17
6.9344828e-17
-6.9332474e-17
0
0
0
0
0
0
-6.9246011e-17
-3.6797665e-49
1.3844262e-16
-6.9208957e-17
-6.9196605e-17
6.9184253e-17
0
0
-6.9147196e-17
-6.9134842e-17
6.9122487e-17
6.9110131e-17
0
-6.9085416e-17
-1.9190029e-29
6.9060694e-17
0
0
-6.9023596e-17
-6.9011224e-17
6.899885e-17
6.8986471e-17
0
-6.8961702e-17
1.9145851e-29
6.8936912e-17
-6.8924508e-17
-3.8271036e-29
-9.7912333e-33
-6.8887253e-17
6.8874817e-17
6.8862372e-17
0
0
-6.8824966e-17
1.9098075e-29
6.8799959e-17
0
-6.8774883e-17
-6.8762315e-17
6.8749725e-17
6.8737112e-17
0
0
0
0
0
0
-6.8647941e-17
1.9048832e-29
6.8622096e-17
0
0
0
0
0
0
-6.8529695e-17
-4.3143155e-49
6.8502563e-17
6.8488843e-17
1.8994686e-29
-6.8461057e-17
0
0
0
0
-6.8389138e-17
-1.8976452e-29
6.8359166e-17
-6.8343872e-17
-6.8328353e-17
6.8312596e-17
-3.7909793e-29
-5.6860833e-29
-5.6827627e-29
1.8960486e-29
-3.7892014e-29
1.8931435e-29
6.8194107e-17
0
-6.8157004e-17
5.6732477e-29
-9.6801641e-33
-6.80979e-17
6.8077162e-17
6.8055852e-17
-6.8033937e-17
1.8875741e-29
-5.6588551e-29
-3.7734942e-29
-3.769225e-29
1.8839043e-29
-3.7682741e-29
-6.7860247e-17
6.7832002e-17
6.7802749e-17
-6.777243e-17
1.8791071e-29
-7.5166568e-29
-1.8782239e-29
1.8782083e-29
1.8752709e-29
1.8751756e-29
-6.7525052e-17
0
6.7440919e-17
-1.8705008e-29
-8.3071023e-48
6.7301027e-17
0
-6.7197504e-17
6.714235e-17
6.7084789e-17
-6.7024706e-17
0
0
0
0
-6.6682026e-17
1.8485163e-29
-3.6934584e-29
6.64376e-17
6.6348743e-17
-6.6255917e-17
0
0
0
0
-6.5725934e-17
-9.3230899e-33
6.5479569e-17
0
0
0
0
0
0
0
-6.4253446e-17
-6.4068998e-17
6.3876718e-17
6.3676317e-17
0
0
0
0
0
0
-6.2020094e-17
-6.1743349e-17
6.1455529e-17
6.1156266e-17
0
0
0
0
0
0
-5.8708857e-17
-5.8304051e-17
5.78842e-17
5.744887e-17
0
0
0
0
0
0
-5.3930674e-17
2.9623829e-29
5.2760331e-17
0
0
0
0
0
0
-4.8006348e-17
1.3116838e-29
4.6444152e-17
0
0
0
0
-4.2102643e-17
-5.8485884e-33
4.0181643e-17
-3.9179767e-17
-5.0210288e-47
3.7091005e-17
-3.6003236e-17
1.9374278e-29
3.3738778e-17
-3.2561257e-17
-1.7407755e-29
-1.6719633e-29
-9.9060799e-46
-1.5286803e-29
-7.2691766e-30
2.4837551e-17
-2.3437157e-17
-2.2003574e-17
4.1073012e-17
-1.0560837e-29
-3.5001655e-17
0
1.4328112e-17
-3.5237098e-30
-3.0606686e-30
-7.7490058e-30
-6.2987481e-30
-3.2102021e-30
3.3071186e-30
-1.1775129e-30
6.5827818e-32
-1.683358e-18
0
5.6314207e-18
1.0883668e-33
8.0927775e-30
9.8409687e-30
-1.9827732e-33
-8.9482274e-30
5.0881574e-30
2.0561618e-17
0
-2.5140694e-17
1.5254344e-29
4.2428194e-33
-3.2262916e-17
0
3.717902e-17
-3.9684985e-17
-4.2222408e-17
4.4791065e-17
0
0
5.2679172e-17
-6.1474628e-29
3.2225296e-29
-3.377451e-29
1.7670671e-29
-6.6404202e-17
-6.923023e-17
7.2081544e-17
0
0
0
0
8.6692059e-17
2.4902217e-29
1.0289652e-28
-9.5713309e-17
-9.8757947e-17
1.0181992e-16
0
0
0
0
1.173581e-16
1.2050489e-16
-1.2366252e-16
-1.2683002e-16
0
0
0
0
0
0
1.4919598e-16
1.5240683e-16
-1.556186e-16
-1.5883029e-16
0
0
0
0
0
0
1.8122621e-16
-1.5356147e-28
-3.7513568e-16
1.9072426e-16
5.8160945e-16
1.9700357e-16
0
-4.0646386e-16
2.2911041e-28
6.973446e-28
2.1246292e-16
4.3101319e-16
-4.370643e-16
2.2153873e-16
2.2452548e-16
-2.2749159e-16
2.3043622e-16
-3.3162249e-32
-2.3625787e-16
-2.3913331e-16
2.4198414e-16
2.4480961e-16
-2.4760899e-16
2.5038154e-16
3.5971448e-32
-2.5584336e-16
0
0
0
-5.3282989e-16
2.6898072e-16
5.4302882e-16
-2.7401542e-16
2.7648316e-16
2.7891708e-16
-5.6263323e-16
8.7366938e-46
2.860104e-16
-2.883036e-16
-5.8112069e-16
-2.9278014e-16
8.8488756e-16
-2.9710701e-16
1.039345e-44
9.0384165e-16
-6.0661747e-16
-3.052973e-16
-3.0724585e-16
-6.1830799e-16
6.2204268e-16
3.1284752e-16
3.1463217e-16
-3.1637495e-16
-3.180755e-16
9.5920047e-16
-3.213486e-16
-3.2292052e-16
3.2444894e-16
3.2593355e-16
4.6522654e-32
-9.8631066e-16
3.3012171e-16
-5.5180945e-28
5.5409871e-28
1.0017169e-15
-3.3507591e-16
-3.3620025e-16
-6.7455687e-16
3.3831023e-16
6.785908e-16
-6.8046748e-16
3.4112503e-16
-3.4196907e-16
-3.4276564e-16
1.0305437e-15
-3.4421564e-16
-3.4486867e-16
6.9094697e-16
3.460299e-16
-3.4653774e-16
-1.0409905e-15
3.4740704e-16
1.3910726e-15
-1.9321088e-28
-6.9668519e-16
-3.485556e-16
0
-6.9766453e-16
-7.7455094e-28
1.0467103e-15
-3.4886285e-16
7.743794e-28
-3.4863022e-16
-3.4843801e-16
6.9639015e-16
0
0
0
3.4671424e-16
-1.9222559e-28
-6.913346e-16
3.4506698e-16
6.8883075e-16
-1.0311373e-15
1.1422069e-27
6.843049e-16
-3.4129539e-16
0
0
0
-6.7470688e-16
3.3623968e-16
6.701494e-16
-1.0015758e-15
9.4528167e-32
6.6254661e-16
0
0
3.2701446e-16
-1.8072007e-28
-6.4784603e-16
3.2230217e-16
6.4126306e-16
-9.5673399e-16
5.280233e-28
6.3064661e-16
-3.1345605e-16
3.115404e-16
-6.1915339e-16
-3.0756529e-16
1.0173894e-27
3.0340102e-16
6.02498e-16
-8.9715303e-16
1.6871555e-31
2.9451912e-16
-1.6218559e-28
2.8980962e-16
2.8738974e-16
-1.5815628e-28
-8.4726862e-16
7.9545899e-32
8.3187339e-16
-5.4933053e-16
-6.3754853e-45
5.3859499e-16
-2.6655726e-16
2.6378063e-16
-5.2193703e-16
-2.5812187e-16
5.6678664e-28
2.5232894e-16
4.9876944e-16
2.4641008e-16
2.4340614e-16
-7.2112209e-16
0
2.3423005e-16
1.282895e-28
-1.2655059e-28
1.2476752e-28
-2.2165772e-16
2.4252709e-28
-2.1525026e-16
7.0612653e-28
6.263297e-16
-4.1103692e-16
-6.0674438e-16
-1.9896706e-16
5.8703028e-16
3.8475752e-16
-5.6722378e-16
1.8576582e-16
5.4736203e-16
0
0
-1.7251617e-16
-1.6920806e-16
0
1.6260824e-16
1.5931972e-16
-3.1208187e-16
3.3920354e-28
4.4855674e-16
-1.6239174e-28
-1.4305481e-16
-1.3984837e-16
-1.3666106e-16
1.3349437e-16
1.3034981e-16
-1.2722884e-16
-3.7239866e-16
1.2106337e-16
4.7208666e-16
-1.1500911e-16
-2.2405407e-16
-1.090767e-16
0
1.0327615e-16
0
9.7616833e-17
-9.4842872e-17
2.0450645e-28
-8.9411417e-17
2.8893634e-28
2.5242421e-16
-8.1569057e-17
-7.9039516e-17
7.6553469e-17
7.4111568e-17
-7.1714404e-17
-2.0808751e-16
6.7056351e-17
2.5918544e-16
-1.0423259e-28
-6.041628e-17
-1.1659349e-16
-5.622449e-17
1.0839931e-16
2.8987362e-29
7.1469998e-33
-4.8410267e-17
1.0341162e-28
4.4787912e-17
-1.2914259e-16
4.5909294e-29
7.9414477e-17
0
0
3.5043229e-17
-1.86391e-29
-6.4320275e-17
3.0785016e-17
5.8906902e-17
2.8164848e-17
-2.987607e-29
-7.7142053e-17
-2.4550458e-17
2.3427209e-17
-4.4687074e-17
1.2106909e-32
6.7587129e-29
1.9322423e-17
3.6778799e-17
-5.2476095e-17
1.8465996e-29
3.1601907e-17
0
0
-2.702164e-17
2.844155e-29
1.3472034e-29
3.2673421e-33
3.2644402e-17
2.0588306e-17
-1.6210677e-29
-2.7592798e-17
-8.6866798e-18
8.1995582e-18
-1.5470839e-17
-8.0947684e-30
2.2887823e-29
6.4728792e-18
1.2185428e-17
-1.7194863e-17
5.3888562e-18
5.0636954e-18
-4.7554282e-18
4.4633582e-18
-8.3736311e-18
4.357492e-30
3.6776675e-18
4.8939294e-34
6.4458241e-18
-6.0288533e-18
4.6914156e-30
5.2647456e-18
-2.4577152e-18
0
2.13855e-18
1.1060144e-30
-5.5690045e-18
1.7279286e-18
3.2148273e-18
1.4943711e-18
1.3884056e-18
-1.2891349e-18
-1.1961899e-18
-1.1092309e-18
1.0279134e-18
-5.2838923e-31
4.8886995e-31
-8.1471188e-19
8.3607754e-31
-6.9532849e-19
2.1370827e-30
1.7751978e-18
-1.0905329e-18
-1.6030967e-47
4.6194401e-19
4.7142235e-31
-2.1662181e-31
-1.0744651e-18
3.2853486e-19
9.034403e-19
0
0
-2.3106914e-19
-2.1133742e-19
-3.8649354e-19
1.7669915e-19
3.2320521e-19
-2.9575943e-19
1.3545116e-19
3.7276689e-19
-1.1422232e-19
-1.0530044e-19
-9.7440926e-20
-9.0606334e-20
1.6960733e-19
8.0051341e-20
-7.6357323e-20
-2.2733539e-19
7.9621608e-20
-2.1317365e-48
1.3756318e-31
1.7231058e-19
-1.8715888e-19
-1.9003732e-19
9.1305737e-20
1.8787359e-19
-2.0118787e-19
-1.0015905e-19
2.7961227e-19
2.7302775e-19
-9.3718852e-20
-1.8342619e-19
-8.3399335e-20
4.2576989e-32
1.4689277e-19
6.673844e-20
-5.4170195e-20
-8.0408533e-20
5.0592275e-36
7.6241366e-20
-8.0193892e-20
6.7894151e-32
8.2263381e-20
-4.9838706e-20
-1.2602465e-19
-1.2414952e-19
0
6.3778197e-20
2.3429168e-19
8.7542956e-20
-8.1310741e-20
0
0
0
0
7.260315e-20
-4.0553949e-32
-2.281561e-19
7.4206048e-20
1.9402356e-19
5.9968049e-20
-1.0905366e-31
-1.3573866e-19
-5.6454509e-20
5.1239012e-20
-1.1847434e-19
-6.3819767e-20
1.8893657e-31
4.910924e-20
1.0019892e-19
-1.7115016e-19
1.7391133e-35
5.6534844e-20
-7.0703535e-36
5.3285562e-20
6.2507092e-20
-6.851025e-32
-1.5411928e-19
1.3733004e-35
1.7368041e-19
1.3156954e-19
-3.529752e-32
-1.1538157e-19
-6.2137258e-20
6.8511443e-20
-1.1418212e-19
-3.6329895e-20
1.2272541e-31
5.3265839e-20
1.1059048e-19
-1.2472363e-19
3.7606191e-32
3.6399383e-20
3.9146049e-20
3.8678765e-20
2.0124411e-32
-2.1274402e-32
-9.8427749e-20
-3.266027e-32
1.1275563e-19
-9.6931771e-20
2.3445735e-31
1.5057381e-19
-1.0162815e-19
5.2426227e-32
8.4825774e-20
-3.7361338e-20
-3.1942094e-20
-5.8979196e-20
3.1217668e-20
9.7915499e-20
0
0
0
-1.0884892e-19
-1.0869204e-19
1.0369473e-19
9.4274197e-20
-6.2775018e-20
1.0346968e-35
-4.0641963e-20
1.2999746e-31
1.1562208e-19
-1.3141863e-19
2.4444243e-31
9.8298368e-20
2.7879397e-32
-2.8169655e-32
-9.8301513e-20
4.9777758e-20
-4.4006462e-20
1.0803663e-31
9.0896401e-20
-1.139413e-19
-3.8253988e-20
6.4245484e-32
-4.0652463e-20
3.0708533e-20
1.158564e-20
6.2413357e-21
6.3220061e-21
5.0202914e-33
1.1513733e-20
3.9125999e-20
-8.9316008e-32
-4.3535449e-20
0
1.0997844e-20
1.5426962e-20
-4.0652876e-21
9.7404841e-22
4.0573439e-33
6.5034238e-21
-1.6445289e-20
1.8667501e-32
1.3216541e-32
1.6334928e-32
1.8918353e-32
-1.9257808e-20
6.0118214e-20
5.8768701e-20
-1.9150284e-20
-3.6793456e-20
0
1.7270962e-20
-1.7413907e-32
2.8836181e-32
-1.2511919e-32
-1.1357007e-20
1.1738872e-20
1.0607851e-20
-2.9750602e-20
3.3167139e-47
2.6741907e-32
-1.7464006e-20
1.9771393e-32
-3.8623546e-20
3.9977605e-20
3.4545859e-20
1.4977879e-20
-2.0812373e-32
-2.4522814e-20
0
0
0
-4.7229189e-20
2.3067729e-20
4.6267662e-20
-7.1241008e-20
2.4910275e-20
7.887364e-20
-6.8312867e-20
5.9904326e-32
3.7968534e-20
-5.4896986e-20
-2.4338786e-20
0
1.4850554e-20
-1.9366631e-33
-9.2744971e-21
-2.3613084e-20
1.1708282e-20
0
3.7229367e-20
6.1964563e-36
2.5490809e-32
-2.2776927e-20
-6.6746538e-20
6.5032179e-20
-3.4666124e-32
-5.9143812e-20
5.5519895e-20
-8.6039416e-32
-3.1790612e-20
1.4565268e-20
-1.3253454e-20
2.3951026e-20
1.0741392e-20
-4.2492372e-32
-8.4764984e-21
-1.5156356e-20
-7.1521808e-21
-6.9211485e-21
1.2143601e-20
4.8125678e-21
0
-4.8687056e-21
3.1130629e-33
3.3889689e-49
2.6875881e-21
-3.46045e-37
1.4024743e-21
-2.6081747e-48
-1.0266957e-20
1.0983568e-20
6.3971799e-21
-2.3692271e-21
-3.9665995e-21
0
7.2263212e-21
-2.2253835e-21
-3.8269793e-21
5.913607e-21
-4.9271799e-33
-6.4442229e-21
2.4817122e-21
0
-1.628353e-21
-2.3017095e-21
2.2641895e-21
-1.7444428e-33
9.3589545e-22
6.4997002e-37
-5.803183e-21
0
4.6276192e-21
2.0045741e-21
-3.9166718e-21
-4.121651e-21
7.7838246e-21
2.2878294e-21
-4.0939105e-21
-7.4708811e-22
3.7901608e-21
6.3203758e-21
-4.324089e-33
-3.9865813e-21
-3.4521956e-21
-2.9571986e-21
3.5041064e-21
-5.1766859e-33
1.0905485e-20
-1.9983141e-32
-1.9132835e-20
0
0
1.1675907e-20
-1.3333997e-32
-6.4441302e-21
1.9460268e-20
-6.2564008e-21
-1.0377575e-32
-2.1054972e-32
-1.8105758e-20
5.5569749e-21
-3.0237831e-33
6.0633055e-33
5.3472361e-21
-5.3517978e-21
7.7879233e-37
-3.0283324e-33
5.9517221e-33
5.6024303e-21
0
-5.9685078e-21
1.1277642e-20
5.8179416e-21
-1.3000997e-20
0
7.697447e-21
-7.9745171e-21
-1.6109092e-20
2.4049531e-20
-2.7359244e-32
-2.931705e-32
9.5132647e-21
-2.9505943e-20
1.3738396e-36
9.7517252e-21
1.0310305e-20
-1.07603e-20
-1.0796016e-20
1.0589634e-20
0
-1.047866e-20
1.9247565e-20
-1.5635095e-32
-9.9340474e-21
-2.2414862e-32
-2.1939683e-32
-2.6654155e-36
-1.7073751e-20
2.4268561e-20
2.4587473e-20
0
-1.5982803e-20
-2.264392e-20
-9.8502112e-37
6.6408857e-21
6.7144075e-21
-6.7430254e-21
-6.4123491e-21
5.8974705e-21
0
1.1223635e-20
1.1656904e-20
-1.7507019e-20
-5.698996e-21
5.615064e-21
-1.5851985e-36
-5.5026975e-21
-1.0827753e-20
-5.5819566e-21
9.892278e-33
2.4831771e-20
-2.0881541e-32
-1.8485905e-20
6.0803718e-21
6.0868563e-21
6.3083686e-21
-6.6694246e-21
-6.9246053e-21
-7.0265024e-21
-1.998141e-36
7.1964577e-21
-7.4647907e-21
2.3038889e-20
1.5445551e-20
-2.259392e-20
7.6489002e-21
1.6259039e-20
-1.7082436e-20
8.5902228e-21
-8.281337e-21
-1.6328543e-20
2.5508199e-20
-8.9002973e-21
3.0246744e-32
2.7075188e-20
-1.7219983e-20
-8.5118438e-21
-8.8855452e-21
-1.8417573e-20
9.2675512e-21
2.8483663e-76
1.810169e-20
8.9695203e-21
-9.8606643e-33
-8.7190168e-21
-1.7095495e-20
1.6736571e-20
-8.0796496e-21
-2.3649543e-20
2.3485399e-20
7.7135048e-21
-1.5937486e-48
7.1266281e-21
-2.0748687e-20
-6.8903184e-21
6.7236724e-21
1.2792054e-20
-6.1268695e-21
5.9623709e-21
-1.9305121e-32
-1.1077404e-20
1.5906642e-20
5.7906456e-33
-2.2975226e-32
1.1151472e-32
-9.357459e-21
8.5677723e-21
-4.1493526e-21
-1.7058709e-20
4.3767078e-21
8.6832081e-21
0
7.9823118e-21
-8.7523815e-33
-2.2621863e-36
-4.4455161e-33
-3.9766465e-21
-3.9659961e-21
4.0589739e-21
4.2003842e-21
-8.5070557e-21
8.284477e-21
-4.4438693e-33
-8.0855688e-21
8.5514688e-21
1.506619e-32
-5.1541837e-33
-4.65244e-21
-9.2933669e-21
4.7524953e-21
-4.9398195e-21
2.8319072e-33
5.1318551e-21
1.0182163e-20
-5.1406796e-21
-1.0629512e-20
5.5068185e-21
-5.5717503e-21
9.2579991e-33
-5.5355391e-21
-1.2428998e-32
1.1440426e-20
1.1546602e-20
1.2745527e-32
-1.8783707e-32
1.8802412e-32
-5.7586425e-21
-5.8273137e-21
-5.7575732e-21
5.5716681e-21
0
0
-5.6296629e-21
3.1108588e-33
7.7993808e-37
5.9805347e-33
5.2688466e-21
0
-4.9701465e-21
-9.8139272e-21
4.8580473e-21
9.4534196e-21
9.058022e-21
8.6149168e-21
-1.2636463e-20
-1.4116218e-32
1.2618399e-20
-8.0751398e-21
-7.4714429e-21
0
-3.2465988e-21
6.518605e-21
3.307083e-21
-6.5272292e-21
-3.1197412e-21
3.219653e-33
8.0727724e-21
-2.5806196e-21
-7.7035532e-21
7.686217e-21
2.4854227e-21
-7.0318548e-21
2.465707e-33
2.1905454e-21
4.4236668e-21
2.4523491e-33
-4.2937032e-21
4.1649531e-21
-2.0729628e-21
-6.2915425e-21
0
2.1588382e-21
4.4260475e-21
-1.2534654e-33
2.2338919e-21
4.4127953e-21
-4.5474653e-21
-4.873226e-21
0
-2.756403e-21
-3.1511889e-33
-3.2452445e-33
-3.3501917e-33
9.3261022e-21
6.4008877e-21
0
-6.9959073e-21
-8.3568384e-33
-4.0267545e-21
-1.2651508e-20
4.3013319e-21
-2.4140045e-33
6.2888734e-37
4.5761295e-21
9.6595554e-21
-5.1185435e-21
-1.0664596e-20
5.4541474e-21
0
1.1201831e-20
-5.7133577e-21
-1.7781513e-20
6.1565206e-21
6.2995174e-21
1.2721756e-20
-6.4230356e-21
-1.9520941e-20
6.6138177e-21
-7.4144637e-33
-1.3289539e-20
6.6317983e-21
6.7143904e-21
1.3541852e-20
2.0230682e-20
-1.3197011e-20
-1.3020698e-20
1.3127457e-20
7.3067109e-33
-1.3012286e-20
1.2632235e-20
6.8496467e-33
-1.2233665e-20
0
1.1732029e-20
1.1180398e-20
0
-1.616203e-20
-5.3306336e-21
-1.4486068e-36
-4.7569166e-21
-4.4654229e-21
-4.8155344e-33
8.6479545e-21
8.4335922e-21
-1.330273e-32
-7.4216822e-21
6.8561215e-21
1.0824009e-32
-6.3364366e-21
0
0
0
0
4.7146853e-21
2.530749e-33
-4.3241806e-21
-1.9586073e-21
3.4998254e-21
-5.4394812e-33
-3.2110561e-21
3.2147613e-21
1.7549993e-33
-1.4947903e-21
2.7021028e-21
-4.0394881e-33
-2.2870674e-21
2.3072952e-21
2.4101335e-21
-2.5011729e-21
-2.5491323e-21
0
0
0
0
-1.2986644e-21
1.3673036e-21
1.4756299e-21
-1.759501e-33
-2.4845519e-76
-1.7433624e-21
-3.6569485e-21
-1.9108443e-21
3.9429315e-21
6.0845142e-21
-2.1138638e-21
-4.5022639e-21
7.2646194e-21
5.1144221e-21
-7.8353234e-21
-5.2890772e-21
-2.7182285e-21
-3.1603393e-33
6.0211872e-21
0
-3.2166182e-21
3.2655167e-21
-7.4091796e-33
-9.758518e-37
-1.1802625e-32
-3.6270475e-21
-3.6821476e-21
1.0620157e-36
7.5964539e-21
7.717265e-21
-1.3018326e-32
-7.8925304e-21
0
0
0
-4.0795362e-21
-4.0544677e-21
4.0551686e-21
4.1085463e-21
-4.1856506e-21
8.4080168e-21
1.2492126e-20
0
-8.2077557e-21
-4.529619e-33
-4.0980819e-21
-1.2444152e-20
4.1485084e-21
-6.814602e-33
7.9955489e-21
-2.5468745e-32
-7.5584496e-21
-2.1692052e-33
-5.7227745e-37
4.0461917e-21
-3.9585692e-21
7.679316e-21
3.7036422e-21
-7.3099065e-21
7.4549934e-21
1.0786239e-36
-4.2117119e-33
-3.6964847e-21
-1.0701388e-20
6.9144095e-21
-4.1972708e-51
3.4954425e-21
-5.8435824e-33
-6.8923825e-21
3.3334424e-21
6.393316e-21
-3.4606111e-33
-9.3645899e-21
8.8904283e-37
3.0885536e-21
-3.0028428e-21
5.7854105e-21
2.8147878e-21
-5.573674e-21
5.4710059e-21
2.9043351e-33
-1.3684224e-32
5.14259e-33
-4.5545423e-21
4.6511162e-21
-2.3419341e-21
-4.5580784e-21
2.1216218e-21
-1.9364617e-21
3.5815392e-21
-2.8883903e-33
-5.2462289e-21
0
0
4.927619e-21
1.5131552e-21
-2.7808284e-21
2.6496087e-21
7.496473e-37
-5.9221196e-33
-1.4560928e-33
-2.4764503e-21
2.285511e-21
2.1528815e-21
-1.0713325e-21
-3.306807e-21
-1.1195819e-21
1.0861804e-21
0
0
-9.2051466e-22
5.3823665e-34
3.0779318e-21
2.9849449e-37
-2.076599e-21
-1.0190778e-21
1.1302832e-33
3.1120783e-21
2.3791885e-33
-2.2263986e-21
0
-1.1480326e-21
2.2469647e-21
1.1099657e-21
-2.5478361e-33
-1.2262107e-21
-2.6185498e-21
1.350631e-21
0
0
0
0
-1.4457334e-21
8.399341e-34
4.589249e-21
-1.4911324e-21
-4.3559528e-21
4.4095547e-21
1.5440851e-21
-3.2662641e-21
-1.6735275e-21
-2.7491539e-33
4.8139269e-21
-8.9808717e-37
-5.3778196e-33
-1.6919819e-21
-3.5113195e-21
-1.763775e-21
-1.8927598e-33
1.639624e-21
1.6294502e-21
1.6869567e-21
1.7718487e-21
-4.0296244e-33
-3.5855666e-21
0
0
-1.633109e-21
-2.833645e-33
-2.5299599e-37
2.570033e-37
1.7744772e-21
3.3940651e-21
3.2544817e-21
-3.2448885e-21
-1.8625854e-33
-1.7384584e-21
-5.268152e-21
0
0
1.5776845e-21
1.5668565e-21
0
-1.6492422e-21
9.2127521e-34
1.6239079e-21
-1.5566996e-21
2.9949466e-21
-4.9162866e-33
-4.4748449e-21
1.5186511e-21
1.5197036e-21
2.9680235e-21
-1.4266852e-21
-4.1337407e-21
1.360584e-21
-7.5879969e-34
2.7297113e-21
1.3336771e-21
-2.5740243e-21
2.502347e-21
-1.5994022e-50
-2.4936649e-21
0
0
2.226723e-21
-1.2112639e-33
-3.6900253e-33
-1.0615554e-50
-3.3484175e-21
-1.1562113e-33
9.601207e-22
1.8577508e-21
1.9032659e-21
-1.9851285e-21
-2.2342688e-33
-9.8466651e-22
-3.1602456e-33
9.2210295e-22
-1.805843e-21
0
-8.4565188e-22
9.1848814e-34
8.4510886e-22
1.7694869e-21
1.0153623e-33
-1.8100039e-21
0
0
-8.0365352e-22
4.7192072e-34
2.713528e-21
1.0254426e-33
-1.7877586e-21
0
8.2173013e-22
-8.5654934e-22
-9.1872645e-22
-9.6729244e-22
-9.7042861e-22
1.8507216e-21
2.6535987e-21
-8.9309845e-22
-1.892462e-21
3.0300111e-21
1.8042368e-52
-2.038629e-21
0
0
0
0
2.2075026e-21
2.228186e-21
-1.0790148e-21
-3.134278e-21
-1.1642192e-33
1.089437e-21
-2.2929764e-21
-2.3582408e-21
1.1708333e-21
4.5552958e-21
2.2413417e-21
-3.410143e-21
-2.3488734e-21
3.6142105e-21
2.6822322e-33
-2.3952482e-21
0
0
0
2.493569e-21
1.3420612e-33
-2.5890726e-33
1.1651002e-21
-3.6270173e-21
1.2674251e-21
1.2911569e-21
-3.7743617e-21
-2.3628598e-21
1.1176516e-21
2.2481595e-21
2.3696956e-21
-4.1460886e-33
1.4066798e-33
-3.5213278e-37
-2.341109e-21
0
-1.0950448e-21
-1.1277437e-21
1.1758717e-21
1.1970343e-21
-1.173991e-21
-1.1117345e-21
2.1085694e-21
1.0419786e-21
-1.0721341e-21
1.1123971e-21
-1.1194519e-21
-2.1634303e-21
0
0
2.931205e-21
1.0136135e-21
-2.0914399e-21
-1.0429254e-21
-9.9476238e-22
1.8773016e-21
-1.0122423e-33
-1.8357444e-21
0
9.5278515e-22
2.7986195e-21
2.0028715e-33
-4.9074622e-33
1.767729e-21
-2.656421e-21