-1.25 	300 	0.1222740065274303 	101374.9013364214
-1.247497497497497 	300.0367374283283 	0.1219799654412981 	101374.8587346947
-1.244994994994995 	300.0418185481292 	0.1219084622209801 	101374.802028458
-1.242492492492492 	300.0420604856347 	0.1219214905522855 	101374.7364526239
-1.23998998998999 	300.0420034067541 	0.1216384406882466 	101374.6618585114
-1.237487487487487 	300.0419301460507 	0.1214595709339915 	101374.5781034389
-1.234984984984985 	300.0418515554574 	0.121236826486875 	101374.4852046468
-1.232482482482482 	300.041765239992 	0.1209838268153656 	101374.3831348522
-1.22997997997998 	300.041671207099 	0.1207126626975829 	101374.2719373583
-1.227477477477477 	300.0415695261697 	0.1204184010237574 	101374.1516951859
-1.224974974974975 	300.0414602379199 	0.1201008631799933 	101374.022460753
-1.222472472472472 	300.0413433509499 	0.1197618913604195 	101373.8842329136
-1.21996996996997 	300.0412188857157 	0.1194022047875571 	101373.7370421245
-1.217467467467467 	300.0410868514069 	0.1190208209173153 	101373.5809101726
-1.214964964964965 	300.0409472457521 	0.1186148317668039 	101373.4158233234
-1.212462462462462 	300.0408000717233 	0.1181878278451412 	101373.2417794607
-1.20995995995996 	300.0406453530954 	0.1177397550425301 	101373.0588143522
-1.207457457457457 	300.0404831298472 	0.1172705131015872 	101372.8669768396
-1.204954954954955 	300.0403134249926 	0.1167807525601268 	101372.6662903831
-1.202452452452452 	300.0401363241116 	0.1162670806595721 	101372.4568582811
-1.19994994994995 	300.0399518626224 	0.1157318071381766 	101372.2387247116
-1.197447447447447 	300.0397600751626 	0.1151760672151786 	101372.0119297789
-1.194944944944945 	300.0395609925226 	0.1146004075894017 	101371.7765076106
-1.192442442442442 	300.0393546298704 	0.1140041883107502 	101371.532472384
-1.18993993993994 	300.0391410178153 	0.1133843109449416 	101371.2798629174
-1.187437437437437 	300.0389201637904 	0.1127435936330729 	101371.0186908735
-1.184934934934935 	300.0386921411937 	0.1120829438948611 	101370.7490408379
-1.182432432432432 	300.0384569828892 	0.1114020901542429 	101370.4709524352
-1.17992992992993 	300.0382147567876 	0.1107012235463866 	101370.1845087625
-1.177427427427427 	300.0379655400516 	0.1099789902008693 	101369.8898021326
-1.174924924924925 	300.0377093359003 	0.1092364263220026 	101369.5868313975
-1.172422422422422 	300.0374462225153 	0.1084740520479536 	101369.2756866037
-1.16991991991992 	300.0371762072031 	0.1076921216507423 	101368.956380486
-1.167417417417417 	300.0368993058772 	0.1068904313467083 	101368.6289362212
-1.164914914914915 	300.036615615179 	0.1060683983583272 	101368.2934687945
-1.162412412412412 	300.0363251366384 	0.1052267321682549 	101367.9499752713
-1.15990990990991 	300.036027949844 	0.1043657500736839 	101367.5985441539
-1.157407407407407 	300.0357241642872 	0.1034860356254539 	101367.239304198
-1.154904904904904 	300.0354137794387 	0.1025873731991457 	101366.8722593348
-1.152402402402403 	300.0350969114185 	0.1016697023401277 	101366.4975530577
-1.1498998998999 	300.0347736545824 	0.1007333750063458 	101366.115299024
-1.147397397397397 	300.0344439682467 	0.09977814783247058 	101365.7254469466
-1.144894894894895 	300.0341079689576 	0.09880469506253975 	101365.3281297834
-1.142392392392392 	300.0337657166372 	0.09781277567034025 	101364.9234133206
-1.13988988988989 	300.0334171311234 	0.09680280996443796 	101364.5112020663
-1.137387387387387 	300.0330623586893 	0.0957752500240143 	101364.091670641
-1.134884884884885 	300.032701521494 	0.09472981462737209 	101363.6649666533
-1.132382382382382 	300.0323345449523 	0.09366718338219973 	101363.2310043308
-1.12987987987988 	300.0319616468532 	0.09258711767107404 	101362.7900421252
-1.127377377377377 	300.0315830501708 	0.09149091533606288 	101362.3423454595
-1.124874874874875 	300.0311985864773 	0.09037787096121142 	101361.8877148525
-1.122372372372372 	300.0308083451445 	0.08924678001728589 	101361.4262561331
-1.11986986986987 	300.0304126290049 	0.08809992620207671 	101360.9583268675
-1.117367367367367 	300.0300112104308 	0.08693636743298067 	101360.4836560474
-1.114864864864865 	300.0296039951131 	0.08575768727242077 	101360.0021337428
-1.112362362362362 	300.0291914926037 	0.08456375840565562 	101359.5143616728
-1.10985985985986 	300.0287737096186 	0.08335203597519035 	101359.0203476312
-1.107357357357357 	300.0283502604151 	0.08212534295874693 	101358.5196354866
-1.104854854854855 	300.0279216091077 	0.08088393903946914 	101358.0127731722
-1.102352352352353 	300.0274882837143 	0.07962962399982812 	101357.500386123
-1.09984984984985 	300.027049753713 	0.07836038369302996 	101356.981845867
-1.097347347347347 	300.0266058017086 	0.07707327562519756 	101356.4568964474
-1.094844844844845 	300.0261572893795 	0.0757734412239725 	101355.9265574209
-1.092342342342342 	300.025704416692 	0.07446090651348589 	101355.3910634654
-1.08983983983984 	300.0252463203933 	0.07313440268384136 	101354.8493949036
-1.087337337337337 	300.024783051005 	0.07179331392859793 	101354.3016122126
-1.084834834834835 	300.0243157286039 	0.07043854376877061 	101353.7490397893
-1.082332332332332 	300.0238444469114 	0.06907306409279636 	101353.1917868466
-1.07982982982983 	300.0233682335049 	0.0676939845427736 	101352.6287036779
-1.077327327327327 	300.022887100363 	0.06630086603107037 	101352.0598065316
-1.074824824824825 	300.0224021759609 	0.0648971488332795 	101351.4864294712
-1.072322322322323 	300.0219138592387 	0.06348219132180963 	101350.9090435056
-1.06981981981982 	300.0214213880861 	0.06205422002336801 	101350.3267466472
-1.067317317317317 	300.0209242597338 	0.06061373457588452 	101349.7389452892
-1.064814814814815 	300.0204229547263 	0.05916197124864433 	101349.1462086406
-1.062312312312312 	300.0199181688405 	0.05770096563554059 	101348.5493590823
-1.05980980980981 	300.0194101947823 	0.05623019314625594 	101347.948742445
-1.057307307307307 	300.0188990136676 	0.05474844602667409 	101347.344335583
-1.054804804804805 	300.0183842696883 	0.05325656388385887 	101346.7357179802
-1.052302302302302 	300.0178653279718 	0.05175340533014308 	101346.12213959
-1.0497997997998 	300.0173421585217 	0.0502387369541204 	101345.5035656529
-1.047297297297297 	300.016816021974 	0.04871527241829197 	101344.8814873332
-1.044794794794795 	300.0162884646798 	0.04718624356725173 	101344.2577316108
-1.042292292292292 	300.0157594034954 	0.04565232707563061 	101343.6321998081
-1.03978978978979 	300.0152267666693 	0.04410890811794406 	101343.0024421792
-1.037287287287287 	300.01468857335 	0.04255053244712826 	101342.3661165421
-1.034784784784785 	300.0141454003078 	0.04097872522554333 	101341.7239072017
-1.032282282282283 	300.0136003851217 	0.03940119102357157 	101341.07952496
-1.02977977977978 	300.0130564185189 	0.03782514509982154 	101340.4363868329
-1.027277277277277 	300.0125133718137 	0.03625062760486095 	101339.7943375909
-1.024774774774775 	300.0119681284954 	0.03466910493682721 	101339.1496902079
-1.022272272272272 	300.0114172263895 	0.03307274190249542 	101338.4983545682
-1.01976976976977 	300.0108598103218 	0.03145931577883892 	101337.8393225847
-1.017267267267267 	300.0102984305851 	0.02983433366480663 	101337.1756095226
-1.014764764764765 	300.0097368282065 	0.0282081190497314 	101336.5116360821
-1.012262262262262 	300.0091772083872 	0.02658663911595318 	101335.8500090212
-1.00975975975976 	300.0086196118439 	0.02497141962198292 	101335.1907793309
-1.007257257257257 	300.0080620404581 	0.02335567150661955 	101334.531582454
-1.004754754754755 	300.0075018268536 	0.02173105510755304 	101333.8692611596
-1.002252252252252 	300.0069374639244 	0.02009566399462554 	101333.202032701
-0.9997497497497498 	300.0063687848404 	0.01844832316997995 	101332.5297041498
-0.9972472472472473 	300.0057969584976 	0.01679362767901528 	101331.8536655553
-0.9947447447447449 	300.0052236732072 	0.01513417710872935 	101331.1759104263
-0.9922422422422421 	300.0046502015583 	0.01347183940196072 	101330.4979347623
-0.9897397397397399 	300.0040774522998 	0.01181237078894723 	101329.8208075771
-0.9872372372372376 	300.0035054768417 	0.01015488125520246 	101329.1445945506
-0.9847347347347346 	300.0029337867709 	0.008499744502215944 	101328.4687308972
-0.9822322322322323 	300.0023621323875 	0.006844403883581387 	101327.7929233874
-0.9797297297297296 	300.0017902676185 	0.00518609732793435 	101327.1168710186
-0.9772272272272275 	300.0012178691546 	0.003527439130755794 	101326.4401782336
-0.9747247247247248 	300.0006447790327 	0.001867258191536609 	101325.7626573716
-0.9722222222222224 	300.0000711129249 	0.0007430193106155468 	101325.084459401
-0.9697197197197196 	299.9994971374276 	0.00145620509839126 	101324.4059128444
-0.9672172172172175 	299.9989230953383 	0.003119416034911821 	101323.7273068594
-0.9647147147147147 	299.998349170848 	0.004782024921922386 	101323.0488460497
-0.9622122122122124 	299.997775508085 	0.006443923187185114 	101322.3706841421
-0.9597097097097099 	299.9972022210588 	0.008104512266846463 	101321.692950036
-0.9572072072072073 	299.9966294054051 	0.009764036594963157 	101321.0157658932
-0.9547047047047047 	299.9960571544863 	0.0114222065041542 	101320.3392601118
-0.9522022022022023 	299.9954855757272 	0.01307786964616937 	101319.6635734767
-0.9496996996996998 	299.9949147969668 	0.01473123805362992 	101318.9888554624
-0.9471971971971973 	299.9943449561302 	0.01638177129680748 	101318.3152544877
-0.9446946946946947 	299.9937761871375 	0.0180286763022201 	101317.6429102532
-0.9421921921921923 	299.9932086056842 	0.01967260435538778 	101316.9719480845
-0.93968968968969 	299.9926422989686 	0.02131379805686432 	101316.3024754468
-0.9371871871871872 	299.9920773339592 	0.02295093174722432 	101315.6345876974
-0.9346846846846848 	299.9915137800559 	0.02458354010717041 	101314.9683832244
-0.9321821821821823 	299.9909517274638 	0.02621072994082186 	101314.3039784088
-0.9296796796796799 	299.9903912909842 	0.02783351381353148 	101313.6415102215
-0.9271771771771771 	299.9898326000585 	0.02945289124701268 	101312.9811238214
-0.9246746746746748 	299.9892757851917 	0.03106640351079215 	101312.3229605429
-0.9221721721721724 	299.9887209737302 	0.03267339032444749 	101311.6671569413
-0.9196696696696698 	299.9881682885136 	0.03427369275869239 	101311.0138471497
-0.9171671671671672 	299.9876178371457 	0.03586781285601267 	101310.3631558345
-0.9146646646646649 	299.9870697035283 	0.03745676356458882 	101309.7151860763
-0.9121621621621623 	299.9865239522533 	0.03903879537316908 	101309.0700219023
-0.9096596596596597 	299.9859806497398 	0.04061290574282163 	101308.4277492964
-0.9071571571571573 	299.9854398809621 	0.04217960193214351 	101307.7884744538
-0.9046546546546547 	299.9849017486075 	0.0437381641912826 	101307.1523228914
-0.9021521521521524 	299.9843663651401 	0.04528910590318767 	101306.5194298329
-0.8996496496496498 	299.9838338509792 	0.04683208216203377 	101305.8899392424
-0.8971471471471473 	299.983304336458 	0.04836574351073346 	101305.2640048262
-0.894644644644645 	299.9827779466091 	0.04989085178606508 	101304.6417742228
-0.892142142142142 	299.9822547800882 	0.05140545377520733 	101304.0233645609
-0.8896396396396397 	299.9817349091472 	0.05291134684170709 	101303.4088569552
-0.8871371371371374 	299.9812183902084 	0.05440903195229899 	101302.7983177181
-0.8846346346346349 	299.9807052914018 	0.05589582944429459 	101302.1918248352
-0.8821321321321324 	299.9801956966909 	0.05737307197814513 	101301.5894769094
-0.8796296296296297 	299.9796897008542 	0.05883779409233424 	101300.9913886979
-0.8771271271271271 	299.9791874110528 	0.06029206038406509 	101300.397686827
-0.8746246246246248 	299.9786889464559 	0.06173707899916844 	101299.8085107416
-0.8721221221221224 	299.978194435973 	0.06316941637725758 	101299.2240105504
-0.8696196196196196 	299.9777040020374 	0.06459040405617875 	101298.6443282298
-0.8671171171171175 	299.9772177377742 	0.06599810159572939 	101298.0695745854
-0.8646146146146148 	299.9767357078372 	0.06739414669080282 	101297.4998277691
-0.8621121121121121 	299.9762579670679 	0.0687795982965007 	101296.9351546786
-0.8596096096096097 	299.9757845793122 	0.07015142794533386 	101296.3756311
-0.857107107107107 	299.9753156196473 	0.07151027185005387 	101295.8213462062
-0.8546046046046049 	299.9748511741366 	0.07285538523690467 	101295.2724000652
-0.8521021021021022 	299.9743913385577 	0.074187149060533 	101294.7289026397
-0.8495995995995997 	299.9739362172339 	0.075505790458573 	101294.1909765152
-0.8470970970970974 	299.973485922709 	0.07681014928402902 	101293.6587540095
-0.8445945945945946 	299.9730405569092 	0.07810042670100119 	101293.1323575065
-0.8420920920920922 	299.9726001990292 	0.07937600217168922 	101292.6118836844
-0.8395895895895897 	299.9721649150954 	0.08063711182177019 	101292.0974117089
-0.8370870870870872 	299.971734766882 	0.0818836628007918 	101291.5890145154
-0.8345845845845846 	299.9713098137447 	0.08311494588560525 	101291.086760965
-0.8320820820820823 	299.9708901199921 	0.08433089687165182 	101290.5907260778
-0.8295795795795798 	299.9704757673271 	0.08553092837821 	101290.1010041521
-0.8270770770770772 	299.9700668542464 	0.08671521024009091 	101289.617709746
-0.8245745745745746 	299.9696634862129 	0.08788359609017146 	101289.1409679084
-0.8220720720720721 	299.9692657584245 	0.08903581394041349 	101288.6708917208
-0.8195695695695699 	299.9688737373879 	0.0901717970163823 	101288.2075618396
-0.817067067067067 	299.9684874699005 	0.09129101993705037 	101287.7510343373
-0.8145645645645651 	299.9681069995441 	0.09239311897402681 	101287.3013606593
-0.8120620620620621 	299.9677323759371 	0.09347833419822994 	101286.8586000777
-0.8095595595595597 	299.9673636644916 	0.09454693947026016 	101286.4228305054
-0.8070570570570572 	299.9670009486533 	0.09559794767010665 	101285.9941505438
-0.8045545545545546 	299.966644322428 	0.09663091537577667 	101285.5726700665
-0.8020520520520523 	299.9662938811149 	0.09764494131781991 	101285.158500262
-0.7995495495495494 	299.9659497064777 	0.09864119035016911 	101284.7517369852
-0.7970470470470474 	299.965611856838 	0.09962103169353774 	101284.3524470516
-0.7945445445445446 	299.9652803677651 	0.1005821545686878 	101283.9606738772
-0.7920420420420423 	299.9649552691615 	0.1015240637148881 	101283.5764545349
-0.7895395395395397 	299.9646366041821 	0.1024467982172864 	101283.1998399503
-0.7870370370370371 	299.9643244344813 	0.1033505156919358 	101282.8309032478
-0.7845345345345348 	299.9640188300314 	0.1042364896827852 	101282.4697268507
-0.7820320320320323 	299.9637198637068 	0.1051032470103694 	101282.1163967929
-0.7795295295295296 	299.963427613249 	0.1059496633777021 	101281.771004633
-0.7770270270270272 	299.9631421459184 	0.1067767274555828 	101281.4336296825
-0.7745245245245247 	299.9628635070978 	0.1075827927330081 	101281.1043253468
-0.7720220220220222 	299.9625917322842 	0.1083699091431939 	101280.783133634
-0.7695195195195199 	299.9623268560295 	0.1091385212790181 	101280.4700961402
-0.767017017017017 	299.9620689137311 	0.1098859203780093 	101280.165253849
-0.7645145145145147 	299.9618179477013 	0.1106134256438542 	101279.8686568606
-0.7620120120120122 	299.9615740128831 	0.1113186761504477 	101279.5803707113
-0.7595095095095097 	299.961337169739 	0.1120043243015564 	101279.3004657616
-0.7570070070070072 	299.961107471578 	0.1126706062683805 	101279.0290060071
-0.7545045045045048 	299.9608849688229 	0.1133149967542161 	101278.7660498239
-0.7520020020020022 	299.9606697078678 	0.113939580135762 	101278.5116523426
-0.7494994994994997 	299.9604617239966 	0.1145413074014527 	101278.2658549544
-0.7469969969969972 	299.9602610348311 	0.1151224798604853 	101278.0286785862
-0.7444944944944945 	299.9600676584578 	0.1156839990219345 	101277.800146309
-0.7419919919919924 	299.9598816321496 	0.1162230613512243 	101277.580300662
-0.7394894894894897 	299.9597029958451 	0.1167407324007706 	101277.3691887397
-0.7369869869869872 	299.9595317888485 	0.1172361628434245 	101277.1668564034
-0.7344844844844846 	299.9593680609474 	0.1177102139475365 	101276.9733624244
-0.7319819819819822 	299.95921186313 	0.118163120706642 	101276.7887681718
-0.7294794794794797 	299.9590632178997 	0.1185939176631907 	101276.6131001679
-0.7269769769769773 	299.9589221142659 	0.1190030456012792 	101276.4463451988
-0.7244744744744747 	299.958788543931 	0.1193898731432075 	101276.2884934907
-0.721971971971972 	299.9586625325026 	0.1197548558744695 	101276.1395741909
-0.7194694694694695 	299.9585441307493 	0.1200979708819532 	101275.9996475283
-0.7169669669669674 	299.9584333898498 	0.1204187590195823 	101275.8687741041
-0.7144644644644647 	299.9583303454768 	0.1207173626226993 	101275.7469964883
-0.711961961961962 	299.9582350136081 	0.1209932539657997 	101275.6343349227
-0.7094594594594597 	299.9581473961323 	0.1212469389922022 	101275.5307914017
-0.7069569569569573 	299.9580674947871 	0.1214783380040189 	101275.4363664762
-0.7044544544544545 	299.9579953205554 	0.1216873739756917 	101275.3510711361
-0.7019519519519523 	299.9579308768226 	0.1218742539571728 	101275.2749101053
-0.6994494494494495 	299.9578741558072 	0.1220384456939144 	101275.2078760374
-0.6969469469469471 	299.9578251699361 	0.1221801829699269 	101275.1499844685
-0.6944444444444446 	299.9577839652037 	0.1222993703640579 	101275.1012909358
-0.6919419419419421 	299.9577505884507 	0.1223961297176228 	101275.0618482208
-0.6894394394394396 	299.9577250460824 	0.1224703090849995 	101275.0316634468
-0.6869369369369374 	299.9577073224807 	0.1225215480314923 	101275.0107169385
-0.6844344344344344 	299.9576974099932 	0.1225498968651378 	101274.9989998043
-0.6819319319319321 	299.9576953017929 	0.1225557792086939 	101274.9965056582
-0.6794294294294296 	299.9577009767592 	0.1225399161577824 	101275.0032096811
-0.6769269269269272 	299.9577144091447 	0.1225014709525688 	101275.019083302
-0.6744244244244245 	299.95773558638 	0.1224401768017302 	101275.0441119654
-0.6719219219219222 	299.9577645060428 	0.1223553060327234 	101275.0782921753
-0.6694194194194195 	299.9578011953966 	0.1222479259232619 	101275.121651544
-0.6669169169169172 	299.9578456987297 	0.1221197911507483 	101275.1742422606
-0.6644144144144146 	299.9578980237534 	0.1219687214898279 	101275.2360762512
-0.661911911911912 	299.9579581475745 	0.1217940551243866 	101275.3071250285
-0.6594094094094097 	299.9580260551315 	0.1215971004212404 	101275.3873730761
-0.656906906906907 	299.9581017229578 	0.1213773763729721 	101275.4767951103
-0.6544044044044046 	299.9581851037609 	0.1211365097117283 	101275.575333183
-0.6519019019019021 	299.9582761492601 	0.1208740788788891 	101275.6829312667
-0.6493993993993996 	299.9583748127059 	0.1205882432125457 	101275.7995335136
-0.6468968968968971 	299.9584810734766 	0.1202805726207917 	101275.9251127213
-0.6443943943943946 	299.9585949709731 	0.119948741712621 	101276.0597158414
-0.6418918918918921 	299.9587165447539 	0.119595911667454 	101276.2033888394
-0.6393893893893897 	299.9588457798507 	0.1192228085386523 	101276.3561135661
-0.6368868868868871 	299.9589826321392 	0.1188262143770808 	101276.5178381777
-0.6343843843843846 	299.9591270409526 	0.1184083758179956 	101276.6884925439
-0.6318818818818821 	299.9592789796713 	0.117967028252627 	101276.8680454857
-0.6293793793793795 	299.959438451308 	0.1175051344452759 	101277.0565019669
-0.6268768768768773 	299.9596053980219 	0.1170226490484906 	101277.2537987777
-0.6243743743743745 	299.959779680286 	0.1165176248457991 	101277.4598069253
-0.6218718718718721 	299.9599612807344 	0.115992320030203 	101277.6744220477
-0.6193693693693696 	299.9601501926254 	0.1154444723040652 	101277.8976518944
-0.6168668668668671 	299.9603464815505 	0.1148753811021813 	101278.1296197741
-0.6143643643643645 	299.9605502032547 	0.1142853629700453 	101278.3703815975
-0.6118618618618621 	299.9607612446636 	0.1136738404669894 	101278.6197933947
-0.6093593593593596 	299.960979416148 	0.1130419624110842 	101278.877629926
-0.6068568568568571 	299.9612046595547 	0.1123891957095633 	101279.1438223891
-0.6043543543543546 	299.9614370769709 	0.111715957978385 	101279.4184909307
-0.6018518518518521 	299.961676754865 	0.1110219114181242 	101279.7017387483
-0.5993493493493496 	299.9619235833255 	0.1103069140487746 	101279.9934384723
-0.5968468468468471 	299.9621772729922 	0.1095719786462243 	101280.2932505316
-0.5943443443443446 	299.9624376576577 	0.1088171070342794 	101280.6009779126
-0.591841841841842 	299.9627048667541 	0.1080426725439386 	101280.9167735297
-0.5893393393393397 	299.9629791601015 	0.1072480112103784 	101281.2409444542
-0.5868368368368371 	299.9632605876343 	0.1064329470528465 	101281.5735481285
-0.5843343343343346 	299.9635488506682 	0.1055983812056308 	101281.9142310957
-0.5818318318318321 	299.9638435209914 	0.1047448290591605 	101282.2624860213
-0.5793293293293297 	299.9641444618618 	0.1038733653757597 	101282.6181510327
-0.5768268268268271 	299.9644519301868 	0.102982466906345 	101282.9815301004
-0.5743243243243245 	299.9647662585914 	0.1020712614831249 	101283.3530165595
-0.5718218218218221 	299.9650874489051 	0.101140674455402 	101283.7326126755
-0.5693193193193196 	299.9654150961831 	0.1001912757484346 	101284.1198398641
-0.5668168168168171 	299.9657487237691 	0.09922458059743594 	101284.5141360383
-0.5643143143143147 	299.9660882304685 	0.09824071441839721 	101284.9153818169
-0.5618118118118121 	299.9664339429147 	0.09723929274422444 	101285.3239626912
-0.5593093093093094 	299.9667862584632 	0.09621908987559484 	101285.7403510817
-0.5568068068068072 	299.9671451825041 	0.09517957826678008 	101286.1645517627
-0.5543043043043046 	299.96751023313 	0.0941219812695436 	101286.5959943516
-0.551801801801802 	299.9678807592109 	0.09304810628101121 	101287.0339096012
-0.5492992992992995 	299.9682564981837 	0.09195972941808932 	101287.477986502
-0.5467967967967969 	299.9686377693092 	0.09085518909594435 	101287.9286038001
-0.5442942942942947 	299.9690252013416 	0.08973252917981939 	101288.3865043296
-0.5417917917917919 	299.9694191394059 	0.08859041372006965 	101288.8520961571
-0.5392892892892895 	299.9698192901012 	0.0874303610464538 	101289.3250316897
-0.536786786786787 	299.9702248402245 	0.08625683510963394 	101289.8043489802
-0.5342842842842846 	299.9706350380753 	0.0850696092109747 	101290.2891619714
-0.531781781781782 	299.9710497434456 	0.08386760775559966 	101290.7793036342
-0.5292792792792794 	299.9714694962531 	0.08265143204085963 	101291.2754131726
-0.526776776776777 	299.9718950603227 	0.08141695592204351 	101291.7783936128
-0.5242742742742745 	299.9723268146647 	0.08016613829334839 	101292.2886913589
-0.521771771771772 	299.972764374314 	0.07890044109071628 	101292.8058528481
-0.5192692692692695 	299.9732068392667 	0.07761872005638923 	101293.3288133575
-0.516766766766767 	299.973653340024 	0.07632564718851759 	101293.8565448815
-0.5142642642642645 	299.9741035818374 	0.07501946989650626 	101294.3887009951
-0.511761761761762 	299.9745580027958 	0.07370258684465288 	101294.9257981708
-0.5092592592592596 	299.9750174204706 	0.07237302207846681 	101295.4688049377
-0.506756756756757 	299.9754824531337 	0.07102566676593675 	101296.0184503473
-0.5042542542542544 	299.9759530816311 	0.06966270379257609 	101296.5747109963
-0.5017517517517521 	299.9764286045053 	0.06828460243797743 	101297.1367586253
-0.4992492492492494 	299.9769080177103 	0.06689580753931824 	101297.7034057881
-0.496746746746747 	299.9773905867042 	0.06549825717198471 	101298.2737860669
-0.4942442442442445 	299.9778761718084 	0.06409155779068848 	101298.8477337065
-0.4917417417417421 	299.9783652275805 	0.06267524861640698 	101299.4257858047
-0.4892392392392395 	299.978858509365 	0.06124580816538955 	101300.0088359654
-0.486736736736737 	299.9793566397282 	0.05980243642604195 	101300.5976197532
-0.4842342342342345 	299.9798597805284 	0.05834478256453052 	101301.1923291459
-0.481731731731732 	299.980367564221 	0.05687395876552765 	101301.7925276246
-0.4792292292292296 	299.9808790694963 	0.05539284556859211 	101302.3971269496
-0.4767267267267268 	299.9813932212545 	0.05390316273910262 	101303.0048567365
-0.4742242242242246 	299.9819095166443 	0.05240725324437125 	101303.6151220865
-0.471721721721722 	299.9824280640609 	0.05090521706310403 	101304.2280538198
-0.4692192192192195 	299.9829491528444 	0.04939554528747135 	101304.8439925031
-0.4667167167167169 	299.9834734264148 	0.0478765846792009 	101305.463698493
-0.4642142142142145 	299.9840016045176 	0.04634633753823983 	101306.0880214687
-0.461711711711712 	299.9845338411265 	0.04480446059082566 	101306.7171447724
-0.4592092092092094 	299.9850700123135 	0.04325122602435226 	101307.3509227207
-0.456706706706707 	299.9856096136189 	0.04168827468037508 	101307.9887584058
-0.4542042042042045 	299.9861517989437 	0.04011767948673735 	101308.6296514167
-0.451701701701702 	299.9866960209602 	0.03854101874507702 	101309.2729523134
-0.4491991991991995 	299.9872416817557 	0.03696086462246363 	101309.9179560838
-0.4466966966966969 	299.9877886766524 	0.03537628234523472 	101310.5645407863
-0.4441941941941945 	299.988336973838 	0.03378711863722215 	101311.212669166
-0.441691691691692 	299.9888869777618 	0.03219380639123678 	101311.8628197394
-0.4391891891891895 	299.9894389090409 	0.03059440365362075 	101312.515250473
-0.436686686686687 	299.9899932359384 	0.02898827094720023 	101313.1705141737
-0.4341841841841846 	299.9905500791634 	0.02737466399068671 	101313.8287549792
-0.431681681681682 	299.9911094196721 	0.025754283556486 	101314.4899522844
-0.4291791791791794 	299.9916711823214 	0.02412731372256089 	101315.1540190149
-0.426676676676677 	299.9922350026587 	0.02249412014205052 	101315.8205214475
-0.4241741741741744 	299.99280058186 	0.02085565911283353 	101316.4891039386
-0.421671671671672 	299.9933675987673 	0.0192129122991825 	101317.1593856559
-0.4191691691691694 	299.9939355298233 	0.01756843484710416 	101317.8307498498
-0.4166666666666669 	299.9945041408599 	0.01592167835657055 	101318.502924189
-0.4141641641641645 	299.9950734423309 	0.01427225950478411 	101319.1759218858
-0.411661661661662 	299.9956432892482 	0.01262059995081465 	101319.8495683263
-0.4091591591591594 	299.9962135209688 	0.01096658287328514 	101320.5236708847
-0.406656656656657 	299.996784215669 	0.009313927418596582 	101321.198319181
-0.4041541541541545 	299.9973553782762 	0.007660854681184338 	101321.8735214401
-0.401651651651652 	299.9979268924101 	0.006005069141749822 	101322.5491451838
-0.3991491491491494 	299.9984987236027 	0.004349082569693796 	101323.2251514388
-0.396646646646647 	299.9990706651323 	0.002690683725504828 	101323.9012963894
-0.3941441441441444 	299.9996426302473 	0.001033960989937265 	101324.5774695665
-0.3916416416416419 	300.0002145587298 	0.0008631883816963871 	101325.2535984174
-0.3891391391391395 	300.0007865400023 	0.002278136293915208 	101325.9297868361
-0.3866366366366368 	300.0013585221747 	0.003935223728168668 	101326.6059792253
-0.3841341341341344 	300.0019303993142 	0.005593287851571091 	101327.2820562106
-0.381631631631632 	300.0025020627879 	0.007249494342769418 	101327.9578910489
-0.3791291291291294 	300.0030734016331 	0.008904163010310513 	101328.6333482403
-0.3766266266266269 	300.0036442907425 	0.01055789656327014 	101329.3082728479
-0.3741241241241244 	300.004214582463 	0.01220896896524327 	101329.9824862897
-0.371621621621622 	300.0047841181359 	0.01385889149007096 	101330.655803344
-0.3691191191191194 	300.0053527533997 	0.01550581153386238 	101331.3280587884
-0.366616616616617 	300.0059203695 	0.01714979814614071 	101331.9991205147
-0.3641141141141143 	300.0064868734372 	0.01879106314332178 	101332.6688799039
-0.3616116116116119 	300.0070521814986 	0.02042872184257547 	101333.3372330003
-0.3591091091091095 	300.0076162085469 	0.02206316180477247 	101334.0040711314
-0.356606606606607 	300.0081788653213 	0.02369315079943629 	101334.6692820357
-0.3541041041041044 	300.0087400534254 	0.02531864950729008 	101335.3327497612
-0.3516016016016019 	300.0092996608434 	0.02693957474826502 	101335.9943485146
-0.3490990990990994 	300.0098575609276 	0.02855543481193354 	101336.6539390557
-0.346596596596597 	300.0104136269585 	0.03016645465321267 	101337.3113768181
-0.3440940940940944 	300.0109677478558 	0.03177177312607807 	101337.9665280057
-0.3415915915915919 	300.0115198349593 	0.03337134489721805 	101338.6192794772
-0.3390890890890895 	300.0120698152608 	0.03496477848341897 	101339.2695337609
-0.3365865865865869 	300.0126176112019 	0.03655166777205607 	101339.917194447
-0.3340840840840844 	300.0131631290649 	0.03813206890721211 	101340.56215402
-0.3315815815815819 	300.0137062585916 	0.03970521932444999 	101341.2042907185
-0.3290790790790794 	300.0142468775544 	0.04127110135029134 	101341.8434714822
-0.3265765765765769 	300.0147848627277 	0.04282918131252833 	101342.4795560667
-0.3240740740740744 	300.0153200963636 	0.04437933108000434 	101343.1124034678
-0.3215715715715718 	300.0158524760747 	0.04592169896464603 	101343.741883784
-0.3190690690690695 	300.0163819204283 	0.04745563285757198 	101344.3678890851
-0.3165665665665668 	300.0169083627138 	0.04898110404547501 	101344.9903311687
-0.3140640640640644 	300.0174317318932 	0.05049722161917058 	101345.609125615
-0.311561561561562 	300.0179519391123 	0.05200397160982004 	101346.2241764918
-0.3090590590590593 	300.0184688822129 	0.05350153262133622 	101346.8353730478
-0.3065565565565568 	300.0189824487014 	0.05498928162808152 	101347.442593734
-0.3040540540540545 	300.0194925259352 	0.05646721433647976 	101348.0457097887
-0.3015515515515518 	300.0199990067742 	0.05793396866155911 	101348.6445899753
-0.2990490490490494 	300.0205017919843 	0.05938987617500931 	101349.2391092484
-0.2965465465465469 	300.0210007985641 	0.06083540869937135 	101349.8291561299
-0.2940440440440444 	300.0214959498404 	0.06227016168552938 	101350.4146318696
-0.2915415415415418 	300.021987169213 	0.06369426465290863 	101350.9954425922
-0.2890390390390395 	300.0224743745436 	0.06510514819759829 	101351.5714931955