/*--------------------------------*- C++ -*----------------------------------*\
  =========                 |
  \\      /  F ield         | OpenFOAM: The Open Source CFD Toolbox
   \\    /   O peration     | Website:  https://openfoam.org
    \\  /    A nd           | Version:  7
     \\/     M anipulation  |
\*---------------------------------------------------------------------------*/
FoamFile
{
    version     2.0;
    format      ascii;
    class       volScalarField;
    location    "0.00093";
    object      mag(U);
}
// * * * * * * * * * * * * * * * * * * * * * * * * * * * * * * * * * * * * * //

dimensions      [0 1 -1 0 0 0 0];

internalField   nonuniform List<scalar> 
5000
(
2.6262362e-12
2.6268365e-12
2.6530765e-12
2.5919986e-12
2.6110579e-12
2.6423611e-12
2.3474367e-12
2.5922018e-12
2.559119e-12
2.4343891e-12
2.5459239e-12
2.8072213e-12
2.8693033e-12
2.7762308e-12
2.4605803e-12
2.5966122e-12
2.7845657e-12
2.2177587e-12
2.1204234e-12
2.1333893e-12
2.4129927e-12
2.4371997e-12
2.2965334e-12
2.4025146e-12
2.8398888e-12
2.9639934e-12
2.883088e-12
2.3478285e-12
2.1781528e-12
2.2374222e-12
1.7259241e-12
1.9907182e-12
2.3105485e-12
2.3542182e-12
2.4517701e-12
2.6724059e-12
3.2016942e-12
3.3338459e-12
2.873335e-12
2.6627164e-12
2.9113845e-12
2.755391e-12
2.7244843e-12
2.9584848e-12
2.557762e-12
2.8024575e-12
3.1549518e-12
2.889987e-12
2.7286428e-12
2.4078055e-12
3.1100197e-12
2.999415e-12
2.9034431e-12
2.8747552e-12
2.7080832e-12
2.7284804e-12
2.3898943e-12
2.7443656e-12
2.8251312e-12
2.5695231e-12
2.6119459e-12
2.6345272e-12
2.6142324e-12
2.6184522e-12
2.2226771e-12
2.4987247e-12
2.49797e-12
2.4037255e-12
2.6017505e-12
2.472981e-12
2.2128303e-12
2.606321e-12
2.6728787e-12
2.738747e-12
2.8075236e-12
3.2989693e-12
3.0189173e-12
3.0544408e-12
3.2879556e-12
3.4179857e-12
3.4516122e-12
3.6177951e-12
3.9017175e-12
3.3907877e-12
3.1618941e-12
2.8136915e-12
2.7410473e-12
2.8228169e-12
2.6623146e-12
2.5461524e-12
2.6628872e-12
2.9705706e-12
3.0094811e-12
2.4931016e-12
2.4664298e-12
2.4513546e-12
2.6982059e-12
2.8732058e-12
3.0513109e-12
2.6533253e-12
2.5765596e-12
2.2443721e-12
2.1843058e-12
2.2056055e-12
2.1977537e-12
2.2021238e-12
2.0445318e-12
2.0701433e-12
2.1144539e-12
2.236589e-12
2.3784849e-12
2.3917621e-12
2.1325941e-12
2.5360057e-12
2.5737589e-12
2.4780242e-12
2.4253949e-12
2.7203512e-12
2.224236e-12
1.8021742e-12
2.0681539e-12
2.1169729e-12
1.9363756e-12
2.1232671e-12
2.0919607e-12
2.0887149e-12
2.2634031e-12
2.0326677e-12
1.9382629e-12
2.6991064e-12
2.5285685e-12
2.5238503e-12
2.3197892e-12
2.1237347e-12
2.4697295e-12
2.5033966e-12
2.5726752e-12
2.5105689e-12
2.7387809e-12
2.7081103e-12
2.6431729e-12
2.5131901e-12
2.7512339e-12
2.7573483e-12
2.6935747e-12
2.9524128e-12
2.7387024e-12
2.4306688e-12
2.3817902e-12
2.4196052e-12
2.3550369e-12
2.3527812e-12
2.3757896e-12
2.5582579e-12
2.6047896e-12
2.7044773e-12
3.0833643e-12
3.031618e-12
2.779864e-12
2.913114e-12
3.179362e-12
3.0107846e-12
2.9192067e-12
3.196802e-12
3.7943144e-12
3.8957927e-12
3.7213116e-12
3.7754812e-12
3.696551e-12
3.1657608e-12
3.2691142e-12
2.9127366e-12
2.8087279e-12
2.8506353e-12
2.5878366e-12
2.4982059e-12
2.5338335e-12
2.2181894e-12
2.157188e-12
2.2886384e-12
2.1491589e-12
2.0909883e-12
2.3520516e-12
2.6515126e-12
2.5831568e-12
2.5344076e-12
2.8983996e-12
3.0801309e-12
3.0328648e-12
3.371734e-12
2.96118e-12
2.886913e-12
2.9956249e-12
2.9260298e-12
3.0938829e-12
3.309472e-12
2.6284636e-12
2.2203244e-12
2.7616186e-12
2.7093964e-12
2.781575e-12
3.2456911e-12
3.6877963e-12
3.2491504e-12
3.2630606e-12
3.4273923e-12
3.0269843e-12
2.8363466e-12
2.9904052e-12
3.1060948e-12
2.95378e-12
2.6184361e-12
2.8894847e-12
2.8476511e-12
2.5292771e-12
2.8233803e-12
3.1791262e-12
2.9191672e-12
2.8449569e-12
2.9833711e-12
3.3960467e-12
3.2971512e-12
3.3996854e-12
3.546922e-12
3.4436476e-12
3.7114468e-12
3.2704656e-12
3.4158194e-12
3.5275565e-12
3.4047113e-12
3.366917e-12
3.3684099e-12
3.4785818e-12
3.3152915e-12
3.124201e-12
2.59314e-12
2.5086923e-12
2.4914247e-12
2.7019105e-12
3.1304778e-12
2.9476992e-12
2.967001e-12
3.0104177e-12
2.9549167e-12
2.5942116e-12
2.5116647e-12
2.3840181e-12
2.8082968e-12
2.9490066e-12
2.6264901e-12
2.6607621e-12
2.7390783e-12
3.0118241e-12
2.7125382e-12
2.1985595e-12
2.4934939e-12
2.2098527e-12
2.3235997e-12
2.6348974e-12
2.4266547e-12
2.3648667e-12
2.202564e-12
2.0614635e-12
1.8943631e-12
1.7544284e-12
1.6991369e-12
2.0801505e-12
2.095315e-12
2.2608039e-12
2.0490706e-12
2.5200195e-12
2.3562658e-12
1.9603283e-12
2.5068926e-12
2.6005238e-12
2.5781998e-12
1.9821167e-12
2.2163763e-12
2.5859422e-12
2.7663474e-12
2.8685486e-12
2.854774e-12
3.0495927e-12
2.7035202e-12
3.1033744e-12
2.9794817e-12
2.4037885e-12
2.8754778e-12
2.8203961e-12
2.9036719e-12
2.8625431e-12
2.8955114e-12
3.3546526e-12
3.1578019e-12
3.2618836e-12
3.8467386e-12
3.1773356e-12
3.1935141e-12
3.4325107e-12
3.5126273e-12
3.6681323e-12
3.6827154e-12
3.9552209e-12
3.6277368e-12
3.5539023e-12
4.0041468e-12
4.0675916e-12
3.8332787e-12
3.7214628e-12
4.1231949e-12
4.1342575e-12
3.4303274e-12
3.7192381e-12
4.4156837e-12
4.1650969e-12
4.168319e-12
4.1589825e-12
3.6983198e-12
3.8700027e-12
3.9072435e-12
4.2023351e-12
4.3055462e-12
4.1635302e-12
3.8113451e-12
3.7272775e-12
3.4441554e-12
3.8569449e-12
3.6848165e-12
4.033121e-12
3.9494887e-12
3.9088824e-12
4.2961557e-12
3.9326748e-12
3.3727733e-12
3.2712928e-12
3.3722806e-12
3.1967349e-12
2.890162e-12
2.5803216e-12
2.7834322e-12
2.8489301e-12
2.9337812e-12
3.0051057e-12
3.2054041e-12
2.765946e-12
2.6685828e-12
3.1013664e-12
3.102288e-12
2.9207367e-12
3.3683245e-12
3.1368884e-12
3.0242145e-12
3.6015263e-12
3.8274082e-12
4.0738296e-12
4.3743427e-12
4.1112048e-12
4.2180744e-12
4.4286053e-12
4.5248707e-12
4.7253562e-12
4.5766437e-12
4.3754809e-12
4.4042523e-12
4.6704869e-12
4.546876e-12
4.7198218e-12
4.7673611e-12
4.6038388e-12
4.5955019e-12
4.3047511e-12
4.6563771e-12
4.5823881e-12
4.2585749e-12
4.1138513e-12
3.5889804e-12
3.8276124e-12
3.7286637e-12
3.450143e-12
3.5313265e-12
3.5657728e-12
3.6151863e-12
3.6452517e-12
3.8152824e-12
4.0092409e-12
3.9010072e-12
3.4191479e-12
3.7038037e-12
3.8088518e-12
3.3769796e-12
3.1852707e-12
3.1891348e-12
3.1526609e-12
3.4458449e-12
3.3809238e-12
3.3290378e-12
3.7079211e-12
4.2461637e-12
4.0879324e-12
3.8337914e-12
4.0497022e-12
3.6513659e-12
3.7688705e-12
3.8443747e-12
4.054019e-12
4.5150048e-12
4.8367832e-12
4.9256175e-12
4.8736136e-12
5.1692582e-12
5.371641e-12
5.4171667e-12
5.4905261e-12
6.5616833e-12
6.6917379e-12
7.4988282e-12
7.9266088e-12
8.0559278e-12
8.1216641e-12
8.2464217e-12
9.1730383e-12
9.6460306e-12
1.022237e-11
1.0854775e-11
1.1611023e-11
1.2708633e-11
1.4519725e-11
1.5536576e-11
1.7064822e-11
1.9027556e-11
2.0367426e-11
2.2348352e-11
2.4726517e-11
2.6471098e-11
2.8892677e-11
3.154425e-11
3.4987057e-11
3.8368984e-11
4.1856916e-11
4.656889e-11
5.1256237e-11
5.5556704e-11
6.0918926e-11
6.6909076e-11
7.3149923e-11
8.0203956e-11
8.7920659e-11
9.6157918e-11
1.0548089e-10
1.1603855e-10
1.2723383e-10
1.3998307e-10
1.5365833e-10
1.6865151e-10
1.8460964e-10
2.0243305e-10
2.2222051e-10
2.4363485e-10
2.6722456e-10
2.9282941e-10
3.2076923e-10
3.5172806e-10
3.858236e-10
4.2240559e-10
4.6292692e-10
5.074121e-10
5.5611745e-10
6.0899436e-10
6.6738419e-10
7.3123813e-10
8.0102216e-10
8.7672429e-10
9.5986735e-10
1.0512451e-09
1.1496748e-09
1.2580568e-09
1.3769335e-09
1.5069764e-09
1.648911e-09
1.8029285e-09
1.9706999e-09
2.1540959e-09
2.3549172e-09
2.5744459e-09
2.8132958e-09
3.074062e-09
3.3580965e-09
3.6674745e-09
4.0056738e-09
4.3739604e-09
4.7754543e-09
5.2131542e-09
5.6891306e-09
6.2082599e-09
6.7732852e-09
7.3886246e-09
8.0585039e-09
8.7878075e-09
9.5816164e-09
1.0445507e-08
1.1385219e-08
1.2407306e-08
1.3519139e-08
1.4728809e-08
1.6044489e-08
1.7474509e-08
1.9028406e-08
2.0717012e-08
2.2551723e-08
2.4544077e-08
2.6709441e-08
2.9061706e-08
3.161499e-08
3.4386584e-08
3.7394688e-08
4.0659955e-08
4.4203021e-08
4.8046689e-08
5.2215855e-08
5.673771e-08
6.1640722e-08
6.6956714e-08
7.2718851e-08
7.8963235e-08
8.5728874e-08
9.3059071e-08
1.0099927e-07
1.0959856e-07
1.1891021e-07
1.2899099e-07
1.399041e-07
1.517144e-07
1.6449368e-07
1.7831936e-07
1.9327503e-07
2.0944836e-07
2.2693699e-07
2.4584556e-07
2.6628343e-07
2.8837101e-07
3.12239e-07
3.3802427e-07
3.6587712e-07
3.9595731e-07
4.2843681e-07
4.6350238e-07
5.013524e-07
5.4220025e-07
5.8627635e-07
6.338271e-07
6.8511606e-07
7.4042884e-07
8.0006953e-07
8.6436598e-07
9.3366884e-07
1.0083546e-06
1.088827e-06
1.1755185e-06
1.2688938e-06
1.369449e-06
1.4777166e-06
1.5942681e-06
1.7197144e-06
1.8547102e-06
1.9999561e-06
2.1562003e-06
2.3242465e-06
2.5049536e-06
2.6992407e-06
2.9080899e-06
3.1325504e-06
3.3737463e-06
3.6328774e-06
3.911226e-06
4.2101639e-06
4.5311548e-06
4.8757625e-06
5.2456566e-06
5.6426192e-06
6.0685512e-06
6.5254846e-06
7.0155854e-06
7.5411638e-06
8.1046828e-06
8.7087683e-06
9.3562226e-06
1.005003e-05
1.079337e-05
1.1589631e-05
1.2442423e-05
1.3355588e-05
1.4333216e-05
1.5379663e-05
1.6499565e-05
1.7697852e-05
1.897977e-05
2.0350898e-05
2.1817169e-05
2.3384887e-05
2.5060759e-05
2.6851906e-05
2.8765894e-05
3.0810762e-05
3.2995046e-05
3.5327807e-05
3.7818665e-05
4.047783e-05
4.3316133e-05
4.6345064e-05
4.9576809e-05
5.3024289e-05
5.6701202e-05
6.0622065e-05
6.4802261e-05
6.9258087e-05
7.4006804e-05
7.906669e-05
8.4457094e-05
9.0198497e-05
9.6312574e-05
0.00010282226
0.00010975179
0.00011712684
0.0001249745
0.00013332346
0.00014220399
0.00015164809
0.00016168959
0.00017236416
0.00018370952
0.00019576544
0.00020857391
0.00022217924
0.00023662815
0.00025196993
0.00026825654
0.00028554275
0.00030388628
0.00032334795
0.00034399183
0.00036588537
0.0003890996
0.00041370931
0.00043979316
0.00046743395
0.00049671875
0.00052773914
0.00056059139
0.00059537669
0.0006322014
0.00067117723
0.00071242153
0.00075605752
0.00080221457
0.00085102846
0.00090264166
0.00095720363
0.0010148711
0.0010758085
0.0011401881
0.0012081905
0.0012800048
0.0013558292
0.0014358713
0.0015203484
0.0016094878
0.0017035276
0.0018027168
0.0019073157
0.0020175966
0.0021338442
0.0022563558
0.0023854424
0.0025214284
0.002664653
0.0028154701
0.002974249
0.0031413751
0.0033172506
0.0035022948
0.0036969448
0.0039016564
0.0041169044
0.0043431836
0.004581009
0.0048309173
0.0050934667
0.0053692385
0.0056588371
0.0059628913
0.0062820549
0.0066170075
0.0069684554
0.0073371322
0.0077238
0.0081292501
0.0085543039
0.0089998135
0.0094666635
0.0099557707
0.010468086
0.011004595
0.01156632
0.012154317
0.012769684
0.013413554
0.014087102
0.014791543
0.015528133
0.016298172
0.017103004
0.017944017
0.018822646
0.019740373
0.020698728
0.021699289
0.022743687
0.023833603
0.02497077
0.026156976
0.027394062
0.028683928
0.030028526
0.03142987
0.032890033
0.034411144
0.035995398
0.037645048
0.039362414
0.041149876
0.043009882
0.044944945
0.046957645
0.04905063
0.051226616
0.053488389
0.055838805
0.058280792
0.060817348
0.063451547
0.066186533
0.069025524
0.071971814
0.075028771
0.07819984
0.08148854
0.084898466
0.088433293
0.092096768
0.095892719
0.099825051
0.10389774
0.10811486
0.11248053
0.11699897
0.12167447
0.12651141
0.13151421
0.13668741
0.14203561
0.14756347
0.15327573
0.15917723
0.16527286
0.17156758
0.17806642
0.18477451
0.19169701
0.19883917
0.2062063
0.21380379
0.22163707
0.22971165
0.2380331
0.24660703
0.25543914
0.26453517
0.27390089
0.28354217
0.29346488
0.30367498
0.31417845
0.32498131
0.33608963
0.34750953
0.35924714
0.37130863
0.38370021
0.39642812
0.4094986
0.42291793
0.4366924
0.45082833
0.46533204
0.48020985
0.4954681
0.51111313
0.52715128
0.54358887
0.56043224
0.5776877
0.59536154
0.61346005
0.63198949
0.65095609
0.67036606
0.69022557
0.71054077
0.73131774
0.75256256
0.77428122
0.79647969
0.81916388
0.84233964
0.86601276
0.89018896
0.9148739
0.94007318
0.96579231
0.99203672
1.0188118
1.0461227
1.0739748
1.1023731
1.1313226
1.1608281
1.1908946
1.2215268
1.2527291
1.2845062
1.3168623
1.3498019
1.383329
1.4174476
1.4521617
1.4874751
1.5233915
1.5599143
1.5970471
1.634793
1.6731553
1.712137
1.751741
1.7919699
1.8328264
1.8743131
1.9164321
1.9591857
2.002576
2.0466047
2.0912738
2.1365848
2.1825391
2.229138
2.2763829
2.3242745
2.3728139
2.4220017
2.4718386
2.5223249
2.5734609
2.6252468
2.6776825
2.7307679
2.7845026
2.8388862
2.8939181
2.9495976
3.0059237
3.0628954
3.1205115
3.1787707
3.2376716
3.2972125
3.3573916
3.4182072
3.4796571
3.5417392
3.6044513
3.6677908
3.7317553
3.7963421
3.8615483
3.9273711
3.9938072
4.0608536
4.128507
4.1967638
4.2656206
4.3350737
4.4051192
4.4757534
4.5469721
4.6187712
4.6911465
4.7640937
4.8376083
4.9116858
4.9863215
5.0615106
5.1372482
5.2135296
5.2903495
5.3677028
5.4455843
5.5239888
5.6029107
5.6823445
5.7622848
5.8427257
5.9236616
6.0050866
6.0869948
6.1693802
6.2522367
6.3355583
6.4193386
6.5035715
6.5882504
6.6733691
6.7589211
6.8448996
6.9312982
7.0181102
7.1053288
7.1929471
7.2809584
7.3693556
7.4581319
7.5472801
7.6367931
7.7266639
7.8168851
7.9074496
7.99835
8.0895789
8.1811291
8.2729929
8.3651629
8.4576315
8.5503912
8.6434343
8.7367531
8.8303398
8.9241868
9.0182861
9.1126299
9.2072104
9.3020195
9.3970493
9.4922918
9.5877389
9.6833826
9.7792146
9.8752268
9.971411
10.067759
10.164262
10.260913
10.357702
10.454622
10.551664
10.648819
10.746079
10.843436
10.940881
11.038405
11.135999
11.233656
11.331367
11.429122
11.526912
11.624731
11.722567
11.820413
11.918259
12.016097
12.113918
12.211713
12.309473
12.407188
12.50485
12.60245
12.699978
12.797426
12.894785
12.992044
13.089196
13.18623
13.283138
13.379911
13.476538
13.573012
13.669321
13.765458
13.861413
13.957176
14.052739
14.148091
14.243223
14.338127
14.432792
14.527208
14.621368
14.715261
14.808878
14.902209
14.995244
15.087976
15.180393
15.272487
15.364248
15.455667
15.546734
15.63744
15.727775
15.817731
15.907298
15.996466
16.085226
16.17357
16.261487
16.348969
16.436006
16.522589
16.608709
16.694358
16.779526
16.864203
16.948383
17.032054
17.11521
17.197841
17.279937
17.361493
17.442497
17.522942
17.602821
17.682124
17.760843
17.838971
17.916499
17.99342
18.069726
18.14541
18.220464
18.294881
18.368653
18.441774
18.514236
18.586033
18.657159
18.727606
18.797369
18.866442
18.934817
19.002491
19.069456
19.135709
19.201242
19.266052
19.330134
19.393482
19.456093
19.517962
19.579085
19.639459
19.69908
19.757944
19.816049
19.873391
19.929969
19.985779
20.040819
20.095089
20.148585
20.201306
20.253253
20.304422
20.354815
20.404431
20.453269
20.50133
20.548614
20.595122
20.640855
20.685814
20.730002
20.773418
20.816067
20.857949
20.899068
20.939427
20.979028
21.017876
21.055972
21.093323
21.129932
21.165803
21.200941
21.23535
21.269037
21.302006
21.334264
21.365815
21.396667
21.426825
21.456296
21.485086
21.513203
21.540654
21.567446
21.593586
21.619082
21.643943
21.668176
21.691788
21.714789
21.737187
21.758991
21.780209
21.800849
21.820922
21.840435
21.859398
21.877821
21.895711
21.91308
21.929935
21.946287
21.962145
21.977519
21.992417
22.006849
22.020826
22.034356
22.047449
22.060115
22.072363
22.084202
22.095642
22.106693
22.117363
22.127661
22.137598
22.147182
22.156423
22.165328
22.173908
22.182171
22.190125
22.197779
22.205142
22.212222
22.219027
22.225566
22.231846
22.237875
22.243662
22.249212
22.254536
22.259638
22.264528
22.269211
22.273694
22.277986
22.282091
22.286017
22.28977
22.293356
22.296781
22.300051
22.303172
22.306149
22.308988
22.311695
22.314273
22.316729
22.319067
22.321292
22.323409
22.325421
22.327335
22.329152
22.330878
22.332516
22.334071
22.335545
22.336943
22.338268
22.339523
22.340711
22.341835
22.342899
22.343905
22.344856
22.345755
22.346603
22.347404
22.34816
22.348873
22.349545
22.350178
22.350774
22.351336
22.351864
22.352361
22.352828
22.353267
22.353679
22.354066
22.354429
22.35477
22.355089
22.355388
22.355669
22.355931
22.356176
22.356406
22.35662
22.35682
22.357007
22.357181
22.357343
22.357494
22.357635
22.357766
22.357888
22.358001
22.358106
22.358203
22.358293
22.358376
22.358453
22.358524
22.358589
22.358649
22.358704
22.358755
22.358801
22.358843
22.358882
22.358917
22.358949
22.358977
22.359003
22.359027
22.359048
22.359068
22.359086
22.359104
22.359119
22.359135
22.359161
22.359187
22.359203
22.359219
22.359252
22.359286
22.359308
22.359327
22.359359
22.359395
22.359422
22.359442
22.35947
22.359505
22.359535
22.359558
22.359582
22.359611
22.359639
22.359663
22.359685
22.35971
22.359735
22.359758
22.359779
22.359798
22.359819
22.359838
22.359856
22.359871
22.359884
22.359897
22.35991
22.35992
22.359928
22.359939
22.359958
22.359971
22.359973
22.359987
22.360015
22.360031
22.360032
22.360048
22.360082
22.360106
22.360113
22.360131
22.360159
22.360178
22.360188
22.360202
22.360229
22.360255
22.360271
22.360283
22.360303
22.360326
22.360341
22.360352
22.36037
22.360392
22.360409
22.360422
22.360438
22.360456
22.360468
22.360479
22.360492
22.360509
22.360521
22.36053
22.360543
22.36056
22.360572
22.36058
22.360595
22.360614
22.360627
22.360634
22.360649
22.360669
22.360681
22.360686
22.360698
22.360718
22.360731
22.360735
22.360745
22.360763
22.360778
22.360787
22.360797
22.360812
22.360825
22.360835
22.360845
22.360861
22.360874
22.360884
22.360893
22.360905
22.360913
22.360923
22.360934
22.360946
22.360954
22.360966
22.360978
22.360978
22.360975
22.360977
22.360977
22.360983
22.360997
22.361007
22.361012
22.361018
22.361029
22.361045
22.361061
22.361075
22.361088
22.361103
22.36112
22.361136
22.361149
22.361162
22.361177
22.361193
22.361208
22.361225
22.361237
22.361252
22.361268
22.361281
22.361286
22.361291
22.361303
22.361304
22.361293
22.361284
22.361294
22.361296
22.361287
22.36128
22.361284
22.361285
22.361281
22.361283
22.361284
22.361285
22.361293
22.361302
22.361309
22.361318
22.361331
22.361344
22.361358
22.36137
22.361383
22.361396
22.361408
22.36142
22.361433
22.361448
22.361462
22.361468
22.361477
22.361489
22.361493
22.361497
22.361505
22.361505
22.361498
22.361493
22.361496
22.361499
22.3615
22.361498
22.361501
22.361508
22.361506
22.361497
22.361493
22.361494
22.361489
22.361488
22.36149
22.361491
22.361492
22.361497
22.361504
22.361509
22.361516
22.361525
22.361532
22.361536
22.361542
22.361551
22.361552
22.361546
22.361539
22.36154
22.361541
22.361544
22.361547
22.361548
22.361547
22.361544
22.361544
22.361546
22.361548
22.361548
22.361546
22.361543
22.361541
22.361541
22.361543
22.361544
22.361544
22.361545
22.361547
22.361549
22.361551
22.361553
22.361556
22.361559
22.361562
22.361566
22.361571
22.361576
22.361576
22.361575
22.361575
22.361576
22.361574
22.361568
22.361565
22.361566
22.361566
22.361568
22.361568
22.361564
22.361561
22.361563
22.361562
22.361559
22.361551
22.361549
22.361551
22.36155
22.361546
22.361541
22.36154
22.361541
22.361541
22.361538
22.361535
22.36153
22.361524
22.361519
22.361518
22.361516
22.361511
22.361506
22.361504
22.361502
22.361497
22.361493
22.36149
22.361486
22.36148
22.361473
22.361472
22.361471
22.361469
22.361465
22.361461
22.361457
22.361453
22.361449
22.361447
22.361447
22.361446
22.361443
22.361439
22.361435
22.361434
22.361432
22.361429
22.361425
22.361424
22.361423
22.361422
22.361418
22.361414
22.36141
22.361406
22.361404
22.361403
22.361401
22.361398
22.361395
22.361391
22.361387
22.361385
22.361383
22.361379
22.361375
22.361373
22.361371
22.361368
22.361363
22.361358
22.361356
22.361354
22.361352
22.361347
22.361342
22.36134
22.361339
22.361338
22.361335
22.361331
22.361328
22.361323
22.361322
22.361321
22.36132
22.361317
22.361313
22.361309
22.361307
22.361307
22.361305
22.361303
22.361299
22.361295
22.361292
22.361289
22.361288
22.361288
22.361287
22.361284
22.361281
22.361278
22.361274
22.36127
22.361269
22.361268
22.361267
22.361264
22.36126
22.361256
22.361254
22.361254
22.361253
22.36125
22.361247
22.361244
22.361241
22.36124
22.361238
22.361236
22.361233
22.361228
22.361226
22.361226
22.361225
22.361223
22.36122
22.361217
22.361215
22.361213
22.361211
22.361208
22.361206
22.361205
22.361203
22.361202
22.361199
22.361196
22.361195
22.361193
22.361191
22.361189
22.361188
22.361186
22.361184
22.361181
22.361179
22.361178
22.361176
22.361174
22.361171
22.361169
22.361168
22.361166
22.361163
22.36116
22.361158
22.361156
22.361154
22.361151
22.361148
22.361146
22.361144
22.361142
22.361138
22.361135
22.361133
22.361131
22.361129
22.361125
22.361122
22.361119
22.361116
22.361113
22.361111
22.361108
22.361105
22.361102
22.3611
22.361098
22.361096
22.361093
22.361091
22.361087
22.361084
22.361082
22.36108
22.361078
22.361075
22.361071
22.361068
22.361067
22.361065
22.361063
22.36106
22.361056
22.361054
22.361052
22.36105
22.361047
22.361044
22.361041
22.36104
22.361039
22.361037
22.361034
22.361031
22.361029
22.361026
22.361024
22.361021
22.361018
22.361017
22.361016
22.361014
22.361012
22.36101
22.361007
22.361005
22.361003
22.361001
22.360999
22.360997
22.360995
22.360992
22.360991
22.360989
22.360988
22.360986
22.360983
22.360982
22.36098
22.360978
22.360976
22.360974
22.360972
22.360971
22.360969
22.360968
22.360966
22.360963
22.360961
22.36096
22.360958
22.360956
22.360954
22.360952
22.360951
22.360949
22.360947
22.360945
22.360944
22.360942
22.36094
22.360939
22.360937
22.360935
22.360933
22.36093
22.360929
22.360928
22.360927
22.360925
22.360923
22.360921
22.360918
22.360917
22.360916
22.360915
22.360913
22.360911
22.360909
22.360907
22.360906
22.360905
22.360904
22.360902
22.3609
22.360898
22.360897
22.360896
22.360895
22.360894
22.360892
22.360891
22.36089
22.360888
22.360887
22.360886
22.360885
22.360884
22.360883
22.360882
22.360881
22.360879
22.360878
22.360877
22.360876
22.360876
22.360875
22.360873
22.360872
22.36087
22.360869
22.360869
22.360868
22.360867
22.360866
22.360864
22.360862
22.360861
22.36086
22.36086
22.360859
22.360857
22.360855
22.360854
22.360852
22.36085
22.360849
22.360848
22.360846
22.360845
22.360844
22.360842
22.36084
22.360838
22.360836
22.360834
22.360832
22.36083
22.360828
22.360826
22.360824
22.360823
22.360821
22.360818
22.360816
22.360814
22.360812
22.36081
22.360808
22.360806
22.360803
22.360801
22.360799
22.360797
22.360795
22.360792
22.36079
22.360788
22.360786
22.360784
22.360782
22.36078
22.360778
22.360776
22.360774
22.360772
22.360769
22.360768
22.360766
22.360765
22.360763
22.360761
22.360758
22.360757
22.360756
22.360754
22.360753
22.360751
22.36075
22.360748
22.360747
22.360745
22.360744
22.360742
22.360741
22.360741
22.36074
22.360739
22.360737
22.360736
22.360735
22.360733
22.360732
22.360731
22.36073
22.36073
22.360729
22.360728
22.360726
22.360725
22.360724
22.360723
22.360722
22.360721
22.36072
22.360718
22.360717
22.360716
22.360715
22.360714
22.360713
22.360712
22.36071
22.360709
22.360708
22.360707
22.360705
22.360703
22.360702
22.360701
22.3607
22.360698
22.360697
22.360695
22.360693
22.360692
22.36069
22.360689
22.360687
22.360686
22.360684
22.360683
22.360681
22.360679
22.360678
22.360676
22.360675
22.360673
22.360672
22.36067
22.360668
22.360667
22.360665
22.360664
22.360663
22.360661
22.360659
22.360658
22.360657
22.360656
22.360654
22.360653
22.360652
22.36065
22.360649
22.360648
22.360647
22.360646
22.360645
22.360644
22.360643
22.360641
22.36064
22.360639
22.360638
22.360638
22.360637
22.360636
22.360635
22.360634
22.360633
22.360633
22.360632
22.360631
22.36063
22.360629
22.360628
22.360628
22.360627
22.360626
22.360625
22.360624
22.360623
22.360622
22.360622
22.360621
22.36062
22.360619
22.360618
22.360617
22.360616
22.360616
22.360615
22.360614
22.360613
22.360611
22.36061
22.36061
22.360609
22.360607
22.360606
22.360605
22.360604
22.360603
22.360602
22.3606
22.360599
22.360597
22.360596
22.360595
22.360594
22.360593
22.360592
22.36059
22.360589
22.360587
22.360586
22.360585
22.360584
22.360583
22.360581
22.36058
22.360578
22.360576
22.360575
22.360574
22.360573
22.360571
22.36057
22.360568
22.360566
22.360566
22.360565
22.360564
22.360562
22.360561
22.360559
22.360557
22.360556
22.360555
22.360554
22.360553
22.360552
22.36055
22.360548
22.360547
22.360546
22.360545
22.360544
22.360542
22.360541
22.360539
22.360539
22.360538
22.360537
22.360535
22.360534
22.360532
22.360531
22.36053
22.360529
22.360528
22.360527
22.360525
22.360524
22.360523
22.360522
22.360521
22.36052
22.360518
22.360517
22.360516
22.360515
22.360514
22.360513
22.360511
22.36051
22.36051
22.360509
22.360508
22.360506
22.360505
22.360504
22.360503
22.360502
22.360501
22.3605
22.360499
22.360498
22.360496
22.360495
22.360494
22.360493
22.360493
22.360492
22.360491
22.36049
22.360488
22.360487
22.360486
22.360485
22.360484
22.360483
22.360482
22.360481
22.36048
22.360479
22.360478
22.360476
22.360475
22.360475
22.360474
22.360473
22.360471
22.36047
22.360469
22.360468
22.360467
22.360466
22.360464
22.360463
22.360461
22.36046
22.360459
22.360458
22.360457
22.360456
22.360454
22.360453
22.360452
22.360451
22.360449
22.360448
22.360446
22.360445
22.360444
22.360443
22.360441
22.36044
22.360438
22.360437
22.360435
22.360434
22.360433
22.360432
22.36043
22.360429
22.360428
22.360426
22.360425
22.360424
22.360422
22.360421
22.36042
22.360418
22.360417
22.360416
22.360415
22.360413
22.360412
22.360411
22.36041
22.360409
22.360408
22.360407
22.360405
22.360404
22.360403
22.360402
22.360401
22.3604
22.360399
22.360398
22.360397
22.360396
22.360395
22.360394
22.360393
22.360392
22.360392
22.360391
22.36039
22.360389
22.360389
22.360388
22.360387
22.360386
22.360386
22.360385
22.360384
22.360383
22.360382
22.360382
22.360381
22.360381
22.36038
22.360379
22.360379
22.360378
22.360377
22.360376
22.360376
22.360375
22.360375
22.360374
22.360373
22.360372
22.360372
22.360371
22.360371
22.36037
22.360369
22.360368
22.360367
22.360367
22.360366
22.360366
22.360365
22.360363
22.360363
22.360362
22.360362
22.360361
22.36036
22.360359
22.360358
22.360357
22.360356
22.360356
22.360355
22.360354
22.360353
22.360352
22.360351
22.36035
22.360349
22.360348
22.360347
22.360346
22.360346
22.360345
22.360344
22.360343
22.360342
22.36034
22.360339
22.360338
22.360338
22.360337
22.360336
22.360335
22.360333
22.360332
22.360331
22.36033
22.360329
22.360328
22.360327
22.360326
22.360325
22.360323
22.360322
22.360321
22.360321
22.360319
22.360318
22.360317
22.360316
22.360315
22.360314
22.360312
22.360311
22.36031
22.360309
22.360308
22.360307
22.360306
22.360304
22.360303
22.360302
22.360301
22.3603
22.360299
22.360297
22.360296
22.360295
22.360294
22.360293
22.360292
22.360291
22.360289
22.360288
22.360287
22.360286
22.360285
22.360284
22.360282
22.360281
22.36028
22.360279
22.360278
22.360277
22.360276
22.360275
22.360274
22.360272
22.360271
22.360271
22.36027
22.360268
22.360267
22.360266
22.360265
22.360264
22.360263
22.360262
22.360261
22.36026
22.360259
22.360259
22.360258
22.360256
22.360255
22.360254
22.360253
22.360253
22.360252
22.360251
22.36025
22.360249
22.360248
22.360247
22.360246
22.360246
22.360245
22.360244
22.360243
22.360242
22.360241
22.36024
22.36024
22.360239
22.360238
22.360237
22.360236
22.360235
22.360235
22.360234
22.360233
22.360232
22.360231
22.36023
22.36023
22.360229
22.360228
22.360227
22.360226
22.360226
22.360225
22.360224
22.360224
22.360223
22.360222
22.360221
22.36022
22.360219
22.360219
22.360218
22.360217
22.360217
22.360216
22.360215
22.360214
22.360214
22.360213
22.360212
22.360211
22.36021
22.36021
22.360209
22.360208
22.360207
22.360207
22.360206
22.360205
22.360204
22.360204
22.360203
22.360202
22.360201
22.360201
22.3602
22.360199
22.360198
22.360197
22.360197
22.360196
22.360195
22.360195
22.360194
22.360193
22.360192
22.360191
22.36019
22.36019
22.360189
22.360188
22.360187
22.360186
22.360186
22.360185
22.360184
22.360184
22.360183
22.360182
22.360181
22.36018
22.360179
22.360179
22.360178
22.360177
22.360176
22.360175
22.360174
22.360174
22.360173
22.360172
22.360171
22.360171
22.36017
22.360169
22.360168
22.360167
22.360167
22.360166
22.360165
22.360164
22.360163
22.360162
22.360162
22.360161
22.36016
22.360159
22.360158
22.360158
22.360157
22.360156
22.360155
22.360154
22.360153
22.360152
22.360152
22.360151
22.36015
22.360149
22.360148
22.360147
22.360146
22.360146
22.360145
22.360144
22.360143
22.360142
22.360141
22.36014
22.360139
22.360139
22.360138
22.360137
22.360136
22.360135
22.360134
22.360133
22.360132
22.360131
22.36013
22.360129
22.360129
22.360128
22.360127
22.360126
22.360125
22.360124
22.360123
22.360122
22.360121
22.36012
22.360119
22.360118
22.360117
22.360116
22.360115
22.360114
22.360113
22.360112
22.360112
22.360111
22.360109
22.360108
22.360107
22.360107
22.360106
22.360105
22.360104
22.360103
22.360102
22.360101
22.3601
22.360099
22.360098
22.360097
22.360096
22.360095
22.360094
22.360093
22.360093
22.360092
22.360091
22.360089
22.360089
22.360088
22.360087
22.360086
22.360085
22.360084
22.360083
22.360082
22.360081
22.36008
22.360079
22.360078
22.360077
22.360076
22.360075
22.360075
22.360074
22.360073
22.360072
22.360071
22.36007
22.360069
22.360068
22.360068
22.360067
22.360066
22.360065
22.360064
22.360063
22.360062
22.360061
22.36006
22.36006
22.360059
22.360058
22.360057
22.360056
22.360055
22.360054
22.360053
22.360053
22.360052
22.360051
22.36005
22.36005
22.360049
22.360048
22.360047
22.360046
22.360046
22.360045
22.360044
22.360043
22.360042
22.360041
22.360041
22.36004
22.36004
22.36004
22.36004
22.36004
22.36004
22.36004
22.360039
22.360038
22.360036
22.360034
22.36003
22.360026
22.360021
22.360016
22.360012
22.36001
22.36001
22.360013
22.360019
22.360029
22.360042
22.360057
22.360072
22.360086
22.360099
22.360118
22.360161
22.360289
22.36067
22.361921
22.363196
22.361682
22.359368
22.359666
22.359962
22.35993
22.359928
22.359958
22.35999
22.360005
22.360017
22.360026
22.36003
22.360031
22.360031
22.36003
22.360029
22.360029
22.360028
22.360029
22.360029
22.360029
22.36003
22.36003
22.36003
22.36003
22.36003
22.360029
22.360028
22.360022
22.360011
22.360017
22.360027
22.360026
22.360024
22.360024
22.360023
22.360022
22.360022
22.360021
22.36002
22.36002
22.360019
22.360018
22.360018
22.360017
22.360016
22.360016
22.360015
22.360014
22.360013
22.360013
22.360012
22.360011
22.360011
22.36001
22.360009
22.360008
22.360008
22.360007
22.360006
22.360005
22.360005
22.360004
22.360003
22.360002
22.360001
22.360001