/*--------------------------------*- C++ -*----------------------------------*\
| =========                 |                                                 |
| \\      /  F ield         | OpenFOAM: The Open Source CFD Toolbox           |
|  \\    /   O peration     | Version:  4.x                                   |
|   \\  /    A nd           | Web:      www.OpenFOAM.org                      |
|    \\/     M anipulation  |                                                 |
\*---------------------------------------------------------------------------*/
FoamFile
{
    version     2.0;
    format      ascii;
    class       surfaceScalarField;
    location    "0.89";
    object      phi;
}
// * * * * * * * * * * * * * * * * * * * * * * * * * * * * * * * * * * * * * //

dimensions      [1 0 -1 0 0 0 0];

internalField   nonuniform List<scalar> 
17503
(
5.452947904e-09
5.447531339e-09
-1.090047661e-08
1.058609795e-08
5.549317599e-09
-1.068245519e-08
1.508174826e-08
5.745039067e-09
-1.024067583e-08
1.862101428e-08
6.026412984e-09
-9.565671142e-09
2.091676553e-08
6.380590604e-09
-8.676337131e-09
6.803635263e-09
-7.629682362e-09
2.174281685e-08
5.554744962e-09
1.057572524e-08
-1.068292687e-08
1.0783587e-08
1.077317988e-08
-1.045268685e-08
1.536442987e-08
1.115541929e-08
-9.991211623e-09
1.89764772e-08
1.17112904e-08
-9.296919124e-09
2.133316373e-08
1.242167009e-08
-8.397762745e-09
1.328576393e-08
-7.358868861e-09
2.220990563e-08
5.750468891e-09
1.506725185e-08
-1.024198258e-08
1.11658566e-08
1.534985543e-08
-9.992052144e-09
1.591788995e-08
1.590321388e-08
-9.499819612e-09
1.968376607e-08
1.672323485e-08
-8.777815831e-09
2.217995713e-08
1.779564619e-08
-7.870164066e-09
1.914205726e-08
-6.855599014e-09
2.317926471e-08
6.031810706e-09
1.860342885e-08
-9.567981539e-09
1.172170273e-08
1.895875004e-08
-9.298782114e-09
1.673796168e-08
1.966581936e-08
-8.778860725e-09
2.075854386e-08
2.074039152e-08
-8.037737688e-09
2.350761116e-08
2.218559282e-08
-7.139013607e-09
2.408220822e-08
-6.175878914e-09
2.474333912e-08
6.38589192e-09
2.089711334e-08
-8.679574088e-09
1.243194018e-08
2.131329605e-08
-8.400592151e-09
1.781027706e-08
2.215971995e-08
-7.872235789e-09
2.220381578e-08
2.348693906e-08
-7.140086301e-09
2.534954747e-08
2.532848365e-08
-6.288623053e-09
2.785682122e-08
-5.426448407e-09
2.700138259e-08
6.808751399e-09
-7.633567696e-09
2.172193126e-08
1.329572574e-08
-7.36240503e-09
2.218872848e-08
1.915635773e-08
-6.858477507e-09
2.315756707e-08
2.410019863e-08
-6.17785557e-09
2.472095419e-08
2.787789076e-08
-5.427398096e-09
2.697818997e-08
-4.73507896e-09
3.022304015e-08
3.024675131e-08
1.014802875e-08
1.01383277e-08
-3.118680834e-08
1.982381121e-08
1.031374931e-08
-3.067195631e-08
2.851592545e-08
1.064888749e-08
-2.958164878e-08
3.567908288e-08
1.112479315e-08
-2.785360068e-08
4.075735927e-08
1.171501313e-08
-2.546961017e-08
1.240348911e-08
-2.250584818e-08
4.323004946e-08
1.032346523e-08
1.980503802e-08
-3.06730719e-08
2.016259888e-08
2.014377247e-08
-3.012180803e-08
2.899657196e-08
2.079371495e-08
-2.896998335e-08
3.627623499e-08
2.172569939e-08
-2.71774672e-08
4.144674086e-08
2.289686643e-08
-2.475010581e-08
2.428579444e-08
-2.178442477e-08
4.399000283e-08
1.06586039e-08
2.848923377e-08
-2.958475466e-08
2.08125857e-08
2.896975388e-08
-2.897198731e-08
2.99271607e-08
2.990017909e-08
-2.772083486e-08
3.744802953e-08
3.125648717e-08
-2.582945462e-08
4.282496431e-08
3.299659241e-08
-2.334681127e-08
3.511937958e-08
-2.040290274e-08
4.553869284e-08
1.113445173e-08
3.564592156e-08
-2.785910207e-08
2.174452137e-08
3.62428374e-08
-2.718191504e-08
3.128354497e-08
3.741426877e-08
-2.583195654e-08
3.919504192e-08
3.91609472e-08
-2.385368225e-08
4.493952654e-08
4.146124664e-08
-2.13481437e-08
4.438584478e-08
-1.8480447e-08
4.797763549e-08
1.172450463e-08
4.071915895e-08
-2.547730195e-08
2.291544307e-08
4.140816949e-08
-2.475684688e-08
3.302348126e-08
4.278577145e-08
-2.335176312e-08
4.149544415e-08
4.489962115e-08
-2.135071407e-08
4.780974179e-08
4.776924442e-08
-1.891091271e-08
5.157140301e-08
-1.622557101e-08
5.142330925e-08
1.241266613e-08
-2.251498389e-08
4.318792099e-08
2.430384787e-08
-2.179276496e-08
4.394736108e-08
3.514571076e-08
-2.04097246e-08
4.549516735e-08
4.441968231e-08
-1.848516677e-08
4.793296865e-08
5.161199537e-08
-1.622791632e-08
5.137745411e-08
-1.385064078e-08
5.612604052e-08
5.617292118e-08
1.185456718e-08
1.184330546e-08
-5.488464658e-08
2.326277047e-08
1.208051548e-08
-5.416062758e-08
3.372291098e-08
1.252681582e-08
-5.256856197e-08
4.263313001e-08
1.314243827e-08
-4.990622445e-08
4.931605996e-08
1.387588801e-08
-4.602840157e-08
1.468656435e-08
-4.095355222e-08
5.307722061e-08
1.209177863e-08
2.324086932e-08
-5.416236661e-08
2.371521441e-08
2.369328046e-08
-5.335795606e-08
3.435099962e-08
2.454707261e-08
-5.162598143e-08
4.338962821e-08
2.573499417e-08
-4.88086179e-08
5.015692805e-08
2.716709761e-08
-4.480858943e-08
2.87800613e-08
-3.968181537e-08
5.39608406e-08
1.253805062e-08
3.369155601e-08
-5.257344828e-08
2.456900882e-08
3.431953144e-08
-5.162915156e-08
3.55446607e-08
3.551305914e-08
-4.966243435e-08
4.484370828e-08
3.719939638e-08
-4.659287431e-08
5.180036916e-08
3.927287913e-08
-4.240923079e-08
4.168419798e-08
-3.722968314e-08
5.572303022e-08
1.315357353e-08
4.259386965e-08
-4.991495392e-08
2.575681503e-08
4.335012222e-08
-4.881571036e-08
3.723101427e-08
4.48038279e-08
-4.659689228e-08
4.694498149e-08
4.690478265e-08
-4.327301163e-08
5.425133397e-08
4.955519583e-08
-3.89367952e-08
5.278541898e-08
-3.377639741e-08
5.844607578e-08
1.388680019e-08
4.927046589e-08
-4.604066869e-08
2.718857707e-08
5.011092111e-08
-4.481939123e-08
3.93042287e-08
5.175366233e-08
-4.24172219e-08
4.959544181e-08
5.420384927e-08
-3.894097379e-08
5.744268746e-08
5.739457195e-08
-3.459752127e-08
6.150880461e-08
-2.963193022e-08
6.21256678e-08
1.469708836e-08
-4.096809204e-08
5.302651134e-08
2.880087939e-08
-3.969515993e-08
5.390955218e-08
4.171482005e-08
-3.724067811e-08
5.567069909e-08
5.2825152e-08
-3.378406155e-08
5.839242935e-08
6.155690137e-08
-2.963575827e-08
6.207067431e-08
-2.511793968e-08
6.713853042e-08
6.71944751e-08
1.203044601e-08
1.201887931e-08
-7.893392536e-08
2.370282923e-08
1.235328404e-08
-7.818623767e-08
3.458036082e-08
1.297357339e-08
-7.641961878e-08
4.406573664e-08
1.380712399e-08
-7.319868588e-08
5.144282816e-08
1.476196233e-08
-6.81674242e-08
1.576110374e-08
-6.120989097e-08
5.593808831e-08
1.23648244e-08
2.368019421e-08
-7.818844744e-08
2.43337587e-08
2.431113699e-08
-7.728468628e-08
3.544170864e-08
2.548485546e-08
-7.524516623e-08
4.507794709e-08
2.70727649e-08
-7.171046004e-08
5.253101233e-08
2.890816498e-08
-6.640782823e-08
3.086354736e-08
-5.928942329e-08
5.703619891e-08
1.298503809e-08
3.454769503e-08
-7.642593515e-08
2.55074014e-08
3.540897693e-08
-7.524930397e-08
3.705162104e-08
3.70188361e-08
-7.274059104e-08
4.698531257e-08
3.922383122e-08
-6.867759749e-08
5.460957389e-08
4.181212138e-08
-6.293742125e-08
4.465546966e-08
-5.55797125e-08
5.916770305e-08
1.381843699e-08
4.402454024e-08
-7.321019028e-08
2.709510501e-08
4.50365334e-08
-7.171988955e-08
3.925653224e-08
4.694357293e-08
-6.868301722e-08
4.964896867e-08
4.960698562e-08
-6.404857192e-08
5.759924387e-08
5.279407403e-08
-5.786899925e-08
5.646503376e-08
-5.033157482e-08
6.234487613e-08
1.477300967e-08
5.139479112e-08
-6.818388837e-08
2.893008575e-08
5.248255714e-08
-6.642245067e-08
4.184446339e-08
5.456040464e-08
-6.294839563e-08
5.283603589e-08
5.754931091e-08
-5.787484338e-08
6.126103856e-08
6.121047515e-08
-5.143890402e-08
6.575468997e-08
-4.396765923e-08
6.63071241e-08
1.577173867e-08
-6.122970333e-08
5.588470094e-08
3.088475202e-08
-5.930776758e-08
5.698218847e-08
4.468699818e-08
-5.559504969e-08
5.911256359e-08
5.650637447e-08
-5.034245091e-08
6.228835049e-08
6.58050688e-08
-4.397316308e-08
6.624920238e-08
-3.697413353e-08
7.167866158e-08
7.173729252e-08
1.121472345e-08
1.12041605e-08
-1.013527791e-07
2.217317533e-08
1.166782301e-08
-1.008124783e-07
3.249598951e-08
1.252530065e-08
-9.92677074e-08
4.160032936e-08
1.366421963e-08
-9.596722421e-08
4.878138008e-08
1.494568336e-08
-9.029413997e-08
1.624439833e-08
-8.196347671e-08
5.329058439e-08
1.167832769e-08
2.215227143e-08
-1.008148507e-07
2.304718292e-08
2.302634493e-08
-1.000120312e-07
3.368393374e-08
2.464257891e-08
-9.799916987e-08
4.298654322e-08
2.679904022e-08
-9.41478696e-08
5.025281302e-08
2.92372609e-08
-8.796565851e-08
3.173585887e-08
-7.926735745e-08
5.473930195e-08
1.253567803e-08
3.246537062e-08
-9.927468121e-08
2.466325648e-08
3.365330044e-08
-9.800380772e-08
3.588600561e-08
3.585540095e-08
-9.517613689e-08
4.556759278e-08
3.881851969e-08
-9.037864287e-08
5.301071447e-08
4.21936949e-08
-8.333695785e-08
4.572671022e-08
-7.403117847e-08
5.747134757e-08
1.367439904e-08
4.156114951e-08
-9.598033715e-08
2.681943244e-08
4.29471683e-08
-9.415875999e-08
3.884895829e-08
4.552792865e-08
-9.0385044e-08
4.908443271e-08
4.904457473e-08
-8.451007773e-08
5.684666068e-08
5.307847734e-08
-7.651598807e-08
5.747983895e-08
-6.662438711e-08
6.138636419e-08
1.49555845e-08
4.873521272e-08
-9.031350338e-08
2.925721381e-08
5.020619987e-08
-8.798307916e-08
4.222376152e-08
5.296334948e-08
-8.335033482e-08
5.311832928e-08
5.679852e-08
-7.652332995e-08
6.129063903e-08
6.124179093e-08
-6.77745046e-08
6.655456861e-08
-5.761288927e-08
6.586115502e-08
1.625394561e-08
-8.198753495e-08
5.323913155e-08
3.175519982e-08
-7.928993987e-08
5.468715107e-08
4.575607712e-08
-7.405049785e-08
5.741795228e-08
5.751914677e-08
-6.663847851e-08
6.133150661e-08
6.660316986e-08
-5.762014995e-08
6.580477483e-08
-4.783504203e-08
7.198105326e-08
7.203759445e-08
9.681924283e-09
9.673666576e-09
-1.207083563e-07
1.920111907e-08
1.026613936e-08
-1.205978009e-07
2.820991601e-08
1.136409547e-08
-1.196405919e-07
3.612335512e-08
1.282318582e-08
-1.167038433e-07
4.228640667e-08
1.4476836e-08
-1.109340228e-07
1.617106557e-08
4.60994746e-08
-1.019476061e-07
1.027431341e-08
1.918452295e-08
-1.206000085e-07
2.03212377e-08
2.030474464e-08
-1.2009755e-07
2.973611769e-08
2.237742979e-08
-1.184273764e-07
3.79154145e-08
2.51448349e-08
-1.146488096e-07
4.421009416e-08
2.829723693e-08
-1.080807344e-07
3.156845216e-08
4.803695507e-08
-9.849160034e-08
1.137209835e-08
2.818513788e-08
-1.196473834e-07
2.239370069e-08
2.971134544e-08
-1.184319995e-07
3.257035499e-08
3.254564107e-08
-1.155209938e-07
4.126539e-08
3.636263328e-08
-1.102914687e-07
4.784907329e-08
4.075334582e-08
-1.023767421e-07
4.535800444e-08
5.171040991e-08
-9.168205752e-08
1.283094801e-08
3.609108514e-08
-1.167172205e-07
2.516075192e-08
3.788290705e-08
-1.146601128e-07
3.638714291e-08
4.123251835e-08
-1.102983016e-07
4.584148032e-08
4.580833694e-08
-1.034101078e-07
5.288441012e-08
5.107311508e-08
-9.387867458e-08
5.668288606e-08
5.686475456e-08
-8.19295988e-08
1.448429542e-08
4.224787795e-08
-1.109545785e-07
2.831267395e-08
4.41709786e-08
-1.08099515e-07
4.077746422e-08
4.780896119e-08
-1.023915539e-07
5.11063253e-08
5.284326373e-08
-9.38871023e-08
5.863113684e-08
5.858908984e-08
-8.281527483e-08
6.508825753e-08
6.242926624e-08
-6.981637825e-08
1.617821383e-08
4.605629033e-08
-1.019741467e-07
3.158335565e-08
4.799282118e-08
-9.851690766e-08
4.538156431e-08
5.166461537e-08
-9.170434219e-08
5.671578406e-08
5.681703356e-08
-8.194644808e-08
6.513032976e-08
6.237974399e-08
-6.982533449e-08
6.941894928e-08
6.946862405e-08
-5.650402939e-08
7.276069053e-09
2.09769887e-08
-6.531124519e-09
1.427513363e-08
2.148106255e-08
-6.291396059e-09
2.074239301e-08
2.254600408e-08
-5.855693398e-09
2.64198931e-08
2.431539231e-08
-5.271935783e-09
3.100861568e-08
2.707287655e-08
-4.683406214e-09
3.092230104e-08
-4.080761652e-09
3.439011513e-08
7.768888282e-09
1.877595012e-08
-5.567847212e-09
1.535077952e-08
1.926279869e-08
-5.363622433e-09
2.257764685e-08
2.033703571e-08
-5.017893147e-09
2.927841774e-08
2.220817102e-08
-4.593543487e-09
3.530188405e-08
2.529328692e-08
-4.243868745e-09
3.018006869e-08
-3.870273537e-09
3.991439659e-08
8.302460772e-09
1.524259481e-08
-4.769101332e-09
1.650656639e-08
1.568698022e-08
-4.628278034e-09
2.455705094e-08
1.669581708e-08
-4.409255614e-09
3.244364824e-08
1.851570837e-08
-4.194122643e-09
4.021741496e-08
2.169191625e-08
-4.172380996e-09
2.714124613e-08
-4.196427842e-09
4.745267688e-08
8.787649011e-09
1.069564435e-08
-4.240691917e-09
1.759775475e-08
1.104416021e-08
-4.167271939e-09
2.652981714e-08
1.18539452e-08
-4.090176101e-09
3.581494311e-08
1.333958184e-08
-4.108983344e-09
4.588611742e-08
1.607171817e-08
-4.450957178e-09
2.095041158e-08
-5.057472078e-09
5.713444364e-08
9.176894746e-09
5.494401986e-09
-3.975643223e-09
1.849274361e-08
5.688679478e-09
-3.960351485e-09
2.820413165e-08
6.146286761e-09
-4.003712326e-09
3.877305869e-08
6.992714712e-09
-4.222040941e-09
5.111865778e-08
8.606306201e-09
-4.880166193e-09
1.153002866e-08
-6.053363989e-09
6.659242902e-08
9.400548551e-09
-2.15368642e-11
-3.884599358e-09
1.901230565e-08
-2.093825006e-11
-3.902123128e-09
2.91919531e-08
-1.979212593e-11
-4.013550767e-09
4.054912357e-08
-1.819195602e-11
-4.346244048e-09
5.435070405e-08
-1.622730416e-11
-5.179026129e-09
-1.447855199e-11
-6.698409754e-09
7.259364793e-08
9.401191401e-09
-5.536839514e-09
-3.885879282e-09
1.901354213e-08
-5.729970925e-09
-3.903305392e-09
2.919368973e-08
-6.185378707e-09
-4.014545429e-09
4.055122175e-08
-7.028726462e-09
-4.346979298e-09
5.435299432e-08
-8.63852897e-09
-5.179449577e-09
-1.155883967e-08
-6.698545004e-09
7.25959379e-08
9.178810283e-09
-1.073619947e-08
-3.97944329e-09
1.849641412e-08
-1.10836937e-08
-3.963873998e-09
2.820928519e-08
-1.1891537e-08
-4.006701524e-09
3.877935313e-08
-1.337445363e-08
-4.22432647e-09
5.112561458e-08
-1.610316469e-08
-4.881603183e-09
-2.097864271e-08
-6.054023959e-09
6.659950514e-08
8.790638752e-09
-1.527996957e-08
-4.246864664e-09
1.760349896e-08
-1.572349726e-08
-4.173055414e-09
2.653794189e-08
-1.673076456e-08
-4.095210229e-09
3.582490562e-08
-1.854841128e-08
-4.112999973e-09
4.589719606e-08
-2.172171542e-08
-4.453724988e-09
-2.716791798e-08
-5.059137725e-09
5.714568855e-08
8.306202398e-09
-1.880885353e-08
-4.777317392e-09
1.651388294e-08
-1.929512331e-08
-4.636057958e-09
2.456754011e-08
-2.036822412e-08
-4.416198489e-09
3.245671309e-08
-2.223764023e-08
-4.199948481e-09
4.023221376e-08
-2.532044773e-08
-4.176779848e-09
-3.020431039e-08
-4.199603518e-09
4.746820698e-08
7.773125244e-09
-2.100456444e-08
-5.5774154e-09
1.535914046e-08
-2.150837398e-08
-5.372769816e-09
2.258983697e-08
-2.257253876e-08
-5.026384936e-09
2.929386093e-08
-2.434066025e-08
-4.601009556e-09
3.531960081e-08
-2.709627349e-08
-4.249926624e-09
-3.094335319e-08
-3.87507097e-09
3.993366322e-08
7.280806426e-09
-6.541580318e-09
-2.174379234e-08
1.428442809e-08
-6.301590814e-09
-2.221040879e-08
2.075588827e-08
-5.865226594e-09
-2.31787756e-08
2.643701909e-08
-5.28050486e-09
-2.474129099e-08
3.102884713e-08
-4.690778351e-09
-2.699732395e-08
-4.086767423e-09
-3.023957846e-08
3.44118233e-08
1.316709138e-08
4.268539611e-08
-1.919567971e-08
2.585728229e-08
4.348349453e-08
-1.851770735e-08
3.761287957e-08
4.513025098e-08
-1.724636211e-08
4.799662028e-08
4.778567126e-08
-1.550836973e-08
5.65684966e-08
5.171505822e-08
-1.359287983e-08
5.74166039e-08
-1.165403449e-08
6.285120491e-08
1.393437649e-08
3.907403178e-08
-1.589084692e-08
2.750157072e-08
3.983757526e-08
-1.528488214e-08
4.032527098e-08
4.146580074e-08
-1.417712788e-08
5.205315835e-08
4.418862086e-08
-1.272436655e-08
6.237771083e-08
4.842483186e-08
-1.127818196e-08
5.506954834e-08
-9.793151087e-09
7.064764403e-08
1.47361098e-08
3.242352566e-08
-1.285468937e-08
2.920328606e-08
3.310505906e-08
-1.236291811e-08
4.314977798e-08
3.46031639e-08
-1.149309066e-08
5.636540267e-08
3.716763209e-08
-1.038873929e-08
6.867388082e-08
4.139092264e-08
-9.446930336e-09
4.844291011e-08
-8.439570327e-09
7.954367374e-08
1.547394806e-08
2.317983374e-08
-1.047092898e-08
3.079809611e-08
2.370913145e-08
-1.009546839e-08
4.587830908e-08
2.489314731e-08
-9.460348726e-09
6.069486876e-08
2.695770147e-08
-8.715589899e-09
7.533748504e-08
3.0526311e-08
-8.228940571e-09
3.670160606e-08
-7.652802693e-09
8.967413899e-08
1.605453984e-08
1.205884519e-08
-8.909174323e-09
3.207584737e-08
1.235312448e-08
-8.62562725e-09
4.812968669e-08
1.301999968e-08
-8.184379104e-09
6.436519378e-08
1.418903341e-08
-7.688856779e-09
8.123285993e-08
1.62860569e-08
-7.507558232e-09
1.997200556e-08
-7.233622486e-09
9.914274051e-08
1.63806643e-08
-4.624569772e-11
-8.160155316e-09
3.280535998e-08
-4.529984422e-11
-7.928373526e-09
4.943937439e-08
-4.348826745e-11
-7.584054565e-09
6.65243048e-08
-4.095877419e-11
-7.20116104e-09
8.48129963e-08
-3.778497153e-11
-7.143857862e-09
-3.521206918e-11
-6.975580493e-09
1.05097413e-07
1.638173515e-08
-1.21490799e-08
-8.164767775e-09
3.280741376e-08
-1.244153371e-08
-7.932735749e-09
4.944225632e-08
-1.310489794e-08
-7.587960747e-09
6.652782279e-08
-1.426898753e-08
-7.204500202e-09
8.48168746e-08
-1.635976061e-08
-7.146510424e-09
-2.004037563e-08
-6.977716995e-09
1.051012556e-07
1.605760262e-08
-2.326365834e-08
-8.922459982e-09
3.208177559e-08
-2.379136785e-08
-8.638205073e-09
4.813807144e-08
-2.497226585e-08
-8.195617905e-09
6.437554251e-08
-2.703224718e-08
-7.698528129e-09
8.124448443e-08
-3.059498727e-08
-7.515312471e-09
-3.676469449e-08
-7.239968144e-09
9.915479356e-08
1.547869947e-08
-3.249772992e-08
-1.04914883e-08
3.080735427e-08
-3.317800716e-08
-1.011506789e-08
4.589154182e-08
-3.467355507e-08
-9.478101892e-09
6.071133048e-08
-3.723421412e-08
-8.730818374e-09
7.535627064e-08
-4.145229368e-08
-8.241367467e-09
-4.849836649e-08
-7.663253027e-09
8.969405351e-08
1.474208432e-08
-3.913639467e-08
-1.288073417e-08
2.921502722e-08
-3.989910572e-08
-1.238790166e-08
4.316690448e-08
-4.152560198e-08
-1.151602515e-08
5.638713408e-08
-4.424550149e-08
-1.0408888e-08
6.86991984e-08
-4.847743208e-08
-9.463712953e-09
-5.51165266e-08
-8.45388647e-09
7.957158503e-08
1.394144372e-08
-4.273538485e-08
-1.591986576e-08
2.751544575e-08
-4.35328967e-08
-1.531298028e-08
4.034547506e-08
-4.517847054e-08
-1.420354395e-08
5.207904188e-08
-4.78317949e-08
-1.274828e-08
6.240858671e-08
-5.175797714e-08
-1.129891888e-08
-5.74548499e-08
-9.810864154e-09
7.068267817e-08
1.317461811e-08
-1.922568068e-08
-4.32258962e-08
2.587229286e-08
-1.854714679e-08
-4.398501087e-08
3.763509852e-08
-1.727452377e-08
-4.55319767e-08
4.802561586e-08
-1.553451085e-08
-4.796830583e-08
5.660362246e-08
-1.361623142e-08
-5.141052313e-08
-1.1674279e-08
-5.615466784e-08
6.289095104e-08
1.554408751e-08
5.324571345e-08
-3.495894606e-08
3.052547263e-08
5.412814193e-08
-3.371765709e-08
4.439119029e-08
5.592828369e-08
-3.136964143e-08
5.661278708e-08
5.880144723e-08
-2.813896747e-08
6.674061659e-08
6.289789233e-08
-2.454791834e-08
6.892496023e-08
-2.079830315e-08
7.409844686e-08
1.638641135e-08
4.947453549e-08
-2.850605814e-08
3.228314055e-08
5.031326176e-08
-2.736670601e-08
4.722366285e-08
5.20743663e-08
-2.526370909e-08
6.079922333e-08
5.496999576e-08
-2.246845711e-08
7.268717138e-08
5.936403349e-08
-1.963226079e-08
6.643257494e-08
-1.668596429e-08
8.207235483e-08
1.72064858e-08
4.165616189e-08
-2.224277837e-08
3.402572944e-08
4.239604328e-08
-2.126491625e-08
5.012140826e-08
4.400344441e-08
-1.951782226e-08
6.523577214e-08
4.67245687e-08
-1.725765617e-08
7.918798916e-08
5.111369366e-08
-1.514879608e-08
5.871249864e-08
-1.28471027e-08
9.131558972e-08
1.79564467e-08
3.015225996e-08
-1.692345037e-08
3.565469801e-08
3.072366668e-08
-1.612131587e-08
5.293111407e-08
3.199737988e-08
-1.473067517e-08
6.970242766e-08
3.420109858e-08
-1.296341486e-08
8.606928681e-08
3.795832817e-08
-1.144042668e-08
4.474011307e-08
-9.551429437e-09
1.019402922e-07
1.855598557e-08
1.581786167e-08
-1.31307406e-08
3.698627898e-08
1.613584863e-08
-1.246807859e-08
5.52901501e-08
1.685813369e-08
-1.134898152e-08
7.356777438e-08
1.811744861e-08
-9.882816367e-09
9.234322801e-08
2.036661819e-08
-8.691300899e-09
2.450971472e-08
-6.811992675e-09
1.121519839e-07
1.890070936e-08
-5.930067338e-11
-1.118368697e-08
3.775918216e-08
-5.821452526e-11
-1.059276571e-08
5.669397263e-08
-5.613160346e-11
-9.604561699e-09
7.591269645e-08
-5.319864547e-11
-8.249226691e-09
9.631102095e-08
-4.948886129e-11
-7.126080537e-09
-4.629093327e-11
-4.969497978e-09
1.18860923e-07
1.890194433e-08
-1.593236115e-08
-1.119364128e-08
3.776156187e-08
-1.624830508e-08
-1.060225093e-08
5.669730965e-08
-1.696663025e-08
-9.613195103e-09
7.591678161e-08
-1.822035748e-08
-8.256803507e-09
9.631541971e-08
-2.046217532e-08
-7.132466682e-09
-2.459863255e-08
-4.975072764e-09
1.188650999e-07
1.855954946e-08
-3.025551294e-08
-1.315884963e-08
3.699314039e-08
-3.082522807e-08
-1.249486397e-08
5.529978846e-08
-3.209563631e-08
-1.137324634e-08
7.357963891e-08
-3.429441425e-08
-9.90431067e-09
9.235656944e-08
-3.804497892e-08
-8.709439069e-09
-4.481980333e-08
-6.827782645e-09
1.121655458e-07
1.796193669e-08
-4.17435763e-08
-1.696535377e-08
3.56653454e-08
-4.248228842e-08
-1.616140805e-08
5.294620318e-08
-4.408724127e-08
-1.476734196e-08
6.972118081e-08
-4.680446835e-08
-1.299572976e-08
8.609080742e-08
-5.118798595e-08
-1.146798243e-08
-5.877985316e-08
-9.575407871e-09
1.019629945e-07
1.721334528e-08
-4.954431058e-08
-2.229333542e-08
3.403917799e-08
-5.03823899e-08
-2.131362401e-08
5.01408436e-08
-5.214196722e-08
-1.956295306e-08
6.52602465e-08
-5.503496369e-08
-1.729778346e-08
7.921694431e-08
-5.942468937e-08
-1.518369703e-08
-6.64869398e-08
-1.287752535e-08
9.134764949e-08
1.639410338e-08
-5.329806346e-08
-2.85602042e-08
3.229839023e-08
-5.418021031e-08
-2.741943593e-08
4.724605627e-08
-5.597966006e-08
-2.531350624e-08
6.082807603e-08
-5.885130514e-08
-2.251394818e-08
7.272193867e-08
-6.294495665e-08
-1.967250101e-08
-6.896682977e-08
-1.672147276e-08
8.211243375e-08
1.555212606e-08
-3.501248594e-08
-5.306336814e-08
3.05415335e-08
-3.377036027e-08
-5.394638837e-08
4.441524041e-08
-3.142057399e-08
-5.570730374e-08
5.664460521e-08
-2.818691291e-08
-5.842825886e-08
6.677981019e-08
-2.459148869e-08
-6.210489338e-08
-2.083699377e-08
-6.716850283e-08
7.414420197e-08
1.674717809e-08
5.674989299e-08
-5.257128201e-08
3.283515119e-08
5.780340932e-08
-5.06268161e-08
4.761483015e-08
5.989507732e-08
-4.693180149e-08
6.049240012e-08
6.311777583e-08
-4.184593734e-08
7.095185792e-08
6.73248166e-08
-3.608297837e-08
7.341716382e-08
-3.011660893e-08
7.8531647e-08
1.765896123e-08
5.338307006e-08
-4.279816418e-08
3.470623192e-08
5.435133277e-08
-4.096186577e-08
5.054080377e-08
5.632896557e-08
-3.753213665e-08
6.467831311e-08
5.945955064e-08
-3.294771636e-08
7.672451295e-08
6.388180313e-08
-2.823543813e-08
7.093653614e-08
-2.327250431e-08
8.579165688e-08
1.849700156e-08
4.549703737e-08
-3.285371644e-08
3.647261108e-08
4.633095831e-08
-3.122011758e-08
5.342802684e-08
4.808677182e-08
-2.823101265e-08
6.904479645e-08
5.094963498e-08
-2.436448814e-08
8.305879139e-08
5.541342861e-08
-2.069441327e-08
6.300141289e-08
-1.666577577e-08
9.481256151e-08
1.924251397e-08
3.32835792e-08
-2.395247868e-08
3.808565734e-08
3.391879878e-08
-2.255226957e-08
5.619756193e-08
3.529400472e-08
-2.004978481e-08
7.346499875e-08
3.762233695e-08
-1.690353675e-08
9.000357432e-08
4.152670075e-08
-1.409227734e-08
4.858738768e-08
-1.078819604e-08
1.056543415e-07
1.984333841e-08
1.759020709e-08
-1.728068514e-08
3.942207905e-08
1.794481202e-08
-1.607280858e-08
5.861666732e-08
1.872334318e-08
-1.397288569e-08
7.745384021e-08
2.007874436e-08
-1.117638531e-08
9.671581465e-08
2.251909196e-08
-8.945674387e-09
2.707280198e-08
-5.67905722e-09
1.170974427e-07
2.019895985e-08
-6.37211302e-11
-1.372870478e-08
4.023320421e-08
-6.265688495e-11
-1.261952545e-08
6.012740694e-08
-6.050335651e-11
-1.07149017e-08
8.004229104e-08
-5.731919935e-11
-8.028040624e-09
1.013753751e-07
-5.330567411e-11
-5.886778012e-09
-4.910460391e-11
-2.091542253e-09
1.256193033e-07
2.020029228e-08
-1.771139655e-08
-1.374624846e-08
4.023575338e-08
-1.806404497e-08
-1.263631256e-08
6.013100725e-08
-1.883858937e-08
-1.073034888e-08
8.004674063e-08
-2.018808463e-08
-8.041763798e-09
1.013801959e-07
-2.262076371e-08
-5.898470585e-09
-2.716577828e-08
-2.102195009e-09
1.256239744e-07
1.984723836e-08
-3.338831372e-08
-1.732916012e-08
3.942961409e-08
-3.402213887e-08
-1.611913347e-08
5.862693731e-08
-3.539448421e-08
-1.401465875e-08
7.746679525e-08
-3.771805921e-08
-1.121418148e-08
9.673037811e-08
-4.161601889e-08
-8.97776421e-09
-4.86682849e-08
-5.707141618e-09
1.171122349e-07
1.924842876e-08
-4.558016452e-08
-2.402191823e-08
3.809717875e-08
-4.641338829e-08
-2.26188945e-08
5.621396829e-08
-4.816763607e-08
-2.011096247e-08
7.348537039e-08
-5.102765149e-08
-1.695752423e-08
9.002718935e-08
-5.548676937e-08
-1.413904167e-08
-6.30676048e-08
-1.082810066e-08
1.056791949e-07
1.850419443e-08
-5.344425088e-08
-3.293342683e-08
3.648674336e-08
-5.441243593e-08
-3.129710979e-08
5.34485542e-08
-5.638971654e-08
-2.830266643e-08
6.907061077e-08
-5.951940043e-08
-2.442807576e-08
8.308970261e-08
-6.393860748e-08
-2.075093744e-08
-7.098791317e-08
-1.671430313e-08
9.48467854e-08
1.766667301e-08
-5.679153678e-08
-4.287957254e-08
3.472150433e-08
-5.784540761e-08
-4.104127888e-08
5.05633977e-08
-5.993752258e-08
-3.760757748e-08
6.470763989e-08
-6.316035666e-08
-3.301722064e-08
7.67601903e-08
-6.736650264e-08
-2.829714252e-08
-7.3454883e-08
-2.332739863e-08
8.583309073e-08
1.67547815e-08
-5.264834437e-08
-5.591043771e-08
3.285040968e-08
-5.070293395e-08
-5.700844129e-08
4.763785764e-08
-4.700589824e-08
-5.913962789e-08
6.052320316e-08
-4.191651493e-08
-6.231608624e-08
7.099032491e-08
-3.614803444e-08
-6.627706576e-08
-3.017511282e-08
-7.170413526e-08
7.857770306e-08
1.745039149e-08
5.43522824e-08
-7.113479133e-08
3.408334141e-08
5.568563192e-08
-6.825821234e-08
4.910727364e-08
5.8240832e-08
-6.277857881e-08
6.189840313e-08
6.200614174e-08
-5.531167229e-08
7.182454096e-08
6.650131702e-08
-4.670564545e-08
7.275096744e-08
-3.811166359e-08
7.904966652e-08
1.847176175e-08
5.14414826e-08
-5.835909293e-08
3.611760623e-08
5.259293089e-08
-5.551497333e-08
5.217147955e-08
5.486027952e-08
-5.020542133e-08
6.617362845e-08
5.82972271e-08
-4.324092201e-08
7.749253041e-08
6.269386851e-08
-3.574688538e-08
6.959933336e-08
-2.888382021e-08
8.625545274e-08
1.930194238e-08
4.41125541e-08
-4.482669858e-08
3.783513853e-08
4.503823355e-08
-4.219858112e-08
5.493703567e-08
4.692760948e-08
-3.740020452e-08
7.037564635e-08
4.987286869e-08
-3.137871606e-08
8.366348962e-08
5.414473536e-08
-2.543312589e-08
6.183051793e-08
-2.065782825e-08
9.542432048e-08
1.995566886e-08
3.244723931e-08
-3.22428055e-08
3.925952128e-08
3.311595471e-08
-2.993381237e-08
5.744491807e-08
3.451011502e-08
-2.581765685e-08
7.454438443e-08
3.679085675e-08
-2.092097396e-08
9.073423408e-08
4.071134202e-08
-1.684874428e-08
4.85444055e-08
-1.418588477e-08
1.074179968e-07
2.045392366e-08
1.721197887e-08
-2.249932833e-08
4.041701096e-08
1.756954904e-08
-2.048946687e-08
5.962857897e-08
1.832555432e-08
-1.699986956e-08
7.85863275e-08
1.966851748e-08
-1.301178321e-08
9.856517173e-08
2.22897025e-08
-1.050289159e-08
2.768523216e-08
-9.434907252e-09
1.231801621e-07
2.074496592e-08
-5.763086542e-11
-1.720404803e-08
4.11245672e-08
-5.662527331e-11
-1.537293643e-08
6.104532457e-08
-5.427253234e-11
-1.225581501e-08
8.154259759e-08
-5.091146413e-11
-8.805877207e-09
1.050654981e-07
-4.68244644e-11
-7.073162992e-09
-4.123763072e-11
-6.837816615e-09
1.375382172e-07
2.074653406e-08
-1.731980879e-08
-1.723059389e-08
4.112759466e-08
-1.767576554e-08
-1.539821917e-08
6.104977509e-08
-1.842814781e-08
-1.227863786e-08
8.154753733e-08
-1.976494259e-08
-8.825485558e-09
1.05070086e-07
-2.237853448e-08
-7.089312827e-09
-2.776402969e-08
-6.851929036e-09
1.375425985e-07
2.045830845e-08
-3.25357752e-08
-2.257148895e-08
4.042532165e-08
-3.320364081e-08
-2.055825592e-08
5.964074274e-08
-3.459616593e-08
-1.706204357e-08
7.860072388e-08
-3.687344205e-08
-1.306564853e-08
9.857887314e-08
-4.078747889e-08
-1.054696336e-08
-4.861224174e-08
-9.472544321e-09
1.231924851e-07
1.996217836e-08
-4.417709413e-08
-3.234276124e-08
3.927206433e-08
-4.510288246e-08
-3.002952208e-08
5.746236008e-08
-4.699226256e-08
-2.590514241e-08
7.45661295e-08
-4.993713184e-08
-2.099758631e-08
9.075683041e-08
-5.420548674e-08
-1.691172213e-08
-6.188503617e-08
-1.423846584e-08
1.074399949e-07
1.930941167e-08
-5.148351322e-08
-4.493640227e-08
3.784970421e-08
-5.263580078e-08
-4.23044688e-08
5.495780375e-08
-5.490449087e-08
-3.749852084e-08
7.040183022e-08
-5.834287242e-08
-3.146634546e-08
8.369289806e-08
-6.273971533e-08
-2.55077616e-08
-6.964090688e-08
-2.072034923e-08
9.545482459e-08
1.847918606e-08
-5.437626453e-08
-5.846599084e-08
3.613232307e-08
-5.571077354e-08
-5.561942984e-08
5.219302878e-08
-5.826796293e-08
-5.030479693e-08
6.620113028e-08
-6.203554841e-08
-4.333263274e-08
7.752528962e-08
-6.653238845e-08
-3.582861411e-08
-7.278060461e-08
-2.895468752e-08
8.629228865e-08
1.745702114e-08
-7.123170409e-08
-5.324990962e-08
3.409674715e-08
-6.835439276e-08
-5.469902644e-08
4.912752219e-08
-6.287285356e-08
-5.743176797e-08
6.192531766e-08
-5.540221085e-08
-6.134763491e-08
7.185772562e-08
-4.679002493e-08
-6.582279259e-08
-3.818819425e-08
-7.199959758e-08
7.908981173e-08
1.777551439e-08
4.701559418e-08
-8.986959296e-08
3.466750777e-08
4.884705616e-08
-8.600442037e-08
4.968689773e-08
5.233985932e-08
-7.847318888e-08
6.194845882e-08
5.729333741e-08
-6.80495136e-08
7.047299901e-08
6.262330969e-08
-5.547374156e-08
6.934697319e-08
-4.307460322e-08
7.550789886e-08
1.916804855e-08
4.464005977e-08
-7.515158728e-08
3.737047392e-08
4.626544804e-08
-7.113576558e-08
5.349299358e-08
4.940634041e-08
-6.339439266e-08
6.660506478e-08
5.394138496e-08
-5.300101589e-08
7.547297824e-08
5.889832068e-08
-4.088981114e-08
6.592655464e-08
-3.067475092e-08
8.068427857e-08
2.031167591e-08
3.851937294e-08
-5.901766546e-08
3.963080796e-08
3.985364067e-08
-5.510587767e-08
5.679579868e-08
4.249308214e-08
-4.765190504e-08
7.099317688e-08
4.636798246e-08
-3.800266727e-08
8.071418902e-08
5.11441239e-08
-2.739994562e-08
5.896034662e-08
-2.039499975e-08