/*--------------------------------*- C++ -*----------------------------------*\
| =========                 |                                                 |
| \\      /  F ield         | OpenFOAM: The Open Source CFD Toolbox           |
|  \\    /   O peration     | Version:  4.x                                   |
|   \\  /    A nd           | Web:      www.OpenFOAM.org                      |
|    \\/     M anipulation  |                                                 |
\*---------------------------------------------------------------------------*/
FoamFile
{
    version     2.0;
    format      ascii;
    class       volScalarField;
    location    "0.89";
    object      T;
}
// * * * * * * * * * * * * * * * * * * * * * * * * * * * * * * * * * * * * * //

dimensions      [0 0 0 1 0 0 0];

internalField   nonuniform List<scalar> 
6273
(
299.9998366
299.9998425
299.9998467
299.9998517
299.9998572
299.9998624
299.9998434
299.9998484
299.9998524
299.9998577
299.9998636
299.999869
299.9998499
299.9998549
299.9998599
299.9998664
299.9998735
299.9998798
299.9998582
299.9998638
299.9998699
299.9998779
299.9998867
299.9998941
299.9998676
299.9998736
299.9998807
299.9998903
299.9999006
299.9999094
299.999876
299.9998821
299.9998899
299.9999003
299.9999118
299.999922
299.9996103
299.9996184
299.9996289
299.9996417
299.9996548
299.9996655
299.9996177
299.9996256
299.9996363
299.99965
299.9996642
299.9996758
299.9996275
299.9996357
299.9996482
299.9996644
299.9996812
299.9996951
299.999641
299.9996501
299.9996646
299.9996837
299.9997042
299.9997212
299.9996567
299.9996666
299.9996828
299.9997047
299.9997287
299.9997496
299.9996709
299.9996811
299.9996981
299.9997215
299.9997484
299.9997736
299.9995908
299.9995995
299.9996109
299.9996237
299.9996346
299.9996403
299.9995954
299.9996036
299.9996152
299.9996288
299.9996409
299.9996478
299.9995993
299.9996078
299.9996208
299.9996366
299.9996516
299.9996613
299.9996044
299.9996134
299.9996279
299.9996465
299.9996654
299.9996793
299.9996101
299.9996194
299.9996351
299.999656
299.9996787
299.9996979
299.999613
299.9996222
299.999638
299.99966
299.9996859
299.9997112
299.9997517
299.9997588
299.9997649
299.9997687
299.9997669
299.9997575
299.9997517
299.9997575
299.9997633
299.9997675
299.9997666
299.9997585
299.9997449
299.9997503
299.9997564
299.9997619
299.9997634
299.9997582
299.9997337
299.9997389
299.9997455
299.9997528
299.9997579
299.9997566
299.9997197
299.9997247
299.9997315
299.9997401
299.9997483
299.9997525
299.9997015
299.9997059
299.9997121
299.999721
299.999732
299.9997429
299.9999241
299.9999282
299.9999289
299.9999268
299.99992
299.9999051
299.9999243
299.999927
299.9999272
299.9999249
299.9999181
299.9999031
299.9999181
299.9999202
299.9999201
299.9999177
299.9999109
299.9998961
299.9999068
299.9999084
299.9999077
299.9999046
299.9998974
299.9998838
299.9998899
299.9998905
299.9998883
299.999884
299.9998767
299.9998653
299.9998651
299.9998646
299.9998605
299.9998543
299.9998469
299.9998391
299.9999886
299.9999905
299.99999
299.9999883
299.9999844
299.9999768
299.9999894
299.9999904
299.9999898
299.9999879
299.9999839
299.9999761
299.999987
299.9999879
299.9999872
299.9999852
299.9999809
299.9999726
299.9999829
299.9999836
299.9999825
299.99998
299.9999749
299.9999656
299.9999764
299.9999765
299.9999746
299.9999707
299.9999639
299.9999531
299.9999658
299.999965
299.9999612
299.9999546
299.9999446
299.9999315
299.9998811
299.9998872
299.999895
299.9999054
299.9999173
299.9999292
299.9998827
299.9998884
299.9998956
299.9999055
299.9999172
299.9999296
299.9998822
299.9998873
299.9998938
299.9999029
299.9999139
299.9999261
299.9998831
299.9998877
299.9998937
299.9999021
299.9999121
299.9999227
299.9998884
299.9998927
299.9998984
299.9999064
299.9999154
299.9999241
299.9998976
299.9999015
299.9999068
299.9999142
299.9999226
299.9999302
299.9999035
299.9999072
299.9999117
299.9999181
299.9999256
299.9999331
299.9999012
299.9999049
299.9999085
299.9999135
299.9999203
299.9999284
299.9998919
299.9998958
299.9998986
299.9999027
299.9999096
299.99992
299.99988
299.9998842
299.9998865
299.9998907
299.9998987
299.9999108
299.9998685
299.9998728
299.9998751
299.9998801
299.9998897
299.9999033
299.9998577
299.9998619
299.9998646
299.9998707
299.9998821
299.9998979
299.9996792
299.9996891
299.9997057
299.9997291
299.9997575
299.9997872
299.9996798
299.9996889
299.9997045
299.999727
299.9997555
299.9997872
299.9996764
299.9996846
299.9996987
299.9997198
299.9997472
299.9997786
299.9996782
299.9996858
299.9996993
299.9997193
299.9997444
299.9997712
299.9996929
299.9996999
299.9997126
299.9997315
299.9997545
299.9997768
299.9997192
299.9997254
299.9997369
299.9997539
299.9997749
299.999794
299.9997343
299.9997397
299.9997488
299.9997626
299.999781
299.9997983
299.9997256
299.9997301
299.9997365
299.999747
299.9997627
299.9997794
299.9997005
299.9997045
299.999709
299.9997176
299.9997328
299.9997521
299.999674
299.9996779
299.9996817
299.9996902
299.9997072
299.9997313
299.9996529
299.9996566
299.9996604
299.9996697
299.9996895
299.9997189
299.999636
299.9996394
299.9996434
299.9996537
299.9996756
299.999709
299.9996092
299.999618
299.9996331
299.9996549
299.9996823
299.9997129
299.9995981
299.999606
299.9996197
299.9996405
299.9996687
299.9997033
299.9995826
299.9995897
299.9996023
299.9996219
299.9996494
299.9996838
299.9995789
299.9995856
299.9995978
299.999617
299.9996434
299.9996741
299.9995946
299.9996007
299.9996123
299.999631
299.9996561
299.9996822
299.9996264
299.9996315
299.9996415
299.9996579
299.9996805
299.9997022
299.9996426
299.9996464
299.999653
299.999665
299.9996831
299.9997001
299.9996317
299.9996342
299.9996377
299.9996451
299.9996585
299.9996727
299.9996098
299.9996119
299.9996138
299.9996189
299.9996305
299.9996477
299.9995958
299.9995977
299.9995986
299.9996028
299.9996153
299.9996381
299.9995927
299.999594
299.9995937
299.9995969
299.9996095
299.9996354
299.9995936
299.9995942
299.9995929
299.9995952
299.9996071
299.999634
299.999676
299.9996798
299.9996848
299.9996934
299.9997067
299.9997272
299.9996427
299.9996459
299.9996501
299.9996585
299.9996736
299.9997004
299.9996085
299.9996115
299.999616
299.9996251
299.9996418
299.9996694
299.9995904
299.9995936
299.9995992
299.9996102
299.9996282
299.9996541
299.9995968
299.9996001
299.9996063
299.9996182
299.9996367
299.9996602
299.9996212
299.9996238
299.9996289
299.9996392
299.9996559
299.9996757
299.9996335
299.9996346
299.9996366
299.9996421
299.9996534
299.9996667
299.9996283
299.9996282
299.9996268
299.9996274
299.9996323
299.9996423
299.999629
299.9996282
299.9996246
299.9996218
299.9996237
299.9996345
299.9996486
299.999647
299.9996408
299.999634
299.9996332
299.9996437
299.9996806
299.9996779
299.9996686
299.9996576
299.9996524
299.9996587
299.9997119
299.9997079
299.9996959
299.9996814
299.9996713
299.9996724
299.9998306
299.9998288
299.9998224
299.9998143
299.9998079
299.9998084
299.9997857
299.999783
299.9997755
299.9997671
299.9997621
299.9997676
299.9997379
299.9997353
299.9997285
299.9997214
299.999719
299.9997279
299.9997029
299.9997009
299.9996962
299.9996928
299.9996942
299.9997071
299.9996911
299.9996898
299.9996873
299.9996872
299.9996918
299.999708
299.999695
299.9996937
299.9996915
299.9996917
299.9996967
299.9997125
299.999697
299.9996946
299.9996899
299.9996865
299.9996873
299.9996958
299.9997011
299.9996978
299.9996903
299.9996818
299.9996768
299.9996801
299.9997265
299.9997227
299.9997126
299.999699
299.9996876
299.9996875
299.9997739
299.9997695
299.9997567
299.9997384
299.9997206
299.9997142
299.9998257
299.9998202
299.9998047
299.9997824
299.9997583
299.9997426
299.9998685
299.9998624
299.9998454
299.9998205
299.9997919
299.9997688
299.9999487
299.9999465
299.9999398
299.9999287
299.9999136
299.9999017
299.9999223
299.9999183
299.9999078
299.9998914
299.9998722
299.9998625
299.9998865
299.9998811
299.9998682
299.9998501
299.9998311
299.9998251
299.9998513
299.9998457
299.9998335
299.9998182
299.9998041
299.9998043
299.9998268
299.9998218
299.9998121
299.9998013
299.999794
299.9998003
299.9998119
299.9998073
299.9997988
299.9997897
299.9997853
299.9997947
299.9998021
299.999797
299.9997869
299.999775
299.9997661
299.9997713
299.9998084
299.9998029
299.9997908
299.9997746
299.9997589
299.9997576
299.9998411
299.9998357
299.9998223
299.9998022
299.99978
299.9997699
299.9998898
299.9998845
299.9998702
299.999848
299.999821
299.9998006
299.9999326
299.999928
299.9999145
299.9998921
299.9998624
299.9998338
299.9999594
299.9999559
299.9999451
299.9999262
299.9998972
299.9998658
299.9998469
299.9998511
299.9998546
299.9998618
299.9998743
299.9998912
299.9998364
299.9998407
299.9998452
299.9998538
299.9998677
299.9998857
299.9998267
299.9998314
299.9998368
299.9998468
299.9998623
299.9998817
299.9998187
299.9998239
299.9998302
299.9998414
299.9998583
299.9998794
299.9998131
299.9998185
299.9998251
299.9998371
299.9998551
299.9998776
299.9998102
299.9998145
299.9998212
299.9998338
299.9998526
299.9998764
299.9996201
299.9996234
299.9996282
299.9996399
299.9996633
299.9996986
299.9996045
299.9996083
299.9996143
299.9996281
299.999654
299.9996919
299.9995901
299.9995947
299.9996025
299.9996189
299.9996479
299.9996896
299.9995781
299.9995836
299.999593
299.999612
299.9996443
299.99969
299.9995692
299.9995751
299.9995857
299.9996069
299.9996424
299.9996918
299.9995638
299.999569
299.9995802
299.9996027
299.9996403
299.9996921
299.9995932
299.9995934
299.9995918
299.9995942
299.9996062
299.9996333
299.9995904
299.9995909
299.9995901
299.9995938
299.999608
299.9996371
299.9995863
299.9995876
299.9995884
299.9995946
299.9996124
299.9996453
299.9995821
299.9995842
299.9995869
299.9995961
299.9996183
299.9996561
299.9995782
299.9995808
299.999585
299.9995971
299.9996232
299.9996654
299.9995751
299.9995773
299.9995823
299.9995961
299.9996246
299.9996692
299.9997366
299.9997318
299.9997186
299.9997025
299.9996896
299.9996863
299.9997559
299.9997512
299.9997377
299.9997219
299.9997099
299.9997071
299.9997702
299.9997663
299.9997544
299.99974
299.9997308
299.9997311
299.9997796
299.9997768
299.9997671
299.9997561
299.9997503
299.9997546
299.9997843
299.9997822
299.9997747
299.999767
299.9997646
299.9997721
299.9997854
299.9997829
299.9997766
299.9997708
299.9997703
299.9997797
299.999899
299.9998937
299.9998777
299.999853
299.9998229
299.9997948
299.9999192
299.9999153
299.9999026
299.9998809
299.9998535
299.9998267
299.9999325
299.9999299
299.99992
299.9999033
299.9998815
299.9998593
299.9999404
299.9999388
299.9999313
299.9999192
299.9999038
299.9998872
299.9999441
299.9999429
299.999937
299.9999279
299.999917
299.9999051
299.9999446
299.9999429
299.9999377
299.9999302
299.9999215
299.999912
299.9999751
299.9999727
299.9999649
299.9999502
299.9999268
299.9998965
299.9999848
299.9999834
299.999978
299.9999672
299.9999503
299.9999268
299.9999908
299.9999901
299.9999863
299.9999789
299.9999675
299.9999517
299.9999942
299.999994
299.9999911
299.999986
299.9999785
299.9999682
299.9999957
299.9999955
299.9999931
299.9999893
299.9999839
299.9999767
299.9999955
299.9999947
299.9999924
299.9999892
299.9999849
299.9999792
299.9998673
299.999873
299.9998811
299.9998925
299.9999066
299.9999186
299.9999232
299.9999214
299.9999195
299.99992
299.9999204
299.9999171
299.9998739
299.9998791
299.999886
299.9998961
299.999909
299.9999201
299.9999245
299.9999229
299.9999213
299.9999216
299.9999216
299.9999177
299.9998846
299.9998886
299.9998933
299.9999008
299.9999116
299.9999214
299.9999255
299.999924
299.9999221
299.9999216
299.9999203
299.9999152
299.999899
299.9999015
299.9999038
299.9999081
299.999916
299.9999242
299.9999277
299.999926
299.9999233
299.9999216
299.9999187
299.9999123
299.9999147
299.9999166
299.999917
299.9999182
299.9999225
299.9999284
299.9999308
299.9999285
299.9999247
299.9999214
299.9999171
299.9999102
299.9999294
299.9999316
299.9999307
299.9999288
299.9999291
299.999932
299.9999329
299.9999296
299.9999248
299.9999209
299.9999165
299.9999106
299.9996732
299.9996805
299.9996926
299.9997149
299.9997469
299.9997751
299.9997851
299.9997797
299.9997761
299.9997784
299.9997788
299.9997703
299.9996838
299.9996904
299.9997007
299.9997204
299.99975
299.9997767
299.9997863
299.9997811
299.9997775
299.9997789
299.999778
299.999768
299.9997039
299.9997091
299.9997158
299.9997304
299.9997554
299.9997794
299.9997879
299.9997824
299.9997776
299.9997768
299.9997729
299.9997601
299.9997315
299.9997357
299.9997385
299.9997468
299.9997652
299.9997851
299.9997918
299.9997852
299.9997783
299.9997741
299.9997665
299.9997506
299.9997629
299.9997678
299.9997682
299.9997701
299.9997799
299.9997943
299.999798
299.9997894
299.9997794
299.9997715
299.9997607
299.9997436
299.9997919
299.9998
299.9997991
299.9997948
299.9997957
299.9998021
299.9998014
299.9997897
299.9997773
299.9997677
299.9997568
299.9997418
299.9996392
299.9996353
299.9996358
299.9996487
299.9996775
299.9997025
299.9997041
299.999693
299.999692
299.9997039
299.9997111
299.9997086
299.9996475
299.9996435
299.9996429
299.9996536
299.9996798
299.9997032
299.9997042
299.9996931
299.9996918
299.9997024
299.9997082
299.9997043
299.9996631
299.9996592
299.9996563
299.999663
299.9996841
299.9997044
299.9997039
299.9996919
299.9996891
299.9996963
299.9996992
299.9996927
299.9996844
299.9996819
299.9996768
299.9996791
299.9996931
299.9997081
299.9997052
299.9996915
299.9996862
299.9996884
299.9996875
299.999678
299.9997086
299.9997096
299.9997051
299.9997023
299.9997081
299.999716
299.9997091
299.9996927
299.9996841
299.9996816
299.9996767
299.999666
299.9997295
299.9997373
299.9997352
299.9997286
299.9997263
299.9997254
299.999712
299.9996917
299.9996802
299.9996756
299.9996702
299.9996617
299.999739
299.9997145
299.9996945
299.9996896
299.9996984
299.9997051
299.9996911
299.9996753
299.99968
299.9997039
299.9997248
299.9997354
299.9997416
299.9997178
299.9996977
299.9996917
299.999699
299.9997044
299.9996899
299.9996742
299.9996785
299.9997013
299.9997205
299.9997303
299.9997446
299.999723
299.999703
299.9996953
299.9996999
299.9997025
299.9996866
299.9996701
299.999673
299.9996927
299.9997089
299.9997174
299.999748
299.9997308
299.9997124
299.9997028
299.9997037
299.9997027
299.9996841
299.999666
299.9996663
299.9996813
299.9996934
299.9997002
299.9997501
299.9997412
299.9997267
299.999716
299.9997123
299.9997059
299.9996843
299.9996639
299.9996611
299.9996705
299.9996783
299.9996842
299.9997504
299.9997513
299.9997452
299.9997362
299.9997291
299.9997159
299.9996875
299.999664
299.9996593
299.9996652
299.9996716
299.9996787
299.9998792
299.9998461
299.9998149
299.9997956
299.9997863
299.9997709
299.9997395
299.9997213
299.9997357
299.9997747
299.9998106
299.9998347
299.9998776
299.999845
299.9998141
299.9997946
299.9997846
299.9997684
299.9997367
299.9997186
299.9997328
299.9997709
299.9998059
299.99983
299.9998719
299.9998408
299.9998113
299.9997918
299.9997806
299.9997627
299.9997299
299.9997114
299.9997247
299.9997607
299.9997939
299.9998179
299.9998624
299.9998351
299.9998087
299.9997903
299.999778
299.9997575
299.9997226
299.9997031
299.9997142
299.9997464
299.9997765
299.9997999
299.9998488
299.9998286
299.9998079
299.9997919
299.9997792
299.9997567
299.9997191
299.999698
299.9997051
299.9997312
299.9997571
299.9997807
299.999832
299.9998226
299.9998113
299.9998016
299.9997901
299.9997651
299.9997233
299.9997001
299.9997045
299.9997261
299.9997491
299.9997723
299.9999641
299.9999458
299.9999245
299.9999051
299.9998875
299.9998612
299.9998259
299.9998121
299.9998338
299.9998774
299.9999161
299.9999405
299.999963
299.9999442
299.9999221
299.9999024
299.9998844
299.9998575
299.9998217
299.9998079
299.9998298
299.9998734
299.9999123
299.9999376
299.9999587
299.9999389
299.999916
299.999896
299.9998773
299.9998492
299.999812
299.9997979
299.9998198
299.9998629
299.9999021
299.9999292
299.9999507
299.9999302
299.9999075
299.9998884
299.9998697
299.9998398
299.9998006
299.9997856
299.9998064
299.9998477
299.9998857
299.9999142
299.9999373
299.9999174
299.9998979
299.9998824
299.9998657
299.9998353
299.9997938
299.9997768
299.9997935
299.9998298
299.9998648
299.9998952
299.999917
299.9999034
299.9998918
299.9998842
299.9998726
299.9998445
299.9998007
299.9997809
299.9997924
299.9998219
299.9998529
299.9998819
299.9999088
299.9999246
299.9999339
299.9999381
299.9999396
299.9999428
299.9999476
299.9999488
299.9999435
299.9999317
299.9999168
299.9999032
299.9999055
299.999922
299.9999333
299.9999388
299.9999413
299.9999447
299.9999484
299.9999483
299.999942
299.9999298
299.9999141
299.9998989
299.9999025
299.9999208
299.9999327
299.9999385
299.9999421
299.9999463
299.9999494
299.9999479
299.9999403
299.9999275
299.9999115
299.999896
299.9999016
299.9999207
299.9999334
299.9999402
299.9999445
299.9999487
299.9999511
299.9999485
299.99994
299.9999263
299.9999098
299.999894
299.9999015
299.9999219
299.9999353
299.9999423
299.9999466
299.9999506
299.9999522
299.9999486
299.9999391
299.9999247
299.999908
299.9998925
299.9999014
299.9999225
299.999936
299.9999429
299.999947
299.9999506
299.9999519
299.9999479
299.999938
299.9999235
299.9999068
299.9998915
299.9997395
299.9997807
299.9998112
299.9998287
299.9998413
299.9998591
299.9998761
299.9998746
299.9998485
299.9998049
299.9997588
299.9997233
299.9997384
299.9997823
299.999815
299.9998342
299.9998481
299.9998646
299.9998776
299.9998728
299.9998456
299.9998019
299.9997534
299.9997137
299.9997386
299.9997854
299.9998195
299.9998394
299.9998543
299.9998703
299.99988
299.9998714
299.9998413
299.9997962
299.9997471
299.9997075
299.999743
299.9997923
299.9998275
299.9998481
299.999863
299.9998774
299.9998837
299.9998717
299.9998393
299.9997927
299.9997431
299.9997038
299.9997484
299.9997999
299.9998358
299.9998559
299.9998696
299.999882
299.9998859
299.9998716
299.9998375
299.9997899
299.99974
299.9997015
299.9997508
299.9998034
299.9998393
299.9998587
299.9998716
299.9998832
299.9998861
299.9998709
299.999836
299.9997879
299.9997379
299.9996995
299.9996694
299.9997113
299.9997461
299.999773
299.9998012
299.9998377
299.9998664
299.9998572
299.9998065
299.9997349
299.9996718
299.9996367
299.9996792
299.9997236
299.9997607
299.9997884
299.9998153
299.9998473
299.9998686
299.9998558
299.9998053
299.9997344
299.9996684
299.9996295
299.9996906
299.9997388
299.9997772
299.999804
299.9998299
299.9998586
299.9998734
299.9998547
299.9998012
299.9997297
299.999664
299.9996268
299.9997059
299.9997564
299.9997953
299.9998217
299.9998456
299.9998699
299.9998791
299.9998557
299.9997999
299.9997278
299.9996623
299.9996262
299.999719
299.9997717
299.9998108
299.9998357
299.9998568
299.9998775
299.9998828
299.9998563
299.9997988
299.9997262
299.9996611
299.9996259
299.9997249
299.9997783
299.9998172
299.9998412
299.9998611
299.9998803
299.9998839
299.999856
299.9997976
299.9997246
299.9996595
299.9996247
299.9996943
299.9997143
299.999735
299.9997598
299.9998012
299.9998605
299.9999
299.9998813
299.9998107
299.9997273
299.9996724
299.9996537
299.9997167
299.9997366
299.9997597
299.9997866
299.9998261
299.9998761
299.9999054
299.9998833
299.9998136
299.9997305
299.9996726
299.9996535
299.9997434
299.9997662
299.9997893
299.9998142
299.9998508
299.9998945
299.9999146
299.9998853
299.9998136
299.9997311
299.9996755
299.999659
299.9997714
299.9997951
299.9998178
299.9998412
299.9998738
299.9999104
299.9999228
299.9998884
299.9998152
299.9997334
299.9996799
299.9996652
299.9997924
299.9998172
299.9998394
299.9998605
299.9998891
299.9999203
299.9999277
299.99989
299.9998159
299.9997348
299.9996827
299.9996691
299.9998013
299.9998265
299.9998482
299.9998682
299.9998951
299.9999241
299.9999292
299.9998901
299.9998153
299.9997344
299.9996829
299.9996698
299.9997763
299.999765
299.9997633
299.9997782
299.9998246
299.9998984
299.9999427
299.9999193
299.9998485
299.9997793
299.9997496
299.9997485
299.9998075
299.9997962
299.9997964
299.9998124
299.999856
299.9999175
299.9999513
299.9999254
299.9998557
299.9997879
299.9997605
299.999762
299.9998424
299.9998336
299.9998337
299.9998477
299.9998871
299.9999398
299.9999632
299.9999312
299.9998614
299.9997973
299.9997734
299.9997787
299.9998736
299.9998662
299.9998661
299.9998785
299.9999127
299.9999566
299.9999718
299.9999358
299.9998668
299.9998062
299.9997851
299.999793
299.9998946
299.9998881
299.9998878
299.9998983
299.9999284
299.9999664
299.9999763
299.9999381
299.9998698
299.9998119
299.9997926
299.9998022
299.999903
299.9998969
299.9998964
299.9999062
299.9999345
299.99997
299.9999777
299.9999384
299.9998704
299.9998136
299.9997952
299.9998057
299.999866
299.9998378
299.9998199
299.999825
299.999863
299.999934
299.9999759
299.9999563
299.9999009
299.9998617
299.999854
299.9998665
299.9998994
299.9998732
299.9998569
299.9998608
299.9998948
299.9999536
299.9999854
299.9999639
299.9999125
299.9998782
299.9998734
299.9998888
299.9999313
299.9999091
299.999894
299.9998968
299.9999263
299.9999744
299.9999962
299.9999721
299.999924
299.9998946
299.9998925
299.9999094
299.9999543
299.9999368
299.999923
299.9999248
299.9999492
299.9999882
300.0000024
299.999977
299.9999322
299.9999071
299.9999069
299.999923
299.9999667
299.9999526
299.9999402
299.9999412
299.9999623
299.9999953
300.0000052
299.9999794
299.9999371
299.9999149
299.9999157
299.9999306
299.9999707
299.9999583
299.9999468
299.9999476
299.9999674
299.9999979
300.0000059
299.9999799
299.9999388
299.9999178
299.999919
299.9999332
299.9999091
299.9998983
299.9998874
299.9998779
299.9998707
299.9998665
299.9999091
299.999898
299.9998868
299.999877
299.9998692
299.999864
299.9999057
299.999894
299.9998823
299.9998719
299.9998635
299.9998579
299.999902
299.9998898
299.9998779
299.999867
299.9998582
299.9998526
299.9999001
299.999888
299.9998765
299.9998658
299.9998573
299.999852
299.9999012
299.9998901
299.9998796
299.9998696
299.9998618
299.999857
299.9997525
299.999732
299.9997142
299.9997005
299.9996907
299.9996848
299.9997491
299.999728
299.9997097
299.9996954
299.9996847
299.9996777
299.9997396
299.9997175
299.9996981
299.9996826
299.9996708
299.9996632
299.9997286
299.9997058
299.9996859
299.9996697
299.9996575
299.9996501
299.9997219
299.9997
299.9996809
299.9996652
299.9996534
299.9996466
299.9997233
299.9997036
299.9996861
299.9996716
299.9996607
299.9996544
299.9996976
299.9996865
299.9996797
299.9996769
299.9996755
299.9996739
299.9996925
299.9996812
299.9996743
299.999671
299.9996689
299.9996663
299.9996797
299.999668
299.9996606
299.9996567
299.9996539
299.999651
299.9996641
299.9996526
299.9996456
299.9996419
299.9996393
299.9996367
299.9996531
299.9996434
299.9996381
299.9996355
299.9996337
299.9996317
299.9996524
299.9996452
299.9996417
299.9996404
299.9996394
299.9996379
299.9997415
299.9997498
299.9997623
299.9997763
299.9997869
299.9997912
299.9997364
299.9997453
299.9997585
299.9997728
299.9997831
299.9997868
299.9997237
299.9997337
299.9997481
299.9997632
299.999774
299.999778
299.9997069
299.9997191
299.9997361
299.9997532
299.9997657
299.9997707
299.9996929
299.9997087
299.9997294
299.9997492
299.9997634
299.9997693
299.9996888
299.9997081
299.9997313
299.9997531
299.9997687
299.9997753
299.9998534
299.9998715
299.9998895
299.9999051
299.9999153
299.9999191
299.9998495
299.999869
299.9998884
299.9999049
299.9999154
299.999919
299.999839
299.9998612
299.9998832
299.9999019
299.9999139
299.999918
299.9998231
299.9998497
299.9998764
299.999899
299.9999132
299.9999181
299.9998071
299.9998394
299.9998719
299.9998986
299.9999147
299.9999206
299.9997981
299.9998355
299.9998725
299.9999026
299.9999206
299.9999272
299.9999551
299.9999657
299.9999738
299.9999794
299.9999824
299.9999829
299.9999534
299.999965
299.9999738
299.9999799
299.9999829
299.999983
299.9999474
299.9999611
299.9999714
299.9999787
299.9999823
299.9999828
299.9999365
299.9999543
299.999968
299.9999776
299.9999824
299.9999833
299.999923
299.9999469
299.9999653
299.9999777
299.9999837
299.9999852
299.9999107
299.9999416
299.9999647
299.9999798
299.9999872
299.9999893
299.999905
299.9998974
299.9998885
299.9998799
299.9998731
299.9998689
299.9999136
299.999908
299.9999017
299.9998952
299.9998897
299.9998862
299.999923
299.9999208
299.9999169
299.9999125
299.9999087
299.9999062
299.9999332
299.9999337
299.9999319
299.9999296
299.9999277
299.9999263
299.9999437
299.9999454
299.9999449
299.9999438
299.9999432
299.9999427
299.999953
299.999954
299.999953
299.999952
299.9999517
299.9999513
299.9999583
299.9999571
299.9999544
299.9999524
299.9999513
299.9999506
299.9999568
299.9999536
299.9999491
299.9999456
299.9999434
299.999942
299.9999473
299.9999434
299.999938
299.9999334
299.9999302
299.9999283
299.9999318
299.9999275
299.9999224
299.9999179
299.9999145
299.9999127
299.9999148
299.9999099
299.9999056
299.9999021
299.9998997
299.9998984
299.9999011
299.9998956
299.9998919
299.9998901
299.9998892
299.9998889
299.9997323
299.9997193
299.999705
299.999693
299.9996837
299.9996783
299.9997535
299.9997471
299.9997375
299.9997288
299.9997217
299.9997175
299.9997811
299.999781
299.9997762
299.9997715
299.9997675
299.999765
299.9998123
299.9998163
299.9998163
299.9998156
299.999815
299.9998141
299.9998436
299.9998493
299.9998514
299.9998529
299.9998542
299.9998543
299.9998707
299.9998733
299.9998732
299.9998735
299.9998742
299.999874
299.9998853
299.9998811
299.9998758
299.9998724
299.9998705
299.9998689
299.9998785
299.9998696
299.9998591
299.9998517
299.9998466
299.9998436
299.9998482
299.999839
299.9998263
299.9998168
299.9998101
299.9998064
299.9998018
299.9997945
299.9997834
299.9997753
299.9997696
299.9997666
299.9997553
299.9997486
299.9997415
299.9997377
299.9997356
299.9997345
299.9997221
299.9997146
299.999712
299.999714
299.999717
299.9997183
299.9996606
299.99966
299.99966
299.999661
299.9996613
299.9996605
299.9996849
299.9996916
299.9996953
299.9996985
299.9997001
299.9996999
299.9997197
299.9997318
299.9997387
299.9997444
299.9997477
299.9997484
299.99976
299.9997746
299.9997842
299.9997921
299.999797
299.9997985
299.9998011
299.9998141
299.9998235
299.9998311
299.9998361
299.9998376
299.9998362
299.9998417
299.9998459
299.9998496
299.9998519
299.9998522
299.9998531
299.9998482
299.9998441
299.9998415
299.9998395
299.9998378
299.9998394
299.9998291
299.9998177
299.99981
299.9998043
299.9998009
299.9997936
299.9997843
299.9997717
299.999763
299.9997565
299.9997528
299.9997302
299.9997259
299.9997177
299.9997129
299.9997092
299.999707
299.9996744
299.9996736
299.9996727
299.9996756
299.9996783
299.9996792
299.9996408
299.9996411
299.9996486
299.9996599
299.9996684
299.9996717
299.9996946
299.9997184
299.9997449
299.9997689
299.9997853
299.9997922
299.9997152
299.9997444
299.999772
299.9997955
299.9998109
299.9998172
299.9997469
299.9997776
299.9998044
299.9998263
299.9998401
299.9998456
299.9997828
299.9998117
299.9998365
299.9998559
299.9998678
299.9998723
299.9998188
299.999841
299.9998608
299.999876
299.999885
299.9998881
299.9998481
299.9998582
299.9998691
299.9998775
299.9998822
299.9998834
299.9998579
299.9998556
299.9998555
299.9998561
299.9998557
299.9998547
299.9998355
299.9998278
299.9998201
299.9998155
299.9998118
299.9998093
299.9997833
299.9997773
299.9997695
299.9997651
299.9997615
299.9997593
299.9997211
299.999721
299.99972
299.9997221
299.9997236
299.9997237
299.9996778
299.9996829
299.9996929
299.9997044
299.9997111
299.9997135
299.9996586
299.9996701
299.9996886
299.9997064
299.9997181
299.9997228
299.9997994
299.9998397
299.9998802
299.9999127
299.9999307
299.9999373
299.999811
299.9998542
299.9998948
299.9999258
299.9999426
299.9999487
299.9998324
299.9998736
299.999911
299.9999387
299.9999538
299.9999592
299.9998573
299.9998922
299.9999247
299.9999482
299.9999611
299.9999656
299.9998817
299.9999053
299.9999306
299.9999487
299.9999588
299.9999622
299.9998974
299.9999078
299.9999241
299.9999359
299.9999421
299.9999439
299.999892
299.9998937
299.9998998
299.999905
299.9999074
299.9999077
299.999861
299.9998586
299.9998591
299.9998608
299.9998614
299.9998609
299.9998107
299.9998103
299.999812
299.9998153
299.9998172
299.9998176
299.999766
299.9997728
299.9997822
299.9997918
299.9997974
299.9997993
299.9997483
299.9997618
299.9997778
299.999792
299.9998006
299.9998039
299.9997507
299.9997709
299.9997937
299.999812
299.9998229
299.9998272
299.9999051
299.9999408
299.9999674
299.9999847
299.9999929
299.9999953
299.9999067
299.9999445
299.9999735
299.9999912
299.9999994
300.0000017
299.9999149
299.9999525
299.9999807
299.9999975
300.0000054
300.0000074
299.9999285
299.999961
299.9999865
300.0000019
300.0000091
300.0000109
299.9999435
299.9999658
299.9999873
300.0000008
300.0000072
300.0000088
299.9999505
299.999962
299.9999785
299.9999895
299.9999948
299.9999961
299.999937
299.9999428
299.9999539
299.9999626
299.9999671
299.9999682
299.9999027
299.9999074
299.9999166
299.9999249
299.9999298
299.9999313
299.9998615
299.9998703
299.9998825
299.9998935
299.9999004
299.999903
299.9998415
299.9998552
299.9998714
299.9998854
299.9998939
299.9998973
299.9998435
299.9998617
299.9998816
299.999897
299.999906
299.9999096
299.9998636
299.9998857
299.9999065
299.9999205
299.9999283
299.9999312
299.9998929
299.9998862
299.9998838
299.9998836
299.9998845
299.9998849
299.9998873
299.9998816
299.9998801
299.9998815
299.9998837
299.9998846
299.9998848
299.9998796
299.9998791
299.9998818
299.9998852
299.9998866
299.9998832
299.9998788
299.9998792
299.9998831
299.9998873
299.9998889
299.9998823
299.9998784
299.9998796
299.9998839
299.9998884
299.9998902
299.9998814
299.9998777
299.9998789
299.9998834
299.999888
299.9998898
299.9997035
299.9996956
299.9996973
299.9997046
299.9997117
299.9997147
299.9996926
299.9996872
299.9996926
299.9997038
299.9997144
299.999719
299.9996878
299.9996842
299.9996926
299.9997074
299.9997208
299.9997267
299.9996855
299.9996834
299.9996945
299.9997118
299.9997269
299.9997335
299.9996842
299.9996831
299.9996956
299.999714
299.9997299
299.9997367
299.9996825
299.9996817
299.9996946
299.9997135
299.9997295
299.9997356
299.9996252
299.9996272