/*--------------------------------*- C++ -*----------------------------------*\
| =========                 |                                                 |
| \\      /  F ield         | OpenFOAM: The Open Source CFD Toolbox           |
|  \\    /   O peration     | Version:  4.x                                   |
|   \\  /    A nd           | Web:      www.OpenFOAM.org                      |
|    \\/     M anipulation  |                                                 |
\*---------------------------------------------------------------------------*/
FoamFile
{
    version     2.0;
    format      ascii;
    class       volVectorField;
    location    "0.86";
    object      U;
}
// * * * * * * * * * * * * * * * * * * * * * * * * * * * * * * * * * * * * * //

dimensions      [0 1 -1 0 0 0 0];

internalField   nonuniform List<vector> 
6394
(
(0.03005328136 9.008688191e-05 0.003762826022)
(0.03005229624 2.947077555e-05 0.003762805152)
(0.03005229626 -2.947459632e-05 0.003762805147)
(0.03005328115 -9.009066867e-05 0.003762826021)
(0.03005564521 -0.0001566054029 0.003762946993)
(0.03006049195 -0.0002338801001 0.003763144858)
(0.03007010094 -0.000334140205 0.003763952343)
(0.03008925837 -0.0004604338117 0.003763827705)
(0.03482173664 8.941997561e-05 0.005107965624)
(0.03482241875 2.921645422e-05 0.005108793213)
(0.03482241881 -2.922046747e-05 0.005108793227)
(0.03482173673 -8.942417005e-05 0.005107965689)
(0.03482036767 -0.000156008937 0.005106379012)
(0.0348184772 -0.0002342852245 0.005104199347)
(0.03481673404 -0.0003385546182 0.00510191093)
(0.03481718353 -0.0004734544274 0.005099947427)
(0.03487424554 9.781891085e-05 0.002573202282)
(0.03487402744 3.194118104e-05 0.002574573349)
(0.03487402753 -3.194501757e-05 0.002574573397)
(0.03487424544 -9.782296294e-05 0.002573202425)
(0.03487475957 -0.0001706655509 0.002570588315)
(0.03487574537 -0.0002559399077 0.002567176519)
(0.03487790989 -0.000367829619 0.002563738488)
(0.03488208145 -0.0005096931821 0.002561482091)
(0.03463365654 0.0001020593084 0.00183363873)
(0.03463365403 3.338110493e-05 0.001833943245)
(0.03463365405 -3.338472748e-05 0.001833943342)
(0.03463365642 -0.0001020631901 0.001833639023)
(0.03463383865 -0.0001774419018 0.001833282453)
(0.03463459372 -0.0002649241605 0.001833536427)
(0.03463706698 -0.0003783295562 0.001835404778)
(0.0346417808 -0.0005204826229 0.001840549589)
(0.03456219223 0.0001037559874 0.001022576233)
(0.03456203799 3.398812789e-05 0.001022606834)
(0.03456203805 -3.399151553e-05 0.001022606942)
(0.03456219233 -0.0001037595475 0.001022576522)
(0.0345626392 -0.0001798343312 0.001022738072)
(0.03456369103 -0.0002673906673 0.001023649081)
(0.03456636191 -0.0003798968266 0.001026170993)
(0.03457076318 -0.0005195621949 0.001031638817)
(0.03454425184 0.0001037209242 0.000743674384)
(0.03454412959 3.40243519e-05 0.0007434406439)
(0.03454412965 -3.402750999e-05 0.0007434407447)
(0.03454425166 -0.0001037241772 0.0007436746992)
(0.03454460326 -0.0001792875632 0.0007443472226)
(0.03454543441 -0.0002656705113 0.0007459197646)
(0.03454766453 -0.0003761192289 0.0007490269487)
(0.0345511859 -0.0005128165803 0.0007545647889)
(0.02705678339 0.0002219210918 0.003147406876)
(0.02704823937 7.302001786e-05 0.003148260139)
(0.02704823944 -7.30233296e-05 0.00314826011)
(0.02705678339 -0.0002219244164 0.003147406778)
(0.02707584153 -0.0003801154415 0.00314557413)
(0.02711035344 -0.0005547081778 0.00314227361)
(0.02716871557 -0.000758531508 0.003137579545)
(0.02726936773 -0.0009928678068 0.003128442129)
(0.03611298933 0.0003308298812 0.006015732307)
(0.03610132491 0.0001088106096 0.006018099259)
(0.03610132499 -0.0001088132493 0.006018099271)
(0.03611298937 -0.0003308326126 0.006015732292)
(0.03613925251 -0.0005672332798 0.006010695643)
(0.0361873498 -0.0008293760131 0.006002316304)
(0.03627027248 -0.001136473944 0.005990173323)
(0.03641607562 -0.001495239157 0.005973222131)
(0.03740494521 0.000303540106 0.004361817238)
(0.03739583135 9.989567119e-05 0.00436279668)
(0.03739583138 -9.989878548e-05 0.004362796695)
(0.03740494508 -0.0003035433919 0.004361817383)
(0.03742537426 -0.0005202426625 0.004359740783)
(0.03746335615 -0.0007610080221 0.00435591892)
(0.03753081143 -0.001047149475 0.004348658227)
(0.03765489165 -0.001384043435 0.004335917016)
(0.03644633308 0.0003010773086 0.003580301265)
(0.03643814362 9.914953473e-05 0.003581005166)
(0.03643814363 -9.91527015e-05 0.003581005292)
(0.0364463329 -0.0003010806353 0.003580301589)
(0.03646501956 -0.0005152662411 0.003579114538)
(0.03650047157 -0.0007519921642 0.003577603196)
(0.03656405261 -0.00103246854 0.003575075779)
(0.03668188168 -0.00136187107 0.003570479534)
(0.03572424903 0.0003013089009 0.002381665375)
(0.03571606737 9.918554939e-05 0.002381402205)
(0.03571606739 -9.918867642e-05 0.002381402317)
(0.03572424877 -0.0003013122378 0.0023816657)
(0.03574301511 -0.0005159523487 0.002382371955)
(0.0357786949 -0.000753356686 0.002383684825)
(0.03584273317 -0.001034398158 0.002385174047)
(0.0359610968 -0.001363600609 0.002386038365)
(0.03529467926 0.0003019306852 0.001850016357)
(0.0352868192 9.940744401e-05 0.001849637199)
(0.03528681921 -9.941039351e-05 0.001849637338)
(0.03529467903 -0.0003019339782 0.001850016776)
(0.03531287096 -0.0005168011396 0.00185098878)
(0.03534779155 -0.0007541637286 0.00185289657)
(0.03541094798 -0.001034802304 0.001855799888)
(0.03552822697 -0.001363432124 0.001859301512)
(0.02067215545 0.0002950231509 0.002245935598)
(0.02065210754 9.739046436e-05 0.002247252535)
(0.02065210767 -9.739292292e-05 0.002247252505)
(0.02067215578 -0.0002950257929 0.002245935436)
(0.02071558799 -0.0005017502012 0.00224336569)
(0.02079023822 -0.0007246478461 0.002239375752)
(0.02090955767 -0.0009754210657 0.002234873387)
(0.02110098721 -0.001257684197 0.002227397008)
(0.0351278866 0.0004267907807 0.005901832357)
(0.03510536013 0.0001405587657 0.005905491966)
(0.03510536025 -0.0001405601721 0.005905491959)
(0.03512788679 -0.0004267922718 0.005901832272)
(0.03517684639 -0.0007295434416 0.005894223587)
(0.03526131222 -0.001061453354 0.005882404974)
(0.03539674117 -0.001442852086 0.005867371953)
(0.03561701081 -0.001885019287 0.005849462879)
(0.03850746685 0.0004551538023 0.005213848519)
(0.03848755818 0.000149258682 0.005222531387)
(0.03848755826 -0.0001492603574 0.005222531356)
(0.0385074669 -0.0004551555751 0.005213848546)
(0.03855181868 -0.0007835787707 0.005197331104)
(0.03863060467 -0.001149432142 0.005175857204)
(0.03876101797 -0.001571122468 0.005158169362)
(0.03897843107 -0.002057793155 0.005147630231)
(0.03805181783 0.0004662111828 0.004683862641)
(0.038035103 0.0001533646685 0.004688476052)
(0.03803510313 -0.0001533664425 0.004688476154)
(0.03805181791 -0.0004662132789 0.004683862813)
(0.03809015533 -0.0007982761992 0.004675398988)
(0.03816146085 -0.001164247744 0.004665004495)
(0.03828635567 -0.001585751318 0.004656957542)
(0.03850296714 -0.002072810378 0.004653147464)
(0.03713129707 0.0004741776812 0.00342226289)
(0.0371130871 0.0001563019443 0.00342368987)
(0.03711308715 -0.0001563037403 0.003423689935)
(0.03713129707 -0.0004741795587 0.003422263063)
(0.03717244148 -0.0008089181547 0.003419853784)
(0.03724768526 -0.00117427423 0.003417480562)
(0.03737738266 -0.001592555636 0.003417102475)
(0.03760147542 -0.002074220136 0.0034198884)
(0.03640044845 0.0004793345109 0.002709824807)
(0.03638195748 0.000158192974 0.002710079584)
(0.03638195754 -0.0001581945191 0.002710079664)
(0.03640044825 -0.0004793362053 0.002709824988)
(0.03644229979 -0.0008158464323 0.002709719392)
(0.03651908363 -0.001180799205 0.002710543458)
(0.0366518995 -0.001596604715 0.002713238213)
(0.03688222515 -0.002074219502 0.002717989557)
(0.01694347409 0.0005525132019 0.001241759562)
(0.01688393736 0.0003261794449 0.00123890238)
(0.01685639848 0.0001078771632 0.001237502393)
(0.01685639868 -0.0001078789793 0.001237502368)
(0.01688393781 -0.0003261811722 0.00123890223)
(0.01694347512 -0.0005525152023 0.00124175927)
(0.01704492207 -0.0007930187422 0.001246030939)
(0.017204891 -0.001055333899 0.001251164484)
(0.01744984872 -0.001341611586 0.001256016358)
(0.03349046639 0.0008934693663 0.004802361682)
(0.03340926994 0.0005253653026 0.004799051078)
(0.03337163895 0.0001734573968 0.004796917642)
(0.03337163912 -0.000173457569 0.004796917592)
(0.03340927044 -0.0005253654316 0.004799050891)
(0.03349046768 -0.0008934700354 0.004802361341)
(0.0336292395 -0.001292374705 0.004804491447)
(0.03385125397 -0.001742134289 0.004803089986)
(0.03420127328 -0.002253703543 0.00480236912)
(0.03914289485 0.001040176979 0.005138890076)
(0.03905959986 0.0006187632296 0.00511594983)
(0.0390194848 0.0002056179803 0.005104423724)
(0.03901948492 -0.0002056178576 0.005104423637)
(0.03905960024 -0.0006187631227 0.005115949568)
(0.03914289595 -0.001040177552 0.005138889669)
(0.03927709902 -0.001480814469 0.005172039175)
(0.03948608024 -0.001975774792 0.005190979835)
(0.03983160934 -0.002555675134 0.005189947134)
(0.03951447272 0.001061815578 0.00502627796)
(0.03944570686 0.0006269986718 0.005031526543)
(0.03941440832 0.0002074239857 0.005035211571)
(0.03941440843 -0.0002074241009 0.005035211563)
(0.03944570712 -0.0006269988135 0.005031526496)
(0.0395144738 -0.001061816153 0.005026277863)
(0.03963533737 -0.001523274159 0.005023876065)
(0.03983790806 -0.002035050822 0.005024736432)
(0.04017721101 -0.002618623035 0.005029059726)
(0.03876385056 0.001065618511 0.004095465088)
(0.03869683746 0.0006284545322 0.004095178094)
(0.03866683433 0.0002077519441 0.00409554051)
(0.03866683446 -0.0002077521267 0.004095540498)
(0.03869683774 -0.0006284546212 0.004095177988)
(0.03876385132 -0.001065618872 0.004095464937)
(0.03888412856 -0.001531839756 0.00409820267)
(0.0390882273 -0.002048346029 0.004102830222)
(0.03943063605 -0.002630558772 0.004109185053)
(0.0378389273 0.001074707067 0.003318774072)
(0.03777137394 0.0006349682704 0.003319396186)
(0.03774133153 0.0002101037777 0.003320155883)
(0.03774133149 -0.0002101038424 0.003320155856)
(0.03777137407 -0.0006349683064 0.003319396139)
(0.03783892791 -0.001074707475 0.003318774014)
(0.03796109143 -0.00154150916 0.003319883498)
(0.03816940493 -0.002056069811 0.00332363978)
(0.03851945014 -0.002632438948 0.003330029545)
(0.01418947663 0.0005714694997 0.0006334114302)
(0.014124327 0.0003412823137 0.0006328728383)
(0.01409447079 0.000113525713 0.0006327714213)
(0.01409447112 -0.0001135269337 0.0006327714006)
(0.0141243279 -0.0003412834504 0.0006328729336)
(0.01418947823 -0.000571470653 0.000633411164)
(0.01430138293 -0.0008064589908 0.0006350698174)
(0.01447751573 -0.001050017865 0.0006392021108)
(0.01473885184 -0.001302716465 0.000646292841)
(0.03157676614 0.001028034162 0.003617490071)
(0.03147460892 0.0006091650426 0.003619103292)
(0.0314280376 0.0002018792798 0.003620487241)
(0.03142803795 -0.0002018786908 0.00362048715)
(0.0314746099 -0.0006091643476 0.003619102987)
(0.03157676804 -0.001028033901 0.003617489647)
(0.0317547219 -0.001469004391 0.003617944075)
(0.03204235643 -0.001946887044 0.003624263349)
(0.03248401265 -0.00247261004 0.003641616629)
(0.03910121828 0.001185737534 0.004783996381)
(0.03899446772 0.0007011153775 0.004788936395)
(0.03894588048 0.000232138866 0.004791584105)
(0.03894588072 -0.0002321375982 0.00479158397)
(0.03899446858 -0.0007011140162 0.004788936095)
(0.03910121997 -0.001185736586 0.004783996052)
(0.03928916294 -0.001701239761 0.004776449952)
(0.03958992518 -0.002265396923 0.004772890057)
(0.04004731484 -0.002886578491 0.004783074591)
(0.04061114498 0.00125168055 0.004976841552)
(0.04050846235 0.0007426476943 0.004977564464)
(0.04046132272 0.000246250048 0.004978410232)
(0.04046132295 -0.0002462492369 0.004978410148)
(0.04050846317 -0.000742646837 0.004977564232)
(0.04061114679 -0.001251679893 0.004976841346)
(0.04078832766 -0.001785102111 0.004977128214)
(0.04107191723 -0.002362689555 0.004979848604)
(0.0415163994 -0.002997909646 0.004990913678)
(0.04024708895 0.001270814429 0.004421219228)
(0.04015337912 0.0007541701288 0.004423486341)
(0.04011109152 0.0002500758454 0.004425254542)
(0.04011109167 -0.0002500755695 0.004425254488)
(0.04015337974 -0.000754169776 0.004423486249)
(0.04024709051 -0.001270814331 0.004421219152)
(0.04041273263 -0.001810412925 0.004420253849)
(0.04068651014 -0.002390313873 0.004422363286)
(0.04112742511 -0.003022317963 0.004430750234)
(0.0393334047 0.001287544393 0.003715197403)
(0.0392429012 0.0007655037357 0.003717784087)
(0.03920250863 0.0002540757787 0.00371971701)
(0.03920250867 -0.0002540761746 0.003719717075)
(0.03924290165 -0.0007655040169 0.003717784239)
(0.03933340599 -0.001287544633 0.003715197737)
(0.03949575394 -0.001829246114 0.003713857743)
(0.0397684776 -0.002406423022 0.003715448637)
(0.04021343278 -0.003029971802 0.003721013546)
(0.01235570858 0.0005739991229 0.0003297020517)
(0.01228852829 0.0003466310751 0.0003307130148)
(0.01225729237 0.00011593691 0.0003314024919)
(0.01225729278 -0.0001159374928 0.000331402472)
(0.01228852954 -0.0003466316399 0.0003307129461)
(0.01235571092 -0.0005739995422 0.0003297017734)
(0.01246816588 -0.0007963947529 0.0003292604303)
(0.01263857495 -0.001013778834 0.0003314819211)
(0.01287807201 -0.001223760089 0.0003376735054)
(0.02970039586 0.001122223117 0.002686053656)
(0.02957588854 0.0006704429405 0.002689926832)
(0.02951860943 0.0002230523598 0.002692758121)
(0.02951860983 -0.0002230507773 0.002692758051)
(0.02957588983 -0.0006704412722 0.00268992654)
(0.02970039845 -0.001122221655 0.002686053233)
(0.02991278814 -0.001582495812 0.002685551357)
(0.03024371268 -0.002058965073 0.00269625447)
(0.03072550544 -0.002555260491 0.002726175736)
(0.03863431335 0.001322710027 0.00423569342)
(0.03851254789 0.0007854681836 0.004251654548)
(0.03845772062 0.0002605013161 0.004260592085)
(0.03845772092 -0.0002604998138 0.004260592008)
(0.03851254888 -0.0007854665992 0.00425165433)
(0.03863431596 -0.001322708697 0.004235693218)
(0.0388491956 -0.001881397867 0.004217462193)
(0.03919905358 -0.002470511805 0.004213993861)
(0.0397266537 -0.003091840214 0.004238841698)
(0.04134092679 0.001404572849 0.004768019957)
(0.04121857027 0.0008367496538 0.004771876797)
(0.04116198856 0.0002782190101 0.004773987141)
(0.04116198894 -0.0002782196966 0.00477398717)
(0.04121857117 -0.0008367500524 0.004771876805)
(0.04134092903 -0.00140457312 0.004768019995)
(0.0415517923 -0.001991685319 0.004764492709)
(0.04188977063 -0.002611131113 0.004767454829)
(0.04240650394 -0.003265675384 0.004786868719)
(0.04148307335 0.001444701101 0.004508080812)
(0.04137023149 0.0008624353963 0.004515554236)
(0.04131901492 0.0002869101806 0.004519874831)
(0.04131901513 -0.0002869124702 0.004519874956)
(0.04137023203 -0.0008624373404 0.004515554575)
(0.04148307536 -0.001444702608 0.004508081435)
(0.04168174165 -0.002040744131 0.004500505607)
(0.04200703706 -0.002661983958 0.004498625446)
(0.04251552136 -0.003310279299 0.004509245989)
(0.04081439223 0.00147025727 0.004004734979)
(0.04070924346 0.0008796637688 0.004013154635)
(0.04066254066 0.0002929137741 0.004018135623)
(0.04066254074 -0.0002929170549 0.00401813591)
(0.04070924372 -0.0008796666829 0.004013155455)
(0.0408143937 -0.0014702596 0.00400473629)
(0.04100391781 -0.002069477865 0.003995915944)
(0.04132130789 -0.002686994524 0.003990314787)
(0.04182559293 -0.003323231405 0.003991278421)
(0.01122170935 0.0007840086247 0.0001766751429)
(0.01112146508 0.0005732165341 0.0001772305351)
(0.01106058345 0.0003494275338 0.0001780650686)
(0.01103201209 0.0001174179876 0.0001786090523)
(0.01103201262 -0.0001174185257 0.0001786090296)
(0.01106058518 -0.0003494279783 0.0001780650131)
(0.01112146795 -0.0005732168006 0.0001772304083)
(0.01122171353 -0.0007840086814 0.0001766748577)
(0.01136889631 -0.0009785144018 0.0001778113999)
(0.01156385442 -0.001151725187 0.0001817743073)
(0.0282397975 0.001653563132 0.002028808067)
(0.02801289879 0.001186050192 0.002027724728)
(0.02787681732 0.000713918433 0.002030359989)
(0.02781330496 0.000238400494 0.002032576758)
(0.02781330552 -0.0002383974302 0.002032576637)
(0.02787681908 -0.000713915296 0.0020303596)
(0.02801290183 -0.001186047255 0.002027724115)
(0.02823980214 -0.001653560819 0.002028807281)
(0.02858020089 -0.002117293904 0.00204091126)
(0.02904606026 -0.002570934411 0.002072059187)
(0.038112841 0.002024360754 0.003695186092)
(0.03786375441 0.001437538044 0.003705624653)
(0.03771772145 0.0008592228245 0.003717204311)
(0.03765049094 0.0002857555788 0.003724395854)
(0.03765049127 -0.0002857511579 0.003724395586)
(0.03771772278 -0.0008592184424 0.00371720388)
(0.03786375705 -0.00143753401 0.003705623941)
(0.03811284512 -0.002024357619 0.003695185183)
(0.03850024232 -0.002623851602 0.003699838914)
(0.03905270696 -0.003228430229 0.00373328908)
(0.04196325194 0.002172155734 0.004518503117)
(0.04173033435 0.001541908377 0.004529138052)
(0.04159743372 0.0009190578835 0.004542132169)
(0.04153752886 0.0003043908337 0.004551011524)
(0.04153752899 -0.0003043879209 0.004551011291)
(0.04159743451 -0.0009190555404 0.004542131558)
(0.04173033614 -0.001541906305 0.004529137489)
(0.04196325528 -0.002172153809 0.004518502733)
(0.04233594195 -0.002817348241 0.004519379276)
(0.04288715215 -0.003467300663 0.004544590855)
(0.04275171536 0.002244494236 0.004526333213)
(0.0425385413 0.001601284046 0.004541832857)
(0.04241957048 0.0009596738459 0.004558246265)
(0.04236656914 0.0003194222625 0.004568640328)
(0.04236656908 -0.0003194226087 0.004568640301)
(0.04241957063 -0.000959674132 0.004558246208)
(0.04253854203 -0.001601284071 0.004541832968)
(0.0427517173 -0.002244493981 0.004526333677)
(0.04310197253 -0.002894465586 0.004518541184)
(0.0436331988 -0.003538998705 0.004528270003)
(0.04240787413 0.002286659728 0.004205863589)
(0.04221138355 0.001637671975 0.004226798598)
(0.04210479888 0.0009846173128 0.004244771245)
(0.04205841013 0.0003285217361 0.004255400385)
(0.04205841 -0.0003285236064 0.004255400495)
(0.04210479851 -0.0009846189268 0.004244771732)
(0.04221138371 -0.001637673054 0.00422679948)
(0.04240787526 -0.002286660217 0.004205864961)
(0.04273872413 -0.002933438482 0.004188767298)
(0.04325181301 -0.003565219107 0.00418163242)
(0.01057259593 0.001105739867 0.0001143664882)
(0.01043543538 0.0009627328666 0.0001122671748)
(0.01032415949 0.0007871069803 0.0001130959085)
(0.01024691974 0.0005836188772 0.0001147913895)
(0.01020033749 0.0003589152768 0.0001162277482)
(0.01017886112 0.0001210961874 0.0001169300832)
(0.01017886179 -0.0001210983308 0.0001169301286)
(0.01020033957 -0.0003589172298 0.0001162280576)
(0.01024692323 -0.0005836204849 0.0001147915402)
(0.01032416403 -0.000787108237 0.0001130960535)
(0.01043544032 -0.0009627338958 0.0001122672235)
(0.01057260084 -0.001105740405 0.0001143665553)
(0.02749052736 0.002566516465 0.001651292637)
(0.02708724984 0.00216024208 0.001626057518)
(0.02677226925 0.001717509022 0.00161939163)
(0.0265562814 0.001247142544 0.001622535531)
(0.02642598689 0.0007564478025 0.001627534932)
(0.02636551711 0.0002535007448 0.001630251403)
(0.02636551788 -0.000253499873 0.001630251438)
(0.02642598914 -0.000756446904 0.001627534786)
(0.02655628541 -0.001247141645 0.001622535018)
(0.02677227454 -0.001717508458 0.001619390823)
(0.02708725536 -0.002160242051 0.001626056586)
(0.02749053197 -0.002566516329 0.001651291839)
(0.03816203808 0.003333369151 0.003342153938)
(0.03763332144 0.002759225086 0.003311829231)
(0.03724011916 0.002161495752 0.003310870618)
(0.03698057275 0.001551025194 0.003325329369)
(0.03682784854 0.0009334594182 0.003339091102)
(0.03675733293 0.0003118072834 0.003344428222)
(0.03675733366 -0.0003117996008 0.003344428241)
(0.03682785055 -0.0009334521213 0.003339090645)
(0.03698057636 -0.001551018644 0.003325327908)
(0.03724012414 -0.002161490754 0.003310868424)
(0.03763332666 -0.002759221936 0.003311826796)
(0.03816204272 -0.003333367056 0.003342151726)
(0.04300927016 0.00365410472 0.004344412423)
(0.04247748844 0.003016623385 0.004333775274)
(0.0420934103 0.002358310379 0.004344798147)
(0.04184851883 0.001689827033 0.004367044543)
(0.04169573122 0.001028116794 0.004382743026)
(0.041618783 0.0003473618678 0.004392500525)
(0.04161878382 -0.0003473537346 0.004392500256)
(0.041695733 -0.001028107893 0.004382741883)
(0.04184852113 -0.00168981862 0.004367042137)
(0.04209341372 -0.002358303843 0.004344795114)
(0.04247749222 -0.003016619046 0.004333772244)
(0.04300927416 -0.00365410186 0.004344410141)
(0.04447381907 0.003773160246 0.004569837682)
(0.0439583822 0.003134530536 0.004581902685)
(0.04360464401 0.002463287055 0.004613096395)
(0.04338618767 0.001772702555 0.004652022879)
(0.04326470812 0.001070640952 0.004683078745)
(0.0432097912 0.0003584139966 0.004702294371)
(0.04320979132 -0.0003584046461 0.00470229363)
(0.04326470843 -0.001070631989 0.004683076696)
(0.04338618835 -0.001772694578 0.004652019858)
(0.04360464543 -0.002463280768 0.004613092788)
(0.04395838396 -0.003134526289 0.004581899082)
(0.04447382075 -0.003773157628 0.004569834505)
(0.04363425431 0.00253314668 0.004451520338)
(0.04344383428 0.001834525827 0.004492482785)
(0.04334332634 0.0011113497 0.004526998545)
(0.04330100822 0.0003723517398 0.004546713322)
(0.04330100803 -0.0003723430858 0.004546712638)
(0.04334332597 -0.001111341635 0.00452699635)
(0.04344383419 -0.001834518785 0.004492479638)
(0.04363425491 -0.002533141207 0.004451516626)
(0.04395874274 -0.003202119084 0.004410252021)
(0.04444899027 -0.003828169952 0.004376032291)
(0.009748745129 0.001089518857 9.155303435e-05)
(0.009681117597 0.0009742026164 9.178760195e-05)
(0.009614965021 0.0008127116302 9.483568698e-05)
(0.009568233857 0.0006114472247 9.810082389e-05)
(0.009540901807 0.0003797504228 0.000100778766)
(0.009528877459 0.0001287824466 0.0001022576273)
(0.009528878091 -0.0001287872535 0.0001022576706)
(0.009540903808 -0.0003797547685 0.0001007789318)
(0.009568237099 -0.0006114509689 9.81011198e-05)
(0.009614969258 -0.0008127147115 9.483609535e-05)
(0.009681122226 -0.0009742050053 9.178794858e-05)
(0.009748749694 -0.001089520152 9.15532517e-05)
(0.02600686056 0.002557278498 0.001406173636)
(0.02571463902 0.002207606346 0.001392580788)
(0.02545715264 0.001790952136 0.001397075159)
(0.02527444406 0.001319449638 0.001409290052)
(0.02516342817 0.0008083157515 0.001422237322)
(0.02511226327 0.000272268636 0.001430193541)
(0.02511226417 -0.0002722769884 0.001430193826)
(0.02516343093 -0.0008083237192 0.001422237916)
(0.02527444836 -0.001319456866 0.001409290608)
(0.02545715796 -0.001790958214 0.001397075539)
(0.02571464426 -0.00220761093 0.001392580813)
(0.02600686465 -0.002557281199 0.001406173486)
(0.03709756325 0.003421065794 0.003079544455)
(0.0366496197 0.002892302256 0.003062650142)
(0.03628489382 0.002307465354 0.003075578352)
(0.03603557881 0.001679042329 0.003101805005)
(0.03588767143 0.00102065139 0.003128455199)
(0.03582042678 0.000342593301 0.003144643037)
(0.03582042796 -0.0003425912763 0.003144643368)
(0.03588767486 -0.00102064963 0.003128455478)
(0.03603558403 -0.001679041061 0.003101804713)
(0.03628490018 -0.002307464715 0.003075577032)
(0.03664962596 -0.002892302067 0.003062647902)
(0.03709756801 -0.003421065307 0.003079541774)
(0.04283255644 0.00383894318 0.004232721507)
(0.042359019 0.003229631627 0.004240412162)
(0.0419903174 0.002567019739 0.004274765034)
(0.04174367687 0.00186557853 0.00432090882)
(0.04160147205 0.001130060557 0.00436936899)
(0.04153600337 0.0003792034862 0.004398458965)
(0.0415360048 -0.0003791951503 0.00439845853)
(0.04160147574 -0.001130051495 0.004369367511)
(0.04174368222 -0.001865570178 0.004320906028)
(0.04199032326 -0.002567013343 0.004274760692)
(0.04235902438 -0.003229627585 0.004240406704)
(0.04283256052 -0.003838940586 0.004232715902)
(0.0450300715 0.00404062829 0.004678346661)
(0.04458713161 0.003408200654 0.004724200824)
(0.04426278625 0.002714777778 0.00478544881)
(0.04406414405 0.001972235012 0.004848817966)
(0.0439583425 0.001197769176 0.004899282457)
(0.0439139349 0.0004020426546 0.004927381087)
(0.04391393606 -0.0004020249638 0.004927379796)
(0.04395834546 -0.001197752707 0.004899278871)
(0.0440641485 -0.0019722212 0.004848812308)
(0.04426279132 -0.002714767424 0.004785441394)
(0.04458713655 -0.003408194022 0.004724192424)
(0.04503007507 -0.00404062477 0.004678338793)
(0.0448031306 0.002838450773 0.004772908968)
(0.0446579199 0.002073645737 0.004846646478)
(0.04459193382 0.001263206083 0.004906240013)
(0.04456850783 0.0004243521541 0.004939544131)
(0.04456850887 -0.0004243321302 0.004939542682)
(0.0445919367 -0.001263187791 0.004906235806)
(0.04465792406 -0.002073630478 0.00484663943)
(0.04480313536 -0.002838439282 0.004772899546)
(0.0450695093 -0.003537682081 0.004692421541)
(0.04545620806 -0.004158920167 0.004615403216)
(0.00900003024 0.001111103013 8.784533583e-05)
(0.009003984191 0.001020867047 9.225032717e-05)
(0.008988753756 0.0008678864794 9.78695327e-05)
(0.008977381349 0.0006620091722 0.0001034303544)
(0.008972513514 0.0004148093016 0.0001076286197)
(0.008971310528 0.0001413208675 0.0001099568951)
(0.008971310851 -0.0001413270502 0.000109956905)
(0.008972514422 -0.0004148147613 0.0001076287472)
(0.008977383023 -0.000662013697 0.0001034306248)
(0.008988756016 -0.0008678902403 9.786994959e-05)
(0.009003986622 -0.001020870062 9.225074231e-05)
(0.009000032627 -0.001111104928 8.784568821e-05)
(0.02454080821 0.002558127229 0.001275307082)
(0.02439493054 0.00228137788 0.001286726295)
(0.02421974917 0.001889310992 0.001311438856)
(0.02408803624 0.00141387214 0.001339770269)
(0.02400690836 0.0008750322196 0.001363942133)
(0.02396934061 0.0002963087855 0.001378232541)
(0.02396934132 -0.0002963293184 0.0013782329)
(0.02400691029 -0.0008750515199 0.001363943268)
(0.02408803885 -0.001413889234 0.001339771978)
(0.02421975191 -0.001889325116 0.001311440867)
(0.02439493266 -0.002281388432 0.001286728275)
(0.02454080895 -0.00255813376 0.001275308935)
(0.03584532447 0.003498009814 0.002921548107)
(0.03554558385 0.003042876 0.002945692152)
(0.03524363333 0.002475035881 0.00299334302)
(0.03502753263 0.001826368343 0.003048401061)
(0.03489697276 0.001120219699 0.003096820814)
(0.03483673195 0.0003777259268 0.003126687553)
(0.03483673334 -0.0003777409763 0.003126688067)
(0.03489697667 -0.001120233999 0.00309682235)
(0.03502753814 -0.001826381322 0.003048403159)
(0.03524363956 -0.002475046713 0.002993345327)
(0.03554558915 -0.003042883925 0.002945694144)
(0.03584532722 -0.003498014056 0.002921549517)
(0.04235241612 0.004031468746 0.004211699979)
(0.04199974665 0.003476466758 0.004271783693)
(0.04167877755 0.002810469474 0.004354329513)
(0.04146567011 0.002062535716 0.004439515356)
(0.04135289479 0.001256361684 0.004507233624)
(0.04130521839 0.0004217070599 0.004546849099)
(0.04130522009 -0.0004217073044 0.004546848853)
(0.0413528996 -0.001256362157 0.004507233388)
(0.04146567794 -0.002062536738 0.004439515032)
(0.04167878649 -0.002810470706 0.004354328672)
(0.04199975445 -0.003476467883 0.004271782244)
(0.04235242039 -0.004031468718 0.004211697616)
(0.04525642548 0.00433660889 0.004871832758)
(0.04496380727 0.003754222083 0.004986463502)
(0.04469701522 0.003042845078 0.005113341669)
(0.0445329892 0.002239207204 0.005233913724)
(0.04445137924 0.00137109319 0.005326415804)
(0.04442007401 0.0004617840667 0.00537584462)
(0.04442007644 -0.0004617724929 0.005375843669)
(0.04445138581 -0.001371082791 0.005326413283)
(0.04453299855 -0.002239198885 0.005233909871)
(0.04469702559 -0.003042839128 0.005113336678)
(0.04496381666 -0.003754218403 0.00498645841)
(0.04525643194 -0.004336605936 0.004871826882)
(0.04579809549 0.003239163657 0.00532069614)
(0.0457067184 0.002397846251 0.005470654174)
(0.04567841219 0.001474019316 0.005585263958)
(0.04567516636 0.0004974083432 0.005647205358)
(0.0456751689 -0.0004973904368 0.005647203539)
(0.04567841929 -0.001474003193 0.005585258883)
(0.04570672858 -0.002397833284 0.005470646546)
(0.04579810715 -0.003239153879 0.00532068686)
(0.04598268161 -0.00396656769 0.005154945219)
(0.04619911996 -0.00453801808 0.004992186206)
(0.008269565656 0.00118174088 9.108575432e-05)
(0.008341063504 0.001109953665 9.999040661e-05)
(0.008379344524 0.0009596920202 0.0001089768494)
(0.008406927478 0.0007406452678 0.0001171871057)
(0.008427768214 0.00046743556 0.0001230200409)
(0.008439324906 0.0001597960749 0.0001260966604)
(0.008439324544 -0.0001598003365 0.000126096666)
(0.008427767222 -0.000467438974 0.0001230202981)
(0.008406926097 -0.0007406478012 0.0001171872538)
(0.008379342813 -0.0009596940598 0.0001089771006)
(0.008341061827 -0.001109955444 9.999065043e-05)
(0.008269564246 -0.001181742239 9.108607605e-05)
(0.02305475604 0.002610556421 0.001225850751)
(0.02305778616 0.002396275331 0.00127333846)
(0.02298814599 0.002027529663 0.001327544563)
(0.02292511889 0.001540953982 0.001379761605)
(0.02288656001 0.0009629386197 0.001420122506)
(0.0228694313 0.0003276048461 0.001442277388)
(0.02286943062 -0.000327631823 0.001442277869)
(0.02288655788 -0.0009629635534 0.001420124091)
(0.0229251154 -0.001540975703 0.001379764167)
(0.02298814113 -0.002027547445 0.001327547745)
(0.02305778007 -0.00239628843 0.001273341806)
(0.02305474887 -0.002610565251 0.00122585424)
(0.03441009545 0.003576301961 0.002868240925)
(0.03429388002 0.003216651288 0.002955665461)
(0.03409796311 0.002669354663 0.003059298821)
(0.03394479394 0.002000057031 0.003159299401)
(0.03385148244 0.001238040417 0.003238401779)
(0.03380895276 0.0004191570961 0.003283025116)
(0.03380895306 -0.0004191926512 0.003283026093)
(0.033851483 -0.001238073667 0.003238404851)
(0.03394479432 -0.002000086302 0.003159304414)
(0.03409796257 -0.002669378449 0.003059305155)
(0.034293878 -0.003216668393 0.002955672146)
(0.03441009105 -0.003576312129 0.002868247705)
(0.04152536252 0.00422635685 0.004298490319)
(0.04136826925 0.003761127572 0.004436266152)
(0.04114915009 0.003094275197 0.004594116237)
(0.0409949448 0.002301566682 0.004742259762)
(0.04091214648 0.001416853283 0.004857335251)
(0.04088208521 0.0004777330937 0.004918275357)
(0.04088208651 -0.000477759055 0.004918276298)
(0.04091215042 -0.001416878193 0.004857338363)