-1.25 	300 	0.00026052657271947 	101325.0000000006
-1.247497497497497 	299.989049089999 	0.01323145896716813 	101318.0958767543
-1.244994994994995 	299.98863532437 	0.03426977862482169 	101311.7484457809
-1.242492492492492 	299.9832908872617 	0.04913618848955606 	101305.2033433485
-1.23998998998999 	299.9780743561852 	0.06331466164067243 	101299.0793255404
-1.237487487487487 	299.9732948796949 	0.07720498685858346 	101293.4322292886
-1.234984984984985 	299.9690334934762 	0.08950012574704538 	101288.3956074399
-1.232482482482482 	299.965329722261 	0.100239310908662 	101284.0181257959
-1.22997997997998 	299.9622557291934 	0.1091322997388736 	101280.3849410554
-1.227477477477477 	299.9599469012308 	0.1158475483669324 	101277.6562391901
-1.224974974974975 	299.9583653810645 	0.1203614933784459 	101275.7870335547
-1.222472472472472 	299.9575032881359 	0.1228170007321557 	101274.7682015993
-1.21996996996997 	299.9574249301819 	0.1230539331749672 	101274.6757148005
-1.217467467467467 	299.9581420129119 	0.120988157916996 	101275.5230722614
-1.214964964964965 	299.9596551533136 	0.1166237729849404 	101277.3112175476
-1.212462462462462 	299.9619562170733 	0.1099201924129919 	101280.0305278609
-1.20995995995996 	299.9649928309656 	0.1011343828428581 	101283.6192235355
-1.207457457457457 	299.9686623801748 	0.09061540751342886 	101287.9561466611
-1.204954954954955 	299.9728424603414 	0.07854874200799687 	101292.8965285636
-1.202452452452452 	299.9774994060181 	0.06506672438431974 	101298.4006817552
-1.19994994994995 	299.9825875422094 	0.05032488997517885 	101304.4148518178
-1.197447447447447 	299.9879883944747 	0.03466963841231167 	101310.7988527494
-1.194944944944945 	299.993585833838 	0.01848891577534092 	101317.4155817925
-1.192442442442442 	299.999272073483 	0.008162005642448383 	101324.1376961124
-1.18993993993994 	300.0049746634531 	0.01444610305976588 	101330.8792782552
-1.187437437437437 	300.010601998194 	0.03066854104745316 	101337.5323588686
-1.184934934934935 	300.0160621382685 	0.04646887757144999 	101343.9879871142
-1.182432432432432 	300.0212675999671 	0.06152390114991925 	101350.1428228356
-1.17992992992993 	300.0260939509859 	0.07547949375919447 	101355.8497878664
-1.177427427427427 	300.0304226894104 	0.08798811785919719 	101360.9683551674
-1.174924924924925 	300.0341719659597 	0.09880388783605787 	101365.4020164694
-1.172422422422422 	300.0372733782248 	0.107793989515832 	101369.0695811632
-1.16991991991992 	300.0396857408231 	0.1148002523030794 	101371.9224562436
-1.167417417417417 	300.0413986960975 	0.1197352897669379 	101373.9483787479
-1.164914914914915 	300.0423767292501 	0.1224961949462414 	101375.1049725112
-1.162412412412412 	300.0425652304872 	0.1229981794221159 	101375.3279466652
-1.15990990990991 	300.0419420784657 	0.121215982751685 	101374.5910024106
-1.157407407407407 	300.0405127212179 	0.1171077845908594 	101372.9008087126
-1.154904904904904 	300.0383076395698 	0.1107577346321398 	101370.2933314044
-1.152402402402403 	300.03539281089 	0.1023113729879139 	101366.8463387316
-1.1498998998999 	300.0318381694799 	0.0920189976840956 	101362.6429716756
-1.147397397397397 	300.027714175469 	0.08014230159087285 	101357.7663964867
-1.144894894894895 	300.0230971152622 	0.0667939348132091 	101352.307073457
-1.142392392392392 	300.0180618479727 	0.05220663666510628 	101346.353538174
-1.13988988988989 	300.0126988327446 	0.03666909711903463 	101340.0125344334
-1.137387387387387 	300.0071208870544 	0.02051299759216545 	101333.417832452
-1.134884884884885 	300.0014269996315 	0.007781600881264713 	101326.6862625575
-1.132382382382382 	299.9957046295004 	0.01242885054731247 	101319.9214492357
-1.12987987987988 	299.9900297634326 	0.02885938083709233 	101313.2131517458
-1.127377377377377 	299.9844927355648 	0.0448687601737417 	101306.6679041323
-1.124874874874875 	299.9792232933762 	0.06008028061301889 	101300.4393469661
-1.122372372372372 	299.9743618491173 	0.07410519740615532 	101294.6931732194
-1.11986986986987 	299.969997432426 	0.08671348405669346 	101289.5348006179
-1.117367367367367 	299.9662054393425 	0.09771223222695549 	101285.0531547937
-1.114864864864865 	299.9630318439788 	0.1069391418588738 	101281.3023213534
-1.112362362362362 	299.960509042594 	0.1142217459126772 	101278.320795357
-1.10985985985986 	299.9586985475102 	0.1193813437355468 	101276.1809568444
-1.107357357357357 	299.9576707572453 	0.1223504936716192 	101274.9662870952
-1.104854854854855 	299.9574430183287 	0.123000716571164 	101274.6971911617
-1.102352352352353 	299.9580330398332 	0.1213071162063091 	101275.3943522642
-1.09984984984985 	299.9594151399813 	0.1173325210808711 	101277.0276463849
-1.097347347347347 	299.961539398036 	0.1111385678511743 	101279.5379679867
-1.094844844844845 	299.9643602278808 	0.1029700939951221 	101282.8716569376
-1.092342342342342 	299.9678331635383 	0.09298406564839505 	101286.9761836251
-1.08983983983984 	299.9718765398213 	0.08128864753648342 	101291.7549255963
-1.087337337337337 	299.976450209776 	0.06808070258359228 	101297.1606726437
-1.084834834834835 	299.9814629917383 	0.05356800759962492 	101303.0856572883
-1.082332332332332 	299.9867986597726 	0.03812338460048115 	101309.392553616
-1.07982982982983 	299.9923376346442 	0.02212588908718504 	101315.9401749953
-1.077327327327327 	299.9979642358848 	0.007230681167048614 	101322.591618472
-1.074824824824825 	300.0036363616034 	0.01056485525374887 	101329.2971643499
-1.072322322322323 	300.0092838932974 	0.02685178348588439 	101335.9740342922
-1.06981981981982 	300.0147789696413 	0.0427612186849915 	101342.4708848856
-1.067317317317317 	300.0200042433559 	0.05789028675100118 	101348.6491601372
-1.064814814814815 	300.0248607142487 	0.07194537568116248 	101354.3916027704
-1.062312312312312 	300.0292693556997 	0.0846732919158272 	101359.6046107875
-1.05980980980981 	300.0331611816243 	0.09588873792145658 	101364.2068214814
-1.057307307307307 	300.0364601979427 	0.1054326364743308 	101368.1079844801
-1.054804804804805 	300.0390967690352 	0.1130547974358053 	101371.2260364419
-1.052302302302302 	300.0410170778057 	0.1185704091380248 	101373.4971329552
-1.0497997997998 	300.0421640793037 	0.1218359841337305 	101374.8535485375
-1.047297297297297 	300.0425083232922 	0.1228235506875417 	101375.2607422359
-1.044794794794795 	300.0420562454945 	0.1215567736342043 	101374.7260623579
-1.042292292292292 	300.0408222669495 	0.1180116365004262 	101373.266933518
-1.03978978978979 	300.0388319278163 	0.1122646043699266 	101370.9133736355
-1.037287287287287 	300.0361247054236 	0.1043906013776477 	101367.7118845604
-1.034784784784785 	300.0327350345623 	0.09458265000031923 	101363.7035919034
-1.032282282282283 	300.0287364982808 	0.08306815816630936 	101358.9753057582
-1.02977977977978 	300.0242232427254 	0.06999894911237876 	101353.6386932941
-1.027277277277277 	300.019277196504 	0.05566613772669387 	101347.7905515202
-1.024774774774775 	300.0139812699779 	0.0403269903051216 	101341.5288368237
-1.022272272272272 	300.0084373365593 	0.0242854346215043 	101334.9742828051
-1.01976976976977 	300.0027366414492 	0.007874962976748997 	101328.2345692627
-1.017267267267267 	299.9969907735548 	0.009661753817128296 	101321.4419077734
-1.014764764764765 	299.9912869198196 	0.02524487146395962 	101314.6992421022
-1.012262262262262 	299.9857280323938 	0.04132012159520247 	101308.1281250526
-1.00975975975976 	299.9804356713915 	0.05661750705908425 	101301.8724131453
-1.007257257257257 	299.9755169299177 	0.07082067205134844 	101296.0584793338
-1.004754754754755 	299.9710424573877 	0.08374907648128094 	101290.7699469121
-1.002252252252252 	299.9670974939522 	0.09518642034478533 	101286.1074666656
-0.9997497497497498 	299.9637466155672 	0.104890926180642 	101282.147124486
-0.9972472472472473 	299.9610620537763 	0.1126244326218272 	101278.9743864465
-0.9947447447447449 	299.9591151441659 	0.1181914425001148 	101276.6733968327
-0.9922422422422421 	299.9579501119632 	0.121562111157786 	101275.2964341628
-0.9897397397397399 	299.9575634742341 	0.122663964327268 	101274.839549852
-0.9872372372372376 	299.957973848425 	0.1214986316367425 	101275.3245008425
-0.9847347347347346 	299.9591634422822 	0.1180792727731521 	101276.7302075479
-0.9822322322322323 	299.9611102902362 	0.1124158226015303 	101279.0309490456
-0.9797297297297296 	299.9637718188548 	0.1047258085552184 	101282.1762608698
-0.9772272272272275 	299.967090729518 	0.09514807109299547 	101286.0987186021
-0.9747247247247248 	299.9709916170892 	0.08384423574500814 	101290.7091360044
-0.9722222222222224 	299.9754288642936 	0.07102317210082096 	101295.9534981867
-0.9697197197197196 	299.980318404526 	0.05685692400089051 	101301.7328278743
-0.9672172172172175 	299.9855675035329 	0.04166645068981358 	101307.9372757085
-0.9647147147147147 	299.9910594587684 	0.02580554055013138 	101314.4292250496
-0.9622122122122124 	299.9966717951875 	0.00956956850146346 	101321.0638210319
-0.9597097097097099 	300.0023272362214 	0.00927176462487771 	101327.7495086983
-0.9572072072072073 	300.0079450554803 	0.02296419281380271 	101334.3912105415
-0.9547047047047047 	300.0134258002176 	0.03884395191757151 	101340.8710184371
-0.9522022022022023 	300.0186780605873 	0.05404595535097174 	101347.0811056857
-0.9496996996996998 	300.0236111699924 	0.06832895881897673 	101352.9141448296
-0.9471971971971973 	300.0281421517289 	0.08140995578379775 	101358.271746169
-0.9446946946946947 	300.0321790979667 	0.09305529328924506 	101363.0455070271
-0.9421921921921923 	300.0356284550135 	0.1030475847490492 	101367.1244438405
-0.93968968968969 	300.0384205644559 	0.1111111879672469 	101370.4263866951
-0.9371871871871872 	300.0405076393458 	0.1171011237407848 	101372.8946788966
-0.9346846846846848 	300.0418384554995 	0.1209045176064927 	101374.4684867171
-0.9321821821821823 	300.0423892431896 	0.1224840657323541 	101375.1199497914
-0.9296796796796799 	300.0421484950441 	0.1218168666764522 	101374.8351788764
-0.9271771771771771 	300.0411158330273 	0.1188529507188556 	101373.6140968358
-0.9246746746746748 	300.0393144956028 	0.1136572341408237 	101371.4840479543
-0.9221721721721724 	300.0367853647806 	0.1063115998647208 	101368.4931691658
-0.9196696696696698 	300.0335623467079 	0.09701129649488528 	101364.681918642
-0.9171671671671672 	300.029719897011 	0.0859314348591594 	101360.1381941232
-0.9146646646646649 	300.0253293668595 	0.07320295801749137 	101354.9466261947
-0.9121621621621623 	300.0204649970813 	0.05910950889074052 	101349.1950186864
-0.9096596596596597 	300.0152173844687 	0.04391124696788662 	101342.9903788976
-0.9071571571571573 	300.0097015865601 	0.02795890661707517 	101336.4689927107
-0.9046546546546547 	300.0040184558698 	0.01161133247140498 	101329.7500150282
-0.9021521521521524 	299.9982995882158 	0.009027586222619878 	101322.9891734195
-0.8996496496496498 	299.9926079764888 	0.0214154469456764 	101316.2609076644
-0.8971471471471473 	299.9870245213284 	0.03755196809844703 	101309.6606963848
-0.894644644644645 	299.9816645038177 	0.05304893775840412 	101303.3249164212
-0.892142142142142 	299.9766387723904 	0.06755671260218543 	101297.3845009641
-0.8896396396396397 	299.9720392379137 	0.08085310922824787 	101291.9481044303
-0.8871371371371374 	299.9679674858078 	0.09265015469021998 	101287.1357255935
-0.8846346346346349 	299.9644873538435 	0.102720350973922 	101283.0226126273
-0.8821321321321324 	299.9616692664925 	0.1108501139429879 	101279.6920273567
-0.8796296296296297 	299.9595745473105 	0.1168637138611136 	101277.2163734628
-0.8771271271271271 	299.9582410078936 	0.1207208011124063 	101275.6402743672
-0.8746246246246248 	299.9576813006694 	0.122307332423679 	101274.978846421
-0.8721221221221224 	299.9579224876209 	0.1216352033614785 	101275.2638451601
-0.8696196196196196 	299.9589424058473 	0.1187035847012996 	101276.4690298174
-0.8671171171171175 	299.9607193293186 	0.1135409835485251 	101278.5689484609
-0.8646146146146148 	299.9632109303366 	0.1063587625295101 	101281.5134601062
-0.8621121121121121 	299.9663641746131 	0.09723857931542879 	101285.2401079789
-0.8596096096096097 	299.9701232375058 	0.0863522683311897 	101289.6828283638
-0.857107107107107 	299.9744495022058 	0.07387023986733444 	101294.7959744265
-0.8546046046046049 	299.9792468217881 	0.05996259852616614 	101300.4662608031
-0.8521021021021022 	299.9844182447169 	0.04500132092022474 	101306.5788584938
-0.8495995995995997 	299.9898434166859 	0.02932230108715926 	101312.9918168022
-0.8470970970970974 	299.9953990742542 	0.01326288749515616 	101319.5593054045
-0.8445945945945946 	300.0010020488237 	0.008177536756278745 	101326.182874983
-0.8420920920920922 	300.0065876267909 	0.01905445636343594 	101332.7864131663
-0.8395895895895897 	300.0120759599351 	0.03495147928041226 	101339.2751179685
-0.8370870870870872 	300.0173738417492 	0.0502835819608471 	101345.5391019438
-0.8345845845845846 	300.0223818247031 	0.06477352363538165 	101351.4605835679
-0.8320820820820823 	300.0270102294744 	0.07812830660667203 	101356.9332850378
-0.8295795795795798 	300.0311611565022 	0.0901187157016308 	101361.8418276176
-0.8270770770770772 	300.0347469404084 	0.1005168878323171 	101366.0820372977
-0.8245745745745746 	300.0377021936416 	0.1090439585758738 	101369.5769201407
-0.8220720720720721 	300.0399678923849 	0.1155448933112842 	101372.2564307403
-0.8195695695695699 	300.0414833191738 	0.1198807447183556 	101374.0484930852
-0.817067067067067 	300.0422229405472 	0.1220095709593599 	101374.9233342961
-0.8145645645645651 	300.0421743152369 	0.121910021604241 	101374.8657325479
-0.8120620620620621 	300.0413437554606 	0.1195274710118611 	101373.8836811709
-0.8095595595595597 	300.0397519465491 	0.1149198292629326 	101372.0014174144
-0.8070570570570572 	300.0374195660423 	0.1081400822811256 	101369.2431393184
-0.8045545545545546 	300.0343695499104 	0.09935053491620625 	101365.6365119463
-0.8020520520520523 	300.0306747818115 	0.08869372781600722 	101361.2673490184
-0.7995495495495494 	300.0264033950366 	0.07631124852214959 	101356.2166746268
-0.7970470470470474 	300.0216377662574 	0.06250653130440742 	101350.5817667623
-0.7945445445445446 	300.0164733382005 	0.04753643361460972 	101344.4753420802
-0.7920420420420423 	300.011015402181 	0.03176795430253386 	101338.0223799662
-0.7895395395395397 	300.0053679880458 	0.01552248675074205 	101331.3455028797
-0.7870370370370371 	299.9996615180779 	0.007534176588261542 	101324.5992977461
-0.7845345345345348 	299.993948029935 	0.01754305089769648 	101317.8451022104
-0.7820320320320323 	299.9883165589735 	0.03381333025428784 	101311.1879771859
-0.7795295295295296 	299.9828898354112 	0.04949942824168335 	101304.7733664581
-0.7770270270270272 	299.9777790269115 	0.06424521599272554 	101298.7322799967
-0.7745245245245247 	299.9730828085013 	0.07783545833592154 	101293.1816073952
-0.7720220220220222 	299.9688976035314 	0.08997494414091751 	101288.2351023814
-0.7695195195195199 	299.9652833854935 	0.1004273524043657 	101283.9634134871
-0.767017017017017 	299.9623210552218 	0.1089654269673069 	101280.4624190241
-0.7645145145145147 	299.9600792166684 	0.1154131274551587 	101277.8128376157
-0.7620120120120122 	299.9585853078298 	0.1197307141567545 	101276.0472610877
-0.7595095095095097 	299.9578553437563 	0.1218110891283255 	101275.1846035082
-0.7570070070070072 	299.9579118974594 	0.1216726749714784 	101275.2513412348
-0.7545045045045048 	299.9587404740358 	0.1192688195848302 	101276.2305005223
-0.7520020020020022 	299.9603389271942 	0.114616642136712 	101278.1194143772
-0.7494994994994997 	299.9626754337029 	0.1079131362483607 	101280.8806869702
-0.7469969969969972 	299.9656843695547 	0.09920322129728305 	101284.436757103
-0.7444944944944945 	299.9693159983553 	0.08870224368902077 	101288.7287616619
-0.7419919919919924 	299.9735219327215 	0.07657093198585552 	101293.6997619187
-0.7394894894894897 	299.9782036012587 	0.0629743561516167 	101299.2332008831
-0.7369869869869872 	299.983272324442 	0.04831285994396526 	101305.2244172032
-0.7344844844844846 	299.9886201319753 	0.0328612899805566 	101311.5458703214
-0.7319819819819822 	299.9941148348356 	0.0169700192616374 	101318.0411384703
-0.7294794794794797 	299.9996783241016 	0.006260930769474656 	101324.6180793907
-0.7269769769769773 	300.0052362256553 	0.01517693282680608 	101331.1887160566
-0.7244744744744747 	300.0107276457626 	0.03106551902560017 	101337.6810570296
-0.721971971971972 	300.0160631042442 	0.04649726906468654 	101343.9894231777
-0.7194694694694695 	300.0211398291915 	0.06117594695462334 	101349.9920178505
-0.7169669669669674 	300.0258634007072 	0.07481195824468763 	101355.5772911384
-0.7144644644644647 	300.0301324049275 	0.08715592469831966 	101360.6253261194
-0.711961961961962 	300.0338550137333 	0.09791880422165446 	101365.0273600097
-0.7094594594594597 	300.0369602473648 	0.1068818530865075 	101368.6995991311
-0.7069569569569573 	300.039386332006 	0.1138561767395691 	101371.5686598576
-0.7044544544544545 	300.0410806428643 	0.118736924784822 	101373.5723460522
-0.7019519519519523 	300.0420196746016 	0.121456183916775 	101374.6829523872
-0.6994494494494495 	300.042183178204 	0.121935891230519 	101374.8762808952
-0.6969469469469471 	300.0415644530144 	0.1201607341862283 	101374.1447278949
-0.6944444444444446 	300.0401711793033 	0.1161155434529436 	101372.497172168
-0.6919419419419421 	300.0380157185465 	0.1098703997648371 	101369.9481791818
-0.6894394394394396 	300.03512802554 	0.1015529714149901 	101366.5334352508
-0.6869369369369374 	300.0315782669845 	0.09128059552162088 	101362.3357725447
-0.6844344344344344 	300.0274314299931 	0.0792685303114635 	101357.4323514415
-0.6819319319319321 	300.0227700248952 	0.06577345290766869 	101351.9205655966
-0.6794294294294296 	300.0176902879356 	0.05106957789642036 	101345.9142680607
-0.6769269269269272 	300.0122918197979 	0.03549344076236546 	101339.5315061247
-0.6744244244244245 	300.0066823326251 	0.01932345576271706 	101332.8994484563
-0.6719219219219222 	300.0009878910723 	0.005197868706011112 	101326.1674086638
-0.6694194194194195 	299.9952665384593 	0.01372059414754863 	101319.4037844494
-0.6669169169169172 	299.9896069954822 	0.03006327479014493 	101312.7134328404
-0.6644144144144146 	299.9841290530022 	0.04589994187577619 	101306.2381857177
-0.661911911911912 	299.978939495479 	0.06089780860329612 	101300.1039920448
-0.6594094094094097 	299.9741478091706 	0.07476481183014901 	101294.4404577388
-0.656906906906907 	299.969847031871 	0.08722182451753792 	101289.3572688891
-0.6544044044044046 	299.9661086353398 	0.09800904853333411 	101284.9387931308
-0.6519019019019021 	299.9630147342821 	0.1069272264351182 	101281.2822705252
-0.6493993993993996 	299.9606280806879 	0.1138285063175656 	101278.4615614216
-0.6468968968968971 	299.9589673959583 	0.1186039843688448 	101276.4989228425
-0.6443943943943946 	299.9580657545511 	0.1211918452740771 	101275.4333156841
-0.6418918918918921 	299.9579407648712 	0.1215667446986445 	101275.2855112651
-0.6393893893893897 	299.9585915712285 	0.1196750964213195 	101276.0545825134
-0.6368868868868871 	299.9600191241445 	0.1155439260115135 	101277.7415468075
-0.6343843843843846 	299.9621946254366 	0.1093015721634912 	101280.3125537035
-0.6318818818818821 	299.9650443557831 	0.1010219946601896 	101283.6804279759
-0.6293793793793795 	299.96853782543 	0.09093976094613081 	101287.8091098681
-0.6268768768768773 	299.9726044166013 	0.07920636707441922 	101292.6153788542
-0.6243743743743745 	299.9771555270235 	0.06599208037169799 	101297.994713858
-0.6218718718718721 	299.982105417339 	0.0516682156757958 	101303.8455665348
-0.6193693693693696 	299.9873661665514 	0.03647656521736524 	101310.06376092
-0.6168668668668671 	299.9927997747647 	0.02076472531914974 	101316.4866164664
-0.6143643643643645 	299.9983406180364 	0.004812606325833225 	101323.0367071549
-0.6118618618618621 	300.0038757008087 	0.01167420473114907 	101329.5802970651
-0.6093593593593596 	300.0093736453305 	0.0271626955538838 	101336.0803041394
-0.6068568568568571 	300.0147456654281 	0.04270130847163162 	101342.431820561
-0.6043543543543546 	300.0198827400426 	0.05755694046768592 	101348.5056667301
-0.6018518518518521 	300.024686216843 	0.07142766322935237 	101354.1853851256
-0.5993493493493496 	300.0290546119057 	0.08405703787469598 	101359.3508804876
-0.5968468468468471 	300.0329006417018 	0.09516888140917952 	101363.8988581769
-0.5943443443443446 	300.0361559352888 	0.1045527374940505 	101367.7485198913
-0.591841841841842 	300.0387530522801 	0.1120244803852019 	101370.8197584718
-0.5893393393393397 	300.0406375946236 	0.1174637608806761 	101373.0484415219
-0.5868368368368371 	300.0417787681556 	0.120769392856051 	101374.3980620853
-0.5843343343343346 	300.0421470266059 	0.1218403988911359 	101374.8335980091
-0.5818318318318321 	300.0417297901166 	0.1206501296176649 	101374.3403027306
-0.5793293293293297 	300.0405305827471 	0.117162938209185 	101372.9221781843
-0.5768268268268271 	300.0385553950176 	0.1114471605650502 	101370.5864220787
-0.5743243243243245 	300.0358374619938 	0.1036113531203857 	101367.3723736748
-0.5718218218218221 	300.0324405415063 	0.09376000505748106 	101363.3554651458
-0.5693193193193196 	300.0284252462789 	0.08213283508362601 	101358.6075743295
-0.5668168168168171 	300.0238749525155 	0.06896154390330339 	101353.2270441391
-0.5643143143143147 	300.0188875359987 	0.05452537377017601 	101347.329906489
-0.5618118118118121 	300.0135561832774 	0.03915204600432106 	101341.0263907582
-0.5593093093093094 	300.0079907513258 	0.02308903964173768 	101334.4464032017
-0.5568068068068072 	300.0023109070651 	0.006644652656270978 	101327.7315632396
-0.5543043043043046 	299.9965837346032 	0.01123383584458123 	101320.9609120511
-0.551801801801802 	299.990896892658 	0.02634331591303734 	101314.2382755458
-0.5492992992992995 	299.9853688484799 	0.04233109138252809 	101307.7036896019
-0.5467967967967969 	299.9801078874976 	0.05755062514299871 	101301.485096712
-0.5442942942942947 	299.9752288521077 	0.07165807685940488 	101295.7182743703
-0.5417917917917919 	299.9708204303764 	0.08440969659430775 	101290.507753239
-0.5392892892892895 	299.9669634558562 	0.09553842152593148 	101285.9491495723
-0.536786786786787 	299.9637353866237 	0.1048570861844031 	101282.1339842302
-0.5342842842842846 	299.9611925808644 	0.1122198020723938 	101279.1287999371
-0.531781781781782 	299.9593621360327 	0.1174652106187182 	101276.9655342882
-0.5292792792792794 	299.9582900157934 	0.1205595296683264 	101275.6983709221
-0.526776776776777 	299.9579899683201 	0.1214324476582205 	101275.3437288089
-0.5242742742742745 	299.9584728006682 	0.1200373249242473 	101275.9142467804
-0.521771771771772 	299.9597320352286 	0.1164183058790228 	101277.4023621583
-0.5192692692692695 	299.9617405732432 	0.1106186407650261 	101279.7760207795
-0.516766766766767 	299.9644399699375 	0.102775499211982 	101282.9661894862
-0.5142642642642645 	299.9678012970648 	0.09308612711456504 	101286.938685892
-0.511761761761762 	299.9717377626907 	0.08170692817427745 	101291.5910845154
-0.5092592592592596 	299.9761719205242 	0.06886692783968164 	101296.831968135
-0.506756756756757 	299.9810122669214 	0.0548493260853098 	101302.5531352582
-0.5042542542542544 	299.9861739131816 	0.03993089370925488 	101308.6544008154
-0.5017517517517521 	299.9915387768897 	0.02442178083855745 	101314.9960117409
-0.4992492492492494 	299.9970419037101 	0.008575662587232115 	101321.501430571
-0.496746746746747 	300.0025530712927 	0.009563460864067386 	101328.016721196
-0.4942442442442445 	300.0080522820179 	0.02333809021583027 	101334.5181252521
-0.4917417417417421 	300.013445774164 	0.03892596255262485 	101340.8949754825
-0.4892392392392395 	300.0186257363824 	0.05389706617956735 	101347.0194269323
-0.486736736736737 	300.023494277248 	0.06796647848213271 	101352.7760222706
-0.4842342342342345 	300.0279549045405 	0.08086400023438639 	101358.0505424636
-0.481731731731732 	300.0319244028369 	0.09233477314703935 	101362.7444702942
-0.4792292292292296 	300.0353292122488 	0.1021451793476696 	101366.7709333484
-0.4767267267267268 	300.0380910636123 	0.1101005517621957 	101370.0369197997
-0.4742242242242246 	300.0401539779514 	0.1160660732378299 	101372.4765384643
-0.471721721721722 	300.0414824187681 	0.1199100856361709 	101374.0476292291
-0.4692192192192195 	300.0420454530634 	0.1215425651352317 	101374.7135272018
-0.4667167167167169 	300.0418289990864 	0.1209227453451247 	101374.4576764095
-0.4642142142142145 	300.0408305395063 	0.1180081055229303 	101373.2768942355
-0.461711711711712 	300.0390478570655 	0.1128627662486086 	101371.1688167536
-0.4592092092092094 	300.0365155762149 	0.1055546138354604 	101368.1743109552
-0.456706706706707 	300.0332866471185 	0.09618698411182966 	101364.3560312069
-0.4542042042042045 	300.0294173424808 	0.08499075237712767 	101359.780760743
-0.451701701701702 	300.0249885745952 	0.07217404886825569 	101354.5438329395
-0.4491991991991995 	300.020095833366 	0.05802310150187519 	101348.7586120805
-0.4466966966966969 	300.0148281212481 	0.04284124677122322 	101342.5302862548
-0.4441941941941945 	300.0093036067063 	0.02688059627338872 	101335.9986069502
-0.441691691691692 	300.0036338939601 	0.01047747533544596 	101329.2956839248
-0.4391891891891895 	299.9979052606971 	0.008752823976788785 	101322.5231865537
-0.436686686686687 	299.9922023430683 	0.02256634696850244 	101315.7815101688
-0.4341841841841846 	299.9866360362756 	0.03867004825048841 	101309.2016088172
-0.431681681681682 	299.9813138356076 	0.05406624173206084 	101302.9105997274
-0.4291791791791794 	299.9763502345663 	0.06841517243669838 	101297.0437462399
-0.426676676676677 	299.9718335194761 	0.08146841805563676 	101291.7051554507
-0.4241741741741744 	299.9678533003059 	0.09295247767744984 	101287.0009029654
-0.421671671671672 	299.9644868834255 	0.1026865818978396 	101283.0221706644
-0.4191691691691694 	299.9617889620664 	0.1104919709955754 	101279.8336852718
-0.4166666666666669 	299.9597943623473 	0.116216284947351 	101277.4764114551
-0.4141641641641645 	299.9585528396232 	0.1198032673650333 	101276.0089973092
-0.411661661661662 	299.958078778515 	0.121170707562915 	101275.4487592898
-0.4091591591591594 	299.9583910852806 	0.1202749923647571 	101275.8177112185
-0.406656656656657 	299.9594821196466 	0.117138614467039 	101277.1070922097
-0.4041541541541545 	299.9613253246458 	0.1118016855815321 	101279.2853339872
-0.401651651651652 	299.9638720413802 	0.1044053514100006 	101282.2950231746
-0.3991491491491494 	299.967090302756 	0.09513517684174304 	101286.0984658618
-0.396646646646647 	299.9708900771004 	0.08414565786371049 	101290.5892198815
-0.3941441441441444 	299.9752016651663 	0.07166605770056252 	101295.6852456945
-0.3916416416416419 	299.9799343875165 	0.05796376364378393 	101301.2791388179
-0.3891391391391395 	299.9850045387275 	0.04330041535809533 	101307.2721616578
-0.3866366366366368 	299.9903069842552 	0.02798462475859219 	101313.5399809458
-0.3841341341341344 	299.9957679028724 	0.0122566994512861 	101319.9953685636
-0.381631631631632 	300.0012501911255 	0.006663328774809531 	101326.4765025376
-0.3791291291291294 	300.0067380060721 	0.019545541360413 	101332.9643542059
-0.3766266266266269 	300.0121407163962 	0.03515732354227168 	101339.3519898634
-0.3741241241241244 	300.0173560487148 	0.05022752539201019 	101345.5182512044
-0.371621621621622 	300.0222867940993 	0.06448611875478992 	101351.3482626858
-0.3691191191191194 	300.0268375817702 	0.07764085075520379 	101356.7294021426
-0.366616616616617 	300.0309267091667 	0.08946385049049227 	101361.5647436686
-0.3641141141141143 	300.0344767186597 	0.09968463341674977 	101365.7628324706
-0.3616116116116119 	300.0374025777729 	0.1081203753862035 	101369.2227830676
-0.3591091091091095 	300.0396469043 	0.1146138534752806 	101371.8768785058
-0.356606606606607 	300.0411652108509 	0.1189921278199649 	101373.6725410686
-0.3541041041041044 	300.0419220410039 	0.1211881991011309 	101374.567635429
-0.3516016016016019 	300.0419005868956 	0.121114512486509 	101374.5423616307
-0.3490990990990994 	300.0410936700226 	0.1187543148906982 	101373.5880784633
-0.346596596596597 	300.0394945455442 	0.1141560431598801 	101371.6970832095
-0.3440940940940944 	300.0371404317482 	0.1073593978014764 	101368.91326374
-0.3415915915915919 	300.0340749167494 	0.09847462180451934 	101365.2882295957
-0.3390890890890895 	300.0303525603211 	0.08770510927383879 	101360.8866686979
-0.3365865865865869 	300.0260512508193 	0.07525336483741962 	101355.8004138384
-0.3340840840840844 	300.0212617998236 	0.06140152276592864 	101350.137291522
-0.3315815815815819 	300.0160674877322 	0.04643185552952801 	101343.9956648802
-0.3290790790790794 	300.0105927837824 	0.03059473154464356 	101337.522851947
-0.3265765765765769 	300.0049410380962 	0.01424518862006462 	101330.8410728336
-0.3240740740740744 	299.999216393799 	0.005452791797197894 	101324.0732066958
-0.3215715715715718 	299.9935045840232 	0.01880987864936692 	101317.3209785299
-0.3190690690690695 	299.9879072695902 	0.03499743113580463 	101310.7043171236
-0.3165665665665668 	299.9825313025096 	0.05054492729925125 	101304.3497338574
-0.3140640640640644 	299.9774857328741 	0.06511582066519818 	101298.3859172261
-0.311561561561562 	299.9728638053895 	0.07846971250824869 	101292.9229032447
-0.3090590590590593 	299.9687614895536 	0.09030985803281862 	101288.0743544795
-0.3065565565565568 	299.9652605991137 	0.1004481270498499 	101283.9366182229
-0.3040540540540545 	299.9624171194926 	0.1086791125198451 	101280.5761370079
-0.3015515515515518 	299.960274762997 	0.1148417389121082 	101278.0442254803
-0.2990490490490494 	299.9588765355946 	0.1188848676229604 	101276.3915832394
-0.2965465465465469 	299.9582387102551 	0.1207186490971067 	101275.6378310931
-0.2940440440440444 	299.9583769232261 	0.12032285811775 	101275.8010161067
-0.2915415415415418 	299.9592864654696 	0.1177009997164905 	101276.8759579533
-0.2890390390390395 	299.9609463624722 	0.1128742256521322 	101278.8375381809