/*--------------------------------*- C++ -*----------------------------------*\
  =========                 |
  \\      /  F ield         | OpenFOAM: The Open Source CFD Toolbox
   \\    /   O peration     | Website:  https://openfoam.org
    \\  /    A nd           | Version:  7
     \\/     M anipulation  |
\*---------------------------------------------------------------------------*/
FoamFile
{
    version     2.0;
    format      ascii;
    class       volScalarField;
    location    "0.00013";
    object      rho;
}
// * * * * * * * * * * * * * * * * * * * * * * * * * * * * * * * * * * * * * //

dimensions      [1 -3 0 0 0 0 0];

internalField   nonuniform List<scalar> 
5000
(
1.4235637
1.4235637
1.4235637
1.4235637
1.4235637
1.4235637
1.4235637
1.4235637
1.4235637
1.4235637
1.4235637
1.4235637
1.4235637
1.4235637
1.4235637
1.4235637
1.4235637
1.4235637
1.4235637
1.4235637
1.4235637
1.4235637
1.4235637
1.4235637
1.4235637
1.4235637
1.4235637
1.4235637
1.4235637
1.4235637
1.4235637
1.4235637
1.4235637
1.4235637
1.4235637
1.4235637
1.4235637
1.4235637
1.4235637
1.4235637
1.4235637
1.4235637
1.4235637
1.4235637
1.4235637
1.4235637
1.4235637
1.4235637
1.4235637
1.4235637
1.4235637
1.4235637
1.4235637
1.4235637
1.4235637
1.4235637
1.4235637
1.4235637
1.4235637
1.4235637
1.4235637
1.4235637
1.4235637
1.4235637
1.4235637
1.4235637
1.4235637
1.4235637
1.4235637
1.4235637
1.4235637
1.4235637
1.4235637
1.4235637
1.4235637
1.4235637
1.4235637
1.4235637
1.4235637
1.4235637
1.4235637
1.4235637
1.4235637
1.4235637
1.4235637
1.4235637
1.4235637
1.4235637
1.4235637
1.4235637
1.4235637
1.4235637
1.4235637
1.4235637
1.4235637
1.4235637
1.4235637
1.4235637
1.4235637
1.4235637
1.4235637
1.4235637
1.4235637
1.4235637
1.4235637
1.4235637
1.4235637
1.4235637
1.4235637
1.4235637
1.4235637
1.4235637
1.4235637
1.4235637
1.4235637
1.4235637
1.4235637
1.4235637
1.4235637
1.4235637
1.4235637
1.4235637
1.4235637
1.4235637
1.4235637
1.4235637
1.4235637
1.4235637
1.4235637
1.4235637
1.4235637
1.4235637
1.4235637
1.4235637
1.4235637
1.4235637
1.4235637
1.4235637
1.4235637
1.4235637
1.4235637
1.4235637
1.4235637
1.4235637
1.4235637
1.4235637
1.4235637
1.4235637
1.4235637
1.4235637
1.4235637
1.4235637
1.4235637
1.4235637
1.4235637
1.4235637
1.4235637
1.4235637
1.4235637
1.4235637
1.4235637
1.4235637
1.4235637
1.4235637
1.4235637
1.4235637
1.4235637
1.4235637
1.4235637
1.4235637
1.4235637
1.4235637
1.4235637
1.4235637
1.4235637
1.4235637
1.4235637
1.4235637
1.4235637
1.4235637
1.4235637
1.4235637
1.4235637
1.4235637
1.4235637
1.4235637
1.4235637
1.4235637
1.4235637
1.4235637
1.4235637
1.4235637
1.4235637
1.4235637
1.4235637
1.4235637
1.4235637
1.4235637
1.4235637
1.4235637
1.4235637
1.4235637
1.4235637
1.4235637
1.4235637
1.4235637
1.4235637
1.4235637
1.4235637
1.4235637
1.4235637
1.4235637
1.4235637
1.4235637
1.4235637
1.4235637
1.4235637
1.4235637
1.4235637
1.4235637
1.4235637
1.4235637
1.4235637
1.4235637
1.4235637
1.4235637
1.4235637
1.4235637
1.4235637
1.4235637
1.4235637
1.4235637
1.4235637
1.4235637
1.4235637
1.4235637
1.4235637
1.4235637
1.4235637
1.4235637
1.4235637
1.4235637
1.4235637
1.4235637
1.4235637
1.4235637
1.4235637
1.4235637
1.4235637
1.4235637
1.4235637
1.4235637
1.4235637
1.4235637
1.4235637
1.4235637
1.4235637
1.4235637
1.4235637
1.4235637
1.4235637
1.4235637
1.4235637
1.4235637
1.4235637
1.4235637
1.4235637
1.4235637
1.4235637
1.4235637
1.4235637
1.4235637
1.4235637
1.4235637
1.4235637
1.4235637
1.4235637
1.4235637
1.4235637
1.4235637
1.4235637
1.4235637
1.4235637
1.4235637
1.4235637
1.4235637
1.4235637
1.4235637
1.4235637
1.4235637
1.4235637
1.4235637
1.4235637
1.4235637
1.4235637
1.4235637
1.4235637
1.4235637
1.4235637
1.4235637
1.4235637
1.4235637
1.4235637
1.4235637
1.4235637
1.4235637
1.4235637
1.4235637
1.4235637
1.4235637
1.4235637
1.4235637
1.4235637
1.4235637
1.4235637
1.4235637
1.4235637
1.4235637
1.4235637
1.4235637
1.4235637
1.4235637
1.4235637
1.4235637
1.4235637
1.4235637
1.4235637
1.4235637
1.4235637
1.4235637
1.4235637
1.4235637
1.4235637
1.4235637
1.4235637
1.4235637
1.4235637
1.4235637
1.4235637
1.4235637
1.4235637
1.4235637
1.4235637
1.4235637
1.4235637
1.4235637
1.4235637
1.4235637
1.4235637
1.4235637
1.4235637
1.4235637
1.4235637
1.4235637
1.4235637
1.4235637
1.4235637
1.4235637
1.4235637
1.4235637
1.4235637
1.4235637
1.4235637
1.4235637
1.4235637
1.4235637
1.4235637
1.4235637
1.4235637
1.4235637
1.4235637
1.4235637
1.4235637
1.4235637
1.4235637
1.4235637
1.4235637
1.4235637
1.4235637
1.4235637
1.4235637
1.4235637
1.4235637
1.4235637
1.4235637
1.4235637
1.4235637
1.4235637
1.4235637
1.4235637
1.4235637
1.4235637
1.4235637
1.4235637
1.4235637
1.4235637
1.4235637
1.4235637
1.4235637
1.4235637
1.4235637
1.4235637
1.4235637
1.4235637
1.4235637
1.4235637
1.4235637
1.4235637
1.4235637
1.4235637
1.4235637
1.4235637
1.4235637
1.4235637
1.4235637
1.4235637
1.4235637
1.4235637
1.4235637
1.4235637
1.4235637
1.4235637
1.4235637
1.4235637
1.4235637
1.4235637
1.4235637
1.4235637
1.4235637
1.4235637
1.4235637
1.4235637
1.4235637
1.4235637
1.4235637
1.4235637
1.4235637
1.4235637
1.4235637
1.4235637
1.4235637
1.4235637
1.4235637
1.4235637
1.4235637
1.4235637
1.4235637
1.4235637
1.4235637
1.4235637
1.4235637
1.4235637
1.4235637
1.4235637
1.4235637
1.4235637
1.4235637
1.4235637
1.4235637
1.4235637
1.4235637
1.4235637
1.4235637
1.4235637
1.4235637
1.4235637
1.4235637
1.4235637
1.4235637
1.4235637
1.4235637
1.4235637
1.4235637
1.4235637
1.4235637
1.4235637
1.4235637
1.4235637
1.4235637
1.4235637
1.4235637
1.4235637
1.4235637
1.4235637
1.4235637
1.4235637
1.4235637
1.4235637
1.4235637
1.4235637
1.4235637
1.4235637
1.4235637
1.4235637
1.4235637
1.4235637
1.4235637
1.4235637
1.4235637
1.4235637
1.4235637
1.4235637
1.4235637
1.4235637
1.4235637
1.4235637
1.4235637
1.4235637
1.4235637
1.4235637
1.4235637
1.4235637
1.4235637
1.4235637
1.4235637
1.4235637
1.4235637
1.4235637
1.4235637
1.4235637
1.4235637
1.4235637
1.4235637
1.4235637
1.4235637
1.4235637
1.4235637
1.4235637
1.4235637
1.4235637
1.4235637
1.4235637
1.4235637
1.4235637
1.4235637
1.4235637
1.4235637
1.4235637
1.4235637
1.4235637
1.4235637
1.4235637
1.4235637
1.4235637
1.4235637
1.4235637
1.4235637
1.4235637
1.4235637
1.4235637
1.4235637
1.4235637
1.4235637
1.4235637
1.4235637
1.4235637
1.4235637
1.4235637
1.4235637
1.4235637
1.4235637
1.4235637
1.4235637
1.4235637
1.4235637
1.4235637
1.4235637
1.4235637
1.4235637
1.4235637
1.4235637
1.4235637
1.4235637
1.4235637
1.4235637
1.4235637
1.4235637
1.4235637
1.4235637
1.4235637
1.4235637
1.4235637
1.4235637
1.4235637
1.4235637
1.4235637
1.4235637
1.4235637
1.4235637
1.4235637
1.4235637
1.4235637
1.4235637
1.4235637
1.4235637
1.4235637
1.4235637
1.4235637
1.4235637
1.4235637
1.4235637
1.4235637
1.4235637
1.4235637
1.4235637
1.4235637
1.4235637
1.4235637
1.4235637
1.4235637
1.4235637
1.4235637
1.4235637
1.4235637
1.4235637
1.4235637
1.4235637
1.4235637
1.4235637
1.4235637
1.4235637
1.4235637
1.4235637
1.4235637
1.4235637
1.4235637
1.4235637
1.4235637
1.4235637
1.4235637
1.4235637
1.4235637
1.4235637
1.4235637
1.4235637
1.4235637
1.4235637
1.4235637
1.4235637
1.4235637
1.4235637
1.4235637
1.4235637
1.4235637
1.4235637
1.4235637
1.4235637
1.4235637
1.4235637
1.4235637
1.4235637
1.4235637
1.4235637
1.4235637
1.4235637
1.4235637
1.4235637
1.4235637
1.4235637
1.4235637
1.4235637
1.4235637
1.4235637
1.4235637
1.4235637
1.4235637
1.4235637
1.4235637
1.4235637
1.4235637
1.4235637
1.4235637
1.4235637
1.4235637
1.4235637
1.4235637
1.4235637
1.4235637
1.4235637
1.4235637
1.4235637
1.4235637
1.4235637
1.4235637
1.4235637
1.4235637
1.4235637
1.4235637
1.4235637
1.4235637
1.4235637
1.4235637
1.4235637
1.4235637
1.4235637
1.4235637
1.4235637
1.4235637
1.4235637
1.4235637
1.4235637
1.4235637
1.4235637
1.4235637
1.4235637
1.4235637
1.4235637
1.4235637
1.4235637
1.4235637
1.4235637
1.4235637
1.4235637
1.4235637
1.4235637
1.4235637
1.4235637
1.4235637
1.4235637
1.4235637
1.4235637
1.4235637
1.4235637
1.4235637
1.4235637
1.4235637
1.4235637
1.4235637
1.4235637
1.4235637
1.4235637
1.4235637
1.4235637
1.4235637
1.4235637
1.4235637
1.4235637
1.4235637
1.4235637
1.4235637
1.4235637
1.4235637
1.4235637
1.4235637
1.4235637
1.4235637
1.4235637
1.4235637
1.4235637
1.4235637
1.4235637
1.4235637
1.4235637
1.4235637
1.4235637
1.4235637
1.4235637
1.4235637
1.4235637
1.4235637
1.4235637
1.4235637
1.4235637
1.4235637
1.4235637
1.4235637
1.4235637
1.4235637
1.4235637
1.4235637
1.4235637
1.4235637
1.4235637
1.4235637
1.4235637
1.4235637
1.4235637
1.4235637
1.4235637
1.4235637
1.4235637
1.4235637
1.4235637
1.4235637
1.4235637
1.4235637
1.4235637
1.4235637
1.4235637
1.4235637
1.4235637
1.4235637
1.4235637
1.4235637
1.4235637
1.4235637
1.4235637
1.4235637
1.4235637
1.4235637
1.4235637
1.4235637
1.4235637
1.4235637
1.4235637
1.4235637
1.4235637
1.4235637
1.4235637
1.4235637
1.4235637
1.4235637
1.4235637
1.4235637
1.4235637
1.4235637
1.4235637
1.4235637
1.4235637
1.4235637
1.4235637
1.4235637
1.4235637
1.4235637
1.4235637
1.4235637
1.4235637
1.4235637
1.4235637
1.4235637
1.4235637
1.4235637
1.4235637
1.4235637
1.4235637
1.4235637
1.4235637
1.4235637
1.4235637
1.4235637
1.4235637
1.4235637
1.4235637
1.4235637
1.4235637
1.4235637
1.4235637
1.4235637
1.4235637
1.4235637
1.4235637
1.4235637
1.4235637
1.4235637
1.4235637
1.4235637
1.4235637
1.4235637
1.4235637
1.4235637
1.4235637
1.4235637
1.4235637
1.4235637
1.4235637
1.4235637
1.4235637
1.4235637
1.4235637
1.4235637
1.4235637
1.4235637
1.4235637
1.4235637
1.4235637
1.4235637
1.4235637
1.4235637
1.4235637
1.4235637
1.4235637
1.4235637
1.4235637
1.4235637
1.4235637
1.4235637
1.4235637
1.4235637
1.4235637
1.4235637
1.4235637
1.4235637
1.4235637
1.4235637
1.4235637
1.4235637
1.4235637
1.4235637
1.4235637
1.4235637
1.4235637
1.4235637
1.4235637
1.4235637
1.4235637
1.4235637
1.4235637
1.4235637
1.4235637
1.4235637
1.4235637
1.4235637
1.4235637
1.4235637
1.4235637
1.4235637
1.4235637
1.4235637
1.4235637
1.4235637
1.4235637
1.4235637
1.4235637
1.4235637
1.4235637
1.4235637
1.4235637
1.4235637
1.4235637
1.4235637
1.4235637
1.4235637
1.4235637
1.4235637
1.4235637
1.4235637
1.4235637
1.4235637
1.4235637
1.4235637
1.4235637
1.4235637
1.4235637
1.4235637
1.4235637
1.4235637
1.4235637
1.4235637
1.4235637
1.4235637
1.4235637
1.4235637
1.4235637
1.4235637
1.4235637
1.4235637
1.4235637
1.4235637
1.4235637
1.4235637
1.4235637
1.4235637
1.4235637
1.4235637
1.4235637
1.4235637
1.4235637
1.4235637
1.4235637
1.4235637
1.4235637
1.4235637
1.4235637
1.4235637
1.4235637
1.4235637
1.4235637
1.4235637
1.4235637
1.4235637
1.4235637
1.4235637
1.4235637
1.4235637
1.4235637
1.4235637
1.4235637
1.4235637
1.4235637
1.4235637
1.4235637
1.4235637
1.4235637
1.4235637
1.4235637
1.4235637
1.4235637
1.4235637
1.4235637
1.4235637
1.4235637
1.4235637
1.4235637
1.4235637
1.4235637
1.4235637
1.4235637
1.4235637
1.4235637
1.4235637
1.4235637
1.4235637
1.4235637
1.4235637
1.4235637
1.4235637
1.4235637
1.4235637
1.4235637
1.4235637
1.4235637
1.4235637
1.4235637
1.4235637
1.4235637
1.4235637
1.4235637
1.4235637
1.4235637
1.4235637
1.4235637
1.4235637
1.4235637
1.4235637
1.4235637
1.4235637
1.4235637
1.4235637
1.4235637
1.4235637
1.4235637
1.4235637
1.4235637
1.4235637
1.4235637
1.4235637
1.4235637
1.4235637
1.4235637
1.4235637
1.4235637
1.4235637
1.4235637
1.4235637
1.4235637
1.4235637
1.4235637
1.4235637
1.4235637
1.4235637
1.4235637
1.4235637
1.4235637
1.4235637
1.4235637
1.4235637
1.4235637
1.4235637
1.4235637
1.4235637
1.4235637
1.4235637
1.4235637
1.4235637
1.4235637
1.4235637
1.4235637
1.4235637
1.4235637
1.4235637
1.4235637
1.4235637
1.4235637
1.4235637
1.4235637
1.4235637
1.4235637
1.4235637
1.4235637
1.4235637
1.4235637
1.4235637
1.4235637
1.4235637
1.4235637
1.4235637
1.4235637
1.4235637
1.4235637
1.4235637
1.4235637
1.4235637
1.4235637
1.4235637
1.4235637
1.4235637
1.4235637
1.4235637
1.4235637
1.4235637
1.4235637
1.4235637
1.4235637
1.4235637
1.4235637
1.4235637
1.4235637
1.4235637
1.4235637
1.4235637
1.4235637
1.4235637
1.4235637
1.4235637
1.4235637
1.4235637
1.4235637
1.4235637
1.4235637
1.4235637
1.4235637
1.4235637
1.4235637
1.4235637
1.4235637
1.4235637
1.4235637
1.4235637
1.4235637
1.4235637
1.4235637
1.4235637
1.4235637
1.4235637
1.4235637
1.4235637
1.4235637
1.4235637
1.4235637
1.4235637
1.4235637
1.4235637
1.4235637
1.4235637
1.4235637
1.4235637
1.4235637
1.4235637
1.4235637
1.4235637
1.4235637
1.4235637
1.4235637
1.4235637
1.4235637
1.4235637
1.4235637
1.4235637
1.4235637
1.4235637
1.4235637
1.4235637
1.4235637
1.4235637
1.4235637
1.4235637
1.4235637
1.4235637
1.4235637
1.4235637
1.4235637
1.4235637
1.4235637
1.4235637
1.4235637
1.4235637
1.4235637
1.4235637
1.4235637
1.4235637
1.4235637
1.4235637
1.4235637
1.4235637
1.4235637
1.4235637
1.4235637
1.4235637
1.4235637
1.4235637
1.4235637
1.4235637
1.4235637
1.4235637
1.4235637
1.4235637
1.4235637
1.4235637
1.4235637
1.4235637
1.4235637
1.4235637
1.4235637
1.4235637
1.4235637
1.4235637
1.4235637
1.4235637
1.4235637
1.4235637
1.4235637
1.4235637
1.4235637
1.4235637
1.4235637
1.4235637
1.4235637
1.4235637
1.4235637
1.4235637
1.4235637
1.4235637
1.4235637
1.4235637
1.4235637
1.4235637
1.4235637
1.4235637
1.4235637
1.4235637
1.4235637
1.4235637
1.4235637
1.4235637
1.4235637
1.4235637
1.4235637
1.4235637
1.4235637
1.4235637
1.4235637
1.4235637
1.4235637
1.4235637
1.4235637
1.4235637
1.4235637
1.4235637
1.4235637
1.4235637
1.4235637
1.4235637
1.4235637
1.4235637
1.4235637
1.4235637
1.4235637
1.4235637
1.4235637
1.4235637
1.4235637
1.4235637
1.4235637
1.4235637
1.4235637
1.4235637
1.4235637
1.4235637
1.4235637
1.4235637
1.4235637
1.4235637
1.4235637
1.4235637
1.4235637
1.4235637
1.4235637
1.4235637
1.4235637
1.4235637
1.4235637
1.4235637
1.4235637
1.4235637
1.4235637
1.4235637
1.4235637
1.4235637
1.4235637
1.4235637
1.4235637
1.4235637
1.4235637
1.4235637
1.4235637
1.4235637
1.4235637
1.4235637
1.4235637
1.4235637
1.4235637
1.4235637
1.4235637
1.4235637
1.4235637
1.4235637
1.4235637
1.4235637
1.4235637
1.4235637
1.4235637
1.4235637
1.4235637
1.4235637
1.4235637
1.4235637
1.4235637
1.4235637
1.4235637
1.4235637
1.4235637
1.4235637
1.4235637
1.4235637
1.4235637
1.4235637
1.4235637
1.4235637
1.4235637
1.4235637
1.4235637
1.4235637
1.4235637
1.4235637
1.4235637
1.4235637
1.4235637
1.4235637
1.4235637
1.4235637
1.4235637
1.4235637
1.4235637
1.4235637
1.4235637
1.4235637
1.4235637
1.4235637
1.4235637
1.4235637
1.4235637
1.4235637
1.4235637
1.4235637
1.4235637
1.4235637
1.4235637
1.4235637
1.4235637
1.4235637
1.4235637
1.4235637
1.4235637
1.4235637
1.4235637
1.4235637
1.4235637
1.4235637
1.4235637
1.4235637
1.4235637
1.4235637
1.4235637
1.4235637
1.4235637
1.4235637
1.4235637
1.4235637
1.4235637
1.4235637
1.4235637
1.4235637
1.4235637
1.4235637
1.4235637
1.4235637
1.4235637
1.4235637
1.4235637
1.4235637
1.4235637
1.4235637
1.4235637
1.4235637
1.4235637
1.4235637
1.4235637
1.4235637
1.4235637
1.4235637
1.4235637
1.4235637
1.4235637
1.4235637
1.4235637
1.4235637
1.4235637
1.4235637
1.4235637
1.4235637
1.4235637
1.4235637
1.4235637
1.4235637
1.4235637
1.4235637
1.4235637
1.4235637
1.4235637
1.4235637
1.4235637
1.4235637
1.4235637
1.4235637
1.4235637
1.4235637
1.4235637
1.4235637
1.4235637
1.4235637
1.4235637
1.4235637
1.4235637
1.4235637
1.4235637
1.4235637
1.4235637
1.4235637
1.4235637
1.4235637
1.4235637
1.4235637
1.4235637
1.4235637
1.4235637
1.4235637
1.4235637
1.4235637
1.4235637
1.4235637
1.4235637
1.4235637
1.4235637
1.4235637
1.4235637
1.4235637
1.4235637
1.4235637
1.4235637
1.4235637
1.4235637
1.4235637
1.4235637
1.4235637
1.4235637
1.4235637
1.4235637
1.4235637
1.4235637
1.4235637
1.4235637
1.4235637
1.4235637
1.4235637
1.4235637
1.4235637
1.4235637
1.4235637
1.4235637
1.4235637
1.4235637
1.4235637
1.4235637
1.4235637
1.4235637
1.4235637
1.4235637
1.4235637
1.4235637
1.4235637
1.4235637
1.4235637
1.4235637
1.4235637
1.4235637
1.4235637
1.4235637
1.4235637
1.4235637
1.4235637
1.4235637
1.4235637
1.4235637
1.4235637
1.4235637
1.4235637
1.4235637
1.4235637
1.4235637
1.4235637
1.4235637
1.4235637
1.4235637
1.4235637
1.4235637
1.4235637
1.4235637
1.4235637
1.4235637
1.4235637
1.4235637
1.4235637
1.4235637
1.4235637
1.4235637
1.4235637
1.4235637
1.4235637
1.4235637
1.4235637
1.4235637
1.4235637
1.4235637
1.4235637
1.4235637
1.4235637
1.4235637
1.4235637
1.4235637
1.4235637
1.4235637
1.4235637
1.4235637
1.4235637
1.4235637
1.4235637
1.4235637
1.4235637
1.4235637
1.4235637
1.4235637
1.4235637
1.4235637
1.4235637
1.4235637
1.4235637
1.4235637
1.4235637
1.4235637
1.4235637
1.4235637
1.4235637
1.4235637
1.4235637
1.4235637
1.4235637
1.4235637
1.4235637
1.4235637
1.4235637
1.4235637
1.4235637
1.4235637
1.4235637
1.4235637
1.4235637
1.4235637
1.4235637
1.4235637
1.4235637
1.4235637
1.4235637
1.4235637
1.4235637
1.4235637
1.4235637
1.4235637
1.4235637
1.4235637
1.4235637
1.4235637
1.4235637
1.4235637
1.4235637
1.4235637
1.4235637
1.4235637
1.4235637
1.4235637
1.4235637
1.4235637
1.4235637
1.4235637
1.4235637
1.4235637
1.4235637
1.4235637
1.4235637
1.4235637
1.4235637
1.4235637
1.4235637
1.4235637
1.4235637
1.4235637
1.4235637
1.4235637
1.4235637
1.4235637
1.4235637
1.4235637
1.4235637
1.4235637
1.4235637
1.4235637
1.4235637
1.4235637
1.4235637
1.4235637
1.4235637
1.4235637
1.4235637
1.4235637
1.4235637
1.4235637
1.4235637
1.4235637
1.4235637
1.4235637
1.4235637
1.4235637
1.4235637
1.4235637
1.4235637
1.4235637
1.4235637
1.4235637
1.4235637
1.4235637
1.4235637
1.4235637
1.4235637
1.4235637
1.4235637
1.4235637
1.4235637
1.4235637
1.4235637
1.4235637
1.4235637
1.4235637
1.4235637
1.4235637
1.4235637
1.4235637
1.4235637
1.4235637
1.4235637
1.4235637
1.4235637
1.4235637
1.4235637
1.4235637
1.4235637
1.4235637
1.4235637
1.4235637
1.4235637
1.4235637
1.4235637
1.4235637
1.4235637
1.4235637
1.4235637
1.4235637
1.4235637
1.4235637
1.4235637
1.4235637
1.4235637
1.4235637
1.4235637
1.4235637
1.4235637
1.4235637
1.4235637
1.4235637
1.4235637
1.4235637
1.4235637
1.4235637
1.4235637
1.4235637
1.4235637
1.4235637
1.4235637
1.4235637
1.4235637
1.4235637
1.4235637
1.4235637
1.4235637
1.4235637
1.4235637
1.4235637
1.4235637
1.4235637
1.4235637
1.4235637
1.4235637
1.4235637
1.4235637
1.4235637
1.4235637
1.4235637
1.4235637
1.4235637
1.4235637
1.4235637
1.4235637
1.4235637
1.4235637
1.4235637
1.4235637
1.4235637
1.4235637
1.4235637
1.4235637
1.4235637
1.4235637
1.4235637
1.4235637
1.4235637
1.4235637
1.4235637
1.4235637
1.4235637
1.4235637
1.4235637
1.4235637
1.4235637
1.4235637
1.4235637
1.4235637
1.4235637
1.4235637
1.4235637
1.4235637
1.4235637
1.4235637
1.4235637
1.4235637
1.4235637
1.4235637
1.4235637
1.4235637
1.4235637
1.4235637
1.4235637
1.4235637
1.4235637
1.4235637
1.4235637
1.4235637
1.4235637
1.4235637
1.4235637
1.4235637
1.4235637
1.4235637
1.4235637
1.4235637
1.4235637
1.4235637
1.4235637
1.4235637
1.4235637
1.4235637
1.4235637
1.4235637
1.4235637
1.4235637
1.4235637
1.4235637
1.4235637
1.4235637
1.4235637
1.4235637
1.4235637
1.4235637
1.4235637
1.4235637
1.4235637
1.4235637
1.4235637
1.4235637
1.4235637
1.4235637
1.4235637
1.4235637
1.4235637
1.4235637
1.4235637
1.4235637
1.4235637
1.4235637
1.4235637
1.4235637
1.4235637
1.4235637
1.4235637
1.4235637
1.4235637
1.4235637
1.4235637
1.4235637
1.4235637
1.4235637
1.4235637
1.4235637
1.4235637
1.4235637
1.4235637
1.4235637
1.4235637
1.4235637
1.4235637
1.4235637
1.4235637
1.4235637
1.4235637
1.4235637
1.4235637
1.4235637
1.4235637
1.4235637
1.4235637
1.4235637
1.4235637
1.4235637
1.4235637
1.4235637
1.4235637
1.4235637
1.4235637
1.4235637
1.4235637
1.4235637
1.4235637
1.4235637
1.4235637
1.4235637
1.4235637
1.4235637
1.4235637
1.4235637
1.4235637
1.4235637
1.4235637
1.4235637
1.4235637
1.4235637
1.4235637
1.4235637
1.4235637
1.4235637
1.4235637
1.4235637
1.4235637
1.4235637
1.4235637
1.4235637
1.4235637
1.4235637
1.4235637
1.4235637
1.4235637
1.4235637
1.4235637
1.4235637
1.4235637
1.4235637
1.4235637
1.4235637
1.4235637
1.4235637
1.4235637
1.4235637
1.4235637
1.4235637
1.4235637
1.4235637
1.4235637
1.4235637
1.4235637
1.4235637
1.4235637
1.4235637
1.4235637
1.4235637
1.4235637
1.4235637
1.4235637
1.4235637
1.4235637
1.4235637
1.4235637
1.4235637
1.4235637
1.4235637
1.4235637
1.4235637
1.4235637
1.4235637
1.4235637
1.4235637
1.4235637
1.4235637
1.4235637
1.4235637
1.4235637
1.4235637
1.4235637
1.4235637
1.4235637
1.4235637
1.4235637
1.4235637
1.4235637
1.4235637
1.4235637
1.4235637
1.4235637
1.4235637
1.4235637
1.4235637
1.4235637
1.4235637
1.4235637
1.4235637
1.4235637
1.4235637
1.4235637
1.4235637
1.4235637
1.4235637
1.4235637
1.4235637
1.4235637
1.4235637
1.4235637
1.4235637
1.4235637
1.4235637
1.4235637
1.4235637
1.4235637
1.4235637
1.4235637
1.4235637
1.4235637
1.4235637
1.4235637
1.4235637
1.4235637
1.4235637
1.4235637
1.4235637
1.4235637
1.4235637
1.4235637
1.4235637
1.4235637
1.4235637
1.4235637
1.4235637
1.4235637
1.4235637
1.4235637
1.4235637
1.4235637
1.4235637
1.4235637
1.4235637
1.4235637
1.4235637
1.4235637
1.4235637
1.4235637
1.4235637
1.4235637
1.4235637
1.4235637
1.4235637
1.4235637
1.4235637
1.4235637
1.4235637
1.4235637
1.4235637
1.4235637
1.4235637
1.4235637
1.4235637
1.4235637
1.4235637
1.4235637
1.4235637
1.4235637
1.4235637
1.4235637
1.4235637
1.4235637
1.4235637
1.4235637
1.4235637
1.4235637
1.4235637
1.4235637
1.4235637
1.4235637
1.4235637
1.4235637
1.4235637
1.4235637
1.4235637
1.4235637
1.4235637
1.4235637
1.4235637
1.4235637
1.4235637
1.4235637
1.4235637
1.4235637
1.4235637
1.4235637
1.4235637
1.4235637
1.4235637
1.4235637
1.4235637
1.4235637
1.4235637
1.4235637
1.4235637
1.4235637
1.4235637
1.4235637
1.4235637
1.4235637
1.4235637
1.4235637
1.4235637
1.4235637
1.4235637
1.4235637
1.4235637
1.4235637
1.4235637
1.4235637
1.4235637
1.4235637
1.4235637
1.4235637
1.4235637
1.4235637
1.4235637
1.4235637
1.4235637
1.4235637
1.4235637
1.4235637
1.4235637
1.4235637
1.4235637
1.4235637
1.4235637
1.4235637
1.4235637
1.4235637
1.4235637
1.4235637
1.4235637
1.4235637
1.4235637
1.4235637
1.4235637
1.4235637
1.4235637
1.4235637
1.4235637
1.4235637
1.4235637
1.4235637
1.4235637
1.4235637
1.4235637
1.4235637
1.4235637
1.4235637
1.4235637
1.4235637
1.4235637
1.4235637
1.4235637
1.4235637
1.4235637
1.4235637
1.4235637
1.4235637
1.4235637
1.4235637
1.4235637
1.4235637
1.4235637
1.4235637
1.4235637
1.4235637
1.4235637
1.4235637
1.4235637
1.4235637
1.4235637
1.4235636
1.4235636
1.4235636
1.4235636
1.4235636
1.4235636
1.4235636
1.4235636
1.4235636
1.4235636
1.4235636
1.4235636
1.4235635
1.4235635
1.4235635
1.4235635
1.4235634
1.4235634
1.4235633
1.4235633
1.4235632
1.4235632
1.4235631
1.423563
1.4235629
1.4235627
1.4235626
1.4235624
1.4235622
1.423562
1.4235617
1.4235614
1.423561
1.4235606
1.4235602
1.4235596
1.423559
1.4235583
1.4235575
1.4235566
1.4235556
1.4235544
1.423553
1.4235515
1.4235497
1.4235477
1.4235455
1.4235429
1.42354
1.4235368
1.4235331
1.4235289
1.4235242
1.423519
1.423513
1.4235063
1.4234988
1.4234904
1.423481
1.4234705
1.4234588
1.4234457
1.423431
1.4234148
1.4233967
1.4233765
1.4233542
1.4233295
1.4233021
1.4232718
1.4232384
1.4232015
1.4231609
1.4231162
1.4230671
1.4230132
1.422954
1.4228893
1.4228185
1.4227412
1.4226569
1.422565
1.4224651
1.4223564
1.4222386
1.4221108
1.4219726
1.4218231
1.4216617
1.4214878
1.4213005
1.421099
1.4208827
1.4206508
1.4204023
1.4201366
1.4198527
1.4195499
1.4192274
1.4188842
1.4185196
1.4181328
1.4177228
1.4172891
1.4168307
1.416347
1.4158371
1.4153005
1.4147364
1.4141442
1.4135235
1.4128736
1.412194
1.4114844
1.4107445
1.4099738
1.4091723
1.4083397
1.407476
1.4065811
1.4056552
1.4046984
1.4037109
1.4026931
1.4016454
1.4005683
1.3994623
1.3983283
1.3971668
1.3959789
1.3947653
1.3935273
1.3922659
1.3909822
1.3896777
1.3883537
1.3870116
1.3856531
1.3842796
1.3828929
1.3814947
1.3800868
1.3786711
1.3772496
1.3758242
1.3743968
1.3729696
1.3715447
1.3701242
1.3687101
1.3673046
1.3659098
1.3645279
1.3631609
1.361811
1.3604802
1.3591704
1.3578837
1.3566218
1.3553867
1.3541801
1.3530035
1.3518586
1.3507467
1.3496691
1.3486271
1.3476216
1.3466537
1.3457239
1.344833
1.3439813
1.3431693
1.3423969
1.3416641
1.3409709
1.3403168
1.3397013
1.3391238
1.3385836
1.3380797
1.3376111
1.3371766
1.3367751
1.3364053
1.3360657
1.3357549
1.3354715
1.3352139
1.3349805
1.3347699
1.3345805
1.3344108
1.3342592
1.3341245
1.3340051
1.3338997
1.333807
1.3337258
1.333655
1.3335934
1.3335401
1.3334942
1.3334548
1.333421
1.3333923
1.3333679
1.3333472
1.3333298
1.3333152
1.333303
1.3332928
1.3332843
1.3332773
1.3332714
1.3332666
1.3332626
1.3332593
1.3332565
1.3332542
1.3332522
1.3332506
1.3332492
1.333248
1.3332469
1.3332459
1.333245
1.3332442
1.3332434
1.3332426
1.3332418
1.3332411
1.3332403
1.3332396
1.3332388
1.333238
1.3332373
1.3332366
1.3332359
1.3332352
1.3332344
1.3332337
1.333233
1.3332323
1.3332316
1.3332309
1.3332301
1.3332294
1.3332288
1.3332282
1.3332276
1.3332268
1.3332261
1.3332255
1.333225
1.3332243
1.3332236
1.3332229
1.3332223
1.3332216
1.3332208
1.3332201
1.3332195
1.3332187
1.3332179
1.333217
1.3332161
1.3332155
1.3332149
1.3332141
1.3332134
1.3332127
1.333212
1.3332113
1.3332105
1.3332096
1.3332086
1.3332078
1.3332071
1.3332064
1.3332055
1.3332046
1.333204
1.3332033
1.3332025
1.3332016
1.333201
1.3332004
1.3331998
1.3331992
1.3331985
1.333198
1.3331975
1.333197
1.3331964
1.3331959
1.3331954
1.3331948
1.3331944
1.333194
1.3331937
1.3331933
1.3331929
1.3331925
1.3331922
1.333192
1.3331919
1.3331919
1.3331922
1.3331925
1.3331927
1.3331929
1.3331931
1.3331936
1.3331941
1.3331944
1.3331945
1.3331946
1.3331947
1.3331949
1.3331949
1.3331949
1.3331948
1.3331944
1.3331936
1.3331928
1.3331921
1.333191
1.3331895
1.3331882
1.3331869
1.3331855
1.3331839
1.3331823
1.3331807
1.3331792
1.333178
1.3331768
1.3331758
1.3331747
1.3331735
1.333172
1.3331704
1.333169
1.3331677
1.3331665
1.3331656
1.3331649
1.3331647
1.3331648
1.3331653
1.3331664
1.3331675
1.333168
1.333168
1.3331675
1.3331655
1.333162
1.3331593
1.333158
1.3331579
1.3331602
1.3331664
1.3331667
1.3331595
1.3331161
1.3329333
1.3322777
1.3301677
1.3238895
1.3097083
1.2953435
1.2839464
1.2759701
1.2709301
1.268012
1.2664511
1.2656779
1.2653261
1.2651837
1.265138
1.2651316
1.265138
1.2651588
1.2651787
1.265193
1.265203
1.26521
1.265215
1.2652191
1.2652233
1.2652285
1.2652347
1.2652418
1.2652496
1.2652577
1.2652655
1.2652725
1.2652785
1.2652837
1.2652881
1.2652917
1.2652945
1.2652967
1.2652984
1.2652997
1.2653008
1.265302
1.2653034
1.2653049
1.2653066
1.2653083
1.2653099
1.2653117
1.2653133
1.2653147
1.265316
1.2653174
1.2653186
1.2653197
1.2653209
1.2653219
1.265323
1.2653244
1.2653258
1.2653275
1.2653294
1.2653315
1.2653335
1.2653356
1.2653379
1.2653403
1.2653427
1.2653452
1.2653477
1.2653499
1.2653519
1.2653538
1.2653558
1.2653576
1.2653594
1.2653612
1.2653628
1.2653642
1.2653656
1.2653669
1.2653679
1.2653688
1.2653698
1.2653708
1.2653717
1.2653725
1.2653733
1.2653741
1.2653749
1.2653757
1.2653765
1.2653772
1.2653778
1.2653783
1.2653789
1.2653795
1.2653801
1.2653807
1.2653813
1.2653818
1.2653824
1.265383
1.2653835
1.265384
1.2653845
1.2653851
1.2653856
1.2653863
1.265387
1.2653876
1.2653881
1.2653887
1.2653892
1.2653898
1.2653905
1.265391
1.2653915
1.2653921
1.2653928
1.2653934
1.2653941
1.2653947
1.2653954
1.265396
1.2653966
1.2653971
1.2653976
1.2653982
1.2653987
1.2653991
1.2653996
1.2654001
1.2654005
1.2654009
1.2654013
1.2654015
1.2654016
1.2654017
1.2654019
1.265402
1.2654019
1.2654018
1.2654016
1.2654014
1.265401
1.2654006
1.2654001
1.2653994
1.2653986
1.2653976
1.2653965
1.265395
1.2653933
1.2653911
1.2653886
1.2653854
1.2653816
1.2653771
1.2653716
1.265365
1.2653572
1.2653478
1.2653367
1.2653236
1.2653081
1.2652899
1.2652686
1.2652438
1.2652148
1.2651813
1.2651425
1.2650977
1.2650463
1.2649874
1.2649201
1.2648434
1.2647564
1.2646579
1.2645468
1.2644217
1.2642813
1.2641241
1.2639488
1.2637537
1.2635371
1.2632975
1.263033
1.2627418
1.2624221
1.2620721
1.2616899
1.2612736
1.2608213
1.2603312
1.2598017
1.2592308
1.2586171
1.257959
1.257255
1.2565041
1.255705
1.254857
1.2539593
1.2530115
1.2520134
1.2509652
1.2498671
1.2487199
1.2475245
1.2462822
1.2449947
1.2436638
1.2422918
1.2408814
1.2394353
1.2379567
1.236449
1.2349158
1.2333611
1.2317889
1.2302033
1.2286086
1.2270092
1.2254095
1.2238139
1.2222267
1.2206522
1.2190945
1.2175575
1.2160451
1.2145606
1.2131074
1.2116886
1.2103067
1.2089643
1.2076634
1.2064059
1.2051931
1.2040263
1.2029063
1.2018337
1.2008088
1.1998316
1.1989018
1.1980191
1.1971827
1.1963919
1.1956456
1.1949426
1.1942818
1.1936616
1.1930807
1.1925376
1.1920306
1.1915582
1.1911187
1.1907105
1.190332
1.1899815
1.1896575
1.1893584
1.1890827
1.188829
1.1885958
1.1883818
1.1881856
1.1880061
1.1878419
1.1876921
1.1875555
1.1874311
1.187318
1.1872153
1.1871221
1.1870376
1.1869612
1.1868921
1.1868298
1.1867735
1.1867229
1.1866773
1.1866363
1.1865995
1.1865666
1.186537
1.1865106
1.186487
1.1864659
1.1864471
1.1864303
1.1864154
1.1864021
1.1863904
1.1863799
1.1863707
1.1863625
1.1863552
1.1863488
1.1863431
1.1863381
1.1863337
1.1863299
1.1863265
1.1863235
1.1863209
1.1863186
1.1863165
1.1863148
1.1863132
1.1863119
1.1863107
1.1863097
1.1863088
1.186308
1.1863073
1.1863068
1.1863063
1.1863058
1.1863054
1.1863051
1.1863048
1.1863046
1.1863044
1.1863042
1.186304
1.1863039
1.1863038
1.1863037
1.1863036
1.1863035
1.1863034
1.1863034
1.1863033
1.1863033
1.1863032
1.1863032
1.1863032
1.1863032
1.1863032
1.1863031
1.1863031
1.1863031
1.1863031
1.1863031
1.1863031
1.1863031
1.1863031
1.1863031
1.1863031
1.1863031
1.1863031
1.1863031
1.1863031
1.1863031
1.1863031
1.1863031
1.1863031
1.1863031
1.1863031
1.1863031
1.1863031
1.1863031
1.1863031
1.1863031
1.1863031
1.1863031
1.1863031
1.1863031
1.1863031
1.1863031
1.1863031
1.1863031
1.1863031
1.1863031
1.1863031
1.1863031
1.1863031
1.1863031
1.1863031
1.1863031
1.1863031
1.1863031
1.1863031
1.1863031
1.1863031
1.1863031
1.1863031
1.1863031
1.1863031
1.1863031
1.1863031
1.1863031
1.1863031
1.1863031
1.1863031
1.1863031
1.1863031
1.1863031
1.1863031
1.1863031
1.1863031
1.1863031
1.1863031
1.1863031
1.1863031
1.1863031
1.1863031
1.1863031
1.1863031
1.1863031
1.1863031
1.1863031
1.1863031
1.1863031
1.1863031
1.1863031
1.1863031
1.1863031
1.1863031
1.1863031
1.1863031
1.1863031
1.1863031
1.1863031
1.1863031
1.1863031
1.1863031
1.1863031
1.1863031