/*--------------------------------*- C++ -*----------------------------------*\
  =========                 |
  \\      /  F ield         | OpenFOAM: The Open Source CFD Toolbox
   \\    /   O peration     | Website:  https://openfoam.org
    \\  /    A nd           | Version:  7
     \\/     M anipulation  |
\*---------------------------------------------------------------------------*/
FoamFile
{
    version     2.0;
    format      ascii;
    class       volScalarField;
    location    "0.00203";
    object      Uy;
}
// * * * * * * * * * * * * * * * * * * * * * * * * * * * * * * * * * * * * * //

dimensions      [0 1 -1 0 0 0 0];

internalField   nonuniform List<scalar> 
5000
(
2.1486494e-20
4.0307806e-20
0
0
-1.6043409e-20
1.2723788e-35
1.0824493e-20
0
0
-1.100484e-20
-2.2065086e-20
1.1036673e-20
1.1048608e-20
-1.1075633e-20
0
-1.1126525e-20
1.5826954e-50
1.1167599e-20
0
1.1209726e-20
-1.1231183e-20
-1.1252894e-20
2.2549717e-20
-1.1297098e-20
-1.1319629e-20
-9.3487777e-35
1.1365541e-20
1.1388928e-20
-2.2825244e-20
1.9827973e-34
-2.0033045e-34
1.1485658e-20
2.3021394e-20
-2.307224e-20
2.0045237e-34
-1.007832e-33
-4.0274157e-34
2.3284203e-20
-2.3339505e-20
-2.3395784e-20
2.3453053e-20
-8.0856026e-34
-2.3570534e-20
1.181535e-20
3.5537718e-20
-1.187696e-20
-1.1908557e-20
-8.1789735e-34
-2.3946912e-20
0
1.2031786e-20
1.7117264e-36
-1.2064723e-20
2.4216097e-20
-4.2506315e-34
-2.4408609e-20
1.2246876e-20
-4.2436985e-34
-1.2330825e-20
0
1.2414736e-20
4.2487549e-34
3.5529761e-36
1.2545119e-20
-1.2590106e-20
4.4173501e-34
1.2682554e-20
-1.2730058e-20
-1.2778441e-20
1.2827717e-20
1.2877922e-20
-1.2929074e-20
-1.2981158e-20
2.6068325e-20
1.3088141e-20
-1.3143118e-20
0
1.3256277e-20
-1.8921419e-36
-1.3374636e-20
1.3436128e-20
-3.8363185e-36
3.853504e-36
1.3619848e-20
1.3685337e-20
4.7883812e-34
-1.3820724e-20
0
-1.3957795e-20
-1.4553258e-33
-4.9294257e-34
1.4173832e-20
1.4248207e-20
-2.8647729e-20
-9.966327e-34
1.4478963e-20
0
0
-1.4721275e-20
-1.0266871e-33
2.9778706e-20
-1.497538e-20
-3.0125473e-20
0
1.5241421e-20
1.5332803e-20
-1.5425548e-20
-1.5519884e-20
0
0
1.5812722e-20
1.5912467e-20
0
-1.6111483e-20
5.6686269e-34
1.632304e-20
-1.6431489e-20
4.7007175e-36
-5.819868e-34
5.4006929e-51
3.3743546e-20
-7.2414484e-36
-1.7100812e-20
0
-1.7335469e-20
1.7454932e-20
1.7575767e-20
-3.5395976e-20
-1.7821609e-20
3.589322e-20
1.8072959e-20
-1.820072e-20
-1.8329881e-20
-1.8460545e-20
0
1.8727053e-20
1.8862425e-20
-1.899865e-20
-6.6349771e-34
1.9270931e-20
-1.9408512e-20
-1.9550852e-20
0
1.9841376e-20
1.9985771e-20
-2.0131271e-20
2.027938e-20
-1.1612753e-35
-2.0580046e-20
2.0731488e-20
-2.0884311e-20
1.4649848e-33
2.1194124e-20
-2.1350835e-20
2.1508755e-20
2.1667983e-20
-2.1828537e-20
0
0
-2.2318426e-20
-2.2484483e-20
2.2651251e-20
2.2818308e-20
-2.2985086e-20
-1.6055816e-33
2.3322596e-20
-2.3497355e-20
-2.3673282e-20
0
2.4022536e-20
2.4198499e-20
0
-2.4557458e-20
-2.4737803e-20
0
2.5101192e-20
5.2604696e-33
-2.5469896e-20
2.5655731e-20
2.5842778e-20
-2.6031135e-20
-1.8109323e-33
1.8166126e-33
1.1341824e-35
2.6796211e-20
-2.6989122e-20
-3.7700897e-33
1.8828797e-33
-1.8963292e-33
2.7770091e-20
0
0
-2.8371688e-20
-2.8572481e-20
0
0
2.9186478e-20
-9.9322554e-51
-2.9599226e-20
0
3.0017121e-20
-3.0227665e-20
-8.4350928e-33
6.1304431e-20
-3.0866336e-20
-6.4531531e-33
-4.4476081e-36
-3.1513503e-20
3.1729981e-20
-4.539898e-36
-4.4520809e-33
2.2413762e-33
-3.2610667e-20
0
3.3058476e-20
2.3033606e-33
9.2997199e-33
3.373603e-20
0
-3.4194459e-20
-3.4424462e-20
0
0
0
3.5357832e-20
2.4633583e-33
-3.5831653e-20
0
0
3.6549095e-20
3.6789167e-20
-3.7029974e-20
-3.7273088e-20
0
3.7767513e-20
3.801532e-20
-3.8262774e-20
-3.8511167e-20
0
3.9015379e-20
-1.0904304e-32
-2.7409172e-33
3.977895e-20
-4.0036112e-20
-4.0294829e-20
0
4.0816015e-20
-5.7091911e-33
4.1342453e-20
5.7708557e-33
-8.3746247e-20
4.2139723e-20
-5.8818352e-33
-1.481636e-32
-2.9724398e-33
-4.322488e-20
4.3500361e-20
4.3776037e-20
0
-4.4331652e-20
-4.4613266e-20
0
4.5180199e-20
4.5465359e-20
-9.1504978e-20
-4.6041618e-20
4.6332433e-20
4.6624812e-20
1.3015089e-32
-4.7214472e-20
4.7511615e-20
-3.3155866e-33
-4.8110301e-20
4.8412371e-20
-3.385396e-33
3.4137242e-33
-1.4021515e-35
-3.4286781e-33
4.9955963e-20
0
0
-5.0904894e-20
-5.1225733e-20
0
0
0
0
5.2860509e-20
3.6662847e-33
-1.0706017e-19
2.2965382e-35
5.4208417e-20
5.45509e-20
-7.6217438e-33
-7.6543355e-33
-7.9004775e-36
-5.5948502e-20
-5.6304409e-20
-5.6662048e-20
1.1404425e-19
1.7215668e-19
-5.7752376e-20
-1.1624374e-19
0
5.8868232e-20
5.9245915e-20
-5.9626768e-20
1.7056032e-35
-2.5748902e-35
1.7276681e-35
6.1179634e-20
6.1575467e-20
-6.1974516e-20
-1.2475394e-19
6.2783025e-20
-1.9809654e-50
6.3605908e-20
1.7741293e-32
-1.2888324e-19
0
0
1.3144614e-19
-3.6741459e-32
-1.3319265e-19
0
6.748513e-20
6.7935754e-20
-6.8390458e-20
9.7840695e-36
-9.6233231e-33
9.916289e-36
7.0251553e-20
-7.0728067e-20
-7.1209383e-20
0
7.2186671e-20
-1.0091239e-32
-7.3183095e-20
1.4737781e-19
-2.0582853e-32
-7.4717279e-20
-2.0892584e-32
-1.5153553e-19
1.5260315e-19
7.6841479e-20
-7.7387609e-20
-1.1075944e-35
-7.8498892e-20
0
0
8.0216508e-20
-1.1207285e-32
-1.6279649e-19
1.1653016e-35
2.4783415e-19
-8.3230172e-20
-8.3857559e-20
1.6898804e-19
-8.5139927e-20
8.579548e-20
1.7292185e-19
-8.7136684e-20
-8.7823262e-20
-8.8521105e-20
8.9230599e-20
-7.0082558e-50
-9.0686392e-20
9.1433806e-20
-9.2195006e-20
9.2970569e-20
2.5982294e-32
2.6877619e-35
9.5389571e-20
-1.9245779e-19
9.7086025e-20
2.7202049e-32
-2.7422557e-32
-9.9772726e-20
-2.0141912e-19
3.0500595e-19
2.8474985e-32
-5.7508557e-32
2.9010903e-32
-2.1149885e-19
2.1367316e-19
-2.9945747e-32
-2.182008e-19
0
0
1.1274168e-19
-1.5815339e-32
-1.1535153e-19
-1.1671651e-19
1.1812406e-19
3.5872848e-19
-1.210749e-19
-1.226225e-19
-3.5305813e-35
-1.2587366e-19
0
2.5869857e-19
2.623558e-19
-1.3307083e-19
-2.7006206e-19
-1.370616e-19
2.7833151e-19
2.8269372e-19
-2.8721686e-19
-2.9190826e-19
0
3.0182658e-19
-1.5353479e-19
-3.1251311e-19
1.5908311e-19
1.6201913e-19
-2.3457788e-35
2.3358361e-32
1.7153404e-19
-1.7495916e-19
-1.7852054e-19
1.8222416e-19
-2.5808379e-32
-2.7012382e-35
-2.6942103e-32
-1.9858486e-19
2.0309316e-19
-8.6545278e-32
-2.952539e-32
-6.0427836e-32
-2.2300138e-19
2.2848559e-19
-3.2514865e-32
-6.6574602e-32
-3.5000052e-35
-5.0541348e-19
-2.5937808e-19
2.6631473e-19
5.4705455e-19
-3.9017812e-32
-5.7765077e-19
-2.969328e-19
6.1071969e-19
3.1411843e-19
-3.2322223e-19
-3.3268511e-19
-9.506225e-32
3.5273835e-19
0
0
3.8584203e-19
0
-4.1010429e-19
4.2293764e-19
6.1996517e-35
-1.2491836e-31
0
-4.7935558e-19
4.9481814e-19
5.1086099e-19
-1.055009e-18
-5.4476859e-19
5.6267288e-19
0
0
-6.2043854e-19
1.7811721e-31
6.6255131e-19
0
0
-7.3159578e-19
3.1511166e-31
7.8183178e-19
0
0
0
0
0
0
0
0
2.1117858e-18
6.060249e-31
-1.1288876e-18
1.1672287e-18
-1.2068443e-18
1.2477687e-18
-3.5858447e-31
-1.333689e-18
-3.828543e-31
-1.4252892e-18
0
0
1.5740105e-18
4.5172006e-31
-1.6811759e-18
0
0
0
0
0
0
0
4.3627887e-18
-1.8753278e-30
-4.6523269e-18
2.4017667e-18
3.5236983e-34
2.5596619e-18
-1.4650407e-30
-5.4536375e-18
-2.8139982e-18
4.3770985e-48
8.9874781e-18
0
-6.3759526e-18
0
0
6.9930309e-18
-1.0000139e-30
-1.1149242e-17
3.8307967e-18
3.9482132e-18
-4.0687229e-18
4.1923852e-18
-4.3192595e-18
-1.2342469e-30
4.5828855e-18
-4.7197585e-18
0
-5.0039289e-18
5.1513497e-18
1.0604821e-17
-5.4571737e-18
-5.6157006e-18
-5.7780538e-18
-5.944296e-18
1.2228981e-17
6.2886992e-18
-6.4669852e-18
0
6.8360403e-18
-7.0269353e-18
-7.2221589e-18
2.2265321e-17
2.1673946e-33
-1.5668848e-17
8.0475829e-18
1.1475656e-30
8.487873e-18
-2.4769876e-33
-1.7894392e-17
9.1841459e-18
0
-2.6859764e-30
-1.4104062e-33
-1.0181896e-17
1.0444105e-17
-2.9743807e-30
-1.5234922e-30
-1.600467e-33
-1.1545711e-17
1.1834576e-17
-1.431253e-47
-3.4512409e-30
-1.8096577e-33
-2.6090946e-17
-1.8533236e-30
1.3684864e-17
0
0
-1.4687408e-17
-6.255283e-30
1.5385233e-17
-1.5743105e-17
2.236297e-30
-7.1885033e-47
-2.3398712e-30
1.7235161e-17
1.7623478e-17
2.4990565e-30
-1.841869e-17
0
0
1.9658357e-17
-2.0084171e-17
1.7079253e-29
2.0954796e-17
-2.1399633e-17
0
2.2308416e-17
2.2772388e-17
-2.324276e-17
-2.3719536e-17
0
2.4692296e-17
2.5188283e-17
-5.1381353e-17
-2.6199469e-17
2.6714648e-17
2.7236201e-17
3.8508256e-30
2.8298381e-17
8.0080122e-30
-5.8771824e-17
0
0
0
3.1636377e-17
3.221454e-17
0
-3.3389305e-17
-4.7089365e-30
3.4588433e-17
0
0
-3.6432117e-17
-5.1399375e-30
5.2222679e-30
-3.8328698e-17
3.8972403e-17
-1.6486374e-29
-4.027675e-17
0
-4.1603328e-17
-5.869434e-30
4.2951606e-17
-4.3633712e-17
4.4321048e-17
4.5013544e-17
-4.5711121e-17
0
4.7121217e-17
4.7833591e-17
-4.8550734e-17
-4.9272555e-17
0
-5.0729925e-17
5.1465332e-17
5.2205098e-17
-5.2949114e-17
-1.0739457e-16
3.0239105e-29
1.6561733e-16
-3.6831948e-47
-5.6729865e-17
-1.1499503e-16
3.2327025e-29
1.1808696e-16
-5.9821603e-17
6.0603043e-17
-6.1387714e-17
-6.21755e-17
1.2593255e-16
0
0
-1.3071087e-16
3.1084558e-46
1.3392262e-16
0
0
-1.3877515e-16
3.1528455e-46
1.4203099e-16
0
0
-1.4694157e-16
-7.4292357e-17
1.5023065e-16
7.593958e-17
0
-1.55183e-16
4.355076e-29
1.5849449e-16
-8.0076293e-17
0
8.1736199e-17
-8.2566818e-17
1.1851532e-32
8.4228876e-17
-8.5060131e-17
8.5891399e-17
8.6722558e-17
-8.7553497e-17
-8.8384111e-17
2.4773038e-29
9.0043993e-17
-9.0873068e-17
-2.5463662e-29
9.2528977e-17
-9.3355609e-17
9.4181225e-17
9.5005727e-17
-9.5829026e-17
-9.665103e-17
2.7065937e-29
9.8290783e-17
-9.9108343e-17
1.4200088e-32
1.0073837e-16
-1.0155065e-16
1.02361e-16
1.0316934e-16
-1.039756e-16
-2.0955934e-16
5.8665751e-29
2.1276178e-16
-1.0717789e-16
1.5343802e-32
2.175287e-16
3.1137012e-32
-1.1034014e-16
0
1.1190468e-16
0
-1.1345746e-16
0
0
0
-1.1652531e-16
3.7051025e-47
1.1803942e-16
0
1.1953959e-16
-3.3400561e-29
-1.210254e-16
0
0
0
-1.2395215e-16
3.4619541e-29
1.2539227e-16
0
1.2681631e-16
3.5392252e-29
-1.2822393e-16
0
1.2961482e-16
-1.3030387e-16
7.2783088e-29
1.3166899e-16
-1.3234499e-16
0
-1.3368365e-16
-3.7305288e-29
1.3500439e-16
0
1.3630691e-16
-1.3695123e-16
-7.6412518e-29
1.3822595e-16
-7.7095533e-29
-1.9821575e-32
3.8923669e-29
-1.9997355e-32
-1.4133016e-16
0
1.4253835e-16
-3.9725453e-29
-3.9889741e-29
-2.9048095e-47
-4.0234826e-29
0
-2.9209181e-16
-4.0711592e-29
1.4717569e-16
-1.477331e-16
4.1154872e-29
1.4883301e-16
1.4937548e-16
4.1627838e-29
-4.1775681e-29
1.5097275e-16
-1.5149511e-16
-1.5201243e-16
0
-1.530319e-16
4.2633352e-29
1.5403118e-16
0
0
0
-3.1193785e-16
1.7376187e-28
3.1381482e-16
0
0
0
0
0
0
0
-3.2091726e-16
8.9391938e-29
3.2259165e-16
1.6170686e-16
-1.6211288e-16
-1.6251388e-16
4.5259974e-29
9.0597921e-29
1.6368666e-16
-1.6406756e-16
1.6444349e-16
1.6481443e-16
-1.6518038e-16
-1.6554131e-16
9.2085587e-29
1.6624828e-16
1.6659437e-16
-4.6307228e-29
-1.6727173e-16
-1.6760297e-16
1.6792929e-16
1.6825073e-16
-1.6856729e-16
1.6887898e-16
0
-1.6948764e-16
-1.6978464e-16
4.7178608e-29
1.7036419e-16
-1.7064676e-16
1.7092452e-16
1.7119744e-16
-1.7146552e-16
1.7172882e-16
4.7757468e-29
-1.7224116e-16
-1.7249021e-16
-2.4547051e-32
3.4594819e-16
9.6168748e-29
-1.734391e-16
-1.7366452e-16
0
1.7410136e-16
0
0
0
1.7491915e-16
1.7511202e-16
-1.7530032e-16
-1.7548401e-16
0
1.7583757e-16
-4.8898787e-29
-1.7617287e-16
0
0
1.7664185e-16
-9.8131377e-29
-1.7693183e-16
0
0
1.7733329e-16
-9.8502753e-29
-1.7757851e-16
0
1.77806e-16
-4.9402941e-29
4.940617e-29
-4.9458761e-29
-1.7820803e-16
0
-1.7838264e-16
9.9035406e-29
1.7853989e-16
0
1.7867968e-16
-1.7874303e-16
-1.7880207e-16
3.5771364e-16
4.9729839e-29
-3.5790689e-16
4.9703434e-29
1.7903284e-16
0
0
1.7911984e-16
-4.971826e-29
-1.7915666e-16
0
1.791764e-16
-1.7917976e-16
-1.7917873e-16
1.7917348e-16
0
-1.7915036e-16
1.791325e-16
9.9419903e-29
-9.9405327e-29
1.7905374e-16
-1.4907926e-28
1.7898033e-16
-1.7893737e-16
4.9648843e-29
-9.9320055e-29
-3.5756712e-16
4.9577297e-29
1.7866026e-16
0
0
0
-3.5672805e-16
-1.7827965e-16
3.5638227e-16
1.7809851e-16
0
0
1.7779604e-16
4.0004021e-48
-1.7757384e-16
0
-3.5467049e-16
-1.7720982e-16
3.5416063e-16
1.7694672e-16
0
-3.5333455e-16
-5.0170406e-32
5.2911448e-16
-4.8882008e-29
-3.5211888e-16
1.7589731e-16
9.9891572e-32
-1.7556083e-16
4.8726261e-29
9.7204e-29
1.7502562e-16
0
1.7464854e-16
-9.6859961e-29
-3.4851039e-16
1.7405244e-16
-2.8944321e-28
-1.736348e-16
3.4683981e-16
-2.4613337e-32
-1.7297795e-16
0
0
0
-1.7204551e-16
1.718023e-16
3.4311007e-16
-1.7130373e-16
-4.7496733e-29
-4.7376169e-29
-1.7052561e-16
0
1.6998671e-16
-2.4117411e-32
-3.3886329e-16
1.6914807e-16
9.3682405e-29
-1.6856887e-16
-1.6827323e-16
9.3333573e-29
3.3533973e-16
0
1.6705043e-16
1.6673469e-16
0
-1.6609118e-16
-1.657634e-16
1.6543162e-16
0
-1.6475605e-16
0
0
1.6371272e-16
-1.360365e-28
-1.6299721e-16
0
0
1.6189409e-16
1.6151843e-16
-1.6113881e-16
-1.6075523e-16
1.6036769e-16
1.5997619e-16
-3.191615e-16
-1.5918136e-16
4.4112068e-29
1.5837079e-16
-8.763469e-29
-8.740439e-29
1.5712548e-16
-1.5670257e-16
1.5627576e-16
-1.5584506e-16
-1.3251092e-31
1.5497197e-16
-3.0905922e-16
-1.540834e-16
-1.5363336e-16
3.0635895e-16
3.054435e-16
-1.5226019e-16
1.5179481e-16
-1.5132563e-16
8.377756e-29
3.0075181e-16
-1.498954e-16
4.1467264e-29
-4.1374146e-29
-1.4843134e-16
0
0
1.4693378e-16
1.4642722e-16
0
-1.4540312e-16
-1.448856e-16
0
-1.4383972e-16
3.9794727e-29
1.4277953e-16
-1.4224409e-16
3.9308416e-29
1.4116262e-16
0
1.4006717e-16
7.7460842e-29
-1.3895792e-16
1.3839817e-16
-3.8215276e-29
-1.3726847e-16
-1.3669859e-16
-3.7779968e-29
1.355489e-16
0
-1.3438612e-16
1.3379987e-16
-3.7860679e-32
7.3650647e-29
1.3202203e-16
-1.3142315e-16
0
-2.6043227e-16
2.877693e-28
1.28997e-16
7.1262298e-29
2.5553196e-16
-2.5429219e-16
-2.5304664e-16
2.5179542e-16
2.5053859e-16
1.2463811e-16
0
-1.2336755e-16
-2.4545647e-16
1.7349505e-32
-1.2144175e-16
1.2079467e-16
1.2014507e-16
-1.1949299e-16
2.3767693e-16
-2.3636305e-16
-1.9573471e-28
2.3372127e-16
-2.3239354e-16
6.4128302e-29
-1.1486238e-16
1.1419194e-16
1.1351939e-16
-1.1284479e-16
-3.1114996e-29
-2.2297929e-16
2.2161834e-16
2.2025365e-16
-2.1888531e-16
-3.0184121e-29
-1.0806906e-16
5.963444e-29
1.0668882e-16
2.9418004e-29
1.3194661e-46
1.0460677e-16
2.0781971e-16
-1.0321159e-16
-2.9944673e-46
-1.0181122e-16
-1.6842735e-28
1.0040606e-16
-1.9940363e-16
5.4950605e-29
1.965806e-16
3.3669995e-47
-9.6875131e-17
0
0
-9.4746585e-17
9.4035743e-17
1.8664867e-16
0
0
0
-9.0474322e-17
-8.9761039e-17
0
8.8333944e-17
-8.7620253e-17
-1.4474392e-28
1.7238584e-16
0
0
0
-8.3340288e-17
-8.26279e-17
8.1915948e-17
-8.1204508e-17
-4.4702971e-29
1.5956688e-16
0
0
-1.5531451e-16
2.1870567e-32
7.6244141e-17
-7.5539101e-17
7.4835164e-17
-7.4132386e-17
4.078056e-29
1.454611e-16
0
0
-7.0638066e-17
-6.9943584e-17
0
0
6.7870071e-17
6.7182412e-17
0
-6.581274e-17
-6.5130861e-17
6.445104e-17
-6.3773337e-17
-6.309781e-17
6.2424517e-17
6.1753517e-17
-3.3924109e-29
-6.0418657e-17
5.9754923e-17
1.6400755e-29
-5.8435128e-17
0
-5.7125927e-17
3.1356193e-29
5.5827811e-17
-5.5183055e-17
3.0282279e-29
5.3902393e-17
0
-5.2633878e-17
1.4440566e-29
7.3012502e-33
-5.0754891e-17
5.0135099e-17
4.9518652e-17
0
-9.6591971e-17
5.2970118e-29
4.7087312e-17
6.6063899e-33
9.1785975e-17
-9.0602613e-17
-8.9426671e-17
8.8258238e-17
4.3548704e-17
0
-8.4798876e-17
6.9645691e-29
8.2531646e-17
0
-8.0296273e-17
-2.1989688e-29
3.9046678e-17
1.0691272e-29
7.5923413e-17
-7.4850945e-17
-9.2148752e-29
7.273131e-17
-7.1684264e-17
1.9601873e-29
6.9615954e-17
3.4297386e-17
-6.7582302e-17
-3.3289299e-17
6.5583701e-17
-6.4597646e-17
-7.9452408e-29
6.2652178e-17
-6.1692832e-17
8.4334857e-30
-2.990054e-17
3.2659883e-29
8.6918098e-17
-1.5828306e-29
-5.6125949e-17
2.7614937e-17
5.4342918e-17
-2.6732541e-17
1.4601227e-29
-2.5868389e-17
-2.8260248e-29
2.5022531e-17
-4.9212947e-17
2.0148526e-29
-2.6411761e-29
1.2974208e-29
2.2987939e-17
0
2.2206064e-17
2.1821962e-17
0
0
0
0
0
-1.9612394e-17
-1.9259887e-17
0
1.8568246e-17
-1.8229077e-17
-2.9808301e-29
3.5127952e-17
0
0
0
-1.6286244e-17
-1.5977608e-17
1.567325e-17
1.5373154e-17
-3.0154596e-17
-2.4634094e-29
2.8996399e-17
0
-2.7871457e-17
-2.2755875e-29
1.3389667e-17
-1.3122732e-17
1.2859823e-17
-1.2600912e-17
-6.8529505e-30
2.4189922e-17
0
0
-1.1365213e-17
-1.1129624e-17
0
-1.0669755e-17
-2.9687635e-33
-1.0224742e-17
1.0007718e-17
2.9382896e-17
0
1.8756292e-17
1.8350703e-17
0
-2.6340463e-17
-1.7175353e-17
1.6797115e-17
-8.2127582e-18
-8.0302469e-18
2.3552976e-17
7.6749584e-18
1.0661138e-33
7.3324071e-18
-7.1658166e-18
-7.0022965e-18
-6.8418044e-18
-7.5100326e-48
-6.5297575e-18
-6.3781352e-18
6.2294e-18
0
1.1880885e-17
1.1600293e-17
0
-5.5277125e-18
-1.0790996e-17
-2.9222307e-30
-5.138909e-18
-1.0028928e-17
9.7850737e-18
9.546179e-18
4.6560816e-18
4.5414737e-18
0
-4.3193224e-18
-1.2635142e-17
4.1063698e-18
5.3037961e-46
-1.1706997e-17
7.6071293e-18
3.7069159e-18
3.6123533e-18
7.039691e-18
-6.85872e-18
-3.3408633e-18
3.2543199e-18
3.1696935e-18
3.0869506e-18
-9.0181835e-18
-2.9269953e-18
8.5491678e-18
2.7742101e-18
-2.7004232e-18
-5.2566568e-18
2.5578965e-18
-2.4891001e-18
4.0323457e-30
-3.9244462e-30
-6.8767024e-18
2.2296811e-18
2.1686121e-18
4.2180029e-18
2.0508242e-18
-3.9881071e-18
-5.5100017e-34
-1.8846107e-18
1.8318791e-18
5.3413237e-18
-5.1908228e-18
-1.6813543e-18
4.9009671e-18
0
-4.6254278e-18
-1.497608e-18
4.3635762e-18
-1.4125405e-18
-2.7432623e-18
-7.3923602e-31
1.4351832e-30
1.2551226e-18
0
2.3647997e-18
2.2949185e-18
-1.1134381e-18
-1.0803157e-18
-2.0961447e-18
1.0166891e-18
9.8614694e-19
-1.9128518e-18
0
1.7987351e-18
1.7439884e-18
-8.4536992e-19
-1.6389546e-18
4.4089482e-31
7.6980783e-19
-1.4919914e-18
7.2284592e-19
-2.3324666e-30
-1.356954e-18
6.5722707e-19
0
1.2330205e-18
0
-1.2836625e-30
-5.5967649e-19
-1.0836181e-18
1.5733717e-18
-1.4427101e-34
-9.8250308e-19
0
9.1992649e-19
4.4500221e-19
-8.6095836e-19
4.6230973e-31
4.0271093e-19
-7.788964e-19
3.7658596e-19
-6.0622276e-31
-7.0401254e-19
3.4026459e-19
-3.2887793e-19
6.3567809e-19
9.2142066e-19
0
-8.6017242e-19
-5.5396638e-19
8.0262248e-19
5.1678129e-19
-2.4952671e-19
-4.8188507e-19
2.3262932e-19
2.2457661e-19
-4.335513e-19
2.0922025e-19
4.0381186e-19
-1.9482802e-19
2.671341e-35
-3.6269713e-19
-3.4985676e-19
5.0613948e-19
-1.6269938e-19
-2.6129224e-31
4.5378738e-19
0
-4.2169699e-19
-2.7094975e-19
1.3055078e-19
1.2579094e-19
1.2119299e-19
0
1.124606e-19
-6.0120163e-32
-2.0859122e-19
5.5724308e-32
9.6669817e-20
0
8.9567613e-20
-1.7239852e-19
-2.4883059e-19
1.5959496e-19
2.3027887e-19
7.3828859e-20
-7.1004036e-20
-1.3656254e-19
6.5653852e-20
-6.3116367e-20
-6.0666272e-20
1.1660496e-19
-1.1204942e-19
-5.3832217e-20
1.5516336e-19
9.9370784e-20
-4.7720766e-20
-1.3747635e-19
9.7690959e-32
-9.378873e-32
-4.0552095e-20
-4.3215111e-32
-3.7361694e-20
3.5852453e-20
3.4398316e-20
3.299902e-20
-3.165426e-20
-3.0362252e-20
8.7359403e-20
-2.7924025e-20
-5.3547878e-20
7.700943e-20
6.9946681e-36
-2.3592131e-20
4.5224593e-20
2.1669119e-20
0
-1.9895109e-20
-1.9066156e-20
-3.6544127e-20
1.750821e-20
-5.5859774e-32
-4.8193109e-20
1.5385323e-20
1.4737609e-20
1.4121183e-20
-1.3531818e-20
-1.2965179e-20
3.7258889e-20
-1.1895056e-20
-2.278469e-20
-1.8176747e-32
-1.0459595e-20
2.0054367e-20
2.8837338e-20
5.1130344e-33
-4.9017675e-33
-1.2027721e-36
-8.1142505e-21
-1.5567099e-20
-7.4699118e-21
2.1510407e-20
-7.6402973e-33
-1.3210873e-20
0
0
5.852194e-21
-3.1241318e-33
3.0045002e-33
5.207915e-21
-1.0018417e-20
-4.819737e-21
-5.1520398e-33
4.476009e-21
1.2955601e-20
4.1669398e-21
0
0
0
-1.0850669e-20
-7.0001789e-21
1.0169279e-20
-3.6463529e-33
-6.3632311e-21
0
0
5.7989056e-21
-6.2468213e-33
-3.032686e-33
5.314075e-21
-2.5866686e-21
-5.0400014e-21
-4.9109369e-21
2.3916738e-21
6.9698742e-21
2.2578677e-21
0
0
0
-6.2104174e-21
-4.0403943e-21
5.8477321e-21
-4.2139494e-33
-1.8795228e-21
2.6319779e-37
-1.8177009e-21
3.5652261e-21
-1.8982127e-33
-1.6040842e-21
3.2040756e-21
0
-8.3016147e-34
-2.816e-21
-2.9133013e-21
4.487706e-21
3.0013685e-21
-1.4418594e-21
-7.6702871e-34
1.3651568e-21
-4.1003233e-21
-2.7237376e-21
1.3343255e-21
1.2843271e-21
-1.2472643e-21
-1.2373606e-21
1.2336281e-21
1.226364e-21
-6.7017549e-34
6.5164034e-34
1.1338356e-21
0
1.0975919e-21
-2.1901666e-21
-3.2565913e-21
2.1319868e-21
2.086122e-21
1.0144085e-21
-1.096046e-33
-1.9460823e-21
9.6603986e-22
-9.5627526e-22
-9.4144037e-22
1.8457331e-21
-1.8006513e-21
-8.788306e-22
8.638929e-22
1.7106741e-21
8.4563772e-22
-1.6644343e-21
4.5296911e-34
-7.9779439e-22
-7.812778e-22
2.3140068e-21
-7.653357e-22
-7.5687086e-22
2.2250139e-21
-1.0298295e-37
-2.1259066e-21
-6.9608965e-22
2.0713221e-21
-6.8748978e-22
-5.5521369e-50
-1.1192686e-33
-1.3206981e-21
1.2983501e-21
1.2801814e-21
-6.3164018e-22
6.9152884e-34
1.2310138e-21
-6.1062618e-22
-1.8232539e-21
-6.0357474e-22
5.9617001e-22
0
5.7613281e-22
1.1386973e-21
-8.0585355e-38
-1.7043426e-21
-5.673408e-22
1.1251904e-21
-7.8930902e-38
-1.0969591e-21
1.0889949e-21
-9.0583616e-34
-1.0878483e-21
1.6246329e-21
1.0714158e-21
0
0
-5.2657631e-22
-1.5906296e-21
-5.3195003e-22
1.5854308e-21
-5.7812076e-34
-1.0273149e-21
1.0209413e-21
1.0241265e-21
-5.1731262e-22
-1.0441791e-21
5.2209993e-22
5.1611593e-22
-1.525934e-21
-5.037149e-22
-8.3650051e-34
2.7972875e-34
5.078611e-22
-5.1067139e-22
1.0218581e-21
1.5256574e-21
0
-1.5087456e-21
-1.0020586e-21
1.4980879e-21
-1.4151069e-37
-4.9710922e-22
9.9493814e-22
-4.9843884e-22
-4.9766626e-22
-5.4868762e-34
4.9008194e-22
9.7366517e-22
-4.8575692e-22
-9.7420175e-22
-9.7881572e-22
5.4308205e-34
4.8462177e-22
-4.7899539e-22
9.4981342e-22
1.4207574e-21
0
-1.4317681e-21
-9.5480317e-22
1.4219217e-21
-5.2062083e-34
-4.6467178e-22
4.6244839e-22
4.6202185e-22
-2.5673974e-34
-9.2656804e-22
2.5626877e-34
9.1489945e-22
-5.0239156e-34
-4.9834573e-34
-8.9425242e-22
-1.3416877e-21
8.9699326e-22
-4.9890316e-34
-1.4913557e-33
4.4382126e-22
4.3938386e-22
8.7272619e-22
-1.3034178e-21
-4.3306027e-22
8.6427069e-22
-8.6386139e-22
-2.4584688e-37
1.2998147e-21
4.3172828e-22
-4.2675695e-22
-1.262726e-21
1.388689e-33
8.3260356e-22
4.1883389e-22
-8.451206e-22
-1.2735941e-21
1.269318e-21
4.1897863e-22
4.6045704e-34
4.1263722e-22
-8.2360259e-22
2.2863434e-34
-4.1275266e-22
4.1412765e-22
-1.3843026e-33
-1.245758e-21
1.2370395e-21
1.2252725e-21
0
0
0
-4.1277147e-22
-1.2428415e-21
-4.1146765e-22
-4.5116277e-34
-4.0274163e-22
1.2088357e-21
4.0675381e-22
-4.1209819e-22
-4.154989e-22
-4.1419454e-22
8.1792622e-22
-4.0445252e-22
4.029292e-22
-1.3467939e-33
-8.1682686e-22
1.238085e-21
8.2955183e-22
0
-8.2373044e-22
-4.5580648e-34
4.1035111e-22
-1.2317451e-21
-4.1107519e-22
4.1206336e-22
0
0
4.1580225e-22
8.2807146e-22
-9.1416494e-34
-8.2091962e-22
-4.111775e-22
4.1390602e-22
-4.1754232e-22
4.1939319e-22
1.5501386e-50
-6.9275346e-34
1.2447067e-21
0
0
-8.3887366e-22
-8.3683474e-22
-4.1670199e-22
4.61764e-34
1.252702e-21
-4.6834949e-34
-8.5242941e-22
0
8.4448061e-22
4.1745383e-22
-8.3145943e-22
4.1783783e-22
4.2378845e-22
-1.2910366e-21
4.3368602e-22
-1.4397344e-33
-8.5854794e-22
1.2840702e-21
8.5710714e-22
0
0
0
-1.3146832e-21
-8.8559408e-22
1.3326148e-21
8.8212843e-22
0
-8.7033891e-22
4.8592265e-34
4.4550366e-22
-9.1037895e-22
4.5982754e-22
-4.568045e-22
-4.5001918e-22
1.3341354e-21
-8.9241974e-22
-9.1111168e-22
4.681524e-22
-4.7808928e-22
9.6016415e-22
1.4213922e-21
0
-1.3938614e-21
-9.3647842e-22
4.7918838e-22
4.9166719e-22
-5.5612833e-34
5.0295643e-22
-1.6600002e-33
-4.9399659e-22
-2.7342743e-34
2.0798245e-51
5.0535633e-22
0
5.2644562e-22
-1.0586191e-21
-1.578537e-21
1.5700937e-21
1.5683337e-21
0
-1.0700592e-21
-1.092423e-21
1.1084309e-21
-5.5598935e-22
-5.5363012e-22
1.6564253e-21
-1.1051672e-21
-1.1133396e-21
5.6587985e-22
1.1523214e-21
5.8186903e-22
-1.7431862e-21
-5.7881493e-22
-9.6218688e-34
1.1586002e-21
3.3274491e-37
-1.7831589e-21
1.2018646e-21
1.8067631e-21
6.0022516e-22
-1.7941717e-21
-1.1948916e-21
1.8011147e-21
-1.3491779e-33
-1.228508e-21
-6.165931e-22
3.4112689e-34
1.2238613e-21
-6.7716101e-34
6.1022643e-22
6.1494482e-22
-1.8596083e-21
-6.2133726e-22
-6.8705566e-34
1.230566e-21
-2.0394389e-33
-1.8346766e-21
1.22881e-21
-6.8427413e-34
-6.8203896e-34
-1.3539771e-33
-6.0444418e-22
1.801873e-21
-6.0074499e-22
-1.0049164e-33
-2.0089671e-33
-1.7912695e-21
5.8919847e-22
1.1626801e-21
-6.3913699e-34
5.747207e-22
5.762567e-22
-1.1507698e-21
-1.139258e-21
6.2240215e-34
1.6549943e-21
-6.0365628e-34
-5.3845109e-22
1.0712172e-21
-5.3309663e-22
-5.2806456e-22
2.883956e-34
-2.8316313e-34
5.0043429e-22
-9.8349396e-22
4.8507134e-22
-1.5995103e-33
-1.5809606e-33
1.3997832e-21
-9.1115137e-22
1.2616408e-37
8.6749565e-22
-4.2605644e-22
-1.2614616e-21
-4.136779e-22
1.2111434e-21
-4.3427877e-34
-3.7856779e-22
7.3710697e-22
-7.2306108e-22
-1.7777465e-33
3.4769559e-22
-3.3588419e-22
3.2219894e-22
-6.1897487e-22
2.9992275e-22
8.7930418e-22
0
0
-5.3176106e-22
-7.1886356e-38
4.832833e-22
-2.3290662e-22
-6.7754396e-22
-2.1784564e-22
6.220885e-22
5.5473676e-38
2.042503e-34
3.5146105e-22
-5.0895706e-22
-8.1733518e-34
1.5485669e-22
-1.4263867e-22
-1.3013867e-22
1.3416424e-34
1.1529814e-22
-2.2353622e-22
2.1454215e-22
-3.3074279e-34
-1.7542816e-22
2.2903398e-22
1.3754681e-22
-6.5217665e-23
-1.9018932e-22
-6.0420245e-23
5.411038e-23
0
-3.5226617e-23
2.9628781e-23
8.3217569e-23
1.5150946e-35
-5.1494509e-23
2.138776e-23
1.4726503e-23
-1.8178864e-23
6.7717718e-24
-6.9574795e-24
-1.4866469e-23
1.7498989e-23
-5.0197675e-36
-6.3574972e-36
-7.8476184e-24
2.5603518e-24
-2.6737475e-24
-5.1903702e-24
-4.2445952e-36
-1.1384839e-24
9.5873041e-24
-5.8422244e-24
1.1349892e-23
0
-1.7149245e-23
9.9621247e-36
4.1014405e-39
-3.4383667e-23
-1.3910969e-23
6.5358154e-23
-3.165992e-23
3.4253794e-50
1.3378182e-22
-4.4951608e-23
-1.308969e-22
-4.5455019e-23
1.0480748e-22
-6.2536732e-23
7.2795931e-23
-2.6924321e-34
-1.7050025e-22
2.5956938e-22
9.8157292e-35
-4.1751539e-34
2.0667562e-22
-2.2856207e-22
-1.380666e-34
1.3142054e-22
-2.6953915e-22
-1.3704364e-22
0
0
3.2328887e-22
-3.8285715e-34
-1.0273835e-37
-2.0579778e-34
-1.8802867e-22
-1.9241798e-22
2.0024303e-22
2.1045179e-22
-4.4222497e-22
4.5934758e-22
-2.6056145e-34
-4.7507277e-22
4.8319537e-22
8.2786494e-34
-2.861528e-34
2.6764001e-22
-5.5110959e-22
2.7981623e-22
-6.2535909e-34
-5.6917901e-22
0
5.9723995e-22
3.079656e-22
-6.3166929e-22
-3.1982604e-22
3.2031564e-22
-5.3484951e-34
-3.2446731e-22
0
0
6.9163975e-22
7.0147367e-22
0
-7.0083041e-22
-3.5071319e-22
3.5310401e-22
-3.5732995e-22
3.6310461e-22
0
-7.4509772e-22
0
0
3.6847317e-22
-4.0826543e-34
-3.6923972e-22
0
3.7727568e-22
2.1047939e-34
-3.7727076e-22
0
7.4443272e-22
7.4570661e-22
-3.7646883e-22
-4.2339311e-34
3.8364288e-22
-7.5722035e-22
-7.3584004e-22
7.1827082e-22
1.008009e-37
7.9093281e-34
1.0326674e-37
-7.3967914e-22
3.7292676e-22
-4.1289368e-34
3.6715954e-22
-3.6022115e-22
-1.056838e-21
1.0360305e-21
3.4063876e-22
-3.3944543e-22
-3.8000826e-34
-3.4636016e-22
6.9769965e-22
6.9553868e-22
-6.8687862e-22
-1.1247655e-33
-3.3128396e-22
-3.2497252e-22
6.3990512e-22
-3.1761696e-22
3.5401667e-34
-1.7903995e-34
3.2531086e-22
6.4710303e-22
-6.3066079e-22
-6.1003105e-22
0
2.9513462e-22
3.312431e-34
-6.068142e-22
-3.4014547e-34
9.1383688e-22
5.9504028e-22
0
-5.6572634e-22
-6.2293445e-34
-2.8233481e-22
-2.860873e-22
8.6703358e-22
-1.6000748e-34
-5.6574368e-22
2.7541789e-22
5.3958453e-22
-2.6770004e-22
-5.3879675e-22
-2.7324958e-22
0
5.5175148e-22
-2.7097768e-22
-7.9476213e-22
2.6086555e-22
2.5981865e-22
5.2341198e-22
2.6482583e-22
-5.3285988e-22
-2.6507828e-22
-2.6151675e-22
2.868011e-34
2.5690762e-22
2.5730967e-22
5.184707e-22
2.6001841e-22
0
0
0
-5.0649209e-22
-5.1016752e-22
5.1563934e-22
2.8678594e-34
2.8351633e-34
-2.7921324e-34
-5.5310636e-34
4.9866438e-22
0
-5.1266399e-22
-2.5754715e-22
2.5486199e-22
-2.5046137e-22
-2.470988e-22
0
0
5.087144e-22
-8.570704e-34
-5.7025456e-34
5.0599749e-22
-4.9859144e-22
-4.9510524e-22
0
5.0341591e-22
-2.8364992e-34
-5.1560808e-22
5.1400858e-22
2.8185753e-34
-5.0212264e-22
0
5.01359e-22
2.5354035e-22
-5.1356877e-22
2.5874027e-22
5.7449417e-34
-5.144311e-22
5.1189697e-22
5.1111883e-22
0
0
0
-5.222701e-22
-5.2578275e-22
5.2661239e-22
0
-5.217002e-22
0
-2.6185073e-22
5.3036635e-22
2.6903853e-22
-2.7096234e-22
5.4035932e-22
2.6833027e-22
-5.3483697e-22
-2.6889692e-22
-3.0266049e-34
2.7693984e-22
-6.2079098e-34
1.5892855e-37
5.5775072e-22
0
-2.812367e-22
-5.6931342e-22
-2.8742997e-22
0
0
0
-2.9194089e-22
5.9337237e-22
3.0098971e-22
-3.0243698e-22
-3.0067155e-22
2.9900221e-22
3.0006772e-22
-6.0871218e-22
0
6.3343483e-22
6.3792793e-22
0
0
-6.3235655e-22
-3.546703e-34
-3.2507506e-22
-3.2997791e-22
3.3218139e-22
-3.3217354e-22
3.3230496e-22
6.6932773e-22
3.3923941e-22
0
-6.932913e-22
-3.8205928e-34
3.4146607e-22
-3.4169126e-22
-3.4609496e-22
-7.0852101e-22
7.245111e-22
3.6454728e-22
-1.0222095e-37
3.5294127e-22
-6.9912017e-22
3.5255386e-22
-3.6115363e-22
1.3598987e-50
3.7739276e-22
-7.542037e-22
7.4032438e-22
7.2589632e-22
0
-3.6209048e-22
-7.3938724e-22
2.0988768e-34
3.8386303e-22
3.8377247e-22
-7.5543822e-22
-7.4084149e-22
3.6594748e-22
7.3261629e-22
7.4291741e-22
-3.7850775e-22
-7.6716509e-22
3.8380433e-22
-3.7872644e-22
6.1861292e-34
3.6644702e-22
-7.2960562e-22
7.3373614e-22
4.1239853e-34
-2.0835561e-33
7.5229888e-22
-7.4641924e-22
-1.631428e-33
3.6165461e-22
-7.159747e-22
3.5692498e-22
-1.0183471e-37
1.6014493e-33
3.6186924e-22
-7.2058468e-22
7.8983699e-34
-1.942476e-34
3.456107e-22
-9.7492344e-38
-6.8450471e-22
6.861986e-22
1.9548952e-37
-1.520371e-33
6.7524287e-22
-6.6356792e-22
-7.268714e-34
6.5008319e-22
-3.2462195e-22
-3.2532429e-22
-3.2505125e-22
3.2193489e-22
-3.5122429e-34
-6.2268269e-22
0
0
6.152015e-22
8.7558297e-38
-6.1245024e-22
3.016394e-22
-3.2946324e-34
2.9374958e-22
6.4927108e-34
-5.8497985e-22
0
-2.9165248e-22
5.7802699e-22
2.8616792e-22
-6.3143707e-34
2.8339034e-22
-5.6529853e-22
2.8160193e-22
-3.1129612e-34
-5.5944677e-22
0
0
2.7891072e-22
-1.5382693e-34
2.7522171e-22
-2.7429802e-22
-8.2420907e-22
8.2986868e-22
2.7867633e-22
-5.5811572e-22
2.7727836e-22
4.5899894e-34
2.7552549e-22
-1.5754453e-37
-9.3523649e-34
2.8380597e-22
-5.6876614e-22
-2.8300529e-22
0
-2.8270811e-22
2.8568845e-22
2.9049573e-22
2.9399588e-22
-6.5444924e-34
3.2641236e-34
-3.260881e-34
-5.9070567e-22
2.9914342e-22
5.0681818e-34
-6.165034e-22
4.3890643e-38
3.0849478e-22
6.1817794e-22
6.2232772e-22
-6.3095595e-22
-3.5557733e-34
-3.2308151e-22
-3.2371759e-22
6.4746483e-22
-6.4944041e-22