/*--------------------------------*- C++ -*----------------------------------*\
  =========                 |
  \\      /  F ield         | OpenFOAM: The Open Source CFD Toolbox
   \\    /   O peration     | Website:  https://openfoam.org
    \\  /    A nd           | Version:  7
     \\/     M anipulation  |
\*---------------------------------------------------------------------------*/
FoamFile
{
    version     2.0;
    format      ascii;
    class       volScalarField;
    location    "0.00347";
    object      mag(U);
}
// * * * * * * * * * * * * * * * * * * * * * * * * * * * * * * * * * * * * * //

dimensions      [0 1 -1 0 0 0 0];

internalField   nonuniform List<scalar> 
5000
(
89.534184
89.459747
89.417494
89.373155
89.329437
89.285702
89.241984
89.198276
89.154575
89.110881
89.067189
89.023499
88.979808
88.936115
88.892419
88.848718
88.805014
88.761305
88.717594
88.673879
88.630161
88.586441
88.542719
88.498996
88.455273
88.411548
88.367824
88.324099
88.280375
88.236652
88.192929
88.149207
88.105487
88.061767
88.01805
87.974334
87.93062
87.886909
87.843199
87.799492
87.755786
87.712084
87.668384
87.624686
87.580991
87.537299
87.493609
87.449922
87.406238
87.362557
87.318879
87.275203
87.23153
87.18786
87.144193
87.100528
87.056867
87.013209
86.969553
86.9259
86.88225
86.838603
86.794959
86.751318
86.707679
86.664044
86.620411
86.576782
86.533155
86.489531
86.44591
86.402291
86.358676
86.315063
86.271454
86.227847
86.184243
86.140642
86.097043
86.053447
86.009855
85.966265
85.922677
85.879093
85.835511
85.791932
85.748356
85.704783
85.661213
85.617645
85.57408
85.530518
85.486959
85.443403
85.399849
85.356298
85.312751
85.269206
85.225663
85.182124
85.138587
85.095054
85.051523
85.007994
84.964469
84.920946
84.877426
84.833909
84.790395
84.746883
84.703375
84.659869
84.616365
84.572865
84.529367
84.485871
84.442379
84.398889
84.355402
84.311918
84.268436
84.224958
84.181482
84.138008
84.094538
84.05107
84.007604
83.964142
83.920682
83.877225
83.833771
83.790319
83.74687
83.703424
83.659981
83.61654
83.573102
83.529666
83.486234
83.442804
83.399376
83.355951
83.312529
83.26911
83.225693
83.182279
83.138868
83.095459
83.052053
83.00865
82.965249
82.921851
82.878456
82.835063
82.791673
82.748285
82.7049
82.661518
82.618139
82.574762
82.531387
82.488015
82.444646
82.401279
82.357915
82.314554
82.271195
82.227839
82.184485
82.141134
82.097786
82.05444
82.011097
81.967757
81.924419
81.881083
81.837751
81.79442
81.751093
81.707768
81.664446
81.621126
81.577809
81.534494
81.491182
81.447873
81.404566
81.361261
81.31796
81.27466
81.231364
81.18807
81.144778
81.101489
81.058203
81.014919
80.971637
80.928358
80.885082
80.841808
80.798537
80.755268
80.712002
80.668738
80.625477
80.582218
80.538962
80.495708
80.452456
80.409208
80.365961
80.322718
80.279476
80.236237
80.193001
80.149767
80.106536
80.063307
80.02008
79.976857
79.933635
79.890416
79.8472
79.803985
79.760774
79.717565
79.674358
79.631154
79.587952
79.544752
79.501555
79.458361
79.415169
79.371979
79.328792
79.285607
79.242424
79.199244
79.156067
79.112892
79.069719
79.026549
78.983381
78.940215
78.897052
78.853892
78.810734
78.767578
78.724425
78.681274
78.638125
78.594979
78.551835
78.508694
78.465555
78.422418
78.379284
78.336152
78.293023
78.249896
78.206771
78.163649
78.120529
78.077411
78.034296
77.991183
77.948072
77.904964
77.861858
77.818754
77.775653
77.732554
77.689457
77.646363
77.603271
77.560182
77.517094
77.47401
77.430927
77.387847
77.344769
77.301693
77.25862
77.215549
77.17248
77.129414
77.08635
77.043288
77.000229
76.957172
76.914117
76.871064
76.828014
76.784966
76.741921
76.698878
76.655837
76.612798
76.569761
76.526727
76.483695
76.440666
76.397638
76.354613
76.311591
76.26857
76.225552
76.182536
76.139522
76.096511
76.053502
76.010495
75.96749
75.924488
75.881488
75.83849
75.795495
75.752501
75.70951
75.666521
75.623534
75.58055
75.537568
75.494588
75.45161
75.408635
75.365662
75.322691
75.279722
75.236756
75.193791
75.15083
75.10787
75.064913
75.021958
74.979005
74.936054
74.893106
74.85016
74.807216
74.764275
74.721335
74.678398
74.635464
74.592531
74.549601
74.506673
74.463747
74.420824
74.377902
74.334983
74.292066
74.249152
74.206239
74.163329
74.120421
74.077515
74.034612
73.991711
73.948812
73.905915
73.86302
73.820128
73.777238
73.73435
73.691464
73.648581
73.6057
73.562821
73.519944
73.477069
73.434197
73.391327
73.348459
73.305594
73.26273
73.219869
73.17701
73.134154
73.091299
73.048447
73.005597
72.96275
72.919905
72.877061
72.834221
72.791382
72.748546
72.705712
72.66288
72.620051
72.577223
72.534399
72.491576
72.448756
72.405937
72.363122
72.320308
72.277497
72.234688
72.191881
72.149077
72.106275
72.063475
72.020677
71.977882
71.935089
71.892298
71.84951
71.806724
71.76394
71.721159
71.67838
71.635603
71.592829
71.550056
71.507287
71.464519
71.421754
71.378991
71.336231
71.293473
71.250717
71.207964
71.165213
71.122464
71.079718
71.036974
70.994233
70.951493
70.908757
70.866022
70.82329
70.78056
70.737833
70.695108
70.652385
70.609665
70.566947
70.524232
70.481519
70.438808
70.3961
70.353394
70.31069
70.267989
70.22529
70.182594
70.1399
70.097208
70.054519
70.011833
69.969148
69.926467
69.883787
69.84111
69.798436
69.755763
69.713094
69.670427
69.627762
69.585099
69.54244
69.499782
69.457127
69.414475
69.371825
69.329177
69.286532
69.24389
69.201249
69.158612
69.115977
69.073344
69.030713
68.988086
68.94546
68.902837
68.860217
68.817599
68.774983
68.73237
68.68976
68.647152
68.604546
68.561943
68.519342
68.476744
68.434148
68.391555
68.348964
68.306376
68.26379
68.221206
68.178625
68.136046
68.09347
68.050897
68.008325
67.965756
67.92319
67.880626
67.838065
67.795505
67.752949
67.710394
67.667843
67.625293
67.582746
67.540201
67.497659
67.455119
67.412581
67.370046
67.327513
67.284982
67.242454
67.199928
67.157404
67.114883
67.072364
67.029847
66.987333
66.94482
66.90231
66.859803
66.817297
66.774794
66.732293
66.689794
66.647297
66.604803
66.562311
66.519821
66.477333
66.434848
66.392364
66.349883
66.307403
66.264926
66.222451
66.179978
66.137507
66.095038
66.052571
66.010106
65.967643
65.925182
65.882723
65.840266
65.797811
65.755357
65.712906
65.670457
65.628009
65.585563
65.543119
65.500677
65.458237
65.415798
65.373361
65.330926
65.288493
65.246061
65.203631
65.161202
65.118775
65.07635
65.033926
64.991504
64.949083
64.906664
64.864246
64.82183
64.779415
64.737002
64.69459
64.65218
64.60977
64.567363
64.524956
64.482551
64.440147
64.397744
64.355343
64.312942
64.270542
64.228144
64.185747
64.143351
64.100955
64.058561
64.016168
63.973776
63.931384
63.888993
63.846604
63.804214
63.761826
63.719438
63.677051
63.634665
63.592279
63.549894
63.507509
63.465125
63.422741
63.380358
63.337975
63.295592
63.253209
63.210827
63.168445
63.126064
63.083682
63.0413
62.998919
62.956537
62.914156
62.871774
62.829392
62.78701
62.744628
62.702246
62.659863
62.61748
62.575096
62.532712
62.490328
62.447943
62.405558
62.363172
62.320785
62.278398
62.23601
62.193621
62.151232
62.108841
62.06645
62.024057
61.981664
61.939269
61.896873
61.854476
61.812079
61.769679
61.727279
61.684877
61.642474
61.600069
61.557663
61.515255
61.472846
61.430435
61.388023
61.345608
61.303192
61.260775
61.218355
61.175934
61.13351
61.091085
61.048658
61.006228
60.963797
60.921363
60.878927
60.836489
60.794048
60.751605
60.70916
60.666713
60.624262
60.58181
60.539355
60.496897
60.454437
60.411974
60.369509
60.327041
60.28457
60.242096
60.19962
60.15714
60.114658
60.072173
60.029686
59.987195
59.944701
59.902205
59.859705
59.817203
59.774697
59.732189
59.689677
59.647162
59.604645
59.562124
59.5196
59.477073
59.434543
59.39201
59.349474
59.306934
59.264392
59.221846
59.179297
59.136745
59.094191
59.051633
59.009071
58.966507
58.92394
58.88137
58.838796
58.79622
58.753641
58.711058
58.668473
58.625885
58.583293
58.540699
58.498102
58.455502
58.4129
58.370294
58.327686
58.285075
58.242462
58.199845
58.157226
58.114605
58.071981
58.029354
57.986725
57.944093
57.901459
57.858823
57.816185
57.773544
57.7309
57.688255
57.645608
57.602958
57.560306
57.517653
57.474997
57.43234
57.38968
57.347019
57.304356
57.261692
57.219026
57.176358
57.133689
57.091018
57.048346
57.005673
56.962998
56.920322
56.877645
56.834967
56.792288
56.749607
56.706926
56.664244
56.621561
56.578877
56.536193
56.493508
56.450823
56.408136
56.36545
56.322763
56.280075
56.237387
56.194699
56.152011
56.109323
56.066635
56.023947
55.981259
55.938571
55.895883
55.853195
55.810508
55.76782
55.725133
55.682447
55.639762
55.597077
55.554393
55.51171
55.469027
55.426345
55.383663
55.340981
55.298301
55.255621
55.212943
55.170266
55.127591
55.084917
55.042245
54.999573
54.956903
54.914233
54.871564
54.828896
54.786229
54.743564
54.7009
54.658239
54.61558
54.572923
54.530268
54.487615
54.444963
54.402313
54.359663
54.317014
54.274367
54.23172
54.189076
54.146434
54.103795
54.061158
54.018525
53.975894
53.933265
53.890639
53.848015
53.805392
53.76277
53.720149
53.67753
53.634911
53.592294
53.54968
53.507068
53.464458
53.421852
53.37925
53.336651
53.294055
53.251463
53.208873
53.166285
53.123698
53.081113
53.038528
52.995945
52.953362
52.910781
52.868201
52.825623
52.783048
52.740476
52.697908
52.655343
52.612783
52.570226
52.527674
52.485125
52.442579
52.400037
52.357496
52.314958
52.272421
52.229885
52.18735
52.144817
52.102284
52.059752
52.017221
51.974691
51.932161
51.889632
51.847104
51.804578
51.762053
51.719531
51.677011
51.634494
51.59198
51.549469
51.506961
51.464456
51.421955
51.379458
51.336965
51.294475
51.25199
51.209508
51.16703
51.124555
51.082083
51.039615
50.997149
50.954687
50.912228
50.869773
50.827323
50.784877
50.742435
50.699996
50.657561
50.615127
50.572695
50.530265
50.487836
50.445408
50.402983
50.36056
50.318138
50.275719
50.233302
50.190886
50.148472
50.10606
50.06365
50.021243
49.978839
49.936439
49.894041
49.851647
49.809256
49.766869
49.724484
49.682103
49.639726
49.597352
49.554981
49.512614
49.47025
49.427889
49.38553
49.343174
49.300819
49.258466
49.216116
49.17377
49.131428
49.089089
49.046755
49.004423
48.962095
48.919767
48.877441
48.835116
48.792791
48.750467
48.708144
48.665823
48.623504
48.581188
48.538875
48.496565
48.454258
48.411955
48.369655
48.327359
48.285068
48.24278
48.200495
48.158214
48.115936
48.07366
48.031386
47.989115
47.946846
47.904579
47.862315
47.820054
47.777796
47.735541
47.693289
47.651039
47.608792
47.566547
47.524304
47.482063
47.439825
47.397589
47.355356
47.313126
47.270899
47.228676
47.186455
47.144237
47.102021
47.059806
47.017594
46.975383
46.933174
46.890968
46.848764
46.806564
46.764366
46.722172
46.679981
46.637793
46.595609
46.553428
46.51125
46.469076
46.426905
46.384736
46.342569
46.300403
46.258238
46.216074
46.173912
46.131751
46.089593
46.047438
46.005286
45.963138
45.920994
45.878852
45.836713
45.794576
45.75244
45.710305
45.668171
45.626038
45.583907
45.541778
45.499654
45.457535
45.41542
45.373311
45.331205
45.289102
45.247001
45.204899
45.162797
45.120693
45.078591
45.03649
44.994392
44.952298
44.910208
44.868123
44.826042
44.783962
44.741884
44.699805
44.657727
44.61565
44.573575
44.531502
44.489434
44.447369
44.405308
44.363249
44.321192
44.279134
44.237078
44.195021
44.152967
44.110916
44.06887
44.02683
43.984796
43.942768
43.900745
43.858724
43.816704
43.774682
43.732658
43.690632
43.648604
43.606576
43.564549
43.522524
43.480502
43.438482
43.396464
43.354448
43.312434
43.270421
43.22841
43.1864
43.144394
43.102392
43.060396
43.018406
42.976422
42.934444
42.89247
42.8505
42.808532
42.766563
42.724592
42.682617
42.640639
42.598658
42.556676
42.514694
42.472714
42.430737
42.388765
42.346799
42.304839
42.262885
42.220937
42.178992
42.137049
42.095106
42.053164
42.01122
41.969277
41.927334
41.885393
41.843455
41.80152
41.759588
41.71766
41.675736
41.633815
41.591897
41.549981
41.508068
41.466155
41.424244
41.382332
41.34042
41.298508
41.256595
41.214682
41.172769
41.130856
41.088944
41.047033
41.005126
40.963221
40.921321
40.879426
40.837534
40.795647
40.753762
40.71188
40.67
40.628124
40.586251
40.544381
40.502516
40.460655
40.418798
40.376945
40.335095
40.293249
40.251406
40.209564
40.167724
40.125883
40.084039
40.042196
40.000353
39.958512
39.916675
39.874843
39.833017
39.791196
39.749378
39.707561
39.665745
39.623928
39.58211
39.54029
39.498469
39.456648
39.414827
39.373009
39.331196
39.289388
39.247588
39.205795
39.164009
39.122228
39.080449
39.038671
38.996887
38.955101
38.913309
38.871516
38.829723
38.787931
38.746144
38.704363
38.662588
38.62082
38.579057
38.537296
38.495535
38.453769
38.412
38.370227
38.328454
38.286683
38.244917
38.203156
38.161402
38.119654
38.077912
38.036174
37.994437
37.952701
37.910961
37.86922
37.827476
37.785732
37.743988
37.702245
37.660506
37.618771
37.57704
37.535313
37.49359
37.45187
37.41015
37.368431
37.326713
37.284994
37.243274
37.201555
37.159837
37.118119
37.076403
37.034688
36.992977
36.951269
36.909564
36.867863
36.826165
36.784469
36.742774
36.70108
36.659387
36.617693
36.576
36.534308
36.492617
36.450928
36.409242
36.367559
36.32588
36.284203
36.242528
36.200855
36.159185
36.117515
36.075847
36.034181
35.992517
35.950854
35.909195
35.867537
35.825883
35.78423
35.74258
35.700932
35.659285
35.617639
35.575994
35.53435
35.492706
35.451065
35.409424
35.367786
35.326149
35.284515
35.242883
35.201253
35.159625
35.118
35.076376
35.034755
34.993137
34.951521
34.909908
34.868298
34.826691
34.785087
34.743485
34.701885
34.660286
34.618688
34.57709
34.535492
34.493896
34.4523
34.410706
34.369114
34.327524
34.285938
34.244354
34.202774
34.161197
34.119623
34.078051
34.036481
33.994913
33.953347
33.911781
33.870218
33.828655
33.787093
33.745533
33.703974
33.662416
33.62086
33.579306
33.537755
33.496205
33.454659
33.413115
33.371574
33.330035
33.288498
33.246964
33.205432
33.163901
33.122373
33.080846
33.039321
32.997798
32.956276
32.914756
32.873238
32.831722
32.790207
32.748693
32.707182
32.665672
32.624165
32.58266
32.541157
32.499657
32.458159
32.416663
32.375169
32.333678
32.292188
32.250701
32.209215
32.167731
32.126249
32.08477
32.043292
32.001815
31.96034
31.918867
31.877395
31.835924
31.794455
31.752989
31.711524
31.670062
31.628602
31.587144
31.545688
31.504234
31.462781
31.421329
31.379878
31.338428
31.296978
31.255528
31.21408
31.172632
31.131185
31.08974
31.048296
31.006854
30.965414
30.923976
30.882541
30.841108
30.799678
30.75825
30.716824
30.6754
30.633978
30.592557
30.551138
30.50972
30.468305
30.42689
30.385478
30.344066
30.302657
30.261248
30.219841
30.178436
30.137033
30.095632
30.054232
30.012835
29.971439
29.930044
29.888652
29.847261
29.805871
29.764483
29.723097
29.681712
29.640328
29.598947
29.557567
29.516189
29.474813
29.43344
29.392069
29.3507
29.309333
29.267967
29.226604
29.185243
29.143883
29.102525
29.061167
29.019809
28.978452
28.937096
28.895741
28.854388
28.813038
28.77169
28.730346
28.689004
28.647663
28.606325
28.564988
28.523652
28.482319
28.44099
28.399666
28.358346
28.317031
28.275719
28.234408
28.193097
28.151784
28.110471
28.069159
28.02785
27.986545
27.945245
27.90395
27.862658
27.821369
27.780079
27.738789
27.697497
27.656205
27.614914
27.573625
27.532338
27.491054
27.449773
27.408495
27.36722
27.325948
27.28468
27.243415
27.202153
27.160893
27.119633
27.078374
27.03711
26.995845
26.954579
26.913313
26.87205
26.83079
26.789536
26.748288
26.707044
26.665805
26.624569
26.583333
26.542099
26.500865
26.459632
26.418399
26.377166
26.335935
26.294704
26.253474
26.212246
26.171019
26.129795
26.088575
26.047358
26.006146
25.964937
25.923732
25.882529
25.841327
25.800127
25.758927
25.717727
25.676528
25.635327
25.594127
25.552926
25.511727
25.470529
25.429333
25.38814
25.34695
25.305765
25.264584
25.223406
25.182231
25.141058
25.099887
25.058716
25.017545
24.976375
24.935206
24.894037
24.852869
24.811701
24.770535
24.729371
24.688208
24.647047
24.605888
24.564733
24.52358
24.482429
24.441281
24.400135
24.358991
24.317848
24.276707
24.235567
24.194427
24.153287
24.112148
24.071009
24.029872
23.988736
23.947602
23.90647
23.86534
23.824213
23.783087
23.741962
23.700838
23.659716
23.618595
23.577475
23.536356
23.495239
23.454122
23.413006
23.37189
23.330774
23.289659
23.248545
23.207434
23.166324
23.125217
23.084111
23.043007
23.001904
22.960801
22.919698
22.878596
22.837496
22.796398
22.755303
22.71421
22.673119
22.632028
22.590937
22.549846
22.508755
22.467665
22.426577
22.385492
22.34441
22.303331
22.262253
22.221175
22.180096
22.139015
22.097935
22.056855
22.015777
21.974702
21.93363
21.892562
21.851496
21.810431
21.769367
21.728304
21.68724
21.646177
21.605115
21.564055
21.522996
21.481938
21.440881
21.399823
21.358766
21.317711
21.276657
21.235608
21.194562
21.153522
21.112485
21.071451
21.03042
20.989391
20.948363
20.907336
20.86631
20.825285
20.78426
20.743236
20.702211
20.661186
20.620164
20.579143
20.538126
20.497113
20.456104
20.415098
20.374095
20.333094
20.292095
20.251096
20.210099
20.169102
20.128107
20.087113
20.046119
20.005125
19.964132
19.92314
19.88215
19.841162
19.800176
19.759193
19.718212
19.677233
19.636255
19.59528
19.554306
19.513334
19.472364
19.431397
19.390431
19.349468
19.308506
19.267545
19.226585
19.185626
19.14467
19.103715
19.062763
19.021812
18.980863
18.939915
18.898969
18.858023
18.817078
18.776136
18.735196
18.694258
18.653323
18.612388
18.571455
18.530522
18.48959
18.44866
18.407733
18.366807
18.325885
18.284963
18.244043
18.203124
18.162205
18.121287
18.080371
18.039457
17.998547
17.957638
17.916731
17.875825
17.834918
17.794012
17.753108
17.712205
17.671306
17.630409
17.589515
17.548621
17.507728
17.466833
17.42594
17.385048
17.344159
17.303273
17.26239
17.221509
17.180628
17.139745
17.098861
17.057979
17.0171
16.976224
16.935351
16.894481
16.853611
16.81274
16.771867
16.730994
16.690123
16.649255
16.608391
16.567531
16.526672
16.485813
16.44495
16.404085
16.363222
16.322361
16.281505
16.240653
16.199804
16.158956
16.118103
16.077246
16.03639
15.995535
15.954685
15.91384
15.873
15.832162
15.791322
15.750473
15.709623
15.668774
15.627929
15.587091
15.546258
15.505429
15.4646
15.423761
15.382918
15.342075
15.301235
15.260402
15.219575
15.178754
15.137934
15.09711
15.056275
15.015439
14.974603
14.933773
14.892951
14.852138
14.811329
14.770519
14.729693
14.688863
14.648034
14.60721
14.566394
14.525587
14.484785
14.443984
14.403171
14.362351
14.321532
14.280715
14.239905
14.199103
14.158307
14.117513
14.076714
14.035904
13.995094
13.954286
13.913483
13.872689
13.831901
13.791116
13.750328
13.709528
13.668728
13.627929
13.587135
13.546348
13.505567
13.464789
13.424011
13.383225
13.342435
13.301644
13.260856
13.220074
13.179299
13.138532
13.097768
13.057001
13.016221
12.975439
12.934657
12.893879
12.85311
12.812347
12.771589
12.730831
12.690064
12.649298
12.608534
12.567773
12.527016
12.486263
12.44551
12.404751
12.363989
12.323228
12.28247
12.241717
12.200971
12.160229
12.11949
12.07875
12.037999
11.997246
11.956494
11.915745
11.875003
11.834269
11.793539
11.752809
11.712068
11.671322
11.630577
11.589837
11.549104
11.508376
11.467652
11.426925
11.386188
11.345453
11.30472
11.263994
11.223275
11.182561
11.141848
11.101128
11.0604
11.019672
10.978943
10.938218
10.897499
10.856787
10.816079
10.775371
10.734652
10.693923
10.653194
10.612468
10.571749
10.531038
10.490332
10.449627
10.408909
10.368185
10.327463
10.286745
10.246035
10.205331
10.16463
10.123923
10.083201
10.042479
10.001756
9.9610367
9.9203224
9.8796127
9.8389051
9.7981967
9.7574767
9.7167461
9.676011
9.6352772
9.5945484
9.5538263
9.513109
9.4723925
9.4316665
9.390927
9.350187
9.3094468
9.26871
9.2279768
9.1872454
9.1465125
9.1057687
9.0650142
9.0242551
8.9834937
8.9427336
8.901976
8.8612197
8.8204625
8.7796943
8.7389079
8.6981152
8.6573167
8.6165181
8.5757209
8.5349249
8.4941285
8.4533291
8.4125184
8.371691
8.3308542
8.290012
8.249169
8.2083263
8.1674833
8.126636
8.0857706
8.0448815
8.003985
7.9630775
7.9221657
7.8812491
7.8403276
7.7993998
7.7584643
7.71752
7.6765646
7.6355927
7.5946023
7.5535953
7.5125745
7.4715438
7.4305054
7.3894596
7.3484053
7.3073395
7.2662549
7.2251468
7.1840203
7.1428701
7.1017025
7.060519
7.019323
6.9781154
6.9368958
6.8956622
6.8544082
6.8131254
6.7718183
6.730491
6.6891424
6.6477749
6.6063867
6.5649732
6.5235281
6.4820547
6.4405562
6.3990342
6.3574912
6.3159267
6.2743392
6.2327237
6.1910741
6.1493931
6.1076842
6.0659462
6.0241805
5.9823845
5.9405517
5.8986784
5.8567715
5.8148322
5.7728636
5.730866
5.6888372
5.6467651
5.6046376
5.5624671
5.5202595
5.4780214
5.435755
5.3934595
5.3511293
5.3087463
5.2663007
5.2238114
5.1812753
5.138702
5.0960919
5.0534454
5.0107586
4.9680195
4.9252179
4.8823646
4.8394608
4.7965105
4.7535164
4.7104782
4.6673947
4.6242646
4.5810853
4.5378482
4.4945471
4.4511907
4.4077855
4.3643332
4.3208357
4.2772886
4.2336797
4.1900046
4.1462788
4.1024964
4.0586628
4.0147751
3.9708323
3.9268338
3.8827808
3.8386737
3.7945125
3.7502961
3.7060231
3.6616938
3.6173104
3.5728744
3.5283875
3.4838488
3.4392503
3.3945842
3.3498596
3.3050815
3.2602515
3.2153731
3.1704458
3.1254684
3.0804362
3.0353448
2.9902
2.9450049
2.899761
2.8544695
2.8091277
2.7637314
2.7182836
2.6727898
2.627249
2.5816642
2.5360354
2.4903634
2.4446484
2.3988905
2.3530883
2.3072398
2.2613475
2.2154158
2.1694477
2.1234453
2.0774089
2.0313385
1.9852326
1.9390878
1.8929058
1.8466927
1.8004541
1.7541929
1.7079086
1.6615926
1.6152379
1.5688654
1.5224727
1.4760646
1.4296377
1.3831864
1.3367111
1.2902237
1.2437238
1.1972135
1.1506894
1.1041503
1.0576051
1.0110526
0.96449469
0.91793254
0.8713661
0.82479205
0.77821641
0.73164595
0.68507892
0.63851164
0.59194552
0.54539117
0.49884902
0.45231532
0.40577787
0.35925468
0.3127476
0.26625412
0.21977629
0.17331907
0.12688492
0.080469435
0.034064298
0.012305521
0.058651053
0.10499406
0.15129565
0.19757316
0.2438265
0.2900375
0.33621285
0.38238292
0.42851477
0.47459612
0.52069878
0.56676484
0.61276854
0.65873163
0.70465572
0.75053938
0.79638201
0.84218301
0.88794168
0.93365729
0.97932917
1.0249566
1.070539
1.1160757
1.1615661
1.2070096
1.2524057
1.2977538
1.3430534
1.3883042
1.4335056
1.4786572
1.5237588
1.5688099
1.6138102
1.6587595
1.7036576
1.7485041
1.7932989
1.8380418
1.8827328
1.9273717
1.9719584
2.016493
2.0609753
2.1054054
2.1497834
2.1941093
2.2383832
2.2826051
2.3267754
2.3708942
2.4149616
2.4589779
2.5029432
2.5468579
2.5907222
2.6345365
2.678301
2.7220162
2.7656824
2.8092999
2.8528692
2.8963907
2.9398648
2.9832919
3.0266726
3.0700073
3.1132965
3.1565407
3.1997405
3.2428962
3.2860085
3.3290779
3.372105
3.4150903
3.4580344
3.5009379
3.5438014
3.5866253
3.6294105
3.6721573
3.7148664
3.7575385
3.8001741
3.8427739
3.8853384
3.9278682
3.9703641
4.0128264
4.055256
4.0976533
4.140019
4.1823537
4.224658
4.2669325
4.3091777
4.3513943
4.3935828
4.4357438
4.477878
4.5199858
4.5620679
4.6041247
4.6461569
4.688165
4.7301495
4.772111
4.81405
4.855967
4.8978626
4.9397371
4.9815912
5.0234254
5.06524
5.1070357
5.1488128
5.1905719
5.2323133
5.2740375
5.315745
5.3574362
5.3991115
5.4407714
5.4824162
5.5240464
5.5656623
5.6072644
5.6488529
5.6904284
5.7319911
5.7735414
5.8150797
5.8566062
5.8981214
5.9396255
5.9811189
6.0226019
6.0640749
6.105538
6.1469915
6.1884359
6.2298713
6.271298
6.3127163
6.3541265
6.3955289
6.4369236
6.4783108
6.5196909
6.5610641
6.6024306
6.6437906
6.6851444
6.7264921
6.767834
6.8091702
6.8505009
6.8918263
6.9331467
6.9744621
7.0157728
7.0570789
7.0983807
7.1396783
7.1809721
7.2222623
7.263549
7.3048322
7.3461114
7.3873867
7.4286584
7.4699272
7.5111936
7.5524574
7.5937183
7.6349763
7.6762319
7.7174852
7.7587363
7.7999853
7.8412322
7.8824771
7.9237202
7.9649615
8.0062011
8.0474391
8.0886757
8.1299108
8.1711445
8.212377
8.2536083
8.2948384
8.3360675
8.3772956
8.4185227
8.459749
8.5009744
8.5421991
8.5834231
8.6246464
8.6658691
8.7070912
8.7483129
8.789534
8.8307548
8.8719751
8.9131951
8.9544148
8.9956342
9.0368534
9.0780724
9.1192912
9.1605098
9.2017283
9.2429467
9.2841651
9.3253834
9.3666017
9.40782
9.4490382
9.4902566
9.5314749
9.5726934
9.6139119
9.6551305
9.6963492
9.7375681
9.7787871
9.8200062
9.8612254
9.9024448
9.9436644
9.9848842
10.026104
10.067324
10.108544
10.149765
10.190985
10.232206
10.273427
10.314648
10.35587
10.397091
10.438313
10.479535
10.520757
10.561979
10.603201
10.644424
10.685647
10.72687
10.768093
10.809316
10.850539
10.891763
10.932987
10.97421
11.015434
11.056659
11.097883
11.139107
11.180332
11.221556
11.262781
11.304006
11.345231
11.386456
11.427681
11.468906
11.510131
11.551356
11.592581
11.633807
11.675032
11.716257
11.757482
11.798708
11.839933
11.881158
11.922383
11.963608
12.004833
12.046058
12.087283
12.128508
12.169733
12.210958
12.252182
12.293407
12.334631
12.375855
12.417079
12.458303
12.499526
12.54075
12.581973
12.623196
12.664418
12.705641
12.746862
12.788084
12.829305
12.870525
12.911746
12.952965
12.994184
13.035402
13.076621
13.117838
13.159056
13.200274
13.241493
13.282712
13.323932
13.365153
13.406375
13.447596
13.488818
13.530038
13.571255
13.612471
13.653684
13.694896
13.736109
13.777322
13.818537
13.859754
13.900972
13.94219
13.983408
14.024624
14.06584
14.107055
14.148272
14.189489
14.230708
14.271927
14.313147
14.354366
14.395582
14.436796
14.478007
14.519218
14.560429
14.601641
14.642854
14.68407
14.725287
14.766505
14.807722
14.848936
14.890147
14.931356
14.972566
15.013778
15.054992
15.096208
15.137425
15.178642
15.219859
15.261074
15.302288
15.343502
15.384717
15.425932
15.467149
15.508365
15.549582
15.5908
15.632018
15.673237
15.714455
15.755674
15.796893
15.838113
15.879332
15.920553
15.961774
16.002996
16.044218
16.085441
16.126665
16.167889
16.209113
16.250337
16.291562
16.332788
16.374016
16.415244
16.456472
16.497701
16.53893
16.580159
16.621389
16.662621
16.703853
16.745087
16.78632
16.827554
16.868789
16.910024
16.95126
16.992497
17.033735
17.074974
17.116213
17.157453
17.198693
17.239935
17.281177
17.32242
17.363664
17.404908
17.446153
17.487399
17.528645
17.569892
17.61114
17.652389
17.693638
17.734888
17.776139
17.81739
17.858642
17.899894
17.941147
17.982401
18.023654
18.064908
18.106162
18.147417
18.188671
18.229925
18.271178
18.312431
18.353684
18.394935
18.436186
18.477435
18.518684
18.559932
18.601181
18.642429
18.683679
18.724931
18.766186
18.807445
18.84871
18.889981
18.93126
18.972547
19.013842
19.055145
19.096455
19.137769
19.179087
19.220404
19.261718
19.303024
19.344318
19.385597
19.426861
19.46811
19.509348
19.550575
19.591802
19.633035
19.674279
19.715539
19.756818
19.798115
19.839428
19.88075
19.922077
19.963397
20.004704
20.045986
20.087249
20.128488
20.169723
20.210962
20.252212
20.293477
20.334761
20.376062
20.417377
20.458698
20.500021
20.541327
20.58261
20.623868
20.665106
20.706347
20.7476
20.788871
20.830162
20.87147
20.912785
20.954103
20.995409
21.036697
21.077966
21.119213
21.160462
21.201722
21.243
21.284296
21.325605
21.36692
21.408228
21.44952
21.490791
21.532043
21.573297
21.61456
21.655837
21.697127
21.738424
21.779724
21.821009
21.862277
21.90352
21.944751
21.985987
22.027228
22.068477
22.109727
22.150978
22.192207
22.233416
22.274602
22.315783
22.356966
22.398155
22.439351
22.480549
22.521748
22.562938
22.604118
22.645299
22.686489
22.72769
22.768903
22.810125
22.851353
22.892584
22.933817
22.975052
23.016293
23.057542
23.098799
23.140063
23.18133
23.222598
23.263867
23.305138
23.346411
23.387689
23.428972
23.470258
23.511545
23.552832
23.594122
23.635414
23.67671
23.71801
23.759313
23.800618
23.841923
23.883229
23.924538
23.965848
24.007159
24.048472
24.089786
24.1311
24.172416
24.213732
24.25505
24.296369
24.337689
24.37901
24.420332
24.461654
24.502978
24.544302
24.585627
24.626954
24.668281
24.709609
24.750938
24.792268
24.833599
24.874931
24.916264
24.957598
24.998933
25.040268
25.081605
25.122942
25.16428
25.205619
25.246959
25.2883
25.329641
25.370983
25.412326
25.453669
25.495013
25.536358
25.577703
25.619049
25.660396
25.701743
25.74309
25.784438
25.825787
25.867135
25.908485
25.949835
25.991185
26.032535
26.073886
26.115237
26.156588
26.19794
26.239291
26.280643
26.321995
26.363346
26.404698
26.44605
26.487403
26.528755
26.570107
26.611459
26.652811
26.694162
26.735514
26.776864
26.818215
26.859565
26.900915
26.942264
26.983613
27.024961
27.066309
27.107656
27.149003
27.190348
27.231693
27.273037
27.31438
27.355723
27.397064
27.438404
27.479743
27.521081
27.562417
27.603753
27.645087
27.68642
27.727751
27.769081
27.81041
27.851736
27.893061
27.934385
27.975706
28.017025
28.058343
28.099658
28.140972
28.182283
28.223592
28.2649
28.306205
28.347507
28.388808
28.430106
28.471401
28.512695
28.553985
28.595273
28.636558
28.677841
28.71912
28.760397
28.801671
28.842943
28.884211
28.925477
28.966741
29.008001
29.049259
29.090513
29.131765
29.173014
29.21426
29.255503
29.296743
29.33798
29.379213
29.420443
29.46167
29.502893
29.544113
29.58533
29.626543
29.667752
29.708958
29.75016
29.791359
29.832554
29.873745
29.914932
29.956115
29.997294
30.038469
30.079641
30.120808
30.161972
30.203131
30.244286
30.285438
30.326585
30.367728
30.408867
30.450002
30.491132
30.532258
30.57338
30.614496
30.655607
30.696713
30.737812
30.778905
30.819991
30.86107
30.902141
30.943205
30.98426
31.025308
31.066349
31.107384
31.148415
31.189443
31.230469
31.271495
31.312521
31.353547
31.394573
31.435599
31.476623
31.517647
31.558669
31.599688
31.640705
31.681719
31.722729
31.763734
31.804734
31.845728
31.886716
31.927697
31.968673
32.009644
32.050608
32.091567
32.13252
32.173467
32.214405
32.255337
32.296261
32.337179
32.378091
32.418999
32.459901
32.500798
32.541687
32.582568
32.623441
32.664306
32.705165
32.74602
32.786873
32.827724
32.868571
32.909411
32.950242
32.991061
33.03187
33.072673
33.113475
33.15428
33.195089
33.235897
33.276699
33.317486
33.358255
33.399007
33.43975
33.480495
33.521251
33.562022
33.6028
33.643572
33.684319
33.725031
33.765708
33.806368
33.847035
33.887732
33.928468
33.96923
34.009989
34.050704
34.091346
34.131915
34.172442
34.212987
34.253615
34.29435
34.335157
34.375987
34.416853
34.45787
34.499798
34.541259
34.579523
34.618432
34.659868
34.701108
34.741622
34.782384
34.82336
34.864298
34.905247
34.946253
34.987263