/*--------------------------------*- C++ -*----------------------------------*\
| =========                 |                                                 |
| \\      /  F ield         | OpenFOAM: The Open Source CFD Toolbox           |
|  \\    /   O peration     | Version:  4.x                                   |
|   \\  /    A nd           | Web:      www.OpenFOAM.org                      |
|    \\/     M anipulation  |                                                 |
\*---------------------------------------------------------------------------*/
FoamFile
{
    version     2.0;
    format      ascii;
    class       volScalarField;
    location    "0.17";
    object      T;
}
// * * * * * * * * * * * * * * * * * * * * * * * * * * * * * * * * * * * * * //

dimensions      [0 0 0 1 0 0 0];

internalField   nonuniform List<scalar> 
6273
(
299.9997642
299.9996966
299.9996651
299.9996227
299.9995549
299.9995007
299.9997146
299.9996681
299.999635
299.9995831
299.9995172
299.9994776
299.9997448
299.9997069
299.9996741
299.9996336
299.9995865
299.9995628
299.9997875
299.9997494
299.9997354
299.9997335
299.9997315
299.9997373
299.999789
299.9997602
299.9997785
299.9998276
299.9998806
299.9999231
299.9997687
299.9997559
299.9997987
299.999884
299.9999793
300.0000352
299.9994418
299.9993252
299.9992772
299.999236
299.9991727
299.9991515
299.9993731
299.9992899
299.9992619
299.9992373
299.9991988
299.9991988
299.9994265
299.9993673
299.9993711
299.9993895
299.9993934
299.9994072
299.9994956
299.9994652
299.9995249
299.9996208
299.9996899
299.999733
299.9995187
299.999527
299.9996395
299.9998014
299.9999451
300.0000401
299.9995334
299.9995633
299.9996866
299.999874
300.0000723
300.0001915
299.9992783
299.9991478
299.9991565
299.9992195
299.9992813
299.9993416
299.9991753
299.9991046
299.9991673
299.999282
299.9993716
299.9994224
299.999219
299.9992031
299.9993276
299.9995045
299.9996137
299.9996357
299.9993195
299.9993551
299.9995364
299.9997461
299.9998675
299.9999035
299.9994098
299.9994724
299.9996597
299.9998695
300.0000374
300.0001352
299.9994928
299.9995402
299.9996758
299.9998669
300.0000756
300.0002122
299.999186
299.9990905
299.9991781
299.9993552
299.9994758
299.9994968
299.9990867
299.9990646
299.9992243
299.9994407
299.9995511
299.9995453
299.9991386
299.9991801
299.9994034
299.9996429
299.9997343
299.9997029
299.9992614
299.9993397
299.9995713
299.9997852
299.9998851
299.9998904
299.9993769
299.999443
299.9996138
299.999783
299.9999303
300.0000177
299.9994606
299.9994685
299.9995489
299.999689
299.9998855
300.0000069
299.9992295
299.9992097
299.9993581
299.9995367
299.999583
299.9995169
299.9991726
299.9992157
299.9994131
299.9995955
299.9996146
299.9995284
299.9992267
299.9993094
299.9995377
299.9997045
299.9997072
299.9996264
299.9993189
299.9993987
299.9995819
299.9997076
299.9997451
299.9997485
299.9993859
299.9994132
299.9995016
299.9995947
299.9997022
299.9997714
299.9994151
299.9993715
299.9993794
299.9994715
299.9996397
299.999713
299.9994587
299.9995003
299.9996204
299.999697
299.9996474
299.99952
299.9994453
299.9994992
299.9996382
299.9997154
299.9996593
299.9995367
299.9994447
299.9995077
299.9996615
299.999741
299.9997051
299.9996306
299.9994373
299.9994887
299.9996088
299.9996797
299.9996998
299.999724
299.9994329
299.9994403
299.9994806
299.9995385
299.9996419
299.9997162
299.9994297
299.9993811
299.9993706
299.9994432
299.9995973
299.9996649
299.9997613
299.9997545
299.9997977
299.9998876
299.9999862
300.0000151
299.9997646
299.9997481
299.9997771
299.9998511
299.9999186
299.9999128
299.9997522
299.9997247
299.9997532
299.9998152
299.9998344
299.9998008
299.9997177
299.9997053
299.9997717
299.9998419
299.9998302
299.9997772
299.9996961
299.999733
299.9998602
299.9999457
299.9999203
299.999867
299.9997321
299.999815
299.9999812
300.0000622
300.0000422
300.0000199
299.9998243
299.9999072
300.0000635
300.000155
300.0001681
300.0001882
299.9998852
299.9999429
300.0000651
300.000175
300.0002195
300.0002659
299.9998801
299.9999153
300.0000164
300.0001399
300.0002128
300.0002646
299.9998749
299.9998845
299.9999599
300.0000713
300.0001538
300.0001896
299.9998715
299.9998461
299.999868
299.9999539
300.0000434
300.000092
299.9998458
299.9997767
299.9997546
299.9998283
299.9999144
299.9999674
299.9995629
299.9995797
299.9996718
299.9998483
300.0000458
300.0001576
299.9995711
299.999555
299.9996149
299.9997507
299.9998865
299.9999885
299.9995168
299.999493
299.9995711
299.9996819
299.9997238
299.9997811
299.9994352
299.9994729
299.9996253
299.9997505
299.9997458
299.9997703
299.9994209
299.9995374
299.9997869
299.9999022
299.9998623
299.9998547
299.9995254
299.9996778
299.999956
300.0000711
300.000053
300.0000561
299.9997164
299.999844
300.000073
300.0001847
300.0002124
300.0002686
299.9997549
299.9998289
300.0000187
300.0001717
300.0002684
300.0004107
299.9997332
299.9997619
299.9999192
300.0000979
300.0002593
300.0004273
299.999694
299.99968
299.9997753
299.9999282
300.0001179
300.0002143
299.9996438
299.9995625
299.9995905
299.9997166
299.9999072
299.9999965
299.9995815
299.9994279
299.9994399
299.9995925
299.9997902
299.9999006
299.9995502
299.9995469
299.9996261
299.9997955
300.0000154
300.0001776
299.9995238
299.9994838
299.9995411
299.9996814
299.9998582
300.0000617
299.9994078
299.9993851
299.9994848
299.9996357
299.9997412
299.9999298
299.9993051
299.9993693
299.9995581
299.9997315
299.9997855
299.9999047
299.9993565
299.9994916
299.9997728
299.9999148
299.9999104
299.9999434
299.9995556
299.9997037
299.9999889
300.0000853
300.0000609
300.0000716
299.9997077
299.9998065
300.0000229
300.0000913
300.0001175
300.0002182
299.9997192
299.9997558
299.9999188
300.0000028
300.000105
300.000313
299.9996187
299.9996146
299.9997306
299.9998325
300.0000184
300.0002385
299.9994892
299.9994527
299.9995215
299.9996486
299.9999007
300.0000671
299.9994209
299.9993206
299.9993609
299.9995273
299.9998201
300.0000204
299.9993569
299.9991975
299.9992562
299.9994888
299.9998176
300.0000635
299.9994744
299.999422
299.9994537
299.9995873
299.9997963
299.9999209
299.9993912
299.9993195
299.9993741
299.9995343
299.9997125
299.9998841
299.9992567
299.9992607
299.9993998
299.9996059
299.9997415
299.9999229
299.999232
299.9993292
299.9995834
299.9998016
299.999866
299.9999809
299.9993845
299.999539
299.9998529
300.0000021
299.9999822
300.0000031
299.9996382
299.9997623
300.0000149
300.0000806
300.0000243
300.000034
299.9997797
299.9998232
299.9999687
299.9999946
300.0000079
300.0001262
299.9997071
299.9996953
299.9997739
299.9998123
299.9999153
300.0001454
299.9995019
299.9994641
299.9995067
299.9995902
299.9998051
300.0000162
299.9993585
299.9992778
299.9992935
299.9994273
299.9997038
299.9998998
299.9993081
299.9991759
299.9992066
299.9993941
299.9996939
299.9999571
299.9992855
299.999148
299.9992199
299.9994638
299.9997781
300.0000851
299.9993767
299.9992927
299.999304
299.9994252
299.9995874
299.9996239
299.9992623
299.9992013
299.9992785
299.9994521
299.9995957
299.9996772
299.9991591
299.9991851
299.9993617
299.9995908
299.9997091
299.999855
299.9991984
299.9993007
299.9995806
299.9998007
299.9998544
299.9999531
299.9994283
299.9995464
299.999805
299.9999375
299.9999237
299.9999603
299.9997273
299.9997636
299.9998871
299.9999363
299.9999166
299.9999805
299.9998174
299.9997446
299.9997564
299.9997789
299.999841
300.0000467
299.9996772
299.9995501
299.999524
299.9995731
299.9997255
300.0000174
299.9994896
299.9993522
299.9993236
299.999425
299.9996479
299.999835
299.9994368
299.9992704
299.9992441
299.9993744
299.9995791
299.9997292
299.9994557
299.999274
299.9992705
299.9994292
299.9996133
299.9998111
299.9994598
299.9993422
299.9994135
299.999585
299.9997321
299.9999547
299.9993838
299.9993068
299.9993125
299.9994123
299.9995552
299.9996211
299.9992839
299.9992395
299.9993231
299.9994568
299.9995775
299.9997017
299.9992217
299.9992537
299.9994373
299.9996079
299.9997003
299.9998786
299.999293
299.999383
299.9996349
299.9997973
299.9998444
299.9999728
299.9995366
299.9996147
299.9998051
299.9999061
299.9999105
299.9999982
299.9997904
299.999756
299.9998076
299.999852
299.9998787
300.0000315
299.9998322
299.9996689
299.9996183
299.9996512
299.9997688
300.0001024
299.9996862
299.9994559
299.9993722
299.9994483
299.9996542
300.0000407
299.9995879
299.999359
299.9992837
299.9993925
299.999593
299.999807
299.9996516
299.9994274
299.9993604
299.9994536
299.9995595
299.9996723
299.9997223
299.9995366
299.9995106
299.9995763
299.9996191
299.999693
299.9997271
299.9996123
299.9996482
299.9996802
299.9997094
299.9997787
299.999802
299.9996877
299.9996688
299.9997551
299.9998533
299.9998932
299.9997443
299.9996214
299.9996245
299.9997277
299.999835
299.9998721
299.9997017
299.9996161
299.9996343
299.9997478
299.9998238
299.9998424
299.9997014
299.9996473
299.999678
299.9997615
299.9997513
299.9996987
299.9997491
299.9996711
299.9996866
299.9997255
299.9997069
299.9996593
299.9997665
299.9996839
299.9996907
299.9997117
299.9997198
299.9997298
299.9994782
299.9992771
299.9992972
299.999492
299.9997196
299.9998434
299.9993783
299.9991964
299.9992419
299.9994505
299.999655
299.9997609
299.9992869
299.9991384
299.9992199
299.9994164
299.9995251
299.9995815
299.9992728
299.9991114
299.9992025
299.999351
299.9993858
299.9993952
299.9992675
299.9990732
299.999126
299.9992427
299.9993279
299.9993951
299.9992171
299.9990639
299.9991056
299.9992405
299.9993965
299.9995339
299.9992923
299.9991282
299.9992099
299.9994582
299.999794
300.000042
299.9991954
299.9990615
299.9991778
299.9994163
299.9997006
299.9999227
299.9991265
299.9989885
299.9991235
299.999333
299.9995225
299.999683
299.9990694
299.9988763
299.9989781
299.9991573
299.9993396
299.9994949
299.9989505
299.9987767
299.998878
299.9990781
299.9993086
299.9995276
299.9988784
299.9988058
299.9989249
299.9991629
299.9994352
299.9997091
299.9992731
299.9991866
299.9993058
299.9995233
299.999804
300.0000892
299.9992763
299.9992165
299.9993461
299.999495
299.999714
299.9999582
299.9992766
299.9991887
299.9992812
299.9993959
299.999588
299.9997712
299.9991854
299.9990584
299.9991111
299.999271
299.9995144
299.9997067
299.9990373
299.9989421
299.9990279
299.9992785
299.9995756
299.999829
299.9989882
299.9989691
299.9990795
299.9993568
299.9996659
299.9999858
299.9994788
299.9994425
299.9995499
299.9996411
299.9997428
299.9999283
299.9995424
299.9995195
299.9995729
299.999561
299.999615
299.9997434
299.9995729
299.999522
299.9994755
299.9994577
299.9995465
299.999657
299.9995019
299.9994265
299.9993625
299.999433
299.9996099
299.9997575
299.9993834
299.9993133
299.9993105
299.9994788
299.9997062
299.9999369
299.9993155
299.9992646
299.9993005
299.9995026
299.9997512
300.0000495
299.9997431
299.9996929
299.999717
299.9996858
299.9996789
299.9997103
299.9998035
299.9997474
299.9996682
299.9995417
299.9994773
299.9994772
299.999825
299.999728
299.9995412
299.9994244
299.9993834
299.9994063
299.9997692
299.9996385
299.999464
299.9994464
299.9994824
299.9995727
299.9996769
299.999563
299.9994722
299.9995285
299.9996221
299.9997876
299.9996358
299.9995508
299.9995377
299.9996107
299.9997319
299.9999462
299.9995071
299.9995719
299.9996672
299.9997595
299.9998596
299.9999915
300.0000902
300.0000129
299.9997907
299.9996381
299.9996803
299.9998251
299.9994981
299.9995754
299.9996767
299.9997756
299.9998863
300.0000109
300.0000672
299.9999529
299.9997476
299.9996493
299.9997206
299.9998329
299.9995877
299.9996569
299.9997453
299.9998291
299.9999211
300.00002
300.0000641
299.9999796
299.9998348
299.9997786
299.9998359
299.9998943
299.9997644
299.9998093
299.9998661
299.9999082
299.9999627
300.0000398
300.0001016
300.0000845
300.0000016
299.9999459
299.9999399
299.9999335
299.9999405
299.9999334
299.9999433
299.9999496
299.9999762
300.000054
300.000157
300.0001783
300.000078
299.9999741
299.9999221
299.9998821
300.000004
299.999937
299.9999377
299.9999467
299.9999745
300.000074
300.0002286
300.0002392
300.0000679
299.9999223
299.9998542
299.9998358
299.999212
299.9993487
299.9994836
299.9996017
299.9997471
299.9999581
300.0000681
299.999879
299.9995423
299.9994275
299.9996439
299.9998487
299.9992651
299.99939
299.9995068
299.9996195
299.9997542
299.9999415
300.0000089
299.9998119
299.9995462
299.999495
299.9996901
299.9998126
299.9994595
299.9995424
299.9996113
299.999686
299.9997856
299.9999453
300.0000192
299.9998878
299.9997083
299.9996885
299.9998096
299.9998523
299.999773
299.9997989
299.9997978
299.9997842
299.9998242
299.9999723
300.0000899
300.000047
299.9998954
299.9998269
299.9998323
299.9998209
300.0000582
300.0000005
299.9999245
299.9998668
299.9998896
300.0000484
300.0002222
300.0002035
299.9999928
299.9998373
299.999778
299.999711
300.0001789
300.0000578
299.9999489
299.9999083
299.9999663
300.0001773
300.0004515
300.0003996
300.0000519
299.9998293
299.9997568
299.9996692
299.999403
299.9994608
299.999488
299.9994949
299.9995881
299.9998002
299.9999132
299.9997723
299.9995636
299.9995729
299.9998053
299.999913
299.9994526
299.9994756
299.9994705
299.9994733
299.9995729
299.9997758
299.9998612
299.9997161
299.9995571
299.9995967
299.999759
299.9997904
299.9996211
299.9995893
299.9995344
299.999527
299.9996108
299.9997832
299.9998648
299.9997582
299.9996422
299.9996756
299.9997611
299.9997467
299.99989
299.9998233
299.9996886
299.9996119
299.9996581
299.9998178
299.9999162
299.9998428
299.9997218
299.9996863
299.9997
299.9996873
300.000129
300.0000215
299.9998452
299.99973
299.9997618
299.9999392
300.0000746
300.0000136
299.9998276
299.9996889
299.9996456
299.9996365
300.0001987
300.0000689
299.9999286
299.99988
299.9999578
300.0001715
300.0003883
300.0002778
299.9999504
299.9997571
299.9997167
299.9997047
299.9994782
299.9994527
299.9994208
299.9994147
299.9995226
299.9997439
299.9998508
299.9997063
299.9995366
299.9995749
299.9997433
299.9997954
299.9994967
299.9994395
299.9993981
299.999404
299.9995333
299.9997397
299.9997879
299.9996179
299.999473
299.9995068
299.9996065
299.9996226
299.9996163
299.999525
299.9994734
299.9994824
299.9995884
299.999734
299.9997418
299.999593
299.9994719
299.9994827
299.999537
299.9995537
299.999829
299.9997131
299.9996124
299.9995692
299.9996286
299.9997557
299.9997793
299.9996673
299.9995403
299.9994819
299.9994722
299.9995131
299.9999559
299.9997895
299.9996606
299.9996396
299.9997104
299.9998596
299.9999417
299.9998779
299.9996863
299.9995083
299.9994636
299.9995059
299.9999062
299.9997431
299.9997009
299.9997781
299.9999046
300.000093
300.0002457
300.0001961
299.9998612
299.9996174
299.9995819
299.9996085
299.9994314
299.9994099
299.9994205
299.9994698
299.9996386
299.9998756
299.9999096
299.9996597
299.9994445
299.9994759
299.9996393
299.9997058
299.9994435
299.9994171
299.9994283
299.9994888
299.9996513
299.9998114
299.9997433
299.9994649
299.9992856
299.9993309
299.9994518
299.9994968
299.9995512
299.999518
299.9995345
299.9995795
299.999671
299.9997288
299.9996174
299.999407
299.9993014
299.9993415
299.9994072
299.9994381
299.9997191
299.999663
299.9996466
299.999656
299.9997036
299.9997483
299.9996768
299.9995416
299.9994543
299.9994102
299.9994062
299.9994428
299.9997178
299.9996299
299.9996264
299.9996952
299.9997877
299.9998659
299.9998867
299.9998218
299.9996313
299.9994514
299.9994003
299.9994333
299.9996043
299.999553
299.9996566
299.9998602
300.0000195
300.0001344
300.0002095
300.0001853
299.9998596
299.9995572
299.9994685
299.9994544
299.9994459
299.9994951
299.9996045
299.9997188
299.9999264
300.0001163
300.0000035
299.999631
299.999389
299.9994511
299.9996529
299.9997539
299.9994847
299.999539
299.9996306
299.9997212
299.9998617
299.9999243
299.9997154
299.9993588
299.999204
299.9993212
299.9995129
299.9995888
299.9996253
299.9996938
299.9997554
299.9997731
299.9997935
299.9997517
299.9995578
299.9993325
299.9992694
299.999402
299.999544
299.9995859
299.9997413
299.9997786
299.999801
299.9997901
299.9997907
299.9997615
299.9996341
299.9995041
299.9994718
299.9995059
299.9995718
299.9995986
299.9996984
299.9997044
299.9997652
299.9998286
299.9998759
299.9998968
299.9998682
299.9997792
299.9996302
299.9995414
299.9995445
299.9995522
299.9996248
299.9997006
299.9998856
300.0000518
300.0001539
300.0002115
300.0002286
300.0001552
299.9998879
299.9996638
299.9995769
299.9995022
299.9999206
299.9999674
300.0000415
300.0000351
299.9999892
300.0000078
300.0000434
299.9999809
299.999925
299.9999274
299.9998996
299.9998173
299.9998808
299.9999262
299.9999999
300.0000023
299.9999647
299.9999895
300.0000308
299.999984
299.9999488
299.9999853
299.9999812
299.9998995
299.99985
299.9998902
299.999936
299.9999185
299.9998878
299.9999362
299.9999827
299.9999401
299.9999005
299.999935
299.9999531
299.9999016
299.9996961
299.9997614
299.999805
299.99978
299.9997867
299.9998814
299.9999353
299.9998705
299.9997862
299.9997803
299.9998201
299.9998162
299.9996793
299.9997566
299.9997745
299.9997368
299.9997703
299.9999012
299.9999593
299.9998882
299.9997871
299.9997559
299.9997846
299.9998052
299.999784
299.9998371
299.9998067
299.9997567
299.9998114
299.9999567
300.0000131
299.9999574
299.9998892
299.999857
299.999831
299.9998165
299.9999057
300.0000069
300.0000362
299.9998867
299.9997162
299.9997845
299.9998696
299.9998285
299.9998385
299.9998795
299.9997914
299.9996315
299.9998447
299.9999279
299.9999283
299.9997943
299.999688
299.9997826
299.9998554
299.9998111
299.9998369
299.9999288
299.9999162
299.9997719
299.999689
299.9998131
299.9998209
299.9997099
299.9996591
299.9997816
299.9998379
299.9997524
299.9997147
299.9997952
299.9998518
299.9997852
299.999488
299.9996502
299.9996701
299.9995758
299.9995892
299.999754
299.9998012
299.999662
299.9995519
299.9995888
299.9996796
299.9996654
299.9995354
299.9996895
299.9996592
299.9995524
299.9995979
299.9997931
299.9998375
299.9996969
299.9995827
299.9995768
299.9996372
299.9996417
299.9996967
299.9997772
299.9996866
299.9995944
299.9996778
299.9998996
299.9999924
299.9998907
299.9997541
299.9996757
299.9996627
299.9996699
300.0001979
300.0002705
300.0001613
299.9998023
299.9995532
299.9996333
299.9997731
299.9998427
299.9999738
300.0000275
299.9999104
299.9998024
300.0000657
300.0000784
299.9999215
299.999607
299.99949
299.9996163
299.9997381
299.9997955
299.9999563
300.0000505
299.9999828
299.999846
299.9998308
299.9998716
299.9997438
299.9995261
299.9995104
299.9996719
299.9997398
299.9997317
299.9998195
299.9999228
299.9999335
299.9998238
299.9996607
299.9997475
299.9996518
299.9995019
299.9995396
299.9996991
299.9997032
299.9995928
299.9995924
299.9997079
299.9997839
299.9997248
299.9997452
299.999835
299.9997097
299.9995483
299.9995838
299.9997166
299.9996996
299.9995738
299.9995525
299.9996576
299.9997375
299.9996815
299.9999538
299.9999927
299.9998083
299.9996237
299.9996584
299.999807
299.9998553
299.9997579
299.9996926
299.999711
299.9997473
299.9996982
300.0003118
300.0003787
300.0002094
299.9998074
299.9996421
299.9997867
299.9999716
300.0001277
300.0003353
300.0003804
300.0001774
299.9999873
300.0001066
300.0000648
299.9998111
299.9995123
299.9995178
299.9997294
299.9998967
300.0000387
300.0002689
300.0003417
300.0001703
299.9999604
299.9998766
299.9998288
299.9996156
299.9994365
299.9995356
299.9997851
299.9998914
299.9999713
300.0001404
300.0002017
300.0000624
299.9998566
299.9998307
299.9998053
299.9996372
299.9995522
299.9996973
299.9998751
299.9998737
299.9998293
299.9999175
299.999978
299.9999115
299.9997353
300.0000232
300.0000149
299.9998265
299.9996938
299.9997856
299.9999037
299.9998647
299.9997893
299.9998397
299.9998869
299.9998302
299.9996515
300.0002193
300.000176
299.9999142
299.9997358
299.9998127
299.9999548
299.9999618
299.9998759
299.9998617
299.9998728
299.9998122
299.9996428
300.0001006
300.0001434
299.9999813
299.9996849
299.9996787
299.9998831
300.0000634
300.0002181
300.0004256
300.0004594
300.0002495
300.0000031
299.9998531
299.9998022
299.9995761
299.9994265
299.9995707
299.9998441
300.0000079
300.0001556
300.0003615
300.0004057
300.0001856
299.9998857
299.9997217
299.9996476
299.9994393
299.9993997
299.9996544
299.9999578
300.0000701
300.0001469
300.0002844
300.0002907
300.0000492
299.9997255
299.9998427
299.9997814
299.9996185
299.9996476
299.9999074
300.000109
300.0001186
300.0000766
300.0001065
300.0000803
299.999884
299.9995693
300.0001017
300.0000471
299.9998533
299.9998331
300.0000133
300.0001376
300.0001001
300.0000179
300.0000167
299.9999733
299.999794
299.9995
300.0002449
300.0001576
299.999909
299.9998591
300.0000035
300.0001002
300.0000708
299.9999979
299.9999968
299.9999547
299.9997838
299.9994998
299.999736
299.9997361
299.9996457
299.9995709
299.9997069
299.9999463
300.0000734
300.0001451
300.0002756
300.0002851
300.0001129
299.9999236
299.999522
299.9994804
299.9993398
299.9993504
299.9996075
299.9999052
300.0000363
300.0001275
300.0002496
300.0002439
300.0000368
299.999786
299.9994621
299.9993964
299.9992536
299.9993374
299.9997018
300.0000204
300.0001219
300.0001535
300.0002065
300.0001592
299.9999263
299.9996064
299.9996463
299.9995502
299.9994159
299.9995582
299.9999184
300.0001472
300.0001809
300.0001348
300.0001194
300.0000355
299.9997898
299.9994626
299.9998906
299.9997887
299.999654
299.999763
300.0000225
300.0001745
300.0001818
300.0001105
300.0000728
299.9999728
299.9997209
299.9994037
300.000045
299.9999239
299.9997821
299.9998579
300.0000424
300.000136
300.0001576
300.0001257
300.0000899
299.9999677
299.9997003
299.9994002
299.9998882
299.9998721
299.9998671
299.9998981
299.9998947
299.9998304
299.9998585
299.9998326
299.999824
299.9998188
299.9997668
299.9996801
299.9998877
299.999837
299.9997744
299.9997085
299.9996296
299.9995731
299.9998852
299.9998147
299.9997109
299.9996293
299.9995699
299.9995349
299.9998154
299.9997785
299.9997229
299.999645
299.9995761
299.9995185
299.999801
299.9997946
299.9997999
299.9997083
299.999603
299.9995243
299.999853
299.9997524
299.9996892
299.9996446
299.9994743
299.9993299
299.9997546
299.9996322
299.9995235
299.9994256
299.9992336
299.9991265
299.9997496
299.9995861
299.9994132
299.9992665
299.999107
299.9990526
299.9997306
299.9995659
299.9993992
299.9992495
299.999093
299.9990392
299.9996649
299.9995933
299.9994846
299.9993279
299.9991396
299.9990651
299.9996526
299.9996542
299.9996264
299.9994551
299.9992452
299.9991741
299.9998213
299.9996812
299.9995694
299.9994137
299.9992504
299.9991806
299.9996751
299.9995392
299.9994019
299.9992258
299.9990891
299.9991036
299.9996611
299.9995445
299.9993737
299.999165
299.9990542
299.9990929
299.9996593
299.9995545
299.9993967
299.9991846
299.9990566
299.9990659
299.9996555
299.9996077
299.9994944
299.9992964
299.9991295
299.999109
299.9997203
299.99973
299.9996595
299.9994589
299.9992796
299.9992625
299.9997403
299.9996777
299.9996193
299.999532
299.9994404
299.9994179
299.9995811
299.9995447
299.9994999
299.999425
299.9993762
299.9994217
299.9995527
299.9995347
299.9994653
299.9993528
299.9992936
299.9993257
299.9995355
299.9995156
299.9994559
299.9993035
299.9992028
299.999209
299.9995441
299.9995522
299.9995232
299.9993595
299.9992193
299.999212
299.9996222
299.9996539
299.9996429
299.9994837
299.9993436
299.9993424
299.9997028
299.9996823
299.9996612
299.9996616
299.9996992
299.9997225
299.9995053
299.9995074
299.9995376
299.9995871
299.9996247
299.9996311
299.9994654
299.9994543
299.999447
299.9994556
299.9994493
299.9994328
299.9994592
299.9994228
299.9993992
299.9993674
299.9993384
299.9993352
299.9994463
299.999441
299.9994574
299.9994314
299.9994146
299.999428
299.9994489
299.9994915
299.9995716
299.9996074
299.9996289
299.9996267
299.9997395
299.9996456
299.9995894
299.9996486
299.9997496
299.9997986
299.9995507
299.9994746
299.9994662
299.99957
299.9996422
299.9996476
299.9995222
299.99941
299.9993714
299.9994242
299.9994418
299.9994504
299.9995061
299.999379
299.9993479
299.9993838
299.9994036
299.9994668
299.9994624
299.999387
299.9994114
299.9994934
299.9995793
299.999694
299.9994267
299.9994296
299.9995518
299.9997301
299.9998694
299.9999233
299.999734
299.9997957
299.9998597
299.999771
299.9996606
299.9995954
299.9997282
299.9998682
299.99994
299.9998319
299.9997219
299.9996675
299.9998479
299.999964
299.9999645
299.9998255
299.9997338
299.9996936
299.9999195
299.9999495
299.9998942
299.9997838
299.9997439
299.9997347
299.9999159
299.9999081
299.9998691
299.9998162
299.9998423
299.9998677
299.9999629
300.0000074
299.9999922
299.9999185
299.9999509
299.9999668
299.999866
299.9999491
299.99999
299.9999112
299.9999447
299.9999497
299.9997673
299.9998619
299.9999555
299.999835
299.9998373
299.9998475
299.9998203
299.9999286
300.0000142
299.9998106
299.9997545
299.999777
299.9998828
299.999969
300.0000347
299.9998287
299.999737
299.9997457
299.9998521
299.9999179
299.9999477
299.9998177
299.9997249
299.999684
299.9998018
299.9998774
299.9998836
299.9997711
299.9996759
299.9996011
299.9995933
299.9997232
299.9997743
299.9995886
299.999379
299.999338
299.9996951
299.999897
299.9999146
299.9996509
299.9994319
299.9994002
299.9999426
300.0000228
299.9999127
299.9996256
299.9994606
299.999466
300.0000168
299.9999637
299.9998193
299.9996209
299.9995412
299.9996096
299.999989
299.9998604
299.9997714
299.9997212
299.9997409
299.9998555
300.0001025
300.000011
299.9999165
299.9998773
299.9998957
299.9999893
300.0000954
300.0000662
299.9999626
299.9998668
299.9998456
299.9999268
299.9999621
299.9999341
299.9998712
299.9996966
299.9996559
299.9997506
299.999969
299.9999597
299.9999232
299.9996478
299.9995759
299.9996546
299.9999816
300.0000116
300.0000021
299.9997047
299.9995961
299.999604
299.999822
299.9998536
299.9998671
299.9996783
299.9995645
299.999508
299.9996406
299.9996755
299.9996897
299.9995438
299.9994265
299.9993866
299.9997901
299.9998468
299.999798
299.9995627
299.9993983
299.9994153
299.9999145
299.999966
299.9998136
299.9995291
299.9993983
299.9994675
300.0000735
299.9999833
299.9997261
299.9995093
299.9994732
299.99963
300.0000762
299.9999126
299.999709
299.9996165
299.9996935
299.9999054
299.9999734
299.9998216
299.9997532
299.9997697
299.9998981
300.000079
299.9999587
299.9998445
299.9998058
299.9998243
299.9998952
300.0000218
300.0000184
299.9999043
299.9998356
299.9997861
299.9997726
299.9998682
300.0000674
299.9999562
299.9998436
299.9997215
299.9996775
299.9997633
300.0001835
300.0001061
299.9999757
299.9997927
299.9997415
299.9997815
300.000232
300.0002301
300.0001094
299.999901
299.9998207
299.9997848
300.0000932
300.0001184
299.9999878
299.99982
299.9997283
299.9996567
299.9998828
299.9998458
299.9997123
299.9995874
299.9994953
299.999487
299.9997006
299.9997203
299.9996959
299.9995616
299.9994688
299.999477
299.9997644
299.9997197
299.9996223
299.9995189
299.9994978
299.9995614
299.9998225
299.9996732
299.9995348
299.9995161
299.9996097
299.9997643
299.9998808
299.9996998
299.9995999
299.9996532
299.9998432
300.000022
299.9998565
299.9997257
299.9996871
299.9997869
299.9999621
300.00009
299.9998504
299.9997338
299.9997098
299.999774
299.9998608
299.9998984
299.9999567
299.9998219
299.9997766
299.999761
299.9997589
299.9997299
300.0001265
299.9999768
299.9999051
299.9998273
299.9997813
299.9997185
300.0002962
300.0002074
300.0001227
299.9999728
299.9998689
299.999764
300.0003632
300.0003505
300.0002237
300.000018
299.9998582
299.9997257
300.0002752
300.0002637
300.0000452
299.9998374
299.9996716
299.9995941
300.0000693
299.9999741
299.9997355
299.9995674
299.9994819
299.9995098
299.9994599
299.999523
299.9996441
299.9997552
299.9997974
299.99975
299.9994807
299.9994819
299.9995809
299.9997612
299.999842
299.9998205
299.9995131
299.9994295
299.9994956
299.9997669
299.9999228
299.9999565
299.9996169
299.9994793
299.9995173
299.9998169
300.0000164
300.0000508
299.9996567
299.999511
299.9995351
299.999812
299.9999621
299.999916
299.9997389
299.9995718
299.9995774
299.9997525
299.9997821
299.9996264
299.9999793
299.9997864
299.999762
299.9998092
299.9997233
299.9995248
300.0002094
300.0000381
299.9999841
299.9999289
299.9997603
299.9995819
300.0003412
300.0002566
300.0001812
300.0000144
299.9997796
299.999633
300.0003847
300.0003744
300.0002401
299.9999796
299.9997149
299.9996114
300.0003221
300.0002832
300.0000287
299.9997363
299.9995603
299.9995485
300.0001007
299.9999494
299.9996624
299.9994772
299.999452
299.9995308
299.9994245
299.9994799
299.9996467
299.999876
299.9999796
299.9999463
299.9994394
299.9994352
299.9995997
299.9998647
299.9999632
299.9999343
299.9994821
299.9994009
299.9995485
299.9998753
300.0000081
300.0000107
299.9996342
299.9994757
299.9995681
299.999881
300.0000138
300.0000051
299.999759
299.9995365
299.9995625
299.9997926
299.9998688
299.9998026
299.9999249
299.9996742
299.9996566
299.9997646
299.9997268
299.9995954
300.0001278
299.9999121
299.9998778
299.9998943
299.999748
299.9996296
300.0002218
300.0000695
300.0000188
299.9999565
299.9997855
299.9997296
300.0003071
300.0002421
300.000153
299.9999719
299.9997865
299.9997611
300.0003386
300.0003393
300.0001809
299.9998997
299.9997136
299.999699
300.0002691
300.0002304
299.9999647
299.9996754
299.9995598
299.9995816
300.000039
299.999893
299.999618
299.9994684
299.9994678
299.9995351
299.9998013
299.9998504
299.9998153
299.9996967
299.9995849
299.9995526
299.9998548
299.999829
299.9997034
299.9995944
299.9995395
299.9995732
299.9998435
299.999735
299.9996191
299.9995564
299.9995663
299.9996288
299.999785
299.999692
299.9996147
299.9995965
299.9996236
299.9996767
299.9997767
299.9997161
299.9996747
299.9996588
299.9996712
299.9997238
299.9997954
299.9997633
299.9997276
299.9997046
299.9997238
299.9997889
299.9995779
299.9995625
299.9995098
299.9993827
299.9992891
299.9993267
299.9996224
299.9995205
299.9993668
299.9992543
299.9992494
299.9993638
299.9996053
299.999426
299.9992807
299.9992398
299.9993231
299.9994536
299.9995535
299.9993979
299.9993168
299.9993337
299.9994137
299.9995232
299.9995672
299.9994734
299.9994237
299.9994212
299.9994763
299.9995744
299.9996332
299.9995597
299.9995004
299.9994871
299.9995434
299.9996228
299.9997498
299.99959
299.9994488