/*--------------------------------*- C++ -*----------------------------------*\
| =========                 |                                                 |
| \\      /  F ield         | OpenFOAM: The Open Source CFD Toolbox           |
|  \\    /   O peration     | Version:  4.x                                   |
|   \\  /    A nd           | Web:      www.OpenFOAM.org                      |
|    \\/     M anipulation  |                                                 |
\*---------------------------------------------------------------------------*/
FoamFile
{
    version     2.0;
    format      ascii;
    class       volVectorField;
    location    "0.17";
    object      U;
}
// * * * * * * * * * * * * * * * * * * * * * * * * * * * * * * * * * * * * * //

dimensions      [0 1 -1 0 0 0 0];

internalField   nonuniform List<vector> 
6273
(
(-0.0003475841639 0.0002803258572 0.0002801967982)
(-0.0003421824124 0.0008211728752 0.0002914848343)
(-0.0003321290773 0.001322299113 0.0003122516935)
(-0.0003184123338 0.001740635485 0.0003470930132)
(-0.0003032609802 0.002068462868 0.0003881703317)
(-0.0002873590927 0.002264369238 0.0004473477742)
(-0.0003421871504 0.0002916151137 0.0008207897839)
(-0.0003367662351 0.0008538249539 0.0008534384342)
(-0.0003266644472 0.001378991028 0.000911023631)
(-0.0003125101083 0.001818301311 0.001009831663)
(-0.0002969906531 0.002170823643 0.001118206428)
(-0.0002795896289 0.002383268291 0.001282382101)
(-0.000332142765 0.0003123831141 0.001321677738)
(-0.0003266738222 0.0009114128894 0.00137836493)
(-0.0003171359747 0.001478919753 0.001478290387)
(-0.0003030991124 0.001947716489 0.001655084945)
(-0.0002913258332 0.002341873899 0.001853022343)
(-0.000275559843 0.002572961132 0.00215750144)
(-0.0003184385081 0.0003472250853 0.001739795798)
(-0.0003125325429 0.001010222716 0.001817455528)
(-0.0003031124512 0.001655716703 0.001946866061)
(-0.0002865533406 0.002192070802 0.002191215914)
(-0.0002746965301 0.002675275877 0.002441996947)
(-0.0002548139423 0.002962684859 0.002879816967)
(-0.0003032995098 0.0003883011083 0.002067429634)
(-0.0002970257043 0.001118595312 0.002169783237)
(-0.0002913529455 0.001853652481 0.00234082556)
(-0.0002747102232 0.00244285286 0.002674216539)
(-0.0002739868407 0.00304049732 0.003039422436)
(-0.0002594225456 0.003366462407 0.003684177055)
(-0.000287409429 0.0004474756751 0.002263171133)
(-0.0002796372236 0.001282763896 0.002382062815)
(-0.0002756019408 0.002158122206 0.002571744302)
(-0.0002548445383 0.002880658801 0.002961451801)
(-0.0002594478538 0.003685248421 0.003365195676)
(-0.0002432978172 0.004207663804 0.004206405696)
(-0.002322672001 0.0004476068838 0.0004474439049)
(-0.002305936765 0.001315602796 0.000466060522)
(-0.002270129622 0.00212428023 0.0005010967574)
(-0.002225607134 0.002811395883 0.0005586828348)
(-0.002166991905 0.003361089173 0.0006283076001)
(-0.002110415002 0.003706848885 0.0007267943609)
(-0.002305960712 0.0004662249548 0.001315119338)
(-0.00228964666 0.001369924012 0.001369435232)
(-0.002253817748 0.002218050163 0.001468018513)
(-0.002209731048 0.002940380311 0.001632408195)
(-0.002150761425 0.003531249141 0.001818337924)
(-0.002093144297 0.003905942016 0.002091445153)
(-0.002270196166 0.0005012631048 0.002123498428)
(-0.002253860436 0.001468511375 0.002217260757)
(-0.002217034173 0.002387303459 0.00238650885)
(-0.002174203204 0.003160728435 0.002679514734)
(-0.00211906663 0.00381985173 0.003014480408)
(-0.002069075948 0.004226550843 0.003519528822)
(-0.00222572635 0.0005588496204 0.002810344448)
(-0.002209826785 0.001632902983 0.00293931933)
(-0.002174257088 0.002680312729 0.003159660035)
(-0.002130466031 0.003566016461 0.003564941539)
(-0.002079047928 0.004372028044 0.003988891668)
(-0.002024708179 0.004877830178 0.004709458736)
(-0.002167162364 0.0006284717688 0.00335980235)
(-0.002150910003 0.001818828762 0.003529950847)
(-0.002119177313 0.003015275254 0.003818540041)
(-0.002079105977 0.00398996628 0.004370698206)
(-0.00204548934 0.004977112501 0.004975761686)
(-0.002008873067 0.005537254921 0.006025628139)
(-0.002110633101 0.0007269539567 0.003705365872)
(-0.002093344029 0.002091923159 0.003904446068)
(-0.002069245643 0.003520304248 0.004225036621)
(-0.002024832394 0.004710500998 0.004876291846)
(-0.002008953163 0.00602694861 0.005535683368)
(-0.001990767944 0.006923216038 0.006921727849)
(-0.00456654354 0.0004782399292 0.0004780544971)
(-0.004539934433 0.001408507452 0.0004978666675)
(-0.00448504819 0.00227506847 0.0005356378604)
(-0.00441382597 0.003014188466 0.000597371983)
(-0.004320186567 0.003605757441 0.0006724948228)
(-0.004223710532 0.003978823318 0.0007790433567)
(-0.004539982849 0.0004980533425 0.001407961006)
(-0.004513311756 0.001466558456 0.0014660075)
(-0.004457755352 0.002375346124 0.001572018992)
(-0.004386133706 0.003152260897 0.001746986314)
(-0.004291119295 0.003788812957 0.00194323346)
(-0.004191819663 0.004194189339 0.002231627275)
(-0.004485179662 0.0005358241962 0.002274194514)
(-0.00445783887 0.001572570962 0.002374464345)
(-0.00440052446 0.002555890809 0.002555005298)
(-0.004329064997 0.003383993886 0.002868930196)
(-0.004236800664 0.004088930985 0.003222656133)
(-0.004144192587 0.004521108041 0.003762375523)
(-0.0044140534 0.000597556282 0.003013031341)
(-0.00438631498 0.001747535542 0.003151092101)
(-0.004329164367 0.002869815553 0.003382815544)
(-0.004254005794 0.003817410202 0.003816226636)
(-0.004162218546 0.00468198109 0.004253226952)
(-0.004058559364 0.005226207738 0.005014645763)
(-0.004320505809 0.0006726737254 0.003604363462)
(-0.004291397609 0.001943770949 0.003787402733)
(-0.004237004578 0.003223530092 0.004087499401)
(-0.004162328977 0.00425440347 0.004680527895)
(-0.004088864083 0.00530053192 0.005299061142)
(-0.004000368811 0.005875647251 0.006408979303)
(-0.004224112993 0.000779213556 0.003977240897)
(-0.004192190027 0.00223214156 0.004192587269)
(-0.004144501146 0.003763216095 0.004519475495)
(-0.004058785836 0.005015770686 0.005224545363)
(-0.004000494678 0.006410393174 0.00587395477)
(-0.003914333869 0.007369568058 0.007367999317)
(-0.006829482817 0.0004966785917 0.0004964560429)
(-0.00679189035 0.001463034024 0.0005162402079)
(-0.006713564979 0.002358743643 0.0005545887271)
(-0.006606025715 0.003124460943 0.0006167700357)
(-0.006466299166 0.003733880729 0.000693004907)
(-0.006317357842 0.004115975419 0.0008008477807)
(-0.006791975144 0.0005164630026 0.001462385942)
(-0.006753379186 0.0015214079 0.001520756313)
(-0.006672931305 0.002459715297 0.001628519913)
(-0.006564304754 0.003263716883 0.001803778527)
(-0.006422829573 0.003919132457 0.001999769907)
(-0.006273258307 0.004334960724 0.002284691072)
(-0.006713791103 0.000554807945 0.002357730916)
(-0.006673074798 0.001629168066 0.002458692743)
(-0.006587968586 0.002641445579 0.002640420205)
(-0.006477377691 0.003494285896 0.002955791107)
(-0.006333714136 0.004212956893 0.003307546609)
(-0.006191693938 0.004647113142 0.00384652914)
(-0.006606404737 0.0006169828691 0.003123157983)
(-0.006564607995 0.001804416143 0.003262395346)
(-0.006477541412 0.00295681146 0.003492947829)
(-0.006366564036 0.003928892642 0.003927545822)
(-0.006225882074 0.004810207381 0.004353448161)
(-0.006090918452 0.005365029195 0.005108768509)
(-0.006466818501 0.0006932063988 0.00373235124)
(-0.006423286989 0.00200038108 0.003917573667)
(-0.00633404648 0.003308539112 0.004211359371)
(-0.006226064365 0.004354776941 0.004808573838)
(-0.006098098145 0.005408678906 0.005407029435)
(-0.006004259193 0.005969462889 0.006518353515)
(-0.006318004771 0.0008010321296 0.004114276352)
(-0.006273863336 0.002285259407 0.004333225764)
(-0.00619219682 0.003847464652 0.004645323643)
(-0.006091290161 0.005110024099 0.005363189072)
(-0.006004443632 0.00651992749 0.005967580105)
(-0.005983581622 0.007472917684 0.007471162784)
(-0.009329054222 0.0005238908064 0.0005236002237)
(-0.009275323025 0.001546283586 0.0005437865721)
(-0.009169311604 0.002492793726 0.000583383548)
(-0.009018146846 0.003302232561 0.0006463207018)
(-0.008821068631 0.003941494656 0.0007235658769)
(-0.008600922397 0.004340021816 0.0008301920709)
(-0.009275474175 0.0005440767797 0.001545452179)
(-0.009219885515 0.001606115703 0.001605279718)
(-0.009108986969 0.002595530684 0.001717593913)
(-0.008952728085 0.003443349473 0.001895592948)
(-0.008748271106 0.004127464441 0.00209537997)
(-0.00852408827 0.004557932905 0.002374043179)
(-0.009169701702 0.0005836669528 0.002491544909)
(-0.009109233891 0.001718421514 0.002594263331)
(-0.0089864338 0.002782688682 0.002781415452)
(-0.00881785232 0.003679170846 0.003097896434)
(-0.00859183993 0.004419882304 0.003449226266)
(-0.00835700112 0.004857867469 0.003969768828)
(-0.009018769992 0.0006465896407 0.003300703855)
(-0.0089532269 0.00189639593 0.003441782045)
(-0.008818115013 0.003099158244 0.003677567361)
(-0.008642138399 0.004110264164 0.004108638902)
(-0.008400483117 0.005002735288 0.004525070991)
(-0.008169717925 0.005544399804 0.005231789753)
(-0.00882187534 0.0007238091817 0.00393977036)
(-0.008748987289 0.002096126444 0.00412567814)
(-0.008592353612 0.003450430209 0.00441801814)
(-0.008400762166 0.004526665157 0.005000801945)
(-0.008117532747 0.005561190322 0.005559240624)
(-0.007913880109 0.006075356841 0.006572051112)
(-0.008601892407 0.0008303998368 0.004338162269)
(-0.008525017803 0.002374704814 0.004556000922)
(-0.008357784174 0.003970874651 0.004855831314)
(-0.008170306477 0.005233301961 0.005542267893)
(-0.007914182049 0.006573951916 0.006073155517)
(-0.007850411213 0.007414061397 0.007411870205)
(-0.01173104365 0.0005576435742 0.0005572336027)
(-0.01166044125 0.001644257166 0.0005792825834)
(-0.01152428675 0.002649295139 0.000622856518)
(-0.01132752175 0.003515634416 0.0006900074688)
(-0.01106846921 0.004199658623 0.0007738571769)
(-0.01077362116 0.004633505249 0.0008849964214)
(-0.01166073167 0.0005796923658 0.001643113237)
(-0.01158741617 0.001710106181 0.001708951097)
(-0.01144298047 0.002760536665 0.001834649034)
(-0.0112368344 0.003667895334 0.002027842469)
(-0.0109649642 0.00439742656 0.002255282179)
(-0.01066728645 0.004867364719 0.002554959539)
(-0.01152500798 0.0006232521661 0.002647677576)
(-0.01144343385 0.001835787394 0.002758875484)
(-0.01127865426 0.002968122425 0.002966445157)
(-0.01104881755 0.003936196923 0.003302388453)
(-0.01073747891 0.004728053661 0.003695739776)
(-0.0104195995 0.005222886713 0.00424483195)
(-0.01132860346 0.0006903716226 0.003513808419)
(-0.01123769733 0.002028927629 0.00366598055)
(-0.01104925498 0.00330404386 0.003934200009)
(-0.01080814239 0.004396836257 0.004394788336)
(-0.01047416423 0.005343189887 0.00489205154)
(-0.01018548253 0.005955280648 0.005641957896)
(-0.01106975984 0.0007741657214 0.004197717354)
(-0.01096611683 0.002256245745 0.00439534296)
(-0.01073828898 0.003697276689 0.004725798303)
(-0.01047460572 0.004894045046 0.005340791071)
(-0.0100705758 0.0059897622 0.005987328346)
(-0.009832940235 0.006632120497 0.007024706073)
(-0.01077507389 0.0008852231136 0.004631474993)
(-0.01066873438 0.002555733846 0.004865168567)
(-0.01042086256 0.004246171859 0.005220463176)
(-0.01018650937 0.005643822452 0.005952671364)
(-0.009833547171 0.007027100623 0.006629351842)
(-0.009866548472 0.00793750304 0.007934657527)
(-0.0002744284017 0.0005073159808 0.002317749391)
(-0.0002657713286 0.001429822621 0.002450998141)
(-0.000268336354 0.002433106806 0.002660043082)
(-0.0002439709718 0.003207570017 0.003091866899)
(-0.0002575941912 0.004175229579 0.003573622821)
(-0.0002039276057 0.004570181873 0.004594826251)
(-0.000266032329 0.0005749643237 0.002238993372)
(-0.0002549035364 0.001621351291 0.00238766016)
(-0.000264632114 0.002780035815 0.002646100318)
(-0.0002359435182 0.003668174157 0.003136426757)
(-0.000265149396 0.004802579423 0.003787365415)
(-0.0002155113062 0.005289292597 0.004831604338)
(-0.0002642142241 0.0006524495989 0.001993571717)
(-0.0002521703008 0.001841174062 0.002138781705)
(-0.0002719316154 0.0031908779 0.002425917963)
(-0.000245956022 0.004304490508 0.002939021745)
(-0.0002862274724 0.005755783947 0.003727617114)
(-0.0002656821951 0.006689215941 0.004840091294)
(-0.0002656079341 0.000729078667 0.001580794413)
(-0.0002533928174 0.002070616068 0.001710446672)
(-0.0002826436996 0.003608590006 0.001982671744)
(-0.0002664794622 0.005001893453 0.002442507767)
(-0.0003261450761 0.006787032085 0.003237592442)
(-0.0003665328485 0.008408338834 0.004259900614)
(-0.0002696459495 0.0007897512853 0.001017808449)
(-0.0002577802514 0.002257607047 0.0011084643)
(-0.0002952291651 0.003955680088 0.001303120833)
(-0.0002885740484 0.005598177742 0.00163041884)
(-0.0003633350694 0.007684644721 0.002229139024)
(-0.0004846903333 0.01001073114 0.002983875937)
(-0.0002727485289 0.0008240530332 0.000351255453)
(-0.0002609396609 0.00236606944 0.000384062479)
(-0.0003015664046 0.00415584348 0.000456056195)
(-0.0003014986001 0.005954111127 0.0005742824852)
(-0.000380697943 0.008209228428 0.0008037154002)
(-0.0005700018488 0.01099810453 0.001079501272)
(-0.0002727732451 0.0008240633212 -0.0003538284458)
(-0.0002609634211 0.002366099689 -0.0003866110121)
(-0.0003015869552 0.004155883841 -0.0004585388584)
(-0.0003015189621 0.005954168572 -0.0005766922729)
(-0.0003807155512 0.008209277915 -0.0008059918882)
(-0.0005700331409 0.01099817797 -0.00108176772)
(-0.000269721609 0.0007897793829 -0.001020296793)
(-0.0002578543608 0.00225769158 -0.001110927774)
(-0.0002952949261 0.00395579428 -0.001305519954)
(-0.0002886388755 0.005598333681 -0.001632750719)
(-0.0003633915014 0.007684781639 -0.002231353604)
(-0.0004847819312 0.01001092758 -0.002986071769)
(-0.0002657208365 0.0007291223581 -0.00158311856)
(-0.0002535030935 0.002070751152 -0.001712744045)
(-0.0002827432511 0.003608778625 -0.001984906422)
(-0.0002665812575 0.005002146451 -0.002444674936)
(-0.0003262364878 0.006787254579 -0.003239633048)
(-0.0003666657399 0.008408587532 -0.004261903272)
(-0.0002643594468 0.0006525058762 -0.00199568617)
(-0.0002523126989 0.001841354582 -0.002140864576)
(-0.0002720631418 0.003191139021 -0.002427941976)
(-0.0002460879287 0.004304855991 -0.002940971633)
(-0.0002863424821 0.005756130247 -0.003729433063)
(-0.0002658025491 0.006689691281 -0.004841851507)
(-0.0002662035024 0.0005750363688 -0.002240848133)
(-0.0002550708812 0.001621574775 -0.002389489206)
(-0.0002647858437 0.002780370764 -0.002647880258)
(-0.0002360929215 0.003668655481 -0.003138129693)
(-0.0002652700927 0.00480305779 -0.003788963117)
(-0.000215621155 0.005290037908 -0.004833096508)
(-0.0002746210344 0.0005073981075 -0.002319347142)
(-0.0002659589188 0.001430076978 -0.002452563104)
(-0.0002685089712 0.002433503073 -0.002661570592)
(-0.0002441356297 0.003208133564 -0.003093318649)
(-0.0002577287725 0.00417583491 -0.003575003197)
(-0.0002040576117 0.004571038197 -0.004595968272)
(-0.002050341866 0.0008296905614 0.00382992195)
(-0.002033157649 0.002344858265 0.004054222405)
(-0.002024221957 0.003993802593 0.004407034253)
(-0.001977725943 0.005274803878 0.005128308592)
(-0.002007292006 0.006894662929 0.005874609229)
(-0.002050384881 0.00767572203 0.007512035847)
(-0.002004041421 0.0009446929542 0.003726610308)
(-0.001980091038 0.002669856192 0.00397726995)
(-0.001987490025 0.004590242384 0.004399762307)
(-0.001920806719 0.006056353951 0.005201168803)
(-0.001982955136 0.007998651792 0.00616024305)
(-0.00200432341 0.008826892183 0.007772712617)
(-0.001966746796 0.001072777569 0.003344908042)
(-0.001937617955 0.003030401541 0.003584691552)
(-0.001963403852 0.00526217693 0.004034962769)
(-0.001886978973 0.00704909377 0.004851275411)
(-0.001965249076 0.009455198241 0.005973275821)
(-0.001941623422 0.01094872924 0.007495522557)
(-0.001941163963 0.001199264909 0.002666593321)
(-0.001906742489 0.003396129358 0.002879553729)
(-0.00194775409 0.00592573378 0.003294272155)
(-0.001863502955 0.008097325479 0.004013662684)
(-0.001954248624 0.01095014593 0.005116074795)
(-0.001927022204 0.01330593772 0.006368029475)
(-0.001926451015 0.001297733151 0.001724498074)
(-0.001886352816 0.003690168469 0.001872172439)
(-0.001935178599 0.006469537759 0.00216443837)
(-0.001844225487 0.008974859165 0.002671305497)
(-0.001918723004 0.0122133321 0.003490555007)
(-0.001955498823 0.01541883988 0.004342871475)
(-0.001920623817 0.001352847437 0.000596184724)
(-0.00187640072 0.003859220607 0.0006494081551)
(-0.001927069444 0.00678022614 0.0007567937742)
(-0.001829864025 0.009492567833 0.0009385997439)
(-0.001877555004 0.01293442875 0.001252246608)
(-0.001988012006 0.01672936576 0.001550500479)
(-0.001920758329 0.001352865609 -0.0005991557304)
(-0.001876528641 0.003859273689 -0.0006523341016)
(-0.001927183419 0.006780304623 -0.0007596047776)
(-0.001829969746 0.00949267172 -0.0009412721945)
(-0.001877626185 0.01293453633 -0.001254674004)
(-0.001988096396 0.01672954127 -0.001552838414)
(-0.001926829106 0.001297782108 -0.001727348858)
(-0.001886715297 0.003690314652 -0.001874978305)
(-0.001935507152 0.006469754155 -0.002167132359)
(-0.001844533508 0.008975144843 -0.002673877862)
(-0.001918956038 0.01221361384 -0.00349291674)
(-0.001955791476 0.01541927338 -0.004345167179)
(-0.001941732561 0.001199342193 -0.002669205849)
(-0.001907291023 0.003396365185 -0.002882122634)
(-0.001948256265 0.005926081189 -0.003296736888)
(-0.001863969768 0.008097784616 -0.004016011931)
(-0.00195461577 0.01095055064 -0.005118216103)
(-0.001927452298 0.01330660106 -0.006370032609)
(-0.001967462885 0.001072874142 -0.003347236938)
(-0.001938311195 0.003030709363 -0.003586974577)
(-0.001964049342 0.0052626405 -0.004037155187)
(-0.001887582374 0.007049738222 -0.004853346488)
(-0.001965746461 0.009455834212 -0.005975133962)
(-0.001942167368 0.0109495515 -0.007497165828)
(-0.002004858845 0.0009448153448 -0.003728603181)
(-0.00198088614 0.002670228038 -0.003979227091)
(-0.001988235171 0.004590817437 -0.004401647317)
(-0.001921501487 0.006057180222 -0.005202932025)
(-0.001983526015 0.007999533511 -0.006161835128)
(-0.002004870239 0.008828165484 -0.00777407249)
(-0.00205123729 0.0008298203063 -0.003831608508)
(-0.002034027191 0.002345272392 -0.004055858183)
(-0.002025042066 0.003994460875 -0.004408616952)
(-0.001978498083 0.00527574721 -0.005129782101)
(-0.002007957223 0.00689572901 -0.005875964824)
(-0.002050996321 0.007677238057 -0.007513039806)
(-0.004118091216 0.0008899067448 0.004116900197)
(-0.004084226136 0.002493429916 0.004360439143)
(-0.00405316617 0.004260546493 0.004714199834)
(-0.003960604992 0.005572563582 0.005510129457)
(-0.003971496886 0.007304005421 0.006226276691)
(-0.003973586584 0.00807314218 0.007994394144)
(-0.004024730643 0.001017378574 0.004008979143)
(-0.003979605995 0.002833149346 0.004284557182)
(-0.00396611178 0.004905267482 0.004709105257)
(-0.003835383796 0.006386291517 0.005601988632)
(-0.003907173863 0.008555367359 0.006523791552)
(-0.003844068554 0.009346092362 0.008274909467)
(-0.003936177401 0.001157038865 0.00360359393)
(-0.003878219396 0.003212222339 0.003868916303)
(-0.003878235041 0.005631828472 0.004326646209)
(-0.003700363114 0.007438936599 0.005236636757)
(-0.003823341641 0.01017865447 0.006337850325)
(-0.003616288615 0.01172994347 0.00795347733)
(-0.003860314749 0.001296124391 0.002877918691)
(-0.00378779546 0.003602964332 0.003113934157)
(-0.003790551725 0.006359070741 0.0035434477)
(-0.003555723983 0.00857995777 0.004350432301)
(-0.003658275167 0.01186716423 0.005460939197)
(-0.003408024392 0.01438888973 0.006762936)
(-0.00380417317 0.001405101155 0.001864581724)
(-0.003715167403 0.003923060283 0.002028731761)
(-0.003708056927 0.006963697903 0.00233625649)
(-0.003416687905 0.009564719602 0.002908518727)
(-0.003414039476 0.01332286338 0.003754177487)
(-0.003189696144 0.01687934746 0.004654992354)
(-0.003774614603 0.001466315616 0.0006450315107)
(-0.003674311412 0.00410914269 0.0007043258386)
(-0.003657539247 0.007313586834 0.0008181450566)
(-0.003324984371 0.01015794843 0.001024866938)
(-0.003226546593 0.0141710194 0.00135136301)
(-0.003030537648 0.01848598612 0.001678422993)
(-0.00377488776 0.001466338392 -0.0006484090334)
(-0.003674570131 0.004109212483 -0.0007076385874)
(-0.003657765303 0.007313687807 -0.0008212895527)
(-0.003325185012 0.01015807888 -0.001027839989)
(-0.003226708021 0.01417114845 -0.001354046886)
(-0.003030724937 0.01848621199 -0.001680865563)
(-0.003804929511 0.001405163068 -0.001867769221)
(-0.003715888679 0.00392325241 -0.002031858117)
(-0.003708704404 0.006963973401 -0.002339229668)
(-0.003417260853 0.00956507433 -0.002911331139)
(-0.003414528337 0.01332317916 -0.003756712728)
(-0.003190226856 0.01687981277 -0.004657382206)
(-0.003861431646 0.001296220548 -0.00288078057)
(-0.003788867071 0.003603265571 -0.003116739757)
(-0.003791526566 0.006359507136 -0.00354612251)
(-0.003556572408 0.008580541263 -0.004352954349)
(-0.00365898557 0.01186765497 -0.005463186803)
(-0.003408638881 0.01438973235 -0.006765011999)
(-0.003937544742 0.001157156208 -0.003606085271)
(-0.003879538403 0.003212599032 -0.003871355759)
(-0.003879458581 0.005632385646 -0.004328981047)
(-0.003701459691 0.007439720713 -0.005238821874)
(-0.003824276013 0.01017937099 -0.006339774577)
(-0.003617100394 0.0117309506 -0.007955136929)
(-0.004026258173 0.001017524843 -0.004011061567)
(-0.003981092059 0.002833588575 -0.004286604561)
(-0.003967507694 0.004905941654 -0.004711075027)
(-0.003836659865 0.006387271097 -0.005603810745)
(-0.003908259267 0.008556382843 -0.0065254092)
(-0.003845034071 0.009347644557 -0.008276232905)
(-0.004119744791 0.0008900501806 -0.004118615961)
(-0.004085831991 0.002493905097 -0.004362104697)
(-0.004054693939 0.004261305368 -0.004715816698)
(-0.003962032316 0.00557365538 -0.005511624817)
(-0.003972755994 0.007305264887 -0.006227651529)
(-0.003974734165 0.008074913182 -0.007995415981)
(-0.006155561635 0.0009123161388 0.004256586163)
(-0.006111793443 0.002537694882 0.004506239551)
(-0.006045581232 0.004336597794 0.004838354082)
(-0.005964259572 0.005620709411 0.005675468163)
(-0.005968098656 0.007371587744 0.006333611076)
(-0.006120804099 0.00796857446 0.008139498546)
(-0.006008325564 0.001045246827 0.00414154095)
(-0.005959932718 0.002870998635 0.004428026427)
(-0.005919378158 0.004996890854 0.004830516256)
(-0.005839997311 0.006408100982 0.005788862192)
(-0.005982713579 0.008678740696 0.006607068285)
(-0.006142710087 0.009209067607 0.008460942604)
(-0.005873569756 0.001189946396 0.003723367788)
(-0.005818192723 0.00325087318 0.004005142812)
(-0.005803339738 0.00575669834 0.004451443389)
(-0.005710016045 0.007465784307 0.005440849339)
(-0.006039762853 0.01043090315 0.006434008784)
(-0.006174492106 0.01163383674 0.008232404897)
(-0.005762009335 0.001337210746 0.002980470674)
(-0.00569839757 0.003654523925 0.003234141146)
(-0.005699604355 0.006536307072 0.003666941773)
(-0.005571998438 0.008680129478 0.004559060166)
(-0.005969831255 0.01234591359 0.005574779641)
(-0.00626557619 0.01459288449 0.007192272917)
(-0.005683153075 0.001456467299 0.001937088882)
(-0.005606535922 0.003998293189 0.002115608954)
(-0.005607756319 0.007206678338 0.002434191859)
(-0.005426404175 0.009794798269 0.003082655704)
(-0.005764066043 0.0141048745 0.003851996668)
(-0.006183713259 0.01758470502 0.005126767377)
(-0.005642992629 0.00152500529 0.0006710605471)
(-0.005556843472 0.004202362313 0.0007359602099)
(-0.00555424559 0.007605371751 0.000854990849)
(-0.005326170904 0.01049035473 0.001094953353)
(-0.00560258295 0.01519811174 0.001386121527)
(-0.005962838671 0.01960069848 0.001885655208)
(-0.005643477682 0.00152503733 -0.0006752179622)
(-0.005557300427 0.00420246473 -0.0007400173886)
(-0.005554634484 0.007605513704 -0.0008588029619)
(-0.005326520171 0.01049051234 -0.001098522372)
(-0.005602907942 0.01519830195 -0.001389423183)
(-0.005963168228 0.01960096605 -0.001888681581)
(-0.005684475039 0.001456553125 -0.001940914068)
(-0.005607782171 0.003998562127 -0.002119343982)
(-0.005608843283 0.007207059066 -0.00243772185)
(-0.00542734719 0.009795234297 -0.003085945471)
(-0.005764908577 0.01410532684 -0.00385495542)
(-0.006184586764 0.01758535845 -0.005129581542)
(-0.005763909915 0.001337339722 -0.002983779596)
(-0.005700201567 0.003654926586 -0.003237379614)
(-0.005701211726 0.00653689897 -0.003670027309)
(-0.005573351061 0.008680872292 -0.004561947979)
(-0.00597097783 0.01234665476 -0.005577317749)
(-0.006266648157 0.01459390859 -0.007194645447)
(-0.005875811397 0.001190095442 -0.00372615574)
(-0.00582033788 0.003251345808 -0.004007879628)
(-0.005805300893 0.005757406791 -0.00445407606)
(-0.005711725145 0.007466740054 -0.005443331937)
(-0.006041224432 0.01043187288 -0.006436175317)
(-0.006175841722 0.01163516662 -0.008234379589)
(-0.006010762715 0.001045423532 -0.004143819351)
(-0.005962297459 0.00287152573 -0.004430280827)
(-0.005921587527 0.00499770135 -0.00483270407)
(-0.00584198981 0.006409251499 -0.005790921275)
(-0.005984452922 0.00867994206 -0.006608899119)
(-0.006144331694 0.009210965856 -0.008462612736)
(-0.006158157496 0.0009124797039 -0.004258404608)
(-0.006114320918 0.002538241642 -0.004508024985)
(-0.006047990019 0.004337472997 -0.004840108513)
(-0.005966497026 0.005621958442 -0.005677121253)
(-0.005970115697 0.007373002677 -0.006335160872)
(-0.006122648387 0.007970620679 -0.00814077838)
(-0.008356569454 0.0009386886477 0.004479964233)
(-0.008272065742 0.002615269828 0.004727372155)
(-0.008080836961 0.00442431475 0.005034218905)
(-0.0078968823 0.005662065207 0.005840236851)
(-0.007649237246 0.007262675991 0.006436993373)
(-0.007890438683 0.007652233385 0.008081845183)
(-0.008122978963 0.001068797529 0.004346310688)
(-0.00803141577 0.00292672027 0.00462961298)
(-0.007835222479 0.005044798198 0.004993739765)
(-0.007684736652 0.006356455533 0.005939335709)
(-0.007598484218 0.008495694817 0.006728244029)
(-0.008110603964 0.008644832544 0.008489914339)
(-0.007904938638 0.001210645421 0.003894045247)
(-0.007805635837 0.003282433563 0.00417628944)
(-0.007622173359 0.005776838437 0.004587517161)
(-0.007508738185 0.007347959076 0.005592798028)
(-0.007699626127 0.01028891295 0.006563050166)
(-0.008398202107 0.01083645331 0.008455598724)
(-0.007716395348 0.001356414214 0.003110017954)
(-0.007610602193 0.003671855345 0.003365155698)
(-0.007455976561 0.006560614332 0.003777835792)
(-0.007395380427 0.008585269559 0.004707746314)
(-0.007719549797 0.01235520566 0.005675026999)
(-0.008582800647 0.01395833943 0.007681688163)
(-0.007575806408 0.001479314385 0.002018154577)
(-0.007461111798 0.004018031093 0.002199176567)
(-0.007330284329 0.007266155104 0.002511642271)
(-0.007277163469 0.009805432099 0.003203489703)
(-0.007657363055 0.01436242223 0.003947640434)
(-0.008201224372 0.01749861192 0.005719274029)
(-0.007500981135 0.001551360899 0.0006980457722)
(-0.007380723309 0.004228235801 0.0007639645297)
(-0.007258964486 0.007695730632 0.0008819771836)
(-0.007188853851 0.01060860872 0.001141356541)
(-0.00759066555 0.01566981128 0.001433581207)
(-0.007500729739 0.02001954712 0.002144961596)
(-0.007501840866 0.001551409829 -0.0007036001316)
(-0.007381518144 0.004228407188 -0.0007693638023)
(-0.007259560903 0.007695952407 -0.0008869820884)
(-0.007189435339 0.01060883686 -0.001146107431)
(-0.007591336759 0.01567005045 -0.001437997653)
(-0.007501286472 0.02001971629 -0.002149015206)
(-0.007578061617 0.001479450759 -0.002023042718)
(-0.00746320503 0.0040184819 -0.002203933749)
(-0.00733200838 0.007266780777 -0.002516102548)
(-0.00727864356 0.009806110533 -0.003207623528)
(-0.007658895871 0.01436301898 -0.003951335991)
(-0.008202656078 0.01749920642 -0.005722686803)
(-0.007719446208 0.00135661002 -0.00311398154)
(-0.007613466413 0.003672481304 -0.003369037496)
(-0.007458421099 0.006561530583 -0.003781548148)
(-0.007397396096 0.008586401837 -0.00471120812)
(-0.007721422667 0.0123562788 -0.005678065676)
(-0.008584596616 0.01395959734 -0.007684382042)
(-0.00790831298 0.00121086185 -0.003897213259)
(-0.007808840243 0.003283116489 -0.004179419665)
(-0.007625041665 0.005777869897 -0.00459057526)
(-0.007511212919 0.007349314485 -0.005595709779)
(-0.007701820454 0.01029024913 -0.006565642334)
(-0.008400292046 0.01083820978 -0.008457845756)
(-0.008126514863 0.001069024399 -0.004348838532)
(-0.008034830594 0.002927421006 -0.004632147949)
(-0.007838389189 0.005045890845 -0.004996258925)
(-0.007687568224 0.006357956153 -0.00594177488)
(-0.007600962705 0.00849725904 -0.006730486361)
(-0.008113013616 0.008647105549 -0.008491910793)
(-0.008360248914 0.0009388984303 -0.004481883266)
(-0.008275671087 0.002615944788 -0.004729303711)
(-0.008084274404 0.004425415757 -0.005036178688)
(-0.007900062305 0.005663590542 -0.005842173406)
(-0.007652113543 0.007264408569 -0.006438888173)
(-0.007893061698 0.007654616719 -0.008083459524)
(-0.01044797407 0.001003303513 0.004787268783)
(-0.01033710664 0.002844382212 0.005055594279)
(-0.01004423889 0.004777173628 0.005427384185)
(-0.00983646416 0.006246839907 0.006275358876)
(-0.009470606035 0.007881340666 0.007017206631)
(-0.009866669557 0.008525978741 0.008534400806)
(-0.0101459781 0.001142404391 0.004642526981)
(-0.0100435219 0.003192378205 0.004946463996)
(-0.009740368082 0.005443381994 0.005353986523)
(-0.009656170769 0.007057548269 0.006338386217)
(-0.009403004162 0.009090840047 0.007203768966)
(-0.01022698357 0.009422568865 0.008809583546)
(-0.009881166404 0.001293787915 0.004154617131)
(-0.009796908691 0.003571092494 0.004467484956)
(-0.009522600949 0.006204878669 0.004897547149)
(-0.009612299554 0.008065574223 0.005980215864)
(-0.009542364543 0.01073493485 0.006949266131)
(-0.01090359167 0.01115627425 0.008666964558)
(-0.009676598636 0.001449539701 0.003314923629)
(-0.009617737336 0.00397312357 0.003607295254)
(-0.009416096004 0.007047083081 0.00402501566)
(-0.009711838994 0.009242899409 0.005041392809)
(-0.009913583079 0.01277864155 0.006069995564)
(-0.01173080042 0.01371623312 0.008093928369)
(-0.009542468413 0.001582925239 0.002147872225)
(-0.009505725005 0.00433285307 0.002361135896)
(-0.009395048849 0.007828167136 0.002685869543)
(-0.009817151608 0.01047962918 0.003446301327)
(-0.01034039904 0.01494581431 0.00434661857)