/*--------------------------------*- C++ -*----------------------------------*\
  =========                 |
  \\      /  F ield         | OpenFOAM: The Open Source CFD Toolbox
   \\    /   O peration     | Website:  https://openfoam.org
    \\  /    A nd           | Version:  7
     \\/     M anipulation  |
\*---------------------------------------------------------------------------*/
FoamFile
{
    version     2.0;
    format      ascii;
    class       volScalarField;
    location    "0.00264";
    object      mag(U);
}
// * * * * * * * * * * * * * * * * * * * * * * * * * * * * * * * * * * * * * //

dimensions      [0 1 -1 0 0 0 0];

internalField   nonuniform List<scalar> 
5000
(
0.075586828
0.076422653
0.074225307
0.076433724
0.07530778
0.075565839
0.075532577
0.075533236
0.075595209
0.075587348
0.075568967
0.075569035
0.075569417
0.075567381
0.075564495
0.075562558
0.075561307
0.075560148
0.075559012
0.075557896
0.075556806
0.075555724
0.075554647
0.075553603
0.075552587
0.075551583
0.075550595
0.075549624
0.075548673
0.07554774
0.075546824
0.075545918
0.075545027
0.075544153
0.075543297
0.075542455
0.075541629
0.075540816
0.075540012
0.075539222
0.075538448
0.075537689
0.075536944
0.075536209
0.075535484
0.075534771
0.075534064
0.075533365
0.075532686
0.07553202
0.07553136
0.07553071
0.07553007
0.07552944
0.075528824
0.075528219
0.075527637
0.07552728
0.075527312
0.075527407
0.0755274
0.075527411
0.075527437
0.075527539
0.075527886
0.075528736
0.075528358
0.075526309
0.075525372
0.075525426
0.0755255
0.075525726
0.075524667
0.07552345
0.075523751
0.075524228
0.075524281
0.075523701
0.075523871
0.075524573
0.075523354
0.075520558
0.075520281
0.075522304
0.075522014
0.075519767
0.075519631
0.07552016
0.075518372
0.075517688
0.075519636
0.075519444
0.075516819
0.075516378
0.0755175
0.07551633
0.075515543
0.075517097
0.075516878
0.07551442
0.075514019
0.07551495
0.075513542
0.075513125
0.075514036
0.07551264
0.075512218
0.075513117
0.075511748
0.075511179
0.075512918
0.075512751
0.075510504
0.075510107
0.075511876
0.075511696
0.075509397
0.07550898
0.075510697
0.075510515
0.075508395
0.075507248
0.075507325
0.075507413
0.075507731
0.075508379
0.0755082
0.075506596
0.075506239
0.07550775
0.075507579
0.075505639
0.075505344
0.075506013
0.075505007
0.075504147
0.075504202
0.075504276
0.075504485
0.075503938
0.075503899
0.075505009
0.075504764
0.075503079
0.075502811
0.075503717
0.075503274
0.075502486
0.075502497
0.075502167
0.075502154
0.075502311
0.075501428
0.07550124
0.075502308
0.07550218
0.075500813
0.075500622
0.075501105
0.075500391
0.075500164
0.075500576
0.075499903
0.075499678
0.075500498
0.075500381
0.075499288
0.075499029
0.075499689
0.075499585
0.075498703
0.075498517
0.075499079
0.075498992
0.07549814
0.075498003
0.075498281
0.075497781
0.075497625
0.075497883
0.075497418
0.075497293
0.07549754
0.075497061
0.075496688
0.075496864
0.075497135
0.075497099
0.075496509
0.075496376
0.075496936
0.075496852
0.075496098
0.075496003
0.075496253
0.075495808
0.075495702
0.075495959
0.075495524
0.075495398
0.075495642
0.075495237
0.075495143
0.075495715
0.075495639
0.075494896
0.075494781
0.07549502
0.075494635
0.075494547
0.075494791
0.0754944
0.075494292
0.075494817
0.075494744
0.075494048
0.075493951
0.075494273
0.075493933
0.075493439
0.075493444
0.075493455
0.075493465
0.075493482
0.075493168
0.075492928
0.07549295
0.075492976
0.075493071
0.075493268
0.075493213
0.075492693
0.075492362
0.075492379
0.075492394
0.075492444
0.075492455
0.075492496
0.075492467
0.07549219
0.075491915
0.07549194
0.075491935
0.07549157
0.075491327
0.075491337
0.07549135
0.075491397
0.075491494
0.075491808
0.075491725
0.075490969
0.075490867
0.075491164
0.075490663
0.075490523
0.075491182
0.075491096
0.075490235
0.075490113
0.075490398
0.075489958
0.075489576
0.075489604
0.075489639
0.075489773
0.075490051
0.075489985
0.075489276
0.075489173
0.075489914
0.075489815
0.075488845
0.075488719
0.075489058
0.075488547
0.075488426
0.075488748
0.075488236
0.075488124
0.075488459
0.075487948
0.075487511
0.075487535
0.07548753
0.075487617
0.07548764
0.07548779
0.075488069
0.075487706
0.075486831
0.075486537
0.075486597
0.075486666
0.075486889
0.075486703
0.075486683
0.075486787
0.075486182
0.075485736
0.07548574
0.075485745
0.075485761
0.075485798
0.075485906
0.075485747
0.075485739
0.075485798
0.075485202
0.075485123
0.075485465
0.07548495
0.075484832
0.075485577
0.075485482
0.075484536
0.075484366
0.075484645
0.075484225
0.075483927
0.075484
0.075483861
0.075483764
0.075483775
0.075483789
0.075483844
0.075484001
0.075483895
0.075483307
0.07548302
0.075483092
0.075482963
0.075482875
0.075482895
0.075482926
0.075483032
0.075483008
0.075482847
0.07548277
0.075482471
0.075481977
0.075481884
0.075481914
0.075481947
0.075482056
0.075481802
0.075481608
0.075481667
0.075481759
0.075482078
0.075482014
0.075481399
0.075481311
0.075481636
0.075481235
0.075480593
0.075480578
0.075480622
0.075480669
0.075480821
0.075480614
0.075480581
0.075480964
0.0754809
0.075480378
0.075480282
0.075480435
0.07548018
0.075480115
0.07548026
0.075479992
0.075479893
0.075480016
0.075479798
0.075479744
0.075480032
0.075479983
0.075479605
0.07547945
0.075479482
0.075479531
0.075479698
0.075479648
0.075479281
0.075479208
0.075479465
0.075479425
0.075479085
0.075478996
0.07547907
0.075478942
0.075478851
0.075478897
0.07547897
0.075478963
0.075478775
0.075478746
0.07547883
0.075478705
0.075478666
0.075478731
0.075478626
0.075478562
0.075478593
0.075478549
0.075478508
0.075478516
0.075478529
0.075478537
0.075478548
0.075478578
0.075478634
0.075478715
0.075478825
0.075478967
0.075479144
0.075479362
0.075479628
0.075479951
0.075480343
0.075480813
0.075481374
0.075482034
0.075482798
0.075483665
0.07548463
0.075485684
0.075486818
0.07548802
0.075489285
0.075490602
0.075491965
0.075493363
0.075494788
0.07549623
0.075497654
0.075499062
0.075500497
0.075501955
0.075503423
0.075504824
0.075506072
0.075507303
0.075508595
0.075509911
0.075511253
0.075512621
0.0755141
0.075515721
0.075517475
0.075519316
0.075521188
0.075523158
0.075525304
0.075527624
0.07553003
0.075532364
0.07553468
0.075537137
0.075539775
0.07554248
0.075545
0.075547301
0.075549556
0.075551862
0.075554211
0.075556576
0.075558916
0.075561136
0.07556311
0.075564852
0.075566608
0.075568626
0.075570935
0.075573232
0.075575264
0.075577323
0.075579808
0.075582757
0.075585659
0.075588014
0.075590079
0.075592244
0.075594662
0.075597049
0.07559902
0.075600746
0.075602466
0.075604212
0.075605847
0.075607274
0.075608616
0.075609988
0.075611317
0.075612411
0.075613178
0.075613642
0.07561423
0.075615399
0.075616602
0.07561689
0.075616514
0.07561673
0.075618334
0.07562051
0.075621771
0.075622033
0.075622381
0.07562381
0.075625848
0.075627209
0.075627799
0.075628385
0.075629703
0.075631445
0.075632701
0.075633396
0.075633968
0.075634994
0.075636451
0.07563767
0.075638437
0.075639055
0.075640016
0.075641376
0.075642659
0.075643745
0.075644792
0.075645781
0.075646637
0.075647296
0.07564795
0.07564896
0.075650182
0.07565118
0.075651965
0.075652736
0.075653587
0.075654455
0.075655243
0.075655925
0.075656268
0.075656326
0.075657064
0.075658922
0.075660897
0.075662304
0.075663491
0.075664672
0.075665751
0.075666611
0.075667459
0.075668706
0.075670148
0.07567125
0.075671929
0.075672137
0.075672026
0.075671964
0.075671826
0.0756715
0.075670915
0.07566979
0.075669798
0.075672455
0.075675915
0.075677916
0.075678894
0.075679661
0.075680648
0.075681874
0.075682696
0.075682794
0.075683117
0.075684285
0.075685022
0.075684923
0.075684868
0.075684734
0.075684459
0.07568416
0.07568359
0.075682416
0.075681969
0.075684302
0.07568764
0.075688391
0.075687929
0.075687707
0.075686952
0.075685463
0.075685594
0.075688048
0.075689539
0.075688755
0.075687726
0.075688531
0.075691047
0.075692148
0.075691749
0.075691506
0.075690677
0.075689167
0.075689547
0.075693074
0.075696338
0.075696492
0.075696018
0.075695907
0.07569554
0.075695063
0.075694097
0.075693664
0.075695742
0.075698812
0.075699792
0.075699594
0.075699515
0.075699273
0.075698846
0.075698081
0.075696552
0.07569653
0.075699126
0.075700826
0.075700087
0.075698994
0.075698812
0.075700937
0.075704
0.075704837
0.075704527
0.075704422
0.075704085
0.075703606
0.075702675
0.075702032
0.075704028
0.075707046
0.07570712
0.075706461
0.075706019
0.07570502
0.075705977
0.075708607
0.075709166
0.075708546
0.075708169
0.075706869
0.075706535
0.075709506
0.075712821
0.075712768
0.075712127
0.075711791
0.07571046
0.075710333
0.075712813
0.075714874
0.075714248
0.07571293
0.075713123
0.075715528
0.075717987
0.075718228
0.075717737
0.075717307
0.075717015
0.07571823
0.075720086
0.075720346
0.075719655
0.075718919
0.075719361
0.075721319
0.075722263
0.075721907
0.07572149
0.075720414
0.075720506
0.075723391
0.075726086
0.075726177
0.075725718
0.075725336
0.075724271
0.075724286
0.075726691
0.075729329
0.075730164
0.075730031
0.075729871
0.075729581
0.075728946
0.075729249
0.075731311
0.075733207
0.07573344
0.075733127
0.075732958
0.075732465
0.075732124
0.075733435
0.075735554
0.075736023
0.075735252
0.075734284
0.075734416
0.075736798
0.07573912
0.075739166
0.075738524
0.075738036
0.075738657
0.075740605
0.075741492
0.075740818
0.075739823
0.075739875
0.075742063
0.07574457
0.075745041
0.075744386
0.075743578
0.075743671
0.075745696
0.075748054
0.075748786
0.075748483
0.075748175
0.075748894
0.075750419
0.07575108
0.075750648
0.075750079
0.075750646
0.075752737
0.075754746
0.075755669
0.075756175
0.075756436
0.075756366
0.07575609
0.075755817
0.075756558
0.0757583
0.075759185
0.075758758
0.075757987
0.075758163
0.075760098
0.075762263
0.075762776
0.075762242
0.075761512
0.075761617
0.075763516
0.075765863
0.075766708
0.075766364
0.075765722
0.075765795
0.075767424
0.075769608
0.075770612
0.075770408
0.075769813
0.075769881
0.075771385
0.075773515
0.075774901
0.075775518
0.075775832
0.075776277
0.075777068
0.075777601
0.075777487
0.075777716
0.075779046
0.075780512
0.075781073
0.075780863
0.075780532
0.075781201
0.075783052
0.075784691
0.07578535
0.075785277
0.075784966
0.075785476
0.075787139
0.075788796
0.075789639
0.075789839
0.075789609
0.075789708
0.075790929
0.075792662
0.075793722
0.075793861
0.075793519
0.075793761
0.075795234
0.075797025
0.075798003
0.075798076
0.075797726
0.075798093
0.075799719
0.075801514
0.075802498
0.075802755
0.075802589
0.07580292
0.075804346
0.075805971
0.075806823
0.075806846
0.075806424
0.075806679
0.075808317
0.075810344
0.075811601
0.075812255
0.075812468
0.075812279
0.075812557
0.075813957
0.075815714
0.075816918
0.075817739
0.0758185
0.075819228
0.075819815
0.075820268
0.075820963
0.075822061
0.075823138
0.075823848
0.075824226
0.075824718
0.07582578
0.075827075
0.075828044
0.07582862
0.075828922
0.075829491
0.075830719
0.075832057
0.075832984
0.07583355
0.075833917
0.075834595
0.075835854
0.075837133
0.075838019
0.07583857
0.075838941
0.075839668
0.075840987
0.075842291
0.075843196
0.075843781
0.075844113
0.075844708
0.075846006
0.075847473
0.075848534
0.075849333
0.075849959
0.075850433
0.075851187
0.075852468
0.075853797
0.075854798
0.075855615
0.075856301
0.075856909
0.075857787
0.075859046
0.075860275
0.075861232
0.075862014
0.075862618
0.075863203
0.075864205
0.075865614
0.075866904
0.075867889
0.075868721
0.075869431
0.075870117
0.075871084
0.075872365
0.075873599
0.075874627
0.075875569
0.075876508
0.075877478
0.075878468
0.075879448
0.075880452
0.075881513
0.075882562
0.075883529
0.075884391
0.07588525
0.075886321
0.075887588
0.075888772
0.075889767
0.075890606
0.075891341
0.075892273
0.075893598
0.07589499
0.07589614
0.07589714
0.075898063
0.075898911
0.07589986
0.075901091
0.075902448
0.075903665
0.075904728
0.07590569
0.075906576
0.075907566
0.075908834
0.075910199
0.075911405
0.075912459
0.075913414
0.07591436
0.075915508
0.07591688
0.075918211
0.075919357
0.075920373
0.075921322
0.075922406
0.075923761
0.07592517
0.075926403
0.075927494
0.075928506
0.075929555
0.075930817
0.075932243
0.075933595
0.075934794
0.075935894
0.07593695
0.075938115
0.075939496
0.075940931
0.075942235
0.075943424
0.075944547
0.07594568
0.075946963
0.075948404
0.075949824
0.07595112
0.075952336
0.075953528
0.075954794
0.075956192
0.075957623
0.075958975
0.075960257
0.075961521
0.075962846
0.075964265
0.075965695
0.075967058
0.075968368
0.075969683
0.075971072
0.075972538
0.075973996
0.075975393
0.075976757
0.075978147
0.075979593
0.075981057
0.075982485
0.075983889
0.075985345
0.075986879
0.075988405
0.075989845
0.07599121
0.075992582
0.075994096
0.07599577
0.075997432
0.075998966
0.07600041
0.076001815
0.076003258
0.076004842
0.076006551
0.076008254
0.07600987
0.076011427
0.076012954
0.076014476
0.076016052
0.07601773
0.076019468
0.076021177
0.076022821
0.076024421
0.076026018
0.076027674
0.076029425
0.076031221
0.076032979
0.076034671
0.076036318
0.076037978
0.076039731
0.076041595
0.076043474
0.076045281
0.076047017
0.076048721
0.076050462
0.076052317
0.076054273
0.07605623
0.07605812
0.076059956
0.076061771
0.07606361
0.076065517
0.076067492
0.076069486
0.076071457
0.076073404
0.076075351
0.076077326
0.076079337
0.076081368
0.076083398
0.07608542
0.076087459
0.076089539
0.07609166
0.076093781
0.076095872
0.076097942
0.076100038
0.076102213
0.076104456
0.076106697
0.076108884
0.076111029
0.076113184
0.076115414
0.07611774
0.076120102
0.076122427
0.076124699
0.076126951
0.076129241
0.076131617
0.076134066
0.076136527
0.076138952
0.076141345
0.076143741
0.07614619
0.076148712
0.076151278
0.076153831
0.076156345
0.07615884
0.076161364
0.076163967
0.076166659
0.076169392
0.076172106
0.076174775
0.076177415
0.07618007
0.076182785
0.076185579
0.076188428
0.076191295
0.076194161
0.076197026
0.07619989
0.076202754
0.076205633
0.076208558
0.076211558
0.076214621
0.076217707
0.076220777
0.076223823
0.076226865
0.076229938
0.076233081
0.076236301
0.076239571
0.076242848
0.076246106
0.076249348
0.076252601
0.076255903
0.076259285
0.076262746
0.076266243
0.076269726
0.076273175
0.076276616
0.076280099
0.07628367
0.076287335
0.076291052
0.076294767
0.076298455
0.07630213
0.076305829
0.076309592
0.076313436
0.07631735
0.076321299
0.076325253
0.0763292
0.076333156
0.076337145
0.076341193
0.076345311
0.076349487
0.076353695
0.076357914
0.076362142
0.076366395
0.076370693
0.076375052
0.076379469
0.076383929
0.076388414
0.076392915
0.076397442
0.076402016
0.076406654
0.076411354
0.076416093
0.076420847
0.076425613
0.076430414
0.076435285
0.076440237
0.07644525
0.076450283
0.076455315
0.076460359
0.076465456
0.076470637
0.076475905
0.076481227
0.076486566
0.076491911
0.076497278
0.0765027
0.076508202
0.076513783
0.076519422
0.07652509
0.076530777
0.076536492
0.07654226
0.0765481
0.076554017
0.076559997
0.076566018
0.076572067
0.076578146
0.07658427
0.076590459
0.076596718
0.076603039
0.076609407
0.076615817
0.076622276
0.076628796
0.076635387
0.07664204
0.076648742
0.076655479
0.076662259
0.076669098
0.07667601
0.076682993
0.076690034
0.076697122
0.07670426
0.076711462
0.076718731
0.076726062
0.076733443
0.076740872
0.076748362
0.076755931
0.076763578
0.076771285
0.076779033
0.076786821
0.07679467
0.076802605
0.076810633
0.076818734
0.076826881
0.07683506
0.076843286
0.076851586
0.076859983
0.076868472
0.076877032
0.076885635
0.076894279
0.076902976
0.076911753
0.076920624
0.076929585
0.076938618
0.0769477
0.076956829
0.076966014
0.076975283
0.07698465
0.076994112
0.077003646
0.077013232
0.077022861
0.077032546
0.077042315
0.077052189
0.077062168
0.077072237
0.077082368
0.077092549
0.077102778
0.077113072
0.07712345
0.077133925
0.077144501
0.07715517
0.077165919
0.077176738
0.077187621
0.077198572
0.077209599
0.077220715
0.077231934
0.077243253
0.077254661
0.07726614
0.077277683
0.077289291
0.077300978
0.077312762
0.077324659
0.077336671
0.077348784
0.077360975
0.077373228
0.077385542
0.077397933
0.07741042
0.077423022
0.077435741
0.077448567
0.077461485
0.077474486
0.077487565
0.077500722
0.077513966
0.077527312
0.077540775
0.07755436
0.077568056
0.077581849
0.077595726
0.077609685
0.077623733
0.077637882
0.077652151
0.077666547
0.077681068
0.077695695
0.077710415
0.077725226
0.077740137
0.07775516
0.077770308
0.077785584
0.077800984
0.077816497
0.077832115
0.077847839
0.07786368
0.077879648
0.077895749
0.077911983
0.077928343
0.077944823
0.07796142
0.077978142
0.077995
0.078012004
0.078029151
0.078046433
0.078063842
0.07808138
0.078099059
0.078116893
0.078134887
0.078153035
0.078171327
0.078189761
0.078208343
0.07822709
0.078246011
0.078265105
0.078284361
0.078303772
0.078323344
0.078343093
0.078363037
0.078383182
0.078403518
0.078424031
0.078444716
0.078465582
0.078486648
0.078507934
0.078529448
0.078551187
0.078573142
0.078595312
0.078617701
0.078640321
0.07866318
0.078686285
0.07870964
0.07873325
0.078757123
0.078781266
0.078805687
0.078830393
0.078855388
0.078880682
0.078906284
0.078932199
0.078958431
0.078984985
0.079011869
0.079039102
0.079066703
0.079094688
0.079123059
0.079151816
0.079180962
0.079210509
0.079240478
0.079270889
0.079301758
0.079333096
0.079364913
0.079397223
0.07943004
0.079463378
0.079497249
0.079531669
0.079566661
0.079602252
0.079638467
0.079675324
0.079712828
0.079750987
0.079789821
0.079829363
0.079869653
0.079910723
0.079952593
0.079995275
0.080038783
0.080083143
0.080128391
0.080174571
0.080221717
0.080269857
0.080319014
0.080369215
0.080420496
0.080472903
0.080526478
0.080581263
0.080637287
0.080694582
0.08075319
0.080813161
0.080874554
0.080937422
0.081001806
0.081067743
0.081135274
0.081204456
0.081275359
0.081348053
0.081422598
0.081499041
0.081577429
0.08165782
0.08174029
0.081824924
0.081911804
0.082000999
0.082092572
0.082186585
0.082283112
0.082382246
0.082484085
0.082588728
0.082696264
0.082806771
0.08292033
0.083037035
0.083156995
0.08328033
0.083407154
0.083537574
0.083671692
0.083809612
0.08395145
0.084097336
0.084247411
0.084401813
0.084560675
0.084724121
0.08489228
0.085065292
0.085243312
0.085426505
0.085615036
0.085809064
0.086008747
0.086214248
0.086425736
0.086643396
0.086867414
0.087097979
0.087335281
0.087579515
0.087830885
0.088089605
0.08835589
0.088629952
0.088912002
0.089202264
0.089500977
0.089808395
0.090124773
0.090450363
0.090785406
0.091130149
0.091484857
0.091849813
0.092225317
0.092611669
0.093009161
0.093418083
0.093838725
0.094271394
0.094716418
0.095174139
0.095644905
0.096129058
0.09662694
0.097138894
0.097665277
0.098206465
0.098762847
0.099334819
0.099922779
0.10052713
0.10114826
0.1017866
0.10244256
0.10311659
0.10380915
0.10452069
0.10525166
0.10600252
0.10677373
0.1075658
0.10837922
0.10921452
0.11007221
0.11095281
0.11185682
0.11278479
0.11373725
0.11471478
0.11571796
0.11674736
0.11780359
0.11888721
0.11999884
0.12113909
0.12230857
0.12350793
0.12473781
0.12599887
0.12729178
0.12861722
0.12997585
0.13136837
0.13279547
0.13425785
0.13575626
0.13729143
0.13886412
0.14047507
0.14212502
0.14381474
0.145545
0.1473166
0.14913038
0.15098713
0.15288766
0.15483281
0.15682337
0.15886022
0.16094422
0.16307623
0.16525715
0.16748785
0.16976922
0.17210216
0.17448757
0.17692639
0.17941955
0.18196799
0.18457264
0.18723445
0.1899544
0.19273346
0.19557263
0.19847289
0.20143522
0.20446061
0.20755007
0.21070463
0.21392533
0.21721321
0.22056931
0.22399467
0.22749031
0.23105729
0.23469669
0.23840959
0.24219708
0.24606025
0.25000017
0.25401792
0.2581146
0.26229131
0.26654917
0.2708893
0.27531282
0.27982084
0.28441447
0.28909485
0.29386309
0.29872035
0.30366777
0.30870649
0.31383765
0.31906237
0.32438178
0.32979703
0.33530928
0.34091969
0.34662942
0.3524396
0.35835139
0.36436591
0.3704843
0.37670771
0.3830373
0.38947422
0.3960196
0.40267459
0.40944033
0.41631795
0.42330857
0.43041332
0.43763331
0.44496968
0.45242354
0.45999602
0.46768823
0.47550127
0.48343621
0.49149416
0.49967619
0.5079834
0.51641687
0.52497766
0.53366682
0.5424854
0.55143444
0.56051499
0.56972809
0.57907477
0.58855602
0.59817284
0.6079262
0.6178171
0.62784652
0.63801544
0.64832483
0.65877563
0.66936875
0.6801051
0.69098557
0.70201109
0.71318254
0.72450082
0.7359668
0.74758131
0.75934519
0.77125926
0.78332433
0.7955412
0.80791066
0.82043348
0.83311043
0.84594225
0.85892967
0.87207341
0.88537417
0.89883262
0.91244945
0.92622531
0.94016084
0.95425669
0.96851347
0.98293176
0.99751215
1.0122552
1.0271614
1.0422314
1.0574656
1.0728647
1.088429
1.104159
1.1200551
1.1361179
1.1523477
1.1687449
1.18531
1.2020433
1.2189452
1.2360159
1.2532558
1.2706653
1.2882445
1.3059938
1.3239135
1.3420038
1.3602648
1.3786969
1.3973001
1.4160747
1.4350208
1.4541385
1.4734281
1.4928895
1.512523
1.5323285
1.5523061
1.5724558
1.5927777
1.6132718
1.6339381
1.6547765
1.6757871
1.6969698
1.7183244
1.739851
1.7615494
1.7834195
1.8054611
1.8276742
1.8500586
1.872614
1.8953404
1.9182374
1.941305
1.9645428
1.9879505
2.0115281
2.0352751
2.0591913
2.0832763
2.10753
2.1319519
2.1565416
2.1812989
2.2062234
2.2313146
2.2565723
2.2819961
2.3075853
2.3333398
2.3592589
2.3853423
2.4115895
2.438
2.4645734
2.4913091
2.5182067
2.5452656
2.5724852
2.5998651
2.6274047
2.6551035
2.6829609
2.7109763
2.7391491
2.7674787
2.7959645
2.8246059
2.8534022
2.882353
2.9114574
2.9407149
2.9701248
2.9996865
3.0293992
3.0592624
3.0892752
3.119437
3.1497471
3.1802049
3.2108096
3.2415604
3.2724567
3.3034977
3.3346827
3.3660109
3.3974816
3.4290941
3.4608474
3.492741
3.5247741
3.5569458
3.5892555
3.6217022
3.6542852
3.6870038
3.719857
3.7528441
3.7859644
3.819217
3.8526012
3.8861159
3.9197606
3.9535343
3.9874361
4.0214654
4.0556212
4.0899028
4.1243092
4.1588397
4.1934934
4.2282695
4.2631671
4.2981853
4.3333234
4.3685805
4.4039557
4.4394482
4.4750572
4.5107816
4.5466208
4.5825738
4.6186398
4.6548179
4.6911074
4.7275073
4.7640167
4.8006348
4.8373607
4.8741935
4.9111325
4.9481768
4.9853254
5.0225776
5.0599324
5.0973889
5.1349464
5.172604
5.2103607
5.2482159
5.2861685
5.3242177
5.3623627
5.4006026
5.4389366
5.4773637
5.5158832
5.5544941
5.5931957
5.6319871
5.6708674
5.7098357
5.7488913
5.7880332
5.8272607
5.8665729
5.9059689
5.9454478
5.985009
6.0246514
6.0643743
6.1041768
6.1440582
6.1840175
6.224054
6.2641668
6.304355
6.3446179
6.3849546
6.4253643
6.4658462
6.5063995
6.5470233
6.5877168
6.6284792
6.6693098
6.7102076
6.751172
6.792202
6.8332968
6.8744558
6.915678
6.9569627
6.998309
7.0397163
7.0811837
7.1227103
7.1642954
7.2059383
7.2476381
7.2893942
7.3312056
7.3730716
7.4149914
7.4569642
7.4989894
7.5410661
7.5831935
7.6253709
7.6675976
7.7098727
7.7521955
7.7945653
7.8369812
7.8794426
7.9219487
7.9644987
8.007092
8.0497276
8.092405
8.1351233
8.1778819
8.22068
8.2635169
8.3063917
8.3493039
8.3922526
8.4352372
8.4782569
8.521311
8.5643988
8.6075195
8.6506725
8.693857
8.7370722
8.7803176
8.8235924
8.8668959
8.9102274
8.9535861
8.9969714
9.0403825
9.0838189
9.1272796
9.1707642
9.2142719
9.2578019
9.3013537
9.3449264
9.3885195
9.4321322
9.4757638
9.5194137
9.5630812
9.6067656
9.6504662
9.6941824
9.7379135
9.7816587
9.8254175
9.8691891
9.9129728
9.9567681
10.000574
10.044391
10.088216
10.132051
10.175894
10.219744
10.263601
10.307465
10.351334
10.395208
10.439086
10.482967
10.526852
10.570739
10.614627
10.658517
10.702406
10.746296
10.790184
10.834071
10.877955
10.921837
10.965714
11.009588
11.053457
11.09732
11.141177
11.185027
11.22887
11.272705
11.316531
11.360348
11.404154
11.44795
11.491735
11.535508
11.579268
11.623015
11.666748
11.710467
11.754171
11.797859
11.84153
11.885185
11.928822
11.97244
12.01604
12.05962
12.10318
12.146719
12.190237
12.233733
12.277206
12.320655
12.364081
12.407482
12.450858
12.494208
12.537531
12.580828
12.624096
12.667337
12.710548
12.753729
12.796881
12.840001
12.88309
12.926146
12.96917
13.01216
13.055117
13.098038
13.140924
13.183775
13.226588
13.269365
13.312103
13.354803
13.397464
13.440085
13.482666
13.525206
13.567704
13.610159
13.652572
13.694941
13.737266
13.779546
13.821781
13.863969
13.906111
13.948205
13.990251
14.032249
14.074197
14.116096
14.157943
14.19974
14.241485
14.283177
14.324816
14.366401
14.407932
14.449407
14.490827
14.532191
14.573497
14.614746
14.655937
14.697069
14.738141
14.779153
14.820104
14.860993
14.901821
14.942585
14.983287
15.023924
15.064496
15.105003
15.145444
15.185818
15.226125
15.266364
15.306534
15.346635
15.386666
15.426627
15.466516
15.506333
15.546078
15.58575
15.625348
15.664871
15.704319
15.743692
15.782988
15.822207
15.861348
15.900411
15.939395
15.978299
16.017123
16.055866
16.094527
16.133106
16.171602
16.210015
16.248343
16.286586
16.324744
16.362816
16.4008
16.438698
16.476507
16.514227
16.551858
16.589399
16.626849
16.664208
16.701475
16.738649
16.77573
16.812717
16.84961
16.886407
16.923108
16.959713
16.996221
17.032631
17.068942
17.105155
17.141268
17.17728
17.213192
17.249002
17.28471
17.320315
17.355816
17.391214
17.426507
17.461694
17.496775
17.53175
17.566618
17.601378
17.636029
17.670572
17.705005
17.739327
17.773539
17.807639
17.841628
17.875503
17.909266
17.942914
17.976448
18.009867
18.043171
18.076358
18.109429
18.142382
18.175217
18.207934
18.240531
18.273009
18.305367
18.337604
18.36972
18.401714
18.433586
18.465334
18.496959
18.52846
18.559837
18.591088
18.622214
18.653213
18.684086
18.714832
18.74545
18.77594
18.806301
18.836533
18.866635
18.896607
18.926449
18.956159
18.985737
19.015184
19.044498
19.073679
19.102727
19.131641
19.16042
19.189064
19.217574
19.245948
19.274185
19.302287
19.330251
19.358078
19.385768
19.413319
19.440732
19.468007
19.495142
19.522137
19.548993
19.575708
19.602283
19.628717
19.65501
19.681161
19.70717
19.733037
19.758762
19.784343
19.809782
19.835078
19.860229
19.885237
19.910101
19.934821
19.959396
19.983826
20.008111
20.032251
20.056245
20.080093
20.103796
20.127353
20.150764
20.174028
20.197146
20.220117
20.242941
20.265618
20.288148
20.310532
20.332768
20.354856
20.376797
20.398591
20.420237
20.441736
20.463086
20.48429
20.505345
20.526253
20.547013
20.567625
20.58809
20.608407
20.628576
20.648598
20.668472
20.688199
20.707778
20.72721
20.746494
20.765632
20.784622
20.803466
20.822163
20.840713
20.859117
20.877374
20.895485
20.913451
20.93127
20.948944
20.966473
20.983856
21.001095
21.018189
21.035138
21.051944
21.068605
21.085123
21.101498
21.11773
21.133819
21.149766
21.165571
21.181234
21.196756
21.212136
21.227377
21.242477
21.257437
21.272258
21.28694
21.301484
21.315889
21.330156
21.344287
21.35828
21.372138
21.385859
21.399445
21.412896
21.426213
21.439396
21.452446
21.465362
21.478147
21.4908
21.503322
21.515713
21.527974
21.540105
21.552108
21.563983
21.57573
21.587349
21.598843
21.61021
21.621453
21.632571
21.643565
21.654436
21.665184
21.67581
21.686315
21.6967
21.706964
21.71711
21.727137
21.737046
21.746838
21.756514
21.766075
21.77552
21.784851
21.794069
21.803175
21.812168
21.82105
21.829822
21.838484
21.847037
21.855482
21.86382
21.872052
21.880177
21.888198
21.896114
21.903927
21.911637
21.919246
21.926754
21.934161
21.941469
21.948679
21.95579
21.962805
21.969724
21.976547
21.983276
21.989911
21.996454
22.002904
22.009263
22.015532
22.021711
22.027802
22.033804
22.03972
22.045549
22.051293
22.056952
22.062528
22.06802
22.073431
22.07876
22.084009
22.089178
22.094269
22.099281
22.104216
22.109075
22.113859
22.118567
22.123202
22.127764
22.132253
22.136671
22.141018
22.145296
22.149504
22.153644
22.157717
22.161723
22.165663
22.169538
22.173348
22.177095
22.18078
22.184402
22.187963
22.191463
22.194904
22.198286
22.20161
22.204876
22.208085
22.211239
22.214337
22.217381
22.220371
22.223308
22.226192
22.229025
22.231807
22.234539
22.237221
22.239854
22.24244
22.244977
22.247468
22.249913
22.252312
22.254667
22.256977
22.259244
22.261468
22.263649
22.26579
22.267889
22.269948
22.271967
22.273947
22.275888
22.277792
22.279658
22.281487
22.283281
22.285039
22.286761
22.28845
22.290104
22.291725
22.293313
22.294869
22.296394
22.297887
22.299349
22.300782
22.302184
22.303558
22.304903
22.306219
22.307509
22.30877
22.310006
22.311215
22.312398
22.313556
22.314689
22.315797
22.316882
22.317943
22.318981
22.319996
22.320989
22.32196
22.32291
22.323838
22.324746
22.325634
22.326502
22.32735
22.328179
22.328989
22.329781
22.330555
22.331311
22.33205
22.332772
22.333477
22.334166
22.334839
22.335496
22.336137
22.336764
22.337376
22.337973
22.338556
22.339125
22.339681
22.340223
22.340753
22.341269
22.341773
22.342265
22.342745
22.343213
22.34367
22.344115
22.34455
22.344973
22.345386
22.345789
22.346182
22.346565
22.346938
22.347302
22.347657
22.348003
22.34834
22.348668
22.348988
22.3493
22.349603
22.349899
22.350187
22.350468
22.350741
22.351008
22.351267
22.351519
22.351765
22.352004
22.352237
22.352464
22.352685
22.352899
22.353108
22.353312
22.35351
22.353702
22.353889
22.354072
22.354249
22.354421
22.354589
22.354752
22.35491
22.355064
22.355214
22.35536
22.355501
22.355639
22.355772
22.355902
22.356029
22.356151
22.356271
22.356386
22.356499
22.356608
22.356714
22.356817
22.356917
22.357014
22.357109
22.3572
22.357289
22.357375
22.357459
22.35754
22.357619
22.357696
22.35777
22.357842
22.357911
22.357979
22.358045
22.358108
22.35817
22.35823
22.358288
22.358344
22.358399
22.358451
22.358503
22.358552
22.3586
22.358646
22.358691
22.358735
22.358777
22.358818
22.358857
22.358896
22.358933
22.358968
22.359003
22.359036
22.359068
22.3591
22.35913
22.359159
22.359187
22.359214
22.35924
22.359265
22.359289
22.359313
22.359335
22.359357
22.359378
22.359398
22.359417
22.359436
22.359453
22.35947
22.359487
22.359502
22.359517
22.359532
22.359545
22.359558
22.35957
22.359582
22.359593
22.359603
22.359613
22.359622
22.359631
22.359639
22.359646
22.359653
22.35966
22.359665
22.359671
22.359675
22.359679
22.359683
22.359686
22.359688
22.35969
22.359691
22.359692
22.359692
22.359691
22.35969
22.359688
22.359686
22.359683
22.359679
22.359674
22.359669
22.359664
22.359657
22.35965
22.359642
22.359634
22.359624
22.359614
22.359603
22.359591
22.359579
22.359565
22.35955
22.359535
22.359518
22.359501
22.359482
22.359462
22.359441
22.359419
22.359396
22.359371
22.359345
22.359317
22.359288
22.359258
22.359226
22.359192
22.359157
22.35912
22.359081
22.35904
22.358997
22.358952
22.358905
22.358855
22.358803
22.358749
22.358692
22.358633