/*--------------------------------*- C++ -*----------------------------------*\
  =========                 |
  \\      /  F ield         | OpenFOAM: The Open Source CFD Toolbox
   \\    /   O peration     | Website:  https://openfoam.org
    \\  /    A nd           | Version:  7
     \\/     M anipulation  |
\*---------------------------------------------------------------------------*/
FoamFile
{
    version     2.0;
    format      ascii;
    class       volScalarField;
    location    "0.00136";
    object      p;
}
// * * * * * * * * * * * * * * * * * * * * * * * * * * * * * * * * * * * * * //

dimensions      [1 -1 -2 0 0 0 0];

internalField   nonuniform List<scalar> 
5000
(
94260.96
94263.44
94265.907
94268.234
94270.428
94272.491
94274.427
94276.234
94277.913
94279.467
94280.9
94282.212
94283.405
94284.477
94285.425
94286.245
94286.936
94287.495
94287.922
94288.212
94288.355
94288.366
94288.233
94287.966
94287.556
94287.005
94286.314
94285.481
94284.506
94283.388
94282.127
94280.722
94279.173
94277.479
94275.64
94273.656
94271.526
94269.25
94266.827
94264.257
94261.541
94258.677
94255.666
94252.507
94249.201
94245.746
94242.143
94238.392
94234.493
94230.445
94226.248
94221.903
94217.409
94212.767
94207.975
94203.034
94197.944
94192.705
94187.317
94181.78
94176.095
94170.262
94164.283
94158.157
94151.885
94145.469
94138.909
94132.207
94125.362
94118.377
94111.251
94103.986
94096.582
94089.04
94081.36
94073.542
94065.586
94057.494
94049.265
94040.9
94032.398
94023.761
94014.989
94006.083
93997.042
93987.867
93978.56
93969.12
93959.548
93949.846
93940.013
93930.051
93919.96
93909.742
93899.396
93888.924
93878.327
93867.606
93856.761
93845.794
93834.705
93823.495
93812.165
93800.716
93789.149
93777.465
93765.665
93753.75
93741.72
93729.577
93717.322
93704.956
93692.479
93679.894
93667.2
93654.4
93641.494
93628.484
93615.37
93602.155
93588.838
93575.423
93561.909
93548.299
93534.592
93520.792
93506.899
93492.914
93478.839
93464.674
93450.422
93436.082
93421.657
93407.147
93392.554
93377.878
93363.12
93348.282
93333.364
93318.368
93303.295
93288.144
93272.919
93257.619
93242.245
93226.799
93211.282
93195.694
93180.037
93164.312
93148.52
93132.661
93116.738
93100.751
93084.702
93068.591
93052.419
93036.188
93019.9
93003.554
92987.152
92970.696
92954.186
92937.624
92921.01
92904.347
92887.635
92870.875
92854.069
92837.219
92820.324
92803.386
92786.408
92769.389
92752.332
92735.237
92718.106
92700.94
92683.741
92666.51
92649.248
92631.957
92614.637
92597.291
92579.919
92562.522
92545.103
92527.662
92510.2
92492.719
92475.22
92457.704
92440.173
92422.626
92405.067
92387.495
92369.913
92352.32
92334.718
92317.109
92299.494
92281.872
92264.247
92246.619
92228.988
92211.357
92193.726
92176.097
92158.471
92140.848
92123.231
92105.62
92088.016
92070.422
92052.837
92035.263
92017.701
92000.154
91982.621
91965.104
91947.604
91930.123
91912.662
91895.222
91877.804
91860.409
91843.04
91825.696
91808.38
91791.093
91773.835
91756.609
91739.415
91722.255
91705.131
91688.043
91670.993
91653.982
91637.012
91620.084
91603.2
91586.361
91569.569
91552.825
91536.13
91519.486
91502.895
91486.358
91469.876
91453.451
91437.085
91420.779
91404.535
91388.354
91372.237
91356.187
91340.204
91324.29
91308.446
91292.675
91276.977
91261.353
91245.806
91230.336
91214.945
91199.635
91184.406
91169.261
91154.2
91139.225
91124.337
91109.537
91094.828
91080.21
91065.684
91051.253
91036.917
91022.678
91008.537
90994.495
90980.555
90966.717
90952.982
90939.353
90925.83
90912.416
90899.11
90885.916
90872.833
90859.864
90847.011
90834.274
90821.654
90809.154
90796.775
90784.518
90772.385
90760.377
90748.495
90736.741
90725.117
90713.623
90702.262
90691.034
90679.942
90668.986
90658.167
90647.488
90636.95
90626.554
90616.301
90606.192
90596.23
90586.415
90576.749
90567.232
90557.867
90548.654
90539.594
90530.69
90521.941
90513.349
90504.915
90496.64
90488.526
90480.572
90472.781
90465.153
90457.689
90450.39
90443.256
90436.289
90429.489
90422.858
90416.395
90410.102
90403.979
90398.027
90392.246
90386.637
90381.201
90375.937
90370.847
90365.931
90361.19
90356.622
90352.23
90348.013
90343.972
90340.107
90336.417
90332.904
90329.567
90326.406
90323.422
90320.614
90317.982
90315.527
90313.248
90311.145
90309.218
90307.466
90305.89
90304.489
90303.263
90302.211
90301.333
90300.628
90300.096
90299.736
90299.561
90299.556
90299.721
90300.057
90300.561
90301.234
90302.075
90303.083
90304.256
90305.594
90307.097
90308.762
90310.589
90312.577
90314.724
90317.029
90319.492
90322.11
90324.882
90327.807
90330.884
90334.111
90337.487
90341.01
90344.678
90348.49
90352.445
90356.54
90360.774
90365.146
90369.653
90374.293
90379.066
90383.969
90389
90394.158
90399.441
90404.847
90410.373
90416.019
90421.781
90427.659
90433.651
90439.754
90445.966
90452.286
90458.712
90465.241
90471.873
90478.604
90485.433
90492.358
90499.378
90506.49
90513.692
90520.983
90528.36
90535.822
90543.367
90550.994
90558.699
90566.483
90574.342
90582.275
90590.28
90598.356
90606.501
90614.713
90622.991
90631.333
90639.737
90648.201
90656.725
90665.307
90673.944
90682.636
90691.382
90700.179
90709.026
90717.922
90726.866
90735.856
90744.89
90753.968
90763.088
90772.249
90781.45
90790.689
90799.966
90809.278
90818.625
90828.007
90837.421
90846.866
90856.342
90865.847
90875.381
90884.942
90894.53
90904.144
90913.781
90923.443
90933.127
90942.834
90952.561
90962.308
90972.075
90981.861
90991.665
91001.485
91011.323
91021.176
91031.044
91040.926
91050.823
91060.732
91070.654
91080.589
91090.535
91100.491
91110.459
91120.436
91130.423
91140.419
91150.424
91160.437
91170.458
91180.487
91190.522
91200.565
91210.614
91220.669
91230.731
91240.798
91250.87
91260.947
91271.03
91281.117
91291.208
91301.304
91311.404
91321.508
91331.615
91341.727
91351.841
91361.959
91372.08
91382.204
91392.33
91402.46
91412.592
91422.726
91432.863
91443.002
91453.144
91463.287
91473.433
91483.58
91493.729
91503.88
91514.032
91524.186
91534.342
91544.498
91554.656
91564.816
91574.976
91585.137
91595.3
91605.463
91615.627
91625.792
91635.958
91646.124
91656.291
91666.458
91676.626
91686.794
91696.962
91707.131
91717.299
91727.468
91737.637
91747.806
91757.975
91768.144
91778.313
91788.481
91798.649
91808.817
91818.985
91829.152
91839.319
91849.485
91859.651
91869.817
91879.982
91890.146
91900.31
91910.473
91920.635
91930.797
91940.958
91951.118
91961.278
91971.437
91981.595
91991.752
92001.908
92012.064
92022.219
92032.373
92042.526
92052.678
92062.829
92072.98
92083.129
92093.278
92103.425
92113.572
92123.718
92133.863
92144.008
92154.151
92164.294
92174.435
92184.576
92194.716
92204.856
92214.994
92225.132
92235.269
92245.405
92255.54
92265.675
92275.809
92285.943
92296.075
92306.208
92316.339
92326.471
92336.601
92346.731
92356.861
92366.99
92377.119
92387.247
92397.376
92407.503
92417.631
92427.758
92437.885
92448.012
92458.139
92468.266
92478.392
92488.519
92498.645
92508.772
92518.898
92529.024
92539.151
92549.277
92559.404
92569.531
92579.658
92589.785
92599.912
92610.039
92620.166
92630.294
92640.422
92650.549
92660.677
92670.806
92680.934
92691.063
92701.191
92711.32
92721.449
92731.578
92741.707
92751.837
92761.966
92772.096
92782.225
92792.355
92802.484
92812.614
92822.743
92832.872
92843.002
92853.131
92863.26
92873.389
92883.518
92893.646
92903.774
92913.903
92924.03
92934.158
92944.285
92954.412
92964.538
92974.664
92984.79
92994.915
93005.04
93015.164
93025.287
93035.411
93045.533
93055.655
93065.777
93075.898
93086.018
93096.137
93106.256
93116.375
93126.492
93136.609
93146.725
93156.841
93166.955
93177.069
93187.182
93197.295
93207.406
93217.517
93227.627
93237.736
93247.845
93257.952
93268.059
93278.165
93288.27
93298.374
93308.477
93318.58
93328.681
93338.782
93348.882
93358.98
93369.078
93379.175
93389.271
93399.367
93409.461
93419.554
93429.647
93439.738
93449.829
93459.919
93470.007
93480.095
93490.182
93500.268
93510.353
93520.437
93530.52
93540.602
93550.683
93560.763
93570.843
93580.921
93590.998
93601.074
93611.15
93621.224
93631.297
93641.37
93651.441
93661.512
93671.581
93681.65
93691.718
93701.784
93711.85
93721.915
93731.979
93742.042
93752.104
93762.165
93772.225
93782.285
93792.343
93802.401
93812.457
93822.513
93832.568
93842.622
93852.676
93862.728
93872.78
93882.831
93892.882
93902.931
93912.98
93923.028
93933.076
93943.123
93953.169
93963.215
93973.26
93983.305
93993.349
94003.393
94013.436
94023.479
94033.521
94043.563
94053.605
94063.646
94073.687
94083.727
94093.768
94103.808
94113.848
94123.888
94133.927
94143.966
94154.006
94164.045
94174.084
94184.123
94194.162
94204.2
94214.239
94224.278
94234.317
94244.355
94254.394
94264.433
94274.472
94284.511
94294.549
94304.588
94314.627
94324.666
94334.705
94344.744
94354.783
94364.822
94374.861
94384.901
94394.94
94404.979
94415.018
94425.057
94435.096
94445.135
94455.174
94465.213
94475.252
94485.29
94495.329
94505.367
94515.406
94525.444
94535.482
94545.519
94555.557
94565.594
94575.631
94585.668
94595.705
94605.741
94615.777
94625.812
94635.847
94645.882
94655.917
94665.951
94675.984
94686.017
94696.05
94706.082
94716.114
94726.145
94736.175
94746.205
94756.235
94766.264
94776.292
94786.32
94796.347
94806.373
94816.399
94826.423
94836.448
94846.471
94856.494
94866.516
94876.537
94886.557
94896.577
94906.596
94916.614
94926.631
94936.647
94946.663
94956.677
94966.691
94976.704
94986.716
94996.727
95006.737
95016.747
95026.755
95036.763
95046.769
95056.775
95066.78
95076.784
95086.787
95096.788
95106.789
95116.79
95126.79
95136.79
95146.788
95156.785
95166.781
95176.775
95186.769
95196.761
95206.753
95216.745
95226.735
95236.724
95246.711
95256.699
95266.687
95276.673
95286.658
95296.642
95306.625
95316.607
95326.588
95336.569
95346.549
95356.528
95366.507
95376.485
95386.462
95396.438
95406.413
95416.388
95426.362
95436.336
95446.308
95456.28
95466.252
95476.222
95486.192
95496.163
95506.132
95516.101
95526.068
95536.035
95546.002
95555.969
95565.935
95575.9
95585.866
95595.831
95605.795
95615.758
95625.72
95635.683
95645.646
95655.609
95665.57
95675.532
95685.493
95695.454
95705.416
95715.376
95725.337
95735.297
95745.257
95755.217
95765.177
95775.137
95785.097
95795.056
95805.015
95814.975
95824.934
95834.894
95844.854
95854.812
95864.771
95874.73
95884.69
95894.65
95904.609
95914.567
95924.525
95934.484
95944.443
95954.402
95964.361
95974.32
95984.278
95994.236
96004.194
96014.153
96024.111
96034.069
96044.027
96053.984
96063.942
96073.9
96083.858
96093.815
96103.772
96113.728
96123.684
96133.641
96143.598
96153.555
96163.51
96173.465
96183.42
96193.374
96203.329
96213.282
96223.236
96233.189
96243.143
96253.096
96263.048
96273
96282.951
96292.901
96302.852
96312.802
96322.751
96332.699
96342.648
96352.596
96362.543
96372.489
96382.435
96392.38
96402.325
96412.269
96422.212
96432.155
96442.098
96452.039
96461.98
96471.919
96481.858
96491.797
96501.734
96511.671
96521.607
96531.542
96541.477
96551.411
96561.344
96571.275
96581.206
96591.136
96601.064
96610.992
96620.92
96630.846
96640.772
96650.697
96660.62
96670.542
96680.463
96690.383
96700.303
96710.221
96720.138
96730.055
96739.97
96749.884
96759.796
96769.708
96779.618
96789.528
96799.436
96809.343
96819.249
96829.154
96839.059
96848.961
96858.862
96868.762
96878.66
96888.558
96898.455
96908.35
96918.245
96928.138
96938.03
96947.921
96957.811
96967.7
96977.587
96987.474
96997.359
97007.243
97017.127
97027.009
97036.89
97046.77
97056.649
97066.527
97076.404
97086.28
97096.154
97106.028
97115.901
97125.774
97135.646
97145.516
97155.384
97165.252
97175.12
97184.986
97194.852
97204.717
97214.582
97224.446
97234.309
97244.171
97254.033
97263.894
97273.754
97283.614
97293.474
97303.333
97313.191
97323.049
97332.906
97342.764
97352.621
97362.477
97372.333
97382.188
97392.043
97401.898
97411.752
97421.606
97431.46
97441.314
97451.168
97461.022
97470.875
97480.729
97490.582
97500.435
97510.289
97520.142
97529.995
97539.848
97549.702
97559.555
97569.409
97579.263
97589.116
97598.969
97608.822
97618.675
97628.528
97638.382
97648.235
97658.089
97667.942
97677.796
97687.651
97697.505
97707.359
97717.213
97727.067
97736.921
97746.775
97756.629
97766.484
97776.338
97786.193
97796.048
97805.903
97815.757
97825.612
97835.467
97845.322
97855.177
97865.031
97874.886
97884.74
97894.595
97904.449
97914.303
97924.157
97934.011
97943.864
97953.718
97963.571
97973.425
97983.278
97993.131
98002.983
98012.836
98022.688
98032.54
98042.392
98052.244
98062.095
98071.946
98081.797
98091.647
98101.497
98111.346
98121.195
98131.044
98140.892
98150.74
98160.587
98170.434
98180.28
98190.126
98199.971
98209.816
98219.66
98229.504
98239.347
98249.19
98259.032
98268.873
98278.715
98288.555
98298.394
98308.233
98318.071
98327.909
98337.746
98347.582
98357.418
98367.253
98377.087
98386.92
98396.753
98406.586
98416.417
98426.248
98436.078
98445.907
98455.735
98465.563
98475.39
98485.216
98495.042
98504.867
98514.691
98524.514
98534.337
98544.159
98553.98
98563.8
98573.62
98583.438
98593.256
98603.074
98612.89
98622.706
98632.521
98642.335
98652.149
98661.962
98671.774
98681.585
98691.395
98701.205
98711.013
98720.821
98730.628
98740.434
98750.239
98760.043
98769.847
98779.649
98789.451
98799.253
98809.053
98818.853
98828.651
98838.449
98848.246
98858.042
98867.838
98877.632
98887.426
98897.219
98907.011
98916.802
98926.593
98936.383
98946.172
98955.96
98965.747
98975.534
98985.32
98995.105
99004.889
99014.673
99024.455
99034.237
99044.017
99053.797
99063.577
99073.356
99083.134
99092.911
99102.687
99112.462
99122.237
99132.011
99141.784
99151.556
99161.327
99171.096
99180.865
99190.633
99200.4
99210.166
99219.932
99229.697
99239.461
99249.224
99258.987
99268.749
99278.51
99288.27
99298.03
99307.788
99317.545
99327.301
99337.056
99346.811
99356.565
99366.318
99376.07
99385.822
99395.573
99405.323
99415.072
99424.819
99434.566
99444.311
99454.054
99463.796
99473.537
99483.276
99493.015
99502.753
99512.491
99522.228
99531.963
99541.698
99551.431
99561.162
99570.891
99580.617
99590.342
99600.066
99609.789
99619.512
99629.234
99638.954
99648.672
99658.388
99668.101
99677.81
99687.519
99697.229
99706.937
99716.645
99726.351
99736.058
99745.757
99755.468
99765.204
99774.94
99784.676
99794.412
99804.146
99813.88
99823.611
99833.342
99843.071
99852.798
99862.525
99872.249
99881.973
99891.694
99901.415
99911.134
99920.852
99930.568
99940.283
99949.997
99959.709
99969.421
99979.131
99988.84
99998.547
100008.25
100017.96
100027.66
100037.37
100047.07
100056.77
100066.47
100076.17
100085.87
100095.56
100105.26
100114.96
100124.65
100134.34
100144.04
100153.73
100163.42
100173.11
100182.8
100192.49
100202.17
100211.86
100221.54
100231.23
100240.91
100250.6
100260.28
100269.96
100279.64
100289.32
100299
100308.68
100318.35
100328.03
100337.71
100347.38
100357.05
100366.73
100376.4
100386.07
100395.74
100405.41
100415.08
100424.75
100434.42
100444.09
100453.75
100463.42
100473.08
100482.75
100492.41
100502.07
100511.73
100521.39
100531.05
100540.71
100550.37
100560.03
100569.69
100579.34
100589
100598.65
100608.31
100617.96
100627.61
100637.26
100646.92
100656.57
100666.21
100675.86
100685.51
100695.16
100704.8
100714.45
100724.09
100733.74
100743.38
100753.02
100762.67
100772.31
100781.95
100791.59
100801.23
100810.86
100820.5
100830.14
100839.77
100849.41
100859.04
100868.68
100878.31
100887.94
100897.57
100907.2
100916.83
100926.46
100936.09
100945.72
100955.34
100964.97
100974.6
100984.22
100993.84
101003.47
101013.09
101022.71
101032.33
101041.95
101051.57
101061.19
101070.81
101080.42
101090.04
101099.66
101109.27
101118.89
101128.5
101138.11
101147.72
101157.34
101166.95
101176.56
101186.16
101195.77
101205.38
101214.99
101224.59
101234.2
101243.8
101253.41
101263.01
101272.61
101282.21
101291.82
101301.42
101311.02
101320.61
101330.21
101339.81
101349.41
101359
101368.6
101378.19
101387.79
101397.38
101406.97
101416.56
101426.15
101435.74
101445.33
101454.92
101464.51
101474.1
101483.69
101493.27
101502.86
101512.44
101522.03
101531.61
101541.19
101550.78
101560.36
101569.94
101579.52
101589.1
101598.68
101608.25
101617.83
101627.41
101636.99
101646.56
101656.14
101665.71
101675.28
101684.86
101694.43
101704
101713.57
101723.14
101732.71
101742.28
101751.85
101761.42
101770.99
101780.55
101790.12
101799.68
101809.25
101818.81
101828.38
101837.94
101847.5
101857.07
101866.63
101876.19
101885.75
101895.31
101904.87
101914.43
101923.98
101933.54
101943.1
101952.66
101962.21
101971.77
101981.32
101990.88
102000.43
102009.98
102019.54
102029.09
102038.64
102048.19
102057.74
102067.29
102076.84
102086.39
102095.94
102105.49
102115.04
102124.58
102134.13
102143.68
102153.22
102162.77
102172.31
102181.86
102191.4
102200.94
102210.49
102220.03
102229.57
102239.11
102248.65
102258.19
102267.73
102277.27
102286.81
102296.35
102305.89
102315.43
102324.97
102334.5
102344.04
102353.58
102363.11
102372.65
102382.18
102391.72
102401.25
102410.79
102420.32
102429.85
102439.39
102448.92
102458.45
102467.98
102477.51
102487.04
102496.57
102506.1
102515.63
102525.16
102534.69
102544.22
102553.75
102563.28
102572.81
102582.33
102591.86
102601.39
102610.91
102620.44
102629.96
102639.49
102649.01
102658.54
102668.06
102677.59
102687.11
102696.63
102706.15
102715.68
102725.2
102734.72
102744.24
102753.76
102763.28
102772.81
102782.33
102791.85
102801.36
102810.88
102820.4
102829.92
102839.44
102848.96
102858.47
102867.99
102877.51
102887.03
102896.54
102906.06
102915.57
102925.09
102934.6
102944.12
102953.63
102963.15
102972.66
102982.17
102991.69
103001.2
103010.71
103020.23
103029.74
103039.25
103048.76
103058.27
103067.78
103077.29
103086.8
103096.31
103105.82
103115.33
103124.84
103134.35
103143.86
103153.36
103162.87
103172.38
103181.89
103191.39
103200.9
103210.4
103219.91
103229.41
103238.92
103248.42
103257.93
103267.43
103276.94
103286.44
103295.94
103305.44
103314.95
103324.45
103333.95
103343.45
103352.95
103362.45
103371.95
103381.45
103390.95
103400.45
103409.95
103419.45
103428.95
103438.44
103447.94
103457.44
103466.93
103476.43
103485.92
103495.42
103504.91
103514.41
103523.9
103533.4
103542.89
103552.38
103561.88
103571.37
103580.86
103590.35
103599.84
103609.33
103618.82
103628.31
103637.8
103647.29
103656.78
103666.26
103675.75
103685.24
103694.72
103704.21
103713.7
103723.18
103732.66
103742.15
103751.63
103761.11
103770.6
103780.08
103789.56
103799.04
103808.52
103818
103827.48
103836.96
103846.44
103855.92
103865.39
103874.87
103884.35
103893.82
103903.3
103912.77
103922.25
103931.72
103941.19
103950.66
103960.14
103969.61
103979.08
103988.55
103998.02
104007.49
104016.95
104026.42
104035.89
104045.36
104054.82
104064.29
104073.75
104083.22
104092.68
104102.14
104111.6
104121.06
104130.53
104139.99
104149.45
104158.9
104168.36
104177.82
104187.28
104196.73
104206.19
104215.64
104225.1
104234.55
104244
104253.46
104262.91
104272.36
104281.81
104291.26
104300.71
104310.16
104319.6
104329.05
104338.5
104347.94
104357.39
104366.83
104376.27
104385.72
104395.16
104404.6
104414.04
104423.48
104432.92
104442.36
104451.79
104461.23
104470.67
104480.1
104489.54
104498.97
104508.4
104517.84
104527.27
104536.7
104546.13
104555.56
104564.99
104574.42
104583.84
104593.27
104602.7
104612.12
104621.54
104630.97
104640.39
104649.81
104659.23
104668.66
104678.08
104687.49
104696.91
104706.33
104715.75
104725.16
104734.58
104743.99
104753.41
104762.82
104772.23
104781.64
104791.06
104800.47
104809.87
104819.28
104828.69
104838.1
104847.5
104856.91
104866.31
104875.72
104885.12
104894.52
104903.93
104913.33
104922.73
104932.13
104941.53
104950.92
104960.32
104969.72
104979.11
104988.51
104997.9
105007.3
105016.69
105026.08
105035.47
105044.86
105054.25
105063.64
105073.03
105082.42
105091.8
105101.19
105110.57
105119.96
105129.34
105138.72
105148.11
105157.49
105166.87
105176.25
105185.63
105195
105204.38
105213.76
105223.13
105232.51
105241.88
105251.26
105260.63
105270
105279.37
105288.74
105298.11
105307.48
105316.85
105326.22
105335.59
105344.95
105354.32
105363.68
105373.05
105382.41
105391.77
105401.13
105410.49
105419.85
105429.21
105438.57
105447.93
105457.28
105466.64
105476
105485.35
105494.71
105504.06
105513.41
105522.76
105532.11
105541.46
105550.81
105560.16
105569.51
105578.86
105588.2
105597.55
105606.89
105616.24
105625.58
105634.92
105644.26
105653.61
105662.95
105672.29
105681.62
105690.96
105700.3
105709.64
105718.97
105728.31
105737.64
105746.97
105756.31
105765.64
105774.97
105784.3
105793.63
105802.96
105812.29
105821.62
105830.94
105840.27
105849.59
105858.92
105868.24
105877.56
105886.89
105896.21
105905.53
105914.85
105924.17
105933.49
105942.8
105952.12
105961.44
105970.75
105980.07
105989.38
105998.69
106008.01
106017.32
106026.63
106035.94
106045.25
106054.56
106063.86
106073.17
106082.48
106091.78
106101.09
106110.39
106119.69
106129
106138.3
106147.6
106156.9
106166.2
106175.5
106184.8
106194.09
106203.39
106212.69
106221.98
106231.28
106240.57
106249.86
106259.15
106268.44
106277.73
106287.02
106296.31
106305.6
106314.89
106324.18
106333.46
106342.75
106352.03
106361.31
106370.6
106379.88
106389.16
106398.44
106407.72
106417
106426.28
106435.56
106444.83
106454.11
106463.38
106472.66
106481.93
106491.21
106500.48
106509.75
106519.02
106528.29
106537.56
106546.83
106556.1
106565.36
106574.63
106583.89
106593.16
106602.42
106611.69
106620.95
106630.21
106639.47
106648.73
106657.99
106667.25
106676.51
106685.76
106695.02
106704.28
106713.53
106722.78
106732.04
106741.29
106750.54
106759.79
106769.04
106778.29
106787.54
106796.79
106806.04
106815.28
106824.53
106833.77
106843.02
106852.26
106861.5
106870.74
106879.99
106889.23
106898.46
106907.7
106916.94
106926.18
106935.41
106944.65
106953.88
106963.12
106972.35
106981.58
106990.82
107000.05
107009.28
107018.51
107027.73
107036.96
107046.19
107055.42
107064.64
107073.87
107083.09
107092.31
107101.53
107110.75
107119.98
107129.19
107138.41
107147.63
107156.85
107166.06
107175.28
107184.49
107193.71
107202.92
107212.13
107221.34
107230.55
107239.76
107248.97
107258.18
107267.39
107276.59
107285.8
107295
107304.2
107313.4
107322.61
107331.81
107341
107350.2
107359.4
107368.6
107377.79
107386.98
107396.18
107405.37
107414.56
107423.75
107432.94
107442.12
107451.31
107460.5
107469.68
107478.86
107488.04
107497.22
107506.4
107515.58
107524.76
107533.93
107543.1
107552.28
107561.45
107570.62
107579.78
107588.95
107598.11
107607.28
107616.44
107625.6
107634.76
107643.91
107653.07
107662.22
107671.37
107680.52
107689.67
107698.81
107707.96
107717.1
107726.24
107735.37
107744.51
107753.64
107762.77
107771.9
107781.02
107790.14
107799.26
107808.38
107817.5
107826.61
107835.72
107844.82
107853.92
107863.02
107872.12
107881.21
107890.3
107899.39
107908.47
107917.55
107926.63
107935.7
107944.76
107953.83
107962.89
107971.94
107980.99
107990.04
107999.08
108008.11
108017.14
108026.17
108035.19
108044.21
108053.22
108062.22
108071.22
108080.21
108089.2
108098.18
108107.16
108116.12
108125.09
108134.04
108142.99
108151.93
108160.86
108169.79
108178.7
108187.61
108196.51
108205.41
108214.29
108223.16
108232.03
108240.89
108249.74
108258.57
108267.4
108276.22
108285.03
108293.82
108302.61
108311.39
108320.15
108328.9
108337.64
108346.37
108355.08
108363.79
108372.48
108381.15
108389.82
108398.47
108407.1
108415.72
108424.33
108432.92
108441.5
108450.06
108458.6
108467.13
108475.64
108484.13
108492.61
108501.07
108509.51
108517.93
108526.34
108534.72
108543.09
108551.44
108559.76
108568.07
108576.35
108584.62
108592.86
108601.08
108609.28
108617.45
108625.61
108633.74
108641.84
108649.92
108657.98
108666.01
108674.02
108682
108689.95
108697.88
108705.78
108713.65
108721.5
108729.32
108737.1
108744.86
108752.59
108760.29
108767.96
108775.6
108783.21
108790.79
108798.34
108805.85
108813.33
108820.78
108828.19
108835.57
108842.91
108850.23
108857.5
108864.74
108871.95
108879.11
108886.24
108893.34
108900.4
108907.41
108914.39
108921.34
108928.24
108935.1
108941.93
108948.71
108955.45
108962.16
108968.82
108975.44
108982.02
108988.55
108995.04
109001.49
109007.9
109014.26
109020.58
109026.86
109033.09
109039.28
109045.42
109051.51
109057.56
109063.57
109069.53
109075.44
109081.3
109087.12
109092.89
109098.62
109104.29
109109.92
109115.5
109121.03
109126.52
109131.95
109137.34
109142.68
109147.96
109153.2
109158.39
109163.53
109168.62
109173.67
109178.66
109183.6
109188.49
109193.33
109198.12
109202.86
109207.55
109212.19
109216.78
109221.32
109225.81
109230.25
109234.64
109238.98
109243.27
109247.51
109251.7
109255.83
109259.92
109263.96
109267.95
109271.89
109275.77
109279.61
109283.4
109287.14
109290.83
109294.48
109298.07
109301.61
109305.11
109308.56
109311.96
109315.31
109318.61
109321.87
109325.08
109328.24
109331.36
109334.42
109337.45
109340.42
109343.35
109346.24
109349.08
109351.88
109354.63
109357.33
109360
109362.62
109365.19
109367.72
109370.21
109372.66
109375.07
109377.43
109379.76
109382.04
109384.28
109386.49
109388.65
109390.77
109392.86
109394.91
109396.91
109398.88
109400.82
109402.71
109404.58
109406.4
109408.19
109409.94
109411.66
109413.34
109415
109416.61
109418.2
109419.75
109421.27
109422.75
109424.21
109425.64
109427.03
109428.4
109429.73
109431.04
109432.31
109433.56
109434.78
109435.98
109437.14
109438.28
109439.4
109440.49
109441.55
109442.59
109443.6
109444.59
109445.55
109446.5
109447.42
109448.31
109449.19
109450.04
109450.87
109451.68
109452.47
109453.24
109453.99
109454.73
109455.44
109456.13
109456.81
109457.46
109458.1
109458.73
109459.33
109459.92
109460.5
109461.05
109461.59
109462.12
109462.63
109463.13
109463.61
109464.08
109464.54
109464.98
109465.41
109465.82
109466.23
109466.62
109467
109467.36
109467.72
109468.06
109468.4
109468.72
109469.03
109469.33
109469.62
109469.91
109470.18
109470.44
109470.69
109470.94
109471.17
109471.4
109471.62
109471.83
109472.03
109472.22
109472.41
109472.58
109472.75
109472.91
109473.07
109473.22
109473.36
109473.49
109473.61
109473.73
109473.84
109473.95
109474.05
109474.14
109474.23
109474.3
109474.38
109474.44
109474.5
109474.56
109474.6
109474.64
109474.68
109474.7
109474.73
109474.74
109474.75
109474.75
109474.75
109474.74
109474.72
109474.7
109474.67
109474.63
109474.59
109474.54
109474.48
109474.42
109474.35
109474.27
109474.18
109474.09
109473.99
109473.88
109473.77
109473.65
109473.51
109473.38
109473.23
109473.07
109472.91
109472.73
109472.55
109472.36
109472.15
109471.94
109471.72
109471.48
109471.24
109470.99
109470.72
109470.45
109470.17
109469.87
109469.56
109469.24
109468.91
109468.56
109468.19
109467.81
109467.42
109467.01
109466.59
109466.16
109465.71
109465.25
109464.77
109464.29
109463.78
109463.26
109462.72
109462.16
109461.57
109460.96
109460.33
109459.68
109459
109458.31
109457.6
109456.87
109456.13
109455.38
109454.61
109453.82
109453.01
109452.16
109451.29
109450.37
109449.42
109448.43
109447.4
109446.35
109445.28
109444.18
109443.06
109441.92
109440.76
109439.62
109438.51
109437.57
109435.73
109434.64
109433.36
109432
109430.62
109429.2
109427.74
109426.25
109424.72
109423.17
109421.58
109419.96
109418.32
109416.64
109414.94
109413.21
109411.44
109409.63
109407.78
109405.9
109403.96
109401.99
109399.97
109397.91
109395.8
109393.65
109391.45
109389.22
109386.94
109384.62
109382.26
109379.85
109377.4
109374.9
109372.35
109369.76
109367.12
109364.43
109361.69
109358.9
109356.06
109353.17
109350.24
109347.25
109344.22
109341.13
109337.99
109334.81
109331.57
109328.28
109324.93
109321.54
109318.09
109314.59
109311.04
109307.43
109303.77
109300.06
109296.29
109292.47
109288.59
109284.66
109280.68
109276.64
109272.54
109268.4
109264.19
109259.94
109255.62
109251.26
109246.83
109242.35
109237.82
109233.23
109228.59
109223.89
109219.13
109214.33
109209.46
109204.54
109199.57
109194.54
109189.46
109184.32
109179.13
109173.88
109168.58
109163.23
109157.82
109152.35
109146.84
109141.27
109135.65
109129.97
109124.24
109118.46
109112.63
109106.75
109100.81
109094.82
109088.79
109082.7
109076.56
109070.37
109064.13
109057.84
109051.5
109045.11
109038.68
109032.2
109025.66
109019.09
109012.46
109005.79
108999.07
108992.31
108985.5
108978.64
108971.74
108964.8
108957.81
108950.78
108943.71
108936.59
108929.44
108922.24
108915
108907.72
108900.4
108893.03
108885.63
108878.2
108870.72
108863.2
108855.65
108848.06
108840.44
108832.78
108825.08
108817.35
108809.58
108801.78
108793.95
108786.08
108778.18
108770.25
108762.29
108754.29
108746.27
108738.21
108730.13
108722.01
108713.87
108705.7
108697.5
108689.27
108681.02
108672.74
108664.43
108656.1
108647.74
108639.36
108630.95
108622.52
108614.07
108605.59
108597.09
108588.57
108580.03
108571.46
108562.88
108554.27
108545.65
108537
108528.34
108519.66
108510.96
108502.24
108493.5
108484.74
108475.97
108467.18
108458.38
108449.56
108440.72
108431.87
108423.01
108414.13
108405.23
108396.32
108387.4
108378.47
108369.52
108360.56
108351.58
108342.6
108333.6
108324.59
108315.57
108306.54
108297.5
108288.45
108279.39
108270.32
108261.24
108252.15
108243.05
108233.94
108224.82
108215.7
108206.57
108197.42
108188.27
108179.12
108169.95
108160.78
108151.6
108142.42
108133.23
108124.03
108114.82
108105.61
108096.4
108087.17
108077.95
108068.71
108059.47
108050.23
108040.98
108031.73
108022.47
108013.21
108003.94
107994.67
107985.39
107976.11
107966.83
107957.54
107948.24
107938.95
107929.65
107920.35
107911.04
107901.73
107892.42
107883.1
107873.78
107864.46
107855.14
107845.81
107836.48
107827.14
107817.81
107808.47
107799.13
107789.79
107780.44
107771.09
107761.74
107752.39
107743.04
107733.68
107724.32
107714.96
107705.6
107696.24
107686.87
107677.5
107668.13
107658.76
107649.39
107640.01
107630.64
107621.26
107611.88
107602.5
107593.12
107583.73
107574.35
107564.96
107555.57
107546.18
107536.79
107527.4
107518.01
107508.61
107499.22
107489.82
107480.42
107471.02
107461.62
107452.22
107442.82
107433.41
107424.01
107414.6
107405.19
107395.78
107386.37
107376.96
107367.55
107358.14
107348.72
107339.31
107329.89
107320.47
107311.05
107301.63
107292.21
107282.79
107273.37
107263.95
107254.52
107245.1
107235.67
107226.24
107216.82
107207.39
107197.96
107188.53
107179.09
107169.66