/*--------------------------------*- C++ -*----------------------------------*\
  =========                 |
  \\      /  F ield         | OpenFOAM: The Open Source CFD Toolbox
   \\    /   O peration     | Website:  https://openfoam.org
    \\  /    A nd           | Version:  7
     \\/     M anipulation  |
\*---------------------------------------------------------------------------*/
FoamFile
{
    version     2.0;
    format      ascii;
    class       volScalarField;
    location    "0.0033";
    object      Uy;
}
// * * * * * * * * * * * * * * * * * * * * * * * * * * * * * * * * * * * * * //

dimensions      [0 1 -1 0 0 0 0];

internalField   nonuniform List<scalar> 
5000
(
1.1535078e-21
1.5566052e-21
0
0
-8.6374954e-22
9.7998991e-37
8.5896828e-22
0
0
-8.3577895e-22
-1.6435914e-21
8.0551289e-22
7.6219663e-22
-7.4588446e-22
0
-8.2018268e-22
-9.1510819e-53
8.4554849e-22
0
8.4804487e-22
-8.4868341e-22
-8.4836823e-22
1.6923693e-21
-8.4250881e-22
-8.3767255e-22
-6.8598428e-36
8.2719099e-22
8.2318901e-22
-1.6327631e-21
1.4066749e-35
-1.4262949e-35
8.2563944e-22
1.6688152e-21
-1.6815469e-21
1.4663284e-35
-7.3652421e-35
-2.9225349e-35
1.6731394e-21
-1.6595207e-21
-1.6493254e-21
1.6347761e-21
-5.5799608e-35
-1.6299724e-21
8.2485857e-22
2.5042973e-21
-8.41497e-22
-8.4446668e-22
-5.7693916e-35
-1.6708045e-21
0
8.2043838e-22
1.1538002e-37
-8.0984659e-22
1.6374636e-21
-2.9040454e-35
-1.6782054e-21
8.4356226e-22
-2.9066139e-35
-8.3273674e-22
0
8.1260033e-22
2.7443506e-35
2.305588e-37
8.253617e-22
-8.3784723e-22
2.9531626e-35
8.4199735e-22
-8.3143903e-22
-8.2245444e-22
8.1020918e-22
8.0306511e-22
-8.1289007e-22
-8.2863964e-22
1.680706e-21
8.4436187e-22
-8.3997053e-22
0
8.2445916e-22
-1.1587431e-37
-8.096134e-22
8.1698297e-22
-2.3576449e-37
2.3852334e-37
8.4317037e-22
8.4012142e-22
2.898006e-35
-8.2616536e-22
0
-8.1213019e-22
-8.4844768e-35
-2.8997179e-35
8.4128727e-22
8.4457533e-22
-1.6743723e-21
-5.7305232e-35
8.1772536e-22
0
0
-8.2458984e-22
-5.8084507e-35
1.6868578e-21
-8.388308e-22
-1.6602968e-21
0
8.1375432e-22
8.130717e-22
-8.2250077e-22
-8.3426273e-22
0
0
8.3203881e-22
8.2666273e-22
0
-8.1851827e-22
2.880271e-35
8.3235745e-22
-8.3733078e-22
2.3766035e-37
-2.9094346e-35
-6.3077952e-53
1.6509309e-21
-3.5128498e-37
-8.2695343e-22
0
-8.3451982e-22
8.3325366e-22
8.3088392e-22
-1.6572981e-21
-8.2679709e-22
1.6533249e-21
8.2866947e-22
-8.307977e-22
-8.3124084e-22
-8.3010447e-22
0
8.2756489e-22
8.2662446e-22
-8.2708058e-22
-2.8714886e-35
8.2845806e-22
-8.2773002e-22
-8.2678054e-22
0
8.2520931e-22
8.2508358e-22
-8.2525117e-22
8.2516184e-22
-4.6876581e-37
-8.2407921e-22
8.2358552e-22
-8.2317427e-22
5.7300471e-35
8.2260488e-22
-8.2214138e-22
8.2147717e-22
8.2064533e-22
-8.1957828e-22
0
0
-8.1570511e-22
-8.1076635e-22
8.0859665e-22
8.1170517e-22
-8.1251393e-22
-5.6348992e-35
8.1416383e-22
-8.1713356e-22
-8.2073755e-22
0
8.2675872e-22
8.2881175e-22
0
-8.2043707e-22
-8.057552e-22
0
5.3984475e-22
1.2111568e-34
-8.5319533e-22
8.3091397e-22
7.4934669e-22
-7.5425572e-22
-5.5402743e-35
5.5682063e-35
3.4201152e-37
8.0062394e-22
-8.0204998e-22
-1.1082541e-34
5.4754025e-35
-5.4608416e-35
7.9228035e-22
0
0
-7.8426035e-22
-7.8413213e-22
0
0
7.8625783e-22
1.5496241e-52
-7.7815713e-22
0
7.7552058e-22
-7.8024283e-22
-2.1684005e-34
1.5592014e-21
-7.753137e-22
-1.5986457e-34
-1.0879507e-37
-7.6608568e-22
7.7103213e-22
-1.099962e-37
-1.0692558e-34
5.3210176e-35
-7.6393556e-22
0
7.5907964e-22
5.2797694e-35
2.1258419e-34
7.651531e-22
0
-7.5701046e-22
-7.5256467e-22
0
0
0
7.5831453e-22
5.2281201e-35
-7.5189979e-22
0
0
7.4652149e-22
7.4825244e-22
-7.4826339e-22
-7.4641738e-22
0
7.3934872e-22
7.3862582e-22
-7.4161282e-22
-7.4283813e-22
0
7.3625959e-22
-2.0295231e-34
-5.0367601e-35
7.2635969e-22
-7.3097745e-22
-7.3539452e-22
0
7.3146149e-22
-1.0109631e-34
7.2348939e-22
9.9922106e-35
-1.4422184e-21
7.2417469e-22
-1.0070975e-34
-2.5195767e-34
-5.0114948e-35
-7.2190616e-22
7.1966221e-22
7.1737005e-22
0
-7.1262578e-22
-7.1352698e-22
0
7.1702713e-22
7.1364516e-22
-1.41924e-21
-7.0493167e-22
7.0108008e-22
7.0243867e-22
1.9634609e-34
-7.1057764e-22
7.0781456e-22
-4.8786503e-35
-6.9836694e-22
6.9428437e-22
-4.8301513e-35
4.87466e-35
-1.9991151e-37
-4.8464711e-35
6.9825814e-22
0
0
-6.9186425e-22
-6.9498299e-22
0
0
0
0
6.83365e-22
4.7384936e-35
-1.3828101e-21
2.9471167e-37
6.875608e-22
6.812262e-22
-9.3735738e-35
-9.3448007e-35
-9.6776381e-38
-6.8774432e-22
-6.887971e-22
-6.8391499e-22
1.356273e-21
2.0133791e-21
-6.6736725e-22
-1.3457698e-21
0
6.8617979e-22
6.8259723e-22
-6.7709777e-22
1.9059688e-37
-2.8366641e-37
1.8943949e-37
6.7328006e-22
6.8029649e-22
-6.82011e-22
-1.3559663e-21
6.7351902e-22
-4.2019926e-53
6.6484906e-22
1.8479706e-34
-1.3460477e-21
0
0
1.3477575e-21
-3.7210791e-34
-1.3317994e-21
0
6.6782847e-22
6.7384671e-22
-6.7653958e-22
9.5771258e-38
-9.3068105e-35
9.4694888e-38
6.6323886e-22
-6.6481726e-22
-6.702402e-22
0
6.7340258e-22
-9.3146735e-35
-6.6737247e-22
1.3284113e-21
-1.8423919e-34
-6.6836236e-22
-1.8665972e-34
-1.3459426e-21
1.3423431e-21
6.6816564e-22
-6.6513306e-22
-9.4430285e-38
-6.6815505e-22
0
0
6.7198993e-22
-9.2865884e-35
-1.3329772e-21
9.4401603e-38
2.000403e-21
-6.7203393e-22
-6.7547979e-22
1.3496669e-21
-6.7270786e-22
6.7094949e-22
1.3393397e-21
-6.6999171e-22
-6.720502e-22
-6.7437989e-22
6.7586139e-22
-1.2350883e-53
-6.7645652e-22
6.7601743e-22
-6.753493e-22
6.7485576e-22
1.8660269e-34
1.9094891e-37
6.7254742e-22
-1.3521034e-21
6.7859406e-22
1.8836315e-34
-1.8769371e-34
-6.7379635e-22
-1.3421759e-21
2.0137942e-21
1.87416e-34
-3.7727476e-34
1.8876608e-34
-1.3585783e-21
1.3528117e-21
-1.8672493e-34
-1.3439025e-21
0
0
6.8590606e-22
-9.5044279e-35
-6.830212e-22
-6.8115241e-22
6.799663e-22
2.0436611e-21
-6.8293444e-22
-6.8377985e-22
-1.943214e-37
-6.812247e-22
0
1.359891e-21
1.3696039e-21
-6.9010752e-22
-1.3835752e-21
-6.8925343e-22
1.3717347e-21
1.3661224e-21
-1.3610372e-21
-1.3608164e-21
0
1.3761064e-21
-6.9231385e-22
-1.3905629e-21
6.9500472e-22
6.9159359e-22
-9.7823619e-38
9.4996745e-35
6.8092264e-22
-6.835598e-22
-6.9047085e-22
6.9738498e-22
-9.696147e-35
-9.887284e-38
-9.6033383e-35
-6.8884377e-22
6.8588162e-22
-2.862304e-34
-9.6134684e-35
-1.9393224e-34
-7.013428e-22
6.9885554e-22
-9.6575138e-35
-1.9185788e-34
-9.7908275e-38
-1.3804689e-21
-6.9569518e-22
7.0081342e-22
1.4039757e-21
-9.7130706e-35
-1.3933699e-21
-6.9323004e-22
1.3828108e-21
6.9491471e-22
-7.0100522e-22
-7.0421095e-22
-1.9494998e-34
6.9956108e-22
0
0
6.9554663e-22
0
-7.0395791e-22
7.0349573e-22
9.9692823e-38
-1.9389827e-34
0
-6.9664917e-22
7.0055858e-22
7.0363808e-22
-1.4078152e-21
-7.0250339e-22
6.9995518e-22
0
0
-7.0118134e-22
1.9550504e-34
7.0357822e-22
0
0
-6.9779924e-22
2.9102345e-34
7.0145429e-22
0
0
0
0
0
0
0
0
1.4018318e-21
3.8750621e-34
-6.9507163e-22
6.9382235e-22
-6.9675247e-22
7.0014597e-22
-1.9485592e-34
-6.9923727e-22
-1.9336098e-34
-6.934291e-22
0
0
6.9787778e-22
1.9393166e-34
-6.9721348e-22
0
0
0
0
0
0
0
1.3810769e-21
-5.7487204e-34
-1.3843278e-21
6.9317752e-22
9.8305469e-38
6.8877551e-22
-3.8002022e-34
-1.3673258e-21
-6.8657823e-22
-3.6757676e-53
2.0693317e-21
0
-1.3659776e-21
0
0
1.3643151e-21
-1.9035436e-34
-2.0595611e-21
6.8352268e-22
6.7930027e-22
-6.7491581e-22
6.7323359e-22
-6.7688222e-22
-1.8911573e-34
6.8312029e-22
-6.8018188e-22
0
-6.7254775e-22
6.6933009e-22
1.3424473e-21
-6.7639381e-22
-6.7904794e-22
-6.7646604e-22
-6.7256369e-22
1.3367298e-21
6.6485437e-22
-6.6545118e-22
0
6.7250798e-22
-6.7120364e-22
-6.6827464e-22
1.9919764e-21
1.8763715e-37
-1.3201244e-21
6.6405368e-22
9.2695615e-35
6.6757463e-22
-1.8883642e-37
-1.3215165e-21
6.568642e-22
0
-1.8249256e-34
-9.3831256e-38
-6.6117978e-22
6.599459e-22
-1.824096e-34
-9.0723638e-35
-9.290851e-38
-6.566202e-22
6.5844366e-22
2.1178884e-52
-1.8116798e-34
-9.2113573e-38
-1.2894289e-21
-8.9591621e-35
6.5056302e-22
0
0
-6.4870601e-22
-2.6837303e-34
6.4206195e-22
-6.4362978e-22
8.9718451e-35
7.2937433e-52
-8.9487714e-35
6.3963407e-22
6.3471048e-22
8.7927985e-35
-6.3902868e-22
0
0
6.4073633e-22
-6.3577928e-22
5.2407717e-34
6.2530814e-22
-6.2915407e-22
0
6.4155183e-22
6.4138067e-22
-6.3771601e-22
-6.3457933e-22
0
6.2953825e-22
6.2902045e-22
-1.2611629e-21
-6.3298987e-22
6.3547731e-22
6.359562e-22
8.7910367e-35
6.312083e-22
1.7454915e-34
-1.2519016e-21
0
0
0
6.3125745e-22
6.2958157e-22
0
-6.2481146e-22
-8.6312689e-35
6.2451957e-22
0
0
-6.2696521e-22
-8.6644431e-35
8.6239251e-35
-6.2172897e-22
6.2408621e-22
-2.6048411e-34
-6.2531291e-22
0
-6.2080386e-22
-8.5870678e-35
6.19485e-22
-6.2239222e-22
6.2455854e-22
6.239769e-22
-6.2158734e-22
0
6.178564e-22
6.2063519e-22
-6.2354859e-22
-6.2242464e-22
0
-6.1525779e-22
6.1176493e-22
6.1467531e-22
-6.2206534e-22
-1.2516543e-21
3.4523594e-34
1.8473933e-21
-9.3378982e-53
-6.0283425e-22
-1.2148929e-21
3.4239482e-34
1.2505316e-21
-6.2604388e-22
6.2083935e-22
-6.161348e-22
-6.1085217e-22
1.2137293e-21
0
0
-1.2429617e-21
-4.2952699e-52
1.2482458e-21
0
0
-1.2278127e-21
1.3098238e-51
1.2242433e-21
0
0
-1.2502352e-21
-6.2162899e-22
1.235949e-21
6.1355998e-22
0
-1.2245745e-21
3.4349602e-34
1.2478466e-21
-6.2481355e-22
0
6.1939691e-22
-6.1603314e-22
8.7183985e-38
6.1596628e-22
-6.2152813e-22
6.2476149e-22
6.2340991e-22
-6.2092114e-22
-6.177542e-22
1.7079618e-34
6.1634449e-22
-6.2125418e-22
-1.7339875e-34
6.2381558e-22
-6.2139609e-22
6.1756927e-22
6.1394316e-22
-6.1405736e-22
-6.188193e-22
1.734209e-34
6.2638056e-22
-6.2358557e-22
8.8158541e-38
6.1650245e-22
-6.1340647e-22
6.1526388e-22
6.2062956e-22
-6.2592263e-22
-1.2536426e-21
3.4659452e-34
1.2418103e-21
-6.1797048e-22
8.7447545e-38
1.2315974e-21
1.7599108e-37
-6.2363463e-22
0
6.2478627e-22
0
-6.2054283e-22
0
0
0
-6.2282941e-22
-8.8075576e-53
6.2255426e-22
0
6.1808893e-22
-1.710658e-34
-6.1781888e-22
0
0
0
-6.1730549e-22
1.7036645e-34
6.1189775e-22
0
6.2115126e-22
1.7291721e-34
-6.1914074e-22
0
6.09218e-22
-6.053856e-22
3.3788441e-34
6.1433159e-22
-6.1880752e-22
0
-6.1819081e-22
-1.7132119e-34
6.1602088e-22
0
6.1565667e-22
-6.1588862e-22
-3.4188003e-34
6.148945e-22
-3.4099529e-34
-8.7212997e-38
1.7052237e-34
-8.7251384e-38
-6.1383383e-22
0
6.1274066e-22
-1.6992124e-34
-1.6980291e-34
2.4608241e-53
-1.6961609e-34
0
-1.2189403e-21
-1.6901953e-34
6.0786134e-22
-6.0747357e-22
1.6860626e-34
6.0770552e-22
6.078284e-22
1.6876109e-34
-1.6868161e-34
6.0702292e-22
-6.0650519e-22
-6.0600872e-22
0
-6.0525038e-22
1.6792712e-34
6.0381391e-22
0
0
0
-1.1946711e-21
6.6176138e-34
1.1886368e-21
0
0
0
0
0
0
0
-1.1908028e-21
3.301941e-34
1.1860858e-21
5.9193392e-22
-5.9106648e-22
-5.9023512e-22
1.6377356e-34
3.2685187e-34
5.8905681e-22
-5.8870842e-22
5.8790805e-22
5.8692415e-22
-5.8588205e-22
-5.8491164e-22
3.2420196e-34
5.8328214e-22
5.827146e-22
-1.6157019e-34
-5.8220537e-22
-5.8180922e-22
5.8129053e-22
5.8068258e-22
-5.8008471e-22
5.7957444e-22
0
-5.7871677e-22
-5.7829624e-22
1.6029797e-34
5.7743338e-22
-5.7699583e-22
5.765512e-22
5.7609684e-22
-5.7562437e-22
5.7514556e-22
1.5956695e-34
-5.7409952e-22
-5.7352897e-22
-8.1417981e-38
1.1446051e-21
3.1740121e-34
-5.7105599e-22
-5.7049202e-22
0
5.6945138e-22
0
0
0
5.676434e-22
5.6718511e-22
-5.6673346e-22
-5.6627895e-22
0
5.6534787e-22
-1.5693378e-34
-5.6438646e-22
0
0
5.6284648e-22
-3.1211581e-34
-5.6172206e-22
0
0
5.599758e-22
-3.1052378e-34
-5.5891421e-22
0
5.5800196e-22
-1.5482842e-34
1.5464254e-34
-1.5461528e-34
-5.5641234e-22
0
-5.5559486e-22
3.0809015e-34
5.5476908e-22
0
5.5393424e-22
-5.5351698e-22
-5.5310246e-22
1.1053871e-21
1.5351778e-34
-1.1037932e-21
1.5314144e-34
5.5111846e-22
0
0
5.4999055e-22
-1.5253976e-34
-5.4924533e-22
0
5.4849418e-22
-5.4811334e-22
-5.4772152e-22
5.4731991e-22
0
-5.4649153e-22
5.4604898e-22
3.0284135e-34
-3.0256918e-34
5.4457907e-22
-4.5305468e-34
5.4349024e-22
-5.4292659e-22
1.5052538e-34
-3.0089613e-34
-1.0825511e-21
1.5001473e-34
5.4036118e-22
0
0
0
-1.0777624e-21
-5.3852838e-22
1.0763554e-21
5.3783105e-22
0
0
5.3678583e-22
1.7406966e-53
-5.3608017e-22
0
-1.0707272e-21
-5.3500052e-22
1.0692685e-21
5.3426389e-22
0
-1.0670191e-21
-1.5152049e-37
1.5981087e-21
-1.4764916e-34
-1.0636265e-21
5.3133641e-22
3.0174614e-37
-5.3031894e-22
1.4718661e-34
2.9362491e-34
5.2873177e-22
0
5.2777773e-22
-2.9279584e-34
-1.0538995e-21
5.2656178e-22
-8.7607617e-34
-5.2581701e-22
1.0508797e-21
-7.4615711e-38
-5.2468357e-22
0
0
0
-5.2319833e-22
5.2283087e-22
1.0449322e-21
-5.2210409e-22
-1.4487805e-34
-1.446306e-34
-5.2103234e-22
0
5.2033202e-22
-7.3894436e-38
-1.0392847e-21
5.1930126e-22
2.8791589e-34
-5.1862441e-22
-5.1828836e-22
2.8779724e-34
1.0352306e-21
0
5.1693277e-22
5.1658244e-22
0
-5.1585423e-22
-5.1547543e-22
5.150892e-22
0
-5.1432142e-22
0
0
5.133254e-22
-4.2726139e-34
-5.1283305e-22
0
0
5.1227e-22
5.1210268e-22
-5.1194317e-22
-5.1179298e-22
5.1164913e-22
5.1151298e-22
-1.0227788e-21
-5.1127626e-22
1.420144e-34
5.1107089e-22
-2.8348583e-34
-2.8343611e-34
5.1080266e-22
-5.1072399e-22
5.1065139e-22
-5.1058517e-22
-4.3530159e-37
5.1047933e-22
-1.020891e-21
-5.1043266e-22
-5.104302e-22
1.0208834e-21
1.0209657e-21
-5.1054574e-22
5.1062212e-22
-5.1070869e-22
2.8368167e-34
1.0218321e-21
-5.1103587e-22
1.4186835e-34
-1.4205353e-34
-5.1146474e-22
0
0
5.1197998e-22
5.1217038e-22
0
-5.1256898e-22
-5.1277638e-22
0
-5.1322812e-22
1.4258103e-34
5.1372544e-22
-5.1399689e-22
1.4266147e-34
5.145945e-22
0
5.1524122e-22
2.8625856e-34
-5.1592311e-22
5.1627655e-22
-1.4324128e-34
-5.1702305e-22
-5.1741398e-22
-1.4371356e-34
5.1822874e-22
0
-5.1908538e-22
5.1952784e-22
-1.4778695e-37
2.8903047e-34
5.2090389e-22
-5.2137713e-22
0
-1.0446826e-21
1.160845e-33
5.2332684e-22
2.9076326e-34
1.0486584e-21
-1.0496741e-21
-1.0507005e-21
1.0517402e-21
1.052794e-21
5.2693156e-22
0
-5.2802231e-22
-1.0571564e-21
7.5195393e-38
-5.297087e-22
5.3028255e-22
5.3086135e-22
-5.3144452e-22
1.0640642e-21
-1.0652471e-21
-8.8808157e-34
1.0676317e-21
-1.0688305e-21
2.9697472e-34
-5.3561846e-22
5.3622093e-22
5.3682372e-22
-5.3742606e-22
-1.4924647e-34
-1.0772528e-21
1.0784485e-21
1.0796386e-21
-1.0808223e-21
-1.5014805e-34
-5.4158531e-22
3.0109749e-34
5.427424e-22
1.5079006e-34
-1.0703867e-52
5.4443872e-22
1.0899835e-21
-5.4553788e-22
2.2684844e-52
-5.4660774e-22
-9.1140811e-34
5.4764418e-22
-1.0962959e-21
3.0453762e-34
1.0982477e-21
-2.1457672e-53
-5.5005031e-22
0
0
-5.5127029e-22
5.5162537e-22
1.1039232e-21
0
0
0
-5.533446e-22
-5.5370826e-22
0
5.5443846e-22
-5.5478966e-22
-9.2458722e-34
1.1109567e-21
0
0
0
-5.5675149e-22
-5.570435e-22
5.5732375e-22
-5.5759253e-22
-3.0980732e-34
1.1161877e-21
0
0
-1.1175052e-21
1.5886233e-37
5.5912881e-22
-5.5929718e-22
5.5945255e-22
-5.5959449e-22
3.1084771e-34
1.1196738e-21
0
0
-5.6009595e-22
-5.6015104e-22
0
0
5.6022593e-22
5.6022333e-22
0
-5.6017673e-22
-5.6013352e-22
5.6007806e-22
-5.60011e-22
-5.5993213e-22
5.5984193e-22
5.5974039e-22
-3.1079495e-34
-5.59504e-22
5.5936902e-22
1.5520547e-34
-5.5906407e-22
0
-5.5871258e-22
3.1010004e-34
5.5831422e-22
-5.5809693e-22
3.0973853e-34
5.5762747e-22
0
-5.5710997e-22
1.5462153e-34
7.908975e-38
-5.5624405e-22
5.5593166e-22
5.5560734e-22
0
-1.1098452e-21
6.1596338e-34
5.5418957e-22
7.8700438e-38
1.1068175e-21
-1.1060015e-21
-1.105161e-21
1.1042965e-21
5.5170434e-22
0
-1.1015652e-21
9.1622775e-34
1.0996369e-21
0
-1.0976308e-21
-3.0450447e-34
5.477784e-22
1.519601e-34
1.0934248e-21
-1.0923389e-21
-1.3627968e-33
1.0901319e-21
-1.0890102e-21
3.0185003e-34
1.0867339e-21
5.427893e-22
-1.0844113e-21
-5.4161645e-22
1.0820424e-21
-1.0808391e-21
-1.348288e-33
1.0783959e-21
-1.0771548e-21
1.49378e-34
-5.3731587e-22
5.9548552e-34
1.6080799e-21
-2.9717166e-34
-1.0694154e-21
5.340366e-22
1.0667151e-21
-5.3267005e-22
2.9536161e-34
-5.3126876e-22
-5.8929727e-34
5.2982973e-22
-1.0581888e-21
4.3998541e-34
-5.8578398e-34
2.9228243e-34
5.2607343e-22
0
5.2459609e-22
5.2387928e-22
0
0
0
0
0
-5.1959825e-22
-5.1889506e-22
0
5.1749618e-22
-5.1680062e-22
-8.5972932e-34
1.0308301e-21
0
0
0
-5.1266311e-22
-5.1197824e-22
5.112948e-22
5.1061254e-22
-1.0198628e-21
-8.4845594e-34
1.0171535e-21
0
-1.0144724e-21
-8.438494e-34
5.0591946e-22
-5.0527304e-22
5.0463601e-22
-5.0400889e-22
-2.7942041e-34
1.0055662e-21
0
0
-5.0101482e-22
-5.0044395e-22
0
-4.9933048e-22
-1.4176401e-37
-4.9825442e-22
-4.9773047e-22
4.9721571e-22
0
9.9242686e-22
9.9145208e-22
0
-1.4843391e-21
-9.8864078e-22
9.8774017e-22
-4.9342917e-22
-4.9299764e-22
1.4777253e-21
4.9216189e-22
6.9883014e-38
4.9136361e-22
-4.9097894e-22
-4.9060379e-22
-4.9023854e-22
-1.6845485e-53
-4.8953934e-22
-4.8920583e-22
4.8888282e-22
0
9.7653812e-22
9.7595636e-22
0
-4.874262e-22
-9.7433035e-22
-2.7020474e-34
-4.8667049e-22
-9.7287145e-22
9.724177e-22
9.7197907e-22
4.8577732e-22
4.8557163e-22
0
-4.8517712e-22
-1.4549634e-21
4.8480288e-22
9.2795788e-52
-1.4533368e-21
9.6854497e-22
4.8410231e-22
4.8393481e-22
9.6754048e-22
-9.6721578e-22
-4.8344762e-22
4.8328957e-22
4.8313269e-22
4.8297751e-22
-1.4484691e-21
-4.8266845e-22
1.4475416e-21
4.8235802e-22
-4.8219997e-22
-9.6407797e-22
4.8187474e-22
-4.8170581e-22
8.0172258e-34
-8.016954e-34
-1.4434885e-21
4.8096646e-22
4.8076109e-22
9.6109293e-22
4.8032083e-22
-9.601673e-22
-1.3637714e-37
-4.7957222e-22
4.7929691e-22
1.4370228e-21
-1.4361103e-21
-4.783838e-22
1.4341429e-21
0
-1.4319739e-21
-4.7693579e-22
1.4295796e-21
-4.7609638e-22
-9.5128956e-22
-2.6375544e-34
5.2688911e-34
4.7414579e-22
0
9.4603206e-22
9.4481783e-22
-4.7177188e-22
-4.7110383e-22
-9.4080689e-22
4.6966969e-22
4.6890159e-22
-9.3619541e-22
0
9.3275931e-22
9.3092499e-22
-4.6450519e-22
-9.2701468e-22
2.5670461e-34
4.6138441e-22
-9.2051347e-22
4.5908369e-22
-1.5248978e-33
-9.1319599e-22
4.5528274e-22
0
9.0500359e-22
0
-9.9818339e-34
-4.4793821e-22
-8.9261656e-22
1.3338655e-21
-1.2587342e-37
-8.8214989e-22
0
8.7458109e-22
4.3530625e-22
-8.6651968e-22
4.7870432e-34
4.289786e-22
-8.5348375e-22
4.2444095e-22
-7.0273306e-34
-8.3929433e-22
4.1715384e-22
-4.1459612e-22
8.2394724e-22
1.2278561e-21
0
-1.2111254e-21
-8.0163488e-22
1.1935702e-21
7.8965116e-22
-3.9172338e-22
-7.7709922e-22
3.8530396e-22
3.8198511e-22
-7.5718561e-22
3.7512679e-22
7.4317203e-22
-3.6797003e-22
5.1767033e-38
-7.2101882e-22
-7.1332631e-22
1.0582145e-21
-3.4873333e-22
-5.7401513e-34
1.0214413e-21
0
-9.9568324e-22
-6.5494621e-22
3.2296426e-22
3.1836665e-22
3.1367851e-22
0
3.0402516e-22
-1.6599908e-34
-5.8798184e-22
1.6027977e-34
2.8356282e-22
0
2.727303e-22
-5.3431699e-22
-7.8444252e-22
5.1139065e-22
7.4939995e-22
2.4379202e-22
-2.3766706e-22
-4.6283757e-22
2.2503677e-22
-2.1850622e-22
-2.1180491e-22
4.0979267e-22
-3.9550077e-22
-1.9272704e-22
5.5850767e-22
3.58723e-22
-1.8241181e-22
-5.323095e-22
3.8305309e-34
-3.9177833e-34
-1.7933424e-22
-2.0212751e-34
-1.7692945e-22
1.7729518e-22
1.7786228e-22
1.7316388e-22
-1.764929e-22
-1.6646466e-22
5.0377406e-22
-1.6589973e-22
-3.0737058e-22
4.504953e-22
4.4091484e-38
-1.5360001e-22
3.1084929e-22
1.547208e-22
0
-1.5067299e-22
-1.3942701e-22
-2.5141245e-22
1.2391622e-22
-4.0930667e-34
-3.3319085e-22
9.8545814e-23
9.1673228e-23
8.4164385e-23
-7.984635e-23
-6.9486356e-23
1.6610685e-22
-4.3474294e-23
-6.5044445e-23
-3.5042923e-35
-7.7989694e-24
-9.8763973e-24
-4.5702475e-23
-1.4160061e-35
2.2174482e-35
8.1145441e-39
7.1205191e-23
1.6582786e-22
9.6418641e-23
-3.305973e-22
1.3674388e-34
2.787486e-22
0
0
-1.9574028e-22
1.1546433e-34
-1.2232034e-34
-2.3551296e-22
5.166578e-22
2.8534819e-22
3.4064706e-34
-3.2263569e-22
-1.0117792e-21
-3.5600515e-22
0
0
0
1.3493081e-21
9.4490373e-22
-1.5061419e-21
5.8734797e-34
1.0967883e-21
0
0
-1.2737488e-21
1.4786436e-33
7.6432255e-34
-1.4256621e-21
7.438252e-22
1.5644954e-21
1.6439673e-21
-8.5831867e-22
-2.671926e-21
-9.2023878e-22
0
0
0
3.2448287e-21
2.2512204e-21
-3.4760251e-21
2.6512946e-33
1.2410738e-21
-1.8439035e-37
1.3535395e-21
-2.8039785e-21
1.6033698e-33
1.4921745e-21
-3.1013363e-21
0
9.2743844e-34
3.4533437e-21
3.575139e-21
-5.5723639e-21
-3.8506464e-21
1.9817249e-21
1.1318313e-33
-2.1107877e-21
6.5780917e-21
4.5587703e-21
-2.3590067e-21
-2.4256367e-21
2.4944869e-21
2.5776218e-21
-2.6742786e-21
-2.7762662e-21
1.5952036e-33
-1.6430948e-33
-3.0456393e-21
0
-3.2530837e-21
6.7385943e-21
1.0432286e-20
-7.1537191e-21
-7.3670073e-21
-3.8066483e-21
4.3731809e-33
8.1416295e-21
-4.1943229e-21
4.3176402e-21
4.4527294e-21
-9.2027543e-21
9.5051668e-21
4.8958631e-21
-5.0365826e-21
-1.0380143e-20
-5.360822e-21
1.1074648e-20
-3.1655897e-33
5.8674901e-21
6.0373237e-21
-1.8676139e-20
6.4258815e-21
6.6271607e-21
-2.0472234e-20
9.9769426e-37
2.1673205e-20
7.439948e-21
-2.3000514e-20
7.9008857e-21
-1.2141808e-48
1.3940955e-32
1.7226469e-20
-1.7726294e-20
-1.824979e-20
9.3947259e-21
-1.073353e-32
-1.989268e-20
1.0230931e-20
3.1572361e-20
1.0826321e-20
-1.1137769e-20
0
-1.1784759e-20
-2.4233512e-20
1.7700046e-36
3.8409622e-20
1.3161642e-20
-2.7060574e-20
1.9766518e-36
2.8598456e-20
-2.9394356e-20
2.5149885e-32
3.1021496e-20
-4.7803553e-20
-3.2748998e-20
0
0
1.7740987e-20
5.4647207e-20
1.8710307e-20
-5.7660152e-20
2.1910096e-32
4.0512398e-20
-4.1573675e-20
-4.2670892e-20
2.1902552e-20
4.4966363e-20
-2.307356e-20
-2.3674198e-20
7.2861998e-20
2.4914341e-20
4.2564986e-32
-1.454491e-32
-2.6895793e-20
2.7587675e-20
-5.6578403e-20
-8.6999828e-20
0
9.1445231e-20
6.2517323e-20
-9.6146108e-20
9.3366815e-36
3.3661951e-20
-6.8978937e-20
3.5340832e-20
3.6216648e-20
4.1201477e-32
-3.8026382e-20
-7.7904292e-20
3.9891617e-20
8.1700584e-20
8.3666829e-20
-4.7574134e-32
-4.3876398e-20
4.4930996e-20
-9.2007848e-20
-1.4128024e-19
0
1.4797316e-19
1.0095152e-19
-1.5497663e-19
5.8711869e-32
5.4109934e-20
-5.5362516e-20
-5.6629816e-20
3.2132933e-32
1.184768e-19
-3.3632895e-32
-1.2394946e-19
7.0354352e-32
7.1938191e-32
1.3251414e-19
2.0320058e-19
-1.3848652e-19
7.8602503e-32
2.4094986e-31
-7.3944218e-20
-7.5559922e-20
-1.5441584e-19
2.3667722e-19
8.0610291e-20
-1.6470968e-19
1.6824609e-19
4.8839133e-35
-2.6324546e-19
-8.9615649e-20
9.1518303e-20
2.80358e-19
-3.1780874e-31
-1.9482317e-19
-9.9438703e-20
2.0300012e-19
3.1079202e-19
-3.1719464e-19
-1.0790198e-19
-1.2220376e-31
-1.123443e-19
2.2923357e-19
-6.4903548e-32
1.1927745e-19
-1.2166544e-19
4.1334143e-31
3.796364e-19
-3.8711676e-19
-3.9471644e-19
0
0
0
1.4212159e-19
4.3456591e-19
1.4762478e-19
1.6700362e-31
1.5328526e-19
-4.6855195e-19
-1.5912733e-19
1.6211049e-19
1.6513057e-19
1.6818965e-19
-3.4258592e-19
1.7444392e-19
-1.7764094e-19
6.0241013e-31
3.6831125e-19
-5.6241745e-19
-3.8167077e-19
0
3.954189e-19
2.2337845e-31
-2.0475903e-19
6.2503293e-19
2.11974e-19
-2.1565161e-19
0
0
-2.2697128e-19
-4.6167064e-19
5.2120176e-31
4.7739157e-19
2.4269351e-19
-2.4673843e-19
2.5083186e-19
-2.5497325e-19
2.1855609e-47
4.3868123e-31
-8.0299852e-19
0
0
5.6156237e-19
5.7049761e-19
2.8975926e-19
-3.2668941e-31
-8.9673093e-19
3.3708024e-31
6.1650221e-19
0
-6.3555216e-19
-3.2260609e-19
6.5496769e-19
-3.3240959e-19
-3.373803e-19
1.0271763e-18
-3.4744387e-19
1.1741125e-30
7.153568e-19
-1.0886e-18
-7.3620336e-19
0
0
0
1.1683878e-18
7.8980873e-19
-1.2011623e-18
-8.118244e-19
0
8.3417312e-19
-4.6930016e-31
-4.2842302e-19
8.6829791e-19
-4.3991152e-19
4.4571027e-19
4.5154584e-19
-1.372257e-18
9.2665916e-19
9.3855193e-19
-4.7525619e-19
4.8126914e-19
-9.7462962e-19
-1.4801803e-18
0
1.5169407e-18
1.0236395e-18
-5.1802308e-19
-5.2425686e-19
5.8895776e-31
-5.3680972e-19
1.8091572e-30
5.4945993e-19
3.0860174e-31
-1.2311091e-48
-5.6862179e-19
0
-5.8151644e-19
1.1759801e-18
1.7834419e-18
-1.8029722e-18
-1.8225647e-18
0
1.2412699e-18
1.2544192e-18
-1.2675894e-18
6.4039224e-19
6.4700351e-19
-1.9608804e-18
1.3205168e-18
1.3337908e-18
-6.7353733e-19
-1.3603704e-18
-6.8683879e-19
2.0804867e-18
7.0015225e-19
1.176995e-30
-1.4269211e-18
-4.093369e-34
2.1802913e-18
-1.4668201e-18
-2.2201486e-18
-7.46681e-19
2.2599119e-18
1.5198348e-18
-2.2995572e-18
1.7167517e-30
1.5593584e-18
7.8623644e-19
-4.4005223e-31
-1.5986073e-18
8.9457121e-31
-8.1229342e-19
-8.1875278e-19
2.4755614e-18
8.3159655e-19
9.3028607e-31
-1.6886768e-18
2.8331075e-30
2.5708874e-18
-1.7264491e-18
9.6571867e-31
9.7284715e-31
1.958125e-30
8.8792466e-19
-2.6820104e-18
9.0003977e-19
1.5084953e-30
3.0373277e-30
2.7536799e-18
-9.2375376e-19
-1.8591281e-18
1.038351e-30
-9.4103178e-19
-9.4668943e-19
1.9045883e-18
1.9156856e-18
-1.0693091e-30
-2.9062916e-18
1.0811617e-30
9.7944755e-19
-1.9693957e-18
9.8988411e-19
9.9500472e-19
-5.5482437e-31
5.5787651e-31
-1.0099626e-18
2.0296171e-18
-1.0195818e-18
3.4119091e-30
3.4267395e-30
-3.1003932e-18
2.0758854e-18
-2.9625129e-34
-2.0933174e-18
1.0508938e-18
3.1651443e-18
1.0591222e-18
-3.1893437e-18
1.1845566e-30
1.0708414e-18
-2.1491439e-18
2.1564284e-18
5.4050974e-30
-1.0852346e-18
1.0886089e-18
-1.0918894e-18
2.1901514e-18
-1.098169e-18
-3.3035093e-18
0
0
2.2191883e-18
3.161071e-34
-2.2294263e-18
1.1171256e-18
3.3583182e-18
1.1216522e-18
-3.371286e-18
-3.1996259e-34
-1.2518871e-30
-2.2589461e-18
3.3935139e-18
5.6592568e-30
-1.134252e-18
1.1356323e-18
1.1369064e-18
-1.2640833e-30
-1.1391389e-18
2.280193e-18
-2.2818926e-18
3.802337e-30
2.2846345e-18
-3.4285177e-18
-2.2865086e-18
1.1435634e-18
3.4312987e-18
1.143859e-18
-1.143831e-18
0
1.1434251e-18
-1.1430585e-18
-3.4277506e-18
-6.3389702e-31
2.2826182e-18
-1.1405097e-18
-1.1396028e-18
2.277178e-18
-1.1374692e-18
1.1362435e-18
2.2698228e-18
-3.4004163e-18
3.7698263e-30
-2.5098655e-30
-2.2570216e-18
2.2532954e-18
1.1246829e-18
1.1226165e-18
1.244822e-30
-1.1181739e-18
2.2315942e-18
-2.226638e-18
-3.3322286e-18
0
1.1053015e-18
-6.1193464e-31
-3.1248719e-34
3.289199e-18
1.0932362e-18
-3.2699401e-18
1.0866334e-18
1.8114482e-47
-3.2390015e-18
1.0760453e-18
3.2169946e-18
1.0685287e-18
-2.1292797e-18
1.0606669e-18
-1.0566101e-18
3.5052017e-30
2.0964872e-18
-3.1318053e-18
-1.1546448e-30
4.5969633e-30
-2.0610643e-18
2.0518183e-18
1.1336976e-30
-1.0164347e-18
2.0231752e-18
1.0066709e-18
0
0
-1.9830225e-18
2.1899304e-30
5.5766859e-34
1.083216e-30
9.7035077e-19
9.6490622e-19
-9.5940501e-19
-9.5384786e-19
1.8964696e-18
-1.885132e-18
1.0400369e-30
1.8621276e-18
-1.8504671e-18
-3.061867e-30
1.0140427e-30
-9.0745582e-19
1.8028842e-18
-8.9538682e-19
1.9744946e-30
1.7663045e-18
0
-1.7415097e-18
-8.6449931e-19
1.7164196e-18
8.5188917e-19
-8.4553979e-19
1.397636e-30
8.3275848e-19
0
0
-1.6267652e-18
-1.6137496e-18
0
1.5876025e-18
7.8723913e-19
-7.8066079e-19
7.7406654e-19
-7.674574e-19
0
1.5084037e-18
0
0
-7.3425756e-19
8.0774526e-31
7.2093573e-19
0
-7.0760057e-19
-3.8907047e-31
6.9426533e-19
0
-1.3618875e-18
-1.3485802e-18
6.67642e-19
7.3371747e-31
-6.5436876e-19
1.2954955e-18
1.2822788e-18
-1.2690884e-18
-1.7847764e-34
-1.3798611e-30
-1.7474846e-34
1.2166105e-18
-6.0178761e-19
6.608622e-31
-5.8881276e-19
5.8235678e-19
1.727767e-18
-1.7085311e-18
-5.6312236e-19
5.5675981e-19
6.1097619e-31
5.4411603e-19
-1.0756715e-18
-1.0631674e-18
1.0507208e-18
1.7289155e-30
5.1300525e-19
5.0687599e-19
-1.00156e-18
4.9471748e-19
-5.4244899e-31
2.6806872e-31
-4.767335e-19
-9.4161973e-19
9.2984742e-19
9.1815136e-19
0
-4.474949e-19
-4.904236e-31
8.7213932e-19
4.7782832e-31
-1.2744161e-18
-8.3847032e-19
0
8.1644001e-19
8.9416951e-31
3.973736e-19
3.9201502e-19
-1.1601014e-18
2.1166856e-31
7.5240902e-19
-3.7102337e-19
-7.3177366e-19
3.6079514e-19
7.1149754e-19
3.5074818e-19
0
-6.8177146e-19
3.3602395e-19
9.9362542e-19
-3.2643929e-19
-3.2171657e-19
-6.3408144e-19
-3.124121e-19
6.1566171e-19
3.0329685e-19
2.9880966e-19
-3.267943e-31
-2.899748e-19
-2.8562736e-19
-5.6265434e-19
-2.7707459e-19
0
0
0
5.2107733e-19
5.130426e-19
-5.0509962e-19
-2.7601085e-31
-2.7170473e-31
2.6738224e-31
5.2656515e-31
-4.6678052e-19
0
4.5209896e-19
2.2244621e-19
-2.188878e-19
2.1537472e-19
2.1190713e-19
0
0
-4.0354845e-19
6.6104261e-31
4.3348511e-31
-3.8406451e-19
3.777413e-19
3.7150453e-19
0
-3.5928916e-19
1.9606267e-31
3.4740956e-19
-3.4159257e-19
-1.8647375e-31
3.3020208e-19
0
-3.1913559e-19
-1.5686132e-19
3.0838867e-19
-1.5156624e-19
-3.3085821e-31
2.928506e-19
-2.8782349e-19
-2.8287154e-19
0
0
0
2.6379645e-19
2.5920885e-19
-2.5469409e-19
0
2.458781e-19
0
1.1866547e-19
-2.3315418e-19
-1.1452148e-19
1.1249951e-19
-2.2102332e-19
-1.0855746e-19
2.1327135e-19
1.0474473e-19
1.1423064e-31
-1.0105068e-19
2.2035956e-31
-5.540776e-35
-1.9146392e-19
0
9.2338038e-20
1.8136881e-19
8.9058017e-20
0
0
0
8.2819784e-20
-1.6265589e-19
-7.9862699e-20
7.8423207e-20
7.7008529e-20
-7.5617912e-20
-7.425108e-20
1.4581614e-19
0
-1.4058911e-19
-1.3804829e-19
0
0
1.3070484e-19
7.1241499e-32
6.3010742e-20
6.1868233e-20
-6.075063e-20
5.9655691e-20
-5.8580346e-20
-1.1505116e-19
-5.6490239e-20
0
1.0895141e-19
5.9374405e-32
-5.2537092e-20
5.159641e-20
5.0674427e-20
9.9541189e-20
-9.7768256e-20
-4.8014296e-20
1.340392e-35
-4.6323988e-20
9.100827e-20
-4.4701501e-20
4.3915668e-20
1.7611888e-48
-4.2391143e-20
8.3301986e-20
-8.1850829e-20
-8.0429634e-20
0
3.8839341e-20
7.6347654e-20
-2.0827656e-32
-3.6883821e-20
-3.6258515e-20
7.1292862e-20
7.0095756e-20
-3.4462846e-20
-6.7782053e-20
-6.6663638e-20
3.2784627e-20
6.4498499e-20
-3.1725734e-20
3.1214243e-20
-5.1138518e-32
-3.0227287e-20
5.9502111e-20
-5.8571581e-20
-3.1998871e-32
1.5757982e-31
-5.5908716e-20
5.506396e-20
1.2042958e-31
-2.6718223e-20
5.2652346e-20
-2.5943926e-20
7.2678736e-36
-1.1194348e-31
-2.485617e-20
4.9024964e-20
-5.3681477e-32
1.3235823e-32
-2.3533598e-20
6.6010255e-36
4.5853244e-20
-4.527503e-20
-1.2708772e-35
9.807462e-32
-4.3643556e-20
4.3129417e-20
4.7324222e-32
-4.2140708e-20
2.0832906e-20
2.0602495e-20
2.0380163e-20
-2.0167265e-20
2.2163785e-32
3.9543211e-20
0
0
-3.8453119e-20
-5.4148948e-36
3.7768553e-20
-1.8726645e-20
2.0620892e-32
-1.8440482e-20
-4.0643833e-32
3.6345819e-20
0
1.7922318e-20
-3.5618379e-20
-1.7703886e-20
3.9091875e-32
-1.7509139e-20
3.4837491e-20
-1.7334088e-20
1.9151265e-32
3.4364547e-20
0
0
-1.6991705e-20
9.4019718e-33
-1.6889866e-20
1.6847058e-20
5.0429952e-20
-5.0333342e-20
-1.6751503e-20
3.345927e-20
-1.6714231e-20
-2.7809949e-32
-1.6692947e-20
9.4855406e-36
5.5577388e-32
-1.6690293e-20
3.3390182e-20
1.6704763e-20
0
1.6732956e-20
-1.67497e-20
-1.6779921e-20
-1.6824612e-20
3.74707e-32
-1.8778315e-32
1.8818132e-32
3.3982864e-20
-1.7031281e-20
-2.845344e-32
3.4323406e-20
-2.4506243e-36
-1.7319191e-20
-3.475322e-20
-3.4874598e-20
3.5034791e-20
1.9563863e-32
1.7710979e-20
1.7796514e-20
-3.5753209e-20
3.5915909e-20
1.8041406e-20
-5.4407953e-20
-3.6492222e-20