/*--------------------------------*- C++ -*----------------------------------*\
  =========                 |
  \\      /  F ield         | OpenFOAM: The Open Source CFD Toolbox
   \\    /   O peration     | Website:  https://openfoam.org
    \\  /    A nd           | Version:  7
     \\/     M anipulation  |
\*---------------------------------------------------------------------------*/
FoamFile
{
    version     2.0;
    format      ascii;
    class       volScalarField;
    location    "0.0033";
    object      Uz;
}
// * * * * * * * * * * * * * * * * * * * * * * * * * * * * * * * * * * * * * //

dimensions      [0 1 -1 0 0 0 0];

internalField   nonuniform List<scalar> 
5000
(
0
0
0
0
0
-8.6200824e-22
-1.831001e-36
2.5644424e-21
8.4693279e-22
-1.6715579e-21
-1.6435914e-21
8.0551289e-22
-6.4988793e-36
-6.5717865e-36
1.567439e-21
-1.6403654e-21
-4.575541e-53
-7.4498994e-36
-8.4740643e-22
1.6960897e-21
8.4868341e-22
0
0
-8.4250881e-22
7.1424258e-36
-6.8598428e-36
-8.2719099e-22
8.2318901e-22
8.1638154e-22
-8.1136019e-22
1.4262949e-35
-7.0398253e-36
-8.3440758e-22
8.4077346e-22
8.4576793e-22
0
0
-8.3656969e-22
-8.2976033e-22
8.2466271e-22
-1.3706623e-35
-8.1127032e-22
8.1498618e-22
-1.3949115e-35
-8.3476576e-22
8.41497e-22
-2.9041436e-35
2.8846958e-35
-2.8729708e-35
1.4115746e-35
8.2043838e-22
0
0
0
0
0
0
0
0
0
0
0
0
-8.253617e-22
-8.3784723e-22
8.447575e-22
-1.4478257e-35
-5.7094325e-52
8.2245444e-22
0
0
-8.1289007e-22
-8.2863964e-22
0
8.4436187e-22
2.9006179e-35
-8.3101939e-22
-8.2445916e-22
8.1539295e-22
1.6192268e-21
-1.6339659e-21
4.7152898e-37
2.5176882e-21
-1.6863407e-21
-8.7392334e-35
1.6647269e-21
-2.4784961e-21
8.1794401e-22
8.1213019e-22
-8.1786572e-22
8.2946954e-22
8.4128727e-22
2.9405236e-35
-1.6743723e-21
-5.7305232e-35
-8.1772536e-22
-8.0951282e-22
-2.8519853e-35
5.7418819e-35
1.6751368e-21
8.4342889e-22
-8.388308e-22
1.1797118e-37
8.2179834e-22
0
-8.130717e-22
-2.8636675e-35
8.3426273e-22
-8.4072321e-22
-8.3846242e-22
1.6640776e-21
8.2666273e-22
-2.4628345e-21
-8.1851827e-22
2.4717202e-21
-8.3235745e-22
-8.3733078e-22
-4.7532069e-37
-8.3224901e-22
2.4864941e-21
-5.7714401e-35
-1.6479655e-21
1.6539069e-21
8.3195147e-22
-8.3451982e-22
8.3325366e-22
-8.3088392e-22
-1.6572981e-21
8.2679709e-22
2.854662e-35
8.2866947e-22
1.6615954e-21
-8.3124084e-22
-8.3010447e-22
-8.2883049e-22
-2.8812991e-35
-2.8662778e-35
2.8796129e-35
1.6562545e-21
8.2845806e-22
-8.2773002e-22
-1.6535611e-21
-8.2591592e-22
-8.2520931e-22
5.7218697e-35
1.6505023e-21
-2.345251e-37
2.343829e-37
2.1467729e-52
8.2358552e-22
-5.7086289e-35
1.1460094e-34
8.2260488e-22
-8.2214138e-22
8.2147717e-22
2.8455455e-35
-8.1957828e-22
8.1850798e-22
-1.1612929e-37
-8.1570511e-22
0
8.0859665e-22
5.6175568e-35
-1.6250279e-21
8.1254258e-22
-2.3139928e-37
-8.1713356e-22
8.2073755e-22
-8.2430533e-22
8.2675872e-22
-3.4533458e-34
-2.2948356e-34
8.2043707e-22
-1.6115104e-21
0
-3.7437678e-35
-1.2111568e-34
8.5319533e-22
8.3091397e-22
5.1646956e-35
-7.5425572e-22
8.0218549e-22
5.5682063e-35
3.4201152e-37
1.1093112e-34
-1.6041e-21
7.990415e-22
7.960686e-22
-5.4608416e-35
5.4606058e-35
-1.6432554e-34
5.436309e-35
-7.8426035e-22
0
0
0
0
-7.8239273e-22
1.6222494e-34
7.7466747e-22
7.7552058e-22
-7.8024283e-22
-7.825006e-22
1.5592014e-21
5.3657028e-35
-1.5986457e-34
-7.6557727e-22
-7.6608568e-22
7.7103213e-22
0
7.725071e-22
5.3210176e-35
-7.6393556e-22
-7.5965123e-22
1.0571427e-34
7.6289679e-22
-1.5319286e-21
7.651531e-22
7.6151697e-22
-7.5701046e-22
7.5256467e-22
0
0
0
7.5831453e-22
-7.5543378e-22
-1.5037996e-21
7.4826892e-22
-5.1803332e-35
7.4652149e-22
7.4825244e-22
-1.4965268e-21
2.1214458e-37
-2.1110694e-37
7.3934872e-22
7.3862582e-22
-1.4832256e-21
1.0556365e-37
-1.5419834e-34
7.3625959e-22
-4.0590462e-34
-1.007352e-34
7.2635969e-22
-7.3097745e-22
0
-7.3542226e-22
7.3146149e-22
7.2740492e-22
-7.2348939e-22
0
-7.2110919e-22
7.2417469e-22
7.2610846e-22
-2.5195767e-34
-1.4482653e-21
-1.4438123e-21
2.1589866e-21
1.4347401e-21
0
-1.4252516e-21
-7.1352698e-22
7.1633428e-22
7.1702713e-22
7.1364516e-22
-1.41924e-21
-1.4098633e-21
7.0108008e-22
1.4048773e-21
1.9634609e-34
-1.4211553e-21
7.0781456e-22
-9.7573006e-35
-6.9836694e-22
1.3885687e-21
-6.9507501e-22
9.7493201e-35
7.0337608e-22
-7.0172857e-22
6.9825814e-22
-1.3880919e-21
2.8820333e-34
1.3837285e-21
-1.389966e-21
-4.8202776e-35
6.9438323e-22
0
0
6.83365e-22
-6.8750896e-22
-1.3828101e-21
6.9128301e-22
-1.9541653e-37
6.812262e-22
6.7513472e-22
-6.7444296e-22
0
-6.8774432e-22
-6.887971e-22
0
1.356273e-21
6.7112637e-22
-1.3347345e-21
4.6568254e-35
-1.9388717e-37
6.8617979e-22
6.8259723e-22
-6.7709777e-22
6.7060316e-22
-6.6537496e-22
3.7887898e-37
1.3465601e-21
-6.8029649e-22
-6.82011e-22
-6.7798314e-22
-9.3415702e-35
6.6860305e-22
0
0
-6.7302386e-22
9.4079178e-35
-1.8798836e-34
-9.3657123e-35
6.7002985e-22
-6.6589971e-22
9.4380539e-38
6.6782847e-22
0
0
0
0
0
0
0
-6.702402e-22
0
6.7340258e-22
0
-6.6737247e-22
-1.8424792e-34
6.6417419e-22
0
0
-6.7297131e-22
-9.3185494e-35
6.6816564e-22
0
0
-6.6815505e-22
-6.7263447e-22
6.7407045e-22
6.7198993e-22
0
-6.6648858e-22
9.4401603e-38
6.6680099e-22
-6.7203393e-22
-6.7547979e-22
6.7483344e-22
6.7270786e-22
0
-6.6966986e-22
-6.6999171e-22
6.720502e-22
6.7437989e-22
0
-6.7633575e-22
-6.7645652e-22
6.7601743e-22
6.753493e-22
0
0
0
0
0
0
0
0
-6.7379635e-22
1.9354672e-51
6.7126474e-22
0
0
0
-6.7928914e-22
-9.3816099e-35
6.7313517e-22
-6.7195126e-22
9.3822277e-35
-9.6910074e-38
-9.5231233e-35
6.8526092e-22
-6.830212e-22
6.8115241e-22
-3.7781948e-34
-6.8122036e-22
6.8293444e-22
0
0
-6.812247e-22
-9.4245896e-35
6.7994549e-22
-6.8480197e-22
-6.9010752e-22
0
6.8925343e-22
6.8586733e-22
-6.8306122e-22
-1.8886977e-34
-6.4909044e-52
-9.490591e-35
6.8805321e-22
-6.9231385e-22
-2.1444323e-52
-9.6494491e-35
-6.9159359e-22
0
0
6.8092264e-22
9.7139689e-38
-2.8730066e-34
6.9738498e-22
0
0
-6.9239227e-22
1.9098454e-34
6.8588162e-22
0
0
0
-7.013428e-22
9.9313346e-38
6.9558558e-22
-6.9199377e-22
6.8896824e-22
-1.9186055e-34
-1.3913904e-21
7.0081342e-22
2.9239208e-34
9.7130706e-35
-9.6727777e-35
-6.9323004e-22
0
0
7.0100522e-22
9.7772684e-35
-1.9494998e-34
1.0119819e-52
-6.9641265e-22
6.9394513e-22
6.9554663e-22
0
-7.0395791e-22
-9.7673383e-35
7.0152588e-22
0
0
-6.9664917e-22
1.9911072e-37
2.2106935e-53
-7.039076e-22
7.0250339e-22
-9.6982873e-35
9.6868889e-35
-1.9367704e-34
-7.0118134e-22
7.0370558e-22
-1.9536967e-34
1.9510062e-34
-1.9442093e-34
-6.9779924e-22
6.9846367e-22
-1.947799e-34
9.7909965e-35
0
-7.0099391e-22
6.9848913e-22
-9.6709516e-35
9.9238352e-38
-9.7365397e-35
9.7625071e-35
7.0091589e-22
-6.9811381e-22
-6.9507163e-22
6.9382235e-22
6.9675247e-22
0
-7.0101055e-22
-6.9923727e-22
0
6.934291e-22
-9.6125163e-35
9.8778625e-38
9.6794211e-35
-6.9839957e-22
6.9721348e-22
9.6378272e-35
-1.9243074e-34
-6.9315745e-22
-6.9438758e-22
1.3905258e-21
-9.8738529e-38
9.6062888e-35
6.9053847e-22
-6.9056032e-22
9.6100072e-35
6.9317752e-22
0
0
0
-6.836629e-22
-6.8657823e-22
6.8961394e-22
6.8977723e-22
0
-6.8298879e-22
-6.7878468e-22
6.7791195e-22
6.8215757e-22
0
-6.8652035e-22
-6.8352268e-22
6.7930027e-22
1.8741069e-34
-6.7323359e-22
0
0
0
0
6.7668165e-22
-1.8656198e-34
-6.6933009e-22
6.7122366e-22
9.3910551e-35
-9.4375548e-35
2.2130503e-52
6.7256369e-22
6.6836489e-22
-1.3297087e-21
-9.2391275e-35
9.2911698e-35
-6.7250798e-22
0
6.6827464e-22
6.6399213e-22
-6.6018953e-22
-1.8309853e-34
6.6405368e-22
0
0
-6.644091e-22
9.1645813e-35
6.568642e-22
0
-6.5720432e-22
9.3831256e-38
-1.8359647e-34
-9.1533138e-35
6.5690554e-22
-6.5410948e-22
9.290851e-38
-1.8233036e-34
-6.5844366e-22
6.5605076e-22
1.8116798e-34
9.2113573e-38
-8.9512189e-35
-6.4594773e-22
6.5056302e-22
0
-3.6203025e-34
-8.9974188e-35
-2.6837303e-34
-9.1242492e-38
-6.4362978e-22
6.4620008e-22
7.2937433e-52
-8.9487714e-35
1.7761365e-34
-8.8123235e-35
1.2679061e-21
-6.3902868e-22
-6.4474296e-22
-8.961577e-35
8.8959864e-35
1.2715586e-21
-6.295434e-22
-6.2530814e-22
-1.5945981e-52
0
7.0718193e-53
-6.4138067e-22
6.3771601e-22
1.1642437e-52
-8.764538e-35
-8.9462766e-38
-6.2902045e-22
1.2611629e-21
1.7576869e-34
-6.3547731e-22
8.8205816e-35
-8.7910367e-35
6.312083e-22
-6.2859797e-22
2.2311605e-52
-2.6048782e-34
1.74328e-34
-1.7495754e-34
-1.7528763e-34
1.3769457e-52
0
6.2481146e-22
0
0
-6.2696496e-22
-1.7437035e-34
6.2696521e-22
0
0
-1.2434579e-21
-5.1953421e-34
1.252045e-21
-6.2531291e-22
8.8616192e-38
-8.619244e-35
-6.1848636e-22
0
0
0
-6.239769e-22
-1.7242577e-34
6.1893194e-22
0
0
-6.2354859e-22
8.8451861e-38
6.1964478e-22
0
0
-6.1467531e-22
-1.7255837e-34
-1.7386868e-34
1.7261797e-34
6.1579776e-22
-6.0809197e-22
1.6730941e-34
-1.6858947e-34
1.7119741e-34
6.2526578e-22
0
0
-6.161348e-22
1.4474881e-51
6.0686466e-22
0
0
-6.2148085e-22
-8.5905399e-52
6.2412288e-22
0
0
-6.1390634e-22
2.6196477e-51
6.1212164e-22
0
0
-6.2511759e-22
8.8338792e-38
6.1797449e-22
-6.1355998e-22
1.6949586e-34
-1.7010699e-34
1.7174801e-34
6.2392332e-22
0
0
0
0
0
-6.1596628e-22
1.7249767e-34
6.2476149e-22
0
0
0
0
0
0
0
-6.2381558e-22
3.4492205e-34
6.1756927e-22
0
0
0
0
0
0
0
-6.1650245e-22
1.702436e-34
6.1526388e-22
0
0
-6.2682132e-22
1.7329726e-34
6.2090514e-22
0
0
0
-6.1921357e-22
-1.7325955e-34
6.2588738e-22
0
0
0
0
0
0
0
-6.2397546e-22
8.8470281e-38
6.2064452e-22
0
0
0
0
0
0
0
-6.1353495e-22
-8.6955901e-38
6.153606e-22
0
0
0
-6.1459607e-22
3.3824886e-34
6.053856e-22
0
-6.1433159e-22
-1.7191847e-34
6.1949937e-22
0
0
-6.1602088e-22
-6.1547856e-22
6.1565667e-22
6.1588862e-22
0
0
0
0
6.1378234e-22
-8.7251384e-38
-1.2276677e-21
-6.1332249e-22
1.2254813e-21
1.2244899e-21
-6.1181862e-22
-6.1140146e-22
0
0
0
0
-6.0786134e-22
-1.6876965e-34
6.0750694e-22
0
0
0
0
0
0
0
0
0
0
0
0
0
0
-5.9733557e-22
3.3088069e-34
5.9431838e-22
0
0
5.914667e-22
-1.6464247e-34
8.4494938e-38
-5.9579283e-22
-5.9608811e-22
-3.3057764e-34
1.6509705e-34
5.9304289e-22
0
0
0
0
0
-5.8905681e-22
3.2686157e-34
5.8790805e-22
0
0
0
0
0
0
0
-5.8220537e-22
3.2294832e-34
5.8129053e-22
0
0
0
0
0
0
0
-5.7743338e-22
4.8049679e-34
5.765512e-22
0
0
0
0
0
0
0
0
-5.7166943e-22
8.1151937e-38
5.7049202e-22
0
0
0
0
-5.6810463e-22
5.676434e-22
5.6718511e-22
-1.1334669e-21
-1.572444e-34
5.6581668e-22
0
0
0
0
-5.6337708e-22
1.5621128e-34
1.1245877e-21
-5.6172206e-22
-5.6113782e-22
5.6055163e-22
0
0
0
-5.5844887e-22
-1.5478745e-34
5.5757839e-22
5.5719415e-22
-5.568108e-22
-5.5641234e-22
5.5600488e-22
0
0
-5.5476908e-22
-5.5435221e-22
5.5393424e-22
5.5351698e-22
5.5310246e-22
3.06944e-34
-5.5229311e-22
0
0
0
-5.5074073e-22
-5.5036513e-22
5.4999055e-22
5.4961756e-22
5.4924533e-22
1.5233358e-34
-5.4849418e-22
0
0
0
-5.469168e-22
1.5167216e-34
5.4604898e-22
0
0
0
0
0
0
0
-5.4180354e-22
1.5022453e-34
1.081593e-21
1.5004755e-34
-5.3994485e-22
0
0
-5.388812e-22
7.6529486e-38
-1.4944124e-34
1.4926855e-34
5.3748437e-22
5.3713584e-22
-1.4905474e-34
-5.3643407e-22
0
0
-5.3536362e-22
4.4552494e-34
1.4838131e-34
-7.5923466e-38
5.3389025e-22
-5.3350956e-22
-5.3311532e-22
1.0654058e-21
-2.9529832e-34
-5.3181323e-22
5.3133641e-22
0
-5.3031894e-22
-1.4718661e-34
5.2925247e-22
0
-5.2823826e-22
5.2777773e-22
-5.8559168e-34
-5.2694977e-22
5.2656178e-22
0
-5.2581701e-22
0
5.2506139e-22
0
-5.2430843e-22
5.2393718e-22
-2.9047122e-34
-5.2319833e-22
5.2283087e-22
0
-5.2210409e-22
-1.4487805e-34
5.2138696e-22
0
-5.2068078e-22
5.2033202e-22
-1.4778887e-37
-5.1964233e-22
5.1930126e-22
0
-5.1862441e-22
-5.1828836e-22
5.1795218e-22
5.1761529e-22
-5.172765e-22
5.1693277e-22
5.1658244e-22
-5.1622345e-22
0
0
0
0
0
0
-5.1362469e-22
-1.3450011e-53
1.0261381e-21
-5.1283305e-22
-5.1261815e-22
5.1243867e-22
0
0
-5.1194317e-22
-5.1179298e-22
5.1164913e-22
5.1151298e-22
0
-5.1127626e-22
-1.420144e-34
5.1107089e-22
0
0
-5.1080266e-22
-5.1072399e-22
5.1065139e-22
5.1058517e-22
0
-5.1047933e-22
1.4174056e-34
5.1043266e-22
-5.104302e-22
-2.83479e-34
-7.2543973e-38
-5.1054574e-22
5.1062212e-22
5.1070869e-22
0
0
-5.1103587e-22
1.4186835e-34
5.1131093e-22
0
-5.1162727e-22
-5.1179927e-22
5.1197998e-22
5.1217038e-22
0
0
0
0
0
0
-5.1372544e-22
1.4265367e-34
5.1428835e-22
0
0
0
0
0
0
-5.1664322e-22
1.8869829e-53
5.1741398e-22
5.178158e-22
1.4375452e-34
-5.1865214e-22
0
0
0
0
-5.2090389e-22
-1.4470196e-34
5.2185644e-22
-5.223413e-22
-5.2283156e-22
5.2332684e-22
-2.9076326e-34
-4.3663834e-34
-4.3691207e-34
1.4595397e-34
-2.9204732e-34
1.4609517e-34
5.2693156e-22
0
-5.2802231e-22
4.4010161e-34
-7.5195393e-38
-5.297087e-22
5.3028255e-22
5.3086135e-22
-5.3144452e-22
1.4765913e-34
-4.4331843e-34
-2.9605245e-34
-2.9615664e-34
1.4824459e-34
-2.9697472e-34
-5.3561846e-22
5.3622093e-22
5.3682372e-22
-5.3742606e-22
1.4924647e-34
-5.9795715e-34
-1.4965521e-34
1.4989707e-34
1.4990783e-34
1.5014805e-34
-5.4158531e-22
0
5.427424e-22
-1.5079006e-34
1.0703867e-52
5.4443872e-22
0
-5.4553788e-22
5.4607666e-22
5.4660774e-22
-5.4713056e-22
0
0
0
0
-5.495953e-22
1.5265986e-34
-3.0563782e-34
5.5088972e-22
5.5127029e-22
-5.5162537e-22
0
0
0
0
-5.533446e-22
-7.8686676e-38
5.540783e-22
0
0
0
0
0
0
0
-5.5675149e-22
-5.570435e-22
5.5732375e-22
5.5759253e-22
0
0
0
0
0
0
-5.5912881e-22
-5.5929718e-22
5.5945255e-22
5.5959449e-22
0
0
0
0
0
0
-5.6018989e-22
-5.6021498e-22
5.6022593e-22
5.6022333e-22
0
0
0
0
0
0
-5.5984193e-22
3.1077799e-34
5.596277e-22
0
0
0
0
0
0
-5.5851933e-22
1.5503275e-34
5.5809693e-22
0
0
0
0
-5.568333e-22
-7.908975e-38
5.5624405e-22
-5.5593166e-22
-1.5904038e-53
5.5527097e-22
-5.549226e-22
3.0798169e-34
5.5418957e-22
-5.538051e-22
-3.0726256e-34
-3.0703603e-34
-3.2847425e-52
-3.0648424e-34
-1.5304051e-34
5.5124902e-22
-5.5078262e-22
-5.5030553e-22
1.0996369e-21
-3.0475912e-34
-1.0976308e-21
0
5.477784e-22
-1.519601e-34
-1.5188884e-34
-4.5467071e-34
-4.5429146e-34
-3.0239811e-34
4.5336258e-34
-3.0185003e-34
1.5095941e-34
5.427893e-22
0
-5.4161645e-22
-7.6883736e-38
-4.4988408e-34
-4.494549e-34
7.6624639e-38
2.9895139e-34
-1.49378e-34
-5.3731587e-22
0
5.3602662e-22
-2.9717166e-34
-7.5986536e-38
5.340366e-22
0
-5.3267005e-22
5.3197403e-22
5.3126876e-22
-5.305541e-22
0
0
-5.2834848e-22
5.8578398e-34
-2.9228243e-34
2.9208549e-34
-1.4594721e-34
5.2459609e-22
5.2387928e-22
-5.231641e-22
0
0
0
0
-5.1959825e-22
-1.4408683e-34
-5.7527441e-34
5.1749618e-22
5.1680062e-22
-5.1610708e-22
0
0
0
0
-5.1266311e-22
-5.1197824e-22
5.112948e-22
5.1061254e-22
0
0
0
0
0
0
-5.0591946e-22
-5.0527304e-22
5.0463601e-22
5.0400889e-22
0
0
0
0
0
0
-4.9988258e-22
4.1582049e-34
9.9757551e-22
-4.9825442e-22
-4.9773047e-22
4.9721571e-22
0
9.9242686e-22
-5.5047213e-34
-1.6492617e-33
-4.9477968e-22
-9.8864078e-22
9.8774017e-22
-4.9342917e-22
-4.9299764e-22
4.925751e-22
-4.9216189e-22
6.9883014e-38
4.9136361e-22
4.9097894e-22
-4.9060379e-22
-4.9023854e-22
4.898836e-22
-4.8953934e-22
-6.952033e-38
4.8888282e-22
0
0
0
9.7539441e-22
-4.874262e-22
-9.7433035e-22
4.869134e-22
-4.8667049e-22
-4.8643573e-22
9.724177e-22
8.3097705e-53
-4.8577732e-22
4.8557163e-22
9.7074334e-22
4.8517712e-22
-1.4549634e-21
4.8480288e-22
9.2795788e-52
-1.4533368e-21
9.6854497e-22
4.8410231e-22
4.8393481e-22
9.6754048e-22
-9.6721578e-22
-4.8344762e-22
-4.8328957e-22
4.8313269e-22
4.8297751e-22
-1.4484691e-21
4.8266845e-22
4.8251385e-22
-4.8235802e-22
-4.8219997e-22
-6.850186e-38
1.4456242e-21
-4.8170581e-22
8.0172258e-34
-8.016954e-34
-1.4434885e-21
4.8096646e-22
4.8076109e-22
9.6109293e-22
-4.8032083e-22
-9.601673e-22
9.5966884e-22
-4.7957222e-22
4.7929691e-22
4.790076e-22
-1.4361103e-21
4.783838e-22
4.7804762e-22
-9.5538952e-22
-4.7732463e-22
4.7693579e-22
1.4295796e-21
-4.7609638e-22
-1.9025791e-21
2.6375544e-34
9.4934131e-22
4.7414579e-22
0
9.4603206e-22
1.0487571e-33
-1.4153156e-21
4.7110383e-22
-1.0444386e-33
4.6966969e-22
4.6890159e-22
-9.3619541e-22
0
0
0
-4.6450519e-22
2.5734766e-34
9.2493503e-22
-4.6138441e-22
-9.2051347e-22
1.3772511e-21
-1.5248978e-33
-9.1319599e-22
4.5528274e-22
0
0
0
8.9902613e-22
-4.4793821e-22
-8.9261656e-22
1.3338655e-21
-1.2587342e-37
-8.8214989e-22
0
0
-4.3530625e-22
2.405537e-34
8.6230186e-22
-4.289786e-22
-8.5348375e-22
1.2733229e-21
-7.0273306e-34
-8.3929433e-22
4.1715384e-22
-4.1459612e-22
8.2394724e-22
4.0928536e-22
-1.3538172e-33
-4.0370847e-22
-8.0163488e-22
1.1935702e-21
-2.2443236e-37
-3.9172338e-22
2.1567456e-34
-3.8530396e-22
-3.8198511e-22
2.1014777e-34
1.1253804e-21
-1.056111e-37
-1.1039101e-21
7.2855621e-22
8.7992236e-51
-7.1332631e-22
3.5273816e-22
-3.4873333e-22
6.8929563e-22
3.4048043e-22
-7.4662767e-34
-3.3189441e-22
-6.5494621e-22
-3.2296426e-22
-3.1836665e-22
9.4103553e-22
0
-3.0402516e-22
-1.6599908e-34
1.631873e-34
-1.6027977e-34
2.8356282e-22
-3.0884193e-34
2.727303e-22
-8.8975958e-34
-7.8444252e-22
5.1139065e-22
7.4939995e-22
2.4379202e-22
-7.1300117e-22
-4.6283757e-22
6.7511032e-22
-2.1850622e-22
-6.3541472e-22
0
0
1.9272704e-22
1.8616922e-22
0
-1.8241181e-22
-1.774365e-22
3.4504564e-22
-3.9177833e-34
-5.3800271e-22
2.0212751e-34
1.7692945e-22
1.7729518e-22
1.7786228e-22
-1.7316388e-22
-1.764929e-22
1.6646466e-22
5.0377406e-22
-1.6589973e-22
-6.1474116e-22
1.501651e-22
3.1026624e-22
1.5360001e-22
0
-1.547208e-22
0
-1.5067299e-22
1.3942701e-22
-2.7910603e-34
1.2391622e-22
-4.0930667e-34
-3.3319085e-22
9.8545814e-23
9.1673228e-23
-8.4164385e-23
-7.984635e-23
6.9486356e-23
1.6610685e-22
-4.3474294e-23
-1.3008889e-22
3.5042923e-35
7.7989694e-24
-9.8763973e-24
-1.5234158e-23
5.1033327e-23
2.2174482e-35
8.1145441e-39
-7.1205191e-23
1.8409413e-34
9.6418641e-23
-3.305973e-22
1.3674388e-34
2.787486e-22
0
0
1.9574028e-22
-1.1546433e-34
-4.4084655e-22
2.3551296e-22
5.166578e-22
2.8534819e-22
-3.4064706e-34
-9.6790707e-22
-3.3725972e-22
3.5600515e-22
-7.6477739e-22
2.3292346e-37
1.4378382e-33
4.4976937e-22
9.4490373e-22
-1.5061419e-21
5.8734797e-34
1.0967883e-21
0
0
-1.2737488e-21
1.4786436e-33
7.6432255e-34
2.0259877e-37
2.2314756e-21
1.5644954e-21
-1.3690238e-33
-2.574956e-21
-8.9064199e-22
9.2023878e-22
-1.9003697e-21
-1.094989e-33
3.4343933e-33
1.0816096e-21
2.2512204e-21
-3.4760251e-21
1.1941133e-21
1.2410738e-21
-1.2975317e-21
1.3535395e-21
-2.8039785e-21
1.6033698e-33
1.4921745e-21
2.2036319e-37
3.2247532e-21
-3.3408077e-21
2.8748115e-33
3.575139e-21
-1.8574546e-21
0
1.9817249e-21
1.1318313e-33
-6.3323631e-21
2.1926972e-21
4.5587703e-21
2.3590067e-21
2.4256367e-21
-2.4944869e-21
-2.5776218e-21
-2.6742786e-21
2.7762662e-21
-1.5952036e-33
1.6430948e-33
-3.0456393e-21
3.4891655e-33
-3.2530837e-21
1.1221296e-32
1.0432286e-20
-7.1537191e-21
4.7145695e-50
3.8066483e-21
4.3731809e-33
-2.26019e-33
-1.2582969e-20
4.3176402e-21
1.3358188e-20
0
0
-4.8958631e-21
-5.0365826e-21
-1.0380143e-20
5.360822e-21
1.1074648e-20
-1.1411812e-20
5.8674901e-21
1.8111971e-20
-6.2253797e-21
-6.4258815e-21
-6.6271607e-21
-6.8240779e-21
1.4041298e-20
7.2244016e-21
-7.439948e-21
-2.3000514e-20
7.9008857e-21
-1.2141808e-48
1.3940955e-32
1.7226469e-20
-1.7726294e-20
-1.824979e-20
9.3947259e-21
1.9337047e-20
-1.989268e-20
-1.0230931e-20
3.1572361e-20
3.2478963e-20
-1.1137769e-20
-2.2915858e-20
-1.1784759e-20
6.7257204e-33
2.49106e-20
1.2803207e-20
-1.3161642e-20
-2.7060574e-20
1.9766518e-36
2.8598456e-20
-2.9394356e-20
2.5149885e-32
3.1021496e-20
-1.5934518e-20
-3.2748998e-20
-3.3650907e-20
0
1.7740987e-20
5.4647207e-20
1.8710307e-20
-1.9220051e-20
0
0
0
0
2.1902552e-20
-1.2479874e-32
-6.922068e-20
2.3674198e-20
7.2861998e-20
2.4914341e-20
-4.2564986e-32
-5.2433764e-20
-2.6895793e-20
2.7587675e-20
-5.6578403e-20
-2.8999943e-20
9.9011598e-32
3.0481744e-20
6.2517323e-20
-9.6146108e-20
9.3366815e-36
3.3661951e-20
-4.9012483e-36
3.5340832e-20
3.6216648e-20
-4.1201477e-32
-1.1407915e-19
1.1070866e-35
1.1967485e-19
8.1700584e-20
-2.3208834e-32
-8.5685489e-20
-4.3876398e-20
4.4930996e-20
-9.2007848e-20
-4.7093414e-20
1.6051149e-31
4.9324388e-20
1.0095152e-19
-1.5497663e-19
5.8711869e-32
5.4109934e-20
5.5362516e-20
5.6629816e-20
3.2132933e-32
-3.2873395e-32
-1.2118303e-19
-3.4391877e-32
1.2676347e-19
-1.2961721e-19
3.3101821e-31
2.0320058e-19
-1.3848652e-19
7.8602503e-32
1.4470717e-19
-7.3944218e-20
-7.5559922e-20
-1.5441584e-19
7.8892405e-20
2.4183087e-19
0
0
0
-2.6324546e-19
-2.6884695e-19
2.7455491e-19
2.80358e-19
-1.908337e-19
2.7686037e-35
-9.9438703e-20
3.3809916e-31
3.1079202e-19
-3.1719464e-19
5.3913618e-31
2.2021318e-19
6.2343655e-32
-6.3637314e-32
-2.3385464e-19
1.1927745e-19
-1.2166544e-19
4.1334143e-31
3.796364e-19
-3.8711676e-19
-1.3157215e-19
2.9784807e-31
-2.7353032e-19
2.7884808e-19
1.4212159e-19
1.448553e-19
4.4287434e-19
-1.6700362e-31
-1.5328526e-19
-4.6855195e-19
1.0599331e-30
4.8633148e-19
0
-1.6818965e-19
-3.4258592e-19
1.7444392e-19
-1.7764094e-19
6.0241013e-31
3.6831125e-19
-5.6241745e-19
4.2365832e-31
2.1575541e-31
2.1948754e-31
2.2337845e-31
-2.0475903e-19
6.2503293e-19
6.3592201e-19
-2.1565161e-19
-4.3875597e-19
0
2.2697128e-19
-2.5619668e-31
5.2120176e-31
-2.649886e-31
-2.4269351e-19
2.4673843e-19
2.5083186e-19
-7.6491975e-19
2.1855609e-47
4.3868123e-31
-2.6766617e-19
3.0179357e-31
-5.5271975e-19
5.6156237e-19
5.7049761e-19
2.8975926e-19
-3.2668941e-31
-2.9891031e-19
0
0
0
-6.3555216e-19
3.2260609e-19
6.5496769e-19
-9.9722878e-19
3.373803e-19
1.0271763e-18
-1.0423316e-18
1.1741125e-30
7.153568e-19
-1.0886e-18
-7.3620336e-19
0
7.5740188e-19
1.2789912e-30
3.8946262e-19
7.8980873e-19
-4.0038743e-19
0
-8.2295739e-19
-1.1854313e-34
-4.6930016e-31
4.2842302e-19
1.3024469e-18
-1.3197345e-18
7.4258925e-31
1.3546375e-18
-1.372257e-18
2.3150432e-30
9.3855193e-19
-4.7525619e-19
4.8126914e-19
-9.7462962e-19
-4.9339343e-19
2.2181036e-30
5.0564689e-19
1.0236395e-18
5.1802308e-19
5.2425686e-19
-1.0610399e-18
-5.3680972e-19
0
5.4945993e-19
-3.0860174e-31
1.2311091e-48
-5.6862179e-19
1.6344171e-34
-5.8151644e-19
1.4960414e-47
1.7834419e-18
-1.8029722e-18
-1.8225647e-18
1.2281422e-18
1.2412699e-18
0
-1.2675894e-18
6.4039224e-19
1.9410105e-18
-1.9608804e-18
1.0996684e-30
1.3337908e-18
-6.7353733e-19
0
6.8683879e-19
6.9349555e-19
-7.0015225e-19
1.176995e-30
-1.4269211e-18
-4.093369e-34
2.1802913e-18
0
-2.2201486e-18
-1.493362e-18
2.2599119e-18
1.5198348e-18
-2.2995572e-18
-7.7310676e-19
3.1187169e-18
7.8623644e-19
-1.5855567e-18
-1.5986073e-18
8.9457121e-31
8.1229342e-19
8.1875278e-19
8.2518712e-19
-8.3159655e-19
9.3028607e-31
-1.6886768e-18
2.8331075e-30
2.5708874e-18
0
0
-1.7512927e-18
1.958125e-30
8.8792466e-19
-2.6820104e-18
9.0003977e-19
1.5084953e-30
3.0373277e-30
2.7536799e-18
-9.2375376e-19
5.1584659e-31
-1.038351e-30
-9.4103178e-19
9.4668943e-19
-1.3532914e-34
5.3167555e-31
-1.0693091e-30
-9.6876385e-19
0
9.7944755e-19
-1.9693957e-18
-9.8988411e-19
1.9900094e-18
0
-1.0050453e-18
1.0099626e-18
2.0296171e-18
-3.0587455e-18
3.4119091e-30
3.4267395e-30
-1.0334644e-18
3.1138281e-18
-1.4812565e-34
-1.0466587e-18
-1.0508938e-18
1.0550481e-18
1.0591222e-18
-1.0631146e-18
0
1.0708414e-18
-2.1491439e-18
1.7957789e-30
1.0817688e-18
2.4098591e-30
2.4167332e-30
3.1033362e-34
2.1901514e-18
-3.2945071e-18
-3.3035093e-18
0
2.2137703e-18
3.3287825e-18
1.5805355e-34
-1.1147131e-18
-1.1171256e-18
1.1194394e-18
1.1216522e-18
-1.123762e-18
0
-2.2553436e-18
-2.2589461e-18
3.3935139e-18
1.1327648e-18
-1.134252e-18
3.2276611e-34
1.1369064e-18
2.2761503e-18
1.1391389e-18
-1.8988446e-30
-4.5637851e-18
3.802337e-30
3.4269517e-18
-1.1428392e-18
-1.1432543e-18
-1.1435634e-18
1.1437662e-18
1.143859e-18
1.143831e-18
3.2505429e-34
-1.1434251e-18
1.1430585e-18
-3.4277506e-18
-2.2840009e-18
3.4239273e-18
-1.1405097e-18
-2.2792056e-18
2.277178e-18
-1.1374692e-18
1.1362435e-18
2.2698228e-18
-3.4004163e-18
1.131925e-18
-3.7649589e-30
-3.3855324e-18
2.2532954e-18
1.1246829e-18
1.1226165e-18
2.2408944e-18
-1.1181739e-18
-3.3208227e-75
-2.226638e-18
-1.1107429e-18
1.2301266e-30
1.1053015e-18
2.204868e-18
-2.1989331e-18
1.0963997e-18
3.2797087e-18
-3.2699401e-18
-1.0866334e-18
1.8114482e-47
-1.0796672e-18
3.2281359e-18
1.0723315e-18
-1.0685287e-18
-2.1292797e-18
1.0606669e-18
-1.0566101e-18
3.5052017e-30
2.0964872e-18
-3.1318053e-18
-1.1546448e-30
4.5969633e-30
-2.2878017e-30
2.0518183e-18
-2.0424188e-18
1.0164347e-18
4.0463504e-18
-1.0066709e-18
-2.0033723e-18
0
-1.9830225e-18
2.1899304e-30
5.5766859e-34
1.083216e-30
9.7035077e-19
9.6490622e-19
-9.5940501e-19
-9.5384786e-19
1.8964696e-18
-1.885132e-18
1.0400369e-30
1.8621276e-18
-1.8504671e-18
-3.061867e-30
1.0140427e-30
9.0745582e-19
1.8028842e-18
-8.9538682e-19
8.8929024e-19
-4.9021661e-31
-8.7697332e-19
-1.7415097e-18
8.6449931e-19
1.7164196e-18
-8.5188917e-19
8.4553979e-19
-1.397636e-30
8.3275848e-19
1.8351657e-30
-1.6397348e-18
-1.6267652e-18
-1.7912779e-30
2.6657476e-30
-2.6439458e-30
7.8723913e-19
7.8066079e-19
7.7406654e-19
-7.674574e-19
0
0
7.4756005e-19
-4.112622e-31
-1.0434428e-34
-8.0774526e-31
-7.2093573e-19
0
7.0760057e-19
1.4018638e-18
-6.9426533e-19
-1.3752047e-18
-1.3618875e-18
-1.3485802e-18
2.002926e-18
2.2014342e-30
-1.9631063e-18
1.2954955e-18
1.2822788e-18
0
6.2796236e-19
-1.2427888e-18
-6.1484149e-19
1.2166105e-18
6.0178761e-19
-6.608622e-31
-1.7664383e-18
5.8235678e-19
1.727767e-18
-1.7085311e-18
-5.6312236e-19
1.6702794e-18
-6.1097619e-31
-5.4411603e-19
-1.0756715e-18
-5.8998758e-31
1.0507208e-18
-1.0383342e-18
5.1300525e-19
1.520628e-18
0
-4.9471748e-19
-9.7737689e-19
2.6806872e-31
-4.767335e-19
-9.4161973e-19
9.2984742e-19
9.1815136e-19
0
4.474949e-19
4.904236e-31
4.8416556e-31
4.7782832e-31
-1.2744161e-18
-8.3847032e-19
0
8.1644001e-19
8.9416951e-31
3.973736e-19
1.1760451e-18
-3.8670046e-19
2.1166856e-31
-5.3461876e-35
-3.7102337e-19
-7.3177366e-19
3.6079514e-19
7.1149754e-19
-3.5074818e-19
0
-6.8177146e-19
3.3602395e-19
9.9362542e-19
-3.2643929e-19
-3.2171657e-19
-6.3408144e-19
3.124121e-19
9.2349256e-19
-3.0329685e-19
3.3168167e-31
5.8873796e-19
-2.899748e-19
-2.8562736e-19
-5.6265434e-19
-8.3122378e-19
5.4573938e-19
5.3742474e-19
-5.2920442e-19
-2.8916346e-31
5.130426e-19
-5.0509962e-19
-2.7601085e-31
4.8949106e-19
0
-4.7425737e-19
-4.6678052e-19
0
6.7814845e-19
2.2244621e-19
6.2211655e-35
2.1537472e-19
2.1190713e-19
2.3139068e-31
-4.1021514e-19
-4.0354845e-19
6.6104261e-31
3.9047366e-19
-3.8406451e-19
-6.2902537e-31
3.7150453e-19
0
0
0
0
-3.4159257e-19
-1.8647375e-31
3.3020208e-19
1.6231426e-19
-3.1913559e-19
5.2250888e-31
3.0838867e-19
-3.0313249e-19
-1.654291e-31
1.464253e-19
-2.8782349e-19
4.7112599e-31
2.7799375e-19
-2.7318904e-19
-2.6845668e-19
2.6379645e-19
2.5920885e-19
0
0
0
0
1.1866547e-19
-1.1657709e-19
-1.1452148e-19
1.2489155e-31
-6.7456887e-75
1.0855746e-19
2.1327135e-19
1.0474473e-19
-2.0576647e-19
-3.0315205e-19
9.9247474e-20
1.9494873e-19
-2.8719588e-19
-1.8804028e-19
2.7701411e-19
1.8136881e-19
8.9058017e-20
9.7091911e-32
-1.7177008e-19
0
8.2819784e-20
-8.1327943e-20
1.7731947e-31
2.2289216e-35
2.5645162e-31
7.5617912e-20
7.425108e-20
-2.072172e-35
-1.4317828e-19
-1.4058911e-19
2.2986225e-31
1.3555473e-19
0
0
0
6.3010742e-20
6.1868233e-20
-6.075063e-20
-5.9655691e-20
5.8580346e-20
-1.1505116e-19
-1.6947072e-19
0
1.0895141e-19
5.9374405e-32
5.2537092e-20
1.5478923e-19
-5.0674427e-20
8.2879385e-32
-9.7768256e-20
3.1984628e-31
9.4321698e-20
2.5713333e-32
6.4665265e-36
-4.4701501e-20
4.3915668e-20
-8.6291665e-20
-4.2391143e-20
8.3301986e-20
-8.1850829e-20
-1.1429738e-35
4.388386e-32
3.8839341e-20
1.1452148e-19
-7.5044344e-20
-6.084095e-50
-3.6258515e-20
5.9369564e-32
7.0095756e-20
-3.4462846e-20
-6.7782053e-20
3.6993911e-32
9.835388e-20
-9.1657879e-36
-3.1725734e-20
3.1214243e-20
-6.1429725e-20
-3.0227287e-20
5.9502111e-20
-5.8571581e-20
-3.1998871e-32
1.5757982e-31
-6.2075117e-32
5.506396e-20
-5.424013e-20
2.6718223e-20
5.2652346e-20
-2.5943926e-20
2.5571557e-20
-5.041809e-20
4.1398254e-32
7.3537445e-20
0
0
-7.0600793e-20
-2.3225294e-20
4.5853244e-20
-4.527503e-20
-1.2708772e-35
9.807462e-32
2.422549e-32
4.3129417e-20
-4.2628598e-20
-4.2140708e-20
2.0832906e-20
6.1807484e-20
2.0380163e-20
-2.0167265e-20
0
0
1.9585969e-20
-1.0771176e-32
-5.7679679e-20
-5.4148948e-36
3.7768553e-20
1.8726645e-20
-2.0620892e-32
-5.5321447e-20
-4.0643833e-32
3.6345819e-20
0
1.7922318e-20
-3.5618379e-20
-1.7703886e-20
3.9091875e-32
1.7509139e-20
3.4837491e-20
-1.7334088e-20
0
0
0
0
1.6991705e-20
-9.4019718e-33
-5.0669598e-20
1.6847058e-20
5.0429952e-20
-5.0333342e-20
-1.6751503e-20
3.345927e-20
1.6714231e-20
2.7809949e-32
-5.0078841e-20
9.4855406e-36
5.5577388e-32
1.6690293e-20
3.3390182e-20
1.6704763e-20
1.8555369e-32
-1.6732956e-20
-1.67497e-20
-1.6779921e-20
-1.6824612e-20
3.74707e-32
3.3838834e-20
0
0
1.7031281e-20
2.845344e-32
2.4388247e-36
-2.4506243e-36
-1.7319191e-20
-3.475322e-20
-3.4874598e-20
3.5034791e-20
1.9563863e-32
1.7710979e-20
5.3389542e-20
0
0
-1.8041406e-20
-1.8135984e-20
0
1.8372123e-20
-1.026889e-32
-1.8623435e-20
1.8736345e-20
-3.7659019e-20
6.3050527e-32
5.7211154e-20
-1.922632e-20
-1.9374329e-20
-3.901074e-20
1.9618379e-20
5.9212018e-20
-1.98787e-20
1.112295e-32
-4.0382439e-20
-2.0355529e-20
4.1052786e-20
-4.1389715e-20
2.2413685e-49
4.195525e-20
0
0
-4.3004968e-20
2.4023317e-32
7.2630808e-32
3.0910164e-49
6.6555736e-20
2.4878937e-32
-2.2591842e-20
-4.5481506e-20
-4.5774954e-20
4.6115198e-20
5.1673152e-32
2.3509842e-20
7.9063766e-32
-2.3939501e-20
4.8279883e-20
0
2.4508508e-20
-2.7383454e-32
-2.4866254e-20
-5.0224571e-20
-2.8158622e-32
5.1217806e-20
0
0
2.6168573e-20
-1.4649779e-32
-7.9988061e-20
-2.9899124e-32
5.4350346e-20
0
-2.7580423e-20
2.7772124e-20
2.8015057e-20
2.8296741e-20
2.8581197e-20
-5.7656653e-20
-8.7087437e-20
2.923553e-20
5.8980729e-20
-8.9347261e-20
8.7670688e-50
6.055692e-20
0
0
0
0
-6.3093379e-20
-6.3557974e-20
3.2038493e-20
9.6989217e-20
3.6227458e-32
-3.2866783e-20
6.6191067e-20
6.6684405e-20
-3.3622854e-20
-1.356734e-19
-6.8406878e-20
1.0341493e-19
6.9466864e-20
-1.0499725e-19
-7.8297099e-32
7.1076055e-20
0
0
0
-7.3361741e-20
-4.1032342e-32
8.2668846e-32
-3.7499281e-20
1.133591e-19
-3.8083694e-20
-3.8374249e-20
1.1594951e-19
7.7840811e-20
-3.9202512e-20
-7.9002498e-20
-7.9613142e-20
1.3359306e-31
-4.485632e-32
1.1561963e-35
8.192812e-20
0
4.1531199e-20
4.1822538e-20
-4.2124668e-20
-4.2431181e-20
4.2731108e-20
4.3020769e-20
-8.6613913e-20
-4.3598139e-20
4.3896095e-20
-4.4197332e-20
4.4499025e-20
8.9601324e-20
0
0
-1.3709657e-19
-4.5997382e-20
9.2597007e-20
4.6601568e-20
4.6904278e-20
-9.4410722e-20
5.2765532e-32
9.5613529e-20
0
-4.8410717e-20
-1.4613463e-19
-1.0880698e-31
2.7374893e-31
-9.9227625e-20
1.497471e-19
5.0217367e-20
1.4358244e-35
-5.0819243e-20