/*--------------------------------*- C++ -*----------------------------------*\
  =========                 |
  \\      /  F ield         | OpenFOAM: The Open Source CFD Toolbox
   \\    /   O peration     | Website:  https://openfoam.org
    \\  /    A nd           | Version:  7
     \\/     M anipulation  |
\*---------------------------------------------------------------------------*/
FoamFile
{
    version     2.0;
    format      ascii;
    class       surfaceScalarField;
    location    "0.00222";
    object      phi;
}
// * * * * * * * * * * * * * * * * * * * * * * * * * * * * * * * * * * * * * //

dimensions      [1 0 -1 0 0 0 0];

internalField   nonuniform List<scalar> 
4999
(
1.2358609
1.2358608
1.2358608
1.2358608
1.2358607
1.2358607
1.2358607
1.2358606
1.2358606
1.2358605
1.2358605
1.2358605
1.2358604
1.2358604
1.2358603
1.2358603
1.2358603
1.2358602
1.2358602
1.2358602
1.2358601
1.2358601
1.23586
1.23586
1.23586
1.2358599
1.2358599
1.2358599
1.2358598
1.2358598
1.2358597
1.2358597
1.2358597
1.2358596
1.2358596
1.2358595
1.2358595
1.2358595
1.2358594
1.2358594
1.2358593
1.2358593
1.2358592
1.2358592
1.2358592
1.2358591
1.2358591
1.235859
1.2358589
1.2358589
1.2358588
1.2358588
1.2358587
1.2358585
1.2358583
1.235858
1.2358576
1.2358569
1.2358556
1.2358528
1.2358479
1.2358404
1.23583
1.2358162
1.2357986
1.2357767
1.2357497
1.2357165
1.2356762
1.235628
1.2355717
1.2355076
1.2354368
1.2353613
1.2352831
1.2352048
1.2351289
1.2350575
1.2349922
1.2349342
1.2348839
1.2348415
1.2348064
1.2347781
1.2347557
1.2347382
1.2347249
1.2347149
1.2347074
1.2347019
1.2346979
1.234695
1.2346929
1.2346914
1.2346903
1.2346895
1.234689
1.2346886
1.2346883
1.2346881
1.2346879
1.2346878
1.2346877
1.2346877
1.2346876
1.2346875
1.2346875
1.2346875
1.2346874
1.2346874
1.2346873
1.2346873
1.2346873
1.2346872
1.2346872
1.2346871
1.2346871
1.2346871
1.234687
1.234687
1.234687
1.2346869
1.2346869
1.2346869
1.2346868
1.2346868
1.2346868
1.2346867
1.2346867
1.2346867
1.2346866
1.2346866
1.2346865
1.2346865
1.2346865
1.2346864
1.2346864
1.2346864
1.2346863
1.2346863
1.2346863
1.2346862
1.2346862
1.2346862
1.2346861
1.2346861
1.2346861
1.234686
1.234686
1.2346859
1.2346859
1.2346859
1.2346858
1.2346858
1.2346858
1.2346857
1.2346857
1.2346857
1.2346856
1.2346856
1.2346856
1.2346855
1.2346855
1.2346855
1.2346854
1.2346854
1.2346854
1.2346853
1.2346853
1.2346852
1.2346852
1.2346852
1.2346851
1.2346851
1.2346851
1.234685
1.234685
1.234685
1.2346849
1.2346849
1.2346849
1.2346848
1.2346848
1.2346848
1.2346847
1.2346847
1.2346847
1.2346846
1.2346846
1.2346846
1.2346845
1.2346845
1.2346845
1.2346844
1.2346844
1.2346844
1.2346843
1.2346843
1.2346842
1.2346842
1.2346842
1.2346841
1.2346841
1.2346841
1.234684
1.234684
1.234684
1.2346839
1.2346839
1.2346839
1.2346838
1.2346838
1.2346838
1.2346837
1.2346837
1.2346837
1.2346836
1.2346836
1.2346836
1.2346835
1.2346835
1.2346835
1.2346834
1.2346834
1.2346834
1.2346833
1.2346833
1.2346833
1.2346832
1.2346832
1.2346832
1.2346831
1.2346831
1.2346831
1.2346831
1.234683
1.234683
1.234683
1.2346829
1.2346829
1.2346829
1.2346828
1.2346828
1.2346828
1.2346827
1.2346827
1.2346827
1.2346826
1.2346826
1.2346826
1.2346825
1.2346825
1.2346825
1.2346824
1.2346824
1.2346824
1.2346824
1.2346823
1.2346823
1.2346823
1.2346822
1.2346822
1.2346822
1.2346821
1.2346821
1.2346821
1.2346821
1.234682
1.234682
1.234682
1.2346819
1.2346819
1.2346819
1.2346818
1.2346818
1.2346818
1.2346817
1.2346817
1.2346817
1.2346817
1.2346816
1.2346816
1.2346816
1.2346815
1.2346815
1.2346815
1.2346815
1.2346814
1.2346814
1.2346814
1.2346813
1.2346813
1.2346813
1.2346813
1.2346812
1.2346812
1.2346812
1.2346811
1.2346811
1.2346811
1.234681
1.234681
1.234681
1.234681
1.2346809
1.2346809
1.2346809
1.2346809
1.2346808
1.2346808
1.2346808
1.2346807
1.2346807
1.2346807
1.2346807
1.2346806
1.2346806
1.2346806
1.2346806
1.2346805
1.2346805
1.2346805
1.2346804
1.2346804
1.2346804
1.2346804
1.2346803
1.2346803
1.2346803
1.2346803
1.2346802
1.2346802
1.2346802
1.2346802
1.2346801
1.2346801
1.2346801
1.2346801
1.23468
1.23468
1.23468
1.23468
1.2346799
1.2346799
1.2346799
1.2346799
1.2346798
1.2346798
1.2346798
1.2346798
1.2346797
1.2346797
1.2346797
1.2346797
1.2346796
1.2346796
1.2346796
1.2346796
1.2346795
1.2346795
1.2346795
1.2346795
1.2346794
1.2346794
1.2346794
1.2346794
1.2346793
1.2346793
1.2346793
1.2346793
1.2346792
1.2346792
1.2346792
1.2346792
1.2346791
1.2346791
1.2346791
1.2346791
1.2346791
1.234679
1.234679
1.234679
1.234679
1.2346789
1.2346789
1.2346789
1.2346789
1.2346788
1.2346788
1.2346788
1.2346788
1.2346788
1.2346787
1.2346787
1.2346787
1.2346787
1.2346786
1.2346786
1.2346786
1.2346786
1.2346786
1.2346785
1.2346785
1.2346785
1.2346785
1.2346784
1.2346784
1.2346784
1.2346784
1.2346784
1.2346783
1.2346783
1.2346783
1.2346783
1.2346783
1.2346782
1.2346782
1.2346782
1.2346782
1.2346781
1.2346781
1.2346781
1.2346781
1.2346781
1.234678
1.234678
1.234678
1.234678
1.2346779
1.2346779
1.2346779
1.2346779
1.2346779
1.2346778
1.2346778
1.2346778
1.2346778
1.2346777
1.2346777
1.2346777
1.2346777
1.2346776
1.2346776
1.2346776
1.2346776
1.2346776
1.2346775
1.2346775
1.2346775
1.2346775
1.2346774
1.2346774
1.2346774
1.2346774
1.2346774
1.2346773
1.2346773
1.2346773
1.2346773
1.2346773
1.2346772
1.2346772
1.2346772
1.2346772
1.2346771
1.2346771
1.2346771
1.2346771
1.234677
1.234677
1.234677
1.234677
1.2346769
1.2346769
1.2346769
1.2346769
1.2346768
1.2346768
1.2346768
1.2346768
1.2346767
1.2346767
1.2346767
1.2346767
1.2346766
1.2346766
1.2346766
1.2346766
1.2346765
1.2346765
1.2346765
1.2346765
1.2346764
1.2346764
1.2346764
1.2346764
1.2346763
1.2346763
1.2346763
1.2346763
1.2346762
1.2346762
1.2346762
1.2346761
1.2346761
1.2346761
1.2346761
1.234676
1.234676
1.234676
1.234676
1.2346759
1.2346759
1.2346759
1.2346759
1.2346758
1.2346758
1.2346758
1.2346757
1.2346757
1.2346757
1.2346757
1.2346756
1.2346756
1.2346756
1.2346755
1.2346755
1.2346755
1.2346755
1.2346754
1.2346754
1.2346754
1.2346753
1.2346753
1.2346753
1.2346752
1.2346752
1.2346752
1.2346752
1.2346751
1.2346751
1.2346751
1.234675
1.234675
1.234675
1.234675
1.2346749
1.2346749
1.2346749
1.2346748
1.2346748
1.2346748
1.2346747
1.2346747
1.2346747
1.2346746
1.2346746
1.2346746
1.2346745
1.2346745
1.2346745
1.2346744
1.2346744
1.2346744
1.2346743
1.2346743
1.2346743
1.2346742
1.2346742
1.2346742
1.2346741
1.2346741
1.2346741
1.234674
1.234674
1.234674
1.2346739
1.2346739
1.2346739
1.2346738
1.2346738
1.2346738
1.2346737
1.2346737
1.2346737
1.2346736
1.2346736
1.2346736
1.2346735
1.2346735
1.2346735
1.2346734
1.2346734
1.2346733
1.2346733
1.2346733
1.2346732
1.2346732
1.2346732
1.2346731
1.2346731
1.2346731
1.234673
1.234673
1.2346729
1.2346729
1.2346729
1.2346728
1.2346728
1.2346728
1.2346727
1.2346727
1.2346726
1.2346726
1.2346726
1.2346725
1.2346725
1.2346725
1.2346724
1.2346724
1.2346723
1.2346723
1.2346723
1.2346722
1.2346722
1.2346721
1.2346721
1.2346721
1.234672
1.234672
1.234672
1.2346719
1.2346719
1.2346719
1.2346718
1.2346718
1.2346717
1.2346717
1.2346717
1.2346716
1.2346716
1.2346715
1.2346715
1.2346715
1.2346714
1.2346714
1.2346713
1.2346713
1.2346713
1.2346712
1.2346712
1.2346711
1.2346711
1.2346711
1.234671
1.234671
1.2346709
1.2346709
1.2346709
1.2346708
1.2346708
1.2346707
1.2346707
1.2346707
1.2346706
1.2346706
1.2346705
1.2346705
1.2346705
1.2346704
1.2346704
1.2346703
1.2346703
1.2346703
1.2346702
1.2346702
1.2346701
1.2346701
1.2346701
1.23467
1.23467
1.2346699
1.2346699
1.2346698
1.2346698
1.2346698
1.2346697
1.2346697
1.2346696
1.2346696
1.2346695
1.2346695
1.2346695
1.2346694
1.2346694
1.2346693
1.2346693
1.2346692
1.2346692
1.2346691
1.2346691
1.2346691
1.234669
1.234669
1.2346689
1.2346689
1.2346688
1.2346688
1.2346687
1.2346687
1.2346687
1.2346686
1.2346686
1.2346685
1.2346685
1.2346684
1.2346684
1.2346683
1.2346683
1.2346682
1.2346682
1.2346681
1.2346681
1.234668
1.234668
1.2346679
1.2346679
1.2346678
1.2346678
1.2346677
1.2346677
1.2346676
1.2346676
1.2346675
1.2346675
1.2346674
1.2346674
1.2346673
1.2346673
1.2346672
1.2346672
1.2346671
1.2346671
1.234667
1.234667
1.2346669
1.2346668
1.2346668
1.2346667
1.2346667
1.2346666
1.2346666
1.2346665
1.2346664
1.2346664
1.2346663
1.2346663
1.2346662
1.2346662
1.2346661
1.234666
1.234666
1.2346659
1.2346659
1.2346658
1.2346657
1.2346657
1.2346656
1.2346656
1.2346655
1.2346654
1.2346654
1.2346653
1.2346652
1.2346652
1.2346651
1.234665
1.234665
1.2346649
1.2346648
1.2346648
1.2346647
1.2346646
1.2346645
1.2346645
1.2346644
1.2346643
1.2346642
1.2346642
1.2346641
1.234664
1.2346639
1.2346639
1.2346638
1.2346637
1.2346636
1.2346635
1.2346634
1.2346634
1.2346633
1.2346632
1.2346631
1.234663
1.2346629
1.2346628
1.2346627
1.2346626
1.2346625
1.2346624
1.2346623
1.2346622
1.2346621
1.2346619
1.2346618
1.2346617
1.2346616
1.2346615
1.2346613
1.2346612
1.2346611
1.2346609
1.2346608
1.2346607
1.2346605
1.2346604
1.2346602
1.23466
1.2346599
1.2346597
1.2346595
1.2346594
1.2346592
1.234659
1.2346588
1.2346586
1.2346584
1.2346582
1.234658
1.2346577
1.2346575
1.2346573
1.234657
1.2346568
1.2346565
1.2346563
1.234656
1.2346557
1.2346554
1.2346551
1.2346548
1.2346545
1.2346542
1.2346538
1.2346535
1.2346531
1.2346527
1.2346523
1.2346519
1.2346515
1.2346511
1.2346507
1.2346502
1.2346497
1.2346492
1.2346487
1.2346482
1.2346477
1.2346471
1.2346466
1.234646
1.2346454
1.2346448
1.2346441
1.2346434
1.2346428
1.234642
1.2346413
1.2346406
1.2346398
1.234639
1.2346381
1.2346373
1.2346364
1.2346355
1.2346345
1.2346336
1.2346326
1.2346315
1.2346305
1.2346293
1.2346282
1.234627
1.2346258
1.2346246
1.2346233
1.234622
1.2346206
1.2346192
1.2346177
1.2346162
1.2346147
1.2346131
1.2346114
1.2346097
1.234608
1.2346062
1.2346043
1.2346024
1.2346004
1.2345984
1.2345963
1.2345942
1.2345919
1.2345897
1.2345873
1.2345849
1.2345824
1.2345798
1.2345772
1.2345744
1.2345716
1.2345687
1.2345658
1.2345627
1.2345595
1.2345563
1.234553
1.2345495
1.234546
1.2345424
1.2345386
1.2345348
1.2345308
1.2345268
1.2345226
1.2345183
1.2345139
1.2345094
1.2345047
1.2344999
1.234495
1.23449
1.2344848
1.2344795
1.234474
1.2344684
1.2344626
1.2344567
1.2344506
1.2344444
1.234438
1.2344314
1.2344247
1.2344178
1.2344107
1.2344034
1.234396
1.2343883
1.2343805
1.2343725
1.2343643
1.2343558
1.2343472
1.2343383
1.2343293
1.23432
1.2343105
1.2343008
1.2342908
1.2342806
1.2342701
1.2342595
1.2342485
1.2342373
1.2342259
1.2342142
1.2342022
1.23419
1.2341775
1.2341647
1.2341517
1.2341383
1.2341247
1.2341107
1.2340965
1.2340819
1.2340671
1.2340519
1.2340364
1.2340206
1.2340044
1.233988
1.2339711
1.233954
1.2339365
1.2339186
1.2339004
1.2338819
1.2338629
1.2338436
1.2338239
1.2338039
1.2337834
1.2337626
1.2337414
1.2337198
1.2336978
1.2336753
1.2336525
1.2336292
1.2336055
1.2335814
1.2335569
1.2335319
1.2335065
1.2334807
1.2334544
1.2334276
1.2334004
1.2333727
1.2333446
1.233316
1.2332869
1.2332573
1.2332273
1.2331968
1.2331657
1.2331342
1.2331022
1.2330696
1.2330366
1.233003
1.232969
1.2329344
1.2328993
1.2328636
1.2328274
1.2327907
1.2327534
1.2327156
1.2326773
1.2326384
1.2325989
1.2325589
1.2325183
1.2324771
1.2324354
1.2323931
1.2323502
1.2323068
1.2322628
1.2322181
1.2321729
1.2321271
1.2320807
1.2320337
1.2319861
1.2319379
1.2318891
1.2318397
1.2317897
1.231739
1.2316878
1.2316359
1.2315834
1.2315303
1.2314765
1.2314221
1.2313671
1.2313115
1.2312553
1.2311984
1.2311408
1.2310827
1.2310239
1.2309644
1.2309043
1.2308436
1.2307822
1.2307202
1.2306576
1.2305943
1.2305303
1.2304657
1.2304005
1.2303346
1.2302681
1.2302009
1.2301331
1.2300646
1.2299955
1.2299257
1.2298553
1.2297842
1.2297125
1.2296401
1.2295671
1.2294935
1.2294192
1.2293442
1.2292687
1.2291925
1.2291156
1.2290381
1.22896
1.2288812
1.2288018
1.2287218
1.2286411
1.2285598
1.2284779
1.2283954
1.2283122
1.2282285
1.2281441
1.2280591
1.2279734
1.2278872
1.2278004
1.2277129
1.2276249
1.2275363
1.227447
1.2273572
1.2272668
1.2271758
1.2270842
1.2269921
1.2268993
1.226806
1.2267122
1.2266177
1.2265227
1.2264272
1.2263311
1.2262344
1.2261372
1.2260395
1.2259413
1.2258425
1.2257431
1.2256433
1.225543
1.2254421
1.2253407
1.2252388
1.2251365
1.2250336
1.2249303
1.2248264
1.2247221
1.2246174
1.2245121
1.2244064
1.2243003
1.2241937
1.2240866
1.2239791
1.2238712
1.2237629
1.2236541
1.2235449
1.2234353
1.2233254
1.223215
1.2231042
1.222993
1.2228815
1.2227696
1.2226573
1.2225446
1.2224316
1.2223183
1.2222046
1.2220906
1.2219762
1.2218616
1.2217466
1.2216313
1.2215157
1.2213998
1.2212836
1.2211671
1.2210504
1.2209334
1.2208161
1.2206986
1.2205808
1.2204628
1.2203445
1.220226
1.2201073
1.2199884
1.2198693
1.2197499
1.2196304
1.2195107
1.2193908
1.2192708
1.2191505
1.2190301
1.2189096
1.2187889
1.2186681
1.2185471
1.218426
1.2183048
1.2181835
1.2180621
1.2179406
1.217819
1.2176973
1.2175756
1.2174537
1.2173318
1.2172099
1.2170879
1.2169659
1.2168438
1.2167217
1.2165996
1.2164775
1.2163553
1.2162332
1.2161111
1.215989
1.2158669
1.2157448
1.2156228
1.2155008
1.2153788
1.2152569
1.2151351
1.2150133
1.2148917
1.2147701
1.2146485
1.2145271
1.2144058
1.2142845
1.2141634
1.2140424
1.2139216
1.2138008
1.2136802
1.2135598
1.2134395
1.2133193
1.2131993
1.2130795
1.2129598
1.2128404
1.2127211
1.212602
1.2124831
1.2123644
1.2122459
1.2121276
1.2120095
1.2118917
1.2117741
1.2116567
1.2115396
1.2114227
1.2113061
1.2111897
1.2110736
1.2109577
1.2108421
1.2107268
1.2106118
1.2104971
1.2103826
1.2102684
1.2101546
1.210041
1.2099278
1.2098148
1.2097022
1.2095899
1.2094779
1.2093663
1.209255
1.209144
1.2090333
1.2089231
1.2088131
1.2087035
1.2085943
1.2084854
1.2083769
1.2082687
1.2081609
1.2080535
1.2079465
1.2078398
1.2077335
1.2076277
1.2075222
1.207417
1.2073123
1.207208
1.2071041
1.2070005
1.2068974
1.2067947
1.2066924
1.2065905
1.206489
1.2063879
1.2062873
1.206187
1.2060872
1.2059878
1.2058888
1.2057903
1.2056922
1.2055945
1.2054972
1.2054004
1.205304
1.205208
1.2051125
1.2050174
1.2049227
1.2048285
1.2047348
1.2046414
1.2045485
1.2044561
1.2043641
1.2042725
1.2041814
1.2040907
1.2040005
1.2039107
1.2038213
1.2037324
1.203644
1.203556
1.2034684
1.2033813
1.2032947
1.2032085
1.2031227
1.2030374
1.2029525
1.2028681
1.2027841
1.2027006
1.2026175
1.2025348
1.2024526
1.2023709
1.2022895
1.2022087
1.2021282
1.2020482
1.2019687
1.2018896
1.2018109
1.2017327
1.2016549
1.2015776
1.2015006
1.2014242
1.2013481
1.2012725
1.2011973
1.2011226
1.2010483
1.2009744
1.2009009
1.2008279
1.2007553
1.2006831
1.2006113
1.20054
1.200469
1.2003985
1.2003285
1.2002588
1.2001896
1.2001207
1.2000523
1.1999843
1.1999167
1.1998495
1.1997827
1.1997164
1.1996504
1.1995848
1.1995197
1.1994549
1.1993905
1.1993266
1.199263
1.1991998
1.1991371
1.1990747
1.1990127
1.1989511
1.1988899
1.198829
1.1987686
1.1987085
1.1986489
1.1985896
1.1985306
1.1984721
1.1984139
1.1983562
1.1982987
1.1982417
1.198185
1.1981287
1.1980728
1.1980173
1.1979621
1.1979072
1.1978528
1.1977987
1.1977449
1.1976915
1.1976385
1.1975858
1.1975335
1.1974815
1.1974299
1.1973787
1.1973278
1.1972772
1.197227
1.1971771
1.1971276
1.1970785
1.1970296
1.1969811
1.196933
1.1968852
1.1968377
1.1967906
1.1967438
1.1966973
1.1966512
1.1966054
1.1965599
1.1965148
1.19647
1.1964255
1.1963814
1.1963376
1.1962941
1.1962509
1.1962081
1.1961656
1.1961234
1.1960815
1.1960399
1.1959987
1.1959578
1.1959172
1.1958769
1.1958369
1.1957972
1.1957579
1.1957189
1.1956801
1.1956417
1.1956036
1.1955658
1.1955283
1.1954911
1.1954543
1.1954177
1.1953814
1.1953454
1.1953098
1.1952744
1.1952394
1.1952046
1.1951701
1.1951359
1.1951021
1.1950685
1.1950352
1.1950022
1.1949695
1.1949371
1.194905
1.1948732
1.1948416
1.1948104
1.1947794
1.1947487
1.1947183
1.1946882
1.1946584
1.1946289
1.1945996
1.1945706
1.1945419
1.1945135
1.1944853
1.1944575
1.1944299
1.1944025
1.1943755
1.1943487
1.1943222
1.194296
1.19427
1.1942443
1.1942188
1.1941937
1.1941687
1.1941441
1.1941197
1.1940956
1.1940717
1.1940481
1.1940247
1.1940016
1.1939788
1.1939562
1.1939339
1.1939118
1.1938899
1.1938683
1.193847
1.1938259
1.193805
1.1937844
1.193764
1.1937439
1.193724
1.1937043
1.1936849
1.1936657
1.1936467
1.193628
1.1936095
1.1935913
1.1935732
1.1935554
1.1935378
1.1935204
1.1935033
1.1934864
1.1934696
1.1934531
1.1934369
1.1934208
1.1934049
1.1933893
1.1933739
1.1933586
1.1933436
1.1933288
1.1933142
1.1932998
1.1932855
1.1932715
1.1932577
1.1932441
1.1932306
1.1932174
1.1932043
1.1931915
1.1931788
1.1931663
1.193154
1.1931418
1.1931299
1.1931181
1.1931065
1.1930951
1.1930838
1.1930727
1.1930618
1.1930511
1.1930405
1.1930301
1.1930198
1.1930097
1.1929998
1.19299
1.1929804
1.1929709
1.1929616
1.1929524
1.1929434
1.1929346
1.1929259
1.1929173
1.1929089
1.1929006
1.1928924
1.1928844
1.1928765
1.1928688
1.1928612
1.1928537
1.1928464
1.1928391
1.192832
1.1928251
1.1928182
1.1928115
1.1928049
1.1927984
1.1927921
1.1927858
1.1927797
1.1927736
1.1927677
1.1927619
1.1927562
1.1927506
1.1927452
1.1927398
1.1927345
1.1927293
1.1927242
1.1927193
1.1927144
1.1927096
1.1927049
1.1927003
1.1926958
1.1926913
1.192687
1.1926828
1.1926786
1.1926745
1.1926705
1.1926666
1.1926628
1.192659
1.1926553
1.1926517
1.1926482
1.1926447
1.1926414
1.1926381
1.1926348
1.1926316
1.1926285
1.1926255
1.1926225
1.1926196
1.1926168
1.192614
1.1926113
1.1926086
1.192606
1.1926035
1.192601
1.1925986
1.1925962
1.1925939
1.1925916
1.1925894
1.1925873
1.1925852
1.1925831
1.1925811
1.1925791
1.1925772
1.1925753
1.1925735
1.1925717
1.19257
1.1925683
1.1925666
1.192565
1.1925634
1.1925619
1.1925604
1.1925589
1.1925575
1.1925561
1.1925547
1.1925534
1.1925521
1.1925508
1.1925496
1.1925484
1.1925473
1.1925461
1.192545
1.192544
1.1925429
1.1925419
1.1925409
1.1925399
1.192539
1.1925381
1.1925372
1.1925363
1.1925355
1.1925347
1.1925339
1.1925331
1.1925324
1.1925316
1.1925309
1.1925302
1.1925295
1.1925289
1.1925283
1.1925276
1.192527
1.1925265
1.1925259
1.1925254
1.1925248
1.1925243
1.1925238
1.1925233
1.1925229
1.1925224
1.192522
1.1925215
1.1925211
1.1925207
1.1925203
1.1925199
1.1925196
1.1925192
1.1925189
1.1925185
1.1925182
1.1925179
1.1925176
1.1925173
1.192517
1.1925167
1.1925165
1.1925162
1.1925159
1.1925157
1.1925155
1.1925152
1.192515
1.1925148
1.1925146
1.1925144
1.1925142
1.192514
1.1925138
1.1925137
1.1925135
1.1925133
1.1925132
1.192513
1.1925129
1.1925127
1.1925126
1.1925125
1.1925123
1.1925122
1.1925121
1.192512
1.1925118
1.1925117
1.1925116
1.1925115
1.1925114
1.1925113
1.1925112
1.1925111
1.1925111
1.192511
1.1925109
1.1925108
1.1925107
1.1925107
1.1925106
1.1925105
1.1925105
1.1925104
1.1925103
1.1925103
1.1925102
1.1925102
1.1925101
1.19251
1.19251
1.1925099
1.1925099
1.1925098
1.1925098
1.1925097
1.1925097
1.1925097
1.1925096
1.1925096
1.1925095
1.1925095
1.1925095
1.1925094
1.1925094
1.1925093
1.1925093
1.1925093
1.1925092
1.1925092
1.1925091
1.1925091
1.1925091
1.192509
1.192509
1.192509
1.1925089
1.1925089
1.1925089
1.1925088
1.1925088
1.1925088
1.1925087
1.1925087
1.1925087
1.1925086
1.1925086
1.1925086
1.1925086
1.1925085
1.1925085
1.1925085
1.1925084
1.1925084
1.1925084
1.1925083
1.1925083
1.1925083
1.1925082
1.1925082
1.1925081
1.1925081
1.1925081
1.192508
1.192508
1.192508
1.1925079
1.1925079
1.1925079
1.1925078
1.1925078
1.1925078
1.1925077
1.1925077
1.1925076
1.1925076
1.1925076
1.1925075
1.1925075
1.1925075
1.1925074
1.1925074
1.1925074
1.1925073
1.1925073
1.1925072
1.1925072
1.1925072
1.1925071
1.1925071
1.192507
1.192507
1.192507
1.1925069
1.1925069
1.1925068
1.1925068
1.1925067
1.1925067
1.1925067
1.1925066
1.1925066
1.1925065
1.1925065
1.1925065
1.1925064
1.1925064
1.1925063
1.1925063
1.1925062
1.1925062
1.1925062
1.1925061
1.1925061
1.192506
1.192506
1.192506
1.1925059
1.1925059
1.1925058
1.1925058
1.1925057
1.1925057
1.1925057
1.1925056
1.1925056
1.1925055
1.1925055
1.1925055
1.1925054
1.1925054
1.1925053
1.1925053
1.1925053
1.1925052
1.1925052
1.1925051
1.1925051
1.1925051
1.192505
1.192505
1.1925049
1.1925049
1.1925049
1.1925048
1.1925048
1.1925048
1.1925047
1.1925047
1.1925047
1.1925046
1.1925046
1.1925046
1.1925045
1.1925045
1.1925045
1.1925044
1.1925044
1.1925043
1.1925043
1.1925043
1.1925042
1.1925042
1.1925042
1.1925042
1.1925041
1.1925041
1.1925041
1.192504
1.192504
1.192504
1.1925039
1.1925039
1.1925039
1.1925039
1.1925038
1.1925038
1.1925038
1.1925037
1.1925037
1.1925037
1.1925037
1.1925036
1.1925036
1.1925036
1.1925036
1.1925035
1.1925035
1.1925035
1.1925035
1.1925034
1.1925034
1.1925034
1.1925034
1.1925033
1.1925033
1.1925033
1.1925033
1.1925032
1.1925032
1.1925032
1.1925032
1.1925032
1.1925031
1.1925031
1.1925031
1.1925031
1.192503
1.192503
1.192503
1.192503
1.192503
1.1925029
1.1925029
1.1925029
1.1925029
1.1925028
1.1925028
1.1925028
1.1925028
1.1925027
1.1925027
1.1925027
1.1925027
1.1925027
1.1925026
1.1925026
1.1925026
1.1925026
1.1925025
1.1925025
1.1925025
1.1925025
1.1925025
1.1925024
1.1925024
1.1925024
1.1925024
1.1925023
1.1925023
1.1925023
1.1925023
1.1925022
1.1925022
1.1925022
1.1925022
1.1925021
1.1925021
1.1925021
1.1925021
1.192502
1.192502
1.192502
1.192502
1.1925019
1.1925019
1.1925019
1.1925019
1.1925018
1.1925018
1.1925018
1.1925017
1.1925017
1.1925017
1.1925017
1.1925016
1.1925016
1.1925016
1.1925016
1.1925015
1.1925015
1.1925015
1.1925014
1.1925014
1.1925014
1.1925014
1.1925013
1.1925013
1.1925013
1.1925012
1.1925012
1.1925012
1.1925012
1.1925011
1.1925011
1.1925011
1.192501
1.192501
1.192501
1.1925009
1.1925009
1.1925009
1.1925009
1.1925008
1.1925008
1.1925008
1.1925007
1.1925007
1.1925007
1.1925006
1.1925006
1.1925006
1.1925005
1.1925005
1.1925005
1.1925005
1.1925004
1.1925004
1.1925004
1.1925003
1.1925003
1.1925003
1.1925002
1.1925002
1.1925002
1.1925001
1.1925001
1.1925001
1.1925
1.1925
1.1925
1.1924999
1.1924999
1.1924999
1.1924998
1.1924998
1.1924998
1.1924997
1.1924997
1.1924997
1.1924996
1.1924996
1.1924996
1.1924995
1.1924995
1.1924995
1.1924994
1.1924994
1.1924994
1.1924993
1.1924993
1.1924993
1.1924992
1.1924992
1.1924992
1.1924991
1.1924991
1.1924991
1.192499
1.192499
1.192499
1.1924989
1.1924989
1.1924989
1.1924988
1.1924988
1.1924988
1.1924987
1.1924987
1.1924987
1.1924986
1.1924986
1.1924986
1.1924985
1.1924985
1.1924984
1.1924984
1.1924984
1.1924983
1.1924983
1.1924983
1.1924982
1.1924982
1.1924981
1.1924981
1.1924981
1.192498
1.192498
1.1924979
1.1924979
1.1924979
1.1924978
1.1924978
1.1924978
1.1924977
1.1924977
1.1924976
1.1924976
1.1924976
1.1924975
1.1924975
1.1924974
1.1924974
1.1924974
1.1924973
1.1924973
1.1924972
1.1924972
1.1924972
1.1924971
1.1924971
1.192497
1.192497
1.192497
1.1924969
1.1924969
1.1924968
1.1924968
1.1924968
1.1924967
1.1924967
1.1924966
1.1924966
1.1924965
1.1924965
1.1924965
1.1924964
1.1924964
1.1924963
1.1924963
1.1924963
1.1924962
1.1924962
1.1924961
1.1924961
1.192496
1.192496
1.192496
1.1924959
1.1924959
1.1924958
1.1924958
1.1924957
1.1924957
1.1924956
1.1924956
1.1924956
1.1924955
1.1924955
1.1924954
1.1924954
1.1924953
1.1924953
1.1924952
1.1924952
1.1924952
1.1924951
1.1924951
1.192495
1.192495
1.1924949
1.1924949
1.1924948
1.1924948
1.1924947
1.1924947
1.1924947
1.1924946
1.1924946
1.1924945
1.1924945
1.1924944
1.1924944
1.1924943
1.1924943
1.1924942
1.1924942
1.1924941
1.1924941
1.192494
1.192494
1.192494
1.1924939
1.1924939
1.1924938
1.1924938
1.1924937
1.1924937
1.1924936
1.1924936
1.1924935
1.1924935
1.1924934
1.1924934
1.1924934
1.1924933
1.1924933
1.1924932
1.1924932
1.1924931
1.1924931
1.192493
1.192493
1.1924929
1.1924929
1.1924928
1.1924928
1.1924927
1.1924927
1.1924927
1.1924926
1.1924926
1.1924925
1.1924925
1.1924924
1.1924924
1.1924923
1.1924923
1.1924922
1.1924922
1.1924921
1.1924921
1.192492
1.192492
1.1924919
1.1924919
1.1924919
1.1924918
1.1924918
1.1924917
1.1924917
1.1924916
1.1924916
1.1924915
1.1924915
1.1924914
1.1924914
1.1924913
1.1924913
1.1924912
1.1924912
1.1924911
1.1924911
1.192491
1.192491
1.1924909
1.1924909
1.1924908
1.1924908
1.1924907
1.1924907
1.1924906
1.1924906
1.1924905
1.1924905
1.1924904
1.1924904
1.1924903
1.1924903
1.1924902
1.1924902
1.1924901
1.1924901
1.19249
1.19249
1.1924899
1.1924899
1.1924898
1.1924898
1.1924897
1.1924896
1.1924896
1.1924895
1.1924895
1.1924894
1.1924894
1.1924893
1.1924892
1.1924892
1.1924891
1.1924891
1.192489
1.192489
1.1924889
1.1924888
1.1924888
1.1924887
1.1924887
1.1924886
1.1924885
1.1924885
1.1924884
1.1924884
1.1924883
1.1924882
1.1924882
1.1924881
1.192488
1.192488
1.1924879
1.1924878
1.1924878
1.1924877
1.1924876
1.1924876
1.1924875
1.1924874
1.1924874
1.1924873
1.1924872
1.1924872
1.1924871
1.192487
1.192487
1.1924869
1.1924868
1.1924867
1.1924867
1.1924866
1.1924865
1.1924865
1.1924864
1.1924863
1.1924862
1.1924862
1.1924861
1.192486
1.1924859
1.1924858
1.1924858
1.1924857
1.1924856
1.1924855
1.1924855
1.1924854
1.1924853
1.1924852
1.1924851
1.1924851
1.192485
1.1924849
1.1924848
1.1924847
1.1924847
1.1924846
1.1924845
1.1924844
1.1924843
1.1924842
1.1924842
1.1924841
1.192484
1.1924839
1.1924838
1.1924837
1.1924836
1.1924836
1.1924835
1.1924834
1.1924833
1.1924832
1.1924831
1.192483
1.1924829
1.1924829
1.1924828
1.1924827
1.1924826
1.1924825
1.1924824
1.1924823
1.1924822
1.1924821
1.192482
1.192482
1.1924819
1.1924818
1.1924817
1.1924816
1.1924815
1.1924814
1.1924813
1.1924812
1.1924811
1.192481
1.192481
1.1924809
1.1924808
1.1924807
1.1924806
1.1924805
1.1924804
1.1924803
1.1924802
1.1924801
1.19248
1.1924799
1.1924798
1.1924797
1.1924796
1.1924795
1.1924794
1.1924793
1.1924792
1.1924791
1.192479
1.1924789
1.1924788
1.1924787
1.1924786
1.1924785
1.1924784
1.1924783
1.1924782
1.1924781
1.192478
1.1924779
1.1924778
1.1924777
1.1924776
1.1924775
1.1924774
1.1924772
1.1924771
1.192477
1.1924769
1.1924768
1.1924767
1.1924766
1.1924765
1.1924763
1.1924762
1.1924761
1.192476
1.1924759
1.1924758
1.1924756
1.1924755
1.1924754
1.1924753
1.1924752
1.1924751
1.1924749
1.1924748
1.1924747
1.1924746
1.1924744
1.1924743
1.1924742
1.1924741
1.1924739
1.1924738
1.1924737
1.1924735
1.1924734
1.1924732
1.1924731
1.192473
1.1924728
1.1924727
1.1924726
1.1924724
1.1924723
1.1924722
1.192472
1.1924719
1.1924717
1.1924716
1.1924714
1.1924713
1.1924712
1.192471
1.1924709
1.1924707
1.1924706
1.1924704
1.1924702
1.1924701
1.1924699
1.1924698
1.1924696
1.1924694
1.1924693
1.1924691
1.1924689
1.1924688
1.1924686
1.1924684
1.1924683
1.1924681
1.1924679
1.1924677
1.1924676
1.1924674
1.1924672
1.192467
1.1924668
1.1924666
1.1924665
1.1924663
1.1924661
1.1924659
1.1924657
1.1924655
1.1924653
1.1924651
1.1924649
1.1924647
1.1924645
1.1924643
1.1924641
1.1924639
1.1924637
1.1924634
1.1924632
1.192463
1.1924628
1.1924626
1.1924623
1.1924621
1.1924619
1.1924616
1.1924614
1.1924612
1.1924609
1.1924607
1.1924604
1.1924602
1.1924599
1.1924597
1.1924594
1.1924592
1.1924589
1.1924587
1.1924584
1.1924581
1.1924579
1.1924576
1.1924573
1.192457
1.1924568
1.1924565
1.1924562
1.1924559
1.1924556
1.1924553
1.192455
1.1924547
1.1924544
1.1924541
1.1924538
1.1924535
1.1924531
1.1924528
1.1924524
1.1924521
1.1924518
1.1924514
1.1924511
1.1924507
1.1924503
1.19245
1.1924496
1.1924492
1.1924489
1.1924485
1.1924481
1.1924477
1.1924473
1.1924469
1.1924465
1.192446
1.1924456
1.1924452
1.1924447
1.1924443
1.1924438
1.1924434
1.1924429
1.1924425
1.192442
1.1924415
1.1924411
1.1924406
1.1924401
1.1924396
1.1924391
1.1924386
1.1924381
1.1924376
1.1924372
1.1924367
1.1924362
1.1924357
1.1924352
1.1924347
1.1924343
1.1924338
1.1924334
1.192433
1.1924326
1.1924322
1.1924319
1.1924316
1.1924313
1.192431
1.1924308
1.1924306
1.1924304
1.1924303
1.1924302
1.1924301
1.19243
1.19243
1.19243
1.19243
1.19243
1.1924301
1.1924301
1.1924302
1.1924303
1.1924304
1.1924304
1.1924304
1.1924304
1.1924304
1.1924304
1.1924304
1.1924303
1.19243
1.1924296
1.1924291
1.1924286
1.1924279
1.1924272
1.1924264
1.1924255
1.1924246
1.1924236
1.1924225
1.1924215
1.1924204
1.1924193
1.1924181
1.1924171
1.192416
1.192415
1.192414
1.1924131
1.1924122
1.1924114
1.1924107
1.19241
1.1924094
1.1924088
1.1924084
1.192408
1.1924077
1.1924073
1.192407
1.1924065
1.1924055
1.1924033
1.192398
1.1923845
1.1923505
1.192266
1.1920554
1.1915382
1.1903021
1.1885696
1.1864047
1.18384
1.1809211
1.1777092
1.1742766
1.1707016
1.1670637
1.1634396
1.1598987
1.156501
1.1532952
1.1503182
1.1475947
1.1451383
1.1429526
1.1410328
1.1393675
1.1379401
1.1367308
1.1357178
1.1348785
1.1341905
1.1336325
1.1331845
1.1328287
1.1325489
1.1323312
1.1321635
1.1320359
1.1319397
1.1318682
1.1318157
1.1317777
1.1317508
1.131732
1.1317193
1.131711
1.131706
1.1317031
1.1317018
1.1317014
1.1317013
1.1317018
1.1317035
1.1317054
1.1317073
1.131709
1.1317107
1.1317123
1.1317139
1.1317153
1.1317168
1.1317182
1.1317195
1.1317209
1.1317223
1.1317237
1.1317251
1.1317265
1.131728
1.1317296
1.1317312
1.1317329
1.1317346
1.1317363
1.1317381
1.1317399
1.1317417
1.1317436
1.1317454
1.1317472
1.1317491
1.1317508
1.1317526
1.1317543
1.1317559
1.1317575
1.131759
1.1317605
1.1317619
1.1317632
1.1317645
1.1317658
1.1317669
1.131768
1.1317691
1.1317701
1.131771
1.1317719
1.1317728
1.1317736
1.1317744
1.1317751
1.1317759
1.1317766
1.1317772
1.1317779
1.1317785
1.1317791
1.1317797
1.1317803
1.1317808
1.1317813
1.1317819
1.1317824
1.1317829
1.1317834
1.1317838
1.1317843
1.1317848
1.1317852
1.1317856
1.1317861
1.1317865
1.1317869
1.1317873
1.1317877
1.1317881
1.1317885
1.1317889
1.1317892
1.1317896
1.13179
1.1317903
1.1317907
1.131791
1.1317914
1.1317917
1.131792
1.1317923
1.1317927
1.131793
1.1317933
1.1317936
1.1317939
1.1317942
1.1317945
1.1317948
1.1317951
1.1317954
1.1317956
1.1317959
1.1317962
1.1317964
1.1317967
1.131797
1.1317972
1.1317975
1.1317977
1.131798
1.1317982
1.1317984
1.1317987
1.1317989
1.1317991
1.1317994
1.1317996
1.1317998
1.1318
1.1318003
1.1318005
1.1318007
1.1318009
1.1318011
1.1318013
1.1318015
1.1318017
1.1318019
1.1318021
1.1318023
1.1318025
1.1318027
1.1318029
1.1318031
1.1318033
1.1318035
1.1318037
1.1318038
1.131804
1.1318042
1.1318044
1.1318046
1.1318047
1.1318049
1.1318051
1.1318053
1.1318054
1.1318056
1.1318058
1.1318059
1.1318061
1.1318062
1.1318064
1.1318066
1.1318067
1.1318069
1.131807
1.1318072
1.1318073
1.1318075
1.1318076
1.1318078
1.1318079
1.1318081
1.1318082
1.1318083
1.1318085
1.1318086
1.1318088
1.1318089
1.131809
1.1318092
1.1318093
1.1318094
1.1318096
1.1318097
1.1318098
1.13181
1.1318101
1.1318102
1.1318103
1.1318105
1.1318106
1.1318107