/*--------------------------------*- C++ -*----------------------------------*\
| =========                 |                                                 |
| \\      /  F ield         | OpenFOAM: The Open Source CFD Toolbox           |
|  \\    /   O peration     | Version:  4.x                                   |
|   \\  /    A nd           | Web:      www.OpenFOAM.org                      |
|    \\/     M anipulation  |                                                 |
\*---------------------------------------------------------------------------*/
FoamFile
{
    version     2.0;
    format      ascii;
    class       volVectorField;
    location    "0.56";
    object      U;
}
// * * * * * * * * * * * * * * * * * * * * * * * * * * * * * * * * * * * * * //

dimensions      [0 1 -1 0 0 0 0];

internalField   nonuniform List<vector> 
6394
(
(0.03005242029 8.942241001e-05 0.003762366548)
(0.03005146777 2.924756073e-05 0.003762312035)
(0.03005146774 -2.923539171e-05 0.003762312112)
(0.03005241991 -8.94077305e-05 0.003762367155)
(0.03005474131 -0.0001555398728 0.003762545376)
(0.03005958095 -0.0002325128303 0.003762804954)
(0.03006926588 -0.0003325723548 0.00376365693)
(0.03008852944 -0.0004586398375 0.003763561458)
(0.03481990139 8.861554054e-05 0.005105858034)
(0.03482068761 2.894174181e-05 0.005106563139)
(0.03482068769 -2.892847973e-05 0.005106563356)
(0.03481990179 -8.860050178e-05 0.005105859207)
(0.03481837169 -0.0001547714069 0.005104489704)
(0.03481638021 -0.0002328128 0.005102539545)
(0.03481475672 -0.0003370537661 0.005100400781)
(0.03481539207 -0.0004719236392 0.005098476593)
(0.03487344693 9.739177482e-05 0.002568995847)
(0.03487332984 3.181492482e-05 0.002570060407)
(0.03487333001 -3.180062557e-05 0.00257006076)
(0.03487344731 -9.737607389e-05 0.002568996843)
(0.03487378259 -0.0001698916483 0.002566941389)
(0.03487463422 -0.0002548924645 0.002564139726)
(0.03487687033 -0.0003667510301 0.002561048954)
(0.03488131497 -0.0005086160029 0.002558889586)
(0.0346340285 0.0001020672285 0.001830518676)
(0.03463402685 3.340909047e-05 0.001830544945)
(0.03463402701 -3.339385328e-05 0.001830545175)
(0.03463402894 -0.0001020513502 0.001830519234)
(0.03463420667 -0.0001772938661 0.00183067954)
(0.03463498852 -0.0002645285783 0.001831551979)
(0.03463754719 -0.0003778035248 0.001833864393)
(0.0346425304 -0.0005199088235 0.001839227056)
(0.03456286949 0.0001038136779 0.001020854264)
(0.03456271213 3.402228184e-05 0.001020676392)
(0.03456271233 -3.40068944e-05 0.001020676169)
(0.03456287011 -0.0001037976799 0.001020853729)
(0.03456333009 -0.0001798463487 0.001021404342)
(0.03456443601 -0.0002673220018 0.00102279824)
(0.03456724008 -0.0003798284629 0.001025699531)
(0.03457191992 -0.0005195361894 0.001031380206)
(0.03454493727 0.0001036678687 0.0007427518576)
(0.03454480512 3.401085922e-05 0.0007423828742)
(0.03454480533 -3.399605864e-05 0.0007423824795)
(0.0345449376 -0.0001036521366 0.0007427509116)
(0.03454532072 -0.0001792002174 0.0007436757466)
(0.03454622885 -0.0002655933516 0.0007455724074)
(0.03454861334 -0.0003761427752 0.0007489736085)
(0.03455236598 -0.0005129426912 0.0007547177566)
(0.02705985561 0.0002202780069 0.00314610779)
(0.02705137203 7.249663709e-05 0.003147020132)
(0.02705137183 -7.248444855e-05 0.003147020332)
(0.02705985451 -0.0002202624549 0.003146108731)
(0.02707880143 -0.0003771666663 0.003144179785)
(0.02711317373 -0.0005502814255 0.003140828014)
(0.02717137525 -0.000752707327 0.003136269368)
(0.02727192939 -0.0009858173901 0.003127274306)
(0.0361181425 0.0003281758354 0.006003754297)
(0.03610647302 0.0001079532904 0.006006103571)
(0.03610647307 -0.0001079394104 0.00600610411)
(0.03611814208 -0.0003281595017 0.006003756461)
(0.03614439147 -0.000562522082 0.005998815755)
(0.0361924376 -0.0008222681735 0.005990737856)
(0.03627517061 -0.001127020963 0.00597921382)
(0.03642081861 -0.001483739517 0.005963092678)
(0.03740633503 0.0003000108849 0.004344866469)
(0.037397372 9.867141927e-05 0.004346209029)
(0.03739737224 -9.865661421e-05 0.004346209839)
(0.03740633525 -0.0002999945679 0.00434486899)
(0.03742663502 -0.0005146915946 0.004342155247)
(0.03746460359 -0.0007536065551 0.004337914919)
(0.03753200584 -0.001037645933 0.004331565394)
(0.03765570193 -0.001372337061 0.004320242688)
(0.03644259902 0.0002965021225 0.003557275592)
(0.03643448858 9.75600127e-05 0.003558163016)
(0.03643448905 -9.754384444e-05 0.00355816361)
(0.03644260002 -0.0002964854817 0.003557277257)
(0.03646126272 -0.0005082101493 0.003555745952)
(0.0364968337 -0.0007430360275 0.003554008609)
(0.03656065329 -0.001021575752 0.003552224143)
(0.03667817623 -0.001348433397 0.003548880293)
(0.03572087565 0.000296436831 0.00235726394)
(0.03571263176 9.753191109e-05 0.002357003964)
(0.03571263242 -9.75155091e-05 0.002357003945)
(0.03572087704 -0.0002964204553 0.00235726403)
(0.03573981415 -0.0005081366228 0.00235796827)
(0.0357757668 -0.0007429631653 0.002359418603)
(0.03584006045 -0.001021555318 0.002361656516)
(0.03595814158 -0.001347853932 0.00236364852)
(0.03529274119 0.0002968657139 0.00182638511)
(0.03528473728 9.771236077e-05 0.00182586763)
(0.03528473804 -9.769652724e-05 0.001825867283)
(0.03529274296 -0.0002968502515 0.001826384266)
(0.0353112059 -0.0005084767895 0.001827627022)
(0.03534644542 -0.0007427625327 0.001829976294)
(0.03540980459 -0.001020523142 0.00183367121)
(0.0355268172 -0.001346076104 0.001838232711)
(0.02068420812 0.0002928566541 0.002243310861)
(0.02066443442 9.66877645e-05 0.002244448099)
(0.02066443445 -9.667716106e-05 0.002244448374)
(0.02068420849 -0.0002928417137 0.00224331213)
(0.02072715427 -0.000497985164 0.002241039814)
(0.0208012773 -0.0007191866293 0.002237373634)
(0.02092021801 -0.0009680538796 0.002233013257)
(0.02111139356 -0.001247903168 0.002225680287)
(0.03514018431 0.0004227602378 0.00588377007)
(0.03511788189 0.0001392413714 0.005887161246)
(0.03511788201 -0.000139228943 0.005887162075)
(0.03514018455 -0.000422744117 0.005883773164)
(0.03518869742 -0.0007225987149 0.005876760509)
(0.03527275266 -0.001051551909 0.005865755036)
(0.0354082766 -0.001429936574 0.005851353958)
(0.03562865771 -0.001868501261 0.005834378325)
(0.03851546472 0.0004489147132 0.005181487621)
(0.03849496374 0.000147321577 0.005189077207)
(0.03849496389 -0.0001473086526 0.005189078243)
(0.03851546458 -0.0004488992811 0.005181490992)
(0.03856049037 -0.0007720687894 0.00516719697)
(0.03863948734 -0.001131835738 0.005148160171)
(0.03876964233 -0.001548920658 0.005129853476)
(0.03898712227 -0.00203163468 0.005119471122)
(0.03805386471 0.0004573346714 0.004639785435)
(0.03803669084 0.0001504836053 0.004643787181)
(0.03803669107 -0.0001504700222 0.004643788096)
(0.03805386459 -0.0004573204042 0.004639788193)
(0.03809277743 -0.0007828645091 0.004632591825)
(0.03816431604 -0.001141693483 0.004623744142)
(0.0382887409 -0.001557282521 0.004615873163)
(0.03850534997 -0.002040138922 0.004613037647)
(0.03712562239 0.0004628416325 0.00336944267)
(0.03710731871 0.0001525499982 0.00337067136)
(0.03710731908 -0.0001525372163 0.003370671683)
(0.03712562247 -0.0004628286364 0.003369443751)
(0.03716683052 -0.0007898458797 0.003367524281)
(0.03724203103 -0.001147341715 0.003365978109)
(0.03737156514 -0.001558725555 0.003366323739)
(0.03759600246 -0.002035264235 0.003370876032)
(0.03638868475 0.0004664125689 0.002654975905)
(0.03637012711 0.0001538935653 0.002655012202)
(0.03637012751 -0.0001538815708 0.002655012223)
(0.03638868509 -0.0004664011998 0.00265497624)
(0.03643064457 -0.0007943102627 0.002655358393)
(0.03650760016 -0.001150768186 0.002657036075)
(0.03664068426 -0.001558907257 0.00266096329)
(0.03687177587 -0.002030362038 0.002667939322)
(0.01696651208 0.0005506103742 0.001239341675)
(0.01690836986 0.0003255606729 0.001236482429)
(0.01688160829 0.0001077664635 0.001235066103)
(0.01688160877 -0.0001077547309 0.001235066248)
(0.01690837193 -0.0003255501302 0.00123648324)
(0.01696651071 -0.000550594523 0.001239343735)
(0.01706615864 -0.0007887485482 0.001243675271)
(0.01722413548 -0.001047923282 0.001249340347)
(0.01746740344 -0.001330295436 0.001254698778)
(0.03352017449 0.000887629051 0.004779359945)
(0.03344024944 0.0005223482481 0.004775828787)
(0.03340346246 0.0001725331343 0.00477371624)
(0.03340346293 -0.0001725185393 0.004773716981)
(0.03344025091 -0.0005223337926 0.004775831137)
(0.0335201736 -0.0008876110031 0.004779364476)
(0.03365781608 -0.00128247759 0.004782762481)
(0.0338789541 -0.001727473862 0.004784500726)
(0.03422846627 -0.002234683688 0.004786629863)
(0.039162018 0.001028687443 0.005098734138)
(0.03908083525 0.0006119932155 0.005076296908)
(0.0390424226 0.0002034101596 0.0050645638)
(0.03904242272 -0.0002033936365 0.005064564692)
(0.03908083565 -0.0006119771845 0.005076299579)
(0.03916201597 -0.001028669499 0.005098738913)
(0.03929645944 -0.001465167127 0.005131035491)
(0.03950814494 -0.001953697826 0.005156448024)
(0.03985667473 -0.002528542897 0.005161489273)
(0.03952022964 0.001045033976 0.004977871669)
(0.03945086961 0.0006173097037 0.004981084475)
(0.03941950291 0.0002042966734 0.00498353059)
(0.03941950247 -0.0002042794188 0.004983531488)
(0.03945086787 -0.0006172927954 0.004981086603)
(0.03952022517 -0.001045017125 0.004977874911)
(0.03964292772 -0.001499909605 0.004977697544)
(0.03984805735 -0.002005066332 0.004982932325)
(0.04019131385 -0.002583422416 0.004991588739)
(0.03875515224 0.001045582636 0.004045006938)
(0.03868750206 0.0006167606858 0.004043344985)
(0.03865731801 0.0002039376151 0.004042901193)
(0.03865731748 -0.0002039192834 0.004042901434)
(0.03868749985 -0.0006167429015 0.004043345449)
(0.03875514709 -0.001045566114 0.004045007427)
(0.03887690093 -0.00150363865 0.004049369729)
(0.03908342146 -0.002012809252 0.004056743895)
(0.0394303886 -0.002589833078 0.004065921459)
(0.03781598968 0.001052033621 0.00326709949)
(0.03774801946 0.0006214627446 0.003266613719)
(0.03771787366 0.000205639374 0.003266760546)
(0.03771787299 -0.0002056209691 0.003266760156)
(0.03774801709 -0.0006214448051 0.003266612737)
(0.03781598562 -0.001052017844 0.003267098335)
(0.03793927952 -0.001509997313 0.003269561323)
(0.03815008236 -0.002016987133 0.003275024648)
(0.03850567331 -0.002588342289 0.003283183673)
(0.01422461109 0.0005727718939 0.0006306974441)
(0.01416259556 0.0003430987554 0.0006300613111)
(0.01413434745 0.0001143058111 0.0006298992771)
(0.01413434783 -0.0001142976068 0.0006298993484)
(0.01416259703 -0.0003430912619 0.0006300620442)
(0.0142246133 -0.0005727616527 0.0006306990317)
(0.01433184987 -0.0008047019156 0.0006324608465)
(0.01450198128 -0.001042238201 0.0006368083927)
(0.01475734007 -0.001285868267 0.0006441433784)
(0.03162590586 0.001031608705 0.003574979334)
(0.03152765273 0.0006123187581 0.003575419659)
(0.03148331336 0.0002030934488 0.003576237036)
(0.03148331401 -0.0002030791664 0.003576237583)
(0.03152765434 -0.0006123050319 0.003575421585)
(0.03162590759 -0.001031594307 0.003574982654)
(0.03179872327 -0.001470243408 0.003577740864)
(0.03208043908 -0.001942788424 0.003588383543)
(0.0325175648 -0.002459692131 0.003611776591)
(0.039124983 0.001186088147 0.004719094756)
(0.03902156443 0.0007017272289 0.00472124918)
(0.03897510287 0.0002323773889 0.004722707305)
(0.03897510311 -0.0002323573747 0.004722708334)
(0.03902156516 -0.0007017072656 0.004721251942)
(0.03912498333 -0.001186067416 0.004719098326)
(0.03930924841 -0.001699641367 0.004716926439)
(0.03960912142 -0.002259150525 0.004721354605)
(0.04006791214 -0.002872682163 0.004736669311)
(0.04060600713 0.001248580792 0.004930090363)
(0.04050433997 0.0007409989823 0.00492831425)
(0.04045815827 0.0002457565611 0.004927677186)
(0.04045815817 -0.0002457263219 0.004927677558)
(0.04050433946 -0.0007409699967 0.004928314538)
(0.04060600555 -0.001248553658 0.004930089543)
(0.04078380005 -0.001780000341 0.004933931617)
(0.04107212232 -0.002353806376 0.004941923093)
(0.04152528262 -0.002983103807 0.004957506754)
(0.04022626583 0.001267408543 0.004392230589)
(0.04013193049 0.0007525970575 0.004391951781)
(0.0400896113 0.0002496641857 0.004392130817)
(0.04008961108 -0.0002496287655 0.004392130147)
(0.0401319298 -0.0007525639544 0.004391949236)
(0.04022626349 -0.001267379273 0.004392226022)
(0.04039433405 -0.001804563827 0.004394142558)
(0.04067400358 -0.002381417545 0.00439941685)
(0.04112518039 -0.003009730659 0.00440945918)
(0.03929861217 0.001286482645 0.003707881203)
(0.03920699188 0.0007653852794 0.003709152275)
(0.0391662643 0.0002541523773 0.003710147059)
(0.03916626421 -0.0002541155458 0.003710144911)
(0.03920699163 -0.0007653508326 0.003709146266)
(0.03929861112 -0.001286452575 0.003707872381)
(0.03946385958 -0.001826496518 0.003707536452)
(0.03974255051 -0.002401515393 0.003709383796)
(0.04019728737 -0.003022383725 0.003713684056)
(0.01242406383 0.0005755556501 0.0003284821366)
(0.01236427254 0.0003495871443 0.0003295988621)
(0.01233669548 0.0001172666159 0.0003303720149)
(0.01233669615 -0.0001172678062 0.0003303720921)
(0.0123642745 -0.0003495887058 0.000329599247)
(0.01242406664 -0.0005755532213 0.0003284833307)
(0.01252538299 -0.0007915954064 0.0003279212859)
(0.01268137792 -0.0009959870113 0.0003299533019)
(0.01290534495 -0.001185949585 0.000336407631)
(0.02980176047 0.001137617123 0.002583506841)
(0.02968646711 0.0006826002729 0.002585650547)
(0.0296337791 0.0002276012809 0.002587782646)
(0.02963378062 -0.0002276067296 0.002587782977)
(0.02968647095 -0.0006826066172 0.00258565181)
(0.02980176487 -0.001137621011 0.002583509574)
(0.03000040781 -0.001593914907 0.00258604892)
(0.0303136734 -0.002056207343 0.002601641325)
(0.03077707258 -0.002526463823 0.002639818571)
(0.0386560114 0.001343097126 0.004084386035)
(0.03853872902 0.000799591981 0.004098136159)
(0.0384863411 0.0002655233467 0.004106510409)
(0.03848634291 -0.0002655117934 0.004106510702)
(0.03853873331 -0.0007995818082 0.004098136939)
(0.03865601697 -0.001343087081 0.004084387484)
(0.03886486471 -0.001902782045 0.004071304938)
(0.03920799209 -0.002485416705 0.004075623485)
(0.03973187257 -0.003088251082 0.004116514948)
(0.04130085626 0.001429811433 0.00464402238)
(0.04118081864 0.0008530965298 0.004645361898)
(0.04112616518 0.0002837158148 0.004646788163)
(0.04112616768 -0.0002836889083 0.004646787833)
(0.04118082468 -0.0008530714415 0.004645360389)
(0.04130086378 -0.001429789148 0.004644019942)
(0.04151115809 -0.0020214624 0.004645550758)
(0.04185232567 -0.002638478167 0.004656473521)
(0.04237519379 -0.003278349096 0.004687357436)
(0.04141785086 0.001476398059 0.004446873338)
(0.04130469386 0.0008829826973 0.004452736393)
(0.04125400283 0.0002939723636 0.004456493006)
(0.04125400544 -0.000293937627 0.004456491417)
(0.04130470054 -0.0008829506809 0.0044527316)
(0.04141785995 -0.001476370421 0.00444686577)
(0.04161960082 -0.002079355004 0.004442344881)
(0.0419528134 -0.002700165428 0.00444531024)
(0.04247131242 -0.003334999 0.004461801309)
(0.04075696461 0.001507207534 0.004011605932)
(0.04065076298 0.0009034035204 0.004019016221)
(0.04060383018 0.0003010852615 0.004023406695)
(0.04060383275 -0.0003010501055 0.004023403824)
(0.04065076977 -0.0009033704942 0.004019008321)
(0.04075697432 -0.001507179388 0.004011594424)
(0.0409496827 -0.00211539391 0.004003960118)
(0.0412737914 -0.002734185528 0.003999835822)
(0.04178681613 -0.003358159904 0.004001023087)
(0.01134560127 0.000767910446 0.0001758158515)
(0.01126721682 0.0005695267445 0.0001766585873)
(0.0112208558 0.0003503452829 0.0001777558332)
(0.01119953733 0.0001182407072 0.000178438059)
(0.0111995381 -0.0001182479246 0.0001784380872)
(0.01122085698 -0.0003503517837 0.0001777560139)
(0.01126721787 -0.0005695331082 0.0001766591108)
(0.01134559807 -0.0007679100918 0.0001758179918)
(0.01146466273 -0.0009395164745 0.0001766833425)
(0.01162936932 -0.001078526033 0.0001809128318)
(0.02844605833 0.001650580899 0.00184056393)
(0.0282520612 0.001198678395 0.001837548204)
(0.02813746929 0.0007273116119 0.00183911289)
(0.02808473713 0.0002437957753 0.001840811233)
(0.02808473863 -0.0002438340415 0.001840811881)
(0.02813747252 -0.0007273487971 0.001839114924)
(0.02825206435 -0.001198712215 0.00183755233)
(0.02844605724 -0.001650604401 0.001840571299)
(0.0287428411 -0.002078235439 0.001855792608)
(0.02916003709 -0.002472684973 0.001892914918)
(0.0381485751 0.00205461714 0.003370992248)
(0.03791991265 0.001474093425 0.003375293549)
(0.03778745327 0.0008871503913 0.003384250513)
(0.03772753672 0.0002961176479 0.003390153767)
(0.0377275394 -0.0002961524104 0.00339015483)
(0.03778745975 -0.0008871842536 0.003384253613)
(0.03791992063 -0.001474124379 0.003375298658)
(0.03814858097 -0.002054639999 0.00337100045)
(0.03850796323 -0.002627861591 0.003385601379)
(0.03902965892 -0.003181317027 0.003436470646)
(0.04184916836 0.002230180411 0.004210235236)
(0.04162486973 0.001598786222 0.004213683003)
(0.04149681836 0.0009620047812 0.00422280917)
(0.04144020615 0.0003210491574 0.004229071671)
(0.04144021 -0.0003210701007 0.004229072955)
(0.04149682861 -0.0009620263673 0.004222812428)
(0.04162488346 -0.001598805533 0.004213687594)
(0.04184918182 -0.002230194511 0.004210242055)
(0.04220766073 -0.002856850785 0.00422381755)
(0.04274085084 -0.003462070539 0.004266066392)
(0.04258797724 0.002320156203 0.004330002846)
(0.04238202119 0.001668587844 0.004338608603)
(0.04226741576 0.00100559448 0.004350264009)
(0.04221732352 0.0003359047753 0.004358103788)
(0.04221732773 -0.0003359194262 0.0043581046)
(0.04226742732 -0.001005609731 0.004350266746)
(0.04238203705 -0.001668600943 0.004338613476)
(0.04258799469 -0.002320165154 0.004330008919)
(0.04292431437 -0.002957092326 0.004331664229)
(0.04343944861 -0.003559103536 0.004352169376)
(0.04226289221 0.002368125734 0.004124320769)
(0.0420732056 0.001709605225 0.004138194481)
(0.04197045281 0.001032928184 0.004151807952)
(0.04192621248 0.0003455096913 0.004160215504)
(0.04192621651 -0.0003455241738 0.004160215798)
(0.04197046346 -0.001032941941 0.004151809468)
(0.04207322061 -0.001709615795 0.004138198481)
(0.04226291033 -0.002368131524 0.00412432602)
(0.04258160137 -0.003002794519 0.00411536471)
(0.04307558392 -0.003592511794 0.004116998043)
(0.01072250514 0.0009971230522 0.0001108380831)
(0.01063107513 0.0008998348536 0.0001090512001)
(0.01056417312 0.0007555264037 0.0001102233939)
(0.01052232322 0.000570775395 0.000112174442)
(0.01049937794 0.0003552733455 0.0001138409741)
(0.01048947301 0.0001206120778 0.0001148035895)
(0.01048947242 -0.0001206149242 0.0001148034769)
(0.010499375 -0.0003552767174 0.0001138410728)
(0.01052231649 -0.0005707783877 0.0001121746689)
(0.01056416373 -0.0007555278617 0.000110224329)
(0.01063105907 -0.0008998330035 0.0001090534346)
(0.01072248639 -0.0009971165894 0.0001108410466)
(0.02775289192 0.002348934522 0.001373254891)
(0.02743808951 0.002041163977 0.001348647644)
(0.02720633745 0.001663925772 0.001343761737)
(0.02705488608 0.001230252075 0.001347476417)
(0.02696658737 0.0007551443494 0.001352838942)
(0.02692623524 0.00025461506 0.00135651913)
(0.02692623394 -0.0002546694001 0.001356519915)
(0.02696658215 -0.0007551968288 0.001352841872)
(0.02705487564 -0.001230298912 0.001347482112)
(0.027206321 -0.001663962518 0.001343770648)
(0.02743806519 -0.002041187701 0.001348660169)
(0.02775286411 -0.002348945347 0.001373270233)
(0.03813544102 0.00314054836 0.002812950529)
(0.03768663804 0.002673076871 0.002773975642)
(0.03736708673 0.00214037942 0.002768455949)
(0.03716399522 0.001560355911 0.002777553533)
(0.0370481053 0.0009483076973 0.002788234563)
(0.03699551959 0.0003181826101 0.002795361834)
(0.03699551931 -0.0003182674368 0.002795364125)
(0.03704810306 -0.0009483884907 0.002788241857)
(0.03716398839 -0.001560426843 0.002777565941)
(0.03736707477 -0.002140434912 0.002768473011)
(0.03768662122 -0.002673113339 0.002773998343)
(0.03813542218 -0.003140566794 0.002812977356)
(0.0427029068 0.00351243458 0.003778484282)
(0.04222343963 0.002976137854 0.003746525884)
(0.04189253707 0.002372725391 0.003748458249)
(0.04169327385 0.00172185102 0.003762851757)
(0.04158415435 0.001041102968 0.003774598805)
(0.04153318837 0.0003482905756 0.003781179845)
(0.04153318936 -0.0003483883112 0.003781183377)
(0.04158415588 -0.001041194786 0.003774609358)
(0.04169327171 -0.001721930151 0.003762869161)
(0.04189253117 -0.002372784567 0.003748481417)
(0.04222343266 -0.002976175256 0.003746555365)
(0.04270289857 -0.003512453619 0.003778519072)
(0.04404517933 0.003662107392 0.004129040617)
(0.04357656497 0.003115685223 0.004116682371)
(0.04326108259 0.002497230236 0.00413596247)
(0.04307933058 0.001822040378 0.004167139427)
(0.04298180429 0.001108233218 0.004193984732)
(0.04293833427 0.0003719366846 0.004208931316)
(0.04293833598 -0.0003720289909 0.004208935272)
(0.04298180801 -0.00110831994 0.004193996519)
(0.04307933267 -0.001822114232 0.004167159191)
(0.04326108163 -0.002497284376 0.004135990268)
(0.04357656552 -0.003115719616 0.004116717522)
(0.04404517302 -0.003662121136 0.004129080826)
(0.04330511468 0.002581883472 0.004144193597)
(0.04315033066 0.001893403015 0.004184765804)
(0.04307249284 0.00115595063 0.004217999244)
(0.04304079076 0.0003886639873 0.004236322777)
(0.04304079223 -0.0003887512533 0.004236328048)
(0.04307249586 -0.001156031625 0.004218014594)
(0.04315033259 -0.001893470255 0.004184791395)
(0.04330511414 -0.002581934299 0.004144228271)
(0.04358171582 -0.003201011538 0.004109893497)
(0.04401426198 -0.003726783285 0.004091625469)
(0.01003255532 0.0009686612071 8.458600676e-05)
(0.01001816348 0.0009027980292 8.68169349e-05)
(0.01000917904 0.0007749183606 9.08701772e-05)
(0.01000969474 0.0005948753577 9.488271585e-05)
(0.01001463053 0.0003741180225 9.79901794e-05)
(0.01001859889 0.0001276397382 9.96420706e-05)
(0.01001859604 -0.0001276311265 9.964159779e-05)
(0.010014622 -0.0003741118688 9.798923267e-05)
(0.0100096803 -0.0005948704377 9.48824071e-05)
(0.01000915927 -0.000774912854 9.087056954e-05)
(0.01001814003 -0.0009027921628 8.681812822e-05)
(0.01003252863 -0.0009686540734 8.458812854e-05)
(0.02652354175 0.002226689066 0.001059030831)
(0.02634954762 0.002004499662 0.001060784007)
(0.02621371185 0.001677151062 0.001076219625)
(0.02612910997 0.001263733423 0.001095401135)
(0.02608351719 0.0007855521325 0.001112423183)
(0.02606428438 0.000266494214 0.00112231096)
(0.02606427852 -0.0002665322363 0.001122311081)
(0.0260834997 -0.0007855891806 0.001112424416)
(0.02612908081 -0.001263766408 0.001095405182)
(0.02621367231 -0.001677176773 0.001076226713)
(0.02634949991 -0.002004516555 0.001060794086)
(0.02652348884 -0.00222669679 0.001059043652)
(0.03713341577 0.003027022787 0.002344019457)
(0.0368233887 0.002663392526 0.002345227735)
(0.03659195425 0.002189709433 0.002369747187)
(0.03644634017 0.001629488776 0.002402578389)
(0.03636591272 0.001006366204 0.002431230452)
(0.03633168593 0.0003405478364 0.002447056869)
(0.03633167975 -0.0003406344388 0.002447058652)
(0.03636589399 -0.001006448431 0.002431236617)
(0.03644630878 -0.001629560716 0.002402590167)
(0.03659191106 -0.002189766101 0.00236976486)
(0.03682333686 -0.00266343146 0.002345250805)
(0.03713336037 -0.003027043345 0.002344047692)
(0.04231537514 0.003461776856 0.003358550106)
(0.04196984626 0.003027944211 0.003371595556)
(0.04171972244 0.002473825389 0.003411609909)
(0.04155831604 0.001833439944 0.003462819276)
(0.04145351937 0.001136569959 0.003516773487)
(0.04140631525 0.0003870070374 0.003555840985)
(0.04140630831 -0.0003871050358 0.003555844708)
(0.04145350259 -0.001136664986 0.003516784373)
(0.04155829143 -0.001833526214 0.003462839321)
(0.04171968437 -0.002473896501 0.003411639475)
(0.04196979896 -0.003027992411 0.003371633067)
(0.04231532863 -0.003461801679 0.003358595162)
(0.04414769088 0.003678872051 0.003886561213)
(0.0438725444 0.003257772671 0.003951236162)
(0.04367021145 0.002652771533 0.00400146427)
(0.04354906315 0.001962986594 0.004067828204)
(0.04348922552 0.001204742403 0.004124607221)
(0.04346758726 0.0004061407372 0.004157624475)
(0.04346758104 -0.0004062597847 0.00415763087)
(0.04348920658 -0.00120485402 0.004124625869)
(0.0435490337 -0.001963082512 0.004067857761)
(0.04367017305 -0.002652845453 0.004001504799)
(0.04387249474 -0.003257821612 0.003951281864)
(0.04414765054 -0.003678894797 0.00388661536)
(0.04417225278 0.002774595914 0.004201382009)
(0.04410605859 0.002064516161 0.004277011874)
(0.044087866 0.001271604457 0.004338667544)
(0.0440872078 0.0004293840602 0.004373445238)
(0.04408720145 -0.0004295035777 0.004373453533)
(0.04408784624 -0.001271714745 0.004338692046)
(0.04410602609 -0.002064608766 0.004277051099)
(0.04417221064 -0.002774665535 0.004201434052)
(0.04432469728 -0.003367176597 0.004119449711)
(0.04456807858 -0.003793135876 0.004036371609)
(0.009441639717 0.001013037736 8.124171709e-05)
(0.009495691255 0.0009640221132 8.905003201e-05)
(0.009542147068 0.0008407464595 9.70493647e-05)
(0.009583963287 0.0006526536617 0.0001045632213)
(0.00961644595 0.0004132433998 0.0001100757132)
(0.009634311826 0.0001414101429 0.0001128839297)
(0.009634307494 -0.0001413914182 0.0001128831127)
(0.009616433828 -0.0004132273488 0.0001100741287)
(0.009583945225 -0.0006526404472 0.0001045619297)
(0.009542123871 -0.0008407346584 9.704917677e-05)
(0.009495664504 -0.0009640116148 8.905059775e-05)
(0.009441610731 -0.001013027797 8.124306102e-05)
(0.0253875293 0.00218505119 0.0009275720499)
(0.02535928406 0.002034205754 0.0009649027934)
(0.02533133453 0.001739564548 0.001010389785)
(0.02532298134 0.001332977533 0.001054275496)
(0.02532676481 0.0008371114591 0.001088954209)
(0.02533218674 0.0002852917185 0.001107300344)
(0.02533217815 -0.0002852969385 0.001107300012)
(0.02532673948 -0.0008371171562 0.001088953971)
(0.02532294086 -0.001332982928 0.001054276214)
(0.02533128147 -0.001739568043 0.001010392691)
(0.0253592223 -0.002034207129 0.0009649071182)
(0.02538746297 -0.002185049643 0.0009275779288)
(0.0360326121 0.002937586344 0.002110413291)
(0.03590249376 0.002681721802 0.002175948036)
(0.03579170193 0.002260584114 0.002255083911)
(0.03572795958 0.001716588141 0.002332715345)
(0.03570035923 0.001072551446 0.002395729166)
(0.03569229208 0.0003644498936 0.002429647673)
(0.03569228167 -0.0003645020535 0.002429649022)
(0.03570032792 -0.001072601467 0.00239573319)
(0.03572790849 -0.001716631868 0.002332721762)
(0.03579163359 -0.002260618158 0.002255094257)
(0.03590241409 -0.002681745536 0.002175960357)
(0.03603252804 -0.002937598287 0.002110428103)
(0.0416305502 0.003411128962 0.003162058182)
(0.04147583937 0.003090117765 0.003253205824)
(0.04135737598 0.002588534153 0.003362000054)
(0.04128689415 0.001958591582 0.003478617811)
(0.04126555266 0.001221225585 0.003581901895)
(0.04127022628 0.000413700929 0.00363457102)
(0.04127021503 -0.0004137824203 0.003634574607)
(0.04126551682 -0.001221304027 0.003581911909)
(0.04128683921 -0.001958659795 0.003478630212)
(0.04135730217 -0.002588589545 0.003362021918)
(0.04147575567 -0.003090157028 0.003253231506)
(0.04163046612 -0.00341114839 0.003162086292)
(0.0439819518 0.003710796306 0.003859188139)
(0.04386121359 0.003371655231 0.004002744097)
(0.04382109614 0.00283527679 0.004136108976)
(0.04380776213 0.002134286617 0.004250245692)
(0.04382160807 0.001326968583 0.004354088763)
(0.04383918908 0.0004501031529 0.004411557425)
(0.0438391757 -0.0004502068922 0.00441156313)
(0.04382156811 -0.001327065508 0.004354105204)
(0.04380769945 -0.002134369407 0.004250272044)
(0.04382101538 -0.002835341203 0.004136147103)
(0.04386113388 -0.003371692421 0.004002778323)
(0.04398188586 -0.003710815119 0.003859231363)
(0.04477757066 0.003028052089 0.004496579045)
(0.04483746822 0.002293050205 0.004651245005)
(0.04490548638 0.001428108956 0.00477100691)
(0.04494946007 0.000484929578 0.004836363856)
(0.04494944637 -0.0004850366731 0.004836371618)
(0.04490544508 -0.001428207959 0.004771029385)
(0.04483740211 -0.002293133597 0.0046512798)
(0.04477748678 -0.003028112917 0.00449662353)
(0.04475610779 -0.003585264661 0.004317877713)
(0.04476541182 -0.003929589812 0.004160208005)
(0.008863091964 0.001131927908 8.672144717e-05)
(0.008973933955 0.001089474566 0.0001010305679)
(0.009069912522 0.0009581823416 0.0001143180895)
(0.009150877781 0.0007479365382 0.0001254897326)
(0.009210326716 0.0004752444896 0.0001334428482)
(0.009242029821 0.0001629181103 0.0001375038485)
(0.009242025409 -0.0001628946224 0.0001375032671)
(0.009210314286 -0.000475222624 0.0001334415891)
(0.009150859385 -0.0007479175482 0.0001254884635)
(0.009069890012 -0.0009581659729 0.0001143176946)
(0.008973909042 -0.001089461047 0.0001010307322)
(0.008863065745 -0.001131916721 8.672218864e-05)
(0.02425262928 0.002280344788 0.0009285697693)
(0.02435543593 0.002164049779 0.001011362054)
(0.02443646074 0.001881597834 0.001092805944)
(0.02451021148 0.001457350606 0.001163662105)
(0.0245689515 0.0009214334149 0.001216205743)
(0.02460216106 0.0003150807114 0.001243538159)
(0.02460215157 -0.0003150544493 0.001243537616)
(0.02456892324 -0.0009214090815 0.001216204479)
(0.02451016725 -0.001457329701 0.001163660964)
(0.02443640396 -0.001881580742 0.001092805212)
(0.02435537158 -0.002164036818 0.001011361292)
(0.02425256166 -0.002280334802 0.0009285693835)
(0.03483715429 0.002970573461 0.002098812739)
(0.03488517184 0.002781549975 0.002249159614)
(0.03491888318 0.002392574008 0.002399205624)
(0.03496266772 0.001839971287 0.002530848498)
(0.0350039126 0.001158186509 0.002630460092)
(0.03502995023 0.0003949322462 0.002683086917)
(0.03502993698 -0.0003949336384 0.002683087475)
(0.0350038731 -0.00115818843 0.002630461884)
(0.0349626045 -0.001839974042 0.002530850463)
(0.0349188003 -0.002392576723 0.002399206943)
(0.03488507745 -0.002781552161 0.002249159693)
(0.03483705604 -0.002970573025 0.002098812521)
(0.04071913709 0.003460761567 0.003196677766)
(0.04077783396 0.003220911773 0.003406694145)
(0.04083412831 0.002756407368 0.003608895867)
(0.04091370319 0.002108973054 0.003784685323)
(0.04098648241 0.001322557989 0.003924136472)
(0.04103199166 0.0004497156096 0.00399474186)
(0.04103197661 -0.0004497513675 0.00399474385)
(0.04098643541 -0.00132259204 0.00392414295)