/*--------------------------------*- C++ -*----------------------------------*\
| =========                 |                                                 |
| \\      /  F ield         | OpenFOAM: The Open Source CFD Toolbox           |
|  \\    /   O peration     | Version:  4.x                                   |
|   \\  /    A nd           | Web:      www.OpenFOAM.org                      |
|    \\/     M anipulation  |                                                 |
\*---------------------------------------------------------------------------*/
FoamFile
{
    version     2.0;
    format      ascii;
    class       volVectorField;
    location    "0.89";
    object      U;
}
// * * * * * * * * * * * * * * * * * * * * * * * * * * * * * * * * * * * * * //

dimensions      [0 1 -1 0 0 0 0];

internalField   nonuniform List<vector> 
25344
(
(0.02693202367 0.003063655414 0.003063655466)
(0.0306329873 0.004143997024 0.003662864621)
(0.03068214734 0.002103912144 0.003710844574)
(0.03036279528 0.00161945864 0.003754782673)
(0.03020917554 0.0009325365549 0.003759747084)
(0.03012862548 0.000686239626 0.003766040153)
(0.03063298731 0.003662864565 0.004143997173)
(0.03536576716 0.005041796326 0.005041796531)
(0.03534257167 0.002583938352 0.005116185215)
(0.03499410828 0.001857827088 0.00511213648)
(0.03486767379 0.001023679206 0.005102451521)
(0.03482840577 0.0007263190446 0.005100469754)
(0.03068214732 0.003710844549 0.002103912443)
(0.03534257165 0.005116185046 0.002583938676)
(0.0353244901 0.002605403867 0.002605404167)
(0.03502774361 0.001898195893 0.002590672361)
(0.03492755786 0.001065213953 0.002569005363)
(0.03489592272 0.000770524086 0.002562869821)
(0.0303627953 0.003754782668 0.001619458851)
(0.03499410825 0.005112136316 0.001857827492)
(0.03502774362 0.002590672089 0.001898196257)
(0.03476888922 0.001888116886 0.001888117213)
(0.0346835385 0.001068172458 0.0018677045)
(0.03465592624 0.00077897514 0.001850817695)
(0.03020917557 0.003759747058 0.00093253676)
(0.0348676738 0.005102451379 0.001023679561)
(0.03492755793 0.00256900513 0.001065214219)
(0.0346835385 0.001867704186 0.001068172718)
(0.03460744596 0.001055323566 0.00105532384)
(0.03458357463 0.0007738102919 0.001041444921)
(0.03012862547 0.003766040161 0.0006862396226)
(0.03482840578 0.005100469628 0.0007263191924)
(0.03489592277 0.002562869651 0.0007705242171)
(0.03465592629 0.001850817392 0.0007789752443)
(0.03458357459 0.001041444691 0.000773810309)
(0.034562465 0.0007630645377 0.0007630645693)
(0.02264035867 0.002099963788 0.00209996386)
(0.02825656176 0.004017407513 0.003022200634)
(0.02879929339 0.002825739063 0.003082619148)
(0.02815327975 0.002434939244 0.003111790626)
(0.02773518535 0.001675315429 0.003105151115)
(0.02743421787 0.001337703704 0.003122452793)
(0.02825656175 0.003022200567 0.004017407619)
(0.03707363082 0.005633826891 0.005633826866)
(0.03848913871 0.004197090644 0.005879104236)
(0.03775730783 0.00361502991 0.005925162098)
(0.03711637757 0.002538947508 0.005931866223)
(0.03666326248 0.002007501765 0.005956010036)
(0.02879929344 0.00308261904 0.002825739192)
(0.03848913867 0.005879104271 0.004197090558)
(0.03985124631 0.004230832535 0.004230832532)
(0.03897717117 0.003554136268 0.004266356348)
(0.03830340074 0.002406257798 0.004289896129)
(0.03787466938 0.001887327803 0.004321149129)
(0.02815327981 0.003111790545 0.002434939311)
(0.03775730784 0.005925162111 0.003615029684)
(0.03897717117 0.0042663563 0.003554136281)
(0.03801851076 0.003538738575 0.00353873868)
(0.03731999205 0.002374005395 0.003550411194)
(0.03689440282 0.001859083563 0.003564232986)
(0.02773518538 0.00310515103 0.001675315451)
(0.03711637753 0.005931866231 0.002538947168)
(0.03830340072 0.004289896053 0.00240625779)
(0.03731999208 0.003550411096 0.002374005471)
(0.03660666737 0.002379247719 0.002379247812)
(0.03617523493 0.001861598804 0.002385538117)
(0.02743421795 0.003122452736 0.001337703526)
(0.03666326246 0.00595601 0.002007501161)
(0.03787466935 0.004321149055 0.001887327688)
(0.03689440286 0.003564232922 0.001859083522)
(0.03617523495 0.002385538095 0.001861598694)
(0.03574183177 0.001862314218 0.001862314094)
(0.01377671791 0.001335696883 0.001335696912)
(0.02132249341 0.003443993752 0.002137855036)
(0.02298597499 0.002865842733 0.002237924795)
(0.02245640703 0.002666651119 0.002243308763)
(0.02188361884 0.002001359379 0.002218537403)
(0.02139442738 0.001634164215 0.002226129654)
(0.02132249335 0.002137855002 0.003443993699)
(0.03479074589 0.00542513636 0.005425136164)
(0.03765424351 0.004638599931 0.005762733186)
(0.03723573929 0.004202050295 0.005805177734)
(0.03655794283 0.003111801989 0.00581718057)
(0.03596678891 0.002483693411 0.005833635842)
(0.02298597494 0.002237924774 0.002865842685)
(0.03765424343 0.005762733378 0.004638599573)
(0.04117100218 0.005139802185 0.005139802029)
(0.04075995384 0.004672767598 0.005182695757)
(0.03997248274 0.003435561842 0.005148516886)
(0.03933575594 0.002720318409 0.005143789429)
(0.02245640694 0.002243308736 0.002666650927)
(0.03723573916 0.005805177831 0.004202049799)
(0.04075995378 0.005182695793 0.004672767507)
(0.04035690901 0.0046903836 0.004690383521)
(0.03952587723 0.003454441437 0.004664339726)
(0.03886640914 0.002736119481 0.004655200421)
(0.02188361864 0.002218537354 0.002001359138)
(0.03655794261 0.005817180605 0.003111801314)
(0.03997248252 0.005148516901 0.003435561507)
(0.03952587713 0.004664339758 0.003454441176)
(0.03866543881 0.003437007557 0.003437007372)
(0.03797965946 0.002729683505 0.003426647702)
(0.02139442723 0.002226129621 0.001634163704)
(0.03596678874 0.005833635823 0.002483692398)
(0.03933575576 0.005143789459 0.002720317855)
(0.03886640896 0.004655200404 0.002736119084)
(0.03797965944 0.003426647881 0.00272968312)
(0.03727261106 0.002724070501 0.002724070113)
(0.009895167729 0.0006701957044 0.0006701956988)
(0.01665422975 0.002255429982 0.001212380014)
(0.01886042293 0.002421848121 0.001316590666)
(0.01875456284 0.002431966645 0.001317624651)
(0.01831294717 0.002012620675 0.001287759739)
(0.01780265396 0.001681735538 0.001269413128)
(0.01665422958 0.001212380028 0.002255429773)
(0.03110773452 0.004266990857 0.004266990439)
(0.0359347759 0.004579897317 0.004836707094)
(0.03615568556 0.004397833424 0.004908354454)
(0.03551319727 0.003575932569 0.004857978645)
(0.0347269891 0.002884041121 0.004818389199)
(0.01886042261 0.001316590688 0.002421847746)
(0.03593477577 0.004836707577 0.004579896603)
(0.04125868141 0.005093014064 0.005093013)
(0.04184892653 0.004977053362 0.005195730568)
(0.04123020185 0.004068588277 0.005242216351)
(0.04037888247 0.003276878942 0.005208857432)
(0.01875456237 0.001317624665 0.002431966084)
(0.03615568515 0.004908354917 0.004397832192)
(0.04184892624 0.005195731514 0.004977051883)
(0.04226950322 0.005081788466 0.005081787587)
(0.04158768126 0.004130001252 0.005077551259)
(0.0407242778 0.003342382954 0.005048424456)
(0.01831294671 0.001287759736 0.002012619921)
(0.03551319674 0.004857978976 0.003575930986)
(0.04123020161 0.005242216965 0.004068586948)
(0.04158768118 0.005077551893 0.004130000272)
(0.04086533642 0.004137672968 0.004137672177)
(0.03998525028 0.003348361397 0.004123380716)
(0.01780265344 0.001269413089 0.00168173461)
(0.03472698839 0.004818389418 0.002884039308)
(0.04037888219 0.005208857868 0.003276877302)
(0.04072427766 0.005048425091 0.003342381791)
(0.03998525007 0.0041233814 0.003348360564)
(0.03908686903 0.003340796586 0.003340795766)
(0.006956676051 0.000375208448 0.0003752084223)
(0.01298568832 0.00153627257 0.0006707293617)
(0.01542618527 0.001910589669 0.0007289276553)
(0.01575758705 0.002027436055 0.0007189797088)
(0.01552069611 0.001812648165 0.0006813645943)
(0.0150934139 0.001574613304 0.0006610157967)
(0.01298568812 0.0006707289651 0.001536272204)
(0.02715699737 0.003161834626 0.003161833808)
(0.03311526769 0.004055726869 0.003778175861)
(0.03421265357 0.004164943758 0.003843229548)
(0.03387408591 0.003670010295 0.003760704734)
(0.0331075073 0.003072016329 0.003683922476)
(0.01542618476 0.0007289276593 0.001910588916)
(0.03311526712 0.003778176747 0.004055725149)
(0.04047947342 0.00483132358 0.004831321826)
(0.0417637637 0.00489751912 0.004918621782)
(0.04148024333 0.004324474139 0.00481636875)
(0.04070279576 0.00359988454 0.004806965253)
(0.01575758623 0.00071897969 0.002027434941)
(0.0342126525 0.00384323032 0.004164941505)
(0.04176376313 0.004918623362 0.004897516599)
(0.04335620137 0.005093969072 0.00509396713)
(0.04303543797 0.004485458168 0.005060310002)
(0.04217989368 0.003724088951 0.005021062305)
(0.01552069504 0.0006813641303 0.001812646808)
(0.03387408454 0.003760705331 0.003670007323)
(0.04148024198 0.004816369778 0.004324471017)
(0.04303543753 0.005060311489 0.004485455853)
(0.04268137537 0.004476722679 0.004476720805)
(0.04179907476 0.003739980103 0.004453265691)
(0.01509341295 0.0006610157249 0.001574611822)
(0.03310750599 0.003683922902 0.003072013017)
(0.04070279443 0.004806965664 0.003599881509)
(0.04217989313 0.005021063435 0.003724086544)
(0.0417990746 0.004453267242 0.003739977985)
(0.04089729668 0.003734753662 0.00373475177)
(0.005133656959 0.0002094992174 0.000209499155)
(0.01027090776 0.001040124961 0.0003793690055)
(0.01274637136 0.001482084071 0.0004132932866)
(0.01344597902 0.001664758504 0.000403334809)
(0.0134452924 0.001580546937 0.0003724286074)
(0.0131750417 0.001430769329 0.0003533561355)
(0.01027090762 0.0003793690482 0.001040124413)
(0.0232837582 0.002288371026 0.002288369887)
(0.02985139816 0.003422301894 0.002848791563)
(0.0318297474 0.003782470782 0.002947944014)
(0.03191277793 0.003516997404 0.002876756536)
(0.03135112671 0.003085322995 0.002790253626)
(0.01274637065 0.0004132933705 0.001482082924)
(0.02985139746 0.002848792862 0.003422299509)
(0.03851539969 0.004305373921 0.004305371154)
(0.0410246415 0.004705059601 0.004492223217)
(0.04109859413 0.004346232807 0.004414112205)
(0.04043673376 0.00376663756 0.004306785334)
(0.01344597779 0.000403334874 0.001664756871)
(0.03182974591 0.002947945258 0.003782467328)
(0.04102464059 0.004492225725 0.004705055582)
(0.04356113721 0.004861613864 0.004861609991)
(0.0437879283 0.004570116822 0.004896110616)
(0.04313167332 0.003986230683 0.004840206507)
(0.01344529081 0.0003724285913 0.001580545086)
(0.03191277576 0.002876757638 0.003516993331)
(0.04109859233 0.004414114532 0.004346228228)
(0.04378792755 0.004896113743 0.004570112313)
(0.04392585163 0.004578560454 0.004578556289)
(0.04324365918 0.004014503664 0.004544334757)
(0.01317503992 0.0003533561508 0.001430767454)
(0.03135112439 0.002790254432 0.003085318567)
(0.04043673169 0.004306787308 0.003766632141)
(0.0431316719 0.00484020921 0.00398622539)
(0.04324365855 0.004544338515 0.00401449881)
(0.04255531398 0.004007285244 0.00400728061)
(0.003907313771 0.0001219953608 0.0001219952422)
(0.008294711732 0.0007250789859 0.0002170282339)
(0.01070849957 0.001158462736 0.0002355874619)
(0.0116665477 0.001380751957 0.0002282557445)
(0.01188637834 0.001385044202 0.0002078822681)
(0.01177282139 0.001302977913 0.0001930574086)
(0.008294711505 0.0002170284233 0.0007250781382)
(0.01988012799 0.001642235805 0.001642234253)
(0.02659718062 0.002809379137 0.002115523478)
(0.02927954555 0.003346382364 0.002243303056)
(0.02985632862 0.003291438807 0.002202387354)
(0.0295723115 0.003011485745 0.002135183335)
(0.0107084986 0.0002355876635 0.001158461033)
(0.02659717933 0.002115525191 0.002809376017)
(0.03583535889 0.003683913833 0.003683910159)
(0.03940357985 0.004363102763 0.003948706481)
(0.04010436518 0.004249441082 0.003911276366)
(0.03971394847 0.003842353992 0.003814326918)
(0.01166654586 0.0002282559027 0.001380749718)
(0.02927954282 0.002243304689 0.003346378104)
(0.03940357826 0.003948710081 0.004363097644)
(0.04320708194 0.004673356599 0.004673351431)
(0.04389094107 0.00453805579 0.004627197697)
(0.0435657166 0.004127033676 0.004604823993)
(0.0118863758 0.0002078824173 0.001385041765)
(0.02985632497 0.002202388764 0.00329143395)
(0.04010436288 0.003911279735 0.004249435089)
(0.04389093976 0.004627202344 0.004538049424)
(0.04469027672 0.004584414666 0.004584408463)
(0.04431110026 0.004185814584 0.004566112074)
(0.01177281867 0.0001930574731 0.00130297566)
(0.02957230742 0.002135184388 0.00301148087)
(0.03971394527 0.003814329773 0.003842347473)
(0.04356571438 0.004604828067 0.004127026601)
(0.04431109886 0.004566118218 0.004185807028)
(0.04392153326 0.004191782485 0.004191774929)
(0.003062992274 7.626191748e-05 7.626170035e-05)
(0.006823657974 0.0005282416428 0.000132862455)
(0.009122114488 0.00092772813 0.0001460622849)
(0.01024512746 0.001169995192 0.0001424502367)
(0.01065017387 0.001238300207 0.0001299570233)
(0.01068080066 0.001208205222 0.0001199045869)
(0.006823657606 0.0001328632299 0.0005282404256)
(0.01702198697 0.001207414121 0.001207411934)
(0.02359606545 0.00229870246 0.001608127436)
(0.02677294026 0.002930880348 0.001753493498)
(0.02782534223 0.003048709741 0.001747748058)
(0.02783587634 0.002898213696 0.001699706873)
(0.009122113198 0.0001460626492 0.0009277256331)
(0.02359606376 0.001608129747 0.002298698209)
(0.03298712645 0.003136078475 0.003136073981)
(0.03737810727 0.003984204736 0.003461392334)
(0.03871574908 0.004086057564 0.003483841128)
(0.03865986226 0.003834999568 0.003413486705)
(0.01024512515 0.0001424505464 0.001169991939)
(0.02677293659 0.001753495537 0.002930874596)
(0.03737810508 0.003461396543 0.003984198397)
(0.04224560479 0.004408231429 0.004408225203)
(0.04360586224 0.004492011895 0.004448555166)
(0.04351437121 0.004214978373 0.004384966985)
(0.01065017079 0.000129957607 0.001238296708)
(0.02782533728 0.001747749638 0.003048703519)
(0.03871574527 0.003483844781 0.004086050522)
(0.04360586069 0.004448560625 0.004492004525)
(0.04502351025 0.004582444335 0.004582437574)
(0.04498860567 0.004322761422 0.004575395447)
(0.01068079733 0.0001199044876 0.001208201851)
(0.0278358709 0.001699707765 0.002898207721)
(0.03865985765 0.003413489293 0.003834992625)
(0.04351436876 0.004384971021 0.00421497094)
(0.04498860469 0.004575400818 0.004322754228)
(0.04494947892 0.004351367819 0.004351360893)
(0.002441765488 5.337822082e-05 5.337798352e-05)
(0.005679711466 0.0004092765042 8.954008757e-05)
(0.007835659306 0.0007713675477 0.0001020120603)
(0.009048388435 0.00102457316 0.0001022071812)
(0.009597972554 0.001140693394 9.610025036e-05)
(0.009761047202 0.001155409714 9.263666215e-05)
(0.005679711009 8.954053764e-05 0.0004092750207)
(0.01463002577 0.0009271033234 0.0009271004659)
(0.02089193439 0.001906259187 0.001268269475)
(0.02436575572 0.002576317785 0.001423583183)
(0.02582370521 0.002830636211 0.001453573207)
(0.02614824969 0.002788550759 0.001435387584)
(0.007835658008 0.0001020124677 0.0007713643847)
(0.02089193254 0.001268272663 0.001906253267)
(0.03011587429 0.002682537929 0.002682531547)
(0.03508846755 0.003621270463 0.003051073831)
(0.0370364373 0.003921292911 0.003145438419)
(0.03737129297 0.003793468318 0.003125393278)
(0.009048386104 0.0001022075362 0.001024568845)
(0.02436575156 0.001423586029 0.002576309722)
(0.03508846469 0.003051079419 0.003621262084)
(0.04073570388 0.004123758666 0.004123751384)
(0.04286162751 0.004442880728 0.004267126127)
(0.0431684094 0.004272165374 0.00426116029)
(0.009597969541 9.610047166e-05 0.001140688669)
(0.02582369952 0.001453575343 0.002830627362)
(0.03703643231 0.003145442859 0.003921283932)
(0.04286162533 0.004267132004 0.00444287293)
(0.04492798249 0.004607741419 0.004607734836)
(0.04532171987 0.004473122083 0.004658996276)
(0.00976104395 9.263649393e-05 0.001155405171)
(0.02614824373 0.001435388879 0.002788542043)
(0.03737128738 0.003125396316 0.003793459872)
(0.04316840674 0.004261164483 0.004272158301)
(0.04532171936 0.00465900073 0.00447311702)
(0.0457060998 0.004555081027 0.004555077937)
(0.00195170997 4.099748822e-05 4.09972271e-05)
(0.004746471088 0.0003382638526 6.67473703e-05)
(0.006749091719 0.0006724667127 7.848017549e-05)
(0.007994694569 0.0009346368545 8.208118709e-05)
(0.008647174574 0.001089492138 8.192435571e-05)
(0.008920318091 0.001146582395 8.404262951e-05)
(0.004746470556 6.674775045e-05 0.0003382625007)
(0.01260763134 0.0007478529614 0.0007478501743)
(0.01847805654 0.001619397109 0.0010379798)
(0.0220851376 0.002296039291 0.001198874017)
(0.02385593471 0.002648756469 0.001261204923)
(0.02447333291 0.002716370349 0.001281032437)
(0.006749090423 7.848059921e-05 0.0006724636808)
(0.01847805466 0.001037983551 0.001619390502)
(0.02733622773 0.002319602304 0.002319593922)
(0.03265980813 0.003295632964 0.002718153213)
(0.03512861715 0.003752532482 0.002881412643)
(0.0358746796 0.003765490118 0.002932104025)
(0.007994692347 8.208157447e-05 0.0009346324713)
(0.02208513324 0.001198877778 0.00229602961)
(0.03265980486 0.002718161178 0.003295621484)
(0.03887632427 0.003866352561 0.003866342525)
(0.0416510383 0.004379587086 0.004116971083)
(0.04242870687 0.004359340526 0.00419907375)
(0.008647171819 8.192458489e-05 0.001089487261)
(0.02385592871 0.001261208107 0.002648745223)
(0.03512861132 0.002881419503 0.003752519991)
(0.04165103538 0.004116978936 0.004379577198)
(0.04451829361 0.004659449945 0.004659442934)
(0.04528162871 0.004669484122 0.004807312544)
(0.008920315559 8.404252631e-05 0.001146577711)
(0.02447332686 0.001281034952 0.002716358779)
(0.03587467347 0.002932109742 0.003765477944)
(0.04242870315 0.00419908029 0.004359331831)
(0.04528162787 0.004807317877 0.004669478774)
(0.04617767253 0.004851731593 0.004851729665)
(0.00153664957 3.394671401e-05 3.394640848e-05)
(0.003946781804 0.000296787762 5.309379044e-05)
(0.005793693866 0.0006170683526 6.281654652e-05)
(0.007031756869 0.0008939758419 6.873614181e-05)
(0.007748430197 0.001086025647 7.392049806e-05)
(0.008106729219 0.001184630293 8.130154979e-05)
(0.003946781281 5.309410918e-05 0.0002967868672)
(0.01085686531 0.0006319616818 0.0006319600018)
(0.01631175935 0.001421524919 0.0008768834218)
(0.01992971385 0.002097639468 0.001039460816)
(0.02191324643 0.002525554333 0.001133383561)
(0.02277615609 0.002693344265 0.00119334647)
(0.005793692393 6.281690361e-05 0.0006170663926)
(0.01631175743 0.0008768864867 0.001421520081)
(0.02469870215 0.002038267367 0.002038259194)
(0.03017407695 0.003022850453 0.002451794971)
(0.03304418566 0.003599315311 0.002683112917)
(0.03417154214 0.003761801061 0.002814266537)
(0.007031754464 6.873654869e-05 0.0008939729367)
(0.0199297095 0.00103946474 0.002097631182)
(0.03017407349 0.002451804513 0.003022837293)
(0.03674507984 0.00364334043 0.003643326737)
(0.04008408386 0.004317074002 0.003998287016)
(0.04132529835 0.004471175633 0.00420212294)
(0.007748427455 7.392078178e-05 0.001086022451)
(0.02191324016 0.001133387566 0.00252554373)
(0.03304417929 0.002683122302 0.0035992998)
(0.04008408056 0.00399829913 0.004317059631)
(0.04362829843 0.004740336719 0.00474032571)
(0.04493124717 0.004905822046 0.0050007547)
(0.008106726493 8.130152809e-05 0.001184626873)
(0.02277614906 0.001193350179 0.002693332314)
(0.03417153494 0.002814275692 0.003761784698)
(0.04132529408 0.004202134354 0.004471161764)
(0.04493124584 0.005000763492 0.0049058134)
(0.04634484087 0.005230468271 0.00523046327)
(0.001165576839 2.914715553e-05 2.914675007e-05)
(0.003228312436 0.0002725628649 4.271259858e-05)
(0.004919689622 0.000593740415 4.869627351e-05)
(0.006121933143 0.0008969432515 5.516259701e-05)
(0.006869072044 0.001132553798 6.489688345e-05)
(0.007286125682 0.001276237691 7.832115286e-05)
(0.003228312078 4.271287277e-05 0.0002725623481)
(0.009285118019 0.0005559585239 0.000555958436)
(0.01432425687 0.001298900824 0.0007598609455)
(0.01786883306 0.001989002433 0.000919500577)
(0.01997316757 0.002489124121 0.001044413571)
(0.02102194565 0.00275228398 0.001151957014)
(0.004919688421 4.869656679e-05 0.0005937398732)
(0.01432425524 0.0007598622256 0.00129889964)
(0.02219217823 0.001832642323 0.001832637329)
(0.02766515997 0.00282261642 0.002245637159)
(0.03080623957 0.00349991644 0.002543324032)
(0.03225773071 0.003802132079 0.002770846741)
(0.006121930975 5.516297987e-05 0.0008969427662)
(0.01786882873 0.000919503319 0.001988999031)
(0.02766515635 0.002245645534 0.002822606353)
(0.03439580852 0.003467249194 0.003467235032)
(0.03817392529 0.004281027955 0.003928004318)
(0.03985767962 0.004609475094 0.004275537611)
(0.006869068935 6.489722995e-05 0.001132553752)
(0.01997316048 0.001044417327 0.002489118661)
(0.03080623224 0.002543334224 0.003499902609)
(0.03817392124 0.003928019685 0.004281010695)
(0.04228351029 0.004854181704 0.00485416507)
(0.04412629332 0.005222519223 0.005290105014)
(0.007286122185 7.832117183e-05 0.001276237467)
(0.02102193676 0.00115196118 0.002752276439)
(0.03225772137 0.00277085808 0.003802115457)
(0.03985767394 0.004275553887 0.004609455951)
(0.04412629215 0.005290120641 0.005222502901)
(0.04612090622 0.005731121248 0.005731106883)
(0.000821953575 2.485021673e-05 2.484966126e-05)
(0.002556537552 0.0002570213067 3.293743206e-05)
(0.004089076082 0.0005913832063 3.350098619e-05)
(0.005234059395 0.0009344170656 3.818411578e-05)
(0.005983351352 0.001225545843 5.108919947e-05)
(0.006433055189 0.00142320254 7.083098816e-05)
(0.00255653734 3.293777514e-05 0.0002570208164)
(0.007811111711 0.000504861498 0.0005048624928)
(0.01243313852 0.00123742791 0.0006722225511)
(0.01584660896 0.001970403879 0.0008244801286)
(0.01799556949 0.002558128435 0.0009785979098)
(0.01916672203 0.002923355457 0.001140032687)
(0.004089075178 3.350121745e-05 0.0005913835562)
(0.01243313723 0.0006722219159 0.001237430278)
(0.0197568872 0.001698803082 0.001698803047)
(0.02511730459 0.002715735946 0.002100676369)
(0.02840979593 0.003495939487 0.002462235614)
(0.03010636 0.003935420674 0.002802174151)
(0.005234057494 3.818445252e-05 0.0009344186514)
(0.01584660511 0.0008244809674 0.001970406642)
(0.02511730102 0.002100680419 0.002715733441)
(0.03184875993 0.003362097701 0.003362088794)
(0.03593003589 0.004311067181 0.003927547998)
(0.03799225338 0.004814408877 0.004443867955)
(0.005983348267 5.108963256e-05 0.001225548845)
(0.01799556217 0.0009786003755 0.002558130826)
(0.02840978772 0.002462243099 0.003495933726)
(0.03593003087 0.003927561418 0.004311053733)
(0.04049209109 0.005034415656 0.005034398325)
(0.04283361398 0.00561549416 0.00570088544)
(0.006433050741 7.083128065e-05 0.001423205788)
(0.0191667112 0.001140036432 0.002923356242)
(0.03010634752 0.00280218442 0.003935411153)
(0.03799224427 0.004443884709 0.004814390829)
(0.04283361016 0.005700904692 0.005615474025)
(0.04543226686 0.006390197363 0.006390177852)
(0.0004991597495 2.021311431e-05 2.021241333e-05)
(0.001911008703 0.0002429684617 2.250855078e-05)
(0.00327387397 0.0005973001865 1.678058364e-05)
(0.004340808866 0.0009925870662 1.731845391e-05)
(0.005067305485 0.00135462916 3.161823053e-05)
(0.005524963117 0.00162103844 5.737682899e-05)
(0.001911008655 2.250943508e-05 0.0002429677198)
(0.006371242524 0.0004660810274 0.0004660822807)
(0.01055448723 0.001217568143 0.0006022197654)
(0.01378704011 0.002028391461 0.0007428475773)
(0.0159168563 0.002734376093 0.0009223233578)
(0.01714963149 0.003223718982 0.001140978078)
(0.003273873573 1.678087664e-05 0.0005973006405)
(0.01055448639 0.0006022179503 0.00121757249)
(0.01729652701 0.001625004301 0.001625008716)
(0.02245984109 0.002709702095 0.002012481173)
(0.02580188469 0.00361987508 0.002435429202)
(0.02765944077 0.00421284994 0.002900900562)
(0.004340807688 1.731881177e-05 0.0009925895475)
(0.01378703719 0.0007428467182 0.002028398581)
(0.02245983809 0.002012479688 0.002709707556)
(0.02906595884 0.003349446654 0.003349446673)
(0.03332160771 0.004453624785 0.004019158412)
(0.03568010534 0.005146361511 0.004730569909)
(0.005067302982 3.161916083e-05 0.001354633799)
(0.01591684993 0.0009223242158 0.00273438529)
(0.02580187671 0.002435431478 0.003619880052)
(0.03332160209 0.004019164256 0.004453621366)
(0.03820405553 0.00532982623 0.005329815151)
(0.04098605576 0.006153570216 0.006260554416)
(0.005524958994 5.737741804e-05 0.001621044208)
(0.01714962075 0.001140980659 0.003223728245)
(0.02765942663 0.002900906203 0.004212852204)
(0.03568009302 0.004730580134 0.005146352536)
(0.04098604853 0.006260570417 0.006153552597)
(0.0441876737 0.007236864431 0.007236841153)
(0.03008927849 0.003763840598 0.0004604761599)
(0.03481721638 0.005099990152 0.0004734710851)
(0.03488209963 0.002561582649 0.0005097574941)
(0.03464180108 0.001840690362 0.0005205915018)
(0.03457078758 0.001031820808 0.0005197060575)
(0.0345512191 0.0007547538679 0.0005129849477)
(0.03007012104 0.003763965938 0.0003341712994)
(0.03481676561 0.005101953985 0.0003385629819)
(0.03487792988 0.002563840493 0.0003678766726)
(0.0346370881 0.001835549593 0.0003784191304)
(0.03456638395 0.001026360874 0.0003800192585)
(0.03454769306 0.0007492258995 0.0003762625489)
(0.03006051107 0.003763159499 0.0002339024061)
(0.03481850468 0.005104243144 0.000234289303)
(0.03487576302 0.002567283332 0.0002559701681)
(0.03463461498 0.001833684158 0.0002649918266)
(0.03456370915 0.001023843063 0.0002674865172)
(0.03454545811 0.0007461236793 0.0002657835302)
(0.0300556631 0.0037629626 0.0001566194812)
(0.03482039375 0.005106423517 0.0001560100723)
(0.03487477891 0.002570700428 0.0001706807048)
(0.03463386159 0.001833436696 0.0001774857389)
(0.03456265495 0.001022936775 0.0001798992026)
(0.03454462385 0.0007445548748 0.0001793654115)
(0.03005329804 0.003762842803 9.009812543e-05)
(0.03482176343 0.005108010962 8.942424582e-05)
(0.03487427021 0.002573319146 9.78291124e-05)
(0.03463368427 0.001833801411 0.0001020862747)
(0.03456220859 0.001022780901 0.0001037956903)
(0.03454427106 0.0007438857662 0.0001037687483)
(0.03005231305 0.003762822964 2.947569519e-05)
(0.03482244634 0.005108839123 2.921921292e-05)
(0.03487405622 0.002574692177 3.194557973e-05)
(0.03463368511 0.0018341103 3.33906224e-05)
(0.03456205526 0.001022814716 3.400181357e-05)
(0.03454414888 0.0007436538087 3.40407576e-05)
(0.03005231287 0.00376282294 -2.947602226e-05)
(0.0348224464 0.005108839181 -2.921940249e-05)
(0.03487405637 0.002574692281 -3.194583548e-05)
(0.03463368508 0.001834110226 -3.339098524e-05)
(0.03456205526 0.001022814673 -3.400223031e-05)
(0.03454414889 0.0007436537417 -3.404125818e-05)
(0.03005329815 0.003762842734 -9.009836669e-05)
(0.03482176329 0.005108010912 -8.942432449e-05)
(0.03487427018 0.002573319128 -9.782927681e-05)
(0.03463368422 0.001833801315 -0.000102086491)
(0.03456220844 0.001022780817 -0.0001037959759)
(0.03454427107 0.0007438855902 -0.0001037690886)
(0.03005566314 0.003762962555 -0.0001566195436)
(0.03482039379 0.005106423456 -0.00015600996)
(0.03487477896 0.002570700388 -0.0001706806233)
(0.03463386163 0.00183343658 -0.0001774857321)
(0.03456265498 0.001022936659 -0.0001798992242)
(0.03454462386 0.0007445545941 -0.000179365557)
(0.03006051105 0.003763159461 -0.0002339022356)
(0.03481850472 0.005104243091 -0.0002342889759)
(0.03487576308 0.002567283272 -0.0002559699424)
(0.03463461503 0.001833684062 -0.0002649916249)
(0.03456370922 0.001023842898 -0.0002674863087)
(0.0345454582 0.0007461233655 -0.0002657833499)
(0.030070121 0.003763965915 -0.0003341709523)
(0.03481676564 0.005101953965 -0.0003385625066)
(0.03487792991 0.002563840503 -0.000367876223)
(0.03463708817 0.001835549424 -0.0003784187248)
(0.03456638403 0.001026360658 -0.0003800188899)
(0.03454769317 0.0007492255089 -0.0003762622342)
(0.03008927843 0.003763840575 -0.0004604757255)
(0.03481721638 0.005099990147 -0.000473470531)
(0.03488209963 0.002561582601 -0.0005097569546)
(0.03464180111 0.001840690252 -0.0005205909693)
(0.03457078768 0.001031820558 -0.0005197056295)
(0.03455121923 0.0007547534606 -0.0005129845973)
(0.02726929572 0.003128459839 0.0009930701971)
(0.03641594961 0.005973526727 0.00149557391)
(0.03765478299 0.00433624056 0.001384275269)
(0.03668179135 0.003570773118 0.001362063622)
(0.0359610328 0.002386234106 0.001363751401)
(0.03552821792 0.001859445322 0.001363559988)
(0.02716864162 0.003137594485 0.0007586893253)
(0.03627014295 0.005990501304 0.001136742006)
(0.03753070112 0.004349013946 0.001047344865)
(0.03656397061 0.003575397165 0.001032639114)
(0.035842691 0.002385388087 0.001034522118)
(0.03541097198 0.001855954906 0.001034907693)
(0.02711027815 0.003142283511 0.0005548237241)
(0.03618722032 0.006002661232 0.0008295792544)
(0.03746324686 0.004356280538 0.0007611786602)
(0.03650039587 0.003577946823 0.0007521407136)
(0.03577866614 0.00238391746 0.0007534580331)
(0.03534783391 0.00185307091 0.0007542533331)
(0.02707576303 0.00314558217 0.0003801926235)
(0.03613911743 0.006011049992 0.0005673764071)
(0.03742524553 0.004360115525 0.0005203736673)
(0.03646494133 0.003579479917 0.0005153740998)
(0.03574299252 0.002382623628 0.0005160238336)
(0.03531292162 0.001851184335 0.000516868302)
(0.02705670173 0.003147415353 0.0002219687945)
(0.03611285002 0.006016091241 0.0003309198635)
(0.03740478926 0.004362202148 0.0003036264171)
(0.03644624038 0.003580680636 0.0003011443801)
(0.03572422403 0.002381931124 0.0003013540491)
(0.03529473096 0.001850229188 0.0003019752596)
(0.02704815647 0.003148270154 7.303699063e-05)
(0.03610118599 0.006018461062 0.0001088423413)
(0.03739566616 0.004363188602 9.992596183e-05)
(0.03643804207 0.003581390938 9.917205262e-05)
(0.03571603972 0.002381676067 9.920119117e-05)
(0.03528687035 0.001849859267 9.942319468e-05)
(0.02704815655 0.003148270494 -7.30372049e-05)
(0.03610118587 0.006018460657 -0.0001088427339)
(0.03739566632 0.004363188704 -9.992597827e-05)
(0.03643804222 0.003581390949 -9.917207877e-05)
(0.03571603975 0.002381676011 -9.920118818e-05)
(0.03528687044 0.001849859223 -9.942322568e-05)
(0.02705670178 0.00314741541 -0.0002219689615)
(0.03611285 0.006016091167 -0.0003309200641)
(0.03740478939 0.004362202131 -0.0003036263545)
(0.03644624058 0.0035806806 -0.0003011442388)
(0.03572422419 0.002381931063 -0.0003013539361)
(0.03529473124 0.001850229035 -0.0003019751698)
(0.02707576293 0.003145582217 -0.0003801925806)
(0.03613911739 0.00601104995 -0.0005673764317)
(0.03742524559 0.004360115438 -0.0005203733927)