/*--------------------------------*- C++ -*----------------------------------*\
  =========                 |
  \\      /  F ield         | OpenFOAM: The Open Source CFD Toolbox
   \\    /   O peration     | Website:  https://openfoam.org
    \\  /    A nd           | Version:  7
     \\/     M anipulation  |
\*---------------------------------------------------------------------------*/
FoamFile
{
    version     2.0;
    format      ascii;
    class       volScalarField;
    location    "0.00267";
    object      Ux;
}
// * * * * * * * * * * * * * * * * * * * * * * * * * * * * * * * * * * * * * //

dimensions      [0 1 -1 0 0 0 0];

internalField   nonuniform List<scalar> 
5000
(
-82.352612
-82.297923
-82.272019
-82.242384
-82.213737
-82.18488
-82.156068
-82.127205
-82.098343
-82.069435
-82.040527
-82.011579
-81.982631
-81.953652
-81.924674
-81.895673
-81.866673
-81.837659
-81.808646
-81.779625
-81.750605
-81.721584
-81.692562
-81.663541
-81.634522
-81.605504
-81.576489
-81.547478
-81.51847
-81.489466
-81.460466
-81.431471
-81.40248
-81.373495
-81.344515
-81.31554
-81.286571
-81.257608
-81.22865
-81.199698
-81.170751
-81.141811
-81.112876
-81.083947
-81.055024
-81.026108
-80.997197
-80.968292
-80.939393
-80.9105
-80.881613
-80.852732
-80.823856
-80.794987
-80.766124
-80.737267
-80.708415
-80.67957
-80.650731
-80.621898
-80.59307
-80.564249
-80.535434
-80.506625
-80.477821
-80.449024
-80.420233
-80.391448
-80.362668
-80.333895
-80.305127
-80.276365
-80.247609
-80.21886
-80.190116
-80.161378
-80.132645
-80.103919
-80.075199
-80.046485
-80.017776
-79.989074
-79.960377
-79.931686
-79.903001
-79.874322
-79.845649
-79.816981
-79.788319
-79.759663
-79.731013
-79.702369
-79.67373
-79.645097
-79.61647
-79.587849
-79.559234
-79.530625
-79.502021
-79.473424
-79.444832
-79.416246
-79.387666
-79.359092
-79.330523
-79.301961
-79.273404
-79.244853
-79.216308
-79.187769
-79.159235
-79.130707
-79.102185
-79.073668
-79.045157
-79.016652
-78.988153
-78.959659
-78.93117
-78.902688
-78.874211
-78.84574
-78.817274
-78.788814
-78.760359
-78.73191
-78.703467
-78.67503
-78.646598
-78.618172
-78.589751
-78.561336
-78.532927
-78.504523
-78.476124
-78.447732
-78.419345
-78.390963
-78.362587
-78.334217
-78.305851
-78.277492
-78.249137
-78.220789
-78.192445
-78.164107
-78.135774
-78.107447
-78.079125
-78.050808
-78.022496
-77.99419
-77.965889
-77.937593
-77.909303
-77.881017
-77.852737
-77.824462
-77.796192
-77.767928
-77.739669
-77.711416
-77.683168
-77.654927
-77.626692
-77.598463
-77.57024
-77.542024
-77.513813
-77.48561
-77.457411
-77.429219
-77.401032
-77.37285
-77.344672
-77.316498
-77.288327
-77.260159
-77.231992
-77.203827
-77.175663
-77.1475
-77.119337
-77.091174
-77.063012
-77.034851
-77.006689
-76.978529
-76.950369
-76.922211
-76.894054
-76.865899
-76.837745
-76.809594
-76.781444
-76.753298
-76.725154
-76.697013
-76.668874
-76.640739
-76.612606
-76.584477
-76.55635
-76.528226
-76.500105
-76.471987
-76.443871
-76.415758
-76.387647
-76.359538
-76.331432
-76.303328
-76.275226
-76.247127
-76.219028
-76.190932
-76.162837
-76.134745
-76.106653
-76.078562
-76.050473
-76.022385
-75.994297
-75.96621
-75.938124
-75.910038
-75.881952
-75.853867
-75.825781
-75.797696
-75.76961
-75.741524
-75.713436
-75.685349
-75.657259
-75.62917
-75.601077
-75.572985
-75.544889
-75.516793
-75.488693
-75.460592
-75.432487
-75.404381
-75.37627
-75.348158
-75.320039
-75.291921
-75.263795
-75.235669
-75.207533
-75.179398
-75.151253
-75.123109
-75.094953
-75.066797
-75.038629
-75.010462
-74.982281
-74.9541
-74.925905
-74.89771
-74.8695
-74.841289
-74.813062
-74.784835
-74.75659
-74.728345
-74.700081
-74.671816
-74.643531
-74.615246
-74.58694
-74.558633
-74.530303
-74.501972
-74.473617
-74.445262
-74.416881
-74.388499
-74.36009
-74.331681
-74.303242
-74.274803
-74.246334
-74.217864
-74.189363
-74.16086
-74.132324
-74.103787
-74.075215
-74.046641
-74.018032
-73.989421
-73.960772
-73.932121
-73.903432
-73.874739
-73.846006
-73.817271
-73.788494
-73.759712
-73.730889
-73.70206
-73.673187
-73.644312
-73.615387
-73.586459
-73.557484
-73.528503
-73.49947
-73.470433
-73.441343
-73.412245
-73.383097
-73.353935
-73.324726
-73.295498
-73.266224
-73.236928
-73.207588
-73.17822
-73.14881
-73.119369
-73.089886
-73.060369
-73.030812
-73.001217
-72.971582
-72.941908
-72.912194
-72.882438
-72.852642
-72.822804
-72.792925
-72.763002
-72.733038
-72.703029
-72.672978
-72.642881
-72.612741
-72.582555
-72.552325
-72.522047
-72.491725
-72.461354
-72.430938
-72.400472
-72.369959
-72.339397
-72.308786
-72.278125
-72.247415
-72.216652
-72.18584
-72.154975
-72.12406
-72.09309
-72.062069
-72.030993
-71.999864
-71.96868
-71.937442
-71.906147
-71.874798
-71.843391
-71.811929
-71.780409
-71.748832
-71.717196
-71.685502
-71.653749
-71.621938
-71.590066
-71.558134
-71.526143
-71.49409
-71.461976
-71.429801
-71.397564
-71.365264
-71.332902
-71.300477
-71.267989
-71.235437
-71.202822
-71.170142
-71.137398
-71.104589
-71.071715
-71.038776
-71.005772
-70.972701
-70.939566
-70.906363
-70.873094
-70.839758
-70.806357
-70.772887
-70.73935
-70.705746
-70.672074
-70.638334
-70.604527
-70.570651
-70.536708
-70.502696
-70.468616
-70.434466
-70.40025
-70.365963
-70.331608
-70.297184
-70.262692
-70.22813
-70.1935
-70.1588
-70.124032
-70.089194
-70.054288
-70.019313
-69.984269
-69.949155
-69.913974
-69.878722
-69.843403
-69.808014
-69.772557
-69.737031
-69.701438
-69.665775
-69.630044
-69.594245
-69.558378
-69.522443
-69.486441
-69.45037
-69.414233
-69.378028
-69.341756
-69.305417
-69.269012
-69.23254
-69.196002
-69.159398
-69.122728
-69.085992
-69.049192
-69.012326
-68.975396
-68.9384
-68.901341
-68.864217
-68.827031
-68.78978
-68.752467
-68.71509
-68.677652
-68.640151
-68.602588
-68.564963
-68.527278
-68.48953
-68.451723
-68.413854
-68.375925
-68.337936
-68.299888
-68.26178
-68.223613
-68.185387
-68.147103
-68.108759
-68.070359
-68.0319
-67.993384
-67.95481
-67.916181
-67.877494
-67.838752
-67.799953
-67.761099
-67.72219
-67.683227
-67.644209
-67.605138
-67.566013
-67.526836
-67.487605
-67.448324
-67.40899
-67.369607
-67.330171
-67.290688
-67.251153
-67.211571
-67.171939
-67.132261
-67.092534
-67.052762
-67.012941
-66.973077
-66.933165
-66.893211
-66.85321
-66.813168
-66.773081
-66.732952
-66.69278
-66.652567
-66.612312
-66.572018
-66.531681
-66.491307
-66.450891
-66.410438
-66.369945
-66.329416
-66.288848
-66.248243
-66.207602
-66.166925
-66.126211
-66.085463
-66.04468
-66.003862
-65.963011
-65.922126
-65.881208
-65.840258
-65.799275
-65.758261
-65.717215
-65.676139
-65.635032
-65.593896
-65.552729
-65.511534
-65.47031
-65.429058
-65.387777
-65.34647
-65.305135
-65.263773
-65.222386
-65.180972
-65.139533
-65.098069
-65.05658
-65.015067
-64.973529
-64.931969
-64.890385
-64.848778
-64.807149
-64.765499
-64.723826
-64.682132
-64.640418
-64.598683
-64.556927
-64.515152
-64.473358
-64.431544
-64.389711
-64.34786
-64.305991
-64.264104
-64.2222
-64.180279
-64.13834
-64.096386
-64.054415
-64.012428
-63.970426
-63.928409
-63.886376
-63.84433
-63.802269
-63.760194
-63.718106
-63.676004
-63.633889
-63.591762
-63.549621
-63.507469
-63.465305
-63.423129
-63.380942
-63.338743
-63.296534
-63.254314
-63.212083
-63.169843
-63.127592
-63.085332
-63.043063
-63.000784
-62.958497
-62.916201
-62.873896
-62.831584
-62.789263
-62.746934
-62.704598
-62.662254
-62.619904
-62.577546
-62.535181
-62.49281
-62.450432
-62.408047
-62.365657
-62.32326
-62.280858
-62.238449
-62.196035
-62.153616
-62.111191
-62.068761
-62.026325
-61.983885
-61.941439
-61.898989
-61.856534
-61.814074
-61.77161
-61.729141
-61.686668
-61.644191
-61.601709
-61.559224
-61.516734
-61.474241
-61.431744
-61.389243
-61.34674
-61.304232
-61.261722
-61.219209
-61.176693
-61.134174
-61.091652
-61.049128
-61.006601
-60.964073
-60.921542
-60.879009
-60.836474
-60.793938
-60.7514
-60.708861
-60.666321
-60.623779
-60.581237
-60.538694
-60.49615
-60.453605
-60.411061
-60.368515
-60.32597
-60.283425
-60.240879
-60.198334
-60.155788
-60.113243
-60.070699
-60.028155
-59.985611
-59.943068
-59.900526
-59.857984
-59.815443
-59.772903
-59.730364
-59.687826
-59.64529
-59.602754
-59.56022
-59.517687
-59.475155
-59.432624
-59.390096
-59.347568
-59.305042
-59.262518
-59.219995
-59.177474
-59.134955
-59.092437
-59.049921
-59.007407
-58.964895
-58.922385
-58.879876
-58.83737
-58.794865
-58.752363
-58.709862
-58.667364
-58.624867
-58.582373
-58.539881
-58.49739
-58.454903
-58.412417
-58.369933
-58.327452
-58.284973
-58.242496
-58.200022
-58.15755
-58.11508
-58.072613
-58.030148
-57.987685
-57.945225
-57.902767
-57.860311
-57.817858
-57.775408
-57.732959
-57.690514
-57.648071
-57.60563
-57.563192
-57.520756
-57.478323
-57.435892
-57.393464
-57.351038
-57.308615
-57.266195
-57.223777
-57.181362
-57.13895
-57.09654
-57.054132
-57.011727
-56.969325
-56.926926
-56.884529
-56.842135
-56.799743
-56.757354
-56.714968
-56.672584
-56.630203
-56.587824
-56.545449
-56.503075
-56.460705
-56.418337
-56.375972
-56.33361
-56.29125
-56.248892
-56.206537
-56.164185
-56.121835
-56.079489
-56.037144
-55.994802
-55.952463
-55.910125
-55.86779
-55.825458
-55.783128
-55.740801
-55.698476
-55.656153
-55.613832
-55.571512
-55.529195
-55.486881
-55.444569
-55.402259
-55.359951
-55.317645
-55.275339
-55.233035
-55.190734
-55.148435
-55.106138
-55.063843
-55.02155
-54.979257
-54.936965
-54.894674
-54.852386
-54.810099
-54.767816
-54.725534
-54.683254
-54.640974
-54.598694
-54.556415
-54.514137
-54.471862
-54.42959
-54.387321
-54.345054
-54.302787
-54.26052
-54.218253
-54.175988
-54.133725
-54.091465
-54.049207
-54.006953
-53.9647
-53.922449
-53.880198
-53.837948
-53.795699
-53.753451
-53.711207
-53.668965
-53.626725
-53.584489
-53.542255
-53.500024
-53.457794
-53.415565
-53.373337
-53.331109
-53.288882
-53.246658
-53.204437
-53.162222
-53.120011
-53.077805
-53.0356
-52.993396
-52.95119
-52.908981
-52.866774
-52.824567
-52.782365
-52.740169
-52.69798
-52.655797
-52.613617
-52.571439
-52.529261
-52.48708
-52.444899
-52.402715
-52.360531
-52.318348
-52.276168
-52.233995
-52.19183
-52.149674
-52.107526
-52.065383
-52.023241
-51.981095
-51.938942
-51.896784
-51.854621
-51.81246
-51.770301
-51.728147
-51.685999
-51.643858
-51.601725
-51.559598
-51.517477
-51.47536
-51.433247
-51.391135
-51.349024
-51.30691
-51.264794
-51.222677
-51.180557
-51.138435
-51.096312
-51.054188
-51.012063
-50.969938
-50.927814
-50.885693
-50.843575
-50.801462
-50.759353
-50.717249
-50.675148
-50.633049
-50.590952
-50.548857
-50.506764
-50.464676
-50.422592
-50.380515
-50.338443
-50.296376
-50.254311
-50.212249
-50.170187
-50.128127
-50.086069
-50.044014
-50.001963
-49.959916
-49.917871
-49.875828
-49.833786
-49.791743
-49.749702
-49.707664
-49.665629
-49.6236
-49.581573
-49.539549
-49.497524
-49.455495
-49.413464
-49.371431
-49.329398
-49.287367
-49.245338
-49.203313
-49.16129
-49.119269
-49.07725
-49.035233
-48.993218
-48.951206
-48.909199
-48.867197
-48.825199
-48.783205
-48.741214
-48.699224
-48.657234
-48.615241
-48.573246
-48.531251
-48.489256
-48.447265
-48.40528
-48.3633
-48.321327
-48.279356
-48.237385
-48.195406
-48.153421
-48.11143
-48.069439
-48.027452
-47.985471
-47.943498
-47.901531
-47.859569
-47.817606
-47.775634
-47.733655
-47.691668
-47.649681
-47.607695
-47.565715
-47.523742
-47.481776
-47.439815
-47.397857
-47.3559
-47.31394
-47.27198
-47.230021
-47.188065
-47.146116
-47.104173
-47.062235
-47.020299
-46.978358
-46.936405
-46.894445
-46.852479
-46.810516
-46.76856
-46.726615
-46.684682
-46.642757
-46.600837
-46.558914
-46.516977
-46.475034
-46.433088
-46.391145
-46.349209
-46.30728
-46.26536
-46.223444
-46.181529
-46.139609
-46.097685
-46.055761
-46.013837
-45.971916
-45.929999
-45.888087
-45.846179
-45.804275
-45.762374
-45.720474
-45.678575
-45.636672
-45.594769
-45.552866
-45.510967
-45.469074
-45.427188
-45.38531
-45.343436
-45.301563
-45.25968
-45.217788
-45.175889
-45.133991
-45.092097
-45.050211
-45.008335
-44.966468
-44.924604
-44.882742
-44.840875
-44.799008
-44.757142
-44.715278
-44.673417
-44.631558
-44.589699
-44.547842
-44.505985
-44.46413
-44.422279
-44.380431
-44.338584
-44.296739
-44.254894
-44.213052
-44.171213
-44.129379
-44.087548
-44.04572
-44.00389
-43.96205
-43.920205
-43.878359
-43.836516
-43.794678
-43.75285
-43.711031
-43.669221
-43.627417
-43.585616
-43.543815
-43.502005
-43.460188
-43.418365
-43.376541
-43.33472
-43.292904
-43.251098
-43.209301
-43.167512
-43.12573
-43.083951
-43.042173
-43.000392
-42.958609
-42.916821
-42.875029
-42.833234
-42.79144
-42.749647
-42.707858
-42.666075
-42.624296
-42.58252
-42.540744
-42.498959
-42.457168
-42.415372
-42.373579
-42.331792
-42.290017
-42.248259
-42.206516
-42.164784
-42.123057
-42.08133
-42.039588
-41.997836
-41.956069
-41.914304
-41.872541
-41.830784
-41.789037
-41.747297
-41.705562
-41.663828
-41.622084
-41.58033
-41.538564
-41.496793
-41.455025
-41.413264
-41.371516
-41.329784
-41.288067
-41.24636
-41.204658
-41.162956
-41.121242
-41.079525
-41.037799
-40.99607
-40.954333
-40.912591
-40.870849
-40.829109
-40.787374
-40.745649
-40.703932
-40.662223
-40.620518
-40.578813
-40.537102
-40.495388
-40.453671
-40.411951
-40.370228
-40.328496
-40.286761
-40.245024
-40.203289
-40.161559
-40.119835
-40.078118
-40.036409
-39.994706
-39.953007
-39.911311
-39.869618
-39.827925
-39.786233
-39.744542
-39.702853
-39.661167
-39.619486
-39.57781
-39.536136
-39.494462
-39.452782
-39.411099
-39.369417
-39.327738
-39.286064
-39.244394
-39.202727
-39.161061
-39.119392
-39.07772
-39.036048
-38.994376
-38.952704
-38.911032
-38.869361
-38.827694
-38.786032
-38.744376
-38.702727
-38.661083
-38.619439
-38.577788
-38.53613
-38.494471
-38.452812
-38.411155
-38.369502
-38.327854
-38.286212
-38.244575
-38.202947
-38.161326
-38.119712
-38.078102
-38.036489
-37.994861
-37.953224
-37.911578
-37.869933
-37.82829
-37.786651
-37.745017
-37.703389
-37.661768
-37.620156
-37.578555
-37.536964
-37.495379
-37.453795
-37.412198
-37.370588
-37.328969
-37.287349
-37.245734
-37.204129
-37.162536
-37.120954
-37.079376
-37.0378
-36.996225
-36.954655
-36.913089
-36.871526
-36.829964
-36.788382
-36.746784
-36.70518
-36.66358
-36.621992
-36.580422
-36.538873
-36.497337
-36.455809
-36.414277
-36.372727
-36.331171
-36.289606
-36.248041
-36.206478
-36.164915
-36.123355
-36.081799
-36.040249
-35.99871
-35.957181
-35.915661
-35.874145
-35.832628
-35.791096
-35.749558
-35.708019
-35.666483
-35.624953
-35.583428
-35.541907
-35.500385
-35.458859
-35.417334
-35.375813
-35.3343
-35.292796
-35.251298
-35.209803
-35.168301
-35.126792
-35.085283
-35.043776
-35.002273
-34.960773
-34.919276
-34.877778
-34.836276
-34.794775
-34.753277
-34.711783
-34.670295
-34.62881
-34.587326
-34.545837
-34.504341
-34.462844
-34.421348
-34.379856
-34.33837
-34.29689
-34.255415
-34.213942
-34.17247
-34.130999
-34.089527
-34.048055
-34.006584
-33.965113
-33.923644
-33.882176
-33.840709
-33.799243
-33.757777
-33.716312
-33.674847
-33.633383
-33.591919
-33.550455
-33.508992
-33.467529
-33.426068
-33.384608
-33.343152
-33.3017
-33.260252
-33.218808
-33.177366
-33.135926
-33.094485
-33.053041
-33.011597
-32.97015
-32.928703
-32.887256
-32.84581
-32.804365
-32.762923
-32.721484
-32.680049
-32.638617
-32.597188
-32.55576
-32.514333
-32.472908
-32.431483
-32.39006
-32.348638
-32.307218
-32.265799
-32.224381
-32.182963
-32.141546
-32.100129
-32.058713
-32.017299
-31.975886
-31.934475
-31.893065
-31.851658
-31.810252
-31.768848
-31.727446
-31.686047
-31.644649
-31.603252
-31.561857
-31.520463
-31.479071
-31.437681
-31.396292
-31.354906
-31.313521
-31.272137
-31.230754
-31.189371
-31.147989
-31.106608
-31.065227
-31.023849
-30.982473
-30.9411
-30.899728
-30.858358
-30.816989
-30.77562
-30.734253
-30.692886
-30.651521
-30.610157
-30.568795
-30.527433
-30.486071
-30.444709
-30.403347
-30.361986
-30.320625
-30.279265
-30.237907
-30.19655
-30.155195
-30.113844
-30.072496
-30.031151
-29.98981
-29.948471
-29.907134
-29.865797
-29.824461
-29.783125
-29.74179
-29.700455
-29.659123
-29.617791
-29.57646
-29.535131
-29.493802
-29.452473
-29.411146
-29.36982
-29.328497
-29.287175
-29.245854
-29.204535
-29.163217
-29.121899
-29.080583
-29.039267
-28.997952
-28.956638
-28.915324
-28.874012
-28.832701
-28.791392
-28.750083
-28.708775
-28.667468
-28.626161
-28.584856
-28.543554
-28.502253
-28.460952
-28.419651
-28.37835
-28.33705
-28.29575
-28.254452
-28.213154
-28.171855
-28.130552
-28.089249
-28.047948
-28.00665
-27.965356
-27.924063
-27.882771
-27.841479
-27.800188
-27.7589
-27.717615
-27.676334
-27.635056
-27.593779
-27.5525
-27.511219
-27.469939
-27.428661
-27.387384
-27.34611
-27.304836
-27.263563
-27.22229
-27.181014
-27.139738
-27.098462
-27.057188
-27.015915
-26.974643
-26.933371
-26.892099
-26.850829
-26.80956
-26.768295
-26.72703
-26.685767
-26.644497
-26.603219
-26.561943
-26.52067
-26.479405
-26.438147
-26.396897
-26.355649
-26.314402
-26.273147
-26.231885
-26.190618
-26.149347
-26.108077
-26.066809
-26.025546
-25.984291
-25.943042
-25.901798
-25.860556
-25.819316
-25.778076
-25.736837
-25.695601
-25.654368
-25.613136
-25.571905
-25.530671
-25.489431
-25.448188
-25.406945
-25.365707
-25.324477
-25.283256
-25.242045
-25.20084
-25.159638
-25.118436
-25.077232
-25.036027
-24.994823
-24.95362
-24.912421
-24.871225
-24.830031
-24.788838
-24.747647
-24.706456
-24.665267
-24.624082
-24.582901
-24.541728
-24.500563
-24.459407
-24.418258
-24.377114
-24.335972
-24.294832
-24.253693
-24.212555
-24.171421
-24.13029
-24.089163
-24.048039
-24.006918
-23.965801
-23.924689
-23.883582
-23.842484
-23.801394
-23.760312
-23.719237
-23.678167
-23.637103
-23.596043
-23.554988
-23.513937
-23.472892
-23.431853
-23.39082
-23.349792
-23.30877
-23.267753
-23.226741
-23.185735
-23.144736
-23.103744
-23.062761
-23.021786
-22.98082
-22.939862
-22.898911
-22.857966
-22.817028
-22.776097
-22.735172
-22.694253
-22.653341
-22.612435
-22.571538
-22.530649
-22.489769
-22.448897
-22.408034
-22.367179
-22.326332
-22.285495
-22.244669
-22.203851
-22.163042
-22.122239
-22.081445
-22.040659
-21.999885
-21.959122
-21.918369
-21.877622
-21.836882
-21.796148
-21.755425
-21.714715
-21.674019
-21.633334
-21.592657
-21.551985
-21.511318
-21.470661
-21.430015
-21.389383
-21.348763
-21.308153
-21.267553
-21.226961
-21.186379
-21.145806
-21.105243
-21.064689
-21.024146
-20.983615
-20.9431
-20.902599
-20.862112
-20.821632
-20.781156
-20.740683
-20.700217
-20.659762
-20.619322
-20.578899
-20.538493
-20.498101
-20.457722
-20.417353
-20.376995
-20.336649
-20.296314
-20.255991
-20.215681
-20.175384
-20.1351
-20.094826
-20.054562
-20.014304
-19.974053
-19.933808
-19.893573
-19.853352
-19.813148
-19.772961
-19.732791
-19.692634
-19.652487
-19.61235
-19.572222
-19.532103
-19.491996
-19.451902
-19.411818
-19.371744
-19.331678
-19.291618
-19.251565
-19.211522
-19.171492
-19.131477
-19.091476
-19.051489
-19.011513
-18.971546
-18.931587
-18.891637
-18.851698
-18.811771
-18.771857
-18.731956
-18.692064
-18.652181
-18.612305
-18.572437
-18.532579
-18.49273
-18.452894
-18.41307
-18.373256
-18.333451
-18.293653
-18.253863
-18.214081
-18.174307
-18.134544
-18.094793
-18.055053
-18.015321
-17.975597
-17.93588
-17.896169
-17.856466
-17.816772
-17.777088
-17.737416
-17.697752
-17.658096
-17.618446
-17.578802
-17.539164
-17.499533
-17.459912
-17.420301
-17.380699
-17.341105
-17.301518
-17.261934
-17.222355
-17.182783
-17.143218
-17.103663
-17.064116
-17.024579
-16.985047
-16.945519
-16.905994
-16.866474
-16.82696
-16.787454
-16.747957
-16.708469
-16.668987
-16.629509
-16.590033
-16.550558
-16.511089
-16.471627
-16.432173
-16.392727
-16.353289
-16.313855
-16.274422
-16.234986
-16.195555
-16.15613
-16.116713
-16.077305
-16.037903
-15.998506
-15.95911
-15.91971
-15.880311
-15.840916
-15.801529
-15.762151
-15.72278
-15.683413
-15.644049
-15.60468
-15.565305
-15.525935
-15.486572
-15.447218
-15.407871
-15.368529
-15.329189
-15.289846
-15.250492
-15.211139
-15.171792
-15.132456
-15.093127
-15.053804
-15.014482
-14.975157
-14.935821
-14.896478
-14.857142
-14.817816
-14.7785
-14.739189
-14.699881
-14.660567
-14.621245
-14.581907
-14.542574
-14.50325
-14.463939
-14.424637
-14.385337
-14.346028
-14.306713
-14.267374
-14.228038
-14.188711
-14.149398
-14.110097
-14.070799
-14.031491
-13.992173
-13.952832
-13.913486
-13.874149
-13.834826
-13.795518
-13.756215
-13.716902
-13.677573
-13.638228
-13.598867
-13.559514
-13.520173
-13.480845
-13.441524
-13.402201
-13.362861
-13.323508
-13.284124
-13.244744
-13.205376
-13.166025
-13.126687
-13.08735
-13.047975
-13.008587
-12.969179
-12.929775
-12.890384
-12.851004
-12.81163
-12.772241
-12.732837
-12.693425
-12.653988
-12.614548
-12.575113
-12.535688
-12.496271
-12.456854
-12.417407
-12.377943
-12.338458
-12.298968
-12.259487
-12.220017
-12.180555
-12.141087
-12.101589
-12.062082
-12.022555
-11.983013
-11.94347
-11.903922
-11.864378
-11.824837
-11.785289
-11.745726
-11.706141
-11.666542
-11.62693
-11.587321
-11.547718
-11.508115
-11.468487
-11.428831
-11.38916
-11.349475
-11.309794
-11.270121
-11.230451
-11.190764
-11.151042
-11.111306
-11.071553
-11.03179
-10.992029
-10.952266
-10.912502
-10.872722
-10.832928
-10.793117
-10.753281
-10.713431
-10.67357
-10.633706
-10.593846
-10.553979
-10.514082
-10.474152
-10.434207
-10.394249
-10.354294
-10.314344
-10.274395
-10.234415
-10.194393
-10.154355
-10.114302
-10.074245
-10.034191
-9.9941386
-9.9540734
-9.9139784
-9.8738655
-9.8337345
-9.7935784
-9.7534146
-9.7132376
-9.6730568
-9.632876
-9.5926817
-9.5524539
-9.5121931
-9.4719159
-9.4316264
-9.3913386
-9.3510529
-9.3107649
-9.2704387
-9.230067
-9.1896804
-9.149281
-9.1088834
-9.068488
-9.0280941
-8.98768
-8.9472243
-8.9067511
-8.8662601
-8.8257472
-8.785232
-8.7447005
-8.7041674
-8.6636268
-8.6230687
-8.5824744
-8.5418498
-8.5012101
-8.4605622
-8.4199133
-8.3792649
-8.3386055
-8.2979037
-8.2571668
-8.2164215
-8.1756624
-8.1349024
-8.0941387
-8.0533693
-8.0125828
-7.9717744
-7.9309445
-7.8900801
-7.8491967
-7.8083076
-7.7674129
-7.7265177
-7.685615
-7.6446815
-7.6037126
-7.5627312
-7.5217283
-7.4807172
-7.4397006
-7.3986819
-7.3576625
-7.3166382
-7.2755829
-7.2344819
-7.1933643
-7.1522338
-7.1110979
-7.0699576
-7.0288108
-6.9876483
-6.9464663
-6.9052774
-6.8640794
-6.8228674
-6.7816217
-6.7403465
-6.6990633
-6.6577738
-6.6164836
-6.5751922
-6.5338966
-6.492587
-6.4512558
-6.4099118
-6.368545
-6.3271575
-6.2857593
-6.2443449
-6.2029251
-6.1614975
-6.1200636
-6.0786157
-6.037144
-5.9956574
-5.9541659
-5.9126729
-5.8711794
-5.8296835
-5.7881709
-5.7466261
-5.7050717
-5.6635061
-5.6219327
-5.5803522
-5.5387652
-5.4971717
-5.4555645
-5.4139337
-5.3722949
-5.3306534
-5.2890108
-5.2473651
-5.2057009
-5.1640055
-5.1223072
-5.0806064
-5.0389101
-4.9972195
-4.9555312
-4.9138325
-4.8720869
-4.830314
-4.7885404
-4.7467715
-4.7050131
-4.6632615
-4.6215097
-4.5797335
-4.5379199
-4.4960908
-4.4542596
-4.4124344
-4.3706173
-4.3288035
-4.2869871
-4.2451578
-4.2033173
-4.1614523
-4.1195742
-4.077699
-4.0358248
-3.9939494
-3.9520681
-3.910186
-3.8683036
-3.8264051
-3.784466
-3.7425343
-3.7006143
-3.6587056
-3.6167978
-3.5748606
-3.5329175
-3.4909782
-3.4490402
-3.4070996
-3.3651511
-3.3232012
-3.281247
-3.2392852
-3.1973216
-3.1553574
-3.113385
-3.0713861
-3.0293879
-2.9873935
-2.9454065
-2.9034245
-2.8614435
-2.8194536
-2.7774455
-2.7354336
-2.6934203
-2.6514071
-2.609394
-2.5673804
-2.5253637
-2.4833342
-2.4412981
-2.3992661
-2.3572407
-2.3152188
-2.27319
-2.2311507
-2.1891151
-2.1470769
-2.1050234
-2.0629718
-2.0209213
-1.978871
-1.9368227
-1.894778
-1.852734
-1.810675
-1.7686103
-1.7265493
-1.6844869
-1.6424265
-1.6003727
-1.5583235
-1.5162648
-1.4741819
-1.4321081
-1.3900444
-1.3479904
-1.3059329
-1.2638461
-1.2217717
-1.1797002
-1.1376276
-1.0955621
-1.0534968
-1.0114039
-0.96933233
-0.92727341
-0.88518632
-0.84311167
-0.80104032
-0.758946
-0.71686464
-0.67479742
-0.63271285
-0.59063121
-0.54855116
-0.50647995
-0.46441693
-0.42230766
-0.38022468
-0.33814431
-0.29605477
-0.25397612
-0.21189208
-0.16982996
-0.12773821
-0.085657066
-0.043592461
-0.001418423
0.040757282
0.082870026
0.12497618
0.16707814
0.2091776
0.25127535
0.29337184
0.33546761
0.37756322
0.41965899
0.46175473
0.50384985
0.54594379
0.58803632
0.63012757
0.67221793
0.7143078
0.7563975
0.79848719
0.84057695
0.88266675
0.92475656
0.96684634
1.008936
1.0510256
1.0931151
1.1352045
1.1772938
1.219383
1.2614723
1.3035617
1.3456511
1.3877406
1.4298302
1.4719199
1.5140097
1.5560993
1.5981888
1.640278
1.6823671
1.7244559
1.7665445
1.808633
1.8507213
1.8928096
1.934898
1.9769865
2.0190752
2.0611641
2.1032532
2.1453426
2.1874321
2.2295217
2.2716116
2.3137017
2.3557921
2.3978828
2.4399737
2.4820648
2.5241562
2.5662478
2.6083395
2.6504315
2.6925236
2.7346159
2.7767084
2.8188012
2.8608941
2.9029871
2.9450804
2.987174
3.0292677
3.0713618
3.1134561
3.1555508
3.1976458
3.2397411
3.2818368
3.3239329
3.3660293
3.4081261
3.4502233
3.4923208
3.5344187
3.576517
3.6186156
3.6607145
3.7028137
3.7449131
3.7870129
3.8291129
3.8712131
3.9133136
3.9554144
3.9975154
4.0396168
4.0817184
4.1238204
4.1659226
4.2080252
4.2501282
4.2922316
4.3343354
4.3764397
4.4185443
4.4606492
4.5027546
4.5448603
4.5869665
4.6290731
4.6711801
4.7132874
4.7553951
4.797503
4.8396113
4.88172
4.923829
4.9659384
5.0080481
5.0501581
5.0922684
5.134379
5.17649
5.2186014
5.2607131
5.3028252
5.3449376
5.3870504
5.4291634
5.4712769
5.5133907
5.5555049
5.5976195
5.6397344
5.6818496
5.7239651
5.7660809
5.808197
5.8503134
5.8924301
5.9345471
5.9766644
6.0187818
6.0608995
6.1030175
6.1451357
6.1872541
6.2293728
6.2714917
6.3136108
6.3557302
6.3978498
6.4399696
6.4820896
6.5242099
6.5663303
6.6084509
6.6505717
6.6926926
6.7348138
6.7769351
6.8190565
6.8611781
6.9032997
6.9454215
6.9875433
7.0296653
7.0717874
7.1139095
7.1560317
7.1981539
7.2402762
7.2823985
7.3245209
7.3666434
7.4087659
7.4508884
7.493011
7.5351336
7.5772563
7.619379
7.6615017
7.7036244
7.7457472
7.7878699
7.8299927
7.8721155
7.9142383
7.9563611
7.9984839
8.0406067
8.0827295
8.1248523
8.1669752
8.209098
8.2512209
8.2933438
8.3354666
8.3775895
8.4197125
8.4618355
8.5039586
8.5460817
8.5882049
8.6303282
8.6724515
8.7145749
8.7566984
8.7988221
8.8409458
8.8830697
8.9251937
8.9673179
9.0094421
9.0515666
9.0936912
9.135816
9.177941
9.2200661
9.2621915
9.3043171
9.346443
9.3885691
9.4306955
9.4728222
9.5149492
9.5570765
9.5992041
9.6413321
9.6834605
9.7255892
9.7677184
9.8098479
9.8519779
9.8941083
9.9362392
9.9783705
10.020502
10.062635
10.104767
10.146901
10.189035
10.231169
10.273304
10.31544
10.357576
10.399713
10.44185
10.483989
10.526127
10.568267
10.610407
10.652548
10.69469
10.736832
10.778975
10.821119
10.863263
10.905409
10.947555
10.989702
11.03185
11.073999
11.116148
11.158299
11.20045
11.242602
11.284755
11.326909
11.369064
11.411219
11.453376
11.495533
11.537692
11.579851
11.622011
11.664173
11.706335
11.748498
11.790662
11.832827
11.874993
11.91716
11.959328
12.001497
12.043666
12.085837
12.128009
12.170181
12.212355
12.25453
12.296705
12.338881
12.381059
12.423237
12.465416
12.507596
12.549776
12.591958
12.63414
12.676323
12.718506
12.760691
12.802876
12.845061
12.887249
12.929437
12.971627
13.013818
13.056011
13.098205
13.1404
13.182595
13.22479
13.266985
13.30918
13.351375
13.39357
13.435767
13.477966
13.520167
13.562369
13.604572
13.646776
13.688977
13.731177
13.773378
13.815582
13.85779
13.900003
13.942219
13.984436
14.02665
14.06886
14.11107
14.15328
14.19549
14.237701
14.279913
14.322127
14.364344
14.406561
14.448778
14.490992
14.533206
14.57542
14.617635
14.659851
14.702067
14.744282
14.786498
14.828715
14.870933
14.913153
14.955373
14.997592
15.039808
15.082025
15.124244
15.166463
15.208684
15.250905
15.293125
15.335344
15.377564
15.419784
15.462004
15.504225
15.546447
15.588668
15.630889
15.67311
15.715331
15.757552
15.799774
15.841996
15.884218
15.926439
15.968661
16.010883
16.053106
16.095328
16.13755
16.179773
16.221995
16.264218
16.306441
16.348664
16.390887
16.43311
16.475334
16.517557
16.559781
16.602005
16.644229
16.686453
16.728677
16.770902
16.813126
16.855351
16.897576
16.939802
16.982027
17.024253
17.066479
17.108706
17.150932
17.193159
17.235387
17.277614
17.319842
17.36207
17.404299
17.446528
17.488758
17.530987
17.573218
17.615448
17.657679
17.699911
17.742143
17.784375
17.826608
17.868841
17.911074
17.953308
17.995543
18.037777
18.080011
18.122246
18.16448
18.206714
18.248948
18.291181
18.333412
18.375643
18.417871
18.460098
18.502324
18.544548
18.586771
18.628994
18.671219
18.713447
18.75568
18.797921
18.84017
18.882431
18.924704
18.96699
19.009288
19.051595
19.093909
19.136223
19.178536
19.220836
19.263117
19.305376
19.347608
19.389822
19.432019
19.47422
19.516432
19.558664
19.600923
19.643209
19.685518
19.727841
19.770165
19.812488
19.854772
19.897033
19.939257
19.98147
20.023691
20.065933
20.108204
20.150502
20.192822
20.23515
20.27747
20.319764
20.362024
20.404254
20.446486
20.488735
20.531009
20.57331
20.615627
20.657952
20.700263
20.742552
20.7848
20.827045
20.869301
20.911578
20.953878
20.996193
21.03851
21.080822
21.123097
21.165351
21.207611
21.249887
21.292182
21.33449
21.376802
21.419111
21.461386
21.503651
21.545921
21.588204
21.630499
21.672799
21.715101
21.757386
21.799651
21.841917
21.884186
21.926459
21.968735
22.011003
22.053255
22.09549
22.137715
22.179937
22.222156
22.264365
22.306559
22.348734
22.3909
22.433058
22.475213
22.517363
22.559503
22.601637
22.643768
22.6859
22.728033
22.770168
22.812307
22.85445
22.8966
22.938757
22.980923
23.023097
23.065279
23.107467
23.149661
23.191858
23.234059
23.276262
23.318466
23.360673
23.402882
23.445095
23.487312
23.529533
23.57176
23.613991
23.656226
23.698466
23.740708
23.782953
23.8252
23.867448
23.909697
23.951948
23.994199
24.036452
24.078705
24.120959
24.163213
24.205467
24.247721
24.289975
24.332228
24.374481
24.416734
24.458986
24.501238
24.54349
24.585741
24.627992
24.670242
24.712493
24.754743
24.796993
24.839243
24.881492
24.923741
24.96599
25.008238
25.050486
25.092734
25.134982
25.177231
25.219479
25.261727
25.303975
25.346223
25.388471
25.430718
25.472965
25.515212
25.557458
25.599704
25.64195
25.684195
25.726441
25.768686
25.810931
25.853176
25.895421
25.937665
25.97991
26.022155
26.064399
26.106644
26.148888
26.191132
26.233375