/*--------------------------------*- C++ -*----------------------------------*\
  =========                 |
  \\      /  F ield         | OpenFOAM: The Open Source CFD Toolbox
   \\    /   O peration     | Website:  https://openfoam.org
    \\  /    A nd           | Version:  7
     \\/     M anipulation  |
\*---------------------------------------------------------------------------*/
FoamFile
{
    version     2.0;
    format      ascii;
    class       volScalarField;
    location    "0.0016";
    object      rho;
}
// * * * * * * * * * * * * * * * * * * * * * * * * * * * * * * * * * * * * * //

dimensions      [1 -3 0 0 0 0 0];

internalField   nonuniform List<scalar> 
5000
(
1.348658
1.3483783
1.3481016
1.347832
1.3475688
1.3473032
1.3470321
1.3467537
1.3464828
1.3462287
1.3459932
1.3457844
1.3456112
1.3454403
1.3452701
1.3451028
1.3449385
1.3447768
1.3446171
1.3444594
1.3443036
1.3441496
1.3439972
1.3438464
1.3436972
1.3435494
1.3434032
1.3432583
1.343115
1.3429731
1.3428327
1.3426936
1.3425561
1.34242
1.3422853
1.342152
1.3420202
1.3418899
1.341761
1.3416335
1.3415075
1.3413829
1.3412597
1.3411379
1.3410176
1.3408988
1.3407813
1.3406653
1.3405507
1.3404375
1.3403257
1.3402154
1.3401064
1.3399988
1.3398927
1.3397879
1.3396845
1.3395825
1.3394818
1.3393826
1.3392846
1.3391881
1.3390929
1.338999
1.3389065
1.3388153
1.3387254
1.3386368
1.3385495
1.3384635
1.3383788
1.3382954
1.3382133
1.3381324
1.3380527
1.3379743
1.3378971
1.3378212
1.3377464
1.3376729
1.3376005
1.3375293
1.3374593
1.3373905
1.3373227
1.3372562
1.3371907
1.3371264
1.3370631
1.337001
1.3369399
1.3368799
1.3368209
1.336763
1.3367061
1.3366502
1.3365953
1.3365414
1.3364885
1.3364366
1.3363856
1.3363356
1.3362865
1.3362383
1.336191
1.3361446
1.3360991
1.3360544
1.3360106
1.3359677
1.3359255
1.3358842
1.3358437
1.335804
1.335765
1.3357268
1.3356894
1.3356527
1.3356167
1.3355815
1.3355469
1.335513
1.3354798
1.3354473
1.3354155
1.3353842
1.3353536
1.3353236
1.3352943
1.3352655
1.3352373
1.3352096
1.3351826
1.335156
1.33513
1.3351046
1.3350796
1.3350552
1.3350312
1.3350078
1.3349848
1.3349623
1.3349402
1.3349185
1.3348973
1.3348766
1.3348562
1.3348363
1.3348167
1.3347975
1.3347787
1.3347603
1.3347423
1.3347246
1.3347072
1.3346902
1.3346736
1.3346572
1.3346411
1.3346253
1.3346099
1.3345947
1.3345797
1.3345651
1.3345507
1.3345366
1.3345227
1.3345091
1.3344957
1.3344825
1.3344696
1.3344569
1.3344445
1.3344322
1.3344201
1.3344083
1.3343966
1.3343852
1.3343739
1.3343628
1.3343519
1.3343411
1.3343306
1.3343202
1.3343099
1.3342998
1.3342898
1.33428
1.3342704
1.3342609
1.3342515
1.3342423
1.3342331
1.3342242
1.3342153
1.3342066
1.3341979
1.3341894
1.334181
1.3341727
1.3341646
1.3341565
1.3341485
1.3341406
1.3341328
1.3341252
1.3341176
1.3341101
1.3341027
1.3340953
1.3340881
1.3340809
1.3340739
1.3340669
1.3340599
1.3340531
1.3340463
1.3340396
1.334033
1.3340264
1.3340199
1.3340135
1.3340071
1.3340008
1.3339946
1.3339884
1.3339823
1.3339762
1.3339702
1.3339642
1.3339583
1.3339525
1.3339467
1.333941
1.3339353
1.3339296
1.333924
1.3339185
1.333913
1.3339075
1.3339021
1.3338967
1.3338914
1.3338861
1.3338808
1.3338756
1.3338705
1.3338653
1.3338602
1.3338552
1.3338502
1.3338452
1.3338402
1.3338353
1.3338305
1.3338256
1.3338208
1.333816
1.3338113
1.3338066
1.3338019
1.3337972
1.3337926
1.333788
1.3337835
1.3337789
1.3337744
1.3337699
1.3337655
1.3337611
1.3337567
1.3337523
1.333748
1.3337437
1.3337394
1.3337352
1.3337309
1.3337267
1.3337225
1.3337184
1.3337143
1.3337102
1.3337061
1.3337021
1.333698
1.3336941
1.3336901
1.3336861
1.3336822
1.3336783
1.3336744
1.3336706
1.3336668
1.333663
1.3336592
1.3336554
1.3336517
1.333648
1.3336443
1.3336406
1.333637
1.3336333
1.3336297
1.3336262
1.3336226
1.3336191
1.3336156
1.333612
1.3336086
1.3336051
1.3336017
1.3335983
1.3335949
1.3335915
1.3335882
1.3335849
1.3335816
1.3335783
1.333575
1.3335718
1.3335686
1.3335654
1.3335622
1.333559
1.3335559
1.3335528
1.3335497
1.3335466
1.3335435
1.3335405
1.3335375
1.3335345
1.3335316
1.3335286
1.3335257
1.3335228
1.3335199
1.333517
1.3335142
1.3335113
1.3335086
1.3335058
1.3335031
1.3335003
1.3334976
1.3334949
1.3334923
1.3334896
1.333487
1.3334844
1.3334818
1.3334792
1.3334767
1.3334741
1.3334716
1.3334692
1.3334667
1.3334643
1.3334618
1.3334594
1.3334571
1.3334547
1.3334524
1.3334501
1.3334478
1.3334455
1.3334433
1.333441
1.3334388
1.3334366
1.3334345
1.3334323
1.3334302
1.3334281
1.333426
1.3334239
1.3334219
1.3334198
1.3334178
1.3334159
1.3334139
1.333412
1.3334101
1.3334082
1.3334063
1.3334045
1.3334026
1.3334008
1.333399
1.3333973
1.3333955
1.3333938
1.3333921
1.3333904
1.3333887
1.3333871
1.3333855
1.3333839
1.3333823
1.3333807
1.3333792
1.3333776
1.3333761
1.3333747
1.3333732
1.3333718
1.3333703
1.3333689
1.3333676
1.3333662
1.3333648
1.3333635
1.3333622
1.3333609
1.3333597
1.3333584
1.3333572
1.333356
1.3333548
1.3333536
1.3333524
1.3333513
1.3333502
1.3333491
1.333348
1.3333469
1.3333459
1.3333448
1.3333438
1.3333428
1.3333418
1.3333408
1.3333399
1.3333389
1.333338
1.3333371
1.3333362
1.3333354
1.3333345
1.3333336
1.3333328
1.333332
1.3333312
1.3333304
1.3333297
1.3333289
1.3333282
1.3333275
1.3333267
1.333326
1.3333253
1.3333247
1.333324
1.3333234
1.3333227
1.3333221
1.3333215
1.3333209
1.3333203
1.3333197
1.3333192
1.3333186
1.3333181
1.3333176
1.333317
1.3333165
1.333316
1.3333155
1.3333151
1.3333146
1.3333141
1.3333137
1.3333133
1.3333129
1.3333125
1.3333121
1.3333117
1.3333113
1.3333109
1.3333105
1.3333102
1.3333098
1.3333095
1.3333091
1.3333088
1.3333085
1.3333082
1.3333079
1.3333076
1.3333073
1.333307
1.3333067
1.3333064
1.3333062
1.3333059
1.3333057
1.3333054
1.3333052
1.333305
1.3333047
1.3333045
1.3333043
1.3333041
1.3333039
1.3333037
1.3333035
1.3333033
1.3333031
1.3333029
1.3333028
1.3333026
1.3333024
1.3333023
1.3333021
1.3333019
1.3333018
1.3333016
1.3333015
1.3333014
1.3333012
1.3333011
1.333301
1.3333009
1.3333007
1.3333006
1.3333005
1.3333004
1.3333003
1.3333002
1.3333001
1.3333
1.3332999
1.3332998
1.3332997
1.3332996
1.3332995
1.3332995
1.3332994
1.3332993
1.3332992
1.3332991
1.3332991
1.333299
1.3332989
1.3332989
1.3332988
1.3332988
1.3332987
1.3332987
1.3332986
1.3332986
1.3332985
1.3332985
1.3332984
1.3332984
1.3332983
1.3332983
1.3332983
1.3332982
1.3332982
1.3332982
1.3332981
1.3332981
1.3332981
1.3332981
1.333298
1.333298
1.333298
1.333298
1.3332979
1.3332979
1.3332979
1.3332979
1.3332979
1.3332979
1.3332979
1.3332979
1.3332978
1.3332978
1.3332978
1.3332978
1.3332978
1.3332978
1.3332978
1.3332978
1.3332978
1.3332978
1.3332978
1.3332978
1.3332978
1.3332978
1.3332978
1.3332978
1.3332978
1.3332978
1.3332978
1.3332978
1.3332978
1.3332978
1.3332978
1.3332978
1.3332978
1.3332978
1.3332978
1.3332978
1.3332978
1.3332978
1.3332978
1.3332978
1.3332978
1.3332978
1.3332978
1.3332978
1.3332978
1.3332978
1.3332978
1.3332978
1.3332978
1.3332978
1.3332979
1.3332979
1.3332979
1.3332979
1.3332979
1.3332979
1.3332979
1.3332979
1.3332979
1.3332979
1.3332979
1.3332979
1.3332979
1.3332979
1.3332979
1.3332979
1.3332979
1.3332979
1.3332979
1.3332979
1.3332979
1.3332979
1.3332979
1.3332979
1.3332979
1.333298
1.333298
1.333298
1.333298
1.333298
1.333298
1.3332979
1.3332979
1.3332979
1.333298
1.333298
1.333298
1.333298
1.333298
1.333298
1.333298
1.333298
1.333298
1.333298
1.333298
1.333298
1.333298
1.333298
1.333298
1.333298
1.333298
1.333298
1.333298
1.333298
1.333298
1.333298
1.333298
1.333298
1.333298
1.333298
1.333298
1.333298
1.3332981
1.3332981
1.3332981
1.3332981
1.3332981
1.3332981
1.3332981
1.3332981
1.3332981
1.3332981
1.3332981
1.3332981
1.3332981
1.3332981
1.3332981
1.3332981
1.3332981
1.3332981
1.3332981
1.3332981
1.3332981
1.3332981
1.3332981
1.3332981
1.3332981
1.3332981
1.3332981
1.3332982
1.3332982
1.3332982
1.3332982
1.3332982
1.3332982
1.3332982
1.3332982
1.3332982
1.3332982
1.3332982
1.3332982
1.3332982
1.3332982
1.3332982
1.3332982
1.3332982
1.3332982
1.3332982
1.3332982
1.3332982
1.3332982
1.3332982
1.3332982
1.3332982
1.3332982
1.3332982
1.3332982
1.3332982
1.3332982
1.3332982
1.3332982
1.3332982
1.3332982
1.3332982
1.3332981
1.3332981
1.3332981
1.3332981
1.3332981
1.3332981
1.3332981
1.3332981
1.3332981
1.3332981
1.3332981
1.3332981
1.3332981
1.3332981
1.3332981
1.3332981
1.3332981
1.3332981
1.3332981
1.3332981
1.3332981
1.3332981
1.3332981
1.3332981
1.3332981
1.3332981
1.3332981
1.3332981
1.3332981
1.3332981
1.3332981
1.3332981
1.3332981
1.3332981
1.3332981
1.3332981
1.3332981
1.3332981
1.333298
1.333298
1.333298
1.333298
1.333298
1.333298
1.333298
1.333298
1.333298
1.333298
1.333298
1.333298
1.333298
1.333298
1.333298
1.333298
1.333298
1.333298
1.333298
1.333298
1.333298
1.333298
1.333298
1.333298
1.333298
1.333298
1.333298
1.333298
1.333298
1.333298
1.333298
1.333298
1.333298
1.333298
1.333298
1.333298
1.333298
1.333298
1.333298
1.333298
1.3332979
1.3332979
1.3332979
1.3332979
1.3332979
1.3332979
1.3332979
1.3332979
1.3332979
1.3332979
1.3332979
1.3332979
1.3332979
1.3332979
1.3332979
1.3332979
1.3332979
1.3332979
1.3332979
1.3332979
1.3332979
1.3332979
1.3332979
1.3332979
1.333298
1.333298
1.333298
1.333298
1.333298
1.333298
1.333298
1.333298
1.333298
1.333298
1.333298
1.333298
1.333298
1.333298
1.333298
1.333298
1.333298
1.333298
1.333298
1.333298
1.333298
1.333298
1.333298
1.333298
1.333298
1.333298
1.333298
1.333298
1.333298
1.333298
1.333298
1.333298
1.333298
1.333298
1.333298
1.333298
1.333298
1.333298
1.333298
1.333298
1.333298
1.333298
1.333298
1.333298
1.333298
1.333298
1.333298
1.333298
1.333298
1.333298
1.333298
1.333298
1.333298
1.333298
1.333298
1.333298
1.333298
1.333298
1.333298
1.333298
1.333298
1.333298
1.333298
1.333298
1.333298
1.333298
1.333298
1.333298
1.333298
1.333298
1.333298
1.333298
1.333298
1.333298
1.333298
1.333298
1.333298
1.333298
1.333298
1.333298
1.333298
1.333298
1.3332979
1.3332979
1.3332979
1.3332979
1.3332979
1.3332979
1.3332979
1.3332979
1.3332979
1.3332979
1.3332979
1.3332979
1.3332979
1.3332979
1.3332979
1.3332979
1.3332979
1.3332979
1.3332979
1.3332979
1.3332979
1.3332979
1.3332979
1.3332979
1.3332979
1.3332979
1.3332979
1.3332979
1.3332979
1.3332979
1.3332979
1.3332979
1.3332979
1.3332979
1.3332979
1.3332979
1.3332978
1.3332978
1.3332978
1.3332978
1.3332978
1.3332978
1.3332978
1.3332978
1.3332978
1.3332978
1.3332978
1.3332978
1.3332978
1.3332978
1.3332978
1.3332978
1.3332978
1.3332978
1.3332978
1.3332978
1.3332978
1.3332978
1.3332978
1.3332978
1.3332978
1.3332978
1.3332978
1.3332978
1.3332978
1.3332978
1.3332978
1.3332978
1.3332978
1.3332978
1.3332978
1.3332978
1.3332978
1.3332978
1.3332978
1.3332978
1.3332978
1.3332978
1.3332978
1.3332978
1.3332978
1.3332978
1.3332978
1.3332978
1.3332978
1.3332978
1.3332978
1.3332978
1.3332978
1.3332978
1.3332978
1.3332977
1.3332977
1.3332977
1.3332977
1.3332977
1.3332977
1.3332977
1.3332977
1.3332977
1.3332977
1.3332977
1.3332977
1.3332977
1.3332977
1.3332977
1.3332977
1.3332977
1.3332977
1.3332977
1.3332977
1.3332977
1.3332977
1.3332977
1.3332977
1.3332977
1.3332977
1.3332977
1.3332977
1.3332977
1.3332977
1.3332976
1.3332976
1.3332976
1.3332976
1.3332976
1.3332976
1.3332976
1.3332976
1.3332976
1.3332976
1.3332976
1.3332976
1.3332976
1.3332976
1.3332976
1.3332976
1.3332976
1.3332976
1.3332976
1.3332976
1.3332976
1.3332976
1.3332976
1.3332976
1.3332976
1.3332976
1.3332976
1.3332976
1.3332976
1.3332975
1.3332975
1.3332975
1.3332975
1.3332975
1.3332975
1.3332975
1.3332975
1.3332975
1.3332975
1.3332975
1.3332975
1.3332975
1.3332975
1.3332975
1.3332975
1.3332975
1.3332975
1.3332975
1.3332975
1.3332975
1.3332975
1.3332975
1.3332975
1.3332975
1.3332975
1.3332974
1.3332974
1.3332974
1.3332974
1.3332974
1.3332974
1.3332974
1.3332974
1.3332974
1.3332974
1.3332974
1.3332974
1.3332974
1.3332974
1.3332974
1.3332974
1.3332974
1.3332974
1.3332974
1.3332974
1.3332974
1.3332974
1.3332974
1.3332974
1.3332974
1.3332973
1.3332973
1.3332973
1.3332973
1.3332973
1.3332973
1.3332973
1.3332973
1.3332973
1.3332973
1.3332973
1.3332973
1.3332973
1.3332973
1.3332973
1.3332973
1.3332973
1.3332973
1.3332973
1.3332973
1.3332972
1.3332972
1.3332972
1.3332972
1.3332972
1.3332972
1.3332972
1.3332972
1.3332972
1.3332972
1.3332972
1.3332972
1.3332972
1.3332972
1.3332972
1.3332972
1.3332972
1.3332972
1.3332972
1.3332972
1.3332971
1.3332971
1.3332971
1.3332971
1.3332971
1.3332971
1.3332971
1.3332971
1.3332971
1.3332971
1.3332971
1.3332971
1.3332971
1.3332971
1.3332971
1.3332971
1.3332971
1.3332971
1.3332971
1.3332971
1.3332971
1.3332971
1.3332971
1.3332971
1.333297
1.333297
1.333297
1.333297
1.333297
1.333297
1.333297
1.333297
1.333297
1.333297
1.333297
1.333297
1.333297
1.333297
1.333297
1.333297
1.333297
1.333297
1.333297
1.333297
1.333297
1.333297
1.333297
1.333297
1.333297
1.333297
1.333297
1.333297
1.333297
1.333297
1.3332969
1.3332969
1.3332969
1.3332969
1.3332969
1.3332969
1.3332969
1.3332969
1.3332969
1.3332969
1.3332969
1.3332969
1.3332969
1.3332969
1.3332969
1.3332969
1.3332969
1.3332969
1.3332969
1.3332969
1.3332969
1.3332969
1.3332969
1.3332969
1.3332969
1.3332969
1.3332969
1.3332968
1.3332968
1.3332968
1.3332968
1.3332968
1.3332968
1.3332968
1.3332968
1.3332968
1.3332968
1.3332968
1.3332968
1.3332968
1.3332968
1.3332968
1.3332968
1.3332968
1.3332968
1.3332967
1.3332967
1.3332967
1.3332967
1.3332967
1.3332967
1.3332967
1.3332967
1.3332967
1.3332967
1.3332967
1.3332967
1.3332967
1.3332967
1.3332967
1.3332967
1.3332966
1.3332966
1.3332966
1.3332966
1.3332966
1.3332966
1.3332966
1.3332966
1.3332966
1.3332966
1.3332966
1.3332966
1.3332965
1.3332965
1.3332965
1.3332965
1.3332965
1.3332965
1.3332965
1.3332965
1.3332965
1.3332965
1.3332965
1.3332964
1.3332964
1.3332964
1.3332964
1.3332964
1.3332964
1.3332964
1.3332964
1.3332964
1.3332964
1.3332964
1.3332964
1.3332963
1.3332963
1.3332963
1.3332963
1.3332963
1.3332963
1.3332963
1.3332963
1.3332963
1.3332963
1.3332963
1.3332963
1.3332963
1.3332962
1.3332962
1.3332962
1.3332962
1.3332962
1.3332962
1.3332962
1.3332962
1.3332962
1.3332962
1.3332962
1.3332962
1.3332962
1.3332962
1.3332961
1.3332961
1.3332961
1.3332961
1.3332961
1.3332961
1.3332961
1.3332961
1.3332961
1.3332961
1.3332961
1.3332961
1.3332961
1.3332961
1.3332961
1.3332961
1.3332961
1.3332961
1.333296
1.333296
1.333296
1.333296
1.333296
1.333296
1.333296
1.333296
1.333296
1.333296
1.333296
1.333296
1.333296
1.333296
1.333296
1.333296
1.333296
1.333296
1.3332959
1.3332959
1.3332959
1.3332959
1.3332959
1.3332959
1.3332959
1.3332959
1.3332959
1.3332959
1.3332959
1.3332959
1.3332959
1.3332959
1.3332959
1.3332959
1.3332959
1.3332959
1.3332958
1.3332958
1.3332958
1.3332958
1.3332958
1.3332958
1.3332958
1.3332958
1.3332958
1.3332958
1.3332958
1.3332958
1.3332958
1.3332958
1.3332958
1.3332958
1.3332957
1.3332957
1.3332957
1.3332957
1.3332957
1.3332957
1.3332957
1.3332957
1.3332957
1.3332957
1.3332957
1.3332957
1.3332956
1.3332956
1.3332956
1.3332956
1.3332956
1.3332956
1.3332956
1.3332956
1.3332956
1.3332956
1.3332956
1.3332956
1.3332955
1.3332955
1.3332955
1.3332955
1.3332955
1.3332955
1.3332955
1.3332955
1.3332955
1.3332955
1.3332955
1.3332954
1.3332954
1.3332954
1.3332954
1.3332954
1.3332954
1.3332954
1.3332954
1.3332954
1.3332954
1.3332954
1.3332953
1.3332953
1.3332953
1.3332953
1.3332953
1.3332953
1.3332953
1.3332953
1.3332953
1.3332953
1.3332953
1.3332952
1.3332952
1.3332952
1.3332952
1.3332952
1.3332952
1.3332952
1.3332952
1.3332952
1.3332952
1.3332952
1.3332952
1.3332951
1.3332951
1.3332951
1.3332951
1.3332951
1.3332951
1.3332951
1.3332951
1.3332951
1.3332951
1.3332951
1.333295
1.333295
1.333295
1.333295
1.333295
1.333295
1.333295
1.333295
1.333295
1.333295
1.333295
1.333295
1.333295
1.3332949
1.3332949
1.3332949
1.3332949
1.3332949
1.3332949
1.3332949
1.3332949
1.3332949
1.3332948
1.3332948
1.3332948
1.3332948
1.3332948
1.3332948
1.3332948
1.3332948
1.3332948
1.3332948
1.3332948
1.3332948
1.3332948
1.3332948
1.3332947
1.3332947
1.3332947
1.3332947
1.3332947
1.3332947
1.3332947
1.3332947
1.3332947
1.3332947
1.3332946
1.3332946
1.3332946
1.3332946
1.3332946
1.3332946
1.3332946
1.3332946
1.3332946
1.3332946
1.3332946
1.3332946
1.3332945
1.3332945
1.3332945
1.3332945
1.3332945
1.3332945
1.3332945
1.3332945
1.3332945
1.3332945
1.3332945
1.3332944
1.3332944
1.3332944
1.3332944
1.3332944
1.3332944
1.3332944
1.3332944
1.3332944
1.3332944
1.3332943
1.3332943
1.3332943
1.3332943
1.3332943
1.3332943
1.3332943
1.3332943
1.3332943
1.3332942
1.3332942
1.3332942
1.3332942
1.3332942
1.3332942
1.3332942
1.3332942
1.3332942
1.3332942
1.3332942
1.3332941
1.3332941
1.3332941
1.3332941
1.3332941
1.3332941
1.3332941
1.3332941
1.3332941
1.3332941
1.333294
1.333294
1.333294
1.333294
1.333294
1.333294
1.333294
1.333294
1.333294
1.3332939
1.3332939
1.3332939
1.3332939
1.3332939
1.3332939
1.3332939
1.3332939
1.3332939
1.3332938
1.3332938
1.3332938
1.3332938
1.3332938
1.3332938
1.3332938
1.3332938
1.3332938
1.3332938
1.3332937
1.3332937
1.3332937
1.3332937
1.3332937
1.3332937
1.3332937
1.3332937
1.3332937
1.3332937
1.3332936
1.3332936
1.3332936
1.3332936
1.3332936
1.3332936
1.3332936
1.3332936
1.3332936
1.3332935
1.3332935
1.3332935
1.3332935
1.3332935
1.3332935
1.3332935
1.3332935
1.3332935
1.3332934
1.3332934
1.3332934
1.3332934
1.3332934
1.3332934
1.3332934
1.3332934
1.3332934
1.3332934
1.3332933
1.3332933
1.3332933
1.3332933
1.3332933
1.3332933
1.3332933
1.3332932
1.3332932
1.3332932
1.3332932
1.3332932
1.3332932
1.3332932
1.3332932
1.3332932
1.3332932
1.3332931
1.3332931
1.3332931
1.3332931
1.3332931
1.3332931
1.3332931
1.3332931
1.333293
1.333293
1.333293
1.333293
1.333293
1.333293
1.333293
1.3332929
1.3332929
1.3332929
1.3332929
1.3332929
1.3332929
1.3332929
1.3332929
1.3332928
1.3332928
1.3332928
1.3332928
1.3332928
1.3332928
1.3332928
1.3332927
1.3332927
1.3332927
1.3332927
1.3332927
1.3332927
1.3332927
1.3332926
1.3332926
1.3332926
1.3332926
1.3332926
1.3332926
1.3332926
1.3332925
1.3332925
1.3332925
1.3332925
1.3332925
1.3332925
1.3332925
1.3332924
1.3332924
1.3332924
1.3332924
1.3332924
1.3332924
1.3332923
1.3332923
1.3332923
1.3332923
1.3332923
1.3332923
1.3332923
1.3332922
1.3332922
1.3332922
1.3332922
1.3332922
1.3332922
1.3332922
1.3332921
1.3332921
1.3332921
1.3332921
1.3332921
1.3332921
1.333292
1.333292
1.333292
1.333292
1.333292
1.333292
1.333292
1.3332919
1.3332919
1.3332919
1.3332919
1.3332919
1.3332919
1.3332919
1.3332918
1.3332918
1.3332918
1.3332918
1.3332918
1.3332918
1.3332918
1.3332917
1.3332917
1.3332917
1.3332917
1.3332917
1.3332917
1.3332917
1.3332916
1.3332916
1.3332916
1.3332916
1.3332916
1.3332916
1.3332916
1.3332915
1.3332915
1.3332915
1.3332915
1.3332915
1.3332915
1.3332915
1.3332914
1.3332914
1.3332914
1.3332914
1.3332914
1.3332914
1.3332914
1.3332913
1.3332913
1.3332913
1.3332913
1.3332913
1.3332913
1.3332913
1.3332912
1.3332912
1.3332912
1.3332912
1.3332912
1.3332912
1.3332912
1.3332911
1.3332911
1.3332911
1.3332911
1.3332911
1.3332911
1.3332911
1.333291
1.333291
1.333291
1.333291
1.333291
1.333291
1.3332909
1.3332909
1.3332909
1.3332909
1.3332909
1.3332909
1.3332909
1.3332908
1.3332908
1.3332908
1.3332908
1.3332908
1.3332907
1.3332907
1.3332907
1.3332907
1.3332907
1.3332907
1.3332907
1.3332906
1.3332906
1.3332906
1.3332906
1.3332906
1.3332906
1.3332905
1.3332905
1.3332905
1.3332905
1.3332905
1.3332904
1.3332904
1.3332904
1.3332904
1.3332904
1.3332903
1.3332903
1.3332903
1.3332903
1.3332903
1.3332903
1.3332902
1.3332902
1.3332902
1.3332902
1.3332902
1.3332901
1.3332901
1.3332901
1.3332901
1.3332901
1.3332901
1.33329
1.33329
1.33329
1.33329
1.33329
1.33329
1.3332899
1.3332899
1.3332899
1.3332899
1.3332899
1.3332898
1.3332898
1.3332898
1.3332898
1.3332898
1.3332897
1.3332897
1.3332897
1.3332897
1.3332897
1.3332896
1.3332896
1.3332896
1.3332896
1.3332896
1.3332895
1.3332895
1.3332895
1.3332895
1.3332895
1.3332894
1.3332894
1.3332894
1.3332894
1.3332894
1.3332893
1.3332893
1.3332893
1.3332893
1.3332893
1.3332892
1.3332892
1.3332892
1.3332892
1.3332892
1.3332891
1.3332891
1.3332891
1.3332891
1.3332891
1.333289
1.333289
1.333289
1.333289
1.333289
1.3332889
1.3332889
1.3332889
1.3332889
1.3332888
1.3332888
1.3332888
1.3332888
1.3332888
1.3332887
1.3332887
1.3332887
1.3332887
1.3332887
1.3332886
1.3332886
1.3332886
1.3332886
1.3332885
1.3332885
1.3332885
1.3332885
1.3332885
1.3332884
1.3332884
1.3332884
1.3332884
1.3332884
1.3332883
1.3332883
1.3332883
1.3332883
1.3332882
1.3332882
1.3332882
1.3332882
1.3332882
1.3332881
1.3332881
1.3332881
1.3332881
1.333288
1.333288
1.333288
1.333288
1.333288
1.3332879
1.3332879
1.3332879
1.3332879
1.3332878
1.3332878
1.3332878
1.3332878
1.3332877
1.3332877
1.3332877
1.3332877
1.3332877
1.3332876
1.3332876
1.3332876
1.3332876
1.3332875
1.3332875
1.3332875
1.3332875
1.3332874
1.3332874
1.3332874
1.3332874
1.3332874
1.3332873
1.3332873
1.3332873
1.3332873
1.3332872
1.3332872
1.3332872
1.3332872
1.3332871
1.3332871
1.3332871
1.3332871
1.333287
1.333287
1.333287
1.333287
1.3332869
1.3332869
1.3332869
1.3332869
1.3332868
1.3332868
1.3332868
1.3332868
1.3332867
1.3332867
1.3332867
1.3332867
1.3332866
1.3332866
1.3332866
1.3332866
1.3332865
1.3332865
1.3332865
1.3332865
1.3332864
1.3332864
1.3332864
1.3332863
1.3332863
1.3332863
1.3332863
1.3332862
1.3332862
1.3332862
1.3332862
1.3332861
1.3332861
1.3332861
1.3332861
1.333286
1.333286
1.333286
1.3332859
1.3332859
1.3332859
1.3332858
1.3332858
1.3332858
1.3332858
1.3332857
1.3332857
1.3332857
1.3332856
1.3332856
1.3332856
1.3332855
1.3332855
1.3332855
1.3332855
1.3332854
1.3332854
1.3332854
1.3332853
1.3332853
1.3332853
1.3332853
1.3332852
1.3332852
1.3332852
1.3332851
1.3332851
1.3332851
1.333285
1.333285
1.333285
1.3332849
1.3332849
1.3332849
1.3332849
1.3332848
1.3332848
1.3332848
1.3332847
1.3332847
1.3332847
1.3332846
1.3332846
1.3332846
1.3332845
1.3332845
1.3332845
1.3332844
1.3332844
1.3332844
1.3332843
1.3332843
1.3332843
1.3332842
1.3332842
1.3332842
1.3332841
1.3332841
1.3332841
1.333284
1.333284
1.333284
1.3332839
1.3332839
1.3332839
1.3332838
1.3332838
1.3332838
1.3332837
1.3332837
1.3332837
1.3332836
1.3332836
1.3332836
1.3332835
1.3332835
1.3332835
1.3332834
1.3332834
1.3332834
1.3332833
1.3332833
1.3332832
1.3332832
1.3332832
1.3332831
1.3332831
1.3332831
1.333283
1.333283
1.3332829
1.3332829
1.3332829
1.3332828
1.3332828
1.3332828
1.3332827
1.3332827
1.3332826
1.3332826
1.3332826
1.3332825
1.3332825
1.3332824
1.3332824
1.3332824
1.3332823
1.3332823
1.3332823
1.3332822
1.3332822
1.3332821
1.3332821
1.3332821
1.333282
1.333282
1.3332819
1.3332819
1.3332819
1.3332818
1.3332818
1.3332817
1.3332817
1.3332817
1.3332816
1.3332816
1.3332815
1.3332815
1.3332814
1.3332814
1.3332814
1.3332813
1.3332813
1.3332812
1.3332812
1.3332812
1.3332811
1.3332811
1.333281
1.333281
1.3332809
1.3332809
1.3332808
1.3332808
1.3332807
1.3332807
1.3332807
1.3332806
1.3332806
1.3332805
1.3332805
1.3332805
1.3332804
1.3332804
1.3332803
1.3332803
1.3332802
1.3332802
1.3332801
1.3332801
1.33328
1.33328
1.3332799
1.3332799
1.3332798
1.3332798
1.3332797
1.3332797
1.3332796
1.3332796
1.3332795
1.3332795
1.3332794
1.3332794
1.3332793
1.3332793
1.3332792
1.3332792
1.3332791
1.3332791
1.333279
1.333279
1.3332789
1.3332789
1.3332788
1.3332788
1.3332787
1.3332787
1.3332786
1.3332786
1.3332785
1.3332785
1.3332784
1.3332784
1.3332783
1.3332783
1.3332782
1.3332782
1.3332781
1.3332781
1.333278
1.3332779
1.3332779
1.3332778
1.3332778
1.3332777
1.3332777
1.3332776
1.3332776
1.3332775
1.3332774
1.3332774
1.3332773
1.3332773
1.3332772
1.3332772
1.3332771
1.333277
1.333277
1.3332769
1.3332769
1.3332768
1.3332767
1.3332767
1.3332766
1.3332766
1.3332765
1.3332764
1.3332764
1.3332763
1.3332763
1.3332762
1.3332761
1.3332761
1.333276
1.3332759
1.3332759
1.3332758
1.3332758
1.3332757
1.3332756
1.3332756
1.3332755
1.3332754
1.3332754
1.3332753
1.3332752
1.3332752
1.3332751
1.333275
1.333275
1.3332749
1.3332748
1.3332748
1.3332747
1.3332746
1.3332746
1.3332745
1.3332744
1.3332744
1.3332743
1.3332742
1.3332741
1.3332741
1.333274
1.3332739
1.3332739
1.3332738
1.3332737
1.3332736
1.3332736
1.3332735
1.3332734
1.3332733
1.3332733
1.3332732
1.3332731
1.333273
1.333273
1.3332729
1.3332728
1.3332727
1.3332727
1.3332726
1.3332725
1.3332724
1.3332723
1.3332723
1.3332722
1.3332721
1.333272
1.3332719
1.3332718
1.3332718
1.3332717
1.3332716
1.3332715
1.3332714
1.3332713
1.3332713
1.3332712
1.3332711
1.333271
1.3332709
1.3332709
1.3332708
1.3332707
1.3332706
1.3332705
1.3332704
1.3332703
1.3332702
1.3332701
1.33327
1.33327
1.3332699
1.3332698
1.3332697
1.3332696
1.3332695
1.3332694
1.3332693
1.3332692
1.3332691
1.333269
1.3332689
1.3332688
1.3332687
1.3332686
1.3332685
1.3332684
1.3332683
1.3332682
1.3332681
1.333268
1.3332679
1.3332678
1.3332677
1.3332676
1.3332675
1.3332674
1.3332673
1.3332672
1.3332671
1.333267
1.3332668
1.3332667
1.3332666
1.3332665
1.3332664
1.3332663
1.3332661
1.333266
1.3332659
1.3332658
1.3332657
1.3332656
1.3332654
1.3332653
1.3332652
1.3332651
1.333265
1.3332648
1.3332647
1.3332646
1.3332645
1.3332643
1.3332642
1.3332641
1.333264
1.3332638
1.3332637
1.3332636
1.3332634
1.3332633
1.3332632
1.333263
1.3332629
1.3332627
1.3332626
1.3332624
1.3332623
1.3332621
1.333262
1.3332619
1.3332617
1.3332616
1.3332614
1.3332613
1.3332612
1.333261
1.3332609
1.3332607
1.3332606
1.3332604
1.3332603
1.3332601
1.33326
1.3332598
1.3332596
1.3332595
1.3332593
1.3332591
1.333259
1.3332588
1.3332586
1.3332585
1.3332583
1.3332581
1.3332579
1.3332578
1.3332576
1.3332574
1.3332572
1.333257
1.3332568
1.3332567
1.3332565
1.3332563
1.3332561
1.3332559
1.3332557
1.3332555
1.3332553
1.3332551
1.3332549
1.3332547
1.3332545
1.3332543
1.3332541
1.3332539
1.3332537
1.3332535
1.3332532
1.333253
1.3332528
1.3332526
1.3332524
1.3332521
1.3332519
1.3332517
1.3332514
1.3332512
1.333251
1.3332507
1.3332505
1.3332502
1.3332499
1.3332497
1.3332494
1.3332492
1.3332489
1.3332486
1.3332483
1.3332481
1.3332478
1.3332475
1.3332472
1.333247
1.3332467
1.3332464
1.3332461
1.3332458
1.3332455
1.3332452
1.3332449
1.3332446
1.3332443
1.333244
1.3332437
1.3332434
1.333243
1.3332427
1.3332423
1.333242
1.3332416
1.3332413
1.3332409
1.3332405
1.3332401
1.3332398
1.3332394
1.333239
1.3332386
1.3332382
1.3332378
1.3332374
1.333237
1.3332366
1.3332362
1.3332357
1.3332353
1.3332348
1.3332344
1.3332339
1.3332335
1.333233
1.3332325
1.333232
1.3332315
1.333231
1.3332305
1.33323
1.3332295
1.333229
1.3332285
1.3332279
1.3332274
1.3332269
1.3332263
1.3332258
1.3332252
1.3332247
1.3332241
1.3332236
1.333223
1.3332225
1.333222
1.3332214
1.3332209
1.3332204
1.3332199
1.3332195
1.333219
1.3332186
1.3332182
1.3332178
1.3332175
1.3332172
1.3332169
1.3332167
1.3332165
1.3332163
1.3332162
1.3332161
1.333216
1.333216
1.333216
1.333216
1.3332161
1.3332161
1.3332163
1.3332164
1.3332166
1.3332167
1.3332168
1.3332169
1.333217
1.333217
1.333217
1.333217
1.333217
1.3332169
1.3332166
1.3332161
1.3332154
1.3332147
1.3332139
1.333213
1.333212
1.333211
1.3332099
1.3332087
1.3332075
1.3332062
1.3332049
1.3332036
1.3332023
1.333201
1.3331998
1.3331986
1.3331974
1.3331964
1.3331954
1.3331945
1.3331936
1.3331929
1.3331923
1.3331918
1.3331914
1.3331911
1.3331909
1.3331908
1.3331907
1.3331904
1.3331899
1.3331887
1.3331858
1.3331786
1.3331609
1.3331167
1.3330068
1.3327315
1.3320523
1.3303886
1.3277043
1.3243931
1.3205378
1.3162529
1.3116726
1.3069383
1.3021877
1.2975457
1.2931182
1.2889879
1.2852134
1.2818297
1.2788506
1.2762722
1.2740766
1.2722358
1.2707152
1.269477
1.2684829
1.2676954
1.2670798
1.266605
1.2662435
1.2659719
1.2657706
1.2656236
1.2655178
1.2654431
1.2653912
1.2653562
1.2653332
1.2653188
1.2653103
1.2653059
1.2653041
1.2653038
1.2653041
1.2653055
1.2653086
1.2653117
1.2653146
1.2653172
1.2653197
1.265322
1.2653241
1.2653261
1.265328
1.2653298
1.2653315
1.2653331
1.2653346
1.2653361
1.2653375
1.2653389
1.2653404
1.2653418
1.2653433
1.2653449
1.2653465
1.2653482
1.26535
1.2653518
1.2653537
1.2653557
1.2653577
1.2653598
1.2653619
1.2653641
1.2653662
1.2653684
1.2653705
1.2653726
1.2653746
1.2653766
1.2653785
1.2653804
1.2653821
1.2653838
1.2653854
1.265387
1.2653885
1.2653898
1.2653912
1.2653924
1.2653936
1.2653947
1.2653958
1.2653968
1.2653978
1.2653987
1.2653996
1.2654004
1.2654012
1.265402
1.2654028
1.2654035
1.2654042
1.2654049
1.2654056
1.2654062
1.2654069
1.2654075
1.2654081
1.2654087
1.2654092
1.2654098
1.2654103
1.2654109
1.2654114
1.2654119
1.2654124
1.2654129
1.2654134
1.2654139
1.2654144
1.2654148
1.2654153
1.2654157
1.2654162
1.2654166
1.2654171
1.2654175
1.2654179
1.2654183
1.2654187
1.2654191
1.2654195
1.2654199
1.2654203
1.2654206
1.265421
1.2654214
1.2654217
1.2654221
1.2654225
1.2654228
1.2654231
1.2654235
1.2654238
1.2654241
1.2654245
1.2654248
1.2654251
1.2654254
1.2654257
1.265426
1.2654263
1.2654266
1.2654269
1.2654272
1.2654275
1.2654277
1.265428
1.2654283
1.2654286
1.2654288
1.2654291
1.2654293
1.2654296
1.2654299
1.2654301
1.2654304
1.2654306
1.2654309
1.2654311
1.2654314
1.2654316
1.2654318
1.2654321
1.2654323
1.2654325
1.2654328
1.265433
1.2654332
1.2654334
1.2654336
1.2654338
1.2654341
1.2654343
1.2654345
1.2654347
1.2654349
1.2654351
1.2654353
1.2654355
1.2654357
1.2654359
1.2654361
1.2654363
1.2654365
1.2654367
1.2654369
1.265437
1.2654372
1.2654374
1.2654376
1.2654378
1.2654379
1.2654381
1.2654383
1.2654385
1.2654386
1.2654388
1.265439
1.2654391
1.2654393
1.2654395
1.2654396
1.2654398
1.2654399
1.2654401
1.2654403
1.2654404
1.2654406
1.2654407
1.2654409
1.265441
1.2654412
1.2654413
1.2654415
1.2654416
1.2654418
1.2654419
1.265442
1.2654422
1.2654423
1.2654425
1.2654426
1.2654427
1.2654429
1.265443
1.2654432
1.2654433
1.2654434
1.2654436
1.2654437
1.2654438
1.265444
1.2654441
1.2654442
1.2654443
1.2654445
1.2654446
1.2654447
1.2654448
1.265445
1.2654451
1.2654452
1.2654453
1.2654454
1.2654455
1.2654456
1.2654458
1.2654459
1.265446
1.2654461
1.2654462
1.2654463
1.2654465
1.2654466
1.2654467
1.2654468
1.2654469
1.265447
1.2654471
1.2654472
1.2654473
1.2654474
1.2654475
1.2654477
1.2654478
1.2654479
1.265448
1.2654481
1.2654482
1.2654483
1.2654484
1.2654485
1.2654486
1.2654486
1.2654487
1.2654488
1.2654489
1.265449
1.2654491
1.2654492
1.2654493
1.2654494
1.2654495
1.2654496
1.2654497
1.2654498
1.2654499
1.26545
1.2654501
1.2654502
1.2654502
1.2654503
1.2654504
1.2654505
1.2654506
1.2654507
1.2654508