/*--------------------------------*- C++ -*----------------------------------*\
  =========                 |
  \\      /  F ield         | OpenFOAM: The Open Source CFD Toolbox
   \\    /   O peration     | Website:  https://openfoam.org
    \\  /    A nd           | Version:  7
     \\/     M anipulation  |
\*---------------------------------------------------------------------------*/
FoamFile
{
    version     2.0;
    format      ascii;
    class       volScalarField;
    location    "0.0016";
    object      Uy;
}
// * * * * * * * * * * * * * * * * * * * * * * * * * * * * * * * * * * * * * //

dimensions      [0 1 -1 0 0 0 0];

internalField   nonuniform List<scalar> 
5000
(
-2.4439784e-16
-3.1783003e-16
0
0
1.4480724e-16
-1.4948948e-31
-1.2940683e-16
0
0
1.4451068e-16
2.8574725e-16
-1.4036446e-16
-1.3863253e-16
1.3807767e-16
0
1.3721082e-16
9.9994061e-46
-1.3454355e-16
0
-1.3232673e-16
1.3111965e-16
1.2991424e-16
-2.5743988e-16
1.2752011e-16
1.2631459e-16
1.0311671e-30
-1.2389727e-16
-1.2268572e-16
2.4294447e-16
-2.0849274e-30
2.0807545e-30
-1.1782314e-16
-2.3320926e-16
2.3077078e-16
-1.9793174e-30
9.8229262e-30
3.8740222e-30
-2.2101085e-16
2.1857149e-16
2.1613324e-16
-2.1369655e-16
7.2653523e-30
2.0882963e-16
-1.0320015e-16
-3.059615e-16
1.0077609e-16
9.9567158e-17
6.737339e-30
1.9431329e-16
0
-9.4757487e-17
-1.3296066e-32
9.2371542e-17
-1.8236821e-16
3.1463062e-30
1.7764287e-16
-8.7646659e-17
2.9862409e-30
8.5311339e-17
0
-8.2996449e-17
-2.7914849e-30
-2.293737e-32
-7.9566143e-17
7.8434739e-17
-2.7026463e-30
-7.6191175e-17
7.5079401e-17
7.3974551e-17
-7.2876807e-17
-7.1786351e-17
7.0703358e-17
6.9628e-17
-1.3712089e-16
-6.7500861e-17
6.6449403e-17
0
-6.4371491e-17
9.0019137e-33
6.2327907e-17
-6.1319342e-17
1.7143911e-32
-1.6862412e-32
-5.8348152e-17
-5.737634e-17
-1.964144e-30
5.5461296e-17
0
5.3585073e-17
5.4630922e-30
1.8090593e-30
-5.0845248e-17
-4.9952196e-17
9.8138777e-17
3.3355563e-30
-4.7334798e-17
0
0
4.4811422e-17
3.050762e-30
-8.6364278e-17
4.238352e-17
8.3191261e-17
0
-4.0052153e-17
-3.929661e-17
3.8551885e-17
3.7817989e-17
0
0
-3.5681304e-17
-3.4990729e-17
0
3.3641983e-17
-1.1530698e-30
-3.2336296e-17
3.1699528e-17
-8.8315993e-33
1.0647706e-30
2.8908682e-47
-5.8517405e-17
1.222481e-32
2.8101353e-17
0
2.698542e-17
-2.6442815e-17
-2.5910352e-17
5.0775909e-17
2.4875538e-17
-4.8746036e-17
-2.3880304e-17
2.3397303e-17
2.2923918e-17
2.2460048e-17
0
-2.1560433e-17
-2.1124469e-17
2.0697579e-17
7.0318626e-31
-1.987054e-17
1.9470134e-17
1.9078293e-17
0
-1.8319726e-17
-1.7952694e-17
1.7593614e-17
-1.7242308e-17
9.6057371e-33
1.6562268e-17
-1.6233128e-17
1.5910951e-17
-1.0859648e-30
-1.528655e-17
1.4983809e-17
-1.4687264e-17
-1.4397274e-17
1.4127966e-17
0
0
1.2511679e-17
1.2581421e-17
-1.2423948e-17
-1.2255808e-17
1.2086845e-17
8.2909207e-31
-1.1779132e-17
1.1582613e-17
1.138725e-17
0
-1.1027219e-17
-1.0842036e-17
0
1.0492225e-17
1.0317637e-17
0
-9.9896824e-18
-2.0442627e-30
9.67324e-18
-9.520134e-18
-9.367495e-18
9.2242055e-18
6.2730041e-31
-6.1495535e-31
-3.7543638e-33
-8.6756727e-18
8.5441946e-18
1.1674668e-30
-5.7043881e-31
5.6186793e-31
-8.052696e-18
0
0
7.7263032e-18
7.6146339e-18
0
0
-7.315067e-18
-4.6072674e-48
7.123997e-18
0
-6.9415704e-18
6.8550477e-18
1.8760949e-30
-1.3373964e-17
6.6041466e-18
1.354182e-30
9.1567188e-34
6.3662638e-18
-6.29112e-18
8.840691e-34
8.5172316e-31
-4.210959e-31
6.0143595e-18
0
-5.8824599e-18
-4.0282636e-31
-1.5983276e-30
-5.6983336e-18
0
5.580183e-18
5.5234745e-18
0
0
0
-5.3085174e-18
-3.6385815e-31
5.2076992e-18
0
0
-5.0643261e-18
-5.01851e-18
4.9736309e-18
4.9296851e-18
0
-4.844402e-18
-4.8030695e-18
4.7625732e-18
4.7228657e-18
0
-4.6458183e-18
1.2796631e-30
3.170463e-31
-4.5358171e-18
4.5005502e-18
4.4659754e-18
0
-4.3988364e-18
6.0682166e-31
-4.3340291e-18
-5.9670908e-31
8.5414021e-18
-4.2395159e-18
5.837576e-31
1.4512241e-30
2.8742826e-31
4.1254983e-18
-4.0966379e-18
-4.0678332e-18
0
4.0138535e-18
3.9878366e-18
0
-3.9358156e-18
-3.9103234e-18
7.7700846e-18
3.8597484e-18
-3.8344522e-18
-3.8091764e-18
-1.049701e-30
3.7602729e-18
-3.7380915e-18
2.5770238e-31
3.6926669e-18
-3.6684945e-18
2.5324234e-31
-2.5206237e-31
1.0222773e-33
2.4695588e-31
-3.554411e-18
0
0
3.4881436e-18
3.4680558e-18
0
0
0
0
-3.3599842e-18
-2.3026268e-31
6.6417671e-18
-1.4056754e-33
-3.270678e-18
-3.2525277e-18
4.4988421e-31
4.4635396e-31
4.5419741e-34
3.171266e-18
3.1556336e-18
3.1428707e-18
-6.2475125e-18
-9.3087301e-18
3.0855397e-18
6.1376386e-18
0
-3.0181397e-18
-3.0017478e-18
2.9934598e-18
-8.4631444e-34
1.2583969e-33
-8.3047805e-34
-2.9082122e-18
-2.9032417e-18
2.8867119e-18
5.7177118e-18
-2.8289641e-18
-6.9726527e-49
-2.8132633e-18
-7.7508476e-31
5.5369452e-18
0
0
-5.4474078e-18
1.5036829e-30
5.3571059e-18
0
-2.6363235e-18
-2.6346555e-18
2.6161116e-18
-3.671577e-34
3.543173e-31
-3.6125295e-34
-2.5414651e-18
2.5236484e-18
2.4938717e-18
0
-2.4564568e-18
3.4174841e-31
2.439028e-18
-4.7869492e-18
6.5372531e-31
2.3466596e-18
6.5319356e-31
4.7044335e-18
-4.6465338e-18
-2.2806933e-18
2.2565358e-18
3.2053058e-34
2.2566089e-18
0
0
-2.1740489e-18
3.014419e-31
4.3408865e-18
-3.0428202e-34
-6.3039763e-18
2.0806081e-18
2.0799873e-18
-4.1591922e-18
2.0543101e-18
-2.0176508e-18
-3.9935234e-18
1.9917257e-18
1.9853157e-18
1.9650065e-18
-1.9392849e-18
-1.6009565e-48
1.9124645e-18
-1.8938349e-18
1.8739832e-18
-1.8581804e-18
-5.1051998e-31
-5.1733924e-34
-1.7940483e-18
3.5594273e-18
-1.7740829e-18
-4.8823664e-31
4.7934718e-31
1.6972376e-18
3.353676e-18
-5.0053179e-18
-4.6136786e-31
9.1280478e-31
-4.4836798e-31
3.1850853e-18
-3.1582716e-18
4.3551436e-31
3.1045537e-18
0
0
-1.4948194e-18
2.0573339e-31
1.4655883e-18
1.4450754e-18
-1.4268651e-18
-4.2283213e-18
1.3899579e-18
1.3728433e-18
3.8631541e-34
1.3434176e-18
0
-2.5931349e-18
-2.554533e-18
1.265703e-18
2.5139085e-18
1.2398499e-18
-2.4325851e-18
-2.3890446e-18
2.3617998e-18
2.3416713e-18
0
-2.2743999e-18
1.1148916e-18
2.1952755e-18
-1.0860477e-18
-1.07516e-18
1.5027868e-34
-1.4388704e-31
-1.0189606e-18
1.0069184e-18
9.9535371e-19
-9.7943681e-19
1.3324345e-31
1.345506e-34
1.2986392e-31
9.1977232e-19
-8.9920091e-19
3.668666e-31
1.2069795e-31
2.3877051e-31
8.4727341e-19
-8.3207491e-19
1.1356222e-31
2.2309095e-31
1.122371e-34
1.5516928e-18
7.6401175e-19
-7.5175025e-19
-1.4711767e-18
9.9700496e-32
1.4097582e-18
6.9638429e-19
-1.3765145e-18
-6.7362126e-19
6.5524863e-19
6.4012895e-19
1.7513182e-31
-6.2431438e-19
0
0
-5.8313288e-19
0
5.6683825e-19
-5.5719973e-19
-7.711918e-35
1.462123e-31
0
5.1284575e-19
-5.0398875e-19
-4.8991684e-19
9.5003584e-19
4.6653088e-19
-4.6062709e-19
0
0
4.3454349e-19
-1.1805197e-31
-4.1252601e-19
0
0
3.8915864e-19
-1.5829269e-31
-3.6717913e-19
0
0
0
0
0
0
0
0
-6.0110056e-19
-1.6133075e-31
2.8445203e-19
-2.8021159e-19
2.7269065e-19
-2.629858e-19
7.1511807e-32
2.5461881e-19
6.9004468e-32
2.388226e-19
0
0
-2.2322814e-19
-6.1169661e-32
2.1284805e-19
0
0
0
0
0
0
0
-3.4754963e-19
1.4027079e-31
3.2336826e-19
-1.5781382e-19
-2.2180192e-35
-1.5244968e-19
8.1300269e-32
2.8217464e-19
1.3889434e-19
1.1246846e-49
-3.9911202e-19
0
2.4760516e-19
0
0
-2.2638037e-19
3.0470589e-32
3.2858506e-19
-1.085696e-19
-1.0358121e-19
9.7713374e-20
-9.4711932e-20
9.3815835e-20
2.5977034e-32
-9.086597e-20
8.5612403e-20
0
8.0415191e-20
-8.0073575e-20
-1.5385245e-19
7.2411003e-20
7.0519045e-20
7.025524e-20
6.8085277e-20
-1.2856552e-19
-6.0891477e-20
5.9644825e-20
0
-5.727396e-20
5.3632767e-20
5.0301466e-20
-1.4660711e-19
-1.3736303e-35
9.3669896e-20
-4.3872815e-20
-5.7216254e-33
-4.0156034e-20
1.1176415e-35
7.3975422e-20
-3.4103314e-20
0
8.7836721e-33
4.3870246e-36
2.8512231e-20
-2.5962086e-20
6.9787211e-33
3.4983622e-33
3.3985059e-36
2.1565044e-20
-1.9837461e-20
-3.9377656e-50
5.3433434e-33
2.5723584e-36
3.2300779e-20
2.0708379e-33
-1.4053064e-20
0
0
1.1050523e-20
4.2168577e-33
-8.7157361e-21
7.4844582e-21
-9.3582781e-34
-8.4265648e-50
7.5759389e-34
-4.5304601e-21
-3.9381672e-21
-4.817696e-34
2.759618e-21
0
0
-7.7561363e-22
5.4520066e-22
-2.1561727e-34
7.7301902e-23
-4.3009144e-22
0
1.4281271e-21
1.8998965e-21
-2.1838672e-21
-2.413723e-21
0
3.0108721e-21
3.3846269e-21
-7.8340428e-21
-4.3154204e-21
4.4430721e-21
4.7316668e-21
7.4198792e-34
5.8253495e-21
1.6279359e-33
-1.208305e-20
0
0
0
6.2740145e-21
7.0804184e-21
0
-8.2318516e-21
-1.0710856e-33
7.2767066e-21
0
0
-8.8350798e-21
-1.1450617e-33
1.1259803e-33
-8.24647e-21
8.0755359e-21
-3.5691661e-33
-8.7900419e-21
0
-8.3155446e-21
-1.107037e-33
7.9122906e-21
-7.8775042e-21
7.6461795e-21
7.2649094e-21
-6.9599979e-21
0
6.6115401e-21
6.1699004e-21
-5.8165989e-21
-5.6629867e-21
0
-5.3992422e-21
5.1095768e-21
4.758354e-21
-4.4965209e-21
-8.790749e-21
2.4222727e-33
1.2724539e-20
7.9346521e-51
-3.9027051e-21
-7.7976813e-21
2.2018655e-33
7.7183996e-21
-3.641681e-21
3.6137545e-21
-3.8065808e-21
-4.0582676e-21
8.4114185e-21
0
0
-9.1058589e-21
-1.1598286e-50
9.1616786e-21
0
0
-1.108036e-20
7.2876618e-50
1.193733e-20
0
0
-1.22003e-20
-6.1742903e-21
1.3060705e-20
6.9277043e-21
0
-1.4011737e-20
3.8597406e-33
1.454827e-20
-7.5597817e-21
0
7.245745e-21
-7.5369435e-21
1.1084869e-36
7.4028526e-21
-7.1518412e-21
7.4125044e-21
7.7660044e-21
-7.6775758e-21
-7.2972292e-21
2.0305847e-33
7.7021552e-21
-7.2195927e-21
-1.8405388e-33
6.8619697e-21
-7.2510103e-21
7.5750037e-21
7.7790631e-21
-7.6580569e-21
-6.6970692e-21
1.7877679e-33
6.5309116e-21
-6.4188754e-21
9.6772053e-37
7.0488063e-21
-7.0879656e-21
6.3532341e-21
5.7532011e-21
-5.936696e-21
-1.25865e-20
3.6431682e-33
1.3233094e-20
-6.5390419e-21
9.0908221e-37
1.2352463e-20
1.7011598e-36
-5.9141143e-21
0
5.8065014e-21
0
-5.350646e-21
0
0
0
-4.8667785e-21
-1.166565e-50
4.1392197e-21
0
4.1937513e-21
-1.1521902e-33
-3.9794823e-21
0
0
0
-3.2381205e-21
8.3931242e-34
2.7904857e-21
0
2.535452e-21
6.7089086e-34
-2.2348615e-21
0
1.8808758e-21
-1.7581923e-21
9.1519082e-34
1.5231081e-21
-1.3761125e-21
0
-1.118154e-21
-2.9487429e-34
1.0152073e-21
0
8.2752576e-22
-7.6609672e-22
-4.2839992e-34
7.9224882e-22
-4.2465326e-34
-9.7758887e-38
1.8169396e-34
-1.0299307e-37
-8.4833969e-22
0
9.8503932e-22
-2.6626475e-34
-2.6644521e-34
-7.2351686e-51
-3.3492276e-34
0
-3.057606e-21
-4.516362e-34
1.6825962e-21
-1.7405721e-21
5.0870954e-34
1.9610879e-21
2.1125691e-21
6.276353e-34
-6.5911369e-34
2.4434992e-21
-2.5058341e-21
-2.5890938e-21
0
-2.8033837e-21
7.9596554e-34
2.8968826e-21
0
0
0
-5.9801043e-21
3.2766736e-33
5.8679881e-21
0
0
0
0
0
0
0
-5.0322098e-21
1.3846275e-33
4.8683416e-21
2.3312874e-21
-2.1781784e-21
-2.015393e-21
5.235292e-34
1.0056587e-33
1.786563e-21
-1.7581371e-21
1.6925546e-21
1.5857116e-21
-1.461991e-21
-1.3687637e-21
7.4529332e-34
1.3640879e-21
1.3849501e-21
-3.8159528e-34
-1.3407859e-21
-1.3248698e-21
1.3610709e-21
1.4296202e-21
-1.4994833e-21
1.5557683e-21
0
-1.7427285e-21
-1.8857538e-21
5.592443e-34
2.1055165e-21
-2.200141e-21
2.3470405e-21
2.5422737e-21
-2.7709495e-21
2.9872868e-21
8.7927021e-34
-3.3052434e-21
-3.4472517e-21
-5.1259827e-37
7.609851e-21
2.2612513e-33
-4.3131884e-21
-4.4888813e-21
0
4.7793501e-21
0
0
0
5.5023912e-21
5.484696e-21
-5.4931705e-21
-5.678308e-21
0
6.0823258e-21
-1.7296076e-33
-5.8135958e-21
0
0
6.2744572e-21
-3.5669708e-33
-6.0541069e-21
0
0
6.1304275e-21
-3.5192065e-33
-6.5240564e-21
0
5.9741564e-21
-1.656943e-33
1.5874649e-33
-1.6653343e-33
-6.2023191e-21
0
-6.1096413e-21
3.2351937e-33
5.6787399e-21
0
5.7989902e-21
-5.7570555e-21
-5.6105145e-21
1.1003364e-20
1.5040946e-33
-1.0427902e-20
1.3848711e-33
4.8818289e-21
0
0
4.8216798e-21
-1.2979552e-33
-4.526397e-21
0
4.3460525e-21
-4.2791411e-21
-4.1320688e-21
4.0152891e-21
0
-3.9526776e-21
3.8763e-21
2.0932031e-33
-2.0060988e-33
3.5159438e-21
-2.9356318e-33
3.5457829e-21
-3.5207241e-21
9.519976e-34
-1.8364986e-33
-6.4276833e-21
8.8658542e-34
3.2377135e-21
0
0
0
-6.0542932e-21
-2.9850977e-21
6.0171233e-21
3.0370778e-21
0
0
2.9101793e-21
-5.2892918e-52
-2.8669594e-21
0
-5.7711388e-21
-2.8539849e-21
5.6072631e-21
2.773158e-21
0
-5.5251217e-21
-7.7367107e-37
7.9562704e-21
-7.2469028e-34
-5.2492197e-21
2.6504834e-21
1.5012854e-36
-2.5748083e-21
6.9084629e-34
1.3553784e-33
2.4595483e-21
0
2.4890939e-21
-1.3485459e-33
-4.7045205e-21
2.311427e-21
-3.8576041e-33
-2.3357263e-21
4.6548094e-21
-3.2459633e-37
-2.2317578e-21
0
0
0
-2.2236238e-21
2.1810583e-21
4.2803664e-21
-2.1363813e-21
-6.0240837e-34
-6.1144679e-34
-2.209906e-21
0
2.1531644e-21
-3.0617731e-37
-4.3864825e-21
2.2565432e-21
1.2769474e-33
-2.309191e-21
-2.2893581e-21
1.2632441e-33
4.5848556e-21
0
2.4434062e-21
2.5097805e-21
0
-2.5370011e-21
-2.5405596e-21
2.5678495e-21
0
-2.7266321e-21
0
0
2.8528766e-21
-2.374866e-33
-2.8549427e-21
0
0
3.1164413e-21
3.1856359e-21
-3.2015688e-21
-3.1984856e-21
3.1954843e-21
3.2032838e-21
-6.5033246e-21
-3.3382672e-21
9.4736406e-34
3.4490337e-21
-1.922391e-33
-1.926225e-33
3.4797693e-21
-3.4975268e-21
3.5384636e-21
-3.5623959e-21
-3.0305888e-36
3.5381647e-21
-7.0897513e-21
-3.5688447e-21
-3.5897153e-21
7.1762365e-21
7.0790398e-21
-3.4981386e-21
3.5119074e-21
-3.5409812e-21
1.9717418e-33
7.0495641e-21
-3.4547447e-21
9.4052981e-34
-9.3857707e-34
-3.4042217e-21
0
0
3.3377348e-21
3.2784718e-21
0
-3.2299176e-21
-3.2066875e-21
0
-3.0934641e-21
8.4217432e-34
3.0145989e-21
-3.006781e-21
8.2538688e-34
2.9235827e-21
0
2.8073729e-21
1.540089e-33
-2.7429651e-21
2.6990109e-21
-7.3130646e-34
-2.5873902e-21
-2.5560739e-21
-7.0273343e-34
2.4953033e-21
0
-2.3969121e-21
2.3743877e-21
-6.7004318e-37
1.2866604e-33
2.2584758e-21
-2.2131787e-21
0
-4.400323e-21
4.8683458e-33
2.1485245e-21
1.1619871e-33
4.104587e-21
-4.0831238e-21
-4.1286881e-21
4.1685487e-21
4.1556406e-21
2.0446491e-21
0
-1.9847676e-21
-3.9489701e-21
2.8168394e-37
-2.0009487e-21
2.0177555e-21
2.0215068e-21
-2.0082838e-21
3.9873814e-21
-3.9732631e-21
-3.3155631e-33
4.0208498e-21
-4.0599644e-21
1.1283655e-33
-2.0278879e-21
2.0281254e-21
2.0348944e-21
-2.0471049e-21
-5.7081868e-34
-4.1261369e-21
4.1339925e-21
4.1460879e-21
-4.1595033e-21
-5.7945776e-34
-2.0990732e-21
1.1698578e-33
2.1068401e-21
5.8411832e-34
-2.2052461e-51
2.1038275e-21
4.2468186e-21
-2.1388597e-21
-9.4789443e-51
-2.1223646e-21
-3.511266e-33
2.1087469e-21
-4.2662235e-21
1.1977913e-33
4.3228008e-21
4.0750038e-52
-2.1438405e-21
0
0
-2.1652161e-21
2.1584195e-21
4.2817033e-21
0
0
0
-2.1740108e-21
-2.1622096e-21
0
2.1312325e-21
-2.1379329e-21
-3.5880696e-33
4.3267898e-21
0
0
0
-2.1316874e-21
-2.136303e-21
2.128717e-21
-2.1109601e-21
-1.1592486e-33
4.1514172e-21
0
0
-4.1643304e-21
5.8552727e-37
2.0354407e-21
-2.0195446e-21
2.0137234e-21
-2.0084037e-21
1.1053491e-33
3.9241914e-21
0
0
-1.914572e-21
-1.8847766e-21
0
0
1.7934617e-21
1.7897914e-21
0
-1.7592745e-21
-1.7202295e-21
1.6802451e-21
-1.6430471e-21
-1.6121096e-21
1.5937769e-21
1.5874301e-21
-8.7730494e-34
-1.555742e-21
1.5111631e-21
4.0677555e-34
-1.4344529e-21
0
-1.4286115e-21
7.9196136e-34
1.40439e-21
-1.3676059e-21
7.409783e-34
1.32184e-21
0
-1.345115e-21
3.7511245e-34
1.9034528e-37
-1.3211314e-21
1.3109646e-21
1.3147754e-21
0
-2.6973658e-21
1.5148679e-33
1.3762172e-21
1.9770394e-37
2.819784e-21
-2.8568661e-21
-2.8978448e-21
2.9543195e-21
1.51467e-21
0
-3.1703787e-21
2.6841627e-33
3.2826611e-21
0
-3.4915506e-21
-1.0026065e-33
1.8516493e-21
5.2396575e-34
3.846183e-21
-3.9467201e-21
-5.0989493e-33
4.2247648e-21
-4.3440469e-21
1.2324064e-33
4.5291068e-21
2.3187308e-21
-4.7848699e-21
-2.4749227e-21
5.0854637e-21
-5.1738749e-21
-6.5639005e-33
5.3289022e-21
-5.430392e-21
7.7911918e-34
-2.9015097e-21
3.301523e-33
9.0794342e-21
-1.7041339e-33
-6.2269433e-21
3.1533748e-21
6.3858662e-21
-3.2050723e-21
1.7874871e-33
-3.2873509e-21
-3.7489842e-33
3.4507864e-21
-7.0061255e-21
2.9416337e-33
-3.9392684e-33
1.9767138e-33
3.5188993e-21
0
3.5382368e-21
3.6242635e-21
0
0
0
0
0
-3.6334652e-21
-3.6887534e-21
0
3.720633e-21
-3.6714867e-21
-5.9903521e-33
7.1259272e-21
0
0
0
-3.598268e-21
-3.5594261e-21
3.4929585e-21
3.4038477e-21
-6.700364e-21
-5.575352e-33
6.690199e-21
0
-6.55468e-21
-5.3022614e-33
3.0875668e-21
-3.0504399e-21
3.035711e-21
-3.0082174e-21
-1.6406508e-33
5.7380476e-21
0
0
-2.6930738e-21
-2.6401655e-21
0
-2.4699964e-21
-6.8187754e-37
-2.3430731e-21
2.2798504e-21
6.5969253e-21
0
4.0574241e-21
3.9351227e-21
0
-5.5019067e-21
-3.4866038e-21
3.313168e-21
-1.5814327e-21
-1.5139722e-21
4.3271412e-21
1.3610046e-21
1.8132666e-37
1.1995921e-21
-1.1301925e-21
-1.0582002e-21
-9.7653661e-22
-3.6214078e-51
-8.1789461e-22
-7.5385279e-22
6.8802112e-22
0
1.0580006e-21
9.0414311e-22
0
-3.3843815e-22
-5.6312466e-22
-1.1794136e-34
-1.3572155e-22
-1.3356127e-22
2.740968e-23
-6.2996689e-23
-8.4063344e-23
-1.5092924e-22
0
2.6304122e-22
8.6188826e-22
-3.0854224e-22
1.8408832e-49
1.1524784e-21
-8.8021018e-22
-4.9628209e-22
-5.3151164e-22
-1.0807716e-21
1.0783103e-21
5.4253385e-22
-5.5592366e-22
-5.7546198e-22
-5.9734863e-22
1.8610382e-21
6.3171656e-22
-1.8612918e-21
-5.9495199e-22
5.7056466e-22
1.1086131e-21
-5.4564476e-22
5.403719e-22
-8.8204836e-34
8.3932821e-34
1.391062e-21
-4.1877003e-22
-3.7613876e-22
-6.775062e-22
-3.0406238e-22
5.2675491e-22
6.0209304e-38
1.5308615e-22
-9.2711579e-23
-1.0636624e-22
-5.3883148e-23
-7.5395144e-23
4.2761994e-22
0
-8.6892894e-22
-3.5962045e-22
1.2819936e-21
-4.9892013e-22
-1.1524273e-21
-3.6357462e-34
8.1058208e-34
8.0169433e-22
0
1.9178993e-21
2.0917181e-21
-1.1321796e-21
-1.2102184e-21
-2.5610921e-21
1.3527426e-21
1.4313288e-21
-3.0285384e-21
0
3.3360963e-21
3.4711365e-21
-1.8051545e-21
-3.756973e-21
1.0830553e-33
2.0199831e-21
-4.1673702e-21
2.1451637e-21
-7.3494333e-33
-4.5267586e-21
2.3158031e-21
0
4.8114241e-21
0
-5.5011132e-33
-2.5339178e-21
-5.1795672e-21
7.8923757e-21
-7.5209912e-37
-5.2715734e-21
0
5.3848715e-21
2.7463816e-21
-5.5671197e-21
2.9841463e-33
2.606545e-21
-5.3267309e-21
2.7595395e-21
-4.6929724e-33
-5.6732056e-21
2.8323088e-21
-2.6156045e-21
5.0271177e-21
7.9380279e-21
0
-8.3471549e-21
-5.5694032e-21
8.2958807e-21
5.2861834e-21
-2.52341e-21
-5.0515169e-21
2.5722201e-21
2.5962238e-21
-5.2082602e-21
2.5856383e-21
4.9761613e-21
-2.3763336e-21
3.3318198e-37
-4.7393932e-21
-4.7482667e-21
7.0708972e-21
-2.3217558e-21
-3.7107868e-33
6.4199698e-21
0
-6.356912e-21
-4.2095083e-21
2.0647829e-21
2.0125904e-21
1.9323668e-21
0
1.8355333e-21
-1.0125111e-33
-3.6013793e-21
9.7109856e-34
1.6871314e-21
0
1.564862e-21
-3.0770572e-21
-4.55187e-21
2.9690844e-21
4.3002678e-21
1.3747378e-21
-1.3202459e-21
-2.5581425e-21
1.2535252e-21
-1.2258947e-21
-1.1889053e-21
2.2871186e-21
-2.1906429e-21
-1.0557156e-21
3.0829131e-21
2.0054057e-21
-9.7295008e-22
-2.8050597e-21
1.9871951e-33
-1.9178259e-33
-8.4256412e-22
-9.1570587e-34
-8.0145175e-22
7.6784574e-22
7.3328464e-22
7.0812961e-22
-6.9319386e-22
-6.8371937e-22
2.0111978e-21
-6.4801079e-22
-1.2486446e-21
1.8248545e-21
1.705477e-37
-5.9524135e-22
1.1710224e-21
5.6684619e-22
0
-5.3976944e-22
-5.4071901e-22
-1.0930193e-21
5.4867817e-22
-1.8105131e-33
-1.6058141e-21
5.3050871e-22
5.317245e-22
5.361779e-22
-5.410595e-22
-5.4571078e-22
1.654008e-21
-5.5762445e-22
-1.1254484e-21
-9.4246518e-34
-5.7064216e-22
1.1617879e-21
1.7873346e-21
3.3870914e-34
-3.4368749e-34
-8.8356384e-38
-6.2630444e-22
-1.2797936e-21
-6.609145e-22
2.0482304e-21
-7.7430894e-34
-1.4066819e-21
0
0
7.4617717e-22
-4.2702513e-34
4.3570264e-34
7.9131124e-22
-1.5953304e-21
-8.135528e-22
-9.3096829e-34
8.6861327e-22
2.6685935e-21
8.9487876e-22
0
0
0
-2.878045e-21
-1.9789185e-21
3.021845e-21
-1.1230885e-33
-2.031322e-21
0
0
2.1640479e-21
-2.4620074e-33
-1.2460531e-33
2.2552282e-21
-1.133293e-21
-2.2970909e-21
-2.3505267e-21
1.2089806e-21
3.6988725e-21
1.2412319e-21
0
0
0
-3.8756753e-21
-2.6523218e-21
4.0524994e-21
-3.0145296e-33
-1.360166e-21
1.9424911e-37
-1.3813354e-21
2.8164192e-21
-1.5973678e-33
-1.4587918e-21
2.9248449e-21
0
-8.148362e-34
-2.9583029e-21
-3.0115963e-21
4.6045036e-21
3.1034774e-21
-1.5535322e-21
-8.6195887e-34
1.5541201e-21
-4.6834752e-21
-3.167387e-21
1.6059529e-21
1.6156264e-21
-1.6123763e-21
-1.6044362e-21
1.5989871e-21
1.6054775e-21
-9.036461e-34
9.1511439e-34
1.6536307e-21
0
1.6275913e-21
-3.2264966e-21
-4.8191849e-21
3.2385619e-21
3.2756974e-21
1.6439534e-21
-1.8132552e-33
-3.2365892e-21
1.6031566e-21
-1.5900008e-21
-1.5839994e-21
3.1708771e-21
-3.1640662e-21
-1.5687855e-21
1.5513011e-21
3.059446e-21
1.5118248e-21
-3.0122294e-21
8.3317738e-34
-1.4894305e-21
-1.4657394e-21
4.3041929e-21
-1.4094372e-21
-1.39906e-21
4.2029284e-21
-1.9814853e-37
-4.1172538e-21
-1.3418689e-21
3.9260659e-21
-1.2846328e-21
-1.6103377e-50
-2.1241505e-33
-2.5441133e-21
2.5099267e-21
2.4489041e-21
-1.1929838e-21
1.2948872e-33
2.2950469e-21
-1.1392428e-21
-3.4065211e-21
-1.1284107e-21
1.1157789e-21
0
1.0827734e-21
2.1368773e-21
-1.4997047e-37
-3.1250841e-21
-1.0278418e-21
2.033284e-21
-1.4361099e-37
-2.0192541e-21
2.0114635e-21
-1.657625e-33
-1.9653556e-21
2.9172211e-21
1.9404238e-21
0
0
-9.8550777e-22
-2.9287642e-21
-9.6717316e-22
2.896992e-21
-1.0810989e-33
-1.9821464e-21
2.0151225e-21
2.0285345e-21
-1.0107027e-21
-2.0154249e-21
1.0110585e-21
1.0216594e-21
-3.1212694e-21
-1.0624391e-21
-1.798286e-33
6.0402678e-34
1.0934981e-21
-1.1004287e-21
2.2241241e-21
3.3889376e-21
0
-3.5230395e-21
-2.3682934e-21
3.5734312e-21
-3.4127944e-37
-1.2162972e-21
2.4868083e-21
-1.2689717e-21
-1.2840107e-21
-1.4309755e-33
1.2893406e-21
2.592966e-21
-1.3197338e-21
-2.7132503e-21
-2.7733024e-21
1.5541948e-33
1.4004616e-21
-1.400019e-21
2.8024972e-21
4.2424813e-21
0
-4.4301732e-21
-2.9902034e-21
4.4897783e-21
-1.6599747e-33
-1.4915191e-21
1.4921403e-21
1.509231e-21
-8.5107736e-34
-3.1013491e-21
8.6098718e-34
3.0921656e-21
-1.7066642e-33
-1.6999889e-33
-3.0845162e-21
-4.6696746e-21
3.1235251e-21
-1.7254835e-33
-5.1173635e-33
1.517278e-21
1.5099132e-21
3.0427976e-21
-4.5968158e-21
-1.5301364e-21
3.0276935e-21
-2.9866889e-21
-8.3611894e-37
4.3549747e-21
1.4448844e-21
-1.4409766e-21
-4.2943597e-21
4.7164283e-33
2.7992043e-21
1.3780683e-21
-2.7036651e-21
-3.9705086e-21
3.8654732e-21
1.2570419e-21
1.375989e-33
1.2303996e-21
-2.4300052e-21
6.5703369e-34
-1.1452603e-21
1.1076273e-21
-3.5810307e-33
-3.1545637e-21
3.0859846e-21
2.9875735e-21
0
0
0
-8.580034e-22
-2.4749993e-21
-7.8141458e-22
-8.1511808e-34
-6.9396936e-22
1.9898317e-21
6.3765535e-22
-6.0602054e-22
-5.6403868e-22
-5.1539435e-22
9.383477e-22
-4.3285809e-22
4.0423155e-22
-1.2517942e-33
-6.8019538e-22
8.8661933e-22
4.9813042e-22
0
-3.5681698e-22
-1.6890307e-34
1.2299197e-22
-2.5902617e-22
-4.327213e-23
2.9466113e-24
0
0
-7.5620641e-23
-2.1241384e-22
3.2071415e-34
3.5887137e-22
2.0146631e-22
-2.1332706e-22
2.2474121e-22
-2.4246629e-22
1.7723094e-49
5.1438378e-34
-1.0333698e-21
0
0
7.2844329e-22
7.3689568e-22
3.7870089e-22
-4.3318162e-34
-1.1964055e-21
4.494218e-34
8.2472187e-22
0
-8.6212005e-22
-4.2526551e-22
8.179436e-22
-3.9218334e-22
-3.80931e-22
1.132191e-21
-3.8072503e-22
1.2722729e-33
7.3848397e-22
-1.0270578e-21
-6.228484e-22
0
0
0
7.2838927e-22
4.5788677e-22
-5.99762e-22
-3.1767922e-22
0
1.5664364e-22
-5.2366466e-35
-2.2267824e-23
-9.1312349e-26
2.8513598e-23
-6.7946163e-23
-1.1456518e-22
4.8662547e-22
-4.1272421e-22
-4.9035073e-22
2.8064522e-22
-3.1677819e-22
7.1216583e-22
1.197614e-21
0
-1.4828098e-21
-1.088286e-21
5.9363136e-22
6.3834692e-22
-7.4911708e-34
7.087591e-22
-2.4921458e-33
-7.9472607e-22
-4.7046567e-34
9.4672803e-51
9.5268415e-22
0
1.0285956e-21
-2.1305968e-21
-3.3189054e-21
3.4479899e-21
3.5767725e-21
0
-2.5529244e-21
-2.6330303e-21
2.7049137e-21
-1.3825146e-21
-1.4106547e-21
4.3137629e-21
-2.9300876e-21
-2.9991913e-21
1.5397996e-21
3.1483047e-21
1.5958134e-21
-4.8386048e-21
-1.6229717e-21
-2.7207855e-33
3.3314228e-21
9.6528776e-37
-5.1578184e-21
3.4642457e-21
5.1764736e-21
1.7159713e-21
-5.1917199e-21
-3.5327908e-21
5.3844605e-21
-3.9859407e-33
-3.5665611e-21
-1.7365514e-21
9.463773e-34
3.4695513e-21
-1.9720972e-33
1.7947854e-21
1.7873073e-21
-5.299082e-21
-1.7021082e-21
-1.8275997e-33
3.3093219e-21
-5.6156114e-33
-5.1258208e-21
3.421142e-21
-1.8771139e-33
-1.8422357e-33
-3.5781594e-33
-1.5603571e-21
4.6134746e-21
-1.5414614e-21
-2.5764812e-33
-5.110314e-33
-4.5074156e-21
1.463382e-21
2.8154832e-21
-1.5096638e-33
1.3437374e-21
1.3418888e-21
-2.6697907e-21
-2.6225427e-21
1.4078881e-33
3.6653913e-21
-1.3028041e-33
-1.1352096e-21
2.2342109e-21
-1.1043942e-21
-1.083931e-21
5.8345107e-34
-5.6117583e-34
9.6966337e-22
-1.8639098e-21
9.0097509e-22
-2.9222861e-33
-2.8471727e-33
2.4828575e-21
-1.5901194e-21
2.161336e-37
1.4529924e-21
-6.9712898e-22
-2.0205963e-21
-6.5264487e-22
1.8849558e-21
-6.6464134e-34
-5.6675505e-22
1.0744626e-21
-1.0299573e-21
-2.4950103e-33
4.8538689e-22
-4.6654031e-22
4.4081544e-22
-8.2594484e-22
3.8966123e-22
1.1227791e-21
0
0
-6.7761159e-22
-9.0412989e-38
5.9776309e-22
-2.8695603e-22
-8.434685e-22
-2.7705053e-22
8.0359426e-22
7.1289321e-38
2.5978465e-34
4.5141436e-22
-6.7997888e-22
-1.1588884e-33
2.337382e-22
-2.236694e-22
-2.0109645e-22
2.0123561e-34
1.7778792e-22
-3.8124598e-22
4.169097e-22
-7.3157496e-34
-4.4083088e-22
6.2998159e-22
3.8583069e-22
-1.7994318e-22
-5.3578596e-22
-1.8902756e-22
2.0503711e-22
0
-2.2703491e-22
2.2952974e-22
6.8542075e-22
1.2556964e-34
-4.4752133e-22
2.2364335e-22
2.2886566e-22
-4.7990676e-22
2.5434537e-22
-2.673676e-22
-5.4940173e-22
8.2200177e-22
-8.9501035e-34
5.9442105e-34
5.5169614e-22
-5.8219986e-22
-3.0798609e-22
-3.2088537e-22
-3.6182573e-34
3.2278207e-22
-6.4064669e-22
6.4959928e-22
1.0099169e-21
0
-3.6776602e-22
2.0936265e-34
1.0789481e-37
-1.1414147e-21
-3.8536126e-22
1.1855666e-21
-4.0804052e-22
5.1168101e-50
1.2858252e-21
-4.3366295e-22
-1.3181736e-21
-4.4881142e-22
9.2252172e-22
-4.7404943e-22
4.8292946e-22
-1.6207284e-33
-9.8132523e-22
1.4977662e-21
5.6964849e-34
-2.3543196e-33
1.0903489e-21
-1.1076251e-21
-6.1856439e-34
5.6181015e-22
-1.1422383e-21
-5.8492639e-22
0
0
1.2567949e-21
-1.4107887e-33
-3.6588826e-37
-7.2666173e-34
-6.6721181e-22
-6.813476e-22
6.9626621e-22
7.1140404e-22
-1.4485719e-21
1.4674764e-21
-8.2441381e-34
-1.5057528e-21
1.5311572e-21
2.6035972e-33
-8.8681118e-34
8.1191824e-22
-1.6377752e-21
8.251811e-22
-1.8515003e-33
-1.6954405e-21
0
1.7812728e-21
9.0366588e-22
-1.8151451e-21
-9.1133318e-22
9.172154e-22
-1.5451515e-33
-9.4743277e-22
0
0
1.9885734e-21
1.9987424e-21
0
-2.0288929e-21
-1.023332e-21
1.0354605e-21
-1.0490069e-21
1.0599696e-21
0
-2.1447956e-21
0
0
1.0928687e-21
-1.2226397e-33
-1.1048202e-21
0
1.1054047e-21
6.1362099e-34
-1.1132232e-21
0
2.2583904e-21
2.256667e-21
-1.1223863e-21
-1.2383766e-33
1.1150358e-21
-2.2507987e-21
-2.2641859e-21
2.2587689e-21
3.1882948e-37
2.4596019e-33
3.1146436e-37
-2.1939592e-21
1.1075336e-21
-1.2357079e-33
1.108319e-21
-1.0982668e-21
-3.2560933e-21
3.2216423e-21
1.0693767e-21
-1.0678826e-21
-1.1792638e-33
-1.0525793e-21
2.073907e-21
2.0462159e-21
-2.0391204e-21
-3.3865066e-33
-1.0084124e-21
-9.9225417e-22
1.9396455e-21
-9.4944777e-22
1.0438201e-33
-5.2330354e-34
9.4022926e-22
1.8567475e-21
-1.8167587e-21
-1.7682138e-21
0
8.5403873e-22
9.4773946e-34
-1.7001039e-21
-9.2927748e-34
2.4466728e-21
1.5832628e-21
0
-1.5208673e-21
-1.6827761e-33
-7.5393637e-22
-7.4148825e-22
2.1597866e-21
-3.8674193e-34
-1.3554852e-21
6.6617651e-22
1.3253699e-21
-6.5859302e-22
-1.2939225e-21
-6.2644539e-22
0
1.1751867e-21
-5.7689094e-22
-1.7194829e-21
5.6907696e-22
5.5805354e-22
1.0775595e-21
5.1898934e-22
-1.0078573e-21
-4.9548941e-22
-4.9302309e-22
5.4404122e-34
4.8087266e-22
4.6423021e-22
8.9420528e-22
4.3443941e-22
0
0
0
-8.2772949e-22
-7.9398052e-22
7.6078331e-22
4.1107547e-34
4.0842244e-34
-4.1129955e-34
-8.261318e-34
7.334495e-22
0
-6.7394683e-22
-3.257487e-22
3.2094006e-22
-3.2053831e-22
-3.2099129e-22
0
0
6.2517764e-22
-1.0246811e-33
-6.6593727e-34
5.7749933e-22
-5.5780803e-22
-5.5105496e-22
0
5.7488683e-22
-3.2512423e-34
-5.7765906e-22
5.4474815e-22
2.8238584e-34
-4.9316669e-22
0
5.2958047e-22
2.7505007e-22
-5.5584081e-22
2.709549e-22
5.7053784e-34
-4.8962769e-22
4.8109993e-22
4.8834684e-22
0
0
0
-5.2339222e-22
-5.1374735e-22
4.9985709e-22
0
-4.8636904e-22
0
-2.5162021e-22
5.139757e-22
2.5935452e-22
-2.5688853e-22
5.0177065e-22
2.4637391e-22
-4.929685e-22
-2.5085509e-22
-2.8548458e-34
2.6134853e-22
-5.7831284e-34
1.4499876e-37
5.0159433e-22
0
-2.5654941e-22
-5.2680274e-22
-2.6760482e-22
0
0
0
-2.5950636e-22
5.2955134e-22
2.7093575e-22
-2.7361629e-22
-2.709722e-22
2.6759146e-22
2.6783685e-22
-5.4383755e-22
0
5.6384171e-22
5.6099489e-22
0
0
-5.503151e-22
-3.1343772e-34
-2.9018806e-22
-2.9332382e-22
2.8932515e-22
-2.8194311e-22
2.7806341e-22
5.6209951e-22
2.8874674e-22
0
-6.0190788e-22
-3.3170462e-34
2.9338288e-22
-2.8987143e-22
-2.9041493e-22
-5.8712896e-22
5.9418655e-22
2.9863741e-22
-8.4671533e-38
2.9702538e-22
-5.9514619e-22
2.992241e-22
-3.0030285e-22
-9.9231448e-51
2.9379741e-22
-5.794292e-22
5.7720671e-22
5.806455e-22
0
-2.9542648e-22
-5.8669736e-22
1.5973268e-34
2.8246233e-22
2.7959944e-22
-5.5784772e-22
-5.5913834e-22
2.7919903e-22
5.5233383e-22
5.4234479e-22
-2.6644892e-22
-5.2562372e-22
2.5950306e-22
-2.5578785e-22
4.1910559e-34
2.4829959e-22
-4.9212233e-22
4.8832415e-22
2.6562306e-34
-1.2763059e-33
4.385632e-22
-4.2371604e-22
-9.3093681e-34
2.1077251e-22
-4.2222915e-22
2.0573344e-22
-5.4877006e-38
7.9382802e-34
1.693534e-22
-3.3306987e-22
3.7119613e-34
-9.2381591e-35
1.6009462e-22
-4.1874848e-38
-2.681311e-22
2.5109888e-22
6.9418253e-38
-5.3651988e-34
2.3406998e-22
-2.1527436e-22
-2.0824022e-34
1.6358445e-22
-7.5957579e-23
-7.4554276e-23
-7.3029485e-23
6.6213863e-23
-5.8130309e-35
-7.3572787e-23
0
0
6.1427315e-23
8.7617735e-39
-4.4994323e-23
3.7428383e-24
2.0537791e-35
-3.0411554e-23
-6.0843599e-35
3.7461295e-23
0
1.643159e-23
-5.4074581e-23
-4.4043922e-23
1.3564063e-34
-7.1689772e-23
1.4776138e-22
-7.0484432e-23
7.3694699e-35
1.2966158e-22
0
0
-8.0376986e-23
5.089392e-35
-1.0181624e-22
1.0516944e-22
3.022016e-22
-2.7981082e-22
-8.804963e-23
1.7550386e-22
-9.3860571e-23
-1.7478828e-34
-1.1407682e-22
6.4977957e-38
3.5393252e-34
-9.6336201e-23
1.798062e-22
8.8700429e-23
0
1.0035665e-22
-1.041113e-22
-9.9940783e-23
-9.0046634e-23
1.768874e-34
-8.057203e-35
7.8219622e-35
1.4664871e-22
-7.6968722e-23
-1.2460401e-34
1.3079628e-22
-7.4906343e-39
-4.144017e-23
-6.8683491e-23
-6.5968155e-23
7.1124905e-23
3.934474e-35
2.7920195e-23
1.4668286e-23
-9.4282004e-25
-2.211853e-23
-1.8519855e-23
6.7653017e-23
5.3073004e-23
-3.3067099e-23