/*--------------------------------*- C++ -*----------------------------------*\
  =========                 |
  \\      /  F ield         | OpenFOAM: The Open Source CFD Toolbox
   \\    /   O peration     | Website:  https://openfoam.org
    \\  /    A nd           | Version:  7
     \\/     M anipulation  |
\*---------------------------------------------------------------------------*/
FoamFile
{
    version     2.0;
    format      ascii;
    class       volVectorField;
    location    "0.00034";
    object      U;
}
// * * * * * * * * * * * * * * * * * * * * * * * * * * * * * * * * * * * * * //

dimensions      [0 1 -1 0 0 0 0];

internalField   nonuniform List<vector> 
5000
(
(-14.516975 1.6183026e-16 0)
(-14.510812 1.7353613e-16 0)
(-14.487845 0 0)
(-14.466322 0 0)
(-14.440454 -8.8697274e-17 0)
(-14.415202 1.0102692e-31 -8.8864222e-17)
(-14.389028 8.8893577e-17 -1.8948806e-31)
(-14.362974 0 2.6675501e-16)
(-14.336694 0 8.8914423e-17)
(-14.31045 -8.891166e-17 -1.7782332e-16)
(-14.284148 -1.7780233e-16 -1.7780233e-16)
(-14.257859 8.8891678e-17 8.8891678e-17)
(-14.231557 8.8878867e-17 -7.578268e-31)
(-14.205261 -8.8867028e-17 -7.8298338e-31)
(-14.178964 0 1.7770702e-16)
(-14.152671 -8.8840648e-17 -1.776813e-16)
(-14.12638 -4.7271353e-48 -2.3635676e-48)
(-14.100093 8.8814489e-17 -7.8252048e-31)
(-14.07381 0 -8.8801469e-17)
(-14.047531 8.8788533e-17 1.7757707e-16)
(-14.021256 -8.8775661e-17 8.8775661e-17)
(-13.994984 -8.8762901e-17 0)
(-13.968717 1.7750058e-16 0)
(-13.942453 -8.8737885e-17 -8.8737885e-17)
(-13.916193 -8.872575e-17 7.5652125e-31)
(-13.889937 -7.3120673e-31 -7.3120673e-31)
(-13.863684 8.8702614e-17 -8.8702614e-17)
(-13.837435 8.869179e-17 8.869179e-17)
(-13.811189 -1.7736317e-16 8.8681583e-17)
(-13.784947 1.5373294e-30 -8.8672082e-17)
(-13.758707 -1.5497781e-30 1.5497781e-30)
(-13.73247 8.8655483e-17 -7.5592211e-31)
(-13.706236 1.7729696e-16 -8.8648481e-17)
(-13.680004 -1.7728473e-16 8.8642366e-17)
(-13.653775 1.5367233e-30 8.863712e-17)
(-13.627547 -7.7084233e-30 0)
(-13.60132 -3.073165e-30 0)
(-13.575095 1.7725187e-16 -8.8625936e-17)
(-13.548872 -1.7724674e-16 -8.8623368e-17)
(-13.522649 -1.7724229e-16 8.8621144e-17)
(-13.496427 1.772382e-16 -1.4860367e-30)
(-13.470206 -6.0951297e-30 -8.8617071e-17)
(-13.443987 -1.7722977e-16 8.8614886e-17)
(-13.417768 8.8612387e-17 -1.4985167e-30)
(-13.391551 2.6582828e-16 -8.8609428e-17)
(-13.365334 -8.8605883e-17 8.8605883e-17)
(-13.33912 -8.8601646e-17 -3.0470344e-30)
(-13.312907 -6.0685433e-30 3.0342717e-30)
(-13.286696 -1.7718158e-16 -3.046661e-30)
(-13.260487 0 1.5106265e-30)
(-13.234281 8.8576486e-17 8.8576486e-17)
(-13.208077 1.2586273e-32 0)
(-13.181876 -8.8558706e-17 0)
(-13.155679 1.7709715e-16 0)
(-13.129485 -3.0951623e-30 0)
(-13.103295 -1.7705211e-16 0)
(-13.077109 8.8513772e-17 0)
(-13.050927 -3.0561455e-30 0)
(-13.024749 -8.8487408e-17 0)
(-12.998575 0 0)
(-12.972406 8.8458961e-17 0)
(-12.946242 3.0164773e-30 0)
(-12.920083 2.5132954e-32 0)
(-12.893929 8.8412993e-17 -8.8412993e-17)
(-12.86778 -8.839688e-17 -8.839688e-17)
(-12.841636 3.0896639e-30 8.8380395e-17)
(-12.815497 8.8363543e-17 -1.519423e-30)
(-12.789364 -8.8346331e-17 -5.1013484e-49)
(-12.763236 -8.8328761e-17 8.8328761e-17)
(-12.737114 8.8310838e-17 0)
(-12.710997 8.8292566e-17 0)
(-12.684887 -8.8273952e-17 -8.8273952e-17)
(-12.658782 -8.8255004e-17 -8.8255004e-17)
(-12.632684 1.7647147e-16 0)
(-12.606591 8.8216158e-17 8.8216158e-17)
(-12.580505 -8.8196292e-17 3.0456276e-30)
(-12.554425 0 -8.8176159e-17)
(-12.528352 8.8155781e-17 -8.8155781e-17)
(-12.502284 -1.2524763e-32 8.8135185e-17)
(-12.476224 -8.81144e-17 1.762288e-16)
(-12.45017 8.8093454e-17 -1.7618691e-16)
(-12.424122 -2.5031676e-32 5.0063351e-32)
(-12.398082 2.5025657e-32 2.6415361e-16)
(-12.372048 8.802996e-17 -1.7605992e-16)
(-12.34602 8.8008677e-17 -9.1549668e-30)
(-12.32 3.063421e-30 1.7597477e-16)
(-12.293986 -8.7966104e-17 -2.6389831e-16)
(-12.267978 0 8.7944865e-17)
(-12.241978 -8.7923689e-17 8.7923689e-17)
(-12.215983 -9.1189483e-30 -8.7902595e-17)
(-12.189996 -3.0722267e-30 8.78816e-17)
(-12.164015 8.7860718e-17 8.7860718e-17)
(-12.138041 8.7839963e-17 3.0582883e-30)
(-12.112073 -1.7563869e-16 -1.7563869e-16)
(-12.086112 -6.076284e-30 -6.076284e-30)
(-12.060157 8.7778534e-17 -8.7778534e-17)
(-12.034209 0 -8.7758353e-17)
(-12.008267 0 -3.0796863e-30)
(-11.982331 -8.7718441e-17 6.1081147e-30)
(-11.956401 -6.0818151e-30 1.7539741e-16)
(-11.930478 1.7535823e-16 8.7679116e-17)
(-11.904561 -8.7659663e-17 -8.7659663e-17)
(-11.87865 -1.7528069e-16 1.2454442e-32)
(-11.852745 0 8.7621152e-17)
(-11.826846 8.760208e-17 0)
(-11.800953 8.7583122e-17 -8.7583122e-17)
(-11.775066 -8.756427e-17 -3.0486896e-30)
(-11.749186 -8.7545517e-17 8.7545517e-17)
(-11.723311 0 -8.7526856e-17)
(-11.697442 0 -8.7508281e-17)
(-11.671578 8.7489784e-17 1.7497957e-16)
(-11.645721 8.747136e-17 8.747136e-17)
(-11.619869 0 -2.62359e-16)
(-11.594024 -8.7434704e-17 -8.7434704e-17)
(-11.568184 3.0559661e-30 2.6224938e-16)
(-11.54235 8.7398268e-17 -8.7398268e-17)
(-11.516521 -8.738012e-17 -8.738012e-17)
(-11.490699 2.4829778e-32 -4.9659556e-32)
(-11.464882 -3.053431e-30 -8.7343945e-17)
(-11.439071 -5.500046e-49 2.6197773e-16)
(-11.413265 1.7461581e-16 -6.1043422e-30)
(-11.387465 -3.7213935e-32 -1.7457986e-16)
(-11.361671 -8.7271978e-17 1.7454396e-16)
(-11.335883 0 8.725405e-17)
(-11.3101 -8.7236142e-17 -8.7236142e-17)
(-11.284323 8.7218254e-17 8.7218254e-17)
(-11.258552 8.7200384e-17 -8.7200384e-17)
(-11.232787 -1.7436506e-16 -1.7436506e-16)
(-11.207027 -8.7164691e-17 8.7164691e-17)
(-11.181272 1.7429373e-16 3.0093884e-30)
(-11.155524 8.7129055e-17 8.7129055e-17)
(-11.129781 -8.7111255e-17 1.7422251e-16)
(-11.104043 -8.7093468e-17 -8.7093468e-17)
(-11.078312 -8.7075691e-17 -8.7075691e-17)
(-11.052586 0 -8.7057925e-17)
(-11.026865 8.7040169e-17 -3.0304422e-30)
(-11.00115 8.7022423e-17 -3.0174577e-30)
(-10.975441 -8.7004686e-17 3.0292068e-30)
(-10.949738 -3.016228e-30 1.7397392e-16)
(-10.92404 8.696924e-17 8.696924e-17)
(-10.898347 -8.6951531e-17 -8.6951531e-17)
(-10.872661 -8.693383e-17 -1.7386766e-16)
(-10.84698 0 -8.6916138e-17)
(-10.821304 8.6898454e-17 -8.6898454e-17)
(-10.795634 8.6880778e-17 6.0250926e-30)
(-10.76997 -8.6863111e-17 1.7372622e-16)
(-10.744312 8.6845452e-17 -2.4682962e-32)
(-10.718659 -4.9355891e-32 2.4677945e-32)
(-10.693011 -8.6810159e-17 4.8205677e-48)
(-10.667369 8.6792524e-17 8.6792524e-17)
(-10.641733 -8.6774898e-17 -6.0177499e-30)
(-10.616103 6.041186e-30 1.2082372e-29)
(-10.590478 8.6739669e-17 8.6739669e-17)
(-10.564858 -8.6722067e-17 -8.6722067e-17)
(-10.539244 8.6704472e-17 8.6704472e-17)
(-10.513636 8.6686886e-17 3.0058232e-30)
(-10.488033 -8.6669308e-17 -8.6669308e-17)
(-10.462436 0 8.6651737e-17)
(-10.436845 0 -1.2311457e-32)
(-10.411259 -8.661662e-17 -8.661662e-17)
(-10.385678 -8.6599074e-17 0)
(-10.360103 8.6581535e-17 8.6581535e-17)
(-10.334534 8.6564004e-17 5.9908231e-30)
(-10.30897 -8.6546481e-17 -1.7309296e-16)
(-10.283412 -6.0006948e-30 8.6528966e-17)
(-10.25786 8.6511459e-17 -2.4588036e-32)
(-10.232313 -8.649396e-17 -8.649396e-17)
(-10.206771 -8.6476469e-17 8.6476469e-17)
(-10.181235 0 -8.6458985e-17)
(-10.155705 8.644151e-17 8.644151e-17)
(-10.13018 8.6424042e-17 -3.6009637e-29)
(-10.104661 0 -2.396883e-29)
(-10.079147 -8.6389129e-17 8.6389129e-17)
(-10.053639 -8.6371685e-17 -1.7274337e-16)
(-10.028136 0 0)
(-10.002639 8.6336819e-17 -5.9873695e-30)
(-9.9771472 1.7958484e-29 -1.7958484e-29)
(-9.9516611 -8.6301983e-17 8.6301983e-17)
(-9.9261805 8.6284577e-17 8.6284577e-17)
(-9.9007054 8.6267179e-17 5.9457622e-30)
(-9.8752358 -8.6249788e-17 -8.6249788e-17)
(-9.8497718 -5.9556198e-30 8.6232405e-17)
(-9.8243132 5.929916e-30 5.929916e-30)
(-9.7988602 3.6748273e-32 3.6748273e-32)
(-9.7734127 8.61803e-17 1.1940783e-29)
(-9.7479707 -8.6162947e-17 -1.7232589e-16)
(-9.7225342 -1.1948218e-29 8.6145602e-17)
(-9.6971032 5.9239482e-30 8.6128263e-17)
(-9.6716777 -5.9227562e-30 -5.9227562e-30)
(-9.6462577 8.609361e-17 5.9337993e-30)
(-9.6208432 0 -1.7895675e-29)
(-9.5954342 0 5.9436427e-30)
(-9.5700306 -8.6041685e-17 -8.6041685e-17)
(-9.5446326 -8.6024391e-17 0)
(-9.51924 0 0)
(-9.4938529 0 0)
(-9.4684713 8.5972555e-17 0)
(-9.4430952 5.2400644e-49 -8.5955291e-17)
(-9.4177245 -8.5938034e-17 1.791578e-29)
(-9.3923594 0 8.5920784e-17)
(-9.3669996 8.5903542e-17 8.5903542e-17)
(-9.3416454 -8.5886307e-17 -8.5886307e-17)
(-9.3162966 -2.3795324e-29 -8.5869079e-17)
(-9.2909533 1.7170372e-16 1.7170372e-16)
(-9.2656154 -8.5834645e-17 5.9403465e-30)
(-9.240283 -1.7817467e-29 -1.7817467e-29)
(-9.2149561 -1.2192947e-32 -8.580024e-17)
(-9.1896346 -8.5783048e-17 -8.5783048e-17)
(-9.1643185 8.5765863e-17 8.5765863e-17)
(-9.1390079 -1.2185621e-32 0)
(-9.1137028 -1.1866418e-29 8.5731515e-17)
(-9.0884031 5.9320214e-30 5.9320214e-30)
(-9.0631088 -8.5697196e-17 -8.5697196e-17)
(-9.03782 0 -8.5680046e-17)
(-9.0125366 8.5662904e-17 1.1929962e-29)
(-8.9872586 5.927275e-30 8.5645769e-17)
(-8.9619861 2.3765201e-29 -1.7125728e-16)
(-8.936719 8.561152e-17 8.561152e-17)
(-8.9114573 0 8.5594405e-17)
(-8.8862011 -8.5577298e-17 -8.5577298e-17)
(-8.8609503 -8.5560198e-17 8.5560198e-17)
(-8.8357049 0 0)
(-8.8104649 0 0)
(-8.7852303 0 0)
(-8.7600012 8.5491865e-17 8.5491865e-17)
(-8.7347774 5.9154427e-30 -8.5474799e-17)
(-8.7095591 -8.545774e-17 -1.7091548e-16)
(-8.6843461 0 8.5440687e-17)
(-8.6591386 0 -5.9361811e-30)
(-8.6339365 8.5406603e-17 8.5406603e-17)
(-8.6087398 8.538957e-17 8.538957e-17)
(-8.5835484 -8.5372545e-17 -1.7074509e-16)
(-8.5583625 -8.5355526e-17 2.42595e-32)
(-8.533182 0 -2.4254664e-32)
(-8.5080068 8.5321508e-17 8.5321508e-17)
(-8.4828371 8.5304509e-17 8.5304509e-17)
(-8.4576727 -8.5287516e-17 -1.7057503e-16)
(-8.4325137 -8.527053e-17 1.2117671e-32)
(-8.4073601 0 -1.7760968e-29)
(-8.3822119 8.5236577e-17 8.5236577e-17)
(-8.3570691 -2.366379e-29 -4.732758e-29)
(-8.3319316 -5.9087161e-30 -1.1817432e-29)
(-8.3067995 8.5185696e-17 8.5185696e-17)
(-8.2816728 -8.5168748e-17 -8.5168748e-17)
(-8.2565514 -8.5151806e-17 0)
(-8.2314354 0 -8.5134871e-17)
(-8.2063248 8.5117942e-17 8.5117942e-17)
(-8.1812196 -1.1827523e-29 8.5101019e-17)
(-8.1561197 8.5084103e-17 -8.5084103e-17)
(-8.1310251 1.1798644e-29 0)
(-8.1059359 -1.7010058e-16 -8.5050288e-17)
(-8.0808521 8.5033389e-17 8.5033389e-17)
(-8.0557737 -1.1791613e-29 8.5016496e-17)
(-8.0307005 -2.9509415e-29 -2.9509415e-29)
(-8.0056328 -5.881388e-30 -1.6996546e-16)
(-7.9805703 -8.4965854e-17 -1.6993171e-16)
(-7.9555133 8.4948985e-17 2.5484696e-16)
(-7.9304615 8.4932122e-17 1.6986424e-16)
(-7.9054152 0 0)
(-7.8803741 -8.4898413e-17 -1.6979683e-16)
(-7.8553384 -8.4881566e-17 -8.4881566e-17)
(-7.830308 0 8.4864726e-17)
(-7.805283 8.4847891e-17 8.4847891e-17)
(-7.7802633 8.4831061e-17 8.4831061e-17)
(-7.7552489 -1.6962847e-16 -1.6962847e-16)
(-7.7302398 -8.4797418e-17 -1.6959484e-16)
(-7.7052361 8.4780605e-17 8.4780605e-17)
(-7.6802377 8.4763797e-17 1.6952759e-16)
(-7.6552446 2.3508467e-29 2.3508467e-29)
(-7.6302569 -8.4730196e-17 -1.6946039e-16)
(-7.6052744 8.4713404e-17 8.4713404e-17)
(-7.5802973 -5.8736232e-30 -1.1747246e-29)
(-7.5553255 -8.4679834e-17 -8.4679834e-17)
(-7.530359 8.4663057e-17 1.6932611e-16)
(-7.5053978 -5.8821617e-30 -8.4646284e-17)
(-7.480442 5.8930231e-30 1.1786046e-29)
(-7.4554914 -2.4048391e-32 8.4612754e-17)
(-7.4305462 -5.8426017e-30 -8.4595996e-17)
(-7.4056062 8.4579243e-17 8.4579243e-17)
(-7.3806716 0 -1.6912499e-16)
(-7.3557422 0 3.5275082e-29)
(-7.3308182 -8.4529012e-17 1.6905802e-16)
(-7.3058995 -8.4512277e-17 -1.6902455e-16)
(-7.280986 0 -5.8476717e-30)
(-7.2560779 0 8.447882e-17)
(-7.231175 0 0)
(-7.2062775 0 0)
(-7.1813852 8.4428668e-17 8.4428668e-17)
(-7.1564983 5.8178955e-30 -8.4411959e-17)
(-7.1316166 -1.6879051e-16 -1.6879051e-16)
(-7.1067402 3.5972741e-32 8.4378554e-17)
(-7.0818691 8.4361857e-17 -2.3977082e-32)
(-7.0570033 8.4345164e-17 8.4345164e-17)
(-7.0321427 -1.170817e-29 8.4328475e-17)
(-7.0072875 -1.168189e-29 -8.431179e-17)
(-6.9824375 -1.1979055e-32 0)
(-6.9575928 -8.4278431e-17 -8.4278431e-17)
(-6.9327534 -8.4261756e-17 -8.4261756e-17)
(-6.9079192 -8.4245086e-17 0)
(-6.8830904 1.6845684e-16 1.6845684e-16)
(-6.8582668 2.5263527e-16 8.4211755e-17)
(-6.8334484 -8.4195095e-17 -1.6839019e-16)
(-6.8086354 -1.6835688e-16 5.8257256e-30)
(-6.7838276 0 -2.3920218e-32)
(-6.7590251 8.4145134e-17 8.4145134e-17)
(-6.7342279 8.4128486e-17 8.4128486e-17)
(-6.7094359 -8.4111842e-17 -8.4111842e-17)
(-6.6846492 2.3901294e-32 8.4095201e-17)
(-6.6598677 -3.5844847e-32 -8.4078563e-17)
(-6.6350916 2.3891837e-32 4.7783673e-32)
(-6.6103207 8.4045295e-17 1.6809059e-16)
(-6.585555 8.4028665e-17 -8.4028665e-17)
(-6.5607946 -8.4012038e-17 -8.4012038e-17)
(-6.5360395 -1.6799083e-16 -8.3995413e-17)
(-6.5112896 8.3978792e-17 -1.1647686e-29)
(-6.486545 5.0814703e-49 8.3962172e-17)
(-6.4618056 8.3945555e-17 0)
(-6.4370715 2.3257689e-29 0)
(-6.4123427 -1.6782466e-16 -8.3912329e-17)
(-6.3876191 0 1.1648086e-29)
(-6.3629007 0 -2.327964e-29)
(-6.3381876 1.6772501e-16 -1.1655392e-29)
(-6.3134798 -4.6564678e-29 8.3845904e-17)
(-6.2887772 -1.676586e-16 -8.3829302e-17)
(-6.2640799 0 1.1910502e-32)
(-6.2393878 8.3796106e-17 8.3796106e-17)
(-6.2147009 8.3779511e-17 0)
(-6.1900193 -8.3762918e-17 0)
(-6.165343 1.1901069e-32 0)
(-6.1406719 -1.1625041e-29 0)
(-6.116006 1.1896354e-32 0)
(-6.0913454 8.3696562e-17 0)
(-6.06669 -8.3679977e-17 0)
(-6.0420399 -8.3663393e-17 -8.3663393e-17)
(-6.017395 0 0)
(-5.9927553 8.3630231e-17 8.3630231e-17)
(-5.9681209 -1.1608924e-29 0)
(-5.9434918 -8.3597074e-17 -8.3597074e-17)
(-5.9188678 1.6716099e-16 -2.3184886e-29)
(-5.8942491 -2.3180288e-29 8.3563922e-17)
(-5.8696357 -8.3547347e-17 0)
(-5.8450275 -2.3194834e-29 0)
(-5.8204245 -1.670284e-16 -8.3514202e-17)
(-5.7958268 1.6699526e-16 -1.1592815e-29)
(-5.7712343 8.348106e-17 8.348106e-17)
(-5.746647 -8.3464491e-17 0)
(-5.722065 -1.1858663e-32 0)
(-5.6974882 -8.3431355e-17 -8.3431355e-17)
(-5.6729166 0 -8.3414788e-17)
(-5.6483503 0 8.3398222e-17)
(-5.6237892 8.3381656e-17 8.3381656e-17)
(-5.5992333 -1.1562567e-29 0)
(-5.5746827 -1.6669705e-16 -8.3348527e-17)
(-5.5501373 1.1842184e-32 1.1842184e-32)
(-5.5255971 2.499462e-16 8.33154e-17)
(-5.5010622 -8.3298837e-17 -8.3298837e-17)
(-5.4765325 -8.3282274e-17 -8.3282274e-17)
(-5.452008 1.6653142e-16 8.3265712e-17)
(-5.4274888 -8.3249151e-17 8.3249151e-17)
(-5.4029748 8.3232589e-17 0)
(-5.378466 1.6643206e-16 -8.3216028e-17)
(-5.3539624 -8.3199467e-17 -8.3199467e-17)
(-5.3294641 -8.3182906e-17 8.3182906e-17)
(-5.304971 -8.3166345e-17 8.3166345e-17)
(-5.2804832 8.3149785e-17 0)
(-5.2560005 1.0230423e-48 -8.3133224e-17)
(-5.2315231 -8.3116664e-17 -8.3116664e-17)
(-5.2070509 8.3100104e-17 8.3100104e-17)
(-5.182584 -8.3083543e-17 8.3083543e-17)
(-5.1581223 8.3066983e-17 0)
(-5.1336658 2.3014241e-29 0)
(-5.1092145 2.3599643e-32 0)
(-5.0847685 8.3017302e-17 0)
(-5.0603276 -1.6600148e-16 0)
(-5.035892 8.2984181e-17 0)
(-5.0114617 2.3038457e-29 0)
(-4.9870365 -2.3010283e-29 0)
(-4.9626166 -8.29345e-17 -8.29345e-17)
(-4.9382019 -1.6583588e-16 -8.2097191e-48)
(-4.9137925 2.4870414e-16 8.2901379e-17)
(-4.8893882 2.2991908e-29 0)
(-4.8649892 -4.5974628e-29 0)
(-4.8405954 2.2959172e-29 0)
(-4.8162069 -1.6567028e-16 -8.2835138e-17)
(-4.7918235 1.6563716e-16 -1.1486766e-29)
(-4.7674454 -2.2968939e-29 8.2802019e-17)
(-4.7430725 -1.6557092e-16 -8.278546e-17)
(-4.7187049 0 1.1491638e-29)
(-4.6943424 0 -1.1759815e-32)
(-4.6699852 8.2735786e-17 -1.1487041e-29)
(-4.6456332 -1.1472987e-29 8.2719229e-17)
(-4.6212864 -8.2702673e-17 -8.2702673e-17)
(-4.5969449 -8.2686118e-17 8.2686118e-17)
(-4.5726085 8.2669564e-17 -4.5934882e-29)
(-4.5482774 2.4795903e-16 -8.2653011e-17)
(-4.5239515 -8.263646e-17 8.263646e-17)
(-4.4996308 -8.2619911e-17 0)
(-4.4753154 -2.3477288e-32 0)
(-4.4510051 -8.2586818e-17 -8.2586818e-17)
(-4.4267001 0 -1.1464061e-29)
(-4.4024003 1.6510747e-16 8.2553735e-17)
(-4.3781057 1.650744e-16 -8.2537198e-17)
(-4.3538163 -8.2520664e-17 -8.2520664e-17)
(-4.3295321 -1.6500827e-16 0)
(-4.3052531 -8.2487608e-17 8.2487608e-17)
(-4.2809794 1.6494217e-16 8.2471087e-17)
(-4.2567108 1.6490914e-16 -8.2454571e-17)
(-4.2324475 -1.6487612e-16 -2.2879694e-29)
(-4.2081893 -1.6484311e-16 2.0556367e-48)
(-4.1839364 0 -1.1441122e-29)
(-4.1596887 1.6477713e-16 8.2388567e-17)
(-4.1354461 -8.2372085e-17 -8.2372085e-17)
(-4.1112088 -1.6471122e-16 -8.2057174e-48)
(-4.0869766 8.2339146e-17 -1.1431971e-29)
(-4.0627496 8.2322692e-17 -8.2322692e-17)
(-4.0385278 -1.1696421e-32 0)
(-4.0143112 1.1425122e-29 0)
(-3.9900998 8.2273399e-17 8.2273399e-17)
(-3.9658936 -8.2256995e-17 1.1689422e-32)
(-3.9416925 -8.2240605e-17 -3.4219808e-29)
(-3.9174965 8.2224232e-17 8.2224232e-17)
(-3.8933058 -1.1402063e-29 0)
(-3.8691202 -1.168012e-32 0)
(-3.8449397 -1.1397534e-29 -8.2175222e-17)
(-3.8207644 -8.2158926e-17 2.2778872e-29)
(-3.7965942 8.2142653e-17 8.2142653e-17)
(-3.7724291 -3.4207302e-29 0)
(-3.7482692 -1.1400181e-29 0)
(-3.7241144 -2.2784199e-29 0)
(-3.6999646 -8.2077815e-17 -8.2077815e-17)
(-3.67582 8.2061677e-17 1.1661666e-32)
(-3.6516804 -1.1391211e-29 8.2045571e-17)
(-3.627546 -2.2742988e-29 -8.2029498e-17)
(-3.6034166 -1.1654814e-32 8.2013461e-17)
(-3.5792922 -1.6399492e-16 -2.2792368e-29)
(-3.5551729 -8.1981497e-17 -1.6396299e-16)
(-3.5310586 8.1965574e-17 8.1965574e-17)
(-3.5069494 1.6389938e-16 3.4133698e-29)
(-3.4828451 -1.13757e-29 1.13757e-29)
(-3.4587459 -1.6383611e-16 -1.1373507e-29)
(-3.4346516 -8.1902305e-17 -8.1902305e-17)
(-3.4105623 1.637732e-16 0)
(-3.3864779 8.1870941e-17 0)
(-3.3623985 -8.185533e-17 8.185533e-17)
(-3.338324 -8.1839765e-17 1.1362637e-29)
(-3.3142545 -2.2709338e-29 -2.2709338e-29)
(-3.2901898 8.1808778e-17 4.676386e-49)
(-3.26613 0 -8.1793353e-17)
(-3.2420751 0 8.1777973e-17)
(-3.218025 8.1762636e-17 8.1762636e-17)
(-3.1939798 0 0)
(-3.1699394 -8.1732079e-17 -8.1732079e-17)
(-3.1459038 8.1716853e-17 -1.1345572e-29)
(-3.1218731 1.1610504e-32 8.1701655e-17)
(-3.0978471 -2.2671102e-29 0)
(-3.073826 0 0)
(-3.0498096 -8.1656174e-17 -8.1656174e-17)
(-3.025798 8.1641024e-17 2.3203775e-32)
(-3.0017913 8.1625865e-17 4.5538741e-49)
(-2.9777893 -1.6322137e-16 -8.1610684e-17)
(-2.9537921 -8.1595469e-17 8.1595469e-17)
(-2.9297998 8.1580204e-17 -1.1303413e-29)
(-2.9058122 0 1.1324471e-29)
(-2.8818296 0 -2.2633072e-29)
(-2.8578518 -8.1533934e-17 -8.1533934e-17)
(-2.8338789 2.264759e-29 8.1518284e-17)
(-2.809911 8.150248e-17 -2.2631617e-29)
(-2.7859481 0 2.2638758e-29)
(-2.7619903 0 -2.2634257e-29)
(-2.7380376 -8.1453851e-17 -8.1453851e-17)
(-2.7140901 3.3931776e-29 8.1437123e-17)
(-2.6901479 8.1420072e-17 -2.2608734e-29)
(-2.6662111 0 1.1325085e-29)
(-2.6422798 0 0)
(-2.6183542 0 -8.1366522e-17)
(-2.5944343 0 8.1347701e-17)
(-2.5705204 0 -1.1291625e-29)
(-2.5466126 0 1.1554597e-32)
(-2.5227111 0 -1.1285959e-29)
(-2.4988161 0 1.1294515e-29)
(-2.474928 1.6248702e-16 8.124351e-17)
(-2.4510469 4.5083345e-29 -8.1220132e-17)
(-2.4271731 -8.1195708e-17 -8.1195708e-17)
(-2.403307 8.1170142e-17 8.1170142e-17)
(-2.3794489 -8.114333e-17 8.114333e-17)
(-2.3555992 8.1115165e-17 0)
(-2.3317583 -2.2538884e-29 -8.1085529e-17)
(-2.3079267 -8.1054302e-17 -8.1054302e-17)
(-2.2841048 -2.2498017e-29 0)
(-2.2602931 -8.0986545e-17 8.0986545e-17)
(-2.2364923 0 -1.1239066e-29)
(-2.2127029 0 1.1498113e-32)
(-2.1889256 8.0869505e-17 1.1216434e-29)
(-2.1651611 2.2443705e-29 -8.0825758e-17)
(-2.1414101 -8.0779361e-17 8.0779361e-17)
(-2.1176735 0 1.1197103e-29)
(-2.0939521 0 -2.2402643e-29)
(-2.0702468 0 -8.0622421e-17)
(-2.0465585 0 -8.0563535e-17)
(-2.0228884 0 1.6100203e-16)
(-1.9992375 0 -1.143045e-32)
(-1.975607 0 1.1146347e-29)
(-1.9519981 1.6057882e-16 8.0289411e-17)
(-1.9284121 -6.6772633e-29 -8.0210078e-17)
(-1.9048503 -1.6025187e-16 1.1124689e-29)
(-1.8813143 8.0036724e-17 8.0036724e-17)
(-1.8578056 1.1360467e-32 0)
(-1.8343257 7.984204e-17 0)
(-1.8108763 -4.4214225e-29 0)
(-1.7874593 -1.5924768e-16 -7.962384e-17)
(-1.7640764 -7.9505213e-17 -7.9505213e-17)
(-1.7407295 -5.9394176e-48 7.9379846e-17)
(-1.7174208 2.3774232e-16 7.9247441e-17)
(-1.6941523 0 0)
(-1.6709262 -1.5792062e-16 -7.8960312e-17)
(-1.6477448 0 -7.8804975e-17)
(-1.6246104 0 7.8641378e-17)
(-1.6015256 1.5693842e-16 7.8469208e-17)
(-1.5784929 -2.1716812e-29 0)
(-1.555515 -2.3429371e-16 -7.8097902e-17)
(-1.5325945 7.7898141e-17 -7.7898141e-17)
(-1.5097344 7.7688558e-17 7.7688558e-17)
(-1.4869375 -7.7468846e-17 2.1511557e-29)
(-1.4642069 7.7238699e-17 -7.7238699e-17)
(-1.4415456 -7.6997813e-17 0)
(-1.418957 -2.1288995e-29 0)
(-1.3964442 7.6482644e-17 0)
(-1.3740106 -7.6207782e-17 0)
(-1.3516596 0 7.5921029e-17)
(-1.3293949 -7.5622115e-17 -2.0977263e-29)
(-1.3072199 7.5310778e-17 -7.5310778e-17)
(-1.2851385 1.4997354e-16 7.4986769e-17)
(-1.2631542 -7.4649848e-17 1.0364389e-29)
(-1.241271 -7.4299788e-17 -1.0326345e-29)
(-1.2194928 -7.3936373e-17 1.7594146e-47)
(-1.1978235 -7.3559405e-17 7.3559405e-17)
(-1.176267 1.4633739e-16 7.3168697e-17)
(-1.1548275 7.2764078e-17 -1.4552816e-16)
(-1.1335091 -7.2345396e-17 -1.0044438e-29)
(-1.1123158 0 9.9741178e-30)
(-1.091252 7.1465316e-17 -7.1465316e-17)
(-1.0703217 -7.10037e-17 0)
(-1.0495293 -7.0527589e-17 7.0527589e-17)
(-1.028879 2.1011077e-16 7.0036923e-17)
(-1.0083751 1.9762088e-32 -6.9531664e-17)
(-0.98802189 -1.3802359e-16 -1.9143588e-29)
(-0.96782362 6.8477326e-17 6.8477326e-17)
(-0.94778458 9.4311658e-30 0)
(-0.92790906 6.736471e-17 0)
(-0.9082013 -1.8981919e-32 -6.6786692e-17)
(-0.88866553 -1.3238865e-16 9.1810164e-30)
(-0.86930595 6.5587727e-17 6.5587727e-17)
(-0.8501267 0 0)
(-0.8311319 -1.7863845e-29 -6.4332464e-17)
(-0.8123256 -9.0500638e-33 9.0500638e-33)
(-0.7937118 -6.3022366e-17 -1.7500057e-29)
(-0.77529441 6.2347317e-17 -8.6474446e-30)
(-0.75707729 -1.7121557e-29 6.1659285e-17)
(-0.73906421 -8.4548268e-30 -6.095856e-17)
(-0.72125886 -8.5613943e-33 8.5613943e-33)
(-0.7036648 -5.9520313e-17 -1.6527607e-29)
(-0.68628552 5.8783489e-17 -5.8783489e-17)
(-0.66912441 3.6151173e-47 5.8035367e-17)
(-0.6521847 -1.5904503e-29 1.5904503e-29)
(-0.63546955 -8.0301085e-33 8.0301085e-33)
(-0.61898195 -1.1145471e-16 -7.7371885e-30)
(-0.60272478 -7.6198262e-30 -5.4938279e-17)
(-0.58670078 5.4140124e-17 5.4140124e-17)
(-0.57091254 0 0)
(-0.55536251 0 -2.9159269e-29)
(-0.54005297 -5.1696249e-17 -7.1701633e-30)
(-0.52498605 -2.1165412e-29 -2.1165412e-29)
(-0.51016373 5.0031164e-17 -7.1098561e-33)
(-0.49558781 -4.9189546e-17 -4.9189546e-17)
(-0.48125992 6.7118956e-30 4.8342647e-17)
(-0.46718153 1.6407313e-46 1.6407313e-46)
(-0.45335393 -6.4748591e-30 -6.4748591e-30)
(-0.43977822 4.5776224e-17 1.2711147e-29)
(-0.42645534 4.4914193e-17 -6.2358889e-30)
(-0.41338603 6.1096315e-30 8.8099815e-17)
(-0.40057088 -4.3183986e-17 -4.3183986e-17)
(-0.38801027 0 -4.2317051e-17)
(-0.37570441 0 -5.7548817e-30)
(-0.36365331 4.0582624e-17 5.6344936e-30)
(-0.35185683 -3.9716372e-17 7.9432745e-17)
(-0.34031461 3.234285e-29 -3.8851583e-17)
(-0.32902615 3.7988865e-17 -3.7988865e-17)
(-0.31799074 -3.7128825e-17 4.1284028e-47)
(-0.30720751 0 0)
(-0.29667541 3.5419153e-17 4.0917143e-47)
(-0.28639323 3.4570689e-17 -3.4570689e-17)
(-0.27635957 -3.3727234e-17 3.3727234e-17)
(-0.26657287 -3.2889344e-17 4.0160607e-47)
(-0.25703144 0 -4.4463178e-30)
(-0.24773339 3.1232415e-17 -4.4383932e-33)
(-0.2386767 3.0414421e-17 -3.0414421e-17)
(-0.2298592 -5.9208151e-17 5.9208151e-17)
(-0.22127857 -2.8801861e-17 7.9977036e-30)
(-0.21293235 2.8008242e-17 -2.8008242e-17)
(-0.20481795 2.7223664e-17 3.7758662e-30)
(-0.19693266 3.6683601e-30 -3.6683601e-30)
(-0.18927363 2.5683322e-17 2.5683322e-17)
(-0.18183791 6.9221079e-30 -2.4928354e-17)
(-0.17462243 -4.8368037e-17 -1.4222456e-46)
(-0.16762401 0 -9.7710055e-30)
(-0.16083938 0 6.3145122e-30)
(-0.15426518 0 -6.110877e-30)
(-0.14789795 2.1319611e-17 -5.9200316e-30)
(-0.14173417 2.0633209e-17 3.2737589e-47)
(-0.13577023 0 0)
(-0.13000245 -1.9297795e-17 1.9297795e-17)
(-0.12442712 -2.5839546e-30 0)
(-0.11904044 1.8013569e-17 0)
(-0.11383857 0 -1.7391072e-17)
(-0.10881765 0 -4.6599813e-30)
(-0.10397376 -1.6185963e-17 1.6185963e-17)
(-0.09930297 -2.1641799e-30 0)
(-0.094801308 2.0831394e-30 0)
(-0.090464797 -1.4479337e-17 -2.8958675e-17)
(-0.086289448 1.3937619e-17 -1.1602676e-29)
(-0.082271264 -5.5796142e-30 2.681902e-17)
(-0.078406248 -1.2895001e-17 -1.2895001e-17)
(-0.07469041 0 1.7613027e-33)
(-0.07111977 -1.1906658e-17 -1.6531211e-30)
(-0.067690362 -1.5873192e-30 -1.1432718e-17)
(-0.064398243 1.0972167e-17 0)
(-0.061239492 -1.0524912e-17 0)
(-0.05821022 1.0090845e-17 0)
(-0.055306571 9.6698442e-18 -9.6698442e-18)
(-0.052524727 -9.2617739e-18 -2.569178e-30)
(-0.04986091 0 8.8664863e-18)
(-0.047311389 8.4838213e-18 0)
(-0.044872482 8.1136079e-18 0)
(-0.042540556 -7.7556644e-18 -7.7556644e-18)
(-0.040312036 -7.4097996e-18 1.0529959e-33)
(-0.038183402 0 7.0758134e-18)
(-0.036151196 -6.7534973e-18 0)
(-0.03421202 6.4426355e-18 0)
(-0.032362542 6.1430054e-18 -6.1430054e-18)
(-0.030599497 -5.8543783e-18 -1.6239804e-30)
(-0.028919685 -1.115304e-17 -1.5492811e-30)
(-0.027319979 2.948514e-30 1.474257e-30)
(-0.025797319 1.5156455e-17 5.0521515e-18)
(-0.02434872 1.1653027e-47 -4.8051523e-18)
(-0.022971269 -4.5679456e-18 1.2677784e-30)
(-0.021662124 -8.6805605e-18 -1.2045927e-30)
(-0.020418519 2.2867983e-30 1.1433991e-30)
(-0.019237763 7.825125e-18 3.9125625e-18)
(-0.018117238 -3.7120024e-18 0)
(-0.017054402 3.5199695e-18 0)
(-0.016046786 -3.3362102e-18 -3.3362102e-18)
(-0.015091996 -3.1604721e-18 -2.0677687e-46)
(-0.014187712 5.9850081e-18 2.992504e-18)
(-0.013331688 0 0)
(-0.01252175 0 0)
(-0.011755797 -5.0654801e-18 -2.53274e-18)
(-0.011031798 -5.2392017e-47 -1.0478403e-46)
(-0.010347794 4.5211579e-18 2.2605789e-18)
(-0.0097018943 0 0)
(-0.0090922773 0 0)
(-0.0085171883 -3.7982697e-18 -1.8991349e-18)
(-0.0079749386 -4.088678e-47 -8.1773559e-47)
(-0.0074639043 3.3734525e-18 1.6867263e-18)
(-0.0069825247 0 0)
(-0.0065293013 0 0)
(-0.0061027962 -2.8132635e-18 -1.4066318e-18)
(-0.0057016304 -1.3227189e-18 1.8796966e-34)
(-0.0053244827 2.4864102e-18 1.2432051e-18)
(-0.0049700879 1.1679021e-18 -1.1679021e-18)
(-0.0046372354 0 3.0466723e-31)
(-0.0043247677 -2.0584019e-18 -2.8593488e-31)
(-0.0040315787 5.3617394e-31 2.6808697e-31)
(-0.0037566123 1.8104286e-18 9.0521431e-19)
(-0.0034988605 -8.4832429e-19 0)
(-0.0032573624 0 0)
(-0.0030312021 7.4396812e-19 0)
(-0.0028195074 -6.962047e-19 0)
(-0.0026214482 9.2540358e-35 0)
(-0.0024362354 6.0880297e-19 -6.0880297e-19)
(-0.0022631184 -5.6889833e-19 1.578909e-31)
(-0.0021013849 5.3135532e-19 5.3135532e-19)
(-0.0019503583 4.9605318e-19 0)
(-0.0018093971 -4.6287599e-19 0)
(-0.0016778929 -4.3171252e-19 0)
(-0.0015552697 1.1175407e-31 0)
(-0.0014409817 3.750048e-19 0)
(-0.0013345129 -3.4926075e-19 0)
(-0.001235375 -9.028229e-32 0)
(-0.0011431069 3.0252502e-19 -3.0252502e-19)
(-0.0010572729 -2.8135888e-19 1.5617556e-31)
(-0.0009774617 2.6155087e-19 2.6155087e-19)
(-0.00090328562 2.4302354e-19 0)
(-0.00083437897 -2.257031e-19 0)
(-0.00077039732 -2.0951934e-19 0)
(-0.00071101633 5.3982531e-32 0)
(-0.00065593082 1.8029805e-19 0)
(-0.00060485379 -1.6713684e-19 0)
(-0.00055751547 2.2007591e-35 0)
(-0.00051366249 1.4342729e-19 -1.4342729e-19)
(-0.00047305698 -1.327734e-19 3.6849663e-32)
(-0.00043547577 1.2285435e-19 1.2285435e-19)
(-0.00040070958 1.1362414e-19 0)
(-0.00036856231 -1.0503926e-19 0)
(-0.00033885029 -1.9411722e-19 -9.7058609e-20)
(-0.00031140157 4.9809852e-32 2.4904926e-32)
(-0.00028605531 1.65514e-19 8.2756998e-20)
(-0.00026266112 -7.6364897e-20 0)
(-0.00024107846 1.0009354e-35 0)
(-0.00022117606 1.2987074e-19 0)
(-0.00020283143 1.7007123e-35 -5.9838494e-20)
(-0.00018593025 -5.511683e-20 -1.531268e-32)
(-0.00017036595 0 5.0744908e-20)
(-0.00015603924 4.6698805e-20 0)
(-0.00014285761 0 0)
(-0.00013073497 -3.9495646e-20 0)
(-0.00011959122 0 0)
(-0.00010935187 0 0)
(-9.9947712e-05 0 0)
(-9.1314451e-05 -2.8100563e-20 0)
(-8.33924e-05 -1.0722419e-49 -2.5779548e-20)
(-7.612618e-05 2.3639808e-20 3.3594188e-36)
(-6.9464436e-05 0 2.1668127e-20)
(-6.3359566e-05 1.985217e-20 0)
(-5.7767476e-05 -5.0483441e-33 0)
(-5.2647337e-05 -1.6642187e-20 0)
(-4.7961366e-05 0 0)
(-4.3674616e-05 0 0)
(-3.9754784e-05 0 0)
(-3.6172017e-05 -1.1634389e-20 0)
(-3.2898751e-05 2.9508747e-33 -1.0626886e-20)
(-2.9909542e-05 9.7024397e-21 -1.3787996e-36)
(-2.7180917e-05 0 8.8545967e-21)
(-2.4691228e-05 8.0773684e-21 0)
(-2.2420531e-05 2.0441237e-33 0)
(-2.035045e-05 -6.7129543e-21 0)
(-1.8464066e-05 0 -6.1158548e-21)
(-1.6745813e-05 5.5694919e-21 3.0922827e-33)
(-1.518137e-05 -5.0697823e-21 5.0697823e-21)
(-1.3757573e-05 2.5631604e-33 0)
(-1.2462329e-05 4.1955079e-21 -4.1955079e-21)
(-1.1284528e-05 -3.8142289e-21 -1.0596775e-33)
(-1.0213973e-05 0 3.4661388e-21)
(-9.241307e-06 -3.1484919e-21 0)
(-8.3579521e-06 -7.9381947e-34 0)
(-7.5560433e-06 2.5945953e-21 -2.5945953e-21)
(-6.8283749e-06 0 -2.3538615e-21)
(-6.1683505e-06 2.1345734e-21 2.1345734e-21)
(-5.5699297e-06 -1.9349095e-21 1.9349095e-21)
(-5.0275885e-06 -9.7365456e-34 0)
(-4.5362755e-06 1.587888e-21 0)
(-4.0913736e-06 -7.9816706e-34 0)
(-3.6886643e-06 -1.8487648e-37 0)
(-3.3242965e-06 3.269498e-34 1.176831e-21)
(-2.9947556e-06 -1.5121987e-37 -1.5121987e-37)
(-2.6968342e-06 -9.6180134e-22 -1.9236027e-21)
(-2.4276081e-06 0 -8.6896957e-22)
(-2.1844144e-06 7.8477806e-22 1.5695561e-21)
(-1.9648242e-06 -1.9662337e-34 1.4169114e-21)
(-1.7666268e-06 -1.7742908e-34 -6.3929656e-22)
(-1.5878117e-06 2.8665633e-51 -5.7665543e-22)
(-1.4265472e-06 -1.4437744e-34 0)
(-1.2811703e-06 0 0)
(-1.1501686e-06 -8.4437677e-22 0)
(-1.0321674e-06 -1.0557603e-34 0)
(-9.2591957e-07 3.4226416e-22 -3.4226416e-22)
(-8.3029381e-07 -3.0798473e-22 -8.5564999e-35)
(-7.4426073e-07 7.6885821e-35 2.7702809e-22)
(-6.6688884e-07 2.4908352e-22 0)
(-5.9733547e-07 2.2386877e-22 0)
(-5.3483375e-07 5.5848952e-35 0)
(-4.7869141e-07 -5.0155806e-35 0)
(-4.2828179e-07 1.6214801e-22 0)
(-3.8303639e-07 -1.4550431e-22 0)
(-3.4244219e-07 -1.3051784e-22 0)
(-3.0603696e-07 0 0)
(-2.7339936e-07 -1.0489285e-22 0)
(-2.4415089e-07 2.6096131e-35 0)
(-2.1795096e-07 8.4168354e-23 0)
(-1.9449082e-07 0 0)
(-1.7349177e-07 0 0)
(-1.5470235e-07 0 0)
(-1.37897e-07 -1.0788521e-22 -5.3942605e-23)
(-1.2287195e-07 5.3556491e-35 2.6778246e-35)