/*--------------------------------*- C++ -*----------------------------------*\
| =========                 |                                                 |
| \\      /  F ield         | OpenFOAM: The Open Source CFD Toolbox           |
|  \\    /   O peration     | Version:  4.x                                   |
|   \\  /    A nd           | Web:      www.OpenFOAM.org                      |
|    \\/     M anipulation  |                                                 |
\*---------------------------------------------------------------------------*/
FoamFile
{
    version     2.0;
    format      ascii;
    class       volScalarField;
    location    "0.71";
    object      T;
}
// * * * * * * * * * * * * * * * * * * * * * * * * * * * * * * * * * * * * * //

dimensions      [0 0 0 1 0 0 0];

internalField   nonuniform List<scalar> 
6279
(
300.0004541
300.0004302
300.0004044
300.0003692
300.000335
300.0002742
300.0002081
300.0001851
300.0002263
300.0003223
300.0004238
300.0005075
300.0005191
300.0004785
300.0004397
300.0003955
300.0003586
300.0003252
300.0003236
300.0003657
300.000456
300.0005646
300.0006558
300.0007091
300.0005868
300.0005345
300.0004897
300.0004429
300.0004057
300.0003934
300.0004164
300.0004818
300.0005955
300.0007225
300.0008154
300.0008712
300.0006592
300.000613
300.0005622
300.0005129
300.0004698
300.0004458
300.0004595
300.0005216
300.0006337
300.0007618
300.0008675
300.0009365
300.000462
300.0004475
300.0004057
300.0003685
300.0003223
300.0002485
300.0001783
300.0001585
300.0002002
300.0002966
300.0004055
300.0004849
300.0005245
300.0004858
300.0004331
300.0003922
300.0003442
300.0002964
300.0002805
300.000313
300.0003969
300.0005085
300.0006075
300.0006675
300.0005793
300.0005329
300.0004804
300.0004313
300.0003876
300.0003675
300.0003772
300.0004261
300.0005286
300.0006542
300.0007582
300.0008214
300.000638
300.0005949
300.0005449
300.0004904
300.0004461
300.0004259
300.000433
300.0004808
300.0005811
300.0007063
300.0008157
300.0008918
300.000466
300.000446
300.000403
300.0003611
300.0003012
300.0002232
300.0001557
300.0001337
300.0001673
300.0002577
300.0003707
300.0004621
300.0005217
300.0004846
300.0004279
300.0003836
300.0003221
300.0002686
300.0002428
300.0002615
300.0003309
300.0004411
300.0005461
300.0006182
300.0005684
300.0005257
300.0004675
300.0004158
300.0003651
300.0003388
300.0003346
300.0003694
300.0004592
300.0005788
300.0006884
300.0007606
300.0006125
300.0005698
300.0005182
300.0004631
300.0004204
300.0004002
300.0003985
300.0004356
300.0005246
300.000642
300.000755
300.000842
300.0004617
300.0004389
300.0003935
300.0003413
300.0002759
300.0002013
300.0001356
300.000113
300.0001442
300.0002242
300.0003323
300.0004255
300.000516
300.0004759
300.0004158
300.0003662
300.0003023
300.0002445
300.0002068
300.0002146
300.0002707
300.0003711
300.0004747
300.0005598
300.000552
300.0005063
300.00045
300.0003978
300.0003435
300.000304
300.000285
300.0003107
300.0003871
300.0004962
300.0006045
300.0006814
300.000589
300.0005445
300.0004923
300.0004382
300.0003932
300.0003641
300.0003549
300.0003854
300.0004609
300.0005694
300.0006751
300.0007624
300.0004515
300.0004233
300.000375
300.0003195
300.0002562
300.0001804
300.0001146
300.0000942
300.0001176
300.0001793
300.0002847
300.0003815
300.0005018
300.0004523
300.0003983
300.0003462
300.0002818
300.0002192
300.0001751
300.0001775
300.0002228
300.0003133
300.0004141
300.0005042
300.0005317
300.0004819
300.0004317
300.0003782
300.0003183
300.0002702
300.0002461
300.0002678
300.0003321
300.0004302
300.000536
300.000617
300.0005636
300.0005168
300.0004689
300.0004141
300.0003646
300.0003286
300.000316
300.0003431
300.0004093
300.0005075
300.000609
300.0006994
300.0004131
300.0003782
300.0003275
300.0002712
300.0002144
300.0001558
300.0001008
300.0000768
300.0000841
300.000113
300.0001906
300.000278
300.0004492
300.0003981
300.0003492
300.0002971
300.000233
300.0001717
300.0001263
300.0001173
300.0001412
300.0001978
300.0002811
300.0003677
300.0004735
300.000431
300.0003796
300.0003232
300.000261
300.0002067
300.0001766
300.0001856
300.0002229
300.0002923
300.0003847
300.0004684
300.0004938
300.0004562
300.0004116
300.0003552
300.0002988
300.0002565
300.0002398
300.0002555
300.0002985
300.00037
300.0004617
300.0005521
300.0004244
300.0003878
300.0003388
300.000274
300.0002099
300.0001509
300.0000977
300.0000731
300.0000915
300.0001437
300.0002315
300.000325
300.0004651
300.0004212
300.000367
300.0003027
300.0002348
300.0001714
300.000128
300.000124
300.0001591
300.0002313
300.000326
300.0004168
300.0004949
300.0004559
300.0004008
300.0003345
300.0002677
300.00021
300.0001823
300.0001962
300.0002441
300.000327
300.000426
300.0005075
300.0005325
300.0004793
300.0004278
300.0003628
300.0002987
300.000251
300.0002369
300.0002591
300.0003114
300.0003943
300.0004918
300.0005801
300.0004589
300.0004265
300.0003718
300.0002999
300.0002273
300.0001588
300.0001013
300.0000883
300.0001351
300.0002273
300.0003293
300.0004208
300.0005165
300.0004665
300.0004049
300.0003379
300.0002626
300.00019
300.0001509
300.0001631
300.0002197
300.0003183
300.0004377
300.0005259
300.000561
300.0005053
300.0004492
300.0003786
300.0003002
300.0002338
300.0002103
300.0002391
300.0003099
300.0004136
300.0005198
300.0006039
300.000611
300.0005429
300.0004789
300.000402
300.0003241
300.0002716
300.0002589
300.0002892
300.0003586
300.0004597
300.0005635
300.0006433
300.0004972
300.0004423
300.0003783
300.0002997
300.0002144
300.0001471
300.0000902
300.0000817
300.0001484
300.0002669
300.0003981
300.0005167
300.0005783
300.0005181
300.0004475
300.000351
300.0002615
300.0001819
300.0001447
300.000171
300.0002695
300.0004192
300.000531
300.0006074
300.0006343
300.0005778
300.0004838
300.0003919
300.0003011
300.000229
300.0002088
300.0002517
300.0003552
300.0004768
300.0005818
300.0006498
300.0006664
300.0006088
300.0005213
300.0004263
300.0003366
300.0002768
300.0002641
300.0003023
300.0003827
300.0004923
300.000594
300.0006548
300.0005496
300.0004914
300.0004064
300.0003222
300.0002172
300.0001302
300.0000686
300.0000955
300.0002275
300.000374
300.0005145
300.0005921
300.0006163
300.0005591
300.0004666
300.0003773
300.0002684
300.0001784
300.0001438
300.000198
300.0003252
300.0004547
300.0005646
300.000634
300.00065
300.000594
300.0005304
300.0004385
300.0003348
300.0002512
300.0002257
300.0002734
300.0003672
300.0004827
300.0005785
300.000643
300.0006643
300.0006373
300.0005883
300.000506
300.0004058
300.0003264
300.0002937
300.0003149
300.0003864
300.000497
300.0005843
300.0006275
300.0003642
300.0003695
300.0003127
300.0002292
300.0001224
300.0000202
299.999961
299.9999831
300.0000881
300.0002749
300.0004173
300.0004569
300.0004705
300.0004763
300.0004091
300.0003026
300.000186
300.0000809
300.0000257
300.0000741
300.000222
300.0004059
300.0005017
300.0005112
300.000546
300.0005461
300.0004952
300.0003716
300.0002465
300.0001484
300.0001162
300.0001778
300.0003117
300.0004657
300.0005456
300.0005552
300.0005705
300.0005669
300.0005278
300.0004318
300.0003169
300.0002249
300.0001906
300.0002328
300.0003363
300.0004693
300.0005404
300.0005568
300.0005429
300.0005685
300.0005355
300.0004444
300.0003373
300.000251
300.0002064
300.00022
300.0002963
300.000409
300.0004816
300.0004949
299.9999442
299.9999893
300.0001909
300.0001613
300.0000562
299.9999367
299.9998722
299.9999104
300.0000583
300.0001869
300.0000661
300.0000253
299.9999956
300.0000526
300.0002381
300.0002107
300.000114
300.0000005
299.999953
300.0000144
300.0001507
300.0002399
300.0000893
300.000035
299.9999995
300.0000296
300.000162
300.0002071
300.0001333
300.0000207
299.9999851
300.0000537
300.0001304
300.000128
300.0000331
300.0000142
299.9999443
299.9999673
300.0000618
300.0000779
300.0000151
299.9999321
299.9998909
299.9999091
299.9999557
299.9999683
299.9999335
299.999942
299.9999247
299.9999776
300.0000569
300.0000531
300.0000051
299.9999551
299.9999152
299.9998997
299.9999214
299.9999342
299.9999101
299.9999061
300.0005385
300.0006084
300.0006695
300.0007416
300.0006427
300.0007212
300.0007657
300.0008005
300.0006736
300.0007473
300.0007769
300.0007942
300.000644
300.0006981
300.000703
300.0006924
300.0005316
300.0005471
300.0005304
300.0005225
300.0002459
300.0002473
300.0002406
300.0002392
300.0005412
300.0006054
300.000658
300.0007131
300.0006314
300.0007034
300.0007524
300.0007804
300.000666
300.0007393
300.000775
300.0007812
300.0006456
300.0007037
300.0007135
300.0006994
300.0005343
300.0005606
300.000551
300.0005383
300.000242
300.0002509
300.0002531
300.0002491
300.0005368
300.0005937
300.0006422
300.0006959
300.0006113
300.0006844
300.0007344
300.0007609
300.0006516
300.0007292
300.0007638
300.0007696
300.000642
300.0007045
300.0007251
300.0007184
300.0005469
300.0005836
300.0005871
300.0005777
300.0002486
300.0002637
300.0002659
300.0002627
300.0005197
300.0005763
300.0006234
300.0006687
300.00059
300.0006601
300.0007073
300.00074
300.0006387
300.0007083
300.0007487
300.0007595
300.0006334
300.0006938
300.0007237
300.0007176
300.0005507
300.0005905
300.0006014
300.000576
300.00025
300.000261
300.0002663
300.0002471
300.0004953
300.0005486
300.0005932
300.0006356
300.0005579
300.0006261
300.0006761
300.0007103
300.0006164
300.0006864
300.0007293
300.0007442
300.0006212
300.0006879
300.0007214
300.0007246
300.0005684
300.0006217
300.0006394
300.0006355
300.0002769
300.0003129
300.000333
300.0003601
300.0004532
300.0004907
300.0005294
300.0005809
300.0005082
300.000572
300.0006184
300.0006588
300.0005681
300.0006398
300.0006793
300.0007006
300.0005764
300.0006419
300.0006776
300.0006819
300.0004904
300.0005376
300.0005586
300.0005042
300.0000509
300.0000276
300.0000449
299.9999555
300.000751
300.0006928
300.0006356
300.0005609
300.000486
300.0004362
300.0004271
300.0004737
300.0005796
300.0007152
300.0008258
300.0009088
300.0008055
300.0007678
300.000709
300.000615
300.0005147
300.0004321
300.0003865
300.0004014
300.0004985
300.0006338
300.0007421
300.0008301
300.0008045
300.0007852
300.0007431
300.0006572
300.0005417
300.0004361
300.0003671
300.0003597
300.0004371
300.0005594
300.0006664
300.0007532
300.0007177
300.0007466
300.0007388
300.0006811
300.0005874
300.0004773
300.0003991
300.0003891
300.000445
300.0005411
300.0006313
300.000704
300.0005562
300.0006191
300.0006612
300.0006425
300.000582
300.000504
300.0004521
300.0004355
300.0004567
300.0005124
300.0005633
300.0006041
300.0002553
300.0002932
300.000335
300.0003482
300.0003396
300.0003139
300.0002919
300.0002731
300.0002686
300.0002793
300.0002788
300.0002819
300.0007209
300.0006668
300.0006055
300.0005334
300.0004662
300.0004237
300.0004148
300.0004557
300.0005559
300.0006855
300.0007966
300.0008708
300.000783
300.0007383
300.0006734
300.0005886
300.0004961
300.0004236
300.0003826
300.0003993
300.0004895
300.0006183
300.000725
300.0007945
300.0007856
300.0007684
300.0007239
300.0006454
300.0005347
300.0004329
300.000373
300.0003679
300.0004371
300.0005483
300.0006485
300.0007171
300.0007197
300.0007415
300.0007271
300.0006731
300.0005776
300.0004682
300.0003936
300.0003837
300.0004383
300.0005295
300.0006125
300.000672
300.0005709
300.0006304
300.0006594
300.0006384
300.0005717
300.0004935
300.0004436
300.0004288
300.000448
300.0004991
300.0005494
300.0005816
300.0002654
300.0003057
300.0003418
300.0003537
300.0003397
300.0003138
300.0002909
300.0002734
300.0002687
300.0002773
300.0002794
300.0002747
300.0006955
300.0006327
300.0005729
300.000507
300.0004455
300.0004045
300.0003937
300.0004289
300.0005173
300.0006388
300.000745
300.0008346
300.0007561
300.0007095
300.0006471
300.0005645
300.0004766
300.0004116
300.000378
300.0003981
300.0004825
300.0005993
300.0007058
300.000778
300.0007713
300.0007533
300.0007029
300.0006192
300.0005161
300.0004256
300.000372
300.0003713
300.0004365
300.0005418
300.0006394
300.0007057
300.0007298
300.0007406
300.0007159
300.0006564
300.0005625
300.000461
300.000388
300.0003781
300.0004301
300.0005211
300.0006065
300.0006644
300.0006009
300.0006469
300.000668
300.0006424
300.0005735
300.0004945
300.0004424
300.0004268
300.000447
300.0005007
300.000553
300.0005834
300.0002809
300.0003221
300.0003593
300.0003682
300.0003509
300.0003234
300.0002992
300.0002818
300.000277
300.0002865
300.0002875
300.0002811
300.0006646
300.0006055
300.0005388
300.000476
300.0004183
300.0003747
300.0003612
300.0003927
300.0004717
300.0005827
300.0006894
300.0007757
300.0007307
300.0006757
300.0006103
300.0005332
300.0004521
300.000389
300.0003621
300.0003856
300.0004639
300.0005714
300.0006783
300.0007526
300.0007542
300.0007266
300.0006735
300.0005921
300.0004945
300.0004107
300.0003626
300.0003674
300.0004339
300.0005367
300.0006339
300.0006922
300.0007228
300.0007244
300.0006964
300.0006382
300.0005509
300.000451
300.0003787
300.0003712
300.0004246
300.0005152
300.000596
300.0006439
300.0005947
300.0006426
300.0006493
300.0006175
300.0005497
300.000474
300.0004218
300.0004069
300.0004291
300.0004807
300.0005324
300.0005528
300.0002652
300.0003209
300.0003478
300.0003517
300.0003309
300.0003007
300.0002758
300.0002599
300.0002576
300.0002649
300.0002725
300.0002551
300.000628
300.0005717
300.0005107
300.0004469
300.0003849
300.0003391
300.0003273
300.0003582
300.0004291
300.0005303
300.0006387
300.000729
300.0006995
300.0006431
300.0005782
300.0005019
300.0004215
300.0003607
300.0003388
300.0003657
300.0004384
300.000541
300.0006452
300.0007271
300.0007366
300.0007018
300.0006442
300.0005596
300.0004644
300.0003866
300.0003473
300.0003587
300.0004263
300.0005281
300.0006253
300.0006901
300.0007239
300.0007117
300.0006783
300.0006147
300.0005225
300.0004269
300.0003619
300.0003614
300.0004167
300.0005096
300.0005946
300.000649
300.0006469
300.0006615
300.0006538
300.0006124
300.0005393
300.0004607
300.000406
300.0003926
300.0004198
300.000482
300.0005446
300.000585
300.0003753
300.0003858
300.0003893
300.0003662
300.000336
300.000301
300.0002718
300.000256
300.0002594
300.0002886
300.0003246
300.0003578
300.0005676
300.0005064
300.0004488
300.0003815
300.0003178
300.0002757
300.0002636
300.0002891
300.0003438
300.0004281
300.0005286
300.0006272
300.0006427
300.0005798
300.0005146
300.0004379
300.0003669
300.0003194
300.000304
300.0003308
300.0003933
300.0004849
300.0005799
300.0006608
300.0006878
300.0006429
300.0005828
300.0004963
300.0004106
300.0003476
300.0003186
300.0003358
300.0004009
300.0004945
300.0005784
300.0006499
300.0006774
300.0006575
300.0006167
300.0005551
300.0004746
300.0003915
300.0003379
300.0003392
300.0003894
300.0004689
300.0005509
300.0006016
300.0005206
300.0005737
300.0005547
300.0005171
300.0004509
300.000377
300.0003265
300.0003125
300.000325
300.0003736
300.0004432
300.0004454
300.0000207
300.0001397
300.0001292
300.0001679
300.0001758
300.0001538
300.0001261
300.0001109
300.0000789
300.0000261
300.0000443
299.9999717
300.0009371
300.0008959
300.0007891
300.0006251
300.0008863
300.0008802
300.0008141
300.0006996
300.0007876
300.0008039
300.0007791
300.0006955
300.000725
300.0007289
300.0007018
300.0006465
300.000619
300.0006229
300.000602
300.0005595
300.0002817
300.0002931
300.0002907
300.000274
300.0008972
300.0008501
300.000744
300.0006003
300.0008524
300.0008431
300.000786
300.0006893
300.0007609
300.0007853
300.0007666
300.0006956
300.0007038
300.0007156
300.0007026
300.0006571
300.0006015
300.0006108
300.0006007
300.0005652
300.0002781
300.0002905
300.0002919
300.0002758
300.0008524
300.0007953
300.000703
300.0005702
300.0008196
300.0008083
300.0007574
300.0006696
300.0007485
300.0007765
300.0007547
300.0006985
300.0006956
300.0007147
300.0007085
300.0006723
300.0005996
300.0006136
300.0006088
300.0005777
300.0002825
300.0002957
300.0003
300.0002837
300.0007957
300.00074
300.0006481
300.0005342
300.0007796
300.0007682
300.0007253
300.0006485
300.00073
300.0007558
300.0007392
300.000692
300.0006746
300.0007049
300.0007036
300.0006723
300.0005704
300.0005989
300.000599
300.0005849
300.0002573
300.0002843
300.0002843
300.0002798
300.0007458
300.0006855
300.0005961
300.0004903
300.0007508
300.000734
300.0006885
300.0006072
300.0007226
300.0007341
300.0007216
300.0006683
300.0006779
300.0007046
300.0007035
300.0006643
300.0006056
300.0006241
300.0006279
300.0006057
300.0003614
300.0003476
300.0003318
300.0003023
300.0006443
300.0005687
300.0004866
300.0003914
300.0006947
300.000662
300.0006092
300.0005276
300.0006935
300.000695
300.0006764
300.0006163
300.0006494
300.0006789
300.0006686
300.00063
300.000482
300.0005548
300.0005578
300.0005463
299.9999888
300.000075
300.0000576
300.0000976
300.0003924
300.0003004
300.0003606
300.0003952
300.0003958
300.0003958
300.0003979
300.0003904
300.0003519
300.0002667
300.0001976
300.0003214
300.000218
300.0000323
300.0000505
300.0000556
300.000046
300.0000342
300.0000248
300.0000026
299.99995
299.9999067
299.9999135
300.0001705
300.0001679
299.9999206
299.9999288
299.9999419
299.9999252
299.999907
299.9998993
299.9998659
299.9998123
299.9997852
299.9998734
300.0001992
300.0001283
299.99982
299.9998268
299.9998118
299.9997783
299.999782
299.9997967
299.9997747
299.999752
299.9997898
299.9998967
300.0002703
300.000103
299.9997698
299.9997529
299.9997317
299.9997067
299.9997134
299.9997301
299.999732
299.9997628
299.9998264
299.9999378
300.0003046
300.0001152
299.9997766
299.9997702
299.9997662
299.9997476
299.9997283
299.9997156
299.9997304
299.999805
299.999881
299.9999699
300.0003189
300.000172
299.9998475
299.9998778
299.9999001
299.9998558
299.9997654
299.999713
299.9997444
299.9998689
299.9999474
299.9999958
300.0003209
300.0002299
299.9999319
299.999981
300.0000155
299.9999467
299.9998216
299.9997597
299.9998198
299.9999708
300.0000162
300.0000068
300.0003111
300.0002455
299.9999637
300.0000092
300.0000394
299.9999757
299.9998569
299.9998156
299.9998886
300.0000017
300.000024
299.9999989
300.0002834
300.0001995
299.9999575
299.9999727
300.0000091
299.999965
299.9998691
299.9998289
299.9998681
299.9999144
299.9999282
299.9999557
300.0002108
300.0001567
299.9999702
299.9999893
300.0000009
299.9999645
299.9999038
299.999861
299.9998527
299.9998764
299.9998977
299.9999405
300.0001545
300.0002951
300.0001848
300.0002528
300.0003041
300.0002904
300.0002557
300.0002165
300.0001834
300.000174
300.000144
300.0001254
300.0002806
300.0003459
300.0004136
300.0004545
300.0004829
300.0004753
300.0004641
300.0004638
300.0004586
300.0004273
300.0003678
300.0003338
300.000304
300.0003628
300.0000755
300.0000484
300.0000513
300.0000484
300.0000366
300.0000283
300.0000049
299.9999505
299.9999146
299.9999677
300.0003216
300.0003247
299.9999244
299.9998222
299.9998224
299.999819
299.9998027
299.9997916
299.9997502
299.9996896
299.999688
299.9998795
300.0003274
300.000266
299.9998201
299.9996988
299.9996925
299.9996643
299.9996664
299.9996791
299.9996511
299.9996304
299.9996676
299.9998937
300.00036
300.0002202
299.9997695
299.9996299
299.9996061
299.9995781
299.9995863
299.9996033
299.9996036
299.9996397
299.9997091
299.9999351
300.0003852
300.0002168
299.9997768
299.9996463
299.9996365
299.9996143
299.9995965
299.9995843
299.9996038
299.9996859
299.9997687
299.9999697
300.0003923
300.0002683
299.9998461
299.9997507
299.9997683
299.9997305
299.9996412
299.9995902
299.9996272
299.9997555
299.9998321
299.9999898
300.0003939
300.0003282
299.9999175
299.9998501
299.9998777
299.9998196
299.9996948
299.9996358
299.9997066
299.999846
299.9998903
299.9999916
300.0003952
300.0003469
299.9999385
299.9998701
299.9998964
299.9998462
299.9997312
299.9996886
299.9997619
299.9998574
299.9998782
299.9999664
300.0003741
300.0003253
299.9999451
299.9998524
299.9998726
299.9998397
299.9997472
299.9997069
299.9997435
299.9997832
299.9998069
299.9999409
300.0003255
300.0003077
300.0000046
299.9999753
299.9999784
299.9999583
299.9999051
299.9998626
299.99985
299.999859
299.9998901
299.9999781
300.0003
300.0002844
300.0003216
300.0003603
300.0003949
300.0003802
300.0003415
300.0003049
300.0002865
300.0002892
300.0002839
300.0002867
300.0002799
300.0001258
300.0003884
300.0004387
300.0004603
300.0004491
300.0004377
300.0004374
300.0004346
300.0004111
300.0003632
300.0003233
300.0001111
300.0003503
300.0001791
300.0001044
300.0000909
300.0000645
300.000048
300.0000398
300.0000219
299.9999921
299.9999814
300.0000857
300.0003113
300.0003269
299.9999893
299.9998246
299.9997983
299.9997731
299.9997501
299.999737
299.9997011
299.9996686
299.9996929
299.9999454
300.000324
300.000263
299.9998654
299.9996753
299.9996298
299.999589
299.9995834
299.9995935
299.9995717
299.9995645
299.9996426
299.9999343
300.0003458
300.0002101
299.9997887
299.9995819
299.9995275
299.9994881
299.9994893
299.9995039
299.9995111
299.9995593
299.9996583
299.9999499
300.0003646
300.0002039
299.9997896
299.999589
299.9995499
299.9995142
299.9994894
299.9994758
299.9995037
299.9996005
299.9997148
299.9999787
300.0003701
300.0002531
299.9998548
299.9996916
299.9996793
299.9996304
299.9995344
299.9994844
299.9995327
299.9996732
299.9997767
299.9999953
300.0003727
300.0003114
299.999929
299.9997905
299.9997888
299.9997255
299.9995959
299.9995384
299.9996186
299.9997613
299.9998317
300.0000031
300.0003742
300.0003339
299.9999728
299.9998231
299.9998168
299.9997631
299.9996431
299.9995989
299.9996749
299.9997755
299.9998267
299.9999977
300.0003583
300.0003221
299.9999958
299.9998396
299.9998266
299.999783
299.9996889
299.9996471
299.9996853
299.9997392
299.9997944
299.9999905
300.0003208
300.000298
300.0001002
300.0000252
300.0000131
299.9999725
299.9999165
299.9998741
299.999863
299.9998947
299.9999432
300.0000785
300.000291
300.0001059
300.0003103
300.0003533
300.0003791
300.0003618
300.0003228
300.0002882
300.0002731
300.0002814
300.0002842
300.0002809
300.0001013
300.0001376
300.0003238
300.0003944
300.0004109
300.0003944
300.0003829
300.0003818
300.0003798
300.0003666
300.0003304
300.0002718
300.0001181
300.0002915
300.0002074
300.0001425
300.0001121
300.000075
300.0000468
300.0000378
300.0000316
300.0000196
300.0000309
300.000117
300.0002602
300.0002993
300.0000313
299.9998599
299.9998044
299.9997654
299.9997352
299.9997214
299.9996931
299.9996767
299.9997327
299.9999928
300.0002958
300.0002407
299.9998943
299.9996829
299.9996114
299.9995552
299.9995416
299.9995492
299.9995359
299.9995462
299.9996485
299.9999591
300.0003086
300.0001815
299.9998047
299.9995714
299.9994895
299.9994333
299.9994259
299.9994391
299.9994541
299.9995223
299.9996493
299.9999615
300.0003174
300.0001735
299.9997887
299.9995703
299.9995018
299.9994492
299.9994172
299.9994035
299.9994396
299.9995565
299.9996985
299.9999776
300.0003209
300.0002172
299.9998536
299.999672
299.9996315
299.9995641
299.9994634
299.9994137
299.9994722
299.9996313
299.9997605
299.9999936
300.0003242
300.000271
299.999941
299.9997759
299.9997451
299.9996671
299.9995333
299.9994776
299.9995654
299.9997216
299.9998164
300.0000098
300.0003247
300.0002976
299.9999939
299.9998231
299.9997873
299.9997218
299.9995991
299.9995536
299.9996353
299.999746
299.9998229
300.0000155
300.0003166
300.0002927
300.0000348
299.9998658
299.9998271
299.9997705
299.9996727
299.9996285
299.9996718
299.99974
299.999821
300.0000278
300.0002922
300.0002502
300.000125
300.0000612
300.0000321
299.9999842
299.9999158
299.9998736
299.9998787
299.9999191
299.9999843
300.0001051
300.0002444
300.000113
300.0002616
300.0003206
300.0003378
300.0003168
300.0002797
300.0002503
300.0002396
300.0002541
300.0002612
300.0002355
300.0001069
300.0000905
300.0002379
300.0003257
300.0003519
300.0003408
300.0003278
300.0003245
300.0003247
300.0003117
300.000272
300.0002003
300.0000779
300.0002083
300.0002231
300.0001655
300.000121
300.0000709
300.0000409
300.0000309
300.0000267
300.000031
300.0000566
300.0001465
300.0001892
300.0002408
300.0000588
299.9998893
299.9998134
299.9997643
299.9997288
299.9997135
299.9996925
299.9996885
299.9997707
300.0000202
300.0002408
300.0001992
299.9999082
299.9996935
299.9996066
299.9995388
299.9995207
299.9995262
299.9995172
299.999541
299.9996599
299.999971
300.0002616
300.0001486
299.9998039
299.9995711
299.9994706
299.9994044
299.999392
299.9994041
299.9994238
299.9995037
299.99965
299.9999578
300.0002694
300.0001377
299.9997844
299.9995624
299.9994773
299.9994153
299.9993786
299.9993648
299.9994055
299.9995345
299.9996916
299.9999718
300.0002702
300.0001749
299.9998498
299.9996643
299.999607
299.9995293
299.9994258
299.9993754
299.9994401
299.9996112
299.9997549
299.9999868
300.000272
300.0002258
299.9999384
299.9997697
299.9997226
299.9996361
299.9995015
299.9994452
299.9995384
299.9997029
299.9998108
300.000004
300.0002737
300.0002503
300.0000033
299.9998263
299.9997753
299.999702
299.9995788
299.9995325
299.999617
299.9997352
299.9998246
300.0000234
300.0002662
300.0002397
300.0000571
299.9998908
299.9998315
299.9997696
299.999668
299.9996231
299.9996697
299.9997449
299.9998467
300.0000487
300.0002395
300.0001858
300.0001522
300.0000817
300.0000418
299.9999816
299.9999115
299.9998695
299.999878
299.9999332
300.0000089
300.0001318
300.0001785
300.0000768
300.0001953
300.0002637
300.0002859
300.0002675
300.0002328
300.0002073
300.0002012
300.0002117
300.0002125
300.000171
300.0000685
300.000067
300.0001833
300.0002617
300.0002966
300.0002934
300.0002793
300.0002755
300.0002769
300.0002605
300.0002164
300.0001523
300.0000576
300.0001591
300.0002295
300.0001851
300.0001324
300.0000723
300.0000402
300.0000287
300.0000267
300.0000406
300.0000826
300.0001589
300.0001423
300.0001846
300.0000841
299.9999201
299.9998291
299.9997654
299.9997256
299.9997095
299.9996943
299.9997064
299.9998039
300.000049
300.0001881
300.0001572
299.999924
299.9997112
299.9996072
299.9995305
299.9995073
299.9995114
299.9995075
299.9995421
299.999678
299.9999827
300.0002164
300.0001165
299.9998069
299.9995736
299.9994618
299.9993885
299.9993734
299.9993852
299.9994084
299.9994951
299.999653
299.9999589
300.0002266
300.0001043
299.9997858
299.9995592
299.999464
299.9993972
299.9993587
299.9993453
299.9993892
299.9995221
299.9996889
299.9999689
300.000226
300.0001366
299.9998514
299.9996617
299.9995921
299.9995104
299.9994069
299.9993568
299.9994247
299.9995989
299.9997516
299.999985
300.0002276
300.0001866
299.9999404
299.9997702
299.9997087
299.999619
299.9994849
299.9994288
299.9995232
299.9996894
299.9998086
300.0000036
300.000231
300.0002057
300.0000125
299.9998349
299.99977
299.9996911
299.9995669
299.9995201
299.9996047
299.9997279
299.9998311
300.0000297
300.0002194
300.0001886
300.0000797
299.9999153
299.9998432
299.9997718
299.9996688
299.9996233
299.9996715
299.9997569
299.9998694
300.000071
300.0001863
300.000142
300.0001645
300.0001053
300.0000516
299.9999834
299.9999127
299.9998708
299.9998805
299.9999445
300.0000329
300.0001422
300.0001325
300.0000572
300.0001488
300.0002088
300.0002368
300.0002255
300.0001921
300.0001681
300.0001653
300.0001694
300.0001614
300.0001262
300.0000482
300.0000504
300.0001458
300.0002135
300.0002522
300.0002535
300.0002446
300.00024
300.0002378
300.0002215
300.0001742
300.0001203
300.0000441
300.0001237
300.0002326
300.0001945
300.0001438
300.0000789
300.0000419
300.0000303
300.0000319
300.0000531
300.0000986
300.0001656
300.000111
300.0001402
300.0001002
299.9999517
299.9998431
299.9997675
299.999725
299.9997089
299.9996971
299.9997223
299.9998371
300.0000672
300.0001486
300.0001218
299.9999398
299.9997278
299.9996097
299.999526
299.9994989
299.9995032
299.9995033
299.9995456
299.9996939
299.9999963
300.0001807
300.000087
299.9998169
299.9995779
299.9994565
299.9993807
299.9993623
299.999374
299.9994007
299.99949
299.9996565
299.999965
300.0001901
300.000079
299.9997893
299.9995599
299.9994559
299.9993861
299.9993451
299.9993329
299.9993801
299.9995142
299.9996879
299.9999695
300.0001928
300.0001098
299.9998548
299.9996613
299.9995823
299.9994984
299.999395
299.9993471
299.9994168
299.9995908
299.9997494
299.9999862
300.0001955
300.0001539
299.9999481
299.9997717
299.9997006
299.9996082
299.9994749
299.99942
299.9995151
299.99968
299.9998069
300.0000086
300.0001957
300.0001708
300.0000253
299.9998453
299.9997672
299.9996839
299.9995595
299.9995131
299.9995979
299.9997229
299.9998371
300.0000386
300.0001834
300.0001486
300.0000954
299.9999397
299.9998536
299.9997743
299.9996704
299.9996247
299.9996737
299.9997665
299.9998915
300.0000848
300.0001456
300.0001106
300.0001739
300.0001193
300.0000624
299.9999905
299.9999157
299.9998738
299.9998889
299.9999568
300.0000495
300.0001494
300.0001003
300.0000422
300.0001157
300.0001659
300.000198
300.0001894
300.0001609
300.0001383
300.0001338
300.0001368
300.0001229
300.0000946
300.0000343
300.000039
300.0001178
300.000175
300.0002157
300.0002237
300.0002159
300.0002117
300.0002088
300.0001892
300.000143
300.0000979
300.0000338
300.0000978
300.000231
300.0001992
300.0001512
300.0000847
300.0000443
300.0000315
300.0000365
300.0000627
300.0001085
300.0001695
300.0000884
300.0001062
300.0001088
299.9999817
299.9998595
299.9997737
299.9997251
299.9997086
299.9997033
299.9997387
299.9998684
300.0000801
300.0001186
300.0000922
299.9999514
299.9997451
299.9996146
299.9995261
299.9994937
299.999498
299.9995022
299.9995512
299.9997104
300.0000083
300.00015
300.0000657
299.9998247
299.9995859
299.9994571
299.999377
299.9993553
299.9993665
299.9993968
299.9994901
299.9996633
299.9999698
300.0001625
300.0000582
299.9997943
299.9995613
299.9994506
299.9993784
299.9993348
299.9993237
299.9993748
299.9995091
299.9996876
299.999971
300.0001659
300.0000873
299.9998594
299.9996616
299.9995748
299.9994892
299.9993859
299.9993401
299.9994128
299.9995849
299.9997489
299.9999894
300.0001691
300.0001288
299.9999556
299.9997764
299.9996955
299.999601
299.9994679
299.9994153
299.9995116
299.9996752
299.999809
300.000014
300.000169
300.0001396
300.0000352
299.999856
299.9997665
299.9996794
299.9995549
299.9995094
299.9995944
299.9997205
299.9998464
300.0000473
300.0001533
300.0001171
300.0001042
299.9999637
299.9998645
299.9997795
299.9996727
299.9996267
299.9996792
299.999779
299.9999156
300.0000932
300.0001148
300.0000875
300.0001773
300.0001266
300.0000711