/*--------------------------------*- C++ -*----------------------------------*\
  =========                 |
  \\      /  F ield         | OpenFOAM: The Open Source CFD Toolbox
   \\    /   O peration     | Website:  https://openfoam.org
    \\  /    A nd           | Version:  7
     \\/     M anipulation  |
\*---------------------------------------------------------------------------*/
FoamFile
{
    version     2.0;
    format      ascii;
    class       volScalarField;
    location    "0.00195";
    object      mag(U);
}
// * * * * * * * * * * * * * * * * * * * * * * * * * * * * * * * * * * * * * //

dimensions      [0 1 -1 0 0 0 0];

internalField   nonuniform List<scalar> 
5000
(
23.101052
23.101052
23.101052
23.101053
23.101053
23.101052
23.101052
23.101051
23.101051
23.101051
23.101051
23.101051
23.101051
23.101051
23.10105
23.101049
23.101049
23.101048
23.101048
23.101048
23.101047
23.101047
23.101046
23.101046
23.101045
23.101044
23.101045
23.101044
23.101042
23.101041
23.10104
23.101039
23.101039
23.101038
23.101037
23.101036
23.101035
23.101034
23.101033
23.101032
23.101032
23.101031
23.101029
23.101027
23.101027
23.101026
23.101024
23.101023
23.101022
23.101021
23.101019
23.101018
23.101017
23.101015
23.101013
23.101011
23.10101
23.101009
23.101007
23.101006
23.101005
23.101003
23.101
23.100999
23.100998
23.100997
23.100995
23.100994
23.100992
23.10099
23.100987
23.100985
23.100984
23.100982
23.10098
23.100978
23.100975
23.100973
23.100972
23.10097
23.100969
23.100967
23.100964
23.100962
23.10096
23.100958
23.100956
23.100954
23.100953
23.100951
23.100949
23.100946
23.100944
23.100942
23.100941
23.100939
23.100937
23.100935
23.100933
23.100931
23.10093
23.100928
23.100926
23.100924
23.100922
23.10092
23.100918
23.100915
23.100914
23.100913
23.100912
23.100911
23.100909
23.100906
23.100905
23.100904
23.100902
23.100901
23.100899
23.100896
23.100895
23.100894
23.100892
23.100891
23.100889
23.100888
23.100886
23.100885
23.100883
23.100882
23.10088
23.100878
23.100876
23.100875
23.100874
23.100872
23.100871
23.100869
23.100867
23.100865
23.100864
23.100863
23.100861
23.10086
23.100858
23.100856
23.100855
23.100853
23.100851
23.100849
23.100848
23.100846
23.100845
23.100844
23.100842
23.100839
23.100838
23.100837
23.100836
23.100834
23.100832
23.10083
23.100828
23.100827
23.100826
23.100825
23.100823
23.100821
23.100819
23.100818
23.100817
23.100816
23.100814
23.100813
23.10081
23.100809
23.100808
23.100807
23.100806
23.100804
23.100801
23.1008
23.1008
23.100799
23.100797
23.100796
23.100793
23.100792
23.100792
23.100791
23.100789
23.100787
23.100786
23.100785
23.100785
23.100783
23.100781
23.100779
23.100779
23.100779
23.100778
23.100777
23.100775
23.100774
23.100774
23.100773
23.100772
23.10077
23.100769
23.100769
23.100769
23.100768
23.100766
23.100764
23.100764
23.100764
23.100764
23.100763
23.100762
23.100761
23.100759
23.100759
23.100759
23.100758
23.100757
23.100756
23.100754
23.100754
23.100753
23.100753
23.100751
23.100749
23.100748
23.100748
23.100747
23.100746
23.100745
23.100743
23.100741
23.10074
23.10074
23.100739
23.100738
23.100737
23.100735
23.100733
23.100731
23.100731
23.10073
23.100729
23.100727
23.100724
23.100723
23.100723
23.100722
23.100721
23.100719
23.100717
23.100714
23.100712
23.100712
23.100712
23.100711
23.100709
23.100708
23.100707
23.100706
23.100704
23.100702
23.1007
23.100699
23.100699
23.100698
23.100696
23.100694
23.100691
23.10069
23.10069
23.10069
23.100688
23.100686
23.100684
23.10068
23.100679
23.100679
23.100679
23.100677
23.100676
23.100674
23.100672
23.100669
23.100667
23.100667
23.100666
23.100664
23.100662
23.100661
23.10066
23.100657
23.100653
23.100652
23.100652
23.100652
23.100651
23.100648
23.100644
23.10064
23.10064
23.100641
23.100641
23.10064
23.100637
23.100633
23.100632
23.100632
23.100631
23.100629
23.100626
23.100624
23.100624
23.100622
23.100619
23.100615
23.100615
23.100616
23.100615
23.100612
23.100606
23.100605
23.100606
23.100606
23.100604
23.1006
23.100594
23.100587
23.100588
23.100592
23.100594
23.100592
23.100589
23.100583
23.100583
23.100584
23.100583
23.10058
23.100573
23.10056
23.100554
23.100556
23.100559
23.100563
23.100566
23.100565
23.100561
23.100553
23.100542
23.100538
23.100542
23.100548
23.100547
23.100544
23.100538
23.10053
23.10052
23.100521
23.100525
23.100524
23.10052
23.100511
23.100499
23.100484
23.100487
23.100494
23.100493
23.100488
23.100477
23.100462
23.100443
23.10044
23.100445
23.10045
23.100449
23.100443
23.100433
23.100418
23.100397
23.100374
23.100362
23.100364
23.100365
23.100367
23.100367
23.100361
23.100348
23.10033
23.100308
23.100303
23.100309
23.100306
23.100297
23.100279
23.100253
23.100224
23.100209
23.100213
23.100211
23.100201
23.100182
23.100158
23.100131
23.100109
23.100096
23.100086
23.100075
23.100062
23.100044
23.100021
23.099993
23.099962
23.099935
23.099923
23.099911
23.099894
23.099868
23.099834
23.099797
23.099774
23.099758
23.099739
23.099713
23.099679
23.09964
23.099603
23.099571
23.099539
23.099505
23.09947
23.099438
23.09941
23.099381
23.099344
23.099299
23.099249
23.099197
23.099154
23.099115
23.099074
23.09903
23.098981
23.098927
23.098871
23.098815
23.09876
23.098704
23.098645
23.098583
23.09852
23.098456
23.098391
23.098323
23.098249
23.09817
23.098088
23.09801
23.097933
23.097855
23.09777
23.097679
23.097583
23.097487
23.097394
23.097301
23.097202
23.097096
23.096984
23.096867
23.096748
23.096628
23.096505
23.09638
23.096252
23.09612
23.09598
23.095834
23.095684
23.095532
23.095379
23.095223
23.095062
23.094894
23.09472
23.094542
23.094362
23.094177
23.093985
23.093786
23.093582
23.093375
23.093163
23.092946
23.092723
23.092493
23.092258
23.092019
23.091775
23.091522
23.091262
23.090996
23.090726
23.090452
23.090172
23.089885
23.089587
23.089282
23.088971
23.088657
23.088337
23.08801
23.087673
23.087326
23.086971
23.086611
23.086245
23.085872
23.085491
23.085101
23.084703
23.084298
23.083885
23.083465
23.083035
23.082596
23.082149
23.081695
23.081232
23.080761
23.08028
23.079789
23.079287
23.078777
23.07826
23.077735
23.077203
23.07666
23.076105
23.075539
23.074963
23.074378
23.073786
23.073184
23.072572
23.071948
23.071312
23.070668
23.070015
23.069352
23.068677
23.067991
23.067293
23.066585
23.065866
23.065138
23.064399
23.06365
23.062889
23.062115
23.061331
23.060535
23.05973
23.058913
23.058085
23.057244
23.056392
23.055528
23.054653
23.053765
23.052866
23.051955
23.051032
23.050099
23.049153
23.048195
23.047225
23.046241
23.045246
23.044239
23.043221
23.04219
23.041147
23.04009
23.03902
23.03794
23.036848
23.035745
23.034628
23.033498
23.032354
23.031199
23.030032
23.028853
23.027662
23.026458
23.025242
23.024012
23.02277
23.021515
23.020248
23.018969
23.017679
23.016375
23.015059
23.01373
23.012389
23.011036
23.009671
23.008294
23.006904
23.005502
23.004087
23.002661
23.001223
22.999773
22.998311
22.996836
22.99535
22.993852
22.992342
22.99082
22.989286
22.987741
22.986184
22.984615
22.983036
22.981445
22.979842
22.978228
22.976603
22.974966
22.973319
22.971661
22.969992
22.968312
22.966621
22.964919
22.963207
22.961484
22.959751
22.958008
22.956254
22.95449
22.952715
22.950931
22.949137
22.947334
22.94552
22.943697
22.941864
22.940022
22.93817
22.936309
22.934439
22.932561
22.930673
22.928776
22.926871
22.924958
22.923035
22.921103
22.919164
22.917216
22.915262
22.913299
22.911328
22.909349
22.907362
22.905368
22.903366
22.901358
22.899342
22.89732
22.895291
22.893254
22.891211
22.889161
22.887105
22.885043
22.882974
22.8809
22.878819
22.876732
22.87464
22.872543
22.87044
22.868332
22.866218
22.864099
22.861976
22.859848
22.857715
22.855577
22.853436
22.85129
22.849139
22.846985
22.844827
22.842664
22.840499
22.83833
22.836158
22.833982
22.831804
22.829621
22.827436
22.825249
22.823059
22.820867
22.818673
22.816476
22.814277
22.812076
22.809873
22.80767
22.805464
22.803257
22.801049
22.79884
22.796629
22.794418
22.792206
22.789993
22.787781
22.785567
22.783354
22.78114
22.778927
22.776714
22.774501
22.772289
22.770077
22.767866
22.765655
22.763446
22.761238
22.759031
22.756826
22.754622
22.752419
22.750219
22.74802
22.745823
22.743628
22.741436
22.739246
22.737058
22.734873
22.732691
22.730511
22.728335
22.726162
22.723991
22.721824
22.71966
22.7175
22.715344
22.713192
22.711043
22.708898
22.706757
22.704621
22.702489
22.700361
22.698237
22.696119
22.694005
22.691896
22.689792
22.687692
22.685598
22.683509
22.681425
22.679348
22.677275
22.675208
22.673146
22.67109
22.66904
22.666996
22.664959
22.662927
22.660901
22.658881
22.656868
22.654862
22.652862
22.650868
22.648881
22.646901
22.644927
22.642961
22.641001
22.639048
22.637102
22.635164
22.633233
22.631309
22.629392
22.627483
22.62558
22.623686
22.621798
22.619919
22.618048
22.616184
22.614327
22.612478
22.610637
22.608804
22.606979
22.605162
22.603353
22.601551
22.599758
22.597972
22.596195
22.594426
22.592666
22.590913
22.589169
22.587433
22.585705
22.583985
22.582274
22.580571
22.578876
22.57719
22.575512
22.573843
22.572181
22.570529
22.568884
22.567248
22.565621
22.564002
22.562392
22.560789
22.559195
22.55761
22.556033
22.554465
22.552905
22.551354
22.54981
22.548276
22.546749
22.545231
22.543722
22.542221
22.540728
22.539244
22.537768
22.5363
22.534841
22.533389
22.531946
22.530512
22.529085
22.527667
22.526257
22.524856
22.523462
22.522076
22.520699
22.519329
22.517968
22.516615
22.515269
22.513932
22.512602
22.511281
22.509968
22.508662
22.507364
22.506073
22.504791
22.503516
22.502249
22.50099
22.499739
22.498494
22.497258
22.496029
22.494807
22.493593
22.492386
22.491187
22.489996
22.488811
22.487634
22.486464
22.485301
22.484145
22.482997
22.481856
22.480722
22.479595
22.478475
22.477361
22.476255
22.475156
22.474064
22.472978
22.4719
22.470828
22.469763
22.468704
22.467653
22.466608
22.46557
22.464538
22.463513
22.462494
22.461482
22.460476
22.459477
22.458484
22.457498
22.456518
22.455544
22.454576
22.453615
22.452661
22.451712
22.450769
22.449833
22.448903
22.447979
22.447061
22.446149
22.445243
22.444344
22.44345
22.442562
22.44168
22.440804
22.439934
22.43907
22.438212
22.43736
22.436513
22.435672
22.434837
22.434008
22.433185
22.432367
22.431556
22.430749
22.429949
22.429154
22.428365
22.427581
22.426803
22.426031
22.425264
22.424503
22.423748
22.422998
22.422253
22.421514
22.420781
22.420053
22.419331
22.418614
22.417902
22.417196
22.416496
22.415801
22.415111
22.414427
22.413748
22.413075
22.412406
22.411744
22.411086
22.410434
22.409787
22.409146
22.40851
22.40788
22.407254
22.406634
22.406019
22.405409
22.404805
22.404206
22.403612
22.403024
22.40244
22.401862
22.401289
22.400721
22.400158
22.399601
22.399048
22.398501
22.397959
22.397422
22.39689
22.396363
22.395842
22.395325
22.394813
22.394307
22.393805
22.393309
22.392817
22.39233
22.391849
22.391372
22.3909
22.390434
22.389972
22.389515
22.389063
22.388615
22.388173
22.387735
22.387303
22.386875
22.386451
22.386033
22.385619
22.38521
22.384806
22.384406
22.384011
22.383621
22.383235
22.382854
22.382477
22.382105
22.381737
22.381374
22.381016
22.380662
22.380312
22.379967
22.379626
22.379289
22.378957
22.378629
22.378305
22.377986
22.377671
22.37736
22.377053
22.37675
22.376452
22.376157
22.375867
22.375581
22.375298
22.37502
22.374745
22.374475
22.374208
22.373946
22.373687
22.373431
22.37318
22.372932
22.372688
22.372448
22.372211
22.371978
22.371749
22.371522
22.3713
22.371081
22.370865
22.370653
22.370445
22.370239
22.370037
22.369838
22.369642
22.36945
22.369261
22.369075
22.368892
22.368712
22.368535
22.368361
22.36819
22.368022
22.367857
22.367695
22.367536
22.367379
22.367225
22.367074
22.366926
22.36678
22.366637
22.366497
22.366359
22.366224
22.366091
22.365961
22.365833
22.365707
22.365584
22.365463
22.365345
22.365229
22.365115
22.365003
22.364894
22.364786
22.364681
22.364578
22.364477
22.364378
22.36428
22.364185
22.364092
22.364001
22.363911
22.363824
22.363738
22.363654
22.363572
22.363491
22.363413
22.363336
22.36326
22.363186
22.363114
22.363044
22.362974
22.362907
22.362841
22.362776
22.362713
22.362651
22.362591
22.362532
22.362474
22.362418
22.362363
22.362309
22.362257
22.362205
22.362155
22.362106
22.362059
22.362012
22.361966
22.361922
22.361879
22.361837
22.361795
22.361755
22.361716
22.361677
22.36164
22.361604
22.361569
22.361534
22.3615
22.361467
22.361435
22.361404
22.361374
22.361345
22.361316
22.361288
22.36126
22.361234
22.361208
22.361183
22.361159
22.361135
22.361112
22.361089
22.361067
22.361046
22.361026
22.361006
22.360986
22.360967
22.360949
22.360931
22.360914
22.360897
22.360881
22.360865
22.360849
22.360834
22.36082
22.360806
22.360792
22.360779
22.360766
22.360754
22.360742
22.360731
22.360719
22.360708
22.360698
22.360688
22.360678
22.360668
22.360659
22.36065
22.360642
22.360633
22.360625
22.360617
22.36061
22.360603
22.360596
22.360589
22.360582
22.360576
22.36057
22.360564
22.360558
22.360553
22.360548
22.360543
22.360538
22.360533
22.360529
22.360524
22.36052
22.360516
22.360512
22.360508
22.360505
22.360501
22.360498
22.360495
22.360491
22.360488
22.360486
22.360483
22.36048
22.360478
22.360475
22.360473
22.360471
22.360468
22.360466
22.360464
22.360463
22.360461
22.360459
22.360457
22.360456
22.360454
22.360453
22.360451
22.36045
22.360448
22.360447
22.360446
22.360445
22.360444
22.360443
22.360442
22.360441
22.36044
22.360439
22.360438
22.360437
22.360436
22.360436
22.360435
22.360434
22.360433
22.360433
22.360432
22.360432
22.360431
22.36043
22.36043
22.360429
22.360429
22.360428
22.360428
22.360428
22.360427
22.360427
22.360426
22.360426
22.360426
22.360425
22.360425
22.360424
22.360424
22.360424
22.360424
22.360423
22.360423
22.360423
22.360422
22.360422
22.360422
22.360421
22.360421
22.360421
22.360421
22.36042
22.36042
22.36042
22.36042
22.360419
22.360419
22.360419
22.360419
22.360418
22.360418
22.360418
22.360417
22.360417
22.360417
22.360417
22.360416
22.360416
22.360416
22.360415
22.360415
22.360415
22.360414
22.360414
22.360414
22.360413
22.360413
22.360413
22.360412
22.360412
22.360412
22.360411
22.360411
22.36041
22.36041
22.360409
22.360409
22.360409
22.360408
22.360408
22.360407
22.360407
22.360406
22.360406
22.360405
22.360405
22.360404
22.360404
22.360403
22.360402
22.360402
22.360401
22.360401
22.3604
22.3604
22.360399
22.360398
22.360398
22.360397
22.360396
22.360396
22.360395
22.360394
22.360394
22.360393
22.360392
22.360392
22.360391
22.36039
22.36039
22.360389
22.360388
22.360387
22.360387
22.360386
22.360385
22.360384
22.360384
22.360383
22.360382
22.360381
22.360381
22.36038
22.360379
22.360378
22.360378
22.360377
22.360376
22.360375
22.360374
22.360374
22.360373
22.360372
22.360371
22.360371
22.36037
22.360369
22.360368
22.360367
22.360367
22.360366
22.360365
22.360365
22.360364
22.360363
22.360362
22.360362
22.360361
22.36036
22.360359
22.360359
22.360358
22.360357
22.360357
22.360356
22.360355
22.360355
22.360354
22.360353
22.360353
22.360352
22.360352
22.360351
22.36035
22.36035
22.360349
22.360348
22.360348
22.360347
22.360347
22.360346
22.360346
22.360345
22.360345
22.360344
22.360344
22.360343
22.360343
22.360342
22.360342
22.360342
22.360341
22.360341
22.36034
22.36034
22.36034
22.360339
22.360339
22.360339
22.360338
22.360338
22.360338
22.360337
22.360337
22.360337
22.360336
22.360336
22.360336
22.360336
22.360335
22.360335
22.360335
22.360335
22.360334
22.360334
22.360334
22.360334
22.360334
22.360334
22.360333
22.360333
22.360333
22.360333
22.360333
22.360333
22.360332
22.360332
22.360332
22.360332
22.360332
22.360332
22.360332
22.360331
22.360331
22.360331
22.360331
22.360331
22.360331
22.360331
22.360331
22.36033
22.36033
22.36033
22.36033
22.36033
22.36033
22.36033
22.36033
22.360329
22.360329
22.360329
22.360329
22.360329
22.360329
22.360329
22.360328
22.360328
22.360328
22.360328
22.360328
22.360328
22.360327
22.360327
22.360327
22.360327
22.360327
22.360327
22.360326
22.360326
22.360326
22.360326
22.360325
22.360325
22.360325
22.360325
22.360324
22.360324
22.360324
22.360324
22.360323
22.360323
22.360323
22.360323
22.360322
22.360322
22.360322
22.360322
22.360321
22.360321
22.360321
22.36032
22.36032
22.36032
22.360319
22.360319
22.360319
22.360318
22.360318
22.360318
22.360317
22.360317
22.360317
22.360316
22.360316
22.360316
22.360315
22.360315
22.360315
22.360314
22.360314
22.360314
22.360313
22.360313
22.360313
22.360312
22.360312
22.360312
22.360311
22.360311
22.360311
22.36031
22.36031
22.360309
22.360309
22.360309
22.360309
22.360308
22.360308
22.360307
22.360307
22.360307
22.360306
22.360306
22.360306
22.360306
22.360305
22.360305
22.360305
22.360304
22.360304
22.360304
22.360303
22.360303
22.360303
22.360302
22.360302
22.360302
22.360302
22.360301
22.360301
22.360301
22.3603
22.3603
22.3603
22.3603
22.360299
22.360299
22.360299
22.360298
22.360298
22.360298
22.360298
22.360297
22.360297
22.360297
22.360297
22.360296
22.360296
22.360296
22.360296
22.360295
22.360295
22.360295
22.360295
22.360294
22.360294
22.360294
22.360294
22.360293
22.360293
22.360293
22.360293
22.360292
22.360292
22.360292
22.360292
22.360291
22.360291
22.360291
22.360291
22.36029
22.36029
22.36029
22.36029
22.360289
22.360289
22.360289
22.360289
22.360288
22.360288
22.360288
22.360288
22.360287
22.360287
22.360287
22.360287
22.360286
22.360286
22.360286
22.360285
22.360285
22.360285
22.360285
22.360284
22.360284
22.360284
22.360284
22.360283
22.360283
22.360283
22.360282
22.360282
22.360282
22.360282
22.360281
22.360281
22.360281
22.36028
22.36028
22.36028
22.360279
22.360279
22.360279
22.360278
22.360278
22.360278
22.360277
22.360277
22.360277
22.360277
22.360276
22.360276
22.360275
22.360275
22.360275
22.360274
22.360274
22.360274
22.360273
22.360273
22.360273
22.360272
22.360272
22.360272
22.360271
22.360271
22.360271
22.36027
22.36027
22.360269
22.360269
22.360269
22.360268
22.360268
22.360268
22.360267
22.360267
22.360266
22.360266
22.360266
22.360265
22.360265
22.360265
22.360264
22.360264
22.360263
22.360263
22.360263
22.360262
22.360262
22.360261
22.360261
22.360261
22.36026
22.36026
22.360259
22.360259
22.360258
22.360258
22.360258
22.360257
22.360257
22.360256
22.360256
22.360256
22.360255
22.360255
22.360254
22.360254
22.360254
22.360253
22.360253
22.360252
22.360252
22.360251
22.360251
22.360251
22.36025
22.36025
22.360249
22.360249
22.360249
22.360248
22.360248
22.360247
22.360247
22.360247
22.360246
22.360246
22.360245
22.360245
22.360245
22.360244
22.360244
22.360244
22.360243
22.360243
22.360242
22.360242
22.360242
22.360241
22.360241
22.360241
22.36024
22.36024
22.36024
22.360239
22.360239
22.360239
22.360238
22.360238
22.360238
22.360238
22.360237
22.360237
22.360237
22.360236
22.360236
22.360236
22.360236
22.360235
22.360235
22.360235
22.360235
22.360234
22.360234
22.360234
22.360234
22.360233
22.360233
22.360233
22.360233
22.360233
22.360232
22.360232
22.360232
22.360232
22.360232
22.360232
22.360231
22.360231
22.360231
22.360231
22.360231
22.36023
22.36023
22.36023
22.36023
22.36023
22.36023
22.36023
22.360229
22.360229
22.360229
22.360229
22.360229
22.360229
22.360229
22.360228
22.360228
22.360228
22.360228
22.360228
22.360228
22.360228
22.360228
22.360227
22.360227
22.360227
22.360227
22.360227
22.360227
22.360227
22.360226
22.360226
22.360226
22.360226
22.360226
22.360225
22.360225
22.360225
22.360225
22.360225
22.360224
22.360224
22.360224
22.360224
22.360224
22.360223
22.360223
22.360223
22.360223
22.360222
22.360222
22.360222
22.360221
22.360221
22.360221
22.360221
22.36022
22.36022
22.36022
22.360219
22.360219
22.360219
22.360218
22.360218
22.360218
22.360217
22.360217
22.360216
22.360216
22.360216
22.360215
22.360215
22.360214
22.360214
22.360214
22.360213
22.360213
22.360212
22.360212
22.360211
22.360211
22.36021
22.36021
22.36021
22.360209
22.360209
22.360208
22.360208
22.360207
22.360207
22.360206
22.360206
22.360205
22.360205
22.360204
22.360204
22.360203
22.360203
22.360202
22.360202
22.360201
22.360201
22.360201
22.3602
22.3602
22.360199
22.360198
22.360198
22.360198
22.360197
22.360197
22.360196
22.360196
22.360195
22.360195
22.360194
22.360194
22.360193
22.360193
22.360193
22.360192
22.360192
22.360191
22.360191
22.36019
22.36019
22.36019
22.360189
22.360189
22.360188
22.360188
22.360188
22.360187
22.360187
22.360187
22.360186
22.360186
22.360186
22.360185
22.360185
22.360185
22.360184
22.360184
22.360184
22.360183
22.360183
22.360183
22.360183
22.360182
22.360182
22.360182
22.360182
22.360181
22.360181
22.360181
22.360181
22.36018
22.36018
22.36018
22.36018
22.36018
22.360179
22.360179
22.360179
22.360179
22.360179
22.360178
22.360178
22.360178
22.360178
22.360178
22.360178
22.360177
22.360177
22.360177
22.360177
22.360177
22.360177
22.360176
22.360176
22.360176
22.360176
22.360176
22.360176
22.360176
22.360175
22.360175
22.360175
22.360175
22.360175
22.360175
22.360174
22.360174
22.360174
22.360174
22.360174
22.360174
22.360174
22.360173
22.360173
22.360173
22.360173
22.360173
22.360173
22.360172
22.360172
22.360172
22.360172
22.360172
22.360171
22.360171
22.360171
22.360171
22.360171
22.36017
22.36017
22.36017
22.36017
22.36017
22.360169
22.360169
22.360169
22.360169
22.360168
22.360168
22.360168
22.360168
22.360167
22.360167
22.360167
22.360167
22.360166
22.360166
22.360166
22.360165
22.360165
22.360165
22.360165
22.360164
22.360164
22.360164
22.360163
22.360163
22.360163
22.360162
22.360162
22.360162
22.360162
22.360161
22.360161
22.360161
22.36016
22.36016
22.36016
22.360159
22.360159
22.360159
22.360158
22.360158
22.360158
22.360157
22.360157
22.360157
22.360156
22.360156
22.360155
22.360155
22.360155
22.360155
22.360154
22.360154
22.360153
22.360153
22.360153
22.360152
22.360152
22.360152
22.360151
22.360151
22.360151
22.36015
22.36015
22.36015
22.360149
22.360149
22.360149
22.360148
22.360148
22.360148
22.360147
22.360147
22.360147
22.360146
22.360146
22.360146
22.360145
22.360145
22.360145
22.360144
22.360144
22.360144
22.360143
22.360143
22.360143
22.360143
22.360142
22.360142
22.360142
22.360141
22.360141
22.360141
22.36014
22.36014
22.36014
22.360139
22.360139
22.360139
22.360139
22.360138
22.360138
22.360138
22.360138
22.360137
22.360137
22.360137
22.360136
22.360136
22.360136
22.360136
22.360135
22.360135
22.360135
22.360135
22.360134
22.360134
22.360134
22.360133
22.360133
22.360133
22.360133
22.360132
22.360132
22.360132
22.360132
22.360131
22.360131
22.360131
22.360131
22.36013
22.36013
22.36013
22.36013
22.36013
22.360129
22.360129
22.360129
22.360129
22.360128
22.360128
22.360128
22.360128
22.360127
22.360127
22.360127
22.360127
22.360126
22.360126
22.360126
22.360126
22.360126
22.360125
22.360125
22.360125
22.360125
22.360124
22.360124
22.360124
22.360124
22.360123
22.360123
22.360123
22.360123
22.360123
22.360122
22.360122
22.360122
22.360122
22.360122
22.360121
22.360121
22.360121
22.360121
22.36012
22.36012
22.36012
22.36012
22.36012
22.360119
22.360119
22.360119
22.360119
22.360118
22.360118
22.360118
22.360118
22.360118
22.360117
22.360117
22.360117
22.360117
22.360117
22.360116
22.360116
22.360116
22.360116
22.360116
22.360115
22.360115
22.360115
22.360115
22.360114
22.360114
22.360114
22.360114
22.360114
22.360113
22.360113
22.360113
22.360113
22.360113
22.360113
22.360112
22.360112
22.360112
22.360112
22.360111
22.360111
22.360111
22.360111
22.360111
22.36011
22.36011
22.36011
22.36011
22.360109
22.360109
22.360109
22.360109
22.360109
22.360108
22.360108
22.360108
22.360108
22.360107
22.360107
22.360107
22.360107
22.360107
22.360106
22.360106
22.360106
22.360106
22.360105
22.360105
22.360105
22.360104
22.360104
22.360104
22.360104
22.360103
22.360103
22.360103
22.360103
22.360102
22.360102
22.360102
22.360101
22.360101
22.360101
22.360101
22.3601
22.3601
22.360099
22.360099
22.360099
22.360098
22.360098
22.360098
22.360098
22.360097
22.360097
22.360096
22.360096
22.360096
22.360095
22.360095
22.360095
22.360094
22.360094
22.360094
22.360093
22.360093
22.360092
22.360092
22.360092
22.360091
22.360091
22.36009
22.36009
22.36009
22.360089
22.360089
22.360088
22.360088
22.360087
22.360087
22.360087
22.360086
22.360086
22.360085
22.360085
22.360085
22.360084
22.360084
22.360083
22.360083
22.360082
22.360082
22.360082
22.360081
22.360081
22.36008
22.36008
22.360079
22.360079
22.360079
22.360078
22.360078
22.360077
22.360077
22.360077
22.360076
22.360076
22.360075
22.360075
22.360074
22.360074
22.360074
22.360073
22.360073
22.360072
22.360072
22.360072
22.360071
22.360071
22.360071
22.36007
22.36007
22.360069
22.360069
22.360069
22.360068
22.360068
22.360068
22.360067
22.360067
22.360067
22.360066
22.360066
22.360066
22.360066
22.360065
22.360065
22.360065
22.360064
22.360064
22.360064
22.360063
22.360063
22.360063
22.360063
22.360062
22.360062
22.360062
22.360062
22.360061
22.360061
22.360061
22.360061
22.36006
22.36006
22.36006
22.36006
22.360059
22.360059
22.360059
22.360059
22.360059
22.360059
22.360058
22.360058
22.360058
22.360058
22.360058
22.360057
22.360057
22.360057
22.360057
22.360057
22.360057
22.360056
22.360056
22.360056
22.360056
22.360056
22.360056
22.360055
22.360055
22.360055
22.360055
22.360055
22.360055
22.360054
22.360054
22.360054
22.360054
22.360054
22.360054
22.360054
22.360053
22.360053
22.360053
22.360053
22.360053
22.360053
22.360052
22.360052
22.360052
22.360052
22.360052
22.360052
22.360051
22.360051
22.360051
22.360051
22.360051
22.36005
22.36005
22.36005
22.36005
22.36005
22.360049
22.360049
22.360049
22.360049
22.360049
22.360049
22.360048
22.360048
22.360048
22.360048
22.360047
22.360047
22.360047
22.360047
22.360046
22.360046
22.360046
22.360046
22.360046
22.360045
22.360045
22.360045
22.360045
22.360044
22.360044
22.360044
22.360044
22.360043
22.360043
22.360043
22.360043
22.360042
22.360042
22.360042
22.360041
22.360041
22.360041
22.360041
22.36004
22.36004
22.36004
22.360039
22.360039
22.360039
22.360039
22.360038
22.360038
22.360038
22.360037
22.360037
22.360037
22.360037
22.360036
22.360036
22.360036
22.360035
22.360035
22.360035
22.360034
22.360034
22.360034
22.360033
22.360033
22.360033
22.360033
22.360032
22.360032
22.360032
22.360031
22.360031
22.360031
22.36003
22.36003
22.36003
22.36003
22.360029
22.360029
22.360029
22.360028
22.360028
22.360028
22.360027
22.360027
22.360027
22.360027
22.360026
22.360026
22.360026
22.360025
22.360025
22.360025
22.360024
22.360024
22.360024
22.360024
22.360023
22.360023
22.360023
22.360022
22.360022
22.360022
22.360022
22.360021
22.360021
22.360021
22.360021
22.36002
22.36002
22.36002
22.36002
22.360019
22.360019
22.360019
22.360019
22.360018
22.360018
22.360018
22.360018
22.360017
22.360017
22.360017
22.360017
22.360016
22.360016
22.360016
22.360016
22.360015
22.360015
22.360015
22.360015
22.360015
22.360014
22.360014
22.360014
22.360014
22.360014
22.360013
22.360013
22.360013
22.360013
22.360013
22.360012
22.360012
22.360012
22.360012
22.360012
22.360012
22.360011
22.360011
22.360011
22.360011
22.360011
22.360011
22.360011
22.36001
22.36001
22.36001
22.36001
22.36001
22.36001
22.36001
22.360009
22.360009
22.360009
22.360009
22.360009
22.360009
22.360008
22.360008
22.360008
22.360008
22.360008
22.360008
22.360007
22.360007
22.360007
22.360007
22.360007
22.360007
22.360007
22.360007
22.360007
22.360007
22.360007
22.360006
22.360006
22.360006
22.360006
22.360006
22.360006
22.360006
22.360006
22.360006
22.360006
22.360006
22.360005
22.360005
22.360004
22.360003
22.360003
22.360002
22.360001
22.360001
22.360001
22.360002
22.360003
22.360004
22.360007
22.360009
22.360011
22.360012
22.360012
22.36001
22.360006
22.36
22.359992
22.359985
22.359984
22.36
22.36005
22.360199
22.360582
22.361526
22.361188
22.359897
22.359809
22.359961
22.359953
22.359929
22.359929
22.359936
22.359942
22.359951
22.359961
22.359971
22.359981
22.35999
22.359998
22.360004
22.360009
22.360012
22.360015
22.360017
22.360018
22.360019
22.36002
22.36002
22.36002
22.360021
22.360021
22.360021
22.360021
22.360021
22.36002
22.36002
22.36002
22.36002
22.36002
22.360019
22.360019
22.360019
22.360018
22.360018
22.360017
22.360012
22.360013
22.360017
22.360017
22.360016
22.360016
22.360016
22.360016
22.360016
22.360015
22.360015
22.360015
22.360015
22.360015
22.360014
22.360014
22.360014
22.360013
22.360013
22.360013
22.360013
22.360012
22.360012
22.360012
22.360012
22.360011
22.360011
22.360011
22.36001
22.36001
22.36001
22.360009
22.360009
22.360009
22.360008
22.360008
22.360008
22.360007
22.360007
22.360007
22.360006
22.360006
22.360006
22.360006
22.360005
22.360005
22.360005
22.360004
22.360004
22.360004
22.360003
22.360003
22.360003
22.360003
22.360002
22.360002
22.360002
22.360001
22.360001
22.360001
22.360001
22.36
22.36
22.36
22.359999
22.359999
22.359999
22.359999
22.359998
22.359998
22.359998
22.359997
22.359997
22.359997
22.359996
22.359996
22.359996
22.359995
22.359995
22.359995
22.359995
22.359994
22.359994
22.359994
22.359993
22.359993
22.359993
22.359992
22.359992
22.359992
22.359991
22.359991
22.359991
22.35999
22.35999
22.35999
22.359989
22.359989
22.359989
22.359988
22.359988
22.359988
22.359987
22.359987
22.359987
22.359987
22.359986
22.359986
22.359986
22.359985
22.359985
22.359985
22.359984
22.359984
22.359984
22.359983
22.359983
22.359983
22.359982
22.359982
22.359982
22.359981
22.359981
22.359981
22.35998
22.35998
22.35998
22.359979
22.359979
22.359979
22.359978
22.359978
22.359978
22.359978
22.359977
22.359977
22.359977
22.359976
22.359976
22.359976
22.359976
22.359975
22.359975
22.359975
22.359974
22.359974
22.359974
22.359974
22.359973
22.359973
22.359973
22.359972
22.359972
22.359972
22.359971
22.359971
22.359971
22.35997
22.35997
22.35997
22.359969
22.359969
22.359969
22.359968
22.359968
22.359968
22.359968
22.359967
22.359967
22.359967
22.359966
22.359966
22.359966
22.359965
22.359965
22.359965
22.359964
22.359964
22.359964
22.359963
22.359963
22.359963
22.359962
22.359962
22.359962
22.359962
22.359961
22.359961
22.359961
22.35996
22.35996
22.35996
22.359959
22.359959
22.359958
22.359958
22.359958
22.359957
22.359957
22.359957
22.359956
22.359956
22.359956
22.359955
22.359955
22.359955
22.359954
22.359954
22.359953
22.359953
22.359953
22.359952
22.359952
22.359951