/*--------------------------------*- C++ -*----------------------------------*\
  =========                 |
  \\      /  F ield         | OpenFOAM: The Open Source CFD Toolbox
   \\    /   O peration     | Website:  https://openfoam.org
    \\  /    A nd           | Version:  7
     \\/     M anipulation  |
\*---------------------------------------------------------------------------*/
FoamFile
{
    version     2.0;
    format      ascii;
    class       volScalarField;
    location    "0.00335";
    object      T;
}
// * * * * * * * * * * * * * * * * * * * * * * * * * * * * * * * * * * * * * //

dimensions      [0 0 0 1 0 0 0];

internalField   nonuniform List<scalar> 
5000
(
277.93654
277.93655
277.93651
277.93644
277.93639
277.93634
277.93631
277.93629
277.93627
277.93626
277.93625
277.93625
277.93624
277.93624
277.93624
277.93624
277.93624
277.93624
277.93624
277.93624
277.93624
277.93624
277.93624
277.93624
277.93624
277.93624
277.93624
277.93624
277.93624
277.93624
277.93624
277.93624
277.93624
277.93624
277.93624
277.93624
277.93624
277.93624
277.93625
277.93625
277.93625
277.93625
277.93625
277.93625
277.93625
277.93625
277.93625
277.93625
277.93625
277.93625
277.93625
277.93625
277.93625
277.93625
277.93625
277.93626
277.93626
277.93626
277.93626
277.93626
277.93626
277.93626
277.93626
277.93626
277.93626
277.93626
277.93626
277.93626
277.93627
277.93627
277.93627
277.93627
277.93627
277.93627
277.93627
277.93627
277.93627
277.93627
277.93627
277.93627
277.93628
277.93628
277.93628
277.93628
277.93628
277.93628
277.93628
277.93628
277.93628
277.93628
277.93628
277.93628
277.93629
277.93629
277.93629
277.93629
277.93629
277.93629
277.93629
277.93629
277.93629
277.93629
277.93629
277.93629
277.9363
277.9363
277.9363
277.9363
277.9363
277.9363
277.9363
277.9363
277.9363
277.9363
277.9363
277.9363
277.93631
277.93631
277.93631
277.93631
277.93631
277.93631
277.93631
277.93631
277.93631
277.93631
277.93631
277.93631
277.93631
277.93632
277.93632
277.93632
277.93632
277.93632
277.93632
277.93632
277.93632
277.93632
277.93632
277.93632
277.93632
277.93633
277.93633
277.93633
277.93633
277.93633
277.93633
277.93633
277.93633
277.93633
277.93633
277.93633
277.93633
277.93633
277.93633
277.93633
277.93633
277.93634
277.93634
277.93634
277.93634
277.93634
277.93634
277.93634
277.93634
277.93634
277.93634
277.93634
277.93634
277.93634
277.93634
277.93634
277.93634
277.93634
277.93635
277.93635
277.93635
277.93635
277.93635
277.93635
277.93635
277.93635
277.93635
277.93635
277.93635
277.93635
277.93635
277.93635
277.93635
277.93635
277.93635
277.93635
277.93635
277.93635
277.93635
277.93635
277.93636
277.93636
277.93636
277.93636
277.93636
277.93636
277.93636
277.93636
277.93636
277.93636
277.93636
277.93636
277.93636
277.93636
277.93636
277.93636
277.93636
277.93636
277.93636
277.93636
277.93636
277.93636
277.93636
277.93636
277.93636
277.93636
277.93636
277.93636
277.93636
277.93636
277.93637
277.93637
277.93637
277.93637
277.93637
277.93637
277.93637
277.93637
277.93637
277.93637
277.93637
277.93637
277.93637
277.93637
277.93637
277.93637
277.93637
277.93637
277.93637
277.93637
277.93637
277.93637
277.93637
277.93637
277.93637
277.93637
277.93637
277.93637
277.93637
277.93637
277.93637
277.93637
277.93637
277.93637
277.93637
277.93637
277.93637
277.93637
277.93637
277.93637
277.93637
277.93637
277.93637
277.93637
277.93637
277.93637
277.93637
277.93637
277.93637
277.93637
277.93637
277.93637
277.93637
277.93638
277.93638
277.93638
277.93638
277.93638
277.93638
277.93638
277.93638
277.93638
277.93638
277.93638
277.93638
277.93638
277.93638
277.93638
277.93638
277.93638
277.93638
277.93638
277.93638
277.93638
277.93638
277.93638
277.93638
277.93638
277.93638
277.93638
277.93638
277.93638
277.93638
277.93638
277.93638
277.93638
277.93638
277.93638
277.93638
277.93638
277.93638
277.93638
277.93638
277.93638
277.93638
277.93638
277.93638
277.93638
277.93638
277.93638
277.93638
277.93638
277.93638
277.93638
277.93638
277.93638
277.93638
277.93638
277.93638
277.93638
277.93638
277.93638
277.93638
277.93638
277.93638
277.93638
277.93638
277.93638
277.93638
277.93638
277.93638
277.93639
277.93639
277.93639
277.93639
277.93639
277.93639
277.93639
277.93639
277.93639
277.93639
277.93639
277.93639
277.93639
277.93639
277.93639
277.93639
277.93639
277.93639
277.93639
277.93639
277.93639
277.93639
277.93639
277.93639
277.93639
277.93639
277.93639
277.93639
277.93639
277.93639
277.93639
277.93639
277.93639
277.93639
277.93639
277.93639
277.93639
277.93639
277.93639
277.93639
277.93639
277.93639
277.93639
277.93639
277.93639
277.93639
277.93639
277.93639
277.93639
277.93639
277.93639
277.93639
277.93639
277.9364
277.9364
277.9364
277.9364
277.9364
277.9364
277.9364
277.9364
277.9364
277.9364
277.9364
277.9364
277.9364
277.9364
277.9364
277.9364
277.9364
277.9364
277.9364
277.9364
277.9364
277.9364
277.9364
277.9364
277.9364
277.9364
277.9364
277.9364
277.9364
277.9364
277.9364
277.9364
277.9364
277.9364
277.9364
277.9364
277.9364
277.9364
277.9364
277.9364
277.93641
277.93641
277.93641
277.93641
277.93641
277.93641
277.93641
277.93641
277.93641
277.93641
277.93641
277.93641
277.93641
277.93641
277.93641
277.93641
277.93641
277.93641
277.93641
277.93641
277.93641
277.93641
277.93641
277.93641
277.93641
277.93641
277.93641
277.93641
277.93641
277.93641
277.93641
277.93641
277.93641
277.93642
277.93642
277.93642
277.93642
277.93642
277.93642
277.93642
277.93642
277.93642
277.93642
277.93642
277.93642
277.93642
277.93642
277.93642
277.93642
277.93642
277.93642
277.93642
277.93642
277.93642
277.93642
277.93642
277.93642
277.93642
277.93642
277.93642
277.93642
277.93643
277.93643
277.93643
277.93643
277.93643
277.93643
277.93643
277.93643
277.93643
277.93643
277.93643
277.93643
277.93643
277.93643
277.93643
277.93643
277.93643
277.93643
277.93643
277.93643
277.93643
277.93643
277.93643
277.93643
277.93643
277.93643
277.93643
277.93643
277.93644
277.93644
277.93644
277.93644
277.93644
277.93644
277.93644
277.93644
277.93644
277.93644
277.93644
277.93644
277.93644
277.93644
277.93644
277.93644
277.93644
277.93644
277.93644
277.93644
277.93644
277.93644
277.93644
277.93644
277.93644
277.93644
277.93644
277.93645
277.93645
277.93645
277.93645
277.93645
277.93645
277.93645
277.93645
277.93645
277.93645
277.93645
277.93645
277.93645
277.93645
277.93645
277.93645
277.93645
277.93645
277.93645
277.93645
277.93645
277.93645
277.93645
277.93645
277.93645
277.93645
277.93645
277.93645
277.93646
277.93646
277.93646
277.93646
277.93646
277.93646
277.93646
277.93646
277.93646
277.93646
277.93646
277.93646
277.93646
277.93646
277.93646
277.93646
277.93646
277.93646
277.93646
277.93646
277.93646
277.93646
277.93646
277.93646
277.93646
277.93646
277.93647
277.93647
277.93647
277.93647
277.93647
277.93647
277.93647
277.93647
277.93647
277.93647
277.93647
277.93647
277.93647
277.93647
277.93647
277.93647
277.93647
277.93647
277.93647
277.93647
277.93647
277.93647
277.93647
277.93647
277.93647
277.93647
277.93647
277.93648
277.93648
277.93648
277.93648
277.93648
277.93648
277.93648
277.93648
277.93648
277.93648
277.93648
277.93648
277.93648
277.93648
277.93648
277.93648
277.93648
277.93648
277.93648
277.93648
277.93648
277.93648
277.93649
277.93649
277.93649
277.93649
277.93649
277.93649
277.93649
277.93649
277.93649
277.93649
277.93649
277.93649
277.93649
277.93649
277.93649
277.93649
277.93649
277.93649
277.93649
277.93649
277.93649
277.93649
277.93649
277.93649
277.93649
277.93649
277.93649
277.93649
277.9365
277.9365
277.9365
277.9365
277.9365
277.9365
277.9365
277.9365
277.9365
277.9365
277.9365
277.9365
277.9365
277.9365
277.9365
277.9365
277.9365
277.9365
277.9365
277.93651
277.93651
277.93651
277.93651
277.93651
277.93651
277.93651
277.93651
277.93651
277.93651
277.93651
277.93651
277.93651
277.93651
277.93651
277.93651
277.93651
277.93651
277.93651
277.93651
277.93651
277.93651
277.93651
277.93651
277.93651
277.93651
277.93651
277.93651
277.93652
277.93652
277.93652
277.93652
277.93652
277.93652
277.93652
277.93652
277.93652
277.93652
277.93652
277.93652
277.93652
277.93652
277.93652
277.93652
277.93652
277.93653
277.93653
277.93653
277.93653
277.93653
277.93653
277.93653
277.93653
277.93653
277.93653
277.93653
277.93653
277.93653
277.93653
277.93653
277.93653
277.93653
277.93653
277.93653
277.93654
277.93654
277.93654
277.93654
277.93654
277.93654
277.93654
277.93654
277.93654
277.93654
277.93654
277.93654
277.93654
277.93654
277.93654
277.93654
277.93654
277.93654
277.93655
277.93655
277.93655
277.93655
277.93655
277.93655
277.93655
277.93655
277.93655
277.93655
277.93655
277.93655
277.93655
277.93655
277.93655
277.93655
277.93655
277.93655
277.93655
277.93655
277.93655
277.93656
277.93656
277.93656
277.93656
277.93656
277.93656
277.93656
277.93656
277.93656
277.93656
277.93656
277.93656
277.93656
277.93656
277.93656
277.93656
277.93656
277.93656
277.93657
277.93657
277.93657
277.93657
277.93657
277.93657
277.93657
277.93657
277.93657
277.93657
277.93657
277.93657
277.93657
277.93657
277.93657
277.93658
277.93658
277.93658
277.93658
277.93658
277.93658
277.93658
277.93658
277.93658
277.93658
277.93658
277.93658
277.93658
277.93658
277.93658
277.93658
277.93658
277.93658
277.93659
277.93659
277.93659
277.93659
277.93659
277.93659
277.93659
277.93659
277.93659
277.93659
277.93659
277.93659
277.93659
277.93659
277.93659
277.9366
277.9366
277.9366
277.9366
277.9366
277.9366
277.9366
277.9366
277.9366
277.9366
277.9366
277.93661
277.93661
277.93661
277.93661
277.93661
277.93661
277.93661
277.93661
277.93661
277.93661
277.93661
277.93661
277.93661
277.93661
277.93661
277.93661
277.93661
277.93661
277.93661
277.93661
277.93662
277.93662
277.93662
277.93662
277.93662
277.93662
277.93662
277.93662
277.93662
277.93662
277.93662
277.93662
277.93662
277.93662
277.93662
277.93663
277.93663
277.93663
277.93663
277.93663
277.93663
277.93663
277.93663
277.93663
277.93663
277.93663
277.93663
277.93663
277.93663
277.93664
277.93664
277.93664
277.93664
277.93664
277.93664
277.93664
277.93664
277.93664
277.93664
277.93664
277.93664
277.93664
277.93664
277.93664
277.93664
277.93665
277.93665
277.93665
277.93665
277.93665
277.93665
277.93665
277.93665
277.93665
277.93665
277.93665
277.93665
277.93666
277.93666
277.93666
277.93666
277.93666
277.93666
277.93666
277.93666
277.93666
277.93666
277.93666
277.93666
277.93666
277.93666
277.93666
277.93667
277.93667
277.93667
277.93667
277.93667
277.93667
277.93667
277.93667
277.93667
277.93667
277.93667
277.93667
277.93667
277.93667
277.93667
277.93668
277.93668
277.93668
277.93668
277.93668
277.93668
277.93668
277.93668
277.93668
277.93668
277.93668
277.93668
277.93668
277.93669
277.93669
277.93669
277.93669
277.93669
277.93669
277.93669
277.93669
277.93669
277.93669
277.93669
277.93669
277.93669
277.93669
277.93669
277.9367
277.9367
277.9367
277.9367
277.9367
277.9367
277.9367
277.9367
277.9367
277.9367
277.93671
277.93671
277.93671
277.93671
277.93671
277.93671
277.93671
277.93671
277.93671
277.93671
277.93671
277.93671
277.93671
277.93671
277.93672
277.93672
277.93672
277.93672
277.93672
277.93672
277.93672
277.93672
277.93672
277.93672
277.93672
277.93672
277.93672
277.93672
277.93673
277.93673
277.93673
277.93673
277.93673
277.93673
277.93673
277.93673
277.93673
277.93673
277.93673
277.93673
277.93674
277.93674
277.93674
277.93674
277.93674
277.93674
277.93674
277.93674
277.93674
277.93674
277.93674
277.93674
277.93674
277.93674
277.93674
277.93675
277.93675
277.93675
277.93675
277.93675
277.93675
277.93675
277.93675
277.93675
277.93675
277.93676
277.93676
277.93676
277.93676
277.93676
277.93676
277.93676
277.93676
277.93676
277.93676
277.93676
277.93676
277.93676
277.93676
277.93676
277.93677
277.93677
277.93677
277.93677
277.93677
277.93677
277.93677
277.93677
277.93677
277.93677
277.93677
277.93677
277.93677
277.93678
277.93678
277.93678
277.93678
277.93678
277.93678
277.93678
277.93678
277.93678
277.93678
277.93678
277.93679
277.93679
277.93679
277.93679
277.93679
277.93679
277.93679
277.93679
277.93679
277.93679
277.93679
277.93679
277.93679
277.93679
277.9368
277.9368
277.9368
277.9368
277.9368
277.9368
277.9368
277.9368
277.9368
277.9368
277.9368
277.9368
277.93681
277.93681
277.93681
277.93681
277.93681
277.93681
277.93681
277.93681
277.93681
277.93681
277.93681
277.93681
277.93681
277.93682
277.93682
277.93682
277.93682
277.93682
277.93682
277.93682
277.93682
277.93682
277.93682
277.93682
277.93682
277.93682
277.93683
277.93683
277.93683
277.93683
277.93683
277.93683
277.93683
277.93683
277.93683
277.93683
277.93683
277.93683
277.93683
277.93683
277.93684
277.93684
277.93684
277.93684
277.93684
277.93684
277.93684
277.93684
277.93684
277.93684
277.93684
277.93685
277.93685
277.93685
277.93685
277.93685
277.93685
277.93685
277.93685
277.93685
277.93685
277.93685
277.93685
277.93686
277.93686
277.93686
277.93686
277.93686
277.93686
277.93686
277.93686
277.93686
277.93686
277.93687
277.93687
277.93687
277.93687
277.93687
277.93687
277.93687
277.93687
277.93687
277.93687
277.93687
277.93687
277.93687
277.93687
277.93688
277.93688
277.93688
277.93688
277.93688
277.93688
277.93688
277.93688
277.93688
277.93688
277.93688
277.93689
277.93689
277.93689
277.93689
277.93689
277.93689
277.93689
277.93689
277.93689
277.9369
277.9369
277.9369
277.9369
277.9369
277.9369
277.9369
277.9369
277.9369
277.9369
277.9369
277.9369
277.93691
277.93691
277.93691
277.93691
277.93691
277.93691
277.93691
277.93691
277.93691
277.93692
277.93692
277.93692
277.93692
277.93692
277.93692
277.93692
277.93692
277.93692
277.93692
277.93693
277.93693
277.93693
277.93693
277.93693
277.93693
277.93693
277.93693
277.93693
277.93694
277.93694
277.93694
277.93694
277.93694
277.93694
277.93694
277.93694
277.93695
277.93695
277.93695
277.93695
277.93695
277.93695
277.93696
277.93696
277.93696
277.93696
277.93696
277.93696
277.93697
277.93697
277.93697
277.93697
277.93697
277.93697
277.93698
277.93698
277.93698
277.93698
277.93698
277.93698
277.93699
277.93699
277.93699
277.93699
277.937
277.937
277.937
277.937
277.93701
277.93701
277.93701
277.93702
277.93702
277.93702
277.93703
277.93703
277.93703
277.93704
277.93704
277.93704
277.93705
277.93705
277.93705
277.93706
277.93706
277.93707
277.93707
277.93708
277.93708
277.93709
277.93709
277.9371
277.9371
277.93711
277.93711
277.93712
277.93713
277.93713
277.93714
277.93715
277.93716
277.93716
277.93717
277.93718
277.93719
277.9372
277.93721
277.93721
277.93722
277.93723
277.93725
277.93726
277.93727
277.93728
277.93729
277.9373
277.93732
277.93733
277.93735
277.93736
277.93738
277.93739
277.93741
277.93743
277.93744
277.93746
277.93748
277.9375
277.93752
277.93754
277.93756
277.93758
277.93761
277.93763
277.93766
277.93768
277.93771
277.93774
277.93777
277.9378
277.93783
277.93787
277.9379
277.93794
277.93797
277.93801
277.93805
277.93809
277.93814
277.93818
277.93823
277.93828
277.93833
277.93838
277.93844
277.93849
277.93855
277.93861
277.93867
277.93874
277.93881
277.93888
277.93895
277.93903
277.93911
277.93919
277.93928
277.93936
277.93946
277.93955
277.93965
277.93975
277.93986
277.93997
277.94009
277.94021
277.94033
277.94046
277.9406
277.94073
277.94088
277.94103
277.94118
277.94134
277.94151
277.94168
277.94186
277.94205
277.94225
277.94245
277.94266
277.94287
277.9431
277.94333
277.94357
277.94383
277.94409
277.94436
277.94464
277.94493
277.94523
277.94554
277.94587
277.9462
277.94655
277.94692
277.94729
277.94768
277.94808
277.9485
277.94894
277.94939
277.94986
277.95034
277.95084
277.95136
277.9519
277.95246
277.95304
277.95365
277.95427
277.95492
277.95559
277.95628
277.957
277.95774
277.95852
277.95932
277.96015
277.96101
277.9619
277.96282
277.96378
277.96477
277.96579
277.96686
277.96796
277.9691
277.97028
277.9715
277.97277
277.97408
277.97544
277.97684
277.9783
277.97981
277.98137
277.98298
277.98466
277.98639
277.98818
277.99003
277.99195
277.99394
277.99599
277.99812
278.00032
278.00259
278.00495
278.00738
278.0099
278.0125
278.0152
278.01798
278.02086
278.02384
278.02692
278.03011
278.0334
278.0368
278.04032
278.04396
278.04772
278.0516
278.05561
278.05976
278.06404
278.06847
278.07304
278.07776
278.08264
278.08768
278.09288
278.09825
278.10379
278.10952
278.11543
278.12153
278.12782
278.13432
278.14102
278.14794
278.15507
278.16243
278.17002
278.17785
278.18592
278.19424
278.20282
278.21167
278.22079
278.23018
278.23987
278.24984
278.26012
278.27071
278.28161
278.29284
278.3044
278.3163
278.32855
278.34116
278.35413
278.36748
278.38122
278.39534
278.40987
278.4248
278.44016
278.45594
278.47216
278.48882
278.50594
278.52353
278.54158
278.56012
278.57916
278.59869
278.61873
278.6393
278.66039
278.68201
278.70419
278.72691
278.7502
278.77406
278.7985
278.82353
278.84915
278.87538
278.90221
278.92967
278.95774
278.98645
279.01579
279.04577
279.07641
279.10769
279.13963
279.17223
279.2055
279.23943
279.27404
279.30931
279.34526
279.38189
279.41918
279.45716
279.4958
279.53512
279.57511
279.61576
279.65707
279.69905
279.74167
279.78494
279.82885
279.87339
279.91856
279.96434
280.01072
280.0577
280.10526
280.15339
280.20207
280.2513
280.30106
280.35132
280.40208
280.45333
280.50503
280.55717
280.60974
280.66271
280.71606
280.76978
280.82383
280.87821
280.93288
280.98782
281.04302
281.09843
281.15405
281.20985
281.26579
281.32187
281.37804
281.4343
281.4906
281.54693
281.60325
281.65955
281.7158
281.77198
281.82805
281.884
281.93979
281.99541
282.05083
282.10603
282.16099
282.21567
282.27006
282.32415
282.37789
282.43129
282.48431
282.53694
282.58916
282.64094
282.69228
282.74316
282.79356
282.84346
282.89285
282.94172
282.99005
283.03784
283.08506
283.13172
283.17779
283.22328
283.26816
283.31244
283.35611
283.39916
283.44158
283.48338
283.52454
283.56506
283.60494
283.64418
283.68277
283.72072
283.75802
283.79468
283.83069
283.86606
283.90078
283.93487
283.96831
284.00112
284.0333
284.06486
284.09579
284.1261
284.15579
284.18488
284.21337
284.24126
284.26855
284.29527
284.3214
284.34696
284.37196
284.39641
284.4203
284.44365
284.46647
284.48876
284.51053
284.53179
284.55255
284.57281
284.59259
284.61189
284.63072
284.64908
284.667
284.68447
284.7015
284.7181
284.73428
284.75005
284.76542
284.78039
284.79497
284.80917
284.823
284.83646
284.84957
284.86233
284.87475
284.88684
284.89859
284.91004
284.92116
284.93199
284.94251
284.95275
284.9627
284.97238
284.98179
284.99093
284.99981
285.00845
285.01684
285.02499
285.03291
285.0406
285.04807
285.05532
285.06237
285.06921
285.07585
285.08229
285.08855
285.09463
285.10052
285.10624
285.1118
285.11718
285.12241
285.12748
285.1324
285.13717
285.1418
285.14628
285.15064
285.15486
285.15895
285.16292
285.16676
285.17049
285.17411
285.17761
285.181
285.18429
285.18748
285.19057
285.19357
285.19647
285.19928
285.202
285.20464
285.2072
285.20967
285.21207
285.21439
285.21664
285.21882
285.22093
285.22297
285.22495
285.22686
285.22872
285.23051
285.23225
285.23393
285.23556
285.23713
285.23866
285.24014
285.24157
285.24295
285.24429
285.24558
285.24683
285.24805
285.24922
285.25036
285.25145
285.25252
285.25354
285.25454
285.2555
285.25643
285.25733
285.2582
285.25905
285.25986
285.26065
285.26141
285.26215
285.26286
285.26355
285.26422
285.26487
285.26549
285.26609
285.26668
285.26724
285.26779
285.26832
285.26883
285.26932
285.2698
285.27026
285.27071
285.27114
285.27156
285.27196
285.27236
285.27273
285.2731
285.27345
285.2738
285.27413
285.27445
285.27476
285.27506
285.27535
285.27563
285.2759
285.27616
285.27641
285.27666
285.2769
285.27713
285.27735
285.27756
285.27777
285.27797
285.27817
285.27836
285.27854
285.27872
285.27889
285.27906
285.27922
285.27938
285.27953
285.27968
285.27982
285.27996
285.28009
285.28022
285.28034
285.28047
285.28058
285.2807
285.28081
285.28092
285.28102
285.28113
285.28123
285.28132
285.28142
285.28151
285.2816
285.28168
285.28177
285.28185
285.28193
285.28201
285.28208
285.28216
285.28223
285.2823
285.28237
285.28243
285.2825
285.28256
285.28263
285.28269
285.28275
285.28281
285.28286
285.28292
285.28297
285.28303
285.28308
285.28313
285.28319
285.28324
285.28329
285.28333
285.28338
285.28343
285.28348
285.28352
285.28357
285.28361
285.28366
285.2837
285.28374
285.28379
285.28383
285.28387
285.28391
285.28395
285.284
285.28404
285.28408
285.28412
285.28416
285.2842
285.28424
285.28428
285.28432
285.28435
285.28439
285.28443
285.28447
285.28451
285.28455
285.28459
285.28463
285.28467
285.28471
285.28475
285.28479
285.28482
285.28486
285.2849
285.28494
285.28498
285.28502
285.28506
285.2851
285.28514
285.28518
285.28522
285.28526
285.2853
285.28534
285.28538
285.28542
285.28546
285.2855
285.28555
285.28559
285.28563
285.28567
285.28571
285.28576
285.2858
285.28584
285.28589
285.28593
285.28597
285.28602
285.28606
285.28611
285.28615
285.2862
285.28625
285.28629
285.28634
285.28638
285.28643
285.28648
285.28653
285.28657
285.28662
285.28667
285.28672
285.28677
285.28682
285.28687
285.28692
285.28697
285.28702
285.28707
285.28712
285.28717
285.28722
285.28728
285.28733
285.28738
285.28744
285.28749
285.28754
285.2876
285.28765
285.28771
285.28776
285.28782
285.28788
285.28793
285.28799
285.28805
285.2881
285.28816
285.28822
285.28828
285.28834
285.2884
285.28845
285.28851
285.28857
285.28863
285.28869
285.28875
285.28882
285.28888
285.28894
285.289
285.28906
285.28913
285.28919
285.28925
285.28932
285.28938
285.28944
285.28951
285.28957
285.28964
285.2897
285.28977
285.28983
285.2899
285.28997
285.29003
285.2901
285.29016
285.29023
285.2903
285.29036
285.29043
285.2905
285.29057
285.29064
285.2907
285.29077
285.29084
285.29091
285.29098
285.29105
285.29112
285.29119
285.29126
285.29133
285.2914
285.29147
285.29154
285.29161
285.29168
285.29175
285.29182
285.2919
285.29197
285.29204
285.29211
285.29219
285.29226
285.29233
285.29241
285.29248
285.29256
285.29263
285.29271
285.29279
285.29286
285.29294
285.29302
285.29309
285.29317
285.29325
285.29333
285.29341
285.29349
285.29357
285.29366
285.29374
285.29382
285.29391
285.29399
285.29408
285.29417
285.29426
285.29435
285.29444
285.29453
285.29462
285.29472
285.29481
285.29491
285.29501
285.29511
285.29521
285.29531
285.29541
285.29552
285.29562
285.29573
285.29584
285.29595
285.29606
285.29617
285.29629
285.2964
285.29652
285.29664
285.29676
285.29689
285.29701
285.29714
285.29726
285.29739
285.29752
285.29766
285.29779
285.29793
285.29806
285.2982
285.29834
285.29848
285.29863
285.29877
285.29892
285.29907
285.29922
285.29937
285.29952
285.29967
285.29983
285.29998
285.30014
285.3003
285.30046
285.30062
285.30078
285.30094
285.3011
285.30127
285.30143
285.3016
285.30177
285.30194
285.3021
285.30227
285.30244
285.30261
285.30278
285.30296
285.30313
285.3033
285.30347
285.30365
285.30382
285.304
285.30417
285.30435
285.30452
285.3047
285.30487
285.30505
285.30523
285.3054
285.30558
285.30576
285.30594
285.30611
285.30629
285.30647
285.30665
285.30683
285.307
285.30718
285.30736
285.30754
285.30772
285.30789
285.30807
285.30825
285.30843
285.30861
285.30878
285.30896
285.30914
285.30932
285.30949
285.30967
285.30985
285.31002
285.3102
285.31038
285.31056
285.31073
285.31091
285.31109
285.31127
285.31144
285.31162
285.3118
285.31197
285.31215
285.31233
285.3125
285.31268
285.31286
285.31303
285.31321
285.31338
285.31356
285.31374
285.31391
285.31409
285.31426
285.31444
285.31461
285.31479
285.31496
285.31514
285.31532
285.31549
285.31567
285.31584
285.31602
285.3162
285.31637
285.31655
285.31672
285.3169
285.31708
285.31725
285.31743
285.31761
285.31778
285.31796
285.31813
285.31831
285.31849
285.31867
285.31884
285.31902
285.3192
285.31937
285.31955
285.31973
285.31991
285.32008
285.32026
285.32044
285.32062
285.3208
285.32098
285.32116
285.32134
285.32152
285.3217
285.32188
285.32206
285.32224
285.32241
285.32259
285.32278
285.32296
285.32314
285.32332
285.3235
285.32368
285.32387
285.32405
285.32423
285.32442
285.3246
285.32479
285.32497
285.32515
285.32533
285.32552
285.3257
285.32589
285.32608
285.32626
285.32645
285.32664
285.32683
285.32701
285.3272
285.32739
285.32758
285.32777
285.32795
285.32814
285.32833
285.32852
285.32872
285.32891
285.3291
285.32929
285.32948
285.32968
285.32987
285.33007
285.33026
285.33046
285.33065
285.33085
285.33104
285.33124
285.33144
285.33164
285.33184
285.33204
285.33224
285.33244
285.33264
285.33284
285.33304
285.33324
285.33345
285.33365
285.33385
285.33406
285.33427
285.33447
285.33468
285.33488
285.33509
285.3353
285.3355
285.33571
285.33592
285.33613
285.33634
285.33655
285.33676
285.33697
285.33718
285.33739
285.33761
285.33782
285.33803
285.33824
285.33846
285.33867
285.33888
285.33909
285.33931
285.33952
285.33973
285.33995
285.34016
285.34037
285.34058
285.3408
285.34101
285.34122
285.34143
285.34164
285.34185
285.34206
285.34227
285.34248
285.34269
285.3429
285.3431
285.34331
285.34352
285.34373
285.34393
285.34413
285.34434
285.34454
285.34474
285.34494
285.34514
285.34534
285.34554
285.34574
285.34593
285.34613
285.34632
285.34651
285.34671
285.3469
285.34709
285.34728
285.34747
285.34765
285.34784
285.34802
285.34821
285.34839
285.34858
285.34876
285.34895
285.34913
285.34931
285.34949
285.34967
285.34985
285.35003
285.3502
285.35038
285.35056
285.35074
285.35091
285.35109
285.35127
285.35144
285.35162
285.35179
285.35196
285.35214
285.35231
285.35249
285.35266
285.35284
285.35301
285.35319
285.35336
285.35354
285.35371
285.35389
285.35406
285.35423
285.3544
285.35458
285.35475
285.35492
285.3551
285.35527
285.35545
285.35562
285.35579
285.35596
285.35614
285.35631
285.35648
285.35665
285.35682
285.35699
285.35717
285.35734
285.35751
285.35768
285.35785
285.35802
285.35819
285.35836
285.35853
285.3587
285.35887
285.35904
285.35921
285.35938
285.35955
285.35972
285.35988
285.36005
285.36022
285.36039
285.36056
285.36073
285.3609
285.36106
285.36124
285.36141
285.36158
285.36175
285.36192
285.36209
285.36226
285.36244
285.36261
285.36278
285.36295
285.36313
285.3633
285.36348
285.36365
285.36383
285.364
285.36418
285.36436
285.36454
285.36473
285.36491
285.36509
285.36528
285.36546
285.36565
285.36584
285.36603
285.36622
285.36642
285.36661
285.3668
285.367
285.3672
285.3674
285.3676
285.36781
285.36801
285.36822
285.36842
285.36864
285.36885
285.36906
285.36928
285.3695
285.36972
285.36994
285.37017
285.3704
285.37063
285.37086
285.37109
285.37133
285.37157
285.37182
285.37206
285.37231
285.37256
285.37282
285.37308
285.37333
285.3736
285.37386
285.37413
285.3744
285.37468
285.37495
285.37523
285.37551
285.3758
285.37609
285.37639
285.37668
285.37698
285.37729
285.3776
285.37792
285.37825
285.37858
285.37891
285.37925
285.37959
285.37994
285.3803
285.38065
285.38102
285.38138
285.38175
285.38213
285.38251
285.3829
285.38329
285.38369
285.3841
285.38451
285.38492
285.38534
285.38577
285.3862
285.38664
285.38709
285.38754
285.388
285.38846
285.38894
285.38942
285.3899
285.3904
285.3909
285.39141
285.39193
285.39245
285.39299
285.39353
285.39408
285.39464
285.3952
285.39578
285.39637
285.39697
285.39757
285.39819
285.39881
285.39944
285.40009
285.40075
285.40141
285.40209
285.40277
285.40347
285.40418
285.4049
285.40563
285.40638
285.40714
285.40791
285.40869
285.40949
285.41029
285.41112
285.41195
285.4128
285.41366
285.41454
285.41543
285.41633
285.41725
285.41819
285.41914
285.4201
285.42108
285.42207
285.42308
285.42411
285.42515
285.4262
285.42728
285.42837
285.42947
285.43059
285.43172
285.43287
285.43404
285.43522
285.43642
285.43763
285.43885
285.44009
285.44135
285.44262
285.4439
285.44519
285.4465
285.44782
285.44915
285.4505
285.45186
285.45323
285.45462
285.45602
285.45743
285.45886
285.46031
285.46178
285.46326
285.46476
285.46629
285.46783
285.4694
285.47099
285.4726
285.47424
285.47591
285.47761
285.47935
285.48111
285.48291
285.48476
285.48665
285.48859
285.49057
285.4926
285.49468
285.4968
285.49896
285.50117
285.50342
285.5057
285.50803
285.51038
285.51278
285.5152
285.51765
285.52013
285.52264
285.52517
285.52771
285.53028
285.53286
285.53545
285.53805
285.54066
285.54329
285.54596
285.5487
285.55159
285.55481
285.55866
285.56375
285.57114
285.58269
285.60145
285.63225
285.68221
285.76127
285.88217
286.05985
286.30976
286.64523
287.07433
287.59733
288.20591
288.88513
289.61761
290.38796
291.18489
291.99948
292.82124
293.63582
294.42702
295.1818
295.89305
296.55737
297.17075
297.72802
298.22658
298.66865
299.05817
299.3974
299.6882
299.93508
300.14406
300.31956
300.46448
300.58287
300.68027
300.75996
300.82283
300.87319
300.91511
300.94692
300.97194
300.99408
301.00946
301.02284
301.03474
301.04277
301.05105
301.05835
301.06308
301.07025
301.07366
301.08031
301.08375
301.08942
301.09343
301.09841
301.10277
301.10748
301.11204
301.11673
301.12145
301.12623
301.13105
301.13591
301.14081
301.14576
301.15074
301.15574
301.16079
301.16586
301.17097
301.1761
301.18127
301.18648
301.19172
301.19699
301.20231
301.20766
301.21306
301.2185
301.224
301.22954
301.23513
301.24078
301.24648
301.25224
301.25806
301.26393
301.26986
301.27585
301.2819
301.288
301.29416
301.30038
301.30665
301.31298
301.31937
301.3258
301.33229
301.33883
301.34542
301.35207
301.35876
301.3655
301.37229
301.37913
301.38601
301.39295
301.39992
301.40695
301.41402
301.42113
301.42829
301.43549
301.44274
301.45003
301.45736
301.46473
301.47215
301.47962
301.48712
301.49467
301.50226
301.50989
301.51756
301.52527
301.53302
301.54082
301.54865
301.55653
301.56445
301.57241
301.5804
301.58844
301.59652
301.60463
301.61279
301.62099
301.62923
301.6375
301.64581
301.65417
301.66256
301.67099
301.67945
301.68796
301.6965
301.70509
301.7137
301.72236
301.73106
301.73979
301.74855
301.75736
301.7662
301.77507
301.78399
301.79294
301.80192
301.81094
301.82
301.82909
301.83822
301.84738
301.85658
301.86581
301.87508
301.88438
301.89371
301.90308
301.91248
301.92191
301.93138
301.94089
301.95042
301.95999
301.96959
301.97922
301.98889
301.99858
302.00831
302.01807
302.02787
302.03769
302.04755
302.05743
302.06735
302.0773
302.08727
302.09728
302.10732
302.11739
302.12749
302.13762
302.14778
302.15796
302.16818
302.17842
302.1887
302.199
302.20933