/*--------------------------------*- C++ -*----------------------------------*\
  =========                 |
  \\      /  F ield         | OpenFOAM: The Open Source CFD Toolbox
   \\    /   O peration     | Website:  https://openfoam.org
    \\  /    A nd           | Version:  7
     \\/     M anipulation  |
\*---------------------------------------------------------------------------*/
FoamFile
{
    version     2.0;
    format      ascii;
    class       volScalarField;
    location    "0.00327";
    object      rho;
}
// * * * * * * * * * * * * * * * * * * * * * * * * * * * * * * * * * * * * * //

dimensions      [1 -3 0 0 0 0 0];

internalField   nonuniform List<scalar> 
5000
(
1.33748
1.33748
1.33748
1.33748
1.33748
1.33748
1.33748
1.33748
1.33748
1.33748
1.33748
1.33748
1.33748
1.3374801
1.3374801
1.3374801
1.3374801
1.3374801
1.3374801
1.3374801
1.3374801
1.3374801
1.3374801
1.3374801
1.3374801
1.3374801
1.3374801
1.3374801
1.3374801
1.3374801
1.3374801
1.3374801
1.3374801
1.3374801
1.3374801
1.3374801
1.3374801
1.3374801
1.3374801
1.3374801
1.3374801
1.3374801
1.3374801
1.3374801
1.3374801
1.3374801
1.3374801
1.3374801
1.3374801
1.3374801
1.3374801
1.3374801
1.3374801
1.3374801
1.3374801
1.3374801
1.3374801
1.3374801
1.3374801
1.3374801
1.3374801
1.3374801
1.3374801
1.3374801
1.3374801
1.3374801
1.3374801
1.3374801
1.3374801
1.3374801
1.3374801
1.3374801
1.3374801
1.3374801
1.3374801
1.3374801
1.3374801
1.3374801
1.3374801
1.3374801
1.3374801
1.3374801
1.3374801
1.3374801
1.3374801
1.3374801
1.3374801
1.3374801
1.3374801
1.3374801
1.3374801
1.3374801
1.3374801
1.3374801
1.3374802
1.3374802
1.3374802
1.3374802
1.3374802
1.3374802
1.3374802
1.3374802
1.3374802
1.3374802
1.3374802
1.3374802
1.3374802
1.3374802
1.3374802
1.3374802
1.3374802
1.3374802
1.3374802
1.3374802
1.3374802
1.3374802
1.3374802
1.3374802
1.3374802
1.3374802
1.3374802
1.3374802
1.3374802
1.3374802
1.3374802
1.3374802
1.3374802
1.3374802
1.3374802
1.3374802
1.3374802
1.3374802
1.3374802
1.3374802
1.3374802
1.3374802
1.3374802
1.3374802
1.3374802
1.3374802
1.3374802
1.3374802
1.3374802
1.3374802
1.3374802
1.3374803
1.3374803
1.3374803
1.3374803
1.3374803
1.3374803
1.3374803
1.3374803
1.3374803
1.3374803
1.3374803
1.3374803
1.3374803
1.3374803
1.3374803
1.3374803
1.3374802
1.3374802
1.3374802
1.3374802
1.3374802
1.3374802
1.3374802
1.3374802
1.3374802
1.3374801
1.3374801
1.3374801
1.3374801
1.33748
1.3374799
1.3374796
1.3374789
1.3374773
1.337474
1.337469
1.3374617
1.3374516
1.3374379
1.3374199
1.337397
1.3373687
1.3373345
1.3372943
1.3372482
1.3371965
1.3371399
1.3370791
1.3370152
1.3369494
1.3368827
1.3368163
1.3367515
1.3366891
1.3366299
1.3365747
1.336524
1.3364779
1.3364366
1.3364001
1.3363683
1.3363408
1.3363173
1.3362975
1.336281
1.3362674
1.3362562
1.3362471
1.3362399
1.3362341
1.3362295
1.3362259
1.3362232
1.336221
1.3362194
1.3362182
1.3362172
1.3362165
1.336216
1.3362156
1.3362153
1.3362151
1.336215
1.3362149
1.3362148
1.3362147
1.3362147
1.3362146
1.3362146
1.3362146
1.3362146
1.3362146
1.3362146
1.3362146
1.3362146
1.3362146
1.3362146
1.3362145
1.3362145
1.3362145
1.3362145
1.3362145
1.3362145
1.3362145
1.3362145
1.3362145
1.3362145
1.3362145
1.3362145
1.3362145
1.3362145
1.3362145
1.3362145
1.3362145
1.3362145
1.3362145
1.3362145
1.3362145
1.3362145
1.3362145
1.3362145
1.3362145
1.3362145
1.3362145
1.3362145
1.3362145
1.3362145
1.3362145
1.3362145
1.3362145
1.3362145
1.3362145
1.3362145
1.3362145
1.3362145
1.3362145
1.3362145
1.3362145
1.3362145
1.3362145
1.3362145
1.3362144
1.3362144
1.3362144
1.3362144
1.3362144
1.3362144
1.3362144
1.3362144
1.3362144
1.3362144
1.3362144
1.3362144
1.3362144
1.3362144
1.3362144
1.3362144
1.3362144
1.3362144
1.3362144
1.3362144
1.3362144
1.3362144
1.3362144
1.3362144
1.3362144
1.3362144
1.3362144
1.3362144
1.3362144
1.3362144
1.3362144
1.3362144
1.3362144
1.3362144
1.3362144
1.3362144
1.3362144
1.3362144
1.3362144
1.3362144
1.3362144
1.3362144
1.3362144
1.3362144
1.3362143
1.3362143
1.3362143
1.3362143
1.3362143
1.3362143
1.3362143
1.3362143
1.3362143
1.3362143
1.3362143
1.3362143
1.3362143
1.3362143
1.3362143
1.3362143
1.3362143
1.3362143
1.3362143
1.3362143
1.3362143
1.3362143
1.3362143
1.3362143
1.3362143
1.3362143
1.3362143
1.3362143
1.3362143
1.3362143
1.3362143
1.3362143
1.3362143
1.3362143
1.3362143
1.3362143
1.3362143
1.3362143
1.3362143
1.3362143
1.3362143
1.3362143
1.3362142
1.3362142
1.3362142
1.3362142
1.3362142
1.3362142
1.3362142
1.3362142
1.3362142
1.3362142
1.3362142
1.3362142
1.3362142
1.3362142
1.3362142
1.3362142
1.3362142
1.3362142
1.3362142
1.3362142
1.3362142
1.3362142
1.3362142
1.3362142
1.3362142
1.3362142
1.3362142
1.3362142
1.3362142
1.3362142
1.3362142
1.3362142
1.3362142
1.3362142
1.3362142
1.3362142
1.3362142
1.3362142
1.3362142
1.3362142
1.3362141
1.3362141
1.3362141
1.3362141
1.3362141
1.3362141
1.3362141
1.3362141
1.3362141
1.3362141
1.3362141
1.3362141
1.3362141
1.3362141
1.3362141
1.3362141
1.3362141
1.3362141
1.3362141
1.3362141
1.3362141
1.3362141
1.3362141
1.3362141
1.3362141
1.3362141
1.3362141
1.3362141
1.3362141
1.3362141
1.3362141
1.3362141
1.3362141
1.3362141
1.3362141
1.3362141
1.3362141
1.3362141
1.336214
1.336214
1.336214
1.336214
1.336214
1.336214
1.336214
1.336214
1.336214
1.336214
1.336214
1.336214
1.336214
1.336214
1.336214
1.336214
1.336214
1.336214
1.336214
1.336214
1.336214
1.336214
1.336214
1.336214
1.336214
1.336214
1.336214
1.336214
1.336214
1.336214
1.336214
1.336214
1.336214
1.336214
1.336214
1.336214
1.336214
1.336214
1.3362139
1.3362139
1.3362139
1.3362139
1.3362139
1.3362139
1.3362139
1.3362139
1.3362139
1.3362139
1.3362139
1.3362139
1.3362139
1.3362139
1.3362139
1.3362139
1.3362139
1.3362139
1.3362139
1.3362139
1.3362139
1.3362139
1.3362139
1.3362139
1.3362139
1.3362139
1.3362139
1.3362139
1.3362139
1.3362139
1.3362139
1.3362139
1.3362139
1.3362139
1.3362139
1.3362139
1.3362138
1.3362138
1.3362138
1.3362138
1.3362138
1.3362138
1.3362138
1.3362138
1.3362138
1.3362138
1.3362138
1.3362138
1.3362138
1.3362138
1.3362138
1.3362138
1.3362138
1.3362138
1.3362138
1.3362138
1.3362138
1.3362138
1.3362138
1.3362138
1.3362138
1.3362138
1.3362138
1.3362138
1.3362138
1.3362138
1.3362138
1.3362138
1.3362138
1.3362138
1.3362137
1.3362137
1.3362137
1.3362137
1.3362137
1.3362137
1.3362137
1.3362137
1.3362137
1.3362137
1.3362137
1.3362137
1.3362137
1.3362137
1.3362137
1.3362137
1.3362137
1.3362137
1.3362137
1.3362137
1.3362137
1.3362137
1.3362137
1.3362137
1.3362137
1.3362137
1.3362137
1.3362137
1.3362137
1.3362137
1.3362137
1.3362137
1.3362137
1.3362137
1.3362137
1.3362136
1.3362136
1.3362136
1.3362136
1.3362136
1.3362136
1.3362136
1.3362136
1.3362136
1.3362136
1.3362136
1.3362136
1.3362136
1.3362136
1.3362136
1.3362136
1.3362136
1.3362136
1.3362136
1.3362136
1.3362136
1.3362136
1.3362136
1.3362136
1.3362136
1.3362136
1.3362136
1.3362136
1.3362136
1.3362136
1.3362136
1.3362136
1.3362135
1.3362135
1.3362135
1.3362135
1.3362135
1.3362135
1.3362135
1.3362135
1.3362135
1.3362135
1.3362135
1.3362135
1.3362135
1.3362135
1.3362135
1.3362135
1.3362135
1.3362135
1.3362135
1.3362135
1.3362135
1.3362135
1.3362135
1.3362135
1.3362135
1.3362135
1.3362135
1.3362135
1.3362135
1.3362135
1.3362134
1.3362134
1.3362134
1.3362134
1.3362134
1.3362134
1.3362134
1.3362134
1.3362134
1.3362134
1.3362134
1.3362134
1.3362134
1.3362134
1.3362134
1.3362134
1.3362134
1.3362134
1.3362134
1.3362134
1.3362134
1.3362134
1.3362134
1.3362134
1.3362134
1.3362134
1.3362134
1.3362134
1.3362134
1.3362134
1.3362134
1.3362134
1.3362133
1.3362133
1.3362133
1.3362133
1.3362133
1.3362133
1.3362133
1.3362133
1.3362133
1.3362133
1.3362133
1.3362133
1.3362133
1.3362133
1.3362133
1.3362133
1.3362133
1.3362133
1.3362133
1.3362133
1.3362133
1.3362133
1.3362133
1.3362133
1.3362133
1.3362133
1.3362133
1.3362133
1.3362133
1.3362133
1.3362133
1.3362132
1.3362132
1.3362132
1.3362132
1.3362132
1.3362132
1.3362132
1.3362132
1.3362132
1.3362132
1.3362132
1.3362132
1.3362132
1.3362132
1.3362132
1.3362132
1.3362132
1.3362132
1.3362132
1.3362132
1.3362132
1.3362132
1.3362132
1.3362132
1.3362132
1.3362132
1.3362132
1.3362132
1.3362132
1.3362131
1.3362131
1.3362131
1.3362131
1.3362131
1.3362131
1.3362131
1.3362131
1.3362131
1.3362131
1.3362131
1.3362131
1.3362131
1.3362131
1.3362131
1.3362131
1.3362131
1.3362131
1.3362131
1.3362131
1.3362131
1.3362131
1.3362131
1.3362131
1.3362131
1.3362131
1.3362131
1.3362131
1.336213
1.336213
1.336213
1.336213
1.336213
1.336213
1.336213
1.336213
1.336213
1.336213
1.336213
1.336213
1.336213
1.336213
1.336213
1.336213
1.336213
1.336213
1.336213
1.336213
1.336213
1.336213
1.336213
1.336213
1.336213
1.336213
1.336213
1.336213
1.3362129
1.3362129
1.3362129
1.3362129
1.3362129
1.3362129
1.3362129
1.3362129
1.3362129
1.3362129
1.3362129
1.3362129
1.3362129
1.3362129
1.3362129
1.3362129
1.3362129
1.3362129
1.3362129
1.3362129
1.3362129
1.3362129
1.3362129
1.3362129
1.3362129
1.3362129
1.3362129
1.3362129
1.3362128
1.3362128
1.3362128
1.3362128
1.3362128
1.3362128
1.3362128
1.3362128
1.3362128
1.3362128
1.3362128
1.3362128
1.3362128
1.3362128
1.3362128
1.3362128
1.3362128
1.3362128
1.3362128
1.3362128
1.3362128
1.3362128
1.3362128
1.3362128
1.3362128
1.3362128
1.3362128
1.3362128
1.3362127
1.3362127
1.3362127
1.3362127
1.3362127
1.3362127
1.3362127
1.3362127
1.3362127
1.3362127
1.3362127
1.3362127
1.3362127
1.3362127
1.3362127
1.3362127
1.3362127
1.3362127
1.3362127
1.3362127
1.3362127
1.3362127
1.3362127
1.3362127
1.3362126
1.3362126
1.3362126
1.3362126
1.3362126
1.3362126
1.3362126
1.3362126
1.3362126
1.3362126
1.3362126
1.3362126
1.3362126
1.3362126
1.3362126
1.3362126
1.3362126
1.3362126
1.3362126
1.3362126
1.3362126
1.3362126
1.3362126
1.3362126
1.3362126
1.3362126
1.3362126
1.3362125
1.3362125
1.3362125
1.3362125
1.3362125
1.3362125
1.3362125
1.3362125
1.3362125
1.3362125
1.3362125
1.3362125
1.3362125
1.3362125
1.3362125
1.3362125
1.3362125
1.3362125
1.3362125
1.3362125
1.3362125
1.3362125
1.3362125
1.3362125
1.3362124
1.3362124
1.3362124
1.3362124
1.3362124
1.3362124
1.3362124
1.3362124
1.3362124
1.3362124
1.3362124
1.3362124
1.3362124
1.3362124
1.3362124
1.3362124
1.3362124
1.3362124
1.3362124
1.3362124
1.3362124
1.3362124
1.3362124
1.3362124
1.3362123
1.3362123
1.3362123
1.3362123
1.3362123
1.3362123
1.3362123
1.3362123
1.3362123
1.3362123
1.3362123
1.3362123
1.3362123
1.3362123
1.3362123
1.3362123
1.3362123
1.3362123
1.3362123
1.3362123
1.3362123
1.3362123
1.3362123
1.3362122
1.3362122
1.3362122
1.3362122
1.3362122
1.3362122
1.3362122
1.3362122
1.3362122
1.3362122
1.3362122
1.3362122
1.3362122
1.3362122
1.3362122
1.3362122
1.3362122
1.3362122
1.3362122
1.3362122
1.3362122
1.3362122
1.3362121
1.3362121
1.3362121
1.3362121
1.3362121
1.3362121
1.3362121
1.3362121
1.3362121
1.3362121
1.3362121
1.3362121
1.3362121
1.3362121
1.3362121
1.3362121
1.3362121
1.3362121
1.3362121
1.3362121
1.3362121
1.3362121
1.336212
1.336212
1.336212
1.336212
1.336212
1.336212
1.336212
1.336212
1.336212
1.336212
1.336212
1.336212
1.336212
1.336212
1.336212
1.336212
1.336212
1.336212
1.336212
1.336212
1.336212
1.336212
1.3362119
1.3362119
1.3362119
1.3362119
1.3362119
1.3362119
1.3362119
1.3362119
1.3362119
1.3362119
1.3362119
1.3362119
1.3362119
1.3362119
1.3362119
1.3362119
1.3362119
1.3362119
1.3362119
1.3362119
1.3362119
1.3362118
1.3362118
1.3362118
1.3362118
1.3362118
1.3362118
1.3362118
1.3362118
1.3362118
1.3362118
1.3362118
1.3362118
1.3362118
1.3362118
1.3362118
1.3362118
1.3362118
1.3362118
1.3362118
1.3362118
1.3362118
1.3362117
1.3362117
1.3362117
1.3362117
1.3362117
1.3362117
1.3362117
1.3362117
1.3362117
1.3362117
1.3362117
1.3362117
1.3362117
1.3362117
1.3362117
1.3362117
1.3362117
1.3362117
1.3362117
1.3362117
1.3362117
1.3362116
1.3362116
1.3362116
1.3362116
1.3362116
1.3362116
1.3362116
1.3362116
1.3362116
1.3362116
1.3362116
1.3362116
1.3362116
1.3362116
1.3362116
1.3362116
1.3362116
1.3362116
1.3362116
1.3362116
1.3362115
1.3362115
1.3362115
1.3362115
1.3362115
1.3362115
1.3362115
1.3362115
1.3362115
1.3362115
1.3362115
1.3362115
1.3362115
1.3362115
1.3362115
1.3362115
1.3362115
1.3362115
1.3362115
1.3362115
1.3362114
1.3362114
1.3362114
1.3362114
1.3362114
1.3362114
1.3362114
1.3362114
1.3362114
1.3362114
1.3362114
1.3362114
1.3362114
1.3362114
1.3362114
1.3362114
1.3362114
1.3362114
1.3362114
1.3362114
1.3362113
1.3362113
1.3362113
1.3362113
1.3362113
1.3362113
1.3362113
1.3362113
1.3362113
1.3362113
1.3362113
1.3362113
1.3362113
1.3362113
1.3362113
1.3362113
1.3362113
1.3362113
1.3362113
1.3362112
1.3362112
1.3362112
1.3362112
1.3362112
1.3362112
1.3362112
1.3362112
1.3362112
1.3362112
1.3362112
1.3362112
1.3362112
1.3362112
1.3362112
1.3362112
1.3362112
1.3362112
1.3362112
1.3362111
1.3362111
1.3362111
1.3362111
1.3362111
1.3362111
1.3362111
1.3362111
1.3362111
1.3362111
1.3362111
1.3362111
1.3362111
1.3362111
1.3362111
1.3362111
1.3362111
1.336211
1.336211
1.336211
1.336211
1.336211
1.336211
1.336211
1.336211
1.336211
1.336211
1.336211
1.336211
1.336211
1.336211
1.336211
1.336211
1.336211
1.336211
1.336211
1.3362109
1.3362109
1.3362109
1.3362109
1.3362109
1.3362109
1.3362109
1.3362109
1.3362109
1.3362109
1.3362109
1.3362109
1.3362109
1.3362109
1.3362109
1.3362109
1.3362109
1.3362108
1.3362108
1.3362108
1.3362108
1.3362108
1.3362108
1.3362108
1.3362108
1.3362108
1.3362108
1.3362108
1.3362108
1.3362108
1.3362108
1.3362108
1.3362108
1.3362108
1.3362108
1.3362107
1.3362107
1.3362107
1.3362107
1.3362107
1.3362107
1.3362107
1.3362107
1.3362107
1.3362107
1.3362107
1.3362107
1.3362107
1.3362107
1.3362107
1.3362107
1.3362106
1.3362106
1.3362106
1.3362106
1.3362106
1.3362106
1.3362106
1.3362106
1.3362106
1.3362106
1.3362106
1.3362106
1.3362106
1.3362106
1.3362106
1.3362106
1.3362106
1.3362105
1.3362105
1.3362105
1.3362105
1.3362105
1.3362105
1.3362105
1.3362105
1.3362105
1.3362105
1.3362105
1.3362105
1.3362105
1.3362105
1.3362105
1.3362105
1.3362104
1.3362104
1.3362104
1.3362104
1.3362104
1.3362104
1.3362104
1.3362104
1.3362104
1.3362104
1.3362104
1.3362104
1.3362104
1.3362104
1.3362104
1.3362103
1.3362103
1.3362103
1.3362103
1.3362103
1.3362103
1.3362103
1.3362103
1.3362103
1.3362103
1.3362103
1.3362103
1.3362103
1.3362103
1.3362103
1.3362103
1.3362102
1.3362102
1.3362102
1.3362102
1.3362102
1.3362102
1.3362102
1.3362102
1.3362102
1.3362102
1.3362102
1.3362102
1.3362102
1.3362102
1.3362102
1.3362101
1.3362101
1.3362101
1.3362101
1.3362101
1.3362101
1.3362101
1.3362101
1.3362101
1.3362101
1.3362101
1.3362101
1.3362101
1.3362101
1.3362101
1.3362101
1.33621
1.33621
1.33621
1.33621
1.33621
1.33621
1.33621
1.33621
1.33621
1.33621
1.33621
1.33621
1.33621
1.33621
1.3362099
1.3362099
1.3362099
1.3362099
1.3362099
1.3362099
1.3362099
1.3362099
1.3362099
1.3362099
1.3362099
1.3362099
1.3362099
1.3362099
1.3362099
1.3362098
1.3362098
1.3362098
1.3362098
1.3362098
1.3362098
1.3362098
1.3362098
1.3362098
1.3362098
1.3362098
1.3362098
1.3362098
1.3362098
1.3362097
1.3362097
1.3362097
1.3362097
1.3362097
1.3362097
1.3362097
1.3362097
1.3362097
1.3362097
1.3362097
1.3362097
1.3362097
1.3362097
1.3362096
1.3362096
1.3362096
1.3362096
1.3362096
1.3362096
1.3362096
1.3362096
1.3362096
1.3362096
1.3362096
1.3362096
1.3362096
1.3362096
1.3362095
1.3362095
1.3362095
1.3362095
1.3362095
1.3362095
1.3362095
1.3362095
1.3362095
1.3362095
1.3362095
1.3362095
1.3362095
1.3362094
1.3362094
1.3362094
1.3362094
1.3362094
1.3362094
1.3362094
1.3362094
1.3362094
1.3362094
1.3362094
1.3362094
1.3362094
1.3362094
1.3362093
1.3362093
1.3362093
1.3362093
1.3362093
1.3362093
1.3362093
1.3362093
1.3362093
1.3362093
1.3362093
1.3362093
1.3362092
1.3362092
1.3362092
1.3362092
1.3362092
1.3362092
1.3362092
1.3362092
1.3362092
1.3362092
1.3362092
1.3362092
1.3362092
1.3362091
1.3362091
1.3362091
1.3362091
1.3362091
1.3362091
1.3362091
1.3362091
1.3362091
1.3362091
1.3362091
1.3362091
1.336209
1.336209
1.336209
1.336209
1.336209
1.336209
1.336209
1.336209
1.336209
1.336209
1.336209
1.336209
1.3362089
1.3362089
1.3362089
1.3362089
1.3362089
1.3362089
1.3362089
1.3362089
1.3362089
1.3362089
1.3362089
1.3362088
1.3362088
1.3362088
1.3362088
1.3362088
1.3362088
1.3362088
1.3362088
1.3362088
1.3362088
1.3362087
1.3362087
1.3362087
1.3362087
1.3362087
1.3362087
1.3362087
1.3362087
1.3362087
1.3362086
1.3362086
1.3362086
1.3362086
1.3362086
1.3362086
1.3362086
1.3362086
1.3362085
1.3362085
1.3362085
1.3362085
1.3362085
1.3362085
1.3362085
1.3362084
1.3362084
1.3362084
1.3362084
1.3362084
1.3362084
1.3362084
1.3362083
1.3362083
1.3362083
1.3362083
1.3362083
1.3362083
1.3362082
1.3362082
1.3362082
1.3362082
1.3362082
1.3362081
1.3362081
1.3362081
1.3362081
1.3362081
1.336208
1.336208
1.336208
1.336208
1.3362079
1.3362079
1.3362079
1.3362078
1.3362078
1.3362078
1.3362078
1.3362077
1.3362077
1.3362077
1.3362076
1.3362076
1.3362076
1.3362075
1.3362075
1.3362075
1.3362074
1.3362074
1.3362073
1.3362073
1.3362073
1.3362072
1.3362072
1.3362071
1.3362071
1.336207
1.336207
1.3362069
1.3362069
1.3362068
1.3362068
1.3362067
1.3362066
1.3362066
1.3362065
1.3362065
1.3362064
1.3362063
1.3362062
1.3362062
1.3362061
1.336206
1.3362059
1.3362059
1.3362058
1.3362057
1.3362056
1.3362055
1.3362054
1.3362053
1.3362052
1.3362051
1.336205
1.3362049
1.3362048
1.3362046
1.3362045
1.3362044
1.3362043
1.3362041
1.336204
1.3362039
1.3362037
1.3362036
1.3362034
1.3362032
1.3362031
1.3362029
1.3362027
1.3362026
1.3362024
1.3362022
1.336202
1.3362018
1.3362016
1.3362014
1.3362012
1.3362009
1.3362007
1.3362005
1.3362002
1.3362
1.3361997
1.3361994
1.3361992
1.3361989
1.3361986
1.3361983
1.336198
1.3361977
1.3361973
1.336197
1.3361966
1.3361963
1.3361959
1.3361955
1.3361952
1.3361948
1.3361944
1.3361939
1.3361935
1.3361931
1.3361926
1.3361921
1.3361917
1.3361912
1.3361907
1.3361901
1.3361896
1.3361891
1.3361885
1.3361879
1.3361873
1.3361867
1.3361861
1.3361854
1.3361848
1.3361841
1.3361834
1.3361827
1.336182
1.3361812
1.3361804
1.3361797
1.3361788
1.336178
1.3361772
1.3361763
1.3361754
1.3361745
1.3361735
1.3361726
1.3361716
1.3361706
1.3361695
1.3361685
1.3361674
1.3361663
1.3361651
1.3361639
1.3361627
1.3361615
1.3361602
1.336159
1.3361576
1.3361563
1.3361549
1.3361535
1.336152
1.3361505
1.336149
1.3361475
1.3361459
1.3361443
1.3361426
1.3361409
1.3361392
1.3361374
1.3361356
1.3361337
1.3361318
1.3361299
1.3361279
1.3361258
1.3361238
1.3361217
1.3361195
1.3361173
1.336115
1.3361127
1.3361104
1.336108
1.3361055
1.336103
1.3361004
1.3360978
1.3360952
1.3360924
1.3360897
1.3360868
1.336084
1.336081
1.336078
1.3360749
1.3360718
1.3360686
1.3360654
1.3360621
1.3360587
1.3360552
1.3360517
1.3360482
1.3360445
1.3360408
1.336037
1.3360332
1.3360293
1.3360253
1.3360212
1.3360171
1.3360128
1.3360086
1.3360042
1.3359997
1.3359952
1.3359906
1.3359859
1.3359812
1.3359763
1.3359714
1.3359664
1.3359613
1.3359561
1.3359508
1.3359455
1.33594
1.3359345
1.3359289
1.3359231
1.3359173
1.3359114
1.3359054
1.3358993
1.3358932
1.3358869
1.3358805
1.335874
1.3358675
1.3358608
1.335854
1.3358472
1.3358402
1.3358331
1.3358259
1.3358186
1.3358113
1.3358038
1.3357962
1.3357885
1.3357807
1.3357728
1.3357647
1.3357566
1.3357484
1.33574
1.3357315
1.335723
1.3357143
1.3357055
1.3356966
1.3356876
1.3356784
1.3356692
1.3356598
1.3356503
1.3356407
1.335631
1.3356212
1.3356113
1.3356012
1.335591
1.3355808
1.3355704
1.3355598
1.3355492
1.3355384
1.3355276
1.3355166
1.3355055
1.3354942
1.3354829
1.3354714
1.3354599
1.3354482
1.3354364
1.3354244
1.3354124
1.3354002
1.3353879
1.3353755
1.335363
1.3353504
1.3353376
1.3353248
1.3353118
1.3352987
1.3352855
1.3352722
1.3352588
1.3352452
1.3352316
1.3352178
1.3352039
1.33519
1.3351759
1.3351617
1.3351473
1.3351329
1.3351184
1.3351038
1.335089
1.3350742
1.3350593
1.3350442
1.3350291
1.3350138
1.3349985
1.3349831
1.3349675
1.3349519
1.3349362
1.3349203
1.3349044
1.3348884
1.3348723
1.3348561
1.3348399
1.3348235
1.3348071
1.3347906
1.334774
1.3347573
1.3347405
1.3347237
1.3347068
1.3346898
1.3346727
1.3346556
1.3346384
1.3346212
1.3346038
1.3345864
1.334569
1.3345515
1.3345339
1.3345163
1.3344986
1.3344808
1.3344631
1.3344452
1.3344273
1.3344094
1.3343914
1.3343734
1.3343553
1.3343372
1.3343191
1.334301
1.3342828
1.3342645
1.3342463
1.334228
1.3342097
1.3341914
1.334173
1.3341546
1.3341363
1.3341179
1.3340995
1.334081
1.3340626
1.3340442
1.3340258
1.3340073
1.3339889
1.3339705
1.3339521
1.3339337
1.3339153
1.3338969
1.3338785
1.3338601
1.3338418
1.3338235
1.3338052
1.3337869
1.3337686
1.3337504
1.3337322
1.3337141
1.333696
1.3336779
1.3336598
1.3336418
1.3336239
1.333606
1.3335881
1.3335703
1.3335525
1.3335348
1.3335172
1.3334996
1.333482
1.3334645
1.3334471
1.3334298
1.3334125
1.3333953
1.3333781
1.3333611
1.3333441
1.3333271
1.3333103
1.3332935
1.3332768
1.3332602
1.3332437
1.3332273
1.3332109
1.3331947
1.3331785
1.3331624
1.3331464
1.3331305
1.3331147
1.333099
1.3330834
1.3330679
1.3330525
1.3330372
1.333022
1.3330069
1.3329919
1.3329771
1.3329623
1.3329476
1.3329331
1.3329186
1.3329043
1.3328901
1.332876
1.332862
1.3328481
1.3328344
1.3328207
1.3328072
1.3327938
1.3327805
1.3327674
1.3327543
1.3327414
1.3327286
1.3327159
1.3327034
1.332691
1.3326787
1.3326665
1.3326544
1.3326425
1.3326307
1.332619
1.3326074
1.332596
1.3325847
1.3325735
1.3325625
1.3325515
1.3325407
1.33253
1.3325195
1.3325091
1.3324988
1.3324886
1.3324785
1.3324686
1.3324588
1.3324492
1.3324396
1.3324302
1.3324209
1.3324117
1.3324026
1.3323937
1.3323849
1.3323762
1.3323677
1.3323592
1.3323509
1.3323427
1.3323346
1.3323266
1.3323188
1.332311
1.3323034
1.3322959
1.3322885
1.3322813
1.3322741
1.3322671
1.3322601
1.3322533
1.3322466
1.33224
1.3322335
1.3322271
1.3322209
1.3322147
1.3322086
1.3322027
1.3321968
1.3321911
1.3321854
1.3321799
1.3321744
1.332169
1.3321638
1.3321586
1.3321536
1.3321486
1.3321437
1.332139
1.3321343
1.3321297
1.3321252
1.3321207
1.3321164
1.3321122
1.332108
1.3321039
1.3320999
1.332096
1.3320922
1.3320884
1.3320848
1.3320812
1.3320776
1.3320742
1.3320708
1.3320675
1.3320643
1.3320612
1.3320581
1.3320551
1.3320521
1.3320492
1.3320464
1.3320437
1.332041
1.3320384
1.3320358
1.3320333
1.3320309
1.3320285
1.3320262
1.3320239
1.3320217
1.3320196
1.3320175
1.3320154
1.3320134
1.3320115
1.3320096
1.3320077
1.3320059
1.3320042
1.3320025
1.3320008
1.3319992
1.3319976
1.3319961
1.3319946
1.3319931
1.3319917
1.3319904
1.331989
1.3319877
1.3319865
1.3319852
1.3319841
1.3319829
1.3319818
1.3319807
1.3319796
1.3319786
1.3319776
1.3319767
1.3319757
1.3319748
1.3319739
1.3319731
1.3319723
1.3319715
1.3319707
1.3319699
1.3319692
1.3319685
1.3319678
1.3319672
1.3319665
1.3319659
1.3319653
1.3319647
1.3319642
1.3319636
1.3319631
1.3319626
1.3319621
1.3319616
1.3319612
1.3319607
1.3319603
1.3319599
1.3319595
1.3319591
1.3319588
1.3319584
1.3319581
1.3319577
1.3319574
1.3319571
1.3319568
1.3319565
1.3319562
1.331956
1.3319557
1.3319555
1.3319552
1.331955
1.3319548
1.3319546
1.3319544
1.3319542
1.331954
1.3319538
1.3319537
1.3319535
1.3319533
1.3319532
1.331953
1.3319529
1.3319527
1.3319526
1.3319525
1.3319524
1.3319522
1.3319521
1.331952
1.3319519
1.3319518
1.3319517
1.3319516
1.3319515
1.3319515
1.3319514
1.3319513
1.3319512
1.3319511
1.3319511
1.331951
1.3319509
1.3319509
1.3319508
1.3319507
1.3319507
1.3319506
1.3319506
1.3319505
1.3319505
1.3319504
1.3319504
1.3319503
1.3319503
1.3319502
1.3319502
1.3319501
1.3319501
1.33195
1.33195
1.33195
1.3319499
1.3319499
1.3319498
1.3319498
1.3319498
1.3319497
1.3319497
1.3319497
1.3319496
1.3319496
1.3319495
1.3319495
1.3319495
1.3319494
1.3319494
1.3319494
1.3319493
1.3319493
1.3319493
1.3319492
1.3319492
1.3319491
1.3319491
1.3319491
1.331949
1.331949
1.331949
1.3319489
1.3319489
1.3319488
1.3319488
1.3319488
1.3319487
1.3319487
1.3319486
1.3319486
1.3319486
1.3319485
1.3319485
1.3319484
1.3319484
1.3319484
1.3319483
1.3319483
1.3319482
1.3319482
1.3319481
1.3319481
1.331948
1.331948
1.3319479
1.3319479
1.3319478
1.3319478
1.3319477
1.3319477
1.3319476
1.3319476
1.3319475
1.3319475
1.3319474
1.3319474
1.3319473
1.3319473
1.3319472
1.3319472
1.3319471
1.3319471
1.331947
1.3319469
1.3319469
1.3319468
1.3319468
1.3319467
1.3319466
1.3319466
1.3319465
1.3319465
1.3319464
1.3319463
1.3319463
1.3319462
1.3319461
1.3319461
1.331946
1.3319459
1.3319459
1.3319458
1.3319457
1.3319457
1.3319456
1.3319455
1.3319455
1.3319454
1.3319453
1.3319453
1.3319452
1.3319451
1.331945
1.331945
1.3319449
1.3319448
1.3319447
1.3319447
1.3319446
1.3319445
1.3319444
1.3319444
1.3319443
1.3319442
1.3319441
1.3319441
1.331944
1.3319439
1.3319438
1.3319437
1.3319436
1.3319436
1.3319435
1.3319434
1.3319433
1.3319432
1.3319431
1.3319431
1.331943
1.3319429
1.3319428
1.3319427
1.3319426
1.3319425
1.3319424
1.3319424
1.3319423
1.3319422
1.3319421
1.331942
1.3319419
1.3319418
1.3319417
1.3319416
1.3319415
1.3319414
1.3319413
1.3319412
1.3319411
1.331941
1.3319409
1.3319408
1.3319407
1.3319406
1.3319405
1.3319404
1.3319403
1.3319402
1.3319401
1.33194
1.3319399
1.3319398
1.3319397
1.3319396
1.3319395
1.3319394
1.3319393
1.3319392
1.3319391
1.331939
1.3319389
1.3319387
1.3319386
1.3319385
1.3319384
1.3319383
1.3319382
1.3319381
1.331938
1.3319379
1.3319377
1.3319376
1.3319375
1.3319374
1.3319373
1.3319372
1.331937
1.3319369
1.3319368
1.3319367
1.3319365
1.3319364
1.3319363
1.3319362
1.3319361
1.3319359
1.3319358
1.3319357
1.3319356
1.3319354
1.3319353
1.3319352
1.3319351
1.3319349
1.3319348
1.3319347
1.3319345
1.3319344
1.3319343
1.3319341
1.331934
1.3319339
1.3319337
1.3319336
1.3319335
1.3319333
1.3319332
1.3319331
1.3319329
1.3319328
1.3319327
1.3319325
1.3319324
1.3319322
1.3319321
1.3319319
1.3319318
1.3319317
1.3319315
1.3319314
1.3319312
1.3319311
1.3319309
1.3319308
1.3319306
1.3319305
1.3319304
1.3319302
1.3319301
1.3319299
1.3319298
1.3319296
1.3319294
1.3319293
1.3319291
1.331929
1.3319288
1.3319287
1.3319285
1.3319284
1.3319282
1.3319281
1.3319279
1.3319277
1.3319276
1.3319274
1.3319273
1.3319271
1.3319269
1.3319268
1.3319266
1.3319264
1.3319263
1.3319261
1.331926
1.3319258
1.3319256
1.3319255
1.3319253
1.3319251
1.331925
1.3319248
1.3319246
1.3319244
1.3319243
1.3319241
1.3319239
1.3319237
1.3319236
1.3319234
1.3319232
1.331923
1.3319229
1.3319227
1.3319225
1.3319223
1.3319222
1.331922
1.3319218
1.3319216
1.3319214
1.3319213
1.3319211
1.3319209
1.3319207
1.3319205
1.3319203
1.3319202
1.33192
1.3319198
1.3319196
1.3319194
1.3319192
1.331919
1.3319188
1.3319187
1.3319185
1.3319183
1.3319181
1.3319179
1.3319177
1.3319175
1.3319173
1.3319171
1.3319169
1.3319167
1.3319165
1.3319163
1.3319161
1.3319159
1.3319157
1.3319155
1.3319153
1.3319151
1.3319149
1.3319147
1.3319145
1.3319143
1.3319141
1.3319139
1.3319137
1.3319135
1.3319133
1.3319131
1.3319128
1.3319126
1.3319124
1.3319122
1.331912
1.3319118
1.3319116
1.3319113
1.3319111
1.3319109
1.3319107
1.3319105
1.3319102
1.33191
1.3319098
1.3319096
1.3319094
1.3319091
1.3319089
1.3319087
1.3319085
1.3319082
1.331908
1.3319078
1.3319076
1.3319073
1.3319071
1.3319069
1.3319066
1.3319064
1.3319062
1.3319059
1.3319057
1.3319054
1.3319052
1.331905
1.3319047
1.3319045
1.3319042
1.331904
1.3319037
1.3319035
1.3319033
1.331903
1.3319028
1.3319025
1.3319023
1.331902
1.3319018
1.3319015
1.3319013
1.331901
1.3319008
1.3319005
1.3319002
1.3319
1.3318997
1.3318994
1.3318992
1.3318989
1.3318986
1.3318984
1.3318981
1.3318978
1.3318976
1.3318973
1.331897
1.3318967
1.3318964
1.3318962
1.3318959
1.3318956
1.3318953
1.331895
1.3318947
1.3318944
1.3318941
1.3318938
1.3318935
1.3318932
1.3318929
1.3318926
1.3318923
1.331892
1.3318917
1.3318914
1.3318911
1.3318907
1.3318904
1.3318901
1.3318898
1.3318894
1.3318891
1.3318888
1.3318884
1.3318881
1.3318878
1.3318874
1.3318871
1.3318867
1.3318864
1.331886
1.3318856
1.3318853
1.3318849
1.3318845
1.3318842
1.3318838
1.3318834
1.331883
1.3318826
1.3318822
1.3318818
1.3318814
1.331881
1.3318806
1.3318802
1.3318798
1.3318794
1.331879
1.3318785
1.3318781
1.3318777
1.3318772
1.3318768
1.3318763
1.3318758
1.3318754
1.3318749
1.3318744
1.3318739
1.3318734
1.3318729
1.3318724
1.3318719
1.3318714
1.3318709
1.3318703
1.3318698
1.3318693
1.3318687
1.3318681
1.3318676
1.331867
1.3318664
1.3318658
1.3318652
1.3318646
1.331864
1.3318634
1.3318627
1.3318621
1.3318614
1.3318608
1.3318601
1.3318594
1.3318587
1.331858
1.3318573
1.3318566
1.3318559
1.3318551
1.3318544
1.3318536
1.3318529
1.3318521
1.3318513
1.3318505
1.3318497
1.331849
1.3318482
1.3318474
1.3318466
1.3318458
1.331845
1.3318442
1.3318434
1.3318426
1.3318418
1.3318411
1.3318403
1.3318396
1.3318389
1.3318382
1.3318375
1.3318369
1.3318363
1.3318357
1.3318351
1.3318346
1.331834
1.3318335
1.3318331
1.3318326
1.3318322
1.3318317
1.3318313
1.3318309
1.3318305
1.33183
1.3318296
1.3318292
1.3318288
1.3318284
1.3318279
1.3318274
1.3318268
1.3318262
1.3318255
1.3318247
1.3318238
1.3318229
1.3318218
1.3318207
1.3318194
1.3318181
1.3318167
1.3318153
1.3318137
1.3318121
1.3318104
1.3318087
1.331807
1.3318052
1.3318034
1.3318016
1.3317998
1.3317981
1.3317963
1.3317946
1.331793
1.3317917
1.3317905
1.3317893
1.331788
1.3317866
1.3317849
1.3317828
1.3317804
1.3317777
1.3317739
1.3317677
1.3317559
1.3317313
1.3316759
1.331545
1.3312343
1.3305197
1.3294373
1.3280448
1.3263328
1.3243051
1.3219761
1.3193711
1.3165241
1.3134769
1.3102762
1.3069718
1.3036147
1.3002543
1.2969373
1.293706
1.2905972
1.2876415
1.2848628
1.2822787
1.2799004
1.2777332
1.2757773
1.2740284
1.2724787
1.2711175
1.269932
1.2689082
1.268031
1.2672855
1.2666568
1.2661305
1.2656934
1.265333
1.265038
1.2647984
1.2646052
1.2644507
1.2643278
1.2642308
1.2641547
1.2640953
1.2640494
1.2640142
1.2639876
1.2639676
1.2639527
1.2639416
1.2639331
1.2639267
1.2639219
1.2639182
1.2639153
1.263913
1.2639114
1.263911
1.2639107
1.2639103
1.2639099
1.2639095
1.2639092
1.2639088
1.2639084
1.263908
1.2639077
1.2639073
1.263907
1.2639066
1.2639063
1.263906
1.2639057
1.2639054
1.2639051
1.2639048
1.2639044
1.2639041
1.2639037
1.2639032
1.2639027
1.2639021
1.2639015
1.2639008
1.2639
1.2638992
1.2638982
1.2638972
1.2638961
1.2638949
1.2638936
1.2638922
1.2638907
1.2638892
1.2638876
1.2638859
1.2638841
1.2638822
1.2638803
1.2638783
1.2638762
1.2638741
1.2638719
1.2638696
1.2638673
1.263865
1.2638625
1.2638601
1.2638575
1.2638549
1.2638523
1.2638496