/*--------------------------------*- C++ -*----------------------------------*\
  =========                 |
  \\      /  F ield         | OpenFOAM: The Open Source CFD Toolbox
   \\    /   O peration     | Website:  https://openfoam.org
    \\  /    A nd           | Version:  7
     \\/     M anipulation  |
\*---------------------------------------------------------------------------*/
FoamFile
{
    version     2.0;
    format      ascii;
    class       volScalarField;
    location    "0.00327";
    object      Uy;
}
// * * * * * * * * * * * * * * * * * * * * * * * * * * * * * * * * * * * * * //

dimensions      [0 1 -1 0 0 0 0];

internalField   nonuniform List<scalar> 
5000
(
9.7952887e-22
1.3324117e-21
0
0
-6.4500879e-22
7.0430649e-37
5.7081438e-22
0
0
-6.345223e-22
-1.2945753e-21
6.5087694e-22
6.5069756e-22
-6.4972026e-22
0
-6.478449e-22
-1.9987892e-51
6.4271538e-22
0
6.3569346e-22
-6.3385783e-22
-6.3317966e-22
1.26443e-21
-6.3031088e-22
-6.2916205e-22
-5.1975665e-36
6.3406846e-22
6.377629e-22
-1.2810946e-21
1.1130121e-35
-1.1227272e-35
6.4157199e-22
1.2792455e-21
-1.2737715e-21
1.0988563e-35
-5.4897391e-35
-2.180996e-35
1.2534805e-21
-1.2520519e-21
-1.2557385e-21
1.2621374e-21
-4.3630946e-35
-1.2737101e-21
6.3766688e-22
1.9073947e-21
-6.3179684e-22
-6.2755715e-22
-4.2753693e-35
-1.2411495e-21
0
6.2182311e-22
8.9090592e-38
-6.3120551e-22
1.2685267e-21
-2.2154943e-35
-1.2568458e-21
6.2182226e-22
-2.1250074e-35
-6.0975336e-22
0
6.175055e-22
2.1317419e-35
1.7899527e-37
6.294509e-22
-6.2473732e-22
2.1671366e-35
6.1561406e-22
-6.1239672e-22
-6.1313573e-22
6.1752773e-22
6.2212711e-22
-6.2443858e-22
-6.2333055e-22
1.2405954e-21
6.1795358e-22
-6.158806e-22
0
6.1529322e-22
-8.7762682e-38
-6.1950616e-22
6.1968317e-22
-1.7573066e-37
1.7524914e-37
6.1532735e-22
6.1427324e-22
2.1366943e-35
-6.1404412e-22
0
-6.1509045e-22
-6.3751409e-35
-2.1454977e-35
6.1297036e-22
6.1237078e-22
-1.2241653e-21
-4.2354637e-35
6.1179435e-22
0
0
-6.1005404e-22
-4.2274678e-35
1.218932e-21
-6.0923428e-22
-1.217381e-21
0
6.0734879e-22
6.0675282e-22
-6.0647899e-22
-6.0653197e-22
0
0
6.0513883e-22
6.0447864e-22
0
-6.0371146e-22
2.1103606e-35
6.0349121e-22
-6.0300046e-22
1.7121758e-37
-2.1040569e-35
-7.8719126e-54
1.2024993e-21
-2.5627668e-37
-6.0086261e-22
0
-5.9998908e-22
5.9958911e-22
5.9928313e-22
-1.1980131e-21
-5.9858783e-22
1.1960598e-21
5.9748774e-22
-5.9704243e-22
-5.9666302e-22
-5.963306e-22
0
5.9568028e-22
5.9533727e-22
-5.9505365e-22
-2.0624873e-35
5.9450689e-22
-5.9412337e-22
-5.9379086e-22
0
5.9326904e-22
5.9316563e-22
-5.9316322e-22
5.9311844e-22
-3.3701277e-37
-5.9240561e-22
5.9176422e-22
-5.9099465e-22
4.1094781e-35
5.8922643e-22
-5.8834259e-22
5.8620201e-22
5.8513947e-22
-5.8709995e-22
0
0
-5.9086382e-22
-5.931876e-22
5.9516574e-22
5.9647107e-22
-5.9674237e-22
-4.1275345e-35
5.9122197e-22
-5.8474072e-22
-5.7595036e-22
0
5.5520098e-22
5.4659192e-22
0
-5.4443976e-22
-5.5639826e-22
0
5.844176e-22
1.2786854e-34
-7.8268147e-22
3.1473088e-22
3.3496055e-22
-7.4984303e-22
-3.6521998e-35
3.4534233e-35
2.3308635e-37
5.7673374e-22
-5.6066255e-22
-7.7319042e-35
3.8591611e-35
-3.8628419e-35
5.6421566e-22
0
0
-5.7965072e-22
-5.7993932e-22
0
0
5.7836474e-22
-7.7279509e-54
-5.806993e-22
0
5.7763378e-22
-5.7540212e-22
-1.5899747e-34
1.1484043e-21
-5.7582754e-22
-1.1976575e-34
-8.1856745e-38
-5.7431352e-22
5.7273816e-22
-8.1302922e-38
-7.9406582e-35
3.9794948e-35
-5.7452759e-22
0
5.7130654e-22
3.9441905e-35
1.5840377e-34
5.727823e-22
0
-5.717315e-22
-5.6937103e-22
0
0
0
5.7072138e-22
3.9593164e-35
-5.6990488e-22
0
0
5.6242848e-22
5.6337355e-22
-5.6651297e-22
-5.6854823e-22
0
5.6534898e-22
5.6302443e-22
-5.6105613e-22
-5.6044402e-22
0
5.6458879e-22
-1.5705538e-34
-3.9118398e-35
5.6188564e-22
-5.5995004e-22
-5.583844e-22
0
5.5965002e-22
-7.7938985e-35
5.6046024e-22
7.754948e-35
-1.114801e-21
5.5606912e-22
-7.7093676e-35
-1.9312373e-34
-3.851687e-35
-5.5593677e-22
5.5425049e-22
5.5269334e-22
0
-5.5419735e-22
-5.5470853e-22
0
5.4970339e-22
5.46511e-22
-1.0883562e-21
-5.4507443e-22
5.4848592e-22
5.511595e-22
1.5272198e-34
-5.4760656e-22
5.4500753e-22
-3.7636604e-35
-5.4107166e-22
5.4171099e-22
-3.778095e-35
3.7966201e-35
-1.5500021e-37
-3.7575305e-35
5.4188191e-22
0
0
-5.3602057e-22
-5.3634381e-22
0
0
0
0
5.3295206e-22
3.65588e-35
-1.059917e-21
2.2689104e-37
5.3455328e-22
5.3464706e-22
-7.392261e-35
-7.3441934e-35
-7.4991888e-38
-5.2610325e-22
-5.2713118e-22
-5.2896312e-22
1.058966e-21
1.5844362e-21
-5.2631693e-22
-1.0492601e-21
0
5.2416719e-22
5.2482874e-22
-5.2414107e-22
1.4858886e-37
-2.2220138e-37
1.4777956e-37
5.2012282e-22
5.2047516e-22
-5.2009009e-22
-1.0378813e-21
5.1705272e-22
-2.0191693e-53
5.1535193e-22
1.4302948e-34
-1.0330621e-21
0
0
1.0227019e-21
-2.8348232e-34
-1.0238378e-21
0
5.1192973e-22
5.1012871e-22
-5.0743931e-22
7.1825467e-38
-7.025749e-35
7.223431e-38
5.0945098e-22
-5.0766215e-22
-5.0486906e-22
0
4.9997602e-22
-6.9728406e-35
-5.0602008e-22
1.0140403e-21
-1.397585e-34
-5.0007816e-22
-1.3774926e-34
-9.8703831e-22
9.9179043e-22
5.0079577e-22
-5.0423538e-22
-7.152385e-38
-4.9968732e-22
0
0
4.9242188e-22
-6.8473796e-35
-9.934094e-22
7.1025555e-38
1.5009851e-21
-4.9777747e-22
-4.9481291e-22
9.836604e-22
-4.8938778e-22
4.8976407e-22
9.8609603e-22
-4.9636773e-22
-4.968417e-22
-4.9421032e-22
4.9141389e-22
-1.1162074e-52
-4.8630377e-22
4.8877083e-22
-4.9346217e-22
4.9550513e-22
1.3671549e-34
1.3934226e-37
4.8689045e-22
-9.6911589e-22
4.8584639e-22
1.3603859e-34
-1.3676559e-34
-4.9304644e-22
-9.8152968e-22
1.4646286e-21
1.3475691e-34
-2.6907588e-34
1.3510589e-34
-9.8174022e-22
9.8419981e-22
-1.3609365e-34
-9.7736347e-22
0
0
4.8715074e-22
-6.8023652e-35
-4.9184172e-22
-4.9019577e-22
4.8803395e-22
1.4569407e-21
-4.8413676e-22
-4.8616419e-22
-1.3930772e-37
-4.9229657e-22
0
9.7706962e-22
9.7241785e-22
-4.8469968e-22
-9.7256254e-22
-4.8995382e-22
9.8464871e-22
9.8267673e-22
-9.7871819e-22
-9.7468283e-22
0
9.7523044e-22
-4.9080261e-22
-9.8533372e-22
4.9165176e-22
4.8988845e-22
-6.9329141e-38
6.756809e-35
4.8881466e-22
-4.9218596e-22
-4.93727e-22
4.9240377e-22
-6.8020277e-35
-6.9378921e-38
-6.756614e-35
-4.8972079e-22
4.9344436e-22
-2.0621249e-34
-6.8544857e-35
-1.3647726e-34
-4.8952693e-22
4.883322e-22
-6.8145723e-35
-1.3714634e-34
-7.0549782e-38
-9.9016907e-22
-4.9313085e-22
4.9094479e-22
9.7932366e-22
-6.8300188e-35
-9.9184061e-22
-4.9794901e-22
9.9306591e-22
4.9441318e-22
-4.9216759e-22
-4.907456e-22
-1.3673386e-34
4.9683193e-22
0
0
4.9582457e-22
0
-4.9180033e-22
4.9309915e-22
7.0601306e-38
-1.3856112e-34
0
-4.9753024e-22
4.9538939e-22
4.9380847e-22
-9.8886518e-22
-4.974272e-22
4.9960453e-22
0
0
-4.963666e-22
1.3750573e-34
4.9535243e-22
0
0
-5.000534e-22
2.0803249e-34
4.9830789e-22
0
0
0
0
0
0
0
0
9.9957156e-22
2.7677806e-34
-4.9678356e-22
4.9461228e-22
-4.9306926e-22
4.94487e-22
-1.383667e-34
-4.9945844e-22
-1.3819822e-34
-4.9513063e-22
0
0
4.9226004e-22
1.3775005e-34
-4.9796735e-22
0
0
0
0
0
0
0
9.8971054e-22
-4.1028055e-34
-9.8129927e-22
4.8861464e-22
6.9311772e-38
4.8929091e-22
-2.725124e-34
-9.8419721e-22
-4.9077274e-22
-5.7092282e-53
1.4623969e-21
0
-9.7388413e-22
0
0
9.7419289e-22
-1.3470189e-34
-1.4530899e-21
4.8413989e-22
4.8454958e-22
-4.8468968e-22
4.8385385e-22
-4.8226198e-22
-1.3335954e-34
4.8015805e-22
-4.8111129e-22
0
-4.8067504e-22
4.7886582e-22
9.5384854e-22
-4.7542353e-22
-4.7582766e-22
-4.7698295e-22
-4.7732991e-22
9.523601e-22
4.7429683e-22
-4.7261427e-22
0
4.7250441e-22
-4.7320259e-22
-4.7246625e-22
1.4124527e-21
1.3334077e-37
-9.363994e-22
4.6898898e-22
6.521036e-35
4.6845128e-22
-1.3259028e-37
-9.2857719e-22
4.6258791e-22
0
-1.2910399e-34
-6.6122145e-38
-4.6349236e-22
4.6098073e-22
-1.272972e-34
-6.3400743e-35
-6.5197575e-38
-4.6089892e-22
4.6108957e-22
1.4438361e-52
-1.2679588e-34
-6.4540916e-38
-9.0593703e-22
-6.3055204e-35
4.5676858e-22
0
0
-4.5301923e-22
-1.8755627e-34
4.4943283e-22
-4.50788e-22
6.2889959e-35
3.7037609e-52
-6.2730115e-35
4.4981652e-22
4.4771491e-22
6.1888437e-35
-4.4720598e-22
0
0
4.4913318e-22
-4.472149e-22
3.7079363e-34
4.4409505e-22
-4.4457012e-22
0
4.475685e-22
4.4709017e-22
-4.4591148e-22
-4.4502956e-22
0
4.4455134e-22
4.4484359e-22
-8.8968093e-22
-4.4452801e-22
4.4440745e-22
4.4440197e-22
6.1625157e-35
4.4384014e-22
1.2300065e-34
-8.8414806e-22
0
0
0
4.4355543e-22
4.4282559e-22
0
-4.4097312e-22
-6.1188265e-35
4.4265265e-22
0
0
-4.4208312e-22
-6.1206649e-35
6.1250549e-35
-4.434729e-22
4.4432749e-22
-1.8470255e-34
-4.4251321e-22
0
-4.4138792e-22
-6.1552794e-35
4.4533511e-22
-4.4529829e-22
4.4397277e-22
4.4240151e-22
-4.419476e-22
0
4.4677403e-22
4.4696195e-22
-4.4539545e-22
-4.4252868e-22
0
-4.412501e-22
4.4558065e-22
4.4927137e-22
-4.5015655e-22
-8.9811545e-22
2.4869861e-34
1.3406e-21
-8.2445147e-53
-4.4891608e-22
-9.0215824e-22
2.5098636e-34
9.0591803e-22
-4.5330622e-22
4.5378577e-22
-4.5442389e-22
-4.5511489e-22
9.1156918e-22
0
0
-9.1535581e-22
1.7979441e-52
9.1767958e-22
0
0
-9.1993753e-22
1.7118837e-52
9.2150435e-22
0
0
-9.2393806e-22
-4.6265662e-22
9.2712016e-22
4.6440589e-22
0
-9.3017877e-22
2.5801677e-34
9.2791672e-22
-4.6346803e-22
0
4.6305661e-22
-4.6267825e-22
6.5800597e-38
4.6434852e-22
-4.6621202e-22
4.6810872e-22
4.6967564e-22
-4.708288e-22
-4.712184e-22
1.3073609e-34
4.7014411e-22
-4.6948419e-22
-1.3026814e-34
4.6877818e-22
-4.6842731e-22
4.6881577e-22
4.7006784e-22
-4.7172327e-22
-4.7313727e-22
1.3156651e-34
4.7369276e-22
-4.7319764e-22
6.718286e-38
4.7257623e-22
-4.7248962e-22
4.7261057e-22
4.7316282e-22
-4.7382712e-22
-9.4858246e-22
2.6366799e-34
9.4933508e-22
-4.7478944e-22
6.749148e-38
9.5022672e-22
1.3509615e-37
-4.7554516e-22
0
4.7595669e-22
0
-4.7633755e-22
0
0
0
-4.7693454e-22
3.4864879e-54
4.7713567e-22
0
4.7726641e-22
-1.3253769e-34
-4.7732079e-22
0
0
0
-4.7710575e-22
1.3244748e-34
4.7683679e-22
0
4.7660442e-22
1.3225155e-34
-4.764222e-22
0
4.7617601e-22
-4.7601408e-22
2.6438495e-34
4.7558303e-22
-4.7532167e-22
0
-4.7478477e-22
-1.317816e-34
4.7442436e-22
0
4.742154e-22
-4.7411661e-22
-2.6324656e-34
4.7391108e-22
-2.6307173e-34
-6.7320127e-38
1.3158521e-34
-6.7294235e-38
-4.7345325e-22
0
4.732814e-22
-1.3133015e-34
-1.3130702e-34
3.9076235e-54
-1.3132931e-34
0
-9.4559243e-22
-1.3126519e-34
4.7264745e-22
-4.7257632e-22
1.3113882e-34
4.7244132e-22
4.7237843e-22
1.311533e-34
-1.3113724e-34
4.7220668e-22
-4.7215611e-22
-4.7210846e-22
0
-4.7202419e-22
1.3106156e-34
4.7195461e-22
0
0
0
-9.4372278e-22
5.2409068e-34
9.4367594e-22
0
0
0
0
0
0
0
-9.4377795e-22
2.6220606e-34
9.4377065e-22
4.7186199e-22
-4.718125e-22
-4.717318e-22
1.3102628e-34
2.6158146e-34
4.7139516e-22
-4.7135554e-22
4.7138298e-22
4.7145681e-22
-4.7157285e-22
-4.7170931e-22
2.6190656e-34
4.7197386e-22
4.7211969e-22
-1.3100601e-34
-4.7242601e-22
-4.7258707e-22
4.7275335e-22
4.7292327e-22
-4.7309655e-22
4.7327383e-22
0
-4.7363486e-22
-4.7381843e-22
1.3148653e-34
4.7418792e-22
-4.7437198e-22
4.7455483e-22
4.7473541e-22
-4.7491382e-22
4.7508444e-22
1.3196538e-34
-4.753851e-22
-4.7550622e-22
-6.7587382e-38
9.5135455e-22
2.6413523e-34
-4.7578928e-22
-4.7587969e-22
0
4.7615299e-22
0
0
0
4.76792e-22
4.7694044e-22
-4.7708126e-22
-4.7721532e-22
0
4.7746142e-22
-1.3268002e-34
-4.7767308e-22
0
0
4.7791595e-22
-2.6531253e-34
-4.7802219e-22
0
0
4.7808552e-22
-2.6537016e-34
-4.7805793e-22
0
4.7796952e-22
-1.3270378e-34
1.3261237e-34
-1.326521e-34
-4.7759689e-22
0
-4.7730537e-22
2.6477701e-34
4.7694124e-22
0
4.7650204e-22
-4.7625197e-22
-4.759823e-22
9.5138338e-22
1.3213834e-34
-9.5008859e-22
1.3181123e-34
4.7430795e-22
0
0
4.7302568e-22
-1.3114932e-34
-4.7203721e-22
0
4.7094461e-22
-4.7036507e-22
-4.6976862e-22
4.6916014e-22
0
-4.6790103e-22
4.6724181e-22
2.5897612e-34
-2.5858525e-34
4.6512992e-22
-3.8671732e-34
4.6361264e-22
-4.6282053e-22
1.2822419e-34
-2.5611458e-34
-9.2061648e-22
1.274428e-34
4.5852037e-22
0
0
0
-9.0933665e-22
-4.5364822e-22
9.0520949e-22
4.5153735e-22
0
0
4.4818778e-22
5.7123525e-53
-4.4581518e-22
0
-8.8665381e-22
-4.4204301e-22
8.8148068e-22
4.3942741e-22
0
-8.7362674e-22
-1.2378084e-37
1.3026144e-21
-1.2007748e-34
-8.6305217e-22
4.3016576e-22
2.4374068e-37
-4.2740799e-22
1.1835529e-34
2.3556552e-34
4.2318166e-22
0
4.2031021e-22
-2.3255854e-34
-8.3480108e-22
4.1593248e-22
-6.9004647e-34
-4.1297321e-22
8.2296561e-22
-5.8262511e-38
-4.0848413e-22
0
0
0
-4.0243134e-22
4.0090995e-22
7.9877399e-22
-3.978635e-22
-1.100557e-34
-1.0952051e-34
-3.9329481e-22
0
3.9025732e-22
-5.5243865e-38
-7.7446957e-22
3.8573083e-22
2.1316953e-34
-3.8274236e-22
-3.8125865e-22
2.1102444e-34
7.5663361e-22
0
3.7541529e-22
3.7398075e-22
0
-3.7114843e-22
-3.6975178e-22
3.6836895e-22
0
-3.6564863e-22
0
0
3.6169063e-22
-3.0012987e-34
-3.5913888e-22
0
0
3.554568e-22
3.5427082e-22
-3.5310725e-22
-3.5196683e-22
3.508514e-22
3.4976296e-22
-6.9740485e-22
-3.4767077e-22
9.6312066e-35
3.4569268e-22
-1.9126223e-34
-1.9075315e-34
3.4293938e-22
-3.420804e-22
3.4125137e-22
-3.4045262e-22
-2.8963296e-37
3.3894845e-22
-6.7648445e-22
-3.3756757e-22
-3.3692444e-22
6.7262479e-22
6.7146375e-22
-3.351832e-22
3.3466708e-22
-3.3418285e-22
1.8534065e-34
6.6662032e-22
-3.3292158e-22
9.2299486e-35
-9.2303927e-35
-3.3194849e-22
0
0
3.3126375e-22
3.3109901e-22
0
-3.3086513e-22
-3.3079653e-22
0
-3.3075567e-22
9.1851822e-35
3.3084317e-22
-3.3093791e-22
9.1837091e-35
3.3123862e-22
0
3.3169682e-22
1.8432332e-34
-3.3230764e-22
3.3266853e-22
-9.2343808e-35
-3.3349814e-22
-3.3396447e-22
-9.2826991e-35
3.3500034e-22
0
-3.3616659e-22
3.3679767e-22
-9.5911694e-38
1.8779531e-34
3.3887095e-22
-3.3962038e-22
0
-6.8240234e-22
7.5941217e-34
3.4288556e-22
1.9081566e-34
6.8933607e-22
-6.9118808e-22
-6.9308441e-22
6.9502426e-22
6.9700638e-22
3.4951497e-22
0
-3.51596e-22
-7.0532916e-22
5.0270995e-38
-3.5485333e-22
3.5597214e-22
3.5710686e-22
-3.5825647e-22
7.1884044e-22
-7.2119665e-22
-6.0256561e-34
7.2598796e-22
-7.2842005e-22
2.0284579e-34
-3.6667633e-22
3.6792465e-22
3.6918263e-22
-3.7044924e-22
-1.0311476e-34
-7.4601433e-22
7.4859461e-22
7.5118834e-22
-7.5379341e-22
-1.0496626e-34
-3.7951844e-22
2.1150124e-34
3.8215787e-22
1.0643086e-34
-2.5573624e-52
3.8613778e-22
7.7493581e-22
-3.887992e-22
5.7667268e-52
-3.9146218e-22
-6.5431353e-34
3.9412323e-22
-7.9090262e-22
2.2024101e-34
7.9619525e-22
-6.3323133e-53
-4.0073062e-22
0
0
-4.0464395e-22
4.0593658e-22
8.144439e-22
0
0
0
-4.1228378e-22
-4.1352662e-22
0
4.1598078e-22
-4.1719126e-22
-6.9683327e-34
8.3915133e-22
0
0
0
-4.2418635e-22
-4.2530271e-22
4.264036e-22
-4.2748799e-22
-2.3800273e-34
8.5921312e-22
0
0
-8.6530447e-22
1.2324504e-37
4.3458822e-22
-4.3552663e-22
4.3644448e-22
-4.3734126e-22
2.4336834e-34
8.7814285e-22
0
0
-4.4150022e-22
-4.4226393e-22
0
0
4.4441199e-22
4.4507943e-22
0
-4.4633933e-22
-4.4693072e-22
4.4749658e-22
-4.480367e-22
-4.4855058e-22
4.4903774e-22
4.4949769e-22
-2.4987344e-34
-4.5033584e-22
4.507133e-22
1.2518718e-34
-4.5138542e-22
0
-4.5194527e-22
2.5105971e-34
4.5239067e-22
-4.5257058e-22
2.5135903e-34
4.5284311e-22
0
-4.5300666e-22
1.2580287e-34
6.4384633e-38
-4.530574e-22
4.530221e-22
4.5296084e-22
0
-9.055228e-22
5.0273803e-34
4.5245913e-22
6.427131e-38
9.0410679e-22
-9.0362445e-22
-9.0309149e-22
9.0250714e-22
4.5093543e-22
0
-9.0044902e-22
7.4894235e-34
8.9882216e-22
0
-8.9699808e-22
-2.4880447e-34
4.4748806e-22
1.2410803e-34
8.9275972e-22
-8.9157936e-22
-1.1119155e-33
8.8907614e-22
-8.8775425e-22
2.4594309e-34
8.8497283e-22
4.4175687e-22
-8.8201049e-22
-4.4023176e-22
8.7887314e-22
-8.7723938e-22
-1.093447e-33
8.7384381e-22
-8.7208406e-22
1.2083039e-34
-4.3422296e-22
4.8076519e-34
1.2969798e-21
-2.3943196e-34
-8.6070976e-22
4.293426e-22
8.566261e-22
-4.2726639e-22
2.3663588e-34
-4.2512497e-22
-4.7098021e-34
4.2292223e-22
-8.4359774e-22
3.5030903e-34
-4.6578215e-34
2.32097e-34
4.1717555e-22
0
4.1479398e-22
4.1358728e-22
0
0
0
0
0
-4.0616543e-22
-4.0490339e-22
0
4.0236384e-22
-4.010867e-22
-6.6599439e-34
7.970415e-22
0
0
0
-3.9335912e-22
-3.9206519e-22
3.9077093e-22
3.89477e-22
-7.7636787e-22
-6.4459326e-34
7.7120402e-22
0
-7.6606036e-22
-6.3591473e-34
3.8047033e-22
-3.7919713e-22
3.7792846e-22
-3.7666491e-22
-2.0837952e-34
7.4831183e-22
0
0
-3.7044479e-22
-3.6922346e-22
0
-3.668079e-22
-1.0391367e-37
-3.6442919e-22
3.6325596e-22
1.0862823e-21
0
7.1960623e-22
7.1735389e-22
0
-1.06938e-21
-7.1074271e-22
7.0859292e-22
-3.5323582e-22
-3.5218942e-22
1.0534746e-21
3.5014171e-22
4.9615795e-38
3.481545e-22
-3.4718519e-22
-3.4623158e-22
-3.4529454e-22
-4.3900449e-53
-3.4347126e-22
-3.425855e-22
3.4171734e-22
0
6.8006794e-22
6.7843849e-22
0
-3.3764431e-22
-6.7376961e-22
-1.8653771e-34
-3.3542139e-22
-6.6943506e-22
6.6806589e-22
6.6673439e-22
3.3272045e-22
3.320928e-22
0
-3.3089387e-22
-9.9096792e-22
3.2977035e-22
2.7282109e-51
-9.861654e-22
6.5645075e-22
3.2774693e-22
3.2728753e-22
6.5369147e-22
-6.5284231e-22
-3.2601439e-22
3.2562532e-22
3.2525364e-22
3.2489836e-22
-9.7367834e-22
-3.2423694e-22
9.717904e-22
3.2363882e-22
-3.2336295e-22
-6.462048e-22
3.2285654e-22
-3.2262482e-22
5.367891e-34
-5.366313e-34
-9.6603121e-22
3.2183201e-22
3.216656e-22
6.4302192e-22
3.2136819e-22
-6.4247222e-22
-9.1266415e-38
-3.2100455e-22
3.2090357e-22
9.6243752e-22
-9.6219285e-22
-3.2065819e-22
9.6178107e-22
0
-9.6146564e-22
-3.2044753e-22
9.6124154e-22
-3.2038718e-22
-6.4073237e-22
-1.7781907e-34
3.5558243e-34
3.2033834e-22
0
6.4069396e-22
6.4071652e-22
-3.2037413e-22
-3.2039432e-22
-6.408368e-22
3.2044668e-22
3.2047894e-22
-6.4102953e-22
0
6.4119679e-22
6.4129146e-22
-3.2069664e-22
-6.415024e-22
1.7807347e-34
3.2086958e-22
-6.4186535e-22
3.2099923e-22
-1.0693043e-33
-6.4228075e-22
3.2121467e-22
0
6.4274024e-22
0
-7.1399794e-34
-3.2162193e-22
-6.4342072e-22
9.6540423e-22
-9.1488035e-38
-6.4398143e-22
0
6.4437955e-22
3.2229322e-22
-6.4479826e-22
3.5807775e-34
3.2261684e-22
-6.4545883e-22
3.2284434e-22
-5.3771167e-34
-6.4616014e-22
3.2320171e-22
-3.2332593e-22
6.4690423e-22
9.7074062e-22
0
-9.7152687e-22
-6.4795167e-22
9.7233252e-22
6.48495e-22
-3.2438644e-22
-6.4905422e-22
3.2466875e-22
3.2481149e-22
-6.4991117e-22
3.2510076e-22
6.5049298e-22
-3.2539327e-22
4.6262116e-38
-6.5137669e-22
-6.5167045e-22
9.7794633e-22
-3.2612903e-22
-5.4341464e-34
9.7925832e-22
0
-9.8011401e-22
-6.5368821e-22
3.269808e-22
3.2711426e-22
3.2724423e-22
0
3.2749274e-22
-1.818483e-34
-6.5544198e-22
1.819219e-34
3.2792481e-22
0
3.2810004e-22
-6.5635268e-22
-9.8473143e-22
6.5660605e-22
9.8505757e-22
3.2839101e-22
-3.2841789e-22
-6.5686375e-22
3.2843258e-22
-3.2841833e-22
-3.2838729e-22
6.5667841e-22
-6.5654519e-22
-3.2818564e-22
9.8423291e-22
6.5589316e-22
-3.2779043e-22
-9.828251e-22
7.2692276e-34
-7.2638777e-34
-3.2688422e-22
-3.625502e-34
-3.2623348e-22
3.2585138e-22
3.2542831e-22
3.2496119e-22
-3.244482e-22
-3.2388625e-22
9.6981452e-22
-3.2260144e-22
-6.4374561e-22
9.6324792e-22
9.101388e-38
-3.1930141e-22
6.3660783e-22
3.1722908e-22
0
-3.1482991e-22
-3.1349701e-22
-6.2413779e-22
3.105407e-22
-1.0288004e-33
-9.2148655e-22
3.0530122e-22
3.0331774e-22
3.0120508e-22
-2.9895733e-22
-2.9656853e-22
8.8209387e-22
-2.9133876e-22
-5.7696742e-22
-4.7543627e-34
-2.8225775e-22
5.577413e-22
8.2587482e-22
1.5067168e-34
-1.4849768e-34
-3.7420847e-38
-2.5890245e-22
-5.0850015e-22
-2.4936166e-22
7.3268781e-22
-2.6515415e-34
-4.6639657e-22
0
0
2.1448353e-22
-1.151845e-34
1.1099796e-34
1.9181432e-22
-3.6720197e-22
-1.779021e-22
-1.885889e-34
1.6890748e-22
5.0373965e-22
1.6917143e-22
0
0
0
-5.3081456e-22
-3.6504297e-22
5.5517187e-22
-1.9549545e-34
-3.3907626e-22
0
0
3.3428003e-22
-3.711171e-34
-1.7933437e-34
3.1113523e-22
-1.4715016e-22
-2.8811265e-22
-2.9214358e-22
1.373785e-22
4.2061256e-22
1.3511557e-22
0
0
0
-3.5262998e-22
-2.2362747e-22
3.1522228e-22
-2.0128631e-34
-7.7126563e-23
8.8119219e-39
-5.1541516e-23
8.4636058e-23
-2.9059078e-35
-4.7159529e-24
-2.7147574e-23
0
2.6376934e-35
1.5009906e-22
2.0652791e-22
-3.7783582e-22
-2.887733e-22
1.6196164e-22
1.0327229e-34
-2.2002112e-22
7.6643803e-22
5.6862607e-22
-3.066168e-22
-3.3496336e-22
3.7365487e-22
4.0907253e-22
-4.3593753e-22
-4.6952718e-22
2.8632339e-34
-3.094968e-34
-5.8832931e-22
0
-6.7326406e-22
1.4589618e-21
2.3312956e-21
-1.6292025e-21
-1.7121905e-21
-9.0942866e-22
1.0817292e-33
2.0861526e-21
-1.1049837e-21
1.1586506e-21
1.216467e-21
-2.5683184e-21
2.7086484e-21
1.4216552e-21
-1.4938549e-21
-3.1501968e-21
-1.6562346e-21
3.4662499e-21
-1.0078942e-33
1.913931e-21
2.0139424e-21
-6.3092393e-21
2.1887642e-21
2.2893016e-21
-7.2191733e-21
3.5922399e-37
7.9341089e-21
2.7602231e-21
-8.6533212e-21
3.0173424e-21
-6.9749665e-49
5.4577774e-33
6.8399614e-21
-7.1569648e-21
-7.4899926e-21
3.9121559e-21
-4.5296749e-33
-8.5024525e-21
4.4250081e-21
1.3813296e-20
4.7962716e-21
-5.0036546e-21
0
-5.4462735e-21
-1.134134e-20
8.3824285e-37
1.8410667e-20
6.3889893e-21
-1.3305031e-20
9.8393298e-37
1.4405363e-20
-1.4984911e-20
1.2984845e-32
1.6226165e-20
-2.531313e-20
-1.7536636e-20
0
0
9.8500628e-21
3.070831e-20
1.0631128e-20
-3.3131933e-20
1.2743101e-32
2.3857701e-20
-2.4775569e-20
-2.5718091e-20
1.3351375e-20
2.7731858e-20
-1.4395237e-20
-1.4935913e-20
4.648825e-20
1.608541e-20
2.7817632e-32
-9.6175947e-33
-1.7979138e-20
1.8639422e-20
-3.8654411e-20
-6.0152362e-20
0
6.473401e-20
4.4729212e-20
-6.9520508e-20
6.825916e-36
2.4900324e-20
-5.1636535e-20
2.6759893e-20
2.7722677e-20
3.1876935e-32
-2.9743525e-20
-6.1629516e-20
3.1923942e-20
6.6131326e-20
6.8480326e-20
-3.9368724e-32
-3.6709397e-20
3.80063e-20
-7.8681981e-20
-1.2214803e-19
0
1.3084691e-19
9.0282561e-20
-1.4012808e-19
5.365612e-32
4.9980425e-20
-5.1698743e-20
-5.3476507e-20
3.0686233e-32
1.1440292e-19
-3.283178e-32
-1.2230812e-19
7.0176333e-32
7.2542534e-32
1.3510409e-19
2.0946074e-19
-1.4431729e-19
8.2803009e-32
2.56587e-31
-7.9603423e-20
-8.2233655e-20
-1.6988969e-19
2.6322376e-19
9.0622988e-20
-1.8717448e-19
1.9326836e-19
5.6712897e-35
-3.0901336e-19
-1.0633952e-19
1.0977201e-19
3.3989472e-19
-3.8943402e-31
-2.4129953e-19
-1.2449239e-19
2.5690287e-19
3.9757259e-19
-4.1012446e-19
-1.4100523e-19
-1.613991e-31
-1.4996596e-19
3.0928561e-19
-8.8509283e-32
1.6440052e-19
-1.6948171e-19
5.8193061e-31
5.401799e-19
-5.5669839e-19
-5.7367379e-19
0
0
0
2.1546279e-19
6.6578999e-19
2.28569e-19
2.6131647e-31
2.4239149e-19
-7.4873969e-19
-2.5695411e-19
2.6451893e-19
2.7228182e-19
2.8024889e-19
-5.7684683e-19
2.9680775e-19
-3.0540552e-19
1.0465013e-30
6.4652262e-19
-9.975897e-19
-6.8406621e-19
0
7.2352326e-19
4.1296901e-31
-3.8247609e-19
1.179655e-18
4.0422734e-19
-4.1550661e-19
0
0
-4.5099194e-19
-9.2678481e-19
1.0570667e-30
9.7818202e-19
5.023958e-19
-5.1601124e-19
5.2994515e-19
-5.4420495e-19
7.6682582e-47
9.5554298e-31
-1.7669694e-18
0
0
1.273782e-18
1.3071694e-18
6.7065144e-19
-7.6379207e-31
-2.1177612e-18
8.0410756e-31
1.485506e-18
0
-1.5624181e-18
-8.010558e-19
1.642647e-18
-8.4202227e-19
-8.6316105e-19
2.6542347e-18
-9.0677684e-19
3.0948665e-30
1.9044192e-18
-2.9268878e-18
-1.999057e-18
0
0
0
3.3000653e-18
2.2528067e-18
-3.4599089e-18
-2.3614542e-18
0
2.4743492e-18
-1.4056871e-30
-1.2957999e-18
2.6518947e-18
-1.3566603e-18
1.3879437e-18
1.4198029e-18
-4.3567335e-18
2.9705549e-18
3.0378214e-18
-1.5531508e-18
1.5880016e-18
-3.2469323e-18
-4.9786511e-18
0
5.2008434e-18
3.543222e-18
-1.8102561e-18
-1.8495522e-18
2.0976369e-30
-1.9301205e-18
6.5668121e-30
2.0133765e-18
1.141543e-30
-8.4052731e-48
-2.1433916e-18
0
-2.2335486e-18
4.5593687e-18
6.9795908e-18
-7.1222787e-18
-7.2671382e-18
0
5.0422818e-18
5.1432378e-18
-5.2456635e-18
2.6747846e-18
2.7274832e-18
-8.3427957e-18
5.6702663e-18
5.7801774e-18
-2.9458005e-18
-6.0045433e-18
-3.0595052e-18
9.3525118e-18
3.1762695e-18
5.3883488e-30
-6.5922067e-18
-1.9083322e-33
1.0257047e-17
-6.963264e-18
-1.063507e-17
-3.6091887e-18
1.1022377e-17
7.479668e-18
-1.1418942e-17
8.6015963e-30
7.8831843e-18
4.0103884e-18
-2.2646836e-30
-8.3005628e-18
4.6863662e-30
-4.2932276e-18
-4.3658415e-18
1.3317636e-17
4.5133346e-18
5.0936052e-30
-9.327641e-18
1.5786949e-29
1.4451809e-17
-9.7901877e-18
5.5243272e-30
5.6138089e-30
1.1398047e-29
5.2135872e-18
-1.5884944e-17
5.3770699e-18
9.0903343e-30
1.846171e-29
1.6882268e-17
-5.7122117e-18
-1.1595312e-17
6.5318527e-30
-5.9704721e-18
-6.0578236e-18
1.2291583e-17
1.2468733e-17
-7.0191879e-30
-1.923987e-17
7.2181519e-30
6.5944983e-18
-1.3371861e-17
6.7778997e-18
6.8703928e-18
-3.8632347e-30
3.9171125e-30
-7.1508731e-18
1.4490636e-17
-7.340215e-18
2.4767995e-29
2.5082682e-29
-2.2882408e-17
1.5448046e-17
-2.2228476e-33
-1.5836465e-17
8.0158548e-18
2.4341397e-17
8.212048e-18
-2.4931751e-17
9.335697e-30
8.5084375e-18
-1.7215435e-17
1.7414414e-17
4.4003935e-29
-8.9067394e-18
9.0067421e-18
-9.1068745e-18
1.8414231e-17
-9.3074429e-18
-2.8223508e-17
0
0
1.9418394e-17
2.7880667e-33
-1.9820066e-17
1.001036e-17
3.0331785e-17
1.0210716e-17
-3.0932097e-17
-2.9588483e-33
-1.1667876e-29
-2.1219184e-17
3.2126362e-17
5.3995037e-29
-1.0906373e-17
1.1004717e-17
1.1102731e-17
-1.2440502e-29
-1.1297667e-17
2.2789067e-17
-2.2981928e-17
3.8589776e-29
2.3364847e-17
-3.5332213e-17
-2.3743704e-17
1.1965738e-17
3.617711e-17
1.2151721e-17
-1.2243767e-17
0
1.2425844e-17
-1.2515826e-17
-3.7815208e-17
-7.0458821e-30
2.5562451e-17
-1.2868085e-17
-1.29541e-17
2.6078499e-17
-1.312351e-17
1.3206854e-17
2.6578511e-17
-4.0112053e-17
4.4798349e-29
-3.0045732e-29
-2.7217802e-17
2.7372421e-17
1.3762432e-17
1.3837539e-17
1.5455747e-29
-1.3984309e-17
2.8111856e-17
-2.8252683e-17
-4.2586577e-17
0
1.4330115e-17
-7.9905836e-30
-4.1096432e-33
4.3566682e-17
1.4583572e-17
-4.3930612e-17
1.4702104e-17
-2.9103847e-46
-4.4444899e-17
1.4869219e-17
4.4765972e-17
1.4973263e-17
-3.0046045e-17
1.5071256e-17
-1.5117949e-17
5.0499963e-29
3.0413247e-17
-4.5745703e-17
-1.6981691e-29
6.8072596e-29
-3.0729355e-17
3.0800201e-17
1.7133926e-29
-1.5465929e-17
3.0992614e-17
1.5524982e-17
0
0
-3.1201387e-17
3.4686587e-29
8.8917026e-33
1.7385741e-29
1.5677158e-17
1.5691856e-17
-1.570477e-17
-1.5715888e-17
3.1450412e-17
-3.1465443e-17
1.7472054e-29
3.148469e-17
-3.1488861e-17
-5.2436695e-29
1.747689e-29
-1.5739092e-17
3.1467146e-17
-1.5726234e-17
3.4896684e-29
3.1412194e-17
0
-3.1357381e-17
-1.5662269e-17
3.1288077e-17
1.5624005e-17
-1.5602171e-17
2.5946252e-29
1.5553126e-17
0
0
-3.093243e-17
-3.0867433e-17
0
3.0726959e-17
1.5325761e-17
-1.5286323e-17
1.5245178e-17
-1.5202335e-17
0
3.0223224e-17
0
0
-1.4963128e-17
1.6552793e-29
1.4856043e-17
0
-1.4742631e-17
-8.150511e-30
1.4623028e-17
0
-2.8994738e-17
-2.8864633e-17
1.436581e-17
1.5870775e-29
-1.4228514e-17
2.8315529e-17
2.8171282e-17
-2.8024329e-17
-3.9612354e-33
-3.0780118e-29
-3.9176061e-33
2.7410396e-17
-1.3625309e-17
1.5036126e-29
-1.3461911e-17
1.3378452e-17
3.9881562e-17
-3.962443e-17
-1.3121345e-17
1.3033486e-17
1.4368622e-29
1.2854683e-17
-2.5527583e-17
-2.5343886e-17
2.515833e-17
4.1578808e-29
1.2390929e-17
1.2295527e-17
-2.4398609e-17
1.210229e-17
-1.3325127e-29
6.6121168e-30
-1.1806773e-17
-2.3413739e-17
2.321263e-17
2.3010277e-17
0
-1.1301032e-17
-1.2431657e-29
2.2189551e-17
1.2201583e-29
-3.2659795e-17
-2.1563723e-17
0
2.1142468e-17
2.3233392e-29
1.0359254e-17
1.0252827e-17
-3.0438439e-17
5.5711149e-30
1.9864277e-17
-9.8248664e-18
-1.9434905e-17
9.6099236e-18
1.9004613e-17
9.3946279e-18
0
-1.8358389e-17
9.0714927e-18
2.6891509e-17
-8.8562512e-18
-8.7487624e-18
-1.7282789e-17
-8.5341732e-18
1.6854246e-17
8.3202684e-18
8.2136345e-18
-9.0002737e-30
-8.0011221e-18
-7.8952896e-18
-1.557954e-17
-7.6845855e-18
0
0
0
1.4535286e-17
1.4328925e-17
-1.4123488e-17
-7.726112e-30
-7.613172e-30
7.4988896e-30
1.4779985e-29
-1.3111543e-17
0
1.2714566e-17
6.2589459e-18
-6.1612349e-18
6.0641655e-18
5.9677533e-18
0
0
-1.1365222e-17
1.8613844e-29
1.2202953e-29
-1.080782e-17
1.0624998e-17
1.0443708e-17
0
-1.0085819e-17
5.498987e-30
9.7343318e-18
-9.561036e-18
-5.2131623e-30
9.2194278e-18
0
-8.8845806e-18
-4.3598667e-18
8.5566234e-18
-4.1976317e-18
-9.1451812e-30
8.0778415e-18
-7.9218014e-18
-7.7675547e-18
0
0
0
7.1686673e-18
7.0235048e-18
-6.8801775e-18
0
6.5990444e-18
0
3.1626458e-18
-6.191187e-18
-3.0294655e-18
2.9642614e-18
-5.799961e-18
-2.8366219e-18
5.5483687e-18
2.7126666e-18
2.9445736e-30
-2.5923815e-18
5.625383e-30
-1.4072995e-33
-4.8375858e-18
0
2.3075923e-18
4.5066761e-18
2.1999753e-18
0
0
0
1.995346e-18
-3.8927394e-18
-1.8982543e-18
1.8509934e-18
1.8045805e-18
-1.7590095e-18
-1.7142739e-18
3.3407346e-18
0
-3.1700295e-18
-3.0871093e-18
0
0
2.8478924e-18
1.5382711e-30
1.3481023e-18
1.311325e-18
-1.2753012e-18
1.2400231e-18
-1.205482e-18
-2.3433365e-18
-1.1385722e-18
0
2.1489922e-18
1.1581467e-30
-1.0131869e-18
9.8354959e-19
9.5457859e-19
1.8525285e-18
-1.7971929e-18
-8.7156529e-19
2.4020927e-34
-8.193755e-19
1.5883999e-18
-7.6962611e-19
7.4564528e-19
5.3407859e-47
-6.9942288e-19
1.3543205e-18
-1.3109008e-18
-1.2685691e-18
0
5.935518e-19
1.1479352e-18
-3.0800758e-31
-5.363174e-19
-5.1823251e-19
1.0012569e-18
9.6699242e-19
-4.6682703e-19
-9.0122475e-19
-8.6968887e-19
4.195148e-19
8.0922973e-19
-3.9013529e-19
3.7606654e-19
-6.0337463e-31
-3.4912574e-19
6.724768e-19
-6.4746008e-19
-3.458273e-31
1.6643122e-30
-5.7680191e-19
5.5465774e-19
1.1838465e-30
-2.5619332e-19
4.9222875e-19
-2.3635177e-19
6.4488405e-35
-9.6693212e-31
-2.0889235e-19
4.0064914e-19
-4.2637891e-31
1.0211896e-31
-1.7626954e-19
4.7969954e-35
3.2308855e-19
-3.0911689e-19
-8.4023151e-35
6.2748865e-31
-2.7005415e-19
2.5793833e-19
2.7338036e-31
-2.3499352e-19
1.1207187e-19
1.0684803e-19
1.0181945e-19
-9.6979588e-20
1.0249082e-31
1.7567814e-19
0
0
-1.5082371e-19
-2.0349665e-35
1.3588484e-19
-6.4435283e-20
6.7781348e-32
-5.78507e-20
-1.21596e-31
1.0360406e-19
0
4.6261623e-20
-8.7357955e-20
-4.1208608e-20
8.6270761e-32
-3.660023e-20
6.8915808e-20
-3.2422123e-20
3.3838766e-32
5.7304172e-20
0
0
-2.3663517e-20
1.2303989e-32
-2.0749875e-20
1.9411451e-20
5.4442928e-20
-5.0867855e-20
-1.5834922e-20
2.956928e-20
-1.3803835e-20
-2.1460058e-32
-1.2030891e-20
6.3806601e-36
3.4864138e-32
-9.7595161e-21
1.8210273e-20
8.5047992e-21
0
7.4510603e-21
-6.9898339e-21
-6.572322e-21
-6.1996948e-21
1.3032359e-32
-6.1877625e-33
5.8922809e-33
1.0134987e-20
-4.8542145e-21
-7.7841632e-33
9.0632708e-21
-6.2871093e-37
-4.3437715e-21
-8.5846741e-21
-8.5325231e-21
8.5219369e-21
4.7591362e-33
4.3240801e-21
4.3700282e-21
-8.8557229e-21
9.0159189e-21
4.6051545e-21
-1.4179167e-20
-9.7633106e-21
5.0517359e-21