-1.25 	300 	0 	101279.7586473767
-1.247497497497497 	299.9608835230195 	1.736804131155784 	101285.8693796186
-1.244994994994995 	299.9603519169806 	1.536140691672444 	101279.9767721316
-1.242492492492492 	299.9653496181637 	1.339345792848728 	101285.3226641415
-1.23998998998999 	299.960682628331 	1.152354455240922 	101279.2594847809
-1.237487487487487 	299.9651732222276 	0.9698994744029306 	101284.5428191546
-1.234984984984985 	299.9610563374222 	0.7995808515458873 	101279.2972727891
-1.232482482482482 	299.9647450510557 	0.6286428118768272 	101283.6831957066
-1.22997997997998 	299.9605827652083 	0.4723349250630954 	101278.4958864317
-1.227477477477477 	299.9643834126927 	0.3163719790862412 	101283.0515480546
-1.224974974974975 	299.9602382173413 	0.1775778422991241 	101277.9821130437
-1.222472472472472 	299.9639728007961 	0.1719180300314868 	101282.4807858089
-1.21996996996997 	299.9601471489626 	0.07954311160395111 	101277.8686335665
-1.217467467467467 	299.9636627170908 	0.1987284414163313 	101282.1116346719
-1.214964964964965 	299.9601067222009 	0.2955481527325119 	101277.8800871684
-1.212462462462462 	299.9635598786019 	0.3940354634132398 	101282.0372298831
-1.20995995995996 	299.9603544431154 	0.466859295219504 	101278.2613981081
-1.207457457457457 	299.9633816580954 	0.542077114979712 	101281.8908343447
-1.204954954954955 	299.9607373740475 	0.5885570808571637 	101278.8007459412
-1.202452452452452 	299.9631155353563 	0.6361166196046784 	101281.628783921
-1.19994994994995 	299.9612982742374 	0.6420985133481256 	101279.5093839021
-1.197447447447447 	299.9620938465858 	0.6414375674915161 	101280.4242544602
-1.194944944944945 	299.9617245721178 	0.6126516101906957 	101279.9876211073
-1.192442442442442 	299.9621778081205 	0.5991396181970378 	101280.4980031957
-1.18993993993994 	299.9619954319026 	0.5640713366070679 	101280.2684941848
-1.187437437437437 	299.9622286583207 	0.5488122344340852 	101280.5300338132
-1.184934934934935 	299.9620155681824 	0.5110668253148098 	101280.2541071622
-1.182432432432432 	299.9620455412479 	0.4965543243973941 	101280.2871570741
-1.17992992992993 	299.9618210914938 	0.4578121040275209 	101279.9892026678
-1.177427427427427 	299.9617726005761 	0.4450012490007315 	101279.941108214
-1.174924924924925 	299.9616071446658 	0.406390268465645 	101279.7063340858
-1.172422422422422 	299.9615833585773 	0.3957295709474737 	101279.6966035515
-1.16991991991992 	299.9615457695546 	0.3580768772525222 	101279.6090021933
-1.167417417417417 	299.9616304270556 	0.3497331416726668 	101279.7349576339
-1.164914914914915 	299.9617606088785 	0.3136181428936228 	101279.8429962822
-1.162412412412412 	299.961972983842 	0.3077072612086416 	101280.1250188499
-1.15990990990991 	299.9622411418065 	0.2733920367729938 	101280.3955636275
-1.157407407407407 	299.9625193087159 	0.2701404342279933 	101280.7574636735
-1.154904904904904 	299.9628157192567 	0.2375052461493525 	101281.0648476344
-1.152402402402403 	299.9630307823151 	0.2373125055151263 	101281.3516155087
-1.1498998998999 	299.9632169427902 	0.2059505770089248 	101281.5334496235
-1.147397397397397 	299.9632665568569 	0.2091722695350662 	101281.6210164789
-1.144894894894895 	299.9632816039376 	0.1787075590216634 	101281.6058352657
-1.142392392392392 	299.9631824098505 	0.1853138238597807 	101281.5143453285
-1.13988988988989 	299.963100981765 	0.155639601372482 	101281.3882875489
-1.137387387387387 	299.9629872813346 	0.1650864109779168 	101281.2778624912
-1.134884884884885 	299.9629644985031 	0.1363286659389215 	101281.2247887587
-1.132382382382382 	299.9629959439408 	0.1477560938898645 	101281.2832589825
-1.12987987987988 	299.9631557897306 	0.1200314771935558 	101281.4501670357
-1.127377377377377 	299.9634042852875 	0.1326467447087194 	101281.7613108194
-1.124874874874875 	299.9637518516489 	0.1058221341279847 	101282.1546936742
-1.122372372372372 	299.9641531086474 	0.1192282169554686 	101282.6429579483
-1.11986986986987 	299.9645713522405 	0.09493956059829312 	101283.1229833788
-1.117367367367367 	299.9649671920309 	0.1088198635846553 	101283.6013479756
-1.114864864864865 	299.9652903589085 	0.09357324334498837 	101283.9713594097
-1.112362362362362 	299.9655275143772 	0.1065189958067897 	101284.2608761713
-1.10985985985986 	299.965651874257 	0.09328753145900073 	101284.3983316751
-1.107357357357357 	299.9656919106083 	0.1052964056008514 	101284.453793869
-1.104854854854855 	299.9656599941392 	0.09402105320645926 	101284.4084237761
-1.102352352352353 	299.9656216628143 	0.1047027966958052 	101284.3690713989
-1.09984984984985 	299.9656091449943 	0.09490362755120667 	101284.3488279052
-1.097347347347347 	299.9656929454104 	0.1036897762673885 	101284.4518400885
-1.094844844844845 	299.9658820735216 	0.09484315953489031 	101284.6717241542
-1.092342342342342 	299.9662087615093 	0.1014362474961596 	101285.0603126936
-1.08983983983984 	299.9666297787664 	0.09341785927240392 	101285.5554804787
-1.087337337337337 	299.9671277422123 	0.09809045901174099 	101286.1455535018
-1.084834834834835 	299.9676274828413 	0.09124986682695904 	101286.7345976768
-1.082332332332332 	299.968098376848 	0.09465863854996182 	101287.2921693138
-1.07982982982983 	299.9684838572667 	0.08942203727264723 	101287.7467124386
-1.077327327327327 	299.9687832929099 	0.09209840753465429 	101288.1012612421
-1.074824824824825 	299.9689911527786 	0.08849424281518653 	101288.3462785526
-1.072322322322323 	299.96914668725 	0.09051779882020856 	101288.5305215622
-1.06981981981982 	299.969282382442 	0.08808275870559153 	101288.6904900713
-1.067317317317317 	299.9694459791954 	0.08921151902917372 	101288.8840639464
-1.064814814814815 	299.9696643664304 	0.08732455052345423 	101289.1419591537
-1.062312312312312 	299.9699554287462 	0.08741297928915157 	101289.4860388958
-1.05980980980981 	299.9703121178839 	0.08572596950858333 	101289.907540811
-1.057307307307307 	299.9707150008462 	0.08500216253999993 	101290.3836997058
-1.054804804804805 	299.9711347667529 	0.08354551836822574 	101290.8798352698
-1.052302302302302 	299.9715442021646 	0.08246606079768504 	101291.3637116977
-1.0497997997998 	299.9719261280991 	0.08137140714051969 	101291.8151656681
-1.047297297297297 	299.9722789510438 	0.08024625546652868 	101292.232119872
-1.044794794794795 	299.9726165246373 	0.07941317533726362 	101292.6311563869
-1.042292292292292 	299.972960402997 	0.07823513491404943 	101293.03755464
-1.03978978978979 	299.9733318184581 	0.07731523880128871 	101293.4765651796
-1.037287287287287 	299.9737397341513 	0.07603250214457891 	101293.9586764082
-1.034784784784785 	299.9741763867077 	0.07482038664477339 	101294.4747738847
-1.032282282282283 	299.9746172050625 	0.07354214580554057 	101294.995793505
-1.02977977977978 	299.9750297311748 	0.07235830696722713 	101295.4833785012
-1.027277277277277 	299.9753878945916 	0.07132037441102766 	101295.9067144158
-1.024774774774775 	299.9756856407112 	0.07045232324631417 	101296.2586409138
-1.022272272272272 	299.9759428978579 	0.06969317433392835 	101296.5627064574
-1.01976976976977 	299.9762010196189 	0.06893200814131725 	101296.8677944407
-1.017267267267267 	299.9765086457038 	0.06802366613842672 	101297.2313889794
-1.014764764764765 	299.9769034643583 	0.06687459473147439 	101297.6980402697
-1.012262262262262 	299.9773974734977 	0.06545030382425457 	101298.2819361299
-1.00975975975976 	299.9779715751339 	0.06380490028571616 	101298.9605023828
-1.007257257257257 	299.9785818274879 	0.06205864825036338 	101299.6818085216
-1.004754754754755 	299.9791760551021 	0.06034584765179028 	101300.3841806383
-1.002252252252252 	299.9797110284889 	0.0588049654914068 	101301.0165216619
-0.9997497497497498 	299.9801622760329 	0.0575002533253749 	101301.5499041835
-0.9972472472472473 	299.9805286834516 	0.05643292286768237 	101301.9830035428
-0.9947447447447449 	299.9808315104866 	0.05554507384259513 	101302.340949096
-0.9922422422422421 	299.9811059436915 	0.05473509723246975 	101302.6653292144
-0.9897397397397399 	299.9813895622287 	0.05390241612396406 	101303.0005630657
-0.9872372372372376 	299.9817149261159 	0.05295108948994501 	101303.3851405802
-0.9847347347347346 	299.9821044674177 	0.05181907147110727 	101303.845576899
-0.9822322322322323 	299.982567934296 	0.05047434117144317 	101304.3933964077
-0.9797297297297296 	299.9831041778094 	0.04892257675987247 	101305.0272431906
-0.9772272272272275 	299.9837018209493 	0.04720080190610186 	101305.7336709442
-0.9747247247247248 	299.9843402932986 	0.04536090392007824 	101306.4883653781
-0.9722222222222224 	299.9849930205741 	0.04348202941137662 	101307.2599177665
-0.9697197197197196 	299.9856319502079 	0.04164064232025216 	101308.0151661506
-0.9672172172172175 	299.9862315564974 	0.03991185681870433 	101308.7239377392
-0.9647147147147147 	299.9867728506718 	0.03835211711324472 	101309.363787479
-0.9622122122122124 	299.9872452601837 	0.036981493840416 	101309.9222104145
-0.9597097097097099 	299.9876507197405 	0.03579953145439108 	101310.401496089
-0.9572072072072073 	299.988003738071 	0.03476431705699182 	101310.818794748
-0.9547047047047047 	299.9883290484662 	0.03381215811344712 	101311.2033358096
-0.9522022022022023 	299.9886558317126 	0.03285872709002846 	101311.5896198952
-0.9496996996996998 	299.9890074528748 	0.03183526016916172 	101312.0052617328
-0.9471971971971973 	299.9893900012393 	0.03072767049568584 	101312.457462431
-0.9446946946946947 	299.9898025419104 	0.02953112342227539 	101312.9451204249
-0.9421921921921923 	299.9902483619133 	0.02824005399858187 	101313.4721137719
-0.93968968968969 	299.990736453846 	0.02682772654517569 	101314.0490822175
-0.9371871871871872 	299.9912730367075 	0.02527040343196656 	101314.6833749751
-0.9346846846846848 	299.9918532925898 	0.0235960129328497 	101315.3692969336
-0.9321821821821823 	299.9924552545054 	0.0218621139016566 	101316.0808876563
-0.9296796796796799 	299.9930494619663 	0.02014971429601165 	101316.7833160021
-0.9271771771771771 	299.9936113507587 	0.01852510861970662 	101317.4475442964
-0.9246746746746748 	299.9941325811739 	0.01700851038146049 	101318.0637120799
-0.9221721721721724 	299.9946249572151 	0.01557311028057724 	101318.6457690685
-0.9196696696696698 	299.9951136568878 	0.01414986377245223 	101319.2234800762
-0.9171671671671672 	299.9956195472529 	0.01268565120655621 	101319.8215141788
-0.9146646646646649 	299.9961481989981 	0.01115939323632301 	101320.4464581049
-0.9121621621621623 	299.9966907698385 	0.009592785208155633 	101321.0878597235
-0.9096596596596597 	299.997230890763 	0.008033937080501832 	101321.7263716176
-0.9071571571571573 	299.9977545566429 	0.006514856593986013 	101322.3454336056
-0.9046546546546547 	299.9982561101677 	0.005060947322314787 	101322.9383581955
-0.9021521521521524 	299.9987377284044 	0.00366301860361304 	101323.5077185498
-0.8996496496496498 	299.9992077936889 	0.002295084348718262 	101324.0634204359
-0.8971471471471473 	299.999679356781 	0.0009266958984439994 	101324.6208966758
-0.894644644644645 	300.0001627032196 	0.0007909244312564437 	101325.1923024235
-0.892142142142142 	300.0006693364174 	0.001947802734205002 	101325.7912401263
-0.8896396396396397 	300.0012031209026 	0.003491488443494696 	101326.4222798039
-0.8871371371371374 	300.0017576651235 	0.005092825830843 	101327.0778639174
-0.8846346346346349 	300.002321070097 	0.006721031775950669 	101327.743928666
-0.8821321321321324 	300.0028799138214 	0.008339329274024936 	101328.4046051216
-0.8796296296296297 	300.0034236703831 	0.009912916492171745 	101329.0474489961
-0.8771271271271271 	300.0039486226116 	0.01143716115517163 	101329.6680637348
-0.8746246246246248 	300.0044595835577 	0.01292007918072256 	101330.2721392319
-0.8721221221221224 	300.0049675588332 	0.01439599655588844 	101330.8726864044
-0.8696196196196196 	300.0054837541957 	0.01589192321597853 	101331.4829525848
-0.8671171171171175 	300.0060130861011 	0.01742151767139408 	101332.1087549021
-0.8646146146146148 	300.0065510322457 	0.01897609533297956 	101332.7447431051
-0.8621121121121121 	300.0070859622657 	0.02051980207042851 	101333.3771681487
-0.8596096096096097 	300.007605674574 	0.02202668449635873 	101333.9916092922
-0.857107107107107 	300.0081042900872 	0.02347248829227075 	101334.5811092248
-0.8546046046046049 	300.0085860979403 	0.02487437221385837 	101335.1507388108
-0.8521021021021022 	300.0090646632805 	0.02626812562152402 	101335.7165374729
-0.8495995995995997 	300.009557317882 	0.02769908568291697 	101336.2989925219
-0.8470970970970974 	300.0100772729334 	0.02920783652958128 	101336.913726793
-0.8445945945945946 	300.0106267883659 	0.03079221782514378 	101337.5634127674
-0.8420920920920922 	300.0111947679763 	0.03242956009333578 	101338.2349334936
-0.8395895895895897 	300.0117605109908 	0.03405816173260807 	101338.9038167954
-0.8370870870870872 	300.0123018843262 	0.03562127749307908 	101339.5438930893
-0.8345845845845846 	300.0128037897077 	0.03707730927580431 	101340.1373073898
-0.8320820820820823 	300.0132635458233 	0.03841251205266898 	101340.680891287
-0.8295795795795798 	300.0136917160531 	0.03966292433876768 	101341.1871284456
-0.8270770770770772 	300.0141083165227 	0.04087744366621783 	101341.6796847577
-0.8245745745745746 	300.0145360334547 	0.04212461377610274 	101342.1853865224
-0.8220720720720721 	300.0149927795688 	0.04344920393795182 	101342.7254087077
-0.8195695695695699 	300.0154858116307 	0.04487238117739263 	101343.3083399766
-0.817067067067067 	300.0160096094548 	0.04638392969349599 	101343.9276506537
-0.8145645645645651 	300.0165481076802 	0.04793393330716715 	101344.5643458367
-0.8120620620620621 	300.0170800929238 	0.04947033314251774 	101345.1933475616
-0.8095595595595597 	300.017585763988 	0.05093066683878144 	101345.7912362308
-0.8070570570570572 	300.0180525964984 	0.05228346526628314 	101346.3432070494
-0.8045545545545546 	300.0184792044977 	0.05352456834967056 	101346.8476198103
-0.8020520520520523 	300.0188761161395 	0.05468101348828878 	101347.3169183102
-0.7995495495495494 	300.0192627475102 	0.05581235102553707 	101347.7740639357
-0.7970470470470474 	300.0196611588534 	0.05697070376831286 	101348.2451369424
-0.7945445445445446 	300.0200890036829 	0.05821070798229377 	101348.7510121577
-0.7920420420420423 	300.0205542246327 	0.05955500709552306 	101349.3010842172
-0.7895395395395397 	300.0210528135035 	0.06099296071296355 	101349.8906119982
-0.7870370370370371 	300.0215699622006 	0.06248731537776532 	101350.5020887818
-0.7845345345345348 	300.0220840229198 	0.0639682369781595 	101351.1099199774
-0.7820320320320323 	300.0225720907725 	0.06537500864254846 	101351.6870196651
-0.7795295295295296 	300.0230159652778 	0.06665801928203721 	101352.211868363
-0.7770270270270272 	300.0234067292112 	0.06779206746250103 	101352.673923425
-0.7745245245245247 	300.0237464587037 	0.06878136580614527 	101353.0756307291
-0.7720220220220222 	300.0240470889123 	0.069656823052346 	101353.4311059525
-0.7695195195195199 	300.0243274842736 	0.07047549147763703 	101353.7626558797
-0.767017017017017 	300.0246096989913 	0.0712991449084511 	101354.0963521005
-0.7645145145145147 	300.0249151427046 	0.07219003097055809 	101354.4575185639
-0.7620120120120122 	300.0252607819092 	0.07319544866543433 	101354.8662112723
-0.7595095095095097 	300.0256557258388 	0.07433989484364348 	101355.3332031382
-0.7570070070070072 	300.026099451586 	0.07562348990681474 	101355.8578842029
-0.7545045045045048 	300.0265820402994 	0.07701727232317263 	101356.4285178695
-0.7520020020020022 	300.0270859124162 	0.0784697645301342 	101357.0243247077
-0.7494994994994997 	300.0275888084302 	0.07991778105673249 	101357.6189829529
-0.7469969969969972 	300.0280675478239 	0.08129433166034172 	101358.1850763243
-0.7444944944944945 	300.0285022241585 	0.08254937053052927 	101358.699073756
-0.7419919919919924 	300.0288802284333 	0.08364350723163584 	101359.1460603997
-0.7394894894894897 	300.029198471696 	0.08456455003707539 	101359.5223809832
-0.7369869869869872 	300.0294630822043 	0.08533615184403433 	101359.8352848341
-0.7344844844844846 	300.0296873820411 	0.08599189861398092 	101360.1005184029
-0.7319819819819822 	300.0298890150338 	0.08658775377846004 	101360.3389466445
-0.7294794794794797 	300.0300868169778 	0.08717065299974483 	101360.5728442655
-0.7269769769769773 	300.0302977634757 	0.08778419196868913 	101360.8222816378
-0.7244744744744747 	300.0305341973167 	0.08847039104308564 	101361.1018588867
-0.721971971971972 	300.0308022915811 	0.08924360437965013 	101361.418877814
-0.7194694694694695 	300.0311024115235 	0.09011347817446427 	101361.7737661782
-0.7169669669669674 	300.0314303268017 	0.09106124313911894 	101362.1615251977
-0.7144644644644647 	300.031778175256 	0.0920612726873988 	101362.572857135
-0.711961961961962 	300.0321352576737 	0.0930909976943574 	101362.9951072336
-0.7094594594594597 	300.0324891033059 	0.0941106009487947 	101363.4135349291
-0.7069569569569573 	300.0328273163894 	0.09509241905680584 	101363.8134792742
-0.7044544544544545 	300.0331397185584 	0.09599881750438484 	101364.1829004231
-0.7019519519519523 	300.0334196660319 	0.09680638631419036 	101364.5139485071
-0.6994494494494495 	300.0336648001079 	0.09751615617569916 	101364.8038272234
-0.6969469469469471 	300.0338778517848 	0.09813354380249849 	101365.0557690111
-0.6944444444444446 	300.034066834471 	0.09868802980593262 	101365.2792501001
-0.6919419419419421 	300.0342437093769 	0.09920577496057781 	101365.4884088964
-0.6894394394394396 	300.0344214588847 	0.09972089257859909 	101365.698604054
-0.6869369369369374 	300.034610541478 	0.1002697059479398 	101365.922197983
-0.6844344344344344 	300.0348165476764 	0.1008664124487132 	101366.1658029469
-0.6819319319319321 	300.035039652574 	0.1015156916152966 	101366.4296310237
-0.6794294294294296 	300.0352747917172 	0.1021960473489865 	101366.7076902722
-0.6769269269269272 	300.0355125455192 	0.102878611860636 	101366.9888454577
-0.6744244244244245 	300.0357412866513 	0.1035357244829284 	101367.2593447577
-0.6719219219219222 	300.0359500510731 	0.1041363501329966 	101367.506220686
-0.6694194194194195 	300.0361313624871 	0.1046623724790856 	101367.720634396
-0.6669169169169172 	300.0362827529517 	0.1051022468380537 	101367.8996637059
-0.6644144144144146 	300.0364065760702 	0.1054607299628333 	101368.0460910658
-0.661911911911912 	300.0365094904251 	0.1057613145230626 	101368.1677925513
-0.6594094094094097 	300.0366017652093 	0.1060332679065116 	101368.2769117069
-0.656906906906907 	300.0366954295098 	0.1063119831530233 	101368.3876740782
-0.6544044044044046 	300.0368017277739 	0.106624585943076 	101368.5133770515
-0.6519019019019021 	300.0369284914565 	0.1069910852995251 	101368.6632804629
-0.6493993993993996 	300.0370782232537 	0.1074232830949262 	101368.8403447426
-0.6468968968968971 	300.0372479976759 	0.1079116346603488 	101369.0411104651
-0.6443943943943946 	300.0374302735879 	0.1084367284686692 	101369.2566576486
-0.6418918918918921 	300.0376136641778 	0.1089628809185918 	101369.4735260581
-0.6393893893893897 	300.0377847847402 	0.1094511251132432 	101369.6758848729
-0.6368868868868871 	300.0379307231971 	0.1098703474397239 	101369.848464613
-0.6343843843843846 	300.0380409710639 	0.1101871827155174 	101369.9788421431
-0.6318818818818821 	300.0381089535076 	0.1103854574892976 	101370.059238186
-0.6293793793793795 	300.0381327378679 	0.1104568789946499 	101370.0873662805
-0.6268768768768773 	300.0381151765071 	0.1104068194051852 	101370.0666002425
-0.6243743743743745 	300.0380645291809 	0.1102663248117301 	101370.0067121686
-0.6218718718718721 	300.0379941163955 	0.1100672542460676 	101369.9234482221
-0.6193693693693696 	300.0379202846561 	0.1098596220158041 	101369.8361364938
-0.6168668668668671 	300.0378603223098 	0.1096924587081418 	101369.7652241624
-0.6143643643643645 	300.037829951435 	0.109605347696065 	101369.7293058393
-0.6118618618618621 	300.0378403205651 	0.1096385003880416 	101369.7415695477
-0.6093593593593596 	300.0378958504074 	0.1097977421268613 	101369.8072306193
-0.6068568568568571 	300.0379923219301 	0.1100731171275449 	101369.9213105219
-0.6043543543543546 	300.0381161294013 	0.1104264435879151 	101370.0677204375
-0.6018518518518521 	300.0382463525165 	0.1107917951237483 	101370.2217185785
-0.5993493493493496 	300.0383585029754 	0.1111091812699117 	101370.354349713
-0.5968468468468471 	300.0384289596334 	0.1113061396866638 	101370.4376742761
-0.5943443443443446 	300.0384397829275 	0.1113341143816719 	101370.4504750826
-0.591841841841842 	300.0383818250709 	0.111167622153834 	101370.3819431798
-0.5893393393393397 	300.0382559732183 	0.1108035266924822 	101370.2331253257
-0.5868368368368371 	300.0380733087724 	0.1102831718698228 	101370.0171188557
-0.5843343343343346 	300.0378531983564 	0.1096540633324023 	101369.7568266545
-0.5818318318318321 	300.0376200290889 	0.1089897707759427 	101369.4810897414
-0.5793293293293297 	300.0374001052717 	0.1083637949371807 	101369.2210154057
-0.5768268268268271 	300.037218110885 	0.1078402468880834 	101369.0057913421
-0.5743243243243245 	300.0370934081481 	0.1074844704176667 	101368.8583193328
-0.5718218218218221 	300.0370366917756 	0.1073181961769114 	101368.7912439726
-0.5693193193193196 	300.0370467906207 	0.1073434880322824 	101368.8031860976
-0.5668168168168171 	300.0371091505565 	0.1075156808226095 	101368.8769265282
-0.5643143143143147 	300.0371969091002 	0.1077526302613602 	101368.9807036211
-0.5618118118118121 	300.0372742709956 	0.1079645499686287 	101369.072192058
-0.5593093093093094 	300.0373025177801 	0.1080324111283671 	101369.105599334
-0.5568068068068072 	300.037247977483 	0.1078699796707391 	101369.041104172
-0.5543043043043046 	300.0370900084596 	0.1074141507224081 	101368.8543148472
-0.551801801801802 	300.0368270990541 	0.1066544948480219 	101368.5434226295
-0.5492992992992995 	300.0364790393958 	0.1056623466104811 	101368.1318274607
-0.5467967967967969 	300.0360839790823 	0.1045320570787079 	101367.6646510222
-0.5442942942942947 	300.0356910717929 	0.1034151670594037 	101367.2000184195
-0.5417917917917919 	300.035350008984 	0.1024441382130462 	101366.796688938
-0.5392892892892895 	300.0350995724857 	0.101718403819143 	101366.5005288664
-0.536786786786787 	300.0349581434515 	0.1013092059568056 	101366.3332736479
-0.5342842842842846 	300.0349184069393 	0.10117949526164 	101366.2862774527
-0.531781781781782 	300.0349475148083 	0.1012494878103286 	101366.320698539
-0.5292792792792794 	300.0349935079493 	0.1013650245716806 	101366.3750861164
-0.526776776776777 	300.0349971359969 	0.1013498391277864 	101366.3793748782
-0.5242742742742745 	300.0349068545066 	0.1010796050859719 	101366.2726219658
-0.521771771771772 	300.0346935524156 	0.1004588337003468 	101366.0204028651
-0.5192692692692695 	300.0343598350265 	0.09950724101674531 	101365.6257831993
-0.516766766766767 	300.0339395532002 	0.09831143648442821 	101365.1287943275
-0.5142642642642645 	300.0334873143112 	0.0970159218611579 	101364.5940082453
-0.511761761761762 	300.0330612809745 	0.0958005650504957 	101364.0902105251
-0.5092592592592596 	300.0327052764823 	0.09477396439130811 	101363.6692220372
-0.506756756756757 	300.0324358718617 	0.09399173657116447 	101363.3506395878
-0.5042542542542544 	300.0322384536125 	0.09340792356359619 	101363.1171877696
-0.5017517517517521 	300.0320747829455 	0.09291256767253028 	101362.9236436784
-0.4992492492492494 	300.0318995997566 	0.09239483485922444 	101362.7164915808
-0.496746746746747 	300.031678917272 	0.09174844580861821 	101362.4555390569
-0.4942442442442445 	300.0314011618303 	0.09094821793453695 	101362.1270954124
-0.4917417417417421 	300.0310772143687 	0.09001817828305461 	101361.744033259
-0.4892392392392395 	300.0307309999341 	0.08902048881252979 	101361.3346347523
-0.486736736736737 	300.0303873093679 	0.08803394337723074 	101360.9282204874
-0.4842342342342345 	300.0300621621091 	0.08709187875627158 	101360.5437378872
-0.481731731731732 	300.0297580214601 	0.08620894620694687 	101360.1840919442
-0.4792292292292296 	300.02946346785 	0.08534874481562685 	101359.8357883269
-0.4767267267267268 	300.0291578216563 	0.08445318375215613 	101359.474371266
-0.4742242242242246 	300.0288199665048 	0.08347404783336314 	101359.0748661024
-0.471721721721722 	300.0284393176619 	0.08237140029473682 	101358.6247638262
-0.4692192192192195 	300.0280230879974 	0.08117457376054228 	101358.1325869119
-0.4667167167167169 	300.0275945097274 	0.07994105569532935 	101357.6258051994
-0.4642142142142145 	300.0271815012825 	0.07874822663786336 	101357.1374371976
-0.461711711711712 	300.0268025728751 	0.07765542315216292 	101356.6893667439
-0.4592092092092094 	300.0264587563442 	0.07665296818816954 	101356.2828149604
-0.456706706706707 	300.0261367436789 	0.07571568124395398 	101355.9020519945
-0.4542042042042045 	300.0258194131165 	0.0747919730797799 	101355.5268248993
-0.451701701701702 	300.0254951084615 	0.07384916779619428 	101355.1433517286
-0.4491991991991995 	300.0251586755751 	0.07287808410532404 	101354.7455441813
-0.4466966966966969 	300.0248055136867 	0.07184930829454925 	101354.3279520447
-0.4441941941941945 	300.0244256772629 	0.07074316579398629 	101353.8788233492
-0.441691691691692 	300.024005468171 	0.06952050093849164 	101353.3819619842
-0.4391891891891895 	300.0235368313125 	0.06816271907754892 	101352.8278332936
-0.436686686686687 	300.0230281603957 	0.06670423428681412 	101352.2263746501
-0.4341841841841846 	300.0225068833214 	0.06520713547352017 	101351.6100070885
-0.431681681681682 	300.022009865103 	0.06377843598061625 	101351.0223198638
-0.4291791791791794 	300.0215664044941 	0.06249661770529198 	101350.4979675339
-0.426676676676677 	300.0211838904018 	0.06138017800839672 	101350.0456751528
-0.4241741741741744 	300.0208445887823 	0.06039066640585588 	101349.644482726
-0.421671671671672 	300.0205157257963 	0.05942545986099716 	101349.2556392172
-0.4191691691691694 	300.0201658725685 	0.0584040623197183 	101348.8419760575
-0.4166666666666669 	300.0197780746711 	0.05727982810669142 	101348.3834526199
-0.4141641641641645 	300.0193533257013 	0.05605115912211198 	101347.8812391322
-0.411661661661662 	300.0189036324374 	0.05475752491192455 	101347.3495305997
-0.4091591591591594 	300.0184403604849 	0.05341509542735131 	101346.8017720959
-0.406656656656657 	300.017965585378 	0.05203531324865574 	101346.2404128056
-0.4041541541541545 	300.0174705821368 	0.05059595809354685 	101345.655138224
-0.401651651651652 	300.0169424644916 	0.04906270890705139 	101345.0307182944
-0.3991491491491494 	300.016374912755 	0.04742753436526368 	101344.3596706791
-0.396646646646647 	300.0157755386688 	0.04569809103524923 	101343.651002709
-0.3941441441441444 	300.0151668167074 	0.04394518236303979 	101342.931283895
-0.3916416416416419 	300.0145805265964 	0.04225620834852523 	101342.2380834107
-0.3891391391391395 	300.0140467427202 	0.04071395495701842 	101341.6069693442
-0.3866366366366368 	300.0135830163957 	0.03937523805216943 	101341.0586869669
-0.3841341341341344 	300.0131877433678 	0.03822020295572996 	101340.5913372991
-0.381631631631632 	300.0128392947734 	0.0371975302452931 	101340.179360902
-0.3791291291291294 	300.0125039224258 	0.03621437108771061 	101339.7828440388
-0.3766266266266269 	300.0121482920911 	0.03517484109369305 	101339.3623780761
-0.3741241241241244 	300.0117479512141 	0.03401621632265964 	101338.8890600004
-0.371621621621622 	300.0112928657288 	0.03269835182279913 	101338.3510122668
-0.3691191191191194 	300.0107894053756 	0.03124476195007356 	101337.755772949
-0.366616616616617 	300.010255448464 	0.02970419548484928 	101337.1244829952
-0.3641141141141143 	300.0097137921429 	0.02814151748778095 	101336.484083848
-0.3616116116116119 	300.0091848040624 	0.02661434924587858 	101335.858668147
-0.3591091091091095 	300.0086775866599 	0.02514077385356751 	101335.2589956638
-0.356606606606607 	300.0081890678172 	0.02372504915427122 	101334.6814268449
-0.3541041041041044 	300.0077096764892 	0.02233210715445584 	101334.1146591227
-0.3516016016016019 	300.007226216225 	0.02092901024567453 	101333.5430810283
-0.3490990990990994 	300.0067288583753 	0.01948974393046651 	101332.9550738459
-0.346596596596597 	300.0062151430391 	0.01799808360537317 	101332.3477350046
-0.3440940940940944 	300.0056879207817 	0.01647401340853975 	101331.7244245568
-0.3415915915915919 	300.0051549429406 	0.01493512179216479 	101331.0943142107
-0.3390890890890895 	300.0046288510165 	0.01341030390628835 	101330.4723477863
-0.3365865865865869 	300.0041149849447 	0.0119191207464235 	101329.8648327264
-0.3340840840840844 	300.0036132505379 	0.01046199507209035 	101329.2716693271
-0.3315815815815819 	300.0031176053265 	0.009027259155503288 	101328.685703912
-0.3290790790790794 	300.0026177796616 	0.007576969312240533 	101328.0947994777
-0.3265765765765769 	300.002103492634 	0.006090286242699233 	101327.4868064356
-0.3240740740740744 	300.0015742319048 	0.004550781021419125 	101326.8611070545
-0.3215715715715718 	300.0010280667309 	0.002968409067321632 	101326.2154289826
-0.3190690690690695 	300.0004733180783 	0.001371465918267061 	101325.5596087812
-0.3165665665665668 	299.9999211706387 	0.0005197825366172404 	101324.906858027
-0.3140640640640644 	299.9993877902398 	0.00176770047317503 	101324.2763013503
-0.311561561561562 	299.9988826082738 	0.003228720276554908 	101323.67908258
-0.3090590590590593 	299.9984046660331 	0.004618587533180022 	101323.114063469
-0.3065565565565568 	299.9979435219507 	0.00596128691225463 	101322.5689127672
-0.3040540540540545 	299.9974825388842 	0.007305511031285608 	101322.0239543534
-0.3015515515515518 	299.9970041039769 	0.008696138811042265 	101321.4583651947
-0.2990490490490494 	299.9964950955887 	0.0101676570297249 	101320.8566411609
-0.2965465465465469 	299.9959510556342 	0.01174089203361977 	101320.2135038911
-0.2940440440440444 	299.9953777967904 	0.01339615689226624 	101319.5358264103
-0.2915415415415418 	299.9947897509481 	0.01509433042543206 	101318.8406743259
-0.2890390390390395 	299.9942054069016 	0.01678165963753152 	101318.1498963637