-1.25 	299.9773819448653 	0.926969971971582 	101295.6107373848
-1.247497497497497 	299.9798631962713 	0.9380809212913607 	101301.185637089
-1.244994994994995 	299.9850737180211 	0.9570340544275474 	101307.3935456901
-1.242492492492492 	299.9906314617569 	0.9730381978859932 	101313.9394814062
-1.23998998998999 	299.9963452203309 	0.9895142066926776 	101320.6897595632
-1.237487487487487 	300.0021258722082 	1.006204459012422 	101327.5178551951
-1.234984984984985 	300.0078651495434 	1.022782940032305 	101334.2993483761
-1.232482482482482 	300.013457545692 	1.03894434106833 	101340.9097023652
-1.22997997997998 	300.0188021842602 	1.054390370032963 	101347.228526124
-1.227477477477477 	300.0238017815925 	1.068839422621287 	101353.140117098
-1.224974974974975 	300.0283645847318 	1.082026967998752 	101358.535602679
-1.222472472472472 	300.0324077731953 	1.093712565509104 	101363.3168240347
-1.21996996996997 	300.0358579134419 	1.103683515123883 	101367.3968878267
-1.217467467467467 	300.0386515866488 	1.111756712747012 	101370.7006735915
-1.214964964964965 	300.0407371035511 	1.117783433681441 	101373.1670498657
-1.212462462462462 	300.0420767370298 	1.121654357234063 	101374.7512947923
-1.20995995995996 	300.0426469725588 	1.123300419499528 	101375.4254310328
-1.207457457457457 	300.0424370590464 	1.122690704276522 	101375.1767721565
-1.204954954954955 	300.0414487981083 	1.119833870318655 	101374.0082881215
-1.202452452452452 	300.0397005771192 	1.114781458696618 	101371.9413316214
-1.19994994994995 	300.0372252576389 	1.107626128467137 	101369.0141560876
-1.197447447447447 	300.0340674354712 	1.098498230474056 	101365.2799252528
-1.194944944944945 	300.0302845567117 	1.087563877813545 	101360.8067473569
-1.192442442442442 	300.025945481986 	1.075021791211784 	101355.6759671115
-1.18993993993994 	300.021129028933 	1.061100093373425 	101349.9808726487
-1.187437437437437 	300.015923331827 	1.046053554283629 	101343.8258032073
-1.184934934934935 	300.0104241051254 	1.030158514280525 	101337.3239798017
-1.182432432432432 	300.0047321431884 	1.013706479950027 	101330.5946270214
-1.17992992992993 	299.9989519976683 	0.9969995350687961 	101323.7612443342
-1.177427427427427 	299.9931902804647 	0.9803459201152056 	101316.9499752434
-1.174924924924925 	299.9875535068609 	0.9640534122003441 	101310.2867484255
-1.172422422422422 	299.9821456231033 	0.9484225254533079 	101303.8943902699
-1.16991991991992 	299.9770662246759 	0.9337411900855122 	101297.8905403663
-1.167417417417417 	299.9724089323777 	0.92027995463978 	101292.3857608186
-1.164914914914915 	299.9682595286487 	0.9082872185965654 	101287.4815527527
-1.162412412412412 	299.9646947079463 	0.8979844994639947 	101283.2684607164
-1.15990990990991 	299.9617802511654 	0.8895613380999454 	101279.8239995475
-1.157407407407407 	299.9595690594764 	0.8831708929036117 	101277.2106986311
-1.154904904904904 	299.9581006501338 	0.8789277965015185 	101275.4752866493
-1.152402402402403 	299.9574009235125 	0.8769073267216831 	101274.6485001398
-1.1498998998999 	299.9574820461917 	0.8771449059112228 	101274.7447339233
-1.147397397397397 	299.9583431404366 	0.8796349915615429 	101275.7621414783
-1.144894894894895 	299.959967173389 	0.8843294109156977 	101277.6809631218
-1.142392392392392 	299.9623225519404 	0.8911388693510405 	101280.4644587946
-1.13988988988989 	299.9653656859641 	0.8999363175869651 	101284.0609184944
-1.137387387387387 	299.9690403926938 	0.9105589886556922 	101288.4038642815
-1.134884884884885 	299.973279005313 	0.922811397676538 	101293.4134132795
-1.132382382382382 	299.9780039527439 	0.9364694962272094 	101298.9980477938
-1.12987987987988 	299.983129236744 	0.9512844839228982 	101305.0561418819
-1.127377377377377 	299.9885616430873 	0.9669866529807516 	101311.477496236
-1.124874874874875 	299.9942020994823 	0.9832897293667054 	101318.1450676044
-1.122372372372372 	299.9999475673636 	0.9998961898133176 	101324.9371375234
-1.11986986986987 	300.0056933412136 	1.016503572798013 	101331.7299591524
-1.117367367367367 	300.0113351878384 	1.03281034331363 	101338.4002328971
-1.114864864864865 	300.0167707394675 	1.048520391607217 	101344.8268782545
-1.112362362362362 	300.0219009732747 	1.063347505119265 	101350.8927460746
-1.10985985985986 	300.0266320937337 	1.07702093059638 	101356.4869501277
-1.107357357357357 	300.0308776695869 	1.089291002270429 	101361.5072922531
-1.104854854854855 	300.0345602540175 	1.099933731709471 	101365.8620747317
-1.102352352352353 	300.0376125337231 	1.108754652324258 	101369.4716416709
-1.09984984984985 	300.0399786327939 	1.115592327423507 	101372.269875335
-1.097347347347347 	300.0416151825897 	1.120321244648868 	101374.2053772888
-1.094844844844845 	300.0424919570708 	1.12285373647419 	101375.2422568203
-1.092342342342342 	300.042592427658 	1.123140354303668 	101375.360515643
-1.08983983983984 	300.0419114268865 	1.12117038297185 	101374.5552020899
-1.087337337337337 	300.040459890626 	1.116975620244395 	101372.8392091672
-1.084834834834835 	300.0382651472619 	1.110631638586858 	101370.2439726644
-1.082332332332332 	300.0353667451957 	1.102253329617307 	101366.8165289084
-1.07982982982983 	300.0318167129563 	1.091991475484655 	101362.6185222699
-1.077327327327327 	300.0276788943897 	1.080031238846683 	101357.7257201098
-1.074824824824825 	300.0230286176188 	1.066590114849547 	101352.2271251539
-1.072322322322323 	300.0179512997987 	1.051914676199786 	101346.2237112884
-1.06981981981982 	300.0125405876705 	1.036275822932495 	101339.8264144171
-1.067317317317317 	300.0068967627055 	1.019963242652085 	101333.1537986522
-1.064814814814815 	300.0011245522441 	1.003279669893348 	101326.3297481837
-1.062312312312312 	299.9953312601077 	0.9865350322005516 	101319.4810619763
-1.05980980980981 	299.9896245575259 	0.9700405334615023 	101312.7349917737
-1.057307307307307 	299.9841104082369 	0.9541027679798417 	101306.2168896645
-1.054804804804805 	299.9788913054014 	0.9390179415077828 	101300.0478567209
-1.052302302302302 	299.9740642026165 	0.9250661575965939 	101294.3423810774
-1.0497997997998 	299.9697185173143 	0.9125056908382909 	101289.2060392638
-1.047297297297297 	299.9659340855114 	0.9015675240771011 	101284.7332416407
-1.044794794794795 	299.9627797594491 	0.8924507688280059 	101281.0052874973
-1.042292292292292 	299.9603123143212 	0.8853194706920098 	101278.0891334235
-1.03978978978979 	299.9585755654676 	0.8803005256286602 	101276.0366145526
-1.037287287287287 	299.9576000444584 	0.8774818028021918 	101274.8836336229
-1.034784784784785 	299.9574015959671 	0.8769108460038584 	101274.6494435779
-1.032282282282283 	299.9579835267983 	0.8785946818641043 	101275.3372324544
-1.02977977977978 	299.9593340569488 	0.8824982737736138 	101276.9328186995
-1.027277277277277 	299.961425639576 	0.8885446081590169 	101279.4043960236
-1.024774774774775 	299.9642185870838 	0.8966188638765576 	101282.7050913073
-1.022272272272272 	299.9676613270082 	0.9065713385215912 	101286.7738959024
-1.01976976976977 	299.971690667609 	0.9182191383479291 	101291.5361068552
-1.017267267267267 	299.9762329593918 	0.9313493261944504 	101296.9047309871
-1.014764764764765 	299.9812055167708 	0.9457230320766756 	101302.7821692582
-1.012262262262262 	299.9865182268317 	0.961079713874986 	101309.0619606068
-1.00975975975976 	299.9920749911076 	0.9771415320262921 	101315.630543639
-1.007257257257257 	299.9977753787916 	0.9936181236150735 	101322.3691959564
-1.004754754754755 	300.003516342032 	1.010211662891246 	101329.1561337229
-1.002252252252252 	300.0091939661922 	1.026621949113671 	101335.8685792676
-0.9997497497497498 	300.0147054185799 	1.042551611545306 	101342.3848532237
-0.9972472472472473 	300.0199506542098 	1.057711621994806 	101348.5866584092
-0.9947447447447449 	300.0248344911578 	1.071826893474329 	101354.3614160416
-0.9922422422422421 	300.0292683530018 	1.084641367776946 	101359.6043291683
-0.9897397397397399 	300.0331717047869 	1.095922225056385 	101364.2201022003
-0.9872372372372376 	300.0364732936023 	1.105463541190733 	101368.1244187154
-0.9847347347347346 	300.0391123847476 	1.1130898306139 	101371.2453843892
-0.9822322322322323 	300.0410399273368 	1.118659421103171 	101373.5249459322
-0.9797297297297296 	300.0422195978855 	1.122067303205408 	101374.920093916
-0.9772272272272275 	300.0426286960121 	1.123246738351644 	101375.4036425955
-0.9747247247247248 	300.0422570737712 	1.122169212115968 	101374.9638066316
-0.9722222222222224 	300.0411077220153 	1.118847062331733 	101373.6050728127
-0.9697197197197196 	300.0392012496537 	1.113336528474576 	101371.3509068569
-0.9672172172172175 	300.0365716772934 	1.105734893916369 	101368.2413313312
-0.9647147147147147 	300.0332652003289 	1.096177118644194 	101364.3313903153
-0.9622122122122124 	300.0293412681194 	1.084834881185174 	101359.6913455241
-0.9597097097097099 	300.0248711734087 	1.071914631567757 	101354.4057463011
-0.9572072072072073 	300.0199372874176 	1.057653926251945 	101348.5718745496
-0.9547047047047047 	300.0146309130793 	1.042316756514569 	101342.2978121618
-0.9522022022022023 	300.0090507094496 	1.026188471004637 	101335.7003576029
-0.9496996996996998 	300.0033011138433 	1.009570520480156 	101328.902861943
-0.9471971971971973 	299.9974899251613 	0.9927746960507485 	101322.0329114335
-0.9446946946946947 	299.9917264544217 	0.9761167118217887 	101315.2196921398
-0.9421921921921923 	299.9861190090566 	0.9599094151606722 	101308.5911576544
-0.93968968968969 	299.9807723809181 	0.9444561332603922 	101302.2713127314
-0.9371871871871872 	299.9757862691302 	0.9300446769975822 	101296.3778013954
-0.9346846846846848 	299.9712529870064 	0.9169419537057988 	101291.0196915627
-0.9321821821821823 	299.9672558181661 	0.9053888703599491 	101286.2954284811
-0.9296796796796799 	299.9638675155508 	0.8955957063490008 	101282.290926097
-0.9271771771771771 	299.9611489439453 	0.8877383316122255 	101279.0779990894
-0.9246746746746748 	299.9591480286461 	0.8819553242674787 	101276.7132278404
-0.9221721721721724 	299.9578990917263 	0.8783459667878482 	101275.2371616054
-0.9196696696696698 	299.9574222531469 	0.8769693048303784 	101274.6737799819
-0.9171671671671672 	299.9577241927131 	0.8778447181469697 	101275.0309741041
-0.9146646646646649 	299.9587988871726 	0.8809509712321004 	101276.3005924366
-0.9121621621621623 	299.9606233317771 	0.8862246078754562 	101278.4563705237
-0.9096596596596597 	299.963161716707 	0.8935628069339061 	101281.4561579374
-0.9071571571571573 	299.966366487636 	0.9028273998847591 	101285.2436706535
-0.9046546546546547 	299.9701785357279 	0.9138472709948531 	101289.7490197152
-0.9021521521521524 	299.9745283732635 	0.9264213063652751 	101294.8900464636
-0.8996496496496498 	299.9793371607059 	0.9403219848793702 	101300.5738315428
-0.8971471471471473 	299.9845183848279 	0.9552989746964652 	101306.6981233918
-0.894644644644645 	299.989978959414 	0.9710829412501198 	101313.1528522285
-0.892142142142142 	299.9956205846856 	0.9873899052085116 	101319.8219167163
-0.8896396396396397 	300.0013416975629 	1.003926267114875 	101326.5852482356
-0.8871371371371374 	300.0070391792236 	1.020394225809685 	101333.3210202226
-0.8846346346346349 	300.0126104322963 	1.036497280322427 	101339.9079433591
-0.8821321321321324 	300.0179553427433 	1.051945574846165 	101346.2274357676
-0.8796296296296297 	300.0229775298428 	1.066460852867681 	101352.165641915
-0.8771271271271271 	300.0275862909763 	1.079780995429438 	101357.6152950553
-0.8746246246246248 	300.0316980647596 	1.091664381449727 	101362.4774921655
-0.8721221221221224 	300.0352378205418 	1.101894124509529 	101366.6634040958
-0.8696196196196196 	300.0381404737201 	1.110282056528423 	101370.0959665597
-0.8671171171171175 	300.0403519955653 	1.116672200864779 	101372.7112975814
-0.8646146146146148 	300.0418304111346 	1.120943477108545 	101374.4598013215
-0.8621121121121121 	300.0425468089607 	1.123011637073489 	101375.3070091864
-0.8596096096096097 	300.0424855574652 	1.12282991921879 	101375.2339713905
-0.857107107107107 	300.0416421752227 	1.120390830934743 	101374.2368128804
-0.8546046046046049 	300.0400298864898 	1.115730749154164 	101372.3306672134
-0.8521021021021022 	300.0376772064419 	1.108929736743751 	101369.5486734133
-0.8495995995995997 	300.0346252086848 	1.100107134492738 	101365.9395710082
-0.8470970970970974 	300.0309279537439 	1.089419823057911 	101361.56751808
-0.8445945945945946 	300.0266521548492 	1.077060888936126 	101356.5115455717
-0.8420920920920922 	300.0218761932262 	1.063256859413442 	101350.8643953228
-0.8395895895895897 	300.0166888066692 	1.048263917053636 	101344.7309469721
-0.8370870870870872 	300.0111872228866 	1.032363094636172 	101338.2262666033
-0.8345845845845846 	300.0054753596617 	1.015854533123184 	101331.4732397846
-0.8320820820820823 	299.999661361293 	0.9990510065980721 	101324.5998893892
-0.8295795795795798 	299.9938555492923 	0.9822710390686655 	101317.7365346489
-0.8270770770770772 	299.9881678761232 	0.9658320991970728 	101311.0130333546
-0.8245745745745746 	299.9827054225805 	0.9500440918874183 	101304.556103241
-0.8220720720720721 	299.9775706159332 	0.9352030785077143 	101298.4867813259
-0.8195695695695699 	299.9728590667413 	0.9215852511433017 	101292.9179657706
-0.817067067067067 	299.9686575489119 	0.9094414065776779 	101287.9521383404
-0.8145645645645651 	299.9650424574531 	0.8989922156682868 	101283.6794340101
-0.8120620620620621 	299.9620782032983 	0.8904245207501029 	101280.1761534755
-0.8095595595595597 	299.9598168288941 	0.8838885772677944 	101277.5036370138
-0.8070570570570572 	299.9582970090201 	0.8794959484613163 	101275.7074287346
-0.8045545545545546 	299.9575432707854 	0.8773180419496729 	101274.8166672772
-0.8020520520520523 	299.9575660167382 	0.8773861767233725 	101274.84390863
-0.7995495495495494 	299.9583634506624 	0.8796916887447446 	101275.786178683
-0.7970470470470474 	299.9599177730053 	0.8841840535897731 	101277.6226459695
-0.7945445445445446 	299.9621969223072 	0.8907725737307726 	101280.3159748809
-0.7920420420420423 	299.9651575389304 	0.8993313350314939 	101283.8148267921
-0.7895395395395397 	299.9687448763854 	0.909701857011765 	101288.0545497216
-0.7870370370370371 	299.9728936394915 	0.9216951618123996 	101292.9579902166
-0.7845345345345348 	299.9775290101418 	0.9350946584232936 	101298.4366895922
-0.7820320320320323 	299.9825676492037 	0.949659502600272 	101304.392249565
-0.7795295295295296 	299.9879191410218 	0.9651285557843781 	101310.7179591362
-0.7770270270270272 	299.9934877439641 	0.9812249371982116 	101317.3006290596
-0.7745245245245247 	299.9991739271612 	0.9976608495580209 	101324.0225899452
-0.7720220220220222 	300.0048760914468 	1.01414249300093 	101330.7637046267
-0.7695195195195199 	300.0104921298671 	1.030375104632367 	101337.4033890719
-0.767017017017017 	300.0159215189711 	1.046068093631727 	101343.8227558781
-0.7645145145145147 	300.0210670394687 	1.060940166621763 	101349.9067199486
-0.7620120120120122 	300.0258362456942 	1.074724205215827 	101355.5459685976
-0.7595095095095097 	300.0301431462299 	1.087171645324174 	101360.6387645893
-0.7570070070070072 	300.0339094822414 	1.098056427884829 	101365.0925913497
-0.7545045045045048 	300.0370662027075 	1.107178695093669 	101368.8255966212
-0.7520020020020022 	300.0395542991377 	1.114368244647477 	101371.768060425
-0.7494994994994997 	300.0413263938772 	1.119487775715754 	101373.8637230996
-0.7469969969969972 	300.0423471749264 	1.122435818709867 	101375.0709895421
-0.7444944944944945 	300.0425951313194 	1.123148475705558 	101375.363884272
-0.7419919919919924 	300.0420606341877 	1.121600001413218 	101374.7315329331
-0.7394894894894897 	300.0407483160466 	1.117806784817549 	101373.1802009238
-0.7369869869869872 	300.0386807938162 	1.111829848322852 	101370.735456644
-0.7344844844844846 	300.0358932324117 	1.103771313567958 	101367.4390647866
-0.7319819819819822 	300.0324340663003 	1.093772195306882 	101363.3486008544
-0.7294794794794797 	300.0283654003598 	1.082011768751492 	101358.5374498674
-0.7269769769769773 	300.0237616305079 	1.068705328667391 	101353.0937642626
-0.7244744744744747 	300.0187084301385 	1.054100447642544 	101347.1189131761
-0.721971971971972 	300.01330109335 	1.038472234358919 	101340.7255391994
-0.7194694694694695 	300.0076423175744 	1.022117709866006 	101334.0352549433
-0.7169669669669674 	300.0018404404151 	1.005349378307403 	101327.1760089241
-0.7144644644644647 	299.9960064217809 	0.9884881778531611 	101320.2791503754
-0.711961961961962 	299.9902517697024 	0.9718562093393177 	101313.4764535702
-0.7094594594594597 	299.9846859607383 	0.9557696213832797 	101306.8972205969
-0.7069569569569573 	299.9794138925234 	0.9405318944761591 	101300.6655351845
-0.7044544544544545 	299.9745340967817 	0.9264276898624138 	101294.8977448119
-0.7019519519519523 	299.9701366428708 	0.9137173993737517 	101289.7002442903
-0.6994494494494495 	299.9663015315455 	0.9026324494519663 	101285.1675694036
-0.6969469469469471 	299.9630974552415 	0.8933713155238919 	101281.3807837078
-0.6944444444444446 	299.9605805052868 	0.8860962262225086 	101278.4061480709
-0.6919419419419421 	299.958793380796 	0.8809306434067791 	101276.2940627868
-0.6894394394394396 	299.9577648032615 	0.8779576683867165 	101275.0784252328
-0.6869369369369374 	299.957509014495 	0.8772199324210893 	101274.7764184665
-0.6844344344344344 	299.9580277995553 	0.8787209557784881 	101275.3896685439
-0.6819319319319321 	299.9593091482673 	0.8824239316146287 	101276.9034834215
-0.6794294294294296 	299.961325187816 	0.8882514406441627 	101279.285737347
-0.6769269269269272 	299.9640365406934 	0.8960898169722511 	101282.4900533577
-0.6744244244244245 	299.9673928635161 	0.9057924470045404 	101286.4566595099
-0.6719219219219222 	299.9713326389866 	0.9171816977594521 	101291.1130095085
-0.6694194194194195 	299.9757847561489 	0.9300517019878256 	101296.3750381117
-0.6669169169169172 	299.9806694058254 	0.944171777648058 	101302.1485217166
-0.6644144144144146 	299.9858994132177 	0.9592900689607319 	101308.3305499807
-0.661911911911912 	299.9913818208684 	0.975137502558576 	101314.811171291
-0.6594094094094097 	299.9970190671605 	0.9914322368759789 	101321.4751595229
-0.656906906906907 	300.0027109382514 	1.007884532833821 	101328.2040122314
-0.6544044044044046 	300.0083561948696 	1.024201904662194 	101334.8781002137
-0.6519019019019021 	300.0138544534069 	1.04009436965773 	101341.3788009842
-0.6493993993993996 	300.0191081309477 	1.055279322990702 	101347.5905045756
-0.6468968968968971 	300.0240234456612 	1.069485921249203 	101353.4024258601
-0.6443943943943946 	300.028512228067 	1.082459247991395 	101358.7102443967
-0.6418918918918921 	300.0324931920255 	1.093964372525238 	101363.4177671554
-0.6393893893893897 	300.0358932781826 	1.103790323660185 	101367.4386226995
-0.6368868868868871 	300.0386493341707 	1.11175395054392 	101370.6977916503
-0.6343843843843846 	300.0407084975781 	1.117703347178205 	101373.1330302356
-0.6318818818818821 	300.0420301592845 	1.121520778322058 	101374.6961036205
-0.6293793793793795 	300.042586365743 	1.123125084997457 	101375.3538175845
-0.6268768768768773 	300.0423624014974 	1.122472376245148 	101375.0883434689
-0.6243743743743745 	300.0413547713449 	1.119558764833318 	101373.8971368733
-0.6218718718718721 	300.0395788663616 	1.11442529001774 	101371.7975778543
-0.6193693693693696 	300.0370647109944 	1.107156656043668 	101368.8244626944
-0.6168668668668671 	300.033854954434 	1.097877704965646 	101365.028717096
-0.6143643643643645 	300.0300062339826 	1.086752852928506 	101360.477607641
-0.6118618618618621 	300.0255886761939 	1.073984645513618 	101355.2540556849
-0.6093593593593596 	300.0206844244815 	1.059810614239947 	101349.4553222792
-0.6068568568568571 	300.015386451782 	1.044498928212407 	101343.1912213962
-0.6043543543543546 	300.0097962793797 	1.028342813081764 	101336.5818351872
-0.6018518518518521 	300.004021653746 	1.011653803766766 	101329.7547497896
-0.5993493493493496 	299.9981742676574 	0.9947542182222457 	101322.8419207657
-0.5968468468468471 	299.9923666029727 	0.9779695194436216 	101315.976515189
-0.5943443443443446 	299.9867101232791 	0.9616210774981035 	101309.2899749103
-0.591841841841842 	299.9813121295336 	0.9460194573538738 	101302.9092798453
-0.5893393393393397 	299.9762740912421 	0.931458114567658 	101296.9543900472
-0.5868368368368371 	299.9716896543869 	0.9182075209773061 	101291.5358584136
-0.5843343343343346 	299.9676426086891 	0.9065099003188145 	101286.7526539327
-0.5818318318318321 	299.9642054943142 	0.8965747930357364 	101282.6903502464
-0.5793293293293297 	299.9614381774306 	0.8885756363023805 	101279.4197597288
-0.5768268268268271 	299.9593872498567 	0.8826474234981366 	101276.9959723418
-0.5743243243243245 	299.9580857196152 	0.8788852889737729 	101275.4577949801
-0.5718218218218221 	299.9575523790285 	0.8773440388940561 	101274.8275065681
-0.5693193193193196 	299.9577921670574 	0.8780394094870256 	101275.1113278146
-0.5668168168168171 	299.9587987287638 	0.8809478750744973 	101276.3003638697
-0.5643143143143147 	299.9605483066186 	0.8860050863979525 	101278.3677997883
-0.5618118118118121 	299.9630057991953 	0.8931092298965294 	101281.2719403731
-0.5593093093093094 	299.9661247089512 	0.9021255496521636 	101284.9578823992
-0.5568068068068072 	299.9698476834351 	0.9128882245360657 	101289.3579564346
-0.5543043043043046 	299.9741075176128 	0.9252025911464465 	101294.3926618681
-0.551801801801802 	299.9788278358623 	0.9388480949279404 	101299.9719271673
-0.5492992992992995 	299.9839248483901 	0.953581824461737 	101305.9965150616
-0.5467967967967969 	299.9893079912557 	0.9691425473316537 	101312.3596459294
-0.5442942942942947 	299.9948819856006 	0.9852550859002361 	101318.9488465291
-0.5417917917917919 	300.0005486843761 	1.001634993676063 	101325.647825446
-0.5392892892892895 	300.0062079948465 	1.017993355695221 	101332.3384138639
-0.536786786786787 	300.0117601382414 	1.034041552031418 	101338.9025654971
-0.5342842842842846 	300.0171069302518 	1.049496005945501 	101345.2243039921
-0.531781781781782 	300.0221535684105 	1.06408268742023 	101351.1915028074
-0.5292792792792794 	300.026810200165 	1.077541323567124 	101356.6976779903
-0.526776776776777 	300.0309928824719 	1.08962951674229 	101361.6436226018
-0.5242742742742745 	300.0346252674628 	1.100126714893673 	101365.9390232511
-0.521771771771772 	300.0376398263727 	1.108837880813413 	101369.504015154
-0.5192692692692695 	300.0399792365299 	1.115597037071836 	101372.2706252556
-0.516766766766767 	300.0415971978637 	1.120270573374452 	101374.1840635121
-0.5142642642642645 	300.0424596942665 	1.122760140722498 	101375.2040291391
-0.511761761761762 	300.0425459998829 	1.123004396242005 	101375.305662129
-0.5092592592592596 	300.0418468038968 	1.120980184461135 	101374.4788052718
-0.506756756756757 	300.040368883838 	1.116707887342457 	101372.7316536942
-0.5042542542542544 	300.0381364428512 	1.110253413101203 	101370.0917344182
-0.5017517517517521 	300.0351861374782 	1.101724484492389 	101366.6029388898
-0.4992492492492494 	300.031569276286 	1.091269810461945 	101362.3260402308
-0.496746746746747 	300.027351375778 	1.079078547189564 	101357.3384757285
-0.4942442442442445 	300.0226108968615 	1.065377567851826 	101351.7331425308
-0.4917417417417421 	300.0174378717272 	1.050427065675293 	101345.6166254964
-0.4892392392392395 	300.0119319171313 	1.034514907046776 	101339.1068287173
-0.486736736736737 	300.0062001323554 	1.017949945709846 	101332.3302351661
-0.4842342342342345 	300.0003540401069 	1.001054595170535 	101325.4188576931
-0.481731731731732 	299.9945073925108 	0.9841571614453614 	101318.5070591082
-0.4792292292292296 	299.9887730188798 	0.9675842734246262 	101311.728454375
-0.4767267267267268 	299.983261044291 	0.9516536013439011 	101305.2129809887
-0.4742242242242246 	299.9780758886461 	0.9366670280590441 	101299.0840607844
-0.471721721721722 	299.9733143232051 	0.922904403731309 	101293.4560614611
-0.4692192192192195 	299.9690636649703 	0.9106181030269022 	101288.4321076063
-0.4667167167167169 	299.9654000902838 	0.9000285833587262 	101284.1022395383
-0.4642142142142145 	299.9623876855268 	0.8913208513132778 	101280.5419850988
-0.461711711711712 	299.9600772113887 	0.8846418349349749 	101277.811320108
-0.4592092092092094 	299.9585056116833 	0.8800987640987797 	101275.9539858928
-0.456706706706707 	299.9576960526157 	0.8777585002416755 	101274.9972045661
-0.4542042042042045 	299.9576573150937 	0.8776484052184146 	101274.9518704281
-0.451701701701702 	299.9583870138298 	0.8797577834291032 	101275.8141018487
-0.4491991991991995 	299.9598675245801 	0.8840360083179946 	101277.5631799161
-0.4466966966966969 	299.9620667370597 	0.8903936589807554 	101280.1621775861
-0.4441941941941945 	299.9649427347862 	0.8987076833548332 	101283.5609825148
-0.441691691691692 	299.9684419533613 	0.9088236443889639 	101287.6965815248
-0.4391891891891895 	299.9725010242191 	0.9205576447280772 	101292.4938984287
-0.436686686686687 	299.9770470421446 	0.9336993108131132 	101297.8669923952
-0.4341841841841846 	299.9819992941207 	0.9480152315103257 	101303.7205171811
-0.431681681681682 	299.9872705359548 	0.9632527443722995 	101309.9512467251
-0.4291791791791794 	299.9927679385329 	0.9791440339162929 	101316.4497133239
-0.426676676676677 	299.9983952030136 	0.9954103932690097 	101323.1019774539
-0.4241741741741744 	300.0040537434207 	1.011766772242333 	101329.7915017875
-0.421671671671672 	300.0096442880464 	1.027926547522972 	101336.4010426348
-0.4191691691691694 	300.0150689201336 	1.043606183258203 	101342.8146246147
-0.4166666666666669 	300.0202320004205 	1.058529633395851 	101348.9193631203
-0.4141641641641645 	300.0250422009836 	1.072432480388916 	101354.6070632081
-0.411661661661662 	300.0294134167104 	1.085065842976383 	101359.7758766075
-0.4091591591591594 	300.0332661937306 	1.096200307247498 	101364.331902038
-0.406656656656657 	300.0365294154694 	1.105629877223177 	101368.1907719262
-0.4041541541541545 	300.0391409072442 	1.113175621035517 	101371.2791807645
-0.401651651651652 	300.0410495300769 	1.118689055918793 	101373.536334429
-0.3991491491491494 	300.042215353642 	1.122055272443351 	101374.9150952154
-0.396646646646647 	300.0426113365334 	1.123195364158974 	101375.3832343044
-0.3941441441441444 	300.0422231850426 	1.122067335677294 	101374.9235792392
-0.3916416416416419 	300.0410481806977 	1.118670530861605 	101373.5347748182
-0.3891391391391395 	300.0391044793849 	1.113050969461943 	101371.2365275803
-0.3866366366366368 	300.0364232621233 	1.105299267861553 	101368.0658161106
-0.3841341341341344 	300.0330498464431 	1.095548158341426 	101364.0768116116
-0.381631631631632 	300.029045029911 	1.083972392250289 	101359.3410561822
-0.3791291291291294 	300.024482720991 	1.070786577163264 	101353.9464304503
-0.3766266266266269 	300.0194498356389 	1.056241245945455 	101347.9955314921
-0.3741241241241244 	300.0140436898124 	1.040617552572414 	101341.6035272249
-0.371621621621622 	300.0083698793251 	1.02422081314819 	101334.8954850379
-0.3691191191191194 	300.0025402264581 	1.007373007751583 	101328.0032582583
-0.366616616616617 	299.9966687353622 	0.9904046551550512 	101321.0621648471
-0.3641141141141143 	299.990870363584 	0.9736467956563919 	101314.2076601457
-0.3616116116116119 	299.985257007256 	0.9574233992879991 	101307.5722420047
-0.3591091091091095 	299.9799358882949 	0.9420442352410577 	101301.2825874427
-0.356606606606607 	299.9750071744044 	0.9277983972030153 	101295.4568725775
-0.3541041041041044 	299.9705614665053 	0.9149485632560574 	101290.2024173495
-0.3516016016016019 	299.9666790319465 	0.9037261060295451 	101285.6137380793
-0.3490990990990994 	299.9634276236645 	0.8943273383264893 	101281.7709979219
-0.346596596596597 	299.9608620366382 	0.8869108487940848 	101278.7388886932
-0.3440940940940944 	299.9590235474371 	0.8815958557280972 	101276.5660513355
-0.3415915915915919 	299.9579393206839 	0.8784615527926524 	101275.2847631978
-0.3390890890890895 	299.9576229353568 	0.8775474849251939 	101274.9109702656
-0.3365865865865869 	299.9580748210655 	0.8788553225560282 	101275.4453394249
-0.3340840840840844 	299.9592836998719 	0.8823479635870152 	101276.8734034522
-0.3315815815815819 	299.9612212840473 	0.8879486062776583 	101279.1629924316
-0.3290790790790794 	299.9638490824891 	0.8955453807029908 	101282.2685705216
-0.3265765765765769 	299.9671179667071 	0.904995163657524 	101286.1317715219
-0.3240740740740744 	299.9709680109214 	0.9161251509797448 	101290.682027064
-0.3215715715715718 	299.9753301315917 	0.9287354677898951 	101295.837728307
-0.3190690690690695 	299.9801270063633 	0.9426024209901187 	101301.507496096
-0.3165665665665668 	299.9852743067674 	0.9574820700554323 	101307.5916607316
-0.3140640640640644 	299.9906819844483 	0.9731141224188297 	101313.9838694476
-0.311561561561562 	299.9962557377023 	0.989226152412122 	101320.5727640641
-0.3090590590590593 	300.0018986046289 	1.005537889839006 	101327.2437438217
-0.3065565565565568 	300.0075126124761 	1.021765595103279 	101333.8808069349
-0.3040540540540545 	300.0129998318584 	1.037626546021466 	101340.3683190836
-0.3015515515515518 	300.0182643675522 	1.052843392606465 	101346.5928310715
-0.2990490490490494 	300.0232135064943 	1.067148291573363 	101352.4447867454
-0.2965465465465469 	300.0277594122443 	1.080286984273801 	101357.8201433775
-0.2940440440440444 	300.0318202226287 	1.092022674042334 	101362.6219719454
-0.2915415415415418 	300.0353211884258 	1.102139715858706 	101366.7620186111
-0.2890390390390395 	300.0381963189714 	1.110447193930454 	101370.162094432
-0.2865365365365368 	300.0403891609068 	1.116782312496532 	101372.7554781247
-0.2840340340340343 	300.0418544799896 	1.121013703545889 	101374.488342375
-0.2815315315315318 	300.042558608947 	1.123044761627067 	101375.3210629289
-0.2790290290290295 	300.0424816943504 	1.122815621023534 	101375.2293903285
-0.2765265265265269 	300.0416141051199 	1.120305563063138 	101374.2038240399