-1.25 	299.9630226002237 	1 	101354.3892626142
-1.247497497497497 	300.0038391030888 	1.273762134163024 	101331.522127893
-1.244994994994995 	300.0301270033637 	0.9162642877341725 	101363.0902729115
-1.242492492492492 	300.017623623325 	1.066514507117517 	101348.1521223371
-1.23998998998999 	300.0218509959161 	1.1008414540619 	101352.7502181802
-1.237487487487487 	300.0250235303756 	1.058724881416242 	101355.9961648445
-1.234984984984985 	300.0255357190462 	1.074190114465441 	101355.8537049774
-1.232482482482482 	300.0241129793294 	1.069911986768475 	101353.6569297621
-1.22997997997998 	300.0210174189689 	1.060699129685854 	101349.8284232996
-1.227477477477477 	300.0174892416999 	1.050848442462616 	101345.6617245751
-1.224974974974975 	300.0147805828684 	1.043208107589522 	101342.4761917256
-1.222472472472472 	300.0131384696162 	1.038258229268054 	101340.5360118614
-1.21996996996997 	300.0119573319315 	1.034530889040493 	101339.1376765622
-1.217467467467467 	300.0105632754643 	1.030391999694403 	101337.4883704414
-1.214964964964965 	300.008675082829 	1.024940405027063 	101335.2558979726
-1.212462462462462 	300.0062861169679 	1.018053607886414 	101332.4320166539
-1.20995995995996 	300.0034975931464 	1.009989416453379 	101329.135559405
-1.207457457457457 	300.0003409405667 	1.000769889749297 	101325.4038486595
-1.204954954954955 	299.9966362479992 	0.9900576968563481 	101321.024432688
-1.202452452452452 	299.9924804541897 	0.9783360214823786 	101316.1116259522
-1.19994994994995 	299.9887098090736 	0.9677878065360537 	101311.6541215086
-1.197447447447447 	299.9862842975066 	0.9608021052175124 	101308.786920734
-1.194944944944945 	299.9852999142584 	0.9576141721976207 	101307.6231873469
-1.192442442442442 	299.984865683504 	0.9559092621592726 	101307.1094083321
-1.18993993993994 	299.9837929896373 	0.9525389822591566 	101305.8410948743
-1.187437437437437 	299.9813966253663 	0.9457258899176192 	101303.0089094842
-1.184934934934935 	299.978034575497 	0.9364667778137771 	101299.0351335255
-1.182432432432432 	299.9749782105819 	0.9281020068285777 	101295.4223146642
-1.17992992992993 	299.973519833761 	0.9240545548065151 	101293.6988668269
-1.177427427427427 	299.9741279153841 	0.9256415463470715 	101294.4180688549
-1.174924924924925 	299.9763293472307 	0.9316576821263591 	101297.0192459921
-1.172422422422422 	299.9791572493917 	0.9395354788897113 	101300.3610059491
-1.16991991991992 	299.9817707344123 	0.9470051489738107 	101303.4502845765
-1.167417417417417 	299.9838820162274 	0.9531975140644073 	101305.9458518791
-1.164914914914915 	299.985668521555 	0.9584491494901253 	101308.0576265092
-1.162412412412412 	299.9873303626484 	0.9632790133350526 	101310.0222360103
-1.15990990990991 	299.9889340946618 	0.9679993424887168 	101311.9178646373
-1.157407407407407 	299.9906934936 	0.9732719281330897 	101313.9974670724
-1.154904904904904 	299.9930649907228 	0.9802748274872544 	101316.800900063
-1.152402402402403 	299.9963851335657 	0.9898439139153234 	101320.7257173236
-1.1498998998999 	300.0005104773695 	1.001558905433216 	101325.602474477
-1.147397397397397 	300.0047987171491 	1.013658276321953 	101330.6722134711
-1.144894894894895 	300.0083827991028 	1.023811660329311 	101334.9096457598
-1.142392392392392 	300.0106622865285 	1.030459142755479 	101337.6046069867
-1.13988988988989 	300.0117637021298 	1.033961175738211 	101338.9068748851
-1.137387387387387 	300.0125152067473 	1.036507641113652 	101339.795520153
-1.134884884884885 	300.0138993854977 	1.040715061458645 	101341.4318856198
-1.132382382382382 	300.0164372945159 	1.047965626612001 	101344.4323339186
-1.12987987987988 	300.0198458096477 	1.057467872314799 	101348.4624085123
-1.127377377377377 	300.0231296797842 	1.066559401843148 	101352.3452560192
-1.124874874874875 	300.0251746079838 	1.072292564626495 	101354.763258946
-1.122372372372372 	300.0254771739403 	1.073289596603564 	101355.1202196973
-1.11986986986987 	300.0243557221887 	1.070305294292275 	101353.7943539274
-1.117367367367367 	300.0225111447576 	1.065152772650384 	101351.6141622931
-1.114864864864865 	300.0204625316218 	1.05927435086338 	101349.1919346707
-1.112362362362362 	300.0183839717142 	1.053268535247789 	101346.7342647635
-1.10985985985986 	300.0163365290915 	1.047404759970821 	101344.3134584683
-1.107357357357357 	300.0145011003548 	1.042171975441379 	101342.1431388547
-1.104854854854855 	300.0130853289825 	1.038033865347852 	101340.4692471496
-1.102352352352353 	300.0119732002789 	1.034588576675218 	101339.1544145769
-1.09984984984985 	300.0105680376186 	1.030237365606855 	101337.4930215225
-1.097347347347347 	300.0081364552161 	1.023082402757366 	101334.6184288337
-1.094844844844845 	300.0043997300376 	1.012439383085186 	101330.2007571107
-1.092342342342342 	299.9998560089525 	0.9996727917041941 	101324.8291180573
-1.08983983983984 	299.9955649127718 	0.9876095178771509 	101319.7563609424
-1.087337337337337 	299.9924966523976 	0.9788006863748131 	101316.1290619722
-1.084834834834835 	299.9908529086017 	0.9737662811982286 	101314.1859817746
-1.082332332332332 	299.9899092983615 	0.9706207476348616 	101313.07064
-1.07982982982983 	299.9885757258223 	0.9665111091066731 	101311.4943218892
-1.077327327327327 	299.9861956678403 	0.9596760856931927 	101308.6811904781
-1.074824824824825 	299.9829222786218 	0.9504697941407695 	101304.8121742449
-1.072322322322323 	299.9794904025034 	0.9408274333071679 	101300.7559668534
-1.06981981981982 	299.9767050654033 	0.9329386725109243 	101297.4638838237
-1.067317317317317 	299.9750584789409 	0.9282099373464726 	101295.5177946855
-1.064814814814815 	299.9746678635899 	0.9270404764268003 	101295.0566940267
-1.062312312312312 	299.9754224594431 	0.9291428468469042 	101295.9486742815
-1.05980980980981 	299.9770791212027 	0.9338004546219063 	101297.9063600831
-1.057307307307307 	299.9792435358895 	0.9398824331343339 	101300.4645642435
-1.054804804804805 	299.981405031783 	0.945981280148731 	101303.0195336184
-1.052302302302302 	299.9831275444286 	0.9509263622920252 	101305.0557389011
-1.0497997997998 	299.9842949959016 	0.9544282832087712 	101306.4358520593
-1.047297297297297 	299.9852339298142 	0.9573939181643765 	101307.5456816089
-1.044794794794795 	299.9866025874187 	0.9616017099918042 	101309.1634662706
-1.042292292292292 	299.989040422792 	0.9687366360471705 	101312.0450975289
-1.03978978978979 	299.9927248718165 	0.9792209320675196 	101316.4003588819
-1.037287287287287 	299.9971392269263 	0.9916404645858699 	101321.6187578026
-1.034784784784785 	300.00129929588 	1.003370038868232 	101326.5367837742
-1.032282282282283 	300.0043538649374 	1.012159719095089 	101330.1480727654
-1.02977977977978 	300.0061511989808 	1.017604903916148 	101332.2730047718
-1.027277277277277 	300.0073244739763 	1.021352805603065 	101333.6598980528
-1.024774774774775 	300.0087998875163 	1.025836564919435 	101335.4040335068
-1.022272272272272 	300.0111394809004 	1.032575472853982 	101338.1699442136
-1.01976976976977 	300.0142493543576 	1.041381570445906 	101341.8467182534
-1.017267267267267 	300.0175927363532 	1.050856582077393 	101345.7997482651
-1.014764764764765 	300.0206005751105 	1.059440109774548 	101349.356089344
-1.012262262262262 	300.0229108909086 	1.06606820844613 	101352.087783378
-1.00975975975976 	300.0243379777115 	1.070149110269983 	101353.7751925919
-1.007257257257257 	300.0247395185089 	1.071266015304942 	101354.2494251818
-1.004754754754755 	300.0240111228214 	1.069192852178401 	101353.3878586529
-1.002252252252252 	300.0222764857181 	1.064356855764391 	101351.3374447666
-0.9997497497497498 	300.0200516464382 	1.058195521695505 	101348.707104688
-0.9972472472472473 	300.0180916388175 	1.052721885506791 	101346.3894915842
-0.9947447447447449 	300.0169319492001 	1.049323754424954 	101345.0181923838
-0.9922422422422421 	300.0164614574763 	1.047673788538221 	101344.4617653023
-0.9897397397397399 	300.0159165275588 	1.045744186373677 	101343.8169393304
-0.9872372372372376 	300.0143738286616 	1.041110737931146 	101341.9929802371
-0.9847347347347346 	300.0114056050521 	1.032652361191087 	101338.4841061246
-0.9822322322322323 	300.0073870768787 	1.021350554006803 	101333.733248084
-0.9797297297297296 	300.003222372842 	1.009596127992922 	101328.8094736629
-0.9772272272272275 	299.999743000824 	0.999626487631821 	101324.6960054864
-0.9747247247247248 	299.9972491296652 	0.992295738416992 	101321.7477493399
-0.9722222222222224 	299.9954621835404 	0.9869055852087192 	101319.635238715
-0.9697197197197196 	299.9938108630082 	0.9819334133510452 	101317.6830591649
-0.9672172172172175 	299.9917851968495 	0.9759786429982527 	101315.2885415104
-0.9647147147147147 	299.9891472888529 	0.9683608340864018 	101312.1703310064
-0.9622122122122124 	299.9859615558531 	0.9592403446835278 	101308.4045417601
-0.9597097097097099 	299.9825260254266 	0.9494487668584271 	101304.3436385186
-0.9572072072072073 	299.9792838262632 	0.9402394726746874 	101300.5112996129
-0.9547047047047047 	299.9767359800445 	0.9330251999996795 	101297.4996619597
-0.9522022022022023 	299.9753299514078 	0.9290427912163955 	101295.8378304542
-0.9496996996996998 	299.9752951661387 	0.9288899629251589 	101295.7974014865
-0.9471971971971973 	299.9764686172536 	0.9320684201866616 	101297.1839454297
-0.9446946946946947 	299.9782483537138 	0.9369286655109265 	101299.2869225722
-0.9421921921921923 	299.9798467795626 	0.9413677719493726 	101301.1762456649
-0.93968968968969 	299.9807582162892 	0.9440567167900656 	101302.25360795
-0.9371871871871872 	299.9811150132789 	0.9453584988236082 	101302.6753823476
-0.9346846846846848 	299.9816282597083 	0.9471553210575909 	101303.2825463624
-0.9321821821821823 	299.9831125308128 	0.9515906998360004 	101305.0368534987
-0.9296796796796799 	299.9859200263402 	0.9595939256890652 	101308.3548470027
-0.9271771771771771 	299.9897028906051 	0.9702543146522398 	101312.8263335023
-0.9246746746746748 	299.9936656028667 	0.9814641874672548 	101317.5107520731
-0.9221721721721724 	299.9970845416219 	0.9912730770043177 	101321.5524151587
-0.9196696696696698 	299.9996968082374 	0.9989246357128683 	101324.6406949315
-0.9171671671671672 	300.0017180602312 	1.004937439636218 	101327.0303214018
-0.9146646646646649 	300.0035670341439 	1.010416329581909 	101329.2161823302
-0.9121621621621623 	300.005580004023 	1.016306138917807 	101331.5959751334
-0.9096596596596597 	300.0079255896908 	1.023128104458006 	101334.3690250745
-0.9071571571571573 	300.0106814328853 	1.031124209054048 	101337.6271235576
-0.9046546546546547 	300.0138735438242 	1.040325880209222 	101341.4011540151
-0.9021521521521524 	300.0173633270252 	1.050273350775911 	101345.527314946
-0.8996496496496498 	300.0207038361698 	1.059691331359388 	101349.4771412183
-0.8971471471471473 	300.0232015814742 	1.06669909039384 	101352.4305992772
-0.894644644644645 	300.024260161627 	1.069725599047394 	101353.6820745286
-0.892142142142142 	300.0237910520401 	1.068569352584981 	101353.1269305376
-0.8896396396396397 	300.0223481697575 	1.064725175990884 	101351.4215085531
-0.8871371371371374 	300.0208261088386 	1.06057059132622 	101349.6222075887
-0.8846346346346349 	300.0199024942567 	1.057918935197344 	101348.5300796153
-0.8821321321321324 	300.0196438150661 	1.056973161565722 	101348.2242001843
-0.8796296296296297 	300.0195294954282 	1.05636628809346 	101348.0886262529
-0.8771271271271271 	300.0188279082798 	1.054149769855985 	101347.2588990408
-0.8746246246246248 	300.0170497171516 	1.049001692696262 	101345.1571693609
-0.8721221221221224 	300.0142006124394 	1.040911413777098 	101341.7890488971
-0.8696196196196196 	300.0107165910666 	1.031036441516955 	101337.6698984018
-0.8671171171171175 	300.007185483985 	1.020972032289697 	101333.4951667833
-0.8646146146146148 	300.004056825197 	1.011968600375065 	101329.7962583215
-0.8621121121121121 	300.001498834371 	1.004523649342702 	101326.7720849425
-0.8596096096096097 	299.9994200655324 	0.9984065229079967 	101324.3146372889
-0.857107107107107 	299.9975592608336 	0.9928869126970293 	101322.1148701673
-0.8546046046046049 	299.9955620093734 	0.9869655519410186 	101319.7538092741
-0.8521021021021022 	299.9930626651304 	0.979637547318856 	101316.7993616769
-0.8495995995995997 	299.9898341644394 	0.9703196891271517 	101312.9830371954
-0.8470970970970974 	299.9859839698887 	0.9593608657107158 	101308.4318426308
-0.8445945945945946 	299.9820457889456 	0.9482484136938858 	101303.7767421328
-0.8420920920920922 	299.978815176207 	0.9391399972605655 	101299.9580329432
-0.8395895895895897 	299.9769545312374 	0.9338050117285071 	101297.7586599485
-0.8370870870870872 	299.9765991523196 	0.9325958392456916 	101297.3390417168
-0.8345845845845846 	299.9772588169195 	0.9342020519687153 	101298.118529444
-0.8320820820820823 	299.9781191067921 	0.9364627538676118 	101299.1349795991
-0.8295795795795798 	299.9785631163711 	0.9377302980097151 	101299.6597245881
-0.8270770770770772 	299.978537058107 	0.9378336940682177 	101299.6288469301
-0.8245745745745746 	299.9785119728759 	0.9379979010316783 	101299.5995525491
-0.8220720720720721 	299.9791127574145 	0.9398772398864897 	101300.3100591615
-0.8195695695695699 	299.9807067589599 	0.9444709537919982 	101302.1935725743
-0.817067067067067 	299.983234512999 	0.9516622714955768 	101305.1809416124
-0.8145645645645651 	299.9863464163402 	0.960532711422999 	101308.8592833003
-0.8120620620620621 	299.9896476388856 	0.969988760588764 	101312.7615407781
-0.8095595595595597 	299.9928370757279 	0.9791525741011576 	101316.5317481676
-0.8070570570570572 	299.9957018585014 	0.9873974754294221 	101319.9184209702
-0.8045545545545546 	299.9980969968869 	0.9943320186731753 	101322.7499052313
-0.8020520520520523 	300.000021081264 	0.9999980878598669 	101325.0244922045
-0.7995495495495494 	300.0017303242174 	1.005132759951161 	101327.0451739727
-0.7970470470470474 	300.0037165344576 	1.011070539962727 	101329.3932636159
-0.7945445445445446 	300.0064644184748 	1.019086723166534 	101332.6418193784
-0.7920420420420423 	300.0101117277861 	1.029507697444031 	101336.9538871835
-0.7895395395395397 	300.0142616847197 	1.041234225693253 	101341.8604355421
-0.7870370370370371 	300.018120012681 	1.052115426258053 	101346.4224208619
-0.7845345345345348 	300.0208959650936 	1.060016822508764 	101349.7048273365
-0.7820320320320323 	300.0222187310972 	1.063929845708256 	101351.2689118805
-0.7795295295295296 	300.022309999111 	1.064430308035172 	101351.3764444047
-0.7770270270270272 	300.0218058103949 	1.063214413724228 	101350.7806523675
-0.7745245245245247 	300.0213614880424 	1.06204352474764 	101350.2554930159
-0.7720220220220222 	300.0212912071266 	1.061789862865303 	101350.1725449807
-0.7695195195195199 	300.0214647829319 	1.062136904814144 	101350.3777171365
-0.767017017017017 	300.0214676596045 	1.061983444460236 	101350.3805532931
-0.7645145145145147 	300.0208676136761 	1.060153089791275 	101349.6709331311
-0.7620120120120122 	300.0194154490234 	1.055945534409819 	101347.9545689998
-0.7595095095095097 	300.0171057950803 	1.049328805889313 	101345.2240487427
-0.7570070070070072 	300.0141417881791 	1.040872401263989 	101341.7196015767
-0.7545045045045048 	300.0108818955965 	1.031589939251052 	101337.8654092135
-0.7520020020020022 	300.0077653134597 	1.022703403089893 	101334.180687531
-0.7494994994994997 	300.0051719097173 	1.01524014407263 	101331.1145617455
-0.7469969969969972 	300.0032272137776 	1.009509626321497 	101328.8152897395
-0.7444944944944945 	300.0016646323137 	1.004763183014131 	101326.9676835128
-0.7419919919919924 	299.9998951826928 	0.9994092305863855 	101324.8754999688
-0.7394894894894897 	299.9973162309835 	0.991849365003292 	101321.8265408206
-0.7369869869869872 	299.993701599365 	0.9815083775989045 	101317.553430073
-0.7344844844844846 	299.9894086351721 	0.9693654105508717 	101312.478646041
-0.7319819819819822 	299.9852256680894 	0.9575421170209572 	101307.5340513758
-0.7294794794794797 	299.9819403717893 	0.9481628036581218 	101303.6507522266
-0.7269769769769773 	299.9799205475635 	0.9422424779161619 	101301.2634206009
-0.7244744744744747 	299.9789815154991 	0.9393276297055068 	101300.1536284951
-0.721971971971972 	299.9786026485856 	0.9380514809106231 	101299.7059542132
-0.7194694694694695 	299.9783011958418 	0.9371099087551313 	101299.3497630014
-0.7169669669669674 	299.9778849543475 	0.9359461150826676 	101298.8579813168
-0.7144644644644647 	299.9774578844268 	0.9348026753080227 	101298.3534632111
-0.711961961961962 	299.977268395607 	0.9343475224255884 	101298.129965932
-0.7094594594594597 	299.9775687535553 	0.9352928234695161 	101298.4856690761
-0.7069569569569573 	299.9785593866521 	0.9382089128131303 	101299.6562576534
-0.7044544544544545 	299.9803619266493 	0.9434290431261333 	101301.786424468
-0.7019519519519523 	299.9829630921947 	0.9508828479399385 	101304.8608202482
-0.6994494494494495 	299.9861325285412 	0.959898618982017 	101308.6070320462
-0.6969469469469471 	299.9894183663665 	0.9692244979385909 	101312.4910390809
-0.6944444444444446 	299.9923029778342 	0.9774611771630423 	101315.9008491451
-0.6919419419419421 	299.994470571246 	0.9837767564125932 	101318.4631167686
-0.6894394394394396 	299.9960244139367 	0.9884701792010195 	101320.2999160291
-0.6869369369369374 	299.9974814370026 	0.9929392695330992 	101322.0222547649
-0.6844344344344344 	299.9995042125132 	0.9989595933816432 	101324.4134647744
-0.6819319319319321 	300.0025165587986 	1.007658253527973 	101327.9745971465
-0.6794294294294296 	300.0064379776059 	1.018810468900677 	101332.6105392676
-0.6769269269269272 	300.01070880227 	1.030906964862541 	101337.6599097637
-0.6744244244244245 	300.0145874871289 	1.041936452376276 	101342.2458060046
-0.6719219219219222 	300.0175169370165 	1.050366071086027 	101345.7095595273
-0.6694194194194195 	300.0193422820485 	1.055737675129568 	101347.8679481044
-0.6669169169169172 	300.0202871351287 	1.058624726501483 	101348.985146337
-0.6644144144144146 	300.0207566826048 	1.060120178597627 	101349.5404033326
-0.661911911911912 	300.0211197839731 	1.061244228177875 	101349.9696625564
-0.6594094094094097 	300.021575921993 	1.062562429711775 	101350.5089775501
-0.656906906906907 	300.0221173336828 	1.064057548067554 	101351.1492214879
-0.6544044044044046 	300.0225430795318 	1.065164416031814 	101351.6525193238
-0.6519019019019021 	300.0225109480932 	1.064931693911861 	101351.6139543481
-0.6493993993993996 	300.0216522557206 	1.062365042409103 	101350.5986768536
-0.6468968968968971 	300.019764325122 	1.05694571293107 	101348.3670304482
-0.6443943943943946 	300.0169885005339 	1.049090746688496 	101345.0853022583
-0.6418918918918921 	300.0138293624103 	1.040183079673798 	101341.350077512
-0.6393893893893897 	300.0109414650309 	1.031984452401705 	101337.9355932061
-0.6368868868868871 	300.0087693457373 	1.025676708099815 	101335.3675278854
-0.6343843843843846 	300.0072683690697 	1.02113321313781 	101333.5929311177
-0.6318818818818821 	300.0059162131688 	1.016960428031249 	101331.9943386871
-0.6293793793793795 	300.0040312932749 	1.011338884952708 	101329.7659955394
-0.6268768768768773 	300.0011852457103 	1.003116428679529 	101326.4014669782
-0.6243743743743745 	299.9974397355897 	0.9924439077531544 	101321.9733461701
-0.6218718718718721 	299.9932746972859 	0.9806035921136894 	101317.0495466923
-0.6193693693693696 	299.989300197867 	0.9692561482480714 	101312.3515887547
-0.6168668668668671 	299.9859691544586 	0.9596660175797594 	101308.4140575644
-0.6143643643643645 	299.9834484265058 	0.9523339929393722 	101305.4343995689
-0.6118618618618621 	299.9816609558285 	0.9470799003329817 	101303.3214771885
-0.6093593593593596 	299.9804002940828 	0.9433417203466323 	101301.8312690511
-0.6068568568568571 	299.979429966678 	0.940457862688207 	101300.6844346204
-0.6043543543543546 	299.9785506895893 	0.9378736611220962 	101299.6450888191
-0.6018518518518521 	299.9776650387414 	0.9353345906211253 	101298.5982067128
-0.5993493493493496 	299.9768497748837 	0.9330752356218327 	101297.6346673656
-0.5968468468468471 	299.9763832585566 	0.9318718317036432 	101297.0832966061
-0.5943443443443446 	299.9766594252896 	0.9327927174141639 	101297.4104032406
-0.591841841841842 	299.9779885442479 	0.9366452032030554 	101298.9808673959
-0.5893393393393397 	299.9803664611758 	0.9433877728458064 	101301.7909490509
-0.5868368368368371 	299.9833959582234 	0.9519273044306961 	101305.3717597936
-0.5843343343343346 	299.9864398028689 	0.9605371493165159 	101308.9697070444
-0.5818318318318321 	299.9889405286601 	0.9677143545726541 	101311.9258592771
-0.5793293293293297 	299.9907184342362 	0.9729711483094184 	101314.0275706383
-0.5768268268268271 	299.9920582264602 	0.9770655686246486 	101315.6113005407
-0.5743243243243245 	299.9935308670264 	0.981531307884865 	101317.3521511167
-0.5718218218218221 	299.9956712168243 	0.9878170643998976 	101319.882244611
-0.5693193193193196 	299.9987078277288 	0.9965551511724793 	101323.4719037333
-0.5668168168168171 	300.0024818756418 	1.007327730884919 	101327.9335471289
-0.5643143143143147 	300.0065587232163 	1.018950856913909 	101332.7533616188
-0.5618118118118121 	300.0104290995799 	1.030012845667563 	101337.3292641551
-0.5593093093093094 	300.0136833061958 	1.039362086533091 	101341.1768030074
-0.5568068068068072 	300.0161103800428 	1.046401192877667 	101344.0465808534
-0.5543043043043046 	300.0177356119261 	1.051198539636266 	101345.9682636031
-0.551801801801802 	300.0188046060642 	1.054433461831001 	101347.2321423564
-0.5492992992992995 	300.0196919751986 	1.057126090131712 	101348.2814426469
-0.5467967967967969 	300.0207232992844 	1.060141695412183 	101349.5008628528
-0.5442942942942947 	300.0219693019662 	1.063645975653462 	101350.9740392694
-0.5417917917917919 	300.0231455115587 	1.066855888466247 	101352.3649185153
-0.5392892892892895 	300.023725076782 	1.068353833780588 	101353.0499506521
-0.536786786786787 	300.0232333966356 	1.066879935328415 	101352.4676081285
-0.5342842842842846 	300.0215531602448 	1.062146906663154 	101350.4818777592
-0.531781781781782 	300.0190452274958 	1.05512299758949 	101347.5170705201
-0.5292792792792794 	300.0163549347508 	1.047542812950705 	101344.336103991
-0.526776776776777 	300.0140558220871 	1.040958944314474 	101341.6176961347
-0.5242742742742745 	300.0123556657492 	1.035950575891398 	101339.6076291959
-0.521771771771772 	300.0110340074122 	1.031945258681172 	101338.0449419827
-0.5192692692692695 	300.0096185579319 	1.027678068878546 	101336.3714545035
-0.516766766766767 	300.0076604301363 	1.021923854840628 	101334.0565548329
-0.5142642642642645 	300.0049380803857 	1.0140591037292 	101330.8380513882
-0.511761761761762 	300.0015107985846 	1.004230394605922 	101326.786269329
-0.5092592592592596 	299.9976521912742 	0.9931889828360496 	101322.2247213473
-0.506756756756757 	299.9937380421784 	0.9819859150695215 	101317.5975726522
-0.5042542542542544 	299.9901420865005 	0.9716721280803023 	101313.3467152889
-0.5017517517517521 	299.9871461064629 	0.9630330473976036 	101309.8051857848
-0.4992492492492494 	299.9848562487113 	0.9563564812050418 	101307.0984011897
-0.496746746746747 	299.9831537350528 	0.9513123266645884 	101305.0858967601
-0.4942442442442445 	299.9817368498449 	0.9470850659555682 	101303.4111102433
-0.4917417417417421 	299.9802792001709 	0.9428083942156518 	101301.6881906127
-0.4892392392392395 	299.9786408054503 	0.9381280106907113 	101299.7516079646
-0.486736736736737 	299.9770025900837 	0.9335507952679452 	101297.8152463391
-0.4842342342342345 	299.9758172227221 	0.9303032844910027 	101296.4141475808
-0.481731731731732 	299.9755793097328 	0.9297143375091721 	101296.1335509173
-0.4792292292292296 	299.9765449808361 	0.9324582526478722 	101297.2750269617
-0.4767267267267268 	299.9785613517671 	0.9381121247879273 	101299.6574536462
-0.4742242242242246 	299.9811254925494 	0.9453204019447533 	101302.6881215232
-0.471721721721722 	299.9836450068912 	0.9524705953502767 	101305.6662004101
-0.4692192192192195 	299.9857168397518 	0.9584512394574879 	101308.1152573949
-0.4667167167167169 	299.987279965692 	0.9630733739024181 	101309.9630671796
-0.4642142142142145 	299.9885852121271 	0.9670047939004147 	101311.5058569485
-0.461711711711712 	299.9900390186901 	0.9713583120510154 	101313.2244107454
-0.4592092092092094 	299.9920259698399 	0.9771986501047392 	101315.573124778
-0.456706706706707 	299.9947725900972 	0.9851529076194342 	101318.8198255479
-0.4542042042042045 	299.9982673513866 	0.9951794741957489 	101322.9512127742
-0.451701701701702 	300.0022403612494 	1.006517552196085 	101327.6480147073
-0.4491991991991995 	300.0062252559455 	1.017876024301511 	101332.3591290674
-0.4466966966966969 	300.0097222665316 	1.027887940925336 	101336.4936638416
-0.4441941941941945 	300.0124154511418 	1.035698815539459 	101339.6778491068
-0.441691691691692 	300.0143325339906 	1.041384468613767 	101341.9445593259
-0.4391891891891895 	300.0158282399047 	1.045890246709853 	101343.7129791663
-0.436686686686687 	300.0173640697194 	1.050440004725816 	101345.5288525022
-0.4341841841841846 	300.0192072109035 	1.055735728488935 	101347.7081440007
-0.431681681681682 	300.0212397425159 	1.061453133811245 	101350.1113468642
-0.4291791791791794 	300.0230058703444 	1.066367964960557 	101352.1997569097
-0.426676676676677 	300.0239685248688 	1.069035858571339 	101353.3379836818
-0.4241741741741744 	300.0238095657336 	1.068594058612248 	101353.1490420429
-0.421671671671672 	300.0225894190124 	1.065207597147867 	101351.7071510025
-0.4191691691691694 	300.0207050509008 	1.059936823186809 	101349.4794721829
-0.4166666666666669 	300.0186626221787 	1.054159940307424 	101347.0645665312
-0.4141641641641645 	300.0168427041531 	1.048933587505015 	101344.9128447695
-0.411661661661662 	300.0153723227173 	1.04462696193968 	101343.1742110238
-0.4091591591591594 	300.0141266620516 	1.040912917408507 	101341.701419247
-0.406656656656657 	300.0128197842006 	1.037005746844017 	101340.1563943805
-0.4041541541541545 	300.0111218697948 	1.031989709303244 	101338.1488753771
-0.401651651651652 	300.0087714178885 	1.0251446635184 	101335.3700076633
-0.3991491491491494 	300.0056762355557 	1.016228724213428 	101331.7108619599
-0.396646646646647 	300.0019792680631 	1.005651595280998 	101327.3401388412
-0.3941441441441444 	299.9980444263692 	0.994423259763292 	101322.6883661427
-0.3916416416416419 	299.994334160592 	0.9838097692921829 	101318.3023369638
-0.3891391391391395 	299.9912109703562 	0.9747948401130605 	101314.6101876481
-0.3866366366366368 	299.9887622978156 	0.9676178059991044 	101311.7155868621
-0.3841341341341344 	299.9867650296275 	0.9616867051285414 	101309.3547434845
-0.381631631631632 	299.984832498168 	0.9559763434545606 	101307.0702867458
-0.3791291291291294 	299.9826684809297 	0.9497065600605143 	101304.5124144919
-0.3766266266266269 	299.9802735948178 	0.9428894203109952 	101301.6816672151
-0.3741241241241244 	299.9779729743806 	0.9364065504567284 	101298.9622686661
-0.371621621621622 	299.9762551282299 	0.9315827222893187 	101296.9318109991
-0.3691191191191194 	299.9755280115134 	0.9295305544965503 	101296.0724822625
-0.366616616616617 	299.9759318197864 	0.9306412194909928 	101296.550474196
-0.3641141141141143 	299.977297574679 	0.9344507893068174 	101298.1638865814
-0.3616116116116119 	299.9792283628088 	0.9398770634223818 	101300.4457946033
-0.3591091091091095 	299.9812698759519 	0.9456599479821243 	101302.8588301237
-0.356606606606607 	299.9830642382973 	0.95080303680696 	101304.9798036947
-0.3541041041041044 	299.9844623380314 	0.9548943362735857 	101306.6324867711
-0.3516016016016019 	299.9855768333044 	0.9582491905779889 	101307.9498582495
-0.3490990990990994 	299.986750167125 	0.9618116633829521 	101309.3367181381
-0.346596596596597 	299.988421727448 	0.9667790878183581 	101311.3126340966
-0.3440940940940944 	299.9909223496508 	0.9740373439020701 	101314.2684463725
-0.3415915915915919 	299.994283206998 	0.9836541841535804 	101318.2412853157
-0.3390890890890895 	299.9981788435121 	0.9947376623241208 	101322.8466121189
-0.3365865865865869 	300.0020649729412 	1.005811592771428 	101327.4407101682
-0.3340840840840844 	300.0054481852433 	1.015539370971783 	101331.4405452902
-0.3315815815815819 	300.0081318791798 	1.023378205018757 	101334.6134761819
-0.3290790790790794 	300.0102869451489 	1.029768032759194 	101337.1613090136
-0.3265765765765769 	300.0123049905417 	1.035743707581529 	101339.5473229112
-0.3240740740740744 	300.0145317063045 	1.042223762517553 	101342.1800023777
-0.3215715715715718 	300.0170461124163 	1.049419005944972 	101345.1528154418
-0.3190690690690695 	300.019611027587 	1.056691313432348 	101348.1856142517
-0.3165665665665668 	300.0218018700825 	1.062887678232284 	101350.776094311
-0.3140640640640644 	300.0232148480188 	1.066901841865598 	101352.446850246
-0.311561561561562 	300.0236388542584 	1.068144696741116 	101352.9480055439
-0.3090590590590593 	300.0231184660861 	1.066729905202098 	101352.3322262275
-0.3065565565565568 	300.0219116006475 	1.063371477461345 	101350.9059511975
-0.3040540540540545 	300.0203906879767 	1.059095209140473 	101349.1078804413
-0.3015515515515518 	300.0189077143338 	1.054879049889484 	101347.3543561379
-0.2990490490490494 	300.0176792924838 	1.05132037430731 	101345.9018413257
-0.2965465465465469 	300.0167036584923 	1.048407993082614 	101344.7484022172
-0.2940440440440444 	300.0157462208523 	1.045492489683525 	101343.6162940712
-0.2915415415415418 	300.0144250706596 	1.041533098764821 	101342.0543053866
-0.2890390390390395 	300.0123879630383 	1.035581122384827 	101339.6459494575
-0.2865365365365368 	300.0095040463302 	1.027294263411645 	101336.2362226773
-0.2840340340340343 	300.0059605878892 	1.017190086247633 	101332.0470319954
-0.2815315315315318 	300.0021925581436 	1.006447889480818 	101327.5923179486
-0.2790290290290295 	299.9986679410427 	0.9963375522710848 	101323.4254276162
-0.2765265265265269 	299.9956581804927 	0.9876047560234851 	101319.8674664427
-0.2740240240240244 	299.9931287868184 	0.9801742562281636 	101316.8772803474