/*--------------------------------*- C++ -*----------------------------------*\
  =========                 |
  \\      /  F ield         | OpenFOAM: The Open Source CFD Toolbox
   \\    /   O peration     | Website:  https://openfoam.org
    \\  /    A nd           | Version:  7
     \\/     M anipulation  |
\*---------------------------------------------------------------------------*/
FoamFile
{
    version     2.0;
    format      ascii;
    class       volScalarField;
    location    "0.0013";
    object      T;
}
// * * * * * * * * * * * * * * * * * * * * * * * * * * * * * * * * * * * * * //

dimensions      [0 0 0 1 0 0 0];

internalField   nonuniform List<scalar> 
5000
(
292.99822
292.99821
292.9982
292.99819
292.99817
292.99815
292.99813
292.9981
292.99807
292.99803
292.99799
292.99795
292.9979
292.99785
292.99779
292.99773
292.99767
292.9976
292.99752
292.99745
292.99736
292.99727
292.99718
292.99708
292.99698
292.99687
292.99676
292.99664
292.99651
292.99638
292.99624
292.99609
292.99594
292.99578
292.99562
292.99545
292.99527
292.99508
292.99488
292.99468
292.99447
292.99425
292.99402
292.99378
292.99353
292.99328
292.99301
292.99273
292.99244
292.99214
292.99183
292.99151
292.99117
292.99083
292.99047
292.99009
292.98971
292.98931
292.98889
292.98846
292.98802
292.98756
292.98708
292.98659
292.98608
292.98555
292.98501
292.98444
292.98386
292.98326
292.98264
292.98199
292.98133
292.98064
292.97993
292.9792
292.97844
292.97766
292.97686
292.97603
292.97517
292.97429
292.97338
292.97244
292.97147
292.97047
292.96944
292.96838
292.96729
292.96617
292.96501
292.96382
292.96259
292.96133
292.96003
292.95869
292.95731
292.9559
292.95444
292.95294
292.95141
292.94982
292.9482
292.94653
292.94481
292.94305
292.94124
292.93938
292.93747
292.93551
292.93349
292.93143
292.92931
292.92714
292.92491
292.92262
292.92028
292.91787
292.91541
292.91289
292.9103
292.90765
292.90493
292.90215
292.89931
292.89639
292.89341
292.89035
292.88723
292.88403
292.88076
292.87741
292.87399
292.87049
292.86691
292.86325
292.85951
292.85569
292.85179
292.8478
292.84373
292.83957
292.83532
292.83098
292.82656
292.82204
292.81743
292.81273
292.80793
292.80304
292.79805
292.79296
292.78777
292.78249
292.7771
292.77161
292.76601
292.76031
292.7545
292.74859
292.74257
292.73644
292.7302
292.72385
292.71739
292.71081
292.70412
292.69732
292.6904
292.68336
292.6762
292.66893
292.66153
292.65402
292.64638
292.63862
292.63074
292.62273
292.6146
292.60634
292.59795
292.58944
292.5808
292.57203
292.56313
292.5541
292.54494
292.53565
292.52623
292.51667
292.50698
292.49716
292.4872
292.4771
292.46687
292.45651
292.44601
292.43537
292.42459
292.41368
292.40262
292.39143
292.3801
292.36863
292.35702
292.34528
292.33339
292.32136
292.30919
292.29688
292.28443
292.27183
292.2591
292.24623
292.23321
292.22005
292.20675
292.19331
292.17973
292.16601
292.15215
292.13814
292.12399
292.10971
292.09528
292.08071
292.066
292.05115
292.03616
292.02103
292.00577
291.99036
291.97481
291.95913
291.9433
291.92734
291.91124
291.89501
291.87863
291.86213
291.84548
291.8287
291.81179
291.79474
291.77756
291.76024
291.74279
291.72521
291.7075
291.68966
291.67169
291.65359
291.63536
291.617
291.59851
291.5799
291.56116
291.5423
291.52331
291.5042
291.48496
291.4656
291.44613
291.42653
291.40681
291.38697
291.36702
291.34694
291.32675
291.30645
291.28603
291.2655
291.24485
291.2241
291.20323
291.18225
291.16117
291.13997
291.11867
291.09727
291.07576
291.05414
291.03243
291.01061
290.98869
290.96667
290.94455
290.92233
290.90002
290.87761
290.85511
290.83252
290.80983
290.78705
290.76418
290.74123
290.71818
290.69505
290.67183
290.64853
290.62515
290.60168
290.57814
290.55451
290.5308
290.50702
290.48316
290.45923
290.43522
290.41114
290.38699
290.36277
290.33848
290.31412
290.2897
290.26521
290.24066
290.21604
290.19136
290.16662
290.14183
290.11697
290.09206
290.06709
290.04207
290.01699
289.99186
289.96669
289.94146
289.91618
289.89086
289.8655
289.84009
289.81463
289.78914
289.7636
289.73803
289.71242
289.68677
289.66108
289.63537
289.60962
289.58383
289.55802
289.53218
289.50632
289.48042
289.45451
289.42857
289.4026
289.37662
289.35062
289.3246
289.29856
289.27251
289.24644
289.22036
289.19427
289.16817
289.14206
289.11595
289.08982
289.0637
289.03757
289.01144
288.9853
288.95917
288.93305
288.90692
288.8808
288.85469
288.82858
288.80249
288.77641
288.75033
288.72427
288.69823
288.6722
288.64619
288.6202
288.59423
288.56829
288.54236
288.51646
288.49059
288.46474
288.43893
288.41314
288.38739
288.36167
288.33599
288.31034
288.28473
288.25916
288.23363
288.20815
288.1827
288.1573
288.13195
288.10665
288.0814
288.0562
288.03105
288.00595
287.98092
287.95593
287.93101
287.90615
287.88135
287.85661
287.83194
287.80733
287.78279
287.75832
287.73392
287.7096
287.68534
287.66117
287.63707
287.61304
287.5891
287.56524
287.54146
287.51777
287.49416
287.47064
287.44721
287.42386
287.40061
287.37746
287.3544
287.33143
287.30856
287.28579
287.26313
287.24056
287.2181
287.19574
287.17349
287.15135
287.12932
287.1074
287.08559
287.0639
287.04232
287.02085
286.99951
286.97828
286.95718
286.9362
286.91534
286.89461
286.874
286.85352
286.83317
286.81295
286.79286
286.7729
286.75308
286.73339
286.71384
286.69443
286.67516
286.65602
286.63703
286.61818
286.59948
286.58092
286.5625
286.54423
286.52611
286.50814
286.49032
286.47265
286.45513
286.43776
286.42055
286.40349
286.38659
286.36984
286.35325
286.33682
286.32055
286.30443
286.28848
286.27269
286.25705
286.24158
286.22628
286.21113
286.19615
286.18133
286.16668
286.15219
286.13786
286.12371
286.10971
286.09589
286.08222
286.06873
286.0554
286.04224
286.02925
286.01642
286.00376
285.99126
285.97893
285.96677
285.95478
285.94295
285.93128
285.91979
285.90845
285.89729
285.88628
285.87545
285.86477
285.85426
285.84391
285.83372
285.8237
285.81383
285.80413
285.79458
285.7852
285.77597
285.7669
285.75798
285.74922
285.74062
285.73216
285.72386
285.71571
285.70771
285.69987
285.69216
285.68461
285.6772
285.66993
285.66281
285.65583
285.64899
285.64229
285.63573
285.6293
285.62301
285.61685
285.61082
285.60493
285.59916
285.59352
285.58801
285.58262
285.57735
285.57221
285.56718
285.56227
285.55748
285.55281
285.54825
285.54379
285.53945
285.53522
285.53109
285.52707
285.52315
285.51933
285.51562
285.512
285.50847
285.50504
285.50171
285.49846
285.49531
285.49224
285.48926
285.48636
285.48354
285.48081
285.47816
285.47558
285.47308
285.47066
285.46831
285.46602
285.46381
285.46167
285.4596
285.45758
285.45564
285.45375
285.45193
285.45016
285.44846
285.4468
285.44521
285.44366
285.44217
285.44073
285.43934
285.438
285.4367
285.43545
285.43424
285.43308
285.43196
285.43088
285.42984
285.42883
285.42786
285.42693
285.42604
285.42518
285.42435
285.42355
285.42278
285.42204
285.42134
285.42066
285.42
285.41937
285.41877
285.41819
285.41764
285.41711
285.4166
285.41611
285.41564
285.4152
285.41477
285.41436
285.41396
285.41359
285.41323
285.41288
285.41255
285.41224
285.41194
285.41165
285.41138
285.41112
285.41087
285.41063
285.41041
285.41019
285.40998
285.40979
285.4096
285.40942
285.40925
285.40909
285.40894
285.40879
285.40866
285.40852
285.4084
285.40828
285.40817
285.40806
285.40796
285.40787
285.40777
285.40769
285.40761
285.40753
285.40746
285.40739
285.40732
285.40726
285.4072
285.40715
285.40709
285.40705
285.407
285.40696
285.40692
285.40688
285.40684
285.40681
285.40677
285.40674
285.40672
285.40669
285.40666
285.40664
285.40662
285.4066
285.40658
285.40656
285.40654
285.40653
285.40651
285.4065
285.40649
285.40647
285.40646
285.40645
285.40644
285.40643
285.40642
285.40642
285.40641
285.4064
285.40639
285.40639
285.40638
285.40638
285.40637
285.40636
285.40636
285.40635
285.40635
285.40635
285.40634
285.40634
285.40633
285.40633
285.40633
285.40633
285.40632
285.40632
285.40632
285.40631
285.40631
285.40631
285.40631
285.4063
285.4063
285.4063
285.40629
285.40629
285.40629
285.40629
285.40628
285.40628
285.40627
285.40627
285.40626
285.40625
285.40625
285.40625
285.40624
285.40623
285.40623
285.40622
285.40622
285.40621
285.4062
285.4062
285.40619
285.40619
285.40618
285.40618
285.40617
285.40616
285.40616
285.40616
285.40615
285.40615
285.40614
285.40614
285.40613
285.40613
285.40613
285.40612
285.40612
285.40612
285.40612
285.40612
285.40612
285.40611
285.40611
285.40611
285.40611
285.40611
285.40611
285.40611
285.4061
285.4061
285.4061
285.4061
285.4061
285.40609
285.40609
285.40609
285.40608
285.40608
285.40608
285.40608
285.40607
285.40607
285.40607
285.40607
285.40606
285.40606
285.40606
285.40606
285.40605
285.40605
285.40605
285.40605
285.40604
285.40604
285.40604
285.40604
285.40604
285.40603
285.40603
285.40603
285.40603
285.40603
285.40602
285.40602
285.40602
285.40602
285.40602
285.40601
285.40601
285.40601
285.40601
285.40601
285.406
285.406
285.406
285.406
285.406
285.40599
285.40599
285.40599
285.40599
285.40599
285.40599
285.40599
285.40598
285.40598
285.40598
285.40598
285.40598
285.40598
285.40598
285.40598
285.40598
285.40597
285.40597
285.40597
285.40597
285.40597
285.40597
285.40596
285.40596
285.40596
285.40596
285.40596
285.40596
285.40596
285.40595
285.40595
285.40595
285.40595
285.40595
285.40595
285.40595
285.40595
285.40595
285.40595
285.40594
285.40594
285.40595
285.40595
285.40595
285.40594
285.40594
285.40594
285.40594
285.40594
285.40594
285.40594
285.40594
285.40594
285.40593
285.40593
285.40593
285.40593
285.40593
285.40592
285.40592
285.40593
285.40593
285.40593
285.40593
285.40593
285.40593
285.40593
285.40593
285.40593
285.40593
285.40593
285.40593
285.40593
285.40593
285.40593
285.40593
285.40593
285.40593
285.40593
285.40593
285.40593
285.40593
285.40593
285.40594
285.40594
285.40594
285.40594
285.40593
285.40593
285.40594
285.40594
285.40594
285.40594
285.40594
285.40594
285.40594
285.40594
285.40594
285.40594
285.40593
285.40593
285.40593
285.40593
285.40593
285.40593
285.40593
285.40593
285.40593
285.40593
285.40593
285.40593
285.40594
285.40594
285.40594
285.40594
285.40594
285.40594
285.40594
285.40594
285.40594
285.40594
285.40594
285.40595
285.40595
285.40595
285.40595
285.40595
285.40595
285.40595
285.40596
285.40596
285.40596
285.40596
285.40596
285.40596
285.40596
285.40596
285.40596
285.40597
285.40597
285.40597
285.40597
285.40597
285.40597
285.40597
285.40597
285.40597
285.40598
285.40598
285.40598
285.40598
285.40598
285.40598
285.40599
285.40599
285.40599
285.40599
285.40599
285.406
285.406
285.406
285.406
285.406
285.406
285.406
285.406
285.406
285.406
285.406
285.40601
285.40601
285.40601
285.40601
285.40602
285.40602
285.40602
285.40602
285.40602
285.40602
285.40602
285.40602
285.40602
285.40602
285.40603
285.40603
285.40603
285.40603
285.40603
285.40604
285.40604
285.40604
285.40604
285.40605
285.40605
285.40605
285.40606
285.40606
285.40606
285.40606
285.40606
285.40606
285.40607
285.40607
285.40607
285.40608
285.40608
285.40608
285.40608
285.40609
285.40609
285.40609
285.40609
285.4061
285.4061
285.4061
285.4061
285.4061
285.40611
285.40611
285.40611
285.40611
285.40611
285.40611
285.40612
285.40612
285.40612
285.40613
285.40613
285.40613
285.40613
285.40614
285.40614
285.40614
285.40614
285.40614
285.40615
285.40615
285.40615
285.40615
285.40615
285.40615
285.40615
285.40615
285.40616
285.40616
285.40616
285.40617
285.40617
285.40617
285.40617
285.40618
285.40618
285.40618
285.40618
285.40618
285.40618
285.40618
285.40618
285.40619
285.40619
285.40619
285.40619
285.40619
285.40619
285.4062
285.4062
285.4062
285.4062
285.4062
285.40621
285.40621
285.40621
285.40621
285.40621
285.40621
285.40621
285.40621
285.40621
285.40622
285.40622
285.40622
285.40622
285.40623
285.40623
285.40623
285.40623
285.40623
285.40623
285.40623
285.40623
285.40624
285.40624
285.40624
285.40624
285.40624
285.40625
285.40625
285.40625
285.40625
285.40625
285.40625
285.40626
285.40626
285.40626
285.40626
285.40626
285.40627
285.40627
285.40627
285.40627
285.40628
285.40628
285.40628
285.40628
285.40628
285.40628
285.40628
285.40628
285.40628
285.40629
285.40629
285.40629
285.40629
285.4063
285.4063
285.4063
285.4063
285.4063
285.40631
285.40631
285.40631
285.40631
285.40632
285.40632
285.40632
285.40632
285.40632
285.40633
285.40633
285.40633
285.40634
285.40634
285.40634
285.40635
285.40635
285.40635
285.40635
285.40635
285.40635
285.40636
285.40636
285.40636
285.40636
285.40636
285.40637
285.40637
285.40638
285.40638
285.40638
285.40638
285.40639
285.40639
285.40639
285.40639
285.40639
285.40639
285.4064
285.4064
285.4064
285.40641
285.40641
285.40641
285.40641
285.40641
285.40641
285.40642
285.40642
285.40642
285.40642
285.40642
285.40643
285.40643
285.40643
285.40643
285.40644
285.40644
285.40644
285.40644
285.40644
285.40644
285.40645
285.40645
285.40645
285.40645
285.40646
285.40646
285.40646
285.40646
285.40646
285.40646
285.40646
285.40647
285.40647
285.40647
285.40647
285.40647
285.40647
285.40648
285.40648
285.40648
285.40648
285.40649
285.40649
285.40649
285.40649
285.4065
285.4065
285.4065
285.4065
285.40651
285.40651
285.40651
285.40651
285.40651
285.40652
285.40652
285.40652
285.40652
285.40652
285.40652
285.40653
285.40653
285.40653
285.40654
285.40654
285.40654
285.40654
285.40654
285.40655
285.40655
285.40655
285.40655
285.40655
285.40656
285.40656
285.40656
285.40656
285.40657
285.40657
285.40657
285.40657
285.40657
285.40658
285.40658
285.40658
285.40658
285.40658
285.40659
285.40659
285.40659
285.40659
285.4066
285.4066
285.4066
285.4066
285.4066
285.40661
285.40661
285.40661
285.40661
285.40662
285.40662
285.40662
285.40662
285.40662
285.40662
285.40662
285.40663
285.40663
285.40663
285.40663
285.40664
285.40664
285.40664
285.40664
285.40664
285.40665
285.40665
285.40665
285.40665
285.40665
285.40666
285.40666
285.40666
285.40666
285.40667
285.40667
285.40667
285.40667
285.40667
285.40668
285.40668
285.40668
285.40668
285.40668
285.40669
285.40669
285.40669
285.40669
285.4067
285.4067
285.4067
285.4067
285.40671
285.40671
285.40671
285.40671
285.40671
285.40672
285.40672
285.40672
285.40672
285.40672
285.40673
285.40673
285.40673
285.40673
285.40673
285.40674
285.40674
285.40674
285.40675
285.40675
285.40675
285.40675
285.40676
285.40676
285.40676
285.40676
285.40676
285.40677
285.40677
285.40677
285.40677
285.40677
285.40678
285.40678
285.40678
285.40678
285.40678
285.40679
285.40679
285.40679
285.4068
285.4068
285.4068
285.4068
285.40681
285.40681
285.40681
285.40681
285.40682
285.40682
285.40682
285.40682
285.40683
285.40683
285.40683
285.40683
285.40683
285.40684
285.40684
285.40684
285.40684
285.40684
285.40685
285.40685
285.40685
285.40685
285.40685
285.40686
285.40686
285.40686
285.40686
285.40686
285.40687
285.40687
285.40687
285.40687
285.40688
285.40688
285.40688
285.40688
285.40688
285.40689
285.40689
285.40689
285.40689
285.40689
285.4069
285.4069
285.4069
285.4069
285.4069
285.40691
285.40691
285.40691
285.40691
285.40692
285.40692
285.40692
285.40692
285.40693
285.40693
285.40693
285.40693
285.40694
285.40694
285.40694
285.40694
285.40695
285.40695
285.40695
285.40695
285.40696
285.40696
285.40696
285.40696
285.40696
285.40697
285.40697
285.40697
285.40697
285.40698
285.40698
285.40698
285.40698
285.40699
285.40699
285.40699
285.407
285.407
285.407
285.407
285.40701
285.40701
285.40701
285.40701
285.40702
285.40702
285.40702
285.40702
285.40703
285.40703
285.40703
285.40703
285.40704
285.40704
285.40704
285.40704
285.40705
285.40705
285.40705
285.40706
285.40706
285.40706
285.40706
285.40706
285.40707
285.40707
285.40707
285.40707
285.40708
285.40708
285.40708
285.40708
285.40709
285.40709
285.40709
285.4071
285.4071
285.4071
285.40711
285.40711
285.40711
285.40712
285.40712
285.40712
285.40712
285.40712
285.40712
285.40713
285.40713
285.40713
285.40713
285.40713
285.40714
285.40714
285.40714
285.40715
285.40715
285.40715
285.40715
285.40716
285.40716
285.40716
285.40716
285.40716
285.40717
285.40717
285.40717
285.40717
285.40718
285.40718
285.40718
285.40718
285.40718
285.40719
285.40719
285.40719
285.4072
285.4072
285.4072
285.4072
285.4072
285.40721
285.40721
285.40721
285.40721
285.40722
285.40722
285.40722
285.40723
285.40723
285.40723
285.40723
285.40724
285.40724
285.40724
285.40724
285.40724
285.40725
285.40725
285.40725
285.40726
285.40726
285.40726
285.40727
285.40727
285.40727
285.40728
285.40728
285.40728
285.40728
285.40729
285.40729
285.40729
285.40729
285.4073
285.4073
285.4073
285.4073
285.40731
285.40731
285.40731
285.40732
285.40732
285.40732
285.40732
285.40733
285.40733
285.40733
285.40733
285.40734
285.40734
285.40734
285.40734
285.40735
285.40735
285.40735
285.40736
285.40736
285.40737
285.40737
285.40737
285.40738
285.40738
285.40738
285.40739
285.40739
285.40739
285.40739
285.40739
285.4074
285.4074
285.4074
285.40741
285.40741
285.40741
285.40742
285.40742
285.40742
285.40742
285.40743
285.40743
285.40743
285.40744
285.40744
285.40744
285.40745
285.40745
285.40745
285.40745
285.40746
285.40746
285.40746
285.40746
285.40747
285.40747
285.40747
285.40748
285.40748
285.40748
285.40749
285.40749
285.40749
285.4075
285.4075
285.4075
285.40751
285.40751
285.40751
285.40752
285.40752
285.40752
285.40753
285.40753
285.40753
285.40753
285.40754
285.40754
285.40754
285.40755
285.40755
285.40755
285.40756
285.40756
285.40756
285.40757
285.40757
285.40757
285.40758
285.40758
285.40758
285.40759
285.40759
285.40759
285.4076
285.4076
285.4076
285.40761
285.40761
285.40761
285.40761
285.40761
285.40762
285.40762
285.40762
285.40763
285.40763
285.40763
285.40764
285.40764
285.40764
285.40765
285.40765
285.40765
285.40766
285.40766
285.40766
285.40767
285.40767
285.40767
285.40768
285.40768
285.40768
285.40769
285.40769
285.40769
285.4077
285.4077
285.4077
285.4077
285.40771
285.40771
285.40771
285.40772
285.40772
285.40772
285.40773
285.40773
285.40773
285.40774
285.40774
285.40774
285.40775
285.40775
285.40775
285.40776
285.40776
285.40776
285.40777
285.40777
285.40777
285.40778
285.40778
285.40778
285.40779
285.40779
285.40779
285.4078
285.4078
285.4078
285.40781
285.40781
285.40781
285.40782
285.40782
285.40783
285.40783
285.40783
285.40784
285.40784
285.40784
285.40785
285.40785
285.40785
285.40786
285.40786
285.40786
285.40787
285.40787
285.40787
285.40788
285.40788
285.40789
285.40789
285.40789
285.4079
285.4079
285.4079
285.40791
285.40791
285.40791
285.40792
285.40792
285.40793
285.40793
285.40793
285.40794
285.40794
285.40794
285.40795
285.40795
285.40795
285.40796
285.40796
285.40796
285.40797
285.40797
285.40798
285.40798
285.40799
285.40799
285.40799
285.408
285.408
285.40801
285.40801
285.40801
285.40802
285.40802
285.40802
285.40803
285.40803
285.40804
285.40804
285.40804
285.40805
285.40805
285.40805
285.40806
285.40806
285.40807
285.40807
285.40807
285.40808
285.40808
285.40809
285.40809
285.40809
285.4081
285.4081
285.40811
285.40811
285.40811
285.40812
285.40812
285.40813
285.40813
285.40813
285.40814
285.40814
285.40815
285.40815
285.40815
285.40816
285.40816
285.40816
285.40817
285.40817
285.40818
285.40818
285.40819
285.40819
285.40819
285.4082
285.4082
285.40821
285.40821
285.40822
285.40822
285.40822
285.40823
285.40823
285.40824
285.40824
285.40825
285.40825
285.40826
285.40826
285.40826
285.40827
285.40827
285.40828
285.40828
285.40828
285.40829
285.40829
285.4083
285.4083
285.40831
285.40831
285.40832
285.40832
285.40832
285.40833
285.40833
285.40834
285.40834
285.40834
285.40835
285.40835
285.40836
285.40836
285.40836
285.40837
285.40838
285.40838
285.40839
285.40839
285.4084
285.4084
285.40841
285.40841
285.40842
285.40842
285.40842
285.40843
285.40843
285.40844
285.40844
285.40845
285.40845
285.40845
285.40846
285.40846
285.40847
285.40847
285.40848
285.40848
285.40849
285.40849
285.4085
285.4085
285.40851
285.40851
285.40852
285.40852
285.40853
285.40853
285.40854
285.40854
285.40855
285.40855
285.40856
285.40856
285.40857
285.40857
285.40858
285.40858
285.40859
285.40859
285.40859
285.4086
285.4086
285.40861
285.40861
285.40862
285.40862
285.40863
285.40863
285.40864
285.40865
285.40865
285.40866
285.40866
285.40867
285.40867
285.40868
285.40868
285.40869
285.40869
285.4087
285.4087
285.40871
285.40871
285.40872
285.40872
285.40873
285.40873
285.40874
285.40875
285.40875
285.40876
285.40876
285.40877
285.40877
285.40878
285.40878
285.40878
285.40879
285.4088
285.4088
285.40881
285.40881
285.40882
285.40882
285.40883
285.40883
285.40884
285.40884
285.40885
285.40885
285.40886
285.40887
285.40887
285.40888
285.40888
285.40889
285.40889
285.4089
285.40891
285.40891
285.40892
285.40892
285.40893
285.40894
285.40894
285.40895
285.40895
285.40896
285.40896
285.40897
285.40897
285.40898
285.40898
285.40899
285.40899
285.409
285.409
285.40901
285.40902
285.40902
285.40903
285.40904
285.40904
285.40905
285.40906
285.40906
285.40907
285.40907
285.40908
285.40909
285.40909
285.4091
285.4091
285.40911
285.40912
285.40912
285.40913
285.40913
285.40914
285.40915
285.40915
285.40916
285.40916
285.40917
285.40918
285.40918
285.40919
285.4092
285.4092
285.40921
285.40922
285.40922
285.40923
285.40923
285.40924
285.40925
285.40925
285.40926
285.40927
285.40927
285.40928
285.40929
285.40929
285.4093
285.40931
285.40931
285.40932
285.40933
285.40933
285.40934
285.40935
285.40935
285.40936
285.40937
285.40938
285.40938
285.40939
285.4094
285.40941
285.40941
285.40942
285.40943
285.40943
285.40944
285.40945
285.40945
285.40946
285.40947
285.40947
285.40948
285.40949
285.40949
285.4095
285.40951
285.40951
285.40952
285.40953
285.40953
285.40954
285.40955
285.40956
285.40956
285.40957
285.40958
285.40959
285.4096
285.40961
285.40962
285.40962
285.40963
285.40964
285.40965
285.40965
285.40966
285.40966
285.40967
285.40968
285.40969
285.40969
285.4097
285.40971
285.40972
285.40973
285.40973
285.40974
285.40975
285.40976
285.40977
285.40977
285.40978
285.40979
285.4098
285.40981
285.40981
285.40982
285.40983
285.40984
285.40985
285.40986
285.40987
285.40987
285.40988
285.40989
285.4099
285.40991
285.40991
285.40992
285.40993
285.40994
285.40995
285.40995
285.40996
285.40997
285.40998
285.40999
285.41
285.41001
285.41001
285.41002
285.41003
285.41004
285.41005
285.41006
285.41007
285.41008
285.41009
285.4101
285.4101
285.41011
285.41012
285.41013
285.41014
285.41015
285.41016
285.41017
285.41018
285.41019
285.4102
285.4102
285.41021
285.41022
285.41023
285.41024
285.41025
285.41026
285.41027
285.41028
285.41029
285.4103
285.41031
285.41032
285.41033
285.41034
285.41035
285.41036
285.41037
285.41038
285.41039
285.4104
285.41041
285.41042
285.41042
285.41044
285.41045
285.41046
285.41047
285.41048
285.41049
285.4105
285.41051
285.41052
285.41053
285.41054
285.41055
285.41056
285.41057
285.41059
285.4106
285.41061
285.41062
285.41063
285.41064
285.41065
285.41066
285.41067
285.41068
285.41069
285.4107
285.41071
285.41072
285.41073
285.41075
285.41076
285.41077
285.41078
285.41079
285.41081
285.41082
285.41083
285.41084
285.41085
285.41086
285.41088
285.41089
285.4109
285.41091
285.41092
285.41093
285.41094
285.41096
285.41097
285.41098
285.411
285.41101
285.41102
285.41103
285.41105
285.41106
285.41107
285.41108
285.41109
285.4111
285.41112
285.41113
285.41114
285.41116
285.41117
285.41118
285.4112
285.41121
285.41122
285.41124
285.41125
285.41126
285.41128
285.41129
285.4113
285.41132
285.41133
285.41135
285.41136
285.41137
285.41139
285.4114
285.41141
285.41143
285.41144
285.41145
285.41147
285.41148
285.4115
285.41151
285.41153
285.41154
285.41156
285.41157
285.41158
285.4116
285.41161
285.41163
285.41164
285.41166
285.41167
285.41169
285.4117
285.41172
285.41174
285.41175
285.41177
285.41179
285.4118
285.41182
285.41184
285.41185
285.41187
285.41188
285.4119
285.41191
285.41193
285.41194
285.41196
285.41197
285.41199
285.41201
285.41202
285.41204
285.41206
285.41208
285.41209
285.41211
285.41213
285.41215
285.41217
285.41219
285.4122
285.41222
285.41224
285.41225
285.41227
285.41229
285.41231
285.41232
285.41234
285.41236
285.41238
285.4124
285.41241
285.41243
285.41245
285.41247
285.41249
285.41251
285.41253
285.41255
285.41257
285.41259
285.41261
285.41263
285.41265
285.41267
285.41269
285.41271
285.41273
285.41275
285.41277
285.41279
285.41282
285.41284
285.41286
285.41288
285.4129
285.41292
285.41294
285.41297
285.41299
285.41301
285.41303
285.41305
285.41307
285.41309
285.41311
285.41314
285.41316
285.41318
285.41321
285.41323
285.41326
285.41328
285.4133
285.41333
285.41335
285.41338
285.4134
285.41342
285.41345
285.41347
285.41349
285.41352
285.41354
285.41357
285.4136
285.41362
285.41365
285.41368
285.41371
285.41374
285.41377
285.41379
285.41382
285.41385
285.41387
285.4139
285.41392
285.41395
285.41398
285.41401
285.41403
285.41406
285.41409
285.41412
285.41415
285.41418
285.41421
285.41424
285.41427
285.41431
285.41434
285.41437
285.41441
285.41444
285.41447
285.4145
285.41454
285.41457
285.4146
285.41463
285.41466
285.41469
285.41472
285.41475
285.41478
285.41482
285.41485
285.41488
285.41492
285.41495
285.41499
285.41503
285.41506
285.4151
285.41514
285.41518
285.41521
285.41525
285.41529
285.41533
285.41537
285.41541
285.41545
285.4155
285.41554
285.41558
285.41562
285.41566
285.41571
285.41575
285.41579
285.41584
285.41588
285.41593
285.41597
285.41601
285.41606
285.4161
285.41615
285.41619
285.41624
285.41629
285.41633
285.41638
285.41643
285.41648
285.41653
285.41658
285.41663
285.41669
285.41674
285.41679
285.41684
285.4169
285.41695
285.417
285.41706
285.41711
285.41717
285.41722
285.41728
285.41734
285.4174
285.41746
285.41752
285.41758
285.41764
285.4177
285.41777
285.41783
285.4179
285.41797
285.41803
285.4181
285.41817
285.41823
285.4183
285.41837
285.41844
285.41852
285.41859
285.41867
285.41874
285.41882
285.4189
285.41898
285.41906
285.41914
285.41922
285.41931
285.41939
285.41948
285.41956
285.41965
285.41974
285.41983
285.41992
285.42001
285.4201
285.42019
285.42029
285.42039
285.42049
285.42059
285.4207
285.4208
285.42091
285.42102
285.42113
285.42124
285.42136
285.42147
285.42158
285.42169
285.4218
285.42192
285.42203
285.42214
285.42226
285.42238
285.42249
285.42261
285.42273
285.42285
285.42297
285.42308
285.42319
285.4233
285.42341
285.42351
285.4236
285.42369
285.42377
285.42385
285.42392
285.42399
285.42404
285.42409
285.42413
285.42416
285.42418
285.42419
285.4242
285.4242
285.4242
285.4242
285.42418
285.42415
285.42411
285.42407
285.42404
285.42401
285.42398
285.42396
285.42395
285.42394
285.42394
285.42394
285.42395
285.42397
285.42404
285.42417
285.42432
285.42449
285.42469
285.4249
285.42512
285.42535
285.42559
285.42584
285.42611
285.42638
285.42666
285.42695
285.42725
285.42753
285.42781
285.42807
285.42832
285.42855
285.42875
285.42894
285.4291
285.42925
285.42938
285.42948
285.42956
285.42962
285.42966
285.42969
285.42971
285.42975
285.42983
285.43003
285.43048
285.43161
285.43441
285.44143
285.45906
285.50334
285.6144
285.89177
286.48995
287.28378
288.22452
289.27952
290.41045
291.57703
292.74039
293.86591
294.92516
295.89699
296.76777
297.5309
298.18589
298.73708
299.1923
299.5616
299.85609
300.08709
300.26539
300.40089
300.50228
300.57697
300.63113
300.66976
300.69682
300.71538
300.72782
300.73588
300.7409
300.74381
300.74532
300.74593
300.74604
300.74595
300.74548
300.74451
300.74357
300.74271
300.74193
300.74122
300.74058
300.73998
300.73944
300.73893
300.73846
300.73801
300.73759
300.73719
300.73682
300.73645
300.73611
300.73577
300.73544
300.73511
300.73478
300.73444
300.73409
300.73372
300.73334
300.73293
300.73251
300.73206
300.7316
300.73112
300.73063
300.73012
300.72961
300.72909
300.72857
300.72805
300.72754
300.72704
300.72655
300.72608
300.72562
300.72519
300.72477
300.72438
300.724
300.72364
300.72331
300.72299
300.72268
300.7224
300.72213
300.72187
300.72163
300.72139
300.72117
300.72096
300.72076
300.72056
300.72038
300.72019
300.72002
300.71985
300.71969
300.71953
300.71938
300.71923
300.71908
300.71893
300.71879
300.71865
300.71852
300.71839
300.71826
300.71813
300.71801
300.71789
300.71777
300.71766
300.71754
300.71743
300.71732
300.71721
300.7171
300.717
300.71689
300.71679
300.71668
300.71658
300.71648
300.71639
300.71629
300.7162
300.7161
300.71601
300.71593
300.71584
300.71575
300.71566
300.71558
300.7155
300.71541
300.71533
300.71525
300.71517
300.71509
300.71502
300.71494
300.71486
300.71479
300.71472
300.71464
300.71457
300.7145
300.71443
300.71436
300.71429
300.71423
300.71416
300.71409
300.71403
300.71396
300.7139
300.71384
300.71378
300.71372
300.71366
300.7136
300.71354
300.71348
300.71342
300.71336
300.71331
300.71325
300.71319
300.71314
300.71308
300.71303
300.71298
300.71292
300.71287
300.71282
300.71277
300.71272
300.71267
300.71262
300.71257
300.71252
300.71247
300.71242
300.71237
300.71233
300.71228
300.71223
300.71219
300.71214
300.7121
300.71205
300.71201
300.71196
300.71192
300.71188
300.71184
300.7118
300.71176
300.71171
300.71167
300.71163
300.71159
300.71155
300.71151
300.71147
300.71143
300.71139
300.71135
300.71132
300.71128
300.71124
300.7112
300.71117
300.71113
300.71109
300.71106
300.71102
300.71099
300.71095
300.71092
300.71089
300.71085
300.71082
300.71078
300.71075
300.71071
300.71068
300.71064
300.71061
300.71058
300.71055
300.71052
300.71049
300.71045
300.71042
300.71039
300.71036
300.71033
300.7103
300.71027
300.71024
300.71021
300.71018
300.71016
300.71013
300.7101
300.71007
300.71004
300.71001
300.70998
300.70995
300.70992
300.70989
300.70987
300.70984
300.70981
300.70978
300.70976
300.70973
300.70971
300.70968
300.70966
300.70963
300.70961
300.70958
300.70956
300.70953
300.70951
300.70948
300.70945
300.70943
300.70941
300.70938
300.70936
300.70933
300.70931
300.70928
300.70926
300.70924
300.70921
300.70919
300.70917
300.70915
300.70912
300.7091
300.70908
300.70906
300.70904
300.70901
300.70899
300.70897
300.70894
300.70892
300.7089
300.70888
300.70886
300.70884
300.70882
300.7088
300.70878
300.70876
300.70874
300.70872
300.7087
300.70868
300.70866
300.70864
300.70862
300.7086
300.70858
300.70856
300.70854
300.70852
300.7085
300.70848
300.70846
300.70844
300.70842
300.7084
300.70838
300.70836
300.70834
300.70832
300.70831
300.70829
300.70827