-1.25 	300 	0.0002544924849066758 	101325.0000000003
-1.247497497497497 	299.9905467021305 	0.01323255150499879 	101318.0957127655
-1.244994994994995 	299.9887321335326 	0.03427843233378578 	101311.7481090978
-1.242492492492492 	299.9832775186471 	0.04914670754666497 	101305.2031265952
-1.23998998998999 	299.9780729173683 	0.06332643904632132 	101299.0794416346
-1.237487487487487 	299.9732950536036 	0.0772182172831582 	101293.4327001584
-1.234984984984985 	299.9690339280635 	0.08951144068646684 	101288.3964350198
-1.232482482482482 	299.9653304135619 	0.1002495285777725 	101284.0192828287
-1.22997997997998 	299.9622565521046 	0.1091395961486392 	101280.3863004792
-1.227477477477477 	299.9599478169697 	0.1158527475733458 	101277.6577224483
-1.224974974974975 	299.9583662732825 	0.1203657527272337 	101275.7885085305
-1.222472472472472 	299.9575041392581 	0.1228208315673896 	101274.7696063259
-1.21996996996997 	299.9574258484407 	0.1230590408843842 	101274.6771591186
-1.217467467467467 	299.9581430078308 	0.1209938276418842 	101275.5246126018
-1.214964964964965 	299.9596562327039 	0.1166302840388603 	101277.3128560512
-1.212462462462462 	299.9619574967728 	0.1099259259824781 	101280.0324114408
-1.20995995995996 	299.9649944243833 	0.1011384511699435 	101283.6214769774
-1.207457457457457 	299.9686642501894 	0.0906170024740042 	101287.9587064033
-1.204954954954955 	299.9728444034392 	0.07854789522639018 	101292.8991797567
-1.202452452452452 	299.977501254953 	0.06506372345971281 	101298.4032436691
-1.19994994994995 	299.982589276778 	0.05032110278914505 	101304.4172670423
-1.197447447447447 	299.987989904831 	0.03466579453080372 	101310.8010099092
-1.194944944944945 	299.9935870574281 	0.01848690708944595 	101317.417399096
-1.192442442442442 	299.9992730218019 	0.008161271042886713 	101324.1391643611
-1.18993993993994 	300.0049753808047 	0.01444367624012154 	101330.880502504
-1.187437437437437 	300.0106026272375 	0.03066382664902242 	101337.5334683365
-1.184934934934935 	300.0160627567394 	0.04646538726365311 	101343.9890984405
-1.182432432432432 	300.0212682644897 	0.06152252761124807 	101350.1439930743
-1.17992992992993 	300.0260946568303 	0.07547994280714536 	101355.8509741901
-1.177427427427427 	300.0304232917339 	0.08799117479805843 	101360.9694465702
-1.174924924924925 	300.0341724686739 	0.09880763254450543 	101365.4029814869
-1.172422422422422 	300.0372738042468 	0.1077970715577729 	101369.0704728298
-1.16991991991992 	300.0396860637904 	0.1148007921644559 	101371.9232228104
-1.167417417417417 	300.0413989748342 	0.1197322842139211 	101373.9490591896
-1.164914914914915 	300.0423769989 	0.1224903407778705 	101375.1056696396
-1.162412412412412 	300.0425655166081 	0.1229906542230808 	101375.32865753
-1.15990990990991 	300.0419422801523 	0.121209592467253 	101374.5916326772
-1.157407407407407 	300.0405127051347 	0.1171046556644481 	101372.9011684415
-1.154904904904904 	300.0383072366918 	0.1107587788610224 	101370.293203417
-1.152402402402403 	300.0353919769589 	0.1023163738652577 	101366.845728696
-1.1498998998999 	300.0318371578919 	0.09202587357545094 	101362.6421464096
-1.147397397397397 	300.0277131334074 	0.0801492822777848 	101357.7655565417
-1.144894894894895 	300.0230961526689 	0.06679885628984161 	101352.3063100156
-1.142392392392392 	300.0180612046079 	0.05220767515993911 	101346.3531257552
-1.13988988988989 	300.0126985897323 	0.03666673108373121 	101340.0126228413
-1.137387387387387 	300.0071209898102 	0.02050877057155898 	101333.4183243915
-1.134884884884885 	300.0014272977511 	0.007780416808332691 	101326.6870085604
-1.132382382382382 	299.995704961811 	0.01242878737004566 	101319.9222166591
-1.12987987987988 	299.9900301189183 	0.02885554959904877 	101313.213922291
-1.127377377377377 	299.9844932911029 	0.04486130933576205 	101306.668934453
-1.124874874874875 	299.979224178789 	0.06007124248738785 	101300.4407625367
-1.122372372372372 	299.9743628130656 	0.07409697610777644 	101294.694707139
-1.11986986986987 	299.9699983862964 	0.08670810610212695 	101289.536300238
-1.117367367367367 	299.9662064232106 	0.09770959590945272 	101285.0546688571
-1.114864864864865 	299.963032743402 	0.1069374985456955 	101281.303755867
-1.112362362362362 	299.9605094414165 	0.114219626022273 	101278.3216339657
-1.10985985985986 	299.9586980142665 	0.1193771913425715 	101276.180718534
-1.107357357357357 	299.9576694157749 	0.1223428137156265 	101274.965072358
-1.104854854854855 	299.9574414308159 	0.1229887065275137 	101274.6956654282
-1.102352352352353 	299.9580316953208 	0.1212913734783952 	101275.3931336053
-1.09984984984985 	299.9594143633428 	0.1173160985408145 	101277.0270944913
-1.097347347347347 	299.9615392429817 	0.1111249706386241 	101279.538168808
-1.094844844844845 	299.9643607047253 	0.1029615688407706 	101282.8725952878
-1.092342342342342 	299.967834094304 	0.09298069699612052 	101286.977635241
-1.08983983983984 	299.971877507453 	0.08128760807901328 	101291.7564348735
-1.087337337337337 	299.976450567791 	0.0680791454387536 	101297.1614654301
-1.084834834834835 	299.9814622996214 	0.05356355307884075 	101303.0852101494
-1.082332332332332 	299.9867968900097 	0.03811470580556512 	101309.3908400313
-1.07982982982983 	299.9923353275486 	0.02211321963400797 	101315.9378054592
-1.077327327327327 	299.997962025922 	0.007234002697844285 	101322.5893646207
-1.074824824824825 	300.0036348137605 	0.01058050536601264 	101329.2957079672
-1.072322322322323 	300.0092834096808 	0.02686431655659852 	101335.9738283576
-1.06981981981982 	300.0147795001402 	0.04276865196784909 	101342.4718965417
-1.067317317317317 	300.0200052365563 	0.05789259035270599 	101348.6506989179
-1.064814814814815 	300.0248612382218 	0.07194513758019908 	101354.3925741591
-1.062312312312312 	300.0292685654079 	0.08467372717318641 	101359.6040529652
-1.05980980980981 	300.0331588050607 	0.09589273400519703 	101364.2043673444
-1.057307307307307 	300.0364565417343 	0.1054415526531307 	101368.1040520788
-1.054804804804805 	300.0390925778982 	0.1130679797796157 	101371.2214500687
-1.052302302302302 	300.0410130215424 	0.1185858202394882 	101373.4926792997
-1.0497997997998 	300.0421608237797 	0.1218503139992778 	101374.8500734807
-1.047297297297297 	300.0425063494432 	0.1228335201734312 	101375.2587672086
-1.044794794794795 	300.0420553807442 	0.1215616386406974 	101374.7254293155
-1.042292292292292 	300.0408218339473 	0.1180124990720386 	101373.2667915153
-1.03978978978979 	300.0388309031833 	0.1122641427759905 	101370.9125088867
-1.037287287287287 	300.0361220806398 	0.1043920291085653 	101367.7091564334
-1.034784784784785 	300.03273058546 	0.09458773745373367 	101363.6986925381
-1.032282282282283 	300.0287305432503 	0.08307802627287962 	101358.968655316
-1.02977977977978 	300.0242165761139 	0.07001346637618358 	101353.6311837124
-1.027277277277277 	300.0192708555796 	0.05568286092091095 	101347.7834077724
-1.024774774774775 	300.0139762209868 	0.04034228822824183 	101341.5232422928
-1.022272272272272 	300.0084338838255 	0.02429600992061311 	101334.970564911
-1.01976976976977 	300.00273473834 	0.007879744277819728 	101328.2327108402
-1.017267267267267 	299.996989435897 	0.009662655717418388 	101321.440703285
-1.014764764764765 	299.9912848999169 	0.02524429701216675 	101314.6972112978
-1.012262262262262 	299.9857246435329 	0.04131632285196831 	101308.1244913299
-1.00975975975976 	299.9804306902789 	0.05660884622240997 	101301.8668937445
-1.007257257257257 	299.9755106003853 	0.07080627583169952 	101296.0513849185
-1.004754754754755 	299.9710355964008 	0.08373146928623224 	101290.7622190004
-1.002252252252252 	299.9670913301006 	0.09516895304635406 	101286.1005393865
-0.9997497497497498 	299.9637423290094 	0.1048773373079333 	101282.1424282084
-0.9972472472472473 	299.961060165434 	0.1126172258344356 	101278.9725284873
-0.9947447447447449 	299.9591151346199 	0.1181903009157306 	101276.673765253
-0.9922422422422421 	299.9579507240385 	0.1215648791608667 	101275.2975441448
-0.9897397397397399 	299.9575634255768 	0.1226669110954936 	101274.8398549595
-0.9872372372372376 	299.9579723834495 	0.1214989749628926 	101275.3231279017
-0.9847347347347346 	299.959160546307 	0.1180747442693166 	101276.7271673031
-0.9822322322322323 	299.9611063777194 	0.1124066829129612 	101279.0266973043
-0.9797297297297296 	299.9637672370159 	0.1047125890463501 	101282.1712383455
-0.9772272272272275 	299.9670865717539 	0.09513453463703195 	101286.0941747256
-0.9747247247247248 	299.9709902216967 	0.08383267516938477 	101290.7078381563
-0.9722222222222224 	299.9754297163381 	0.0710161625418753 	101295.9548894638
-0.9697197197197196 	299.980321197905 	0.05685694852403186 	101301.7364962678
-0.9672172172172175 	299.9855705599412 	0.04167018640868371 	101307.9412810546
-0.9647147147147147 	299.9910610129603 	0.02580927917509033 	101314.4314339189
-0.9622122122122124 	299.996671874879 	0.009570706721538837 	101321.0642646024
-0.9597097097097099 	300.0023259045788 	0.00927573381608196 	101327.7483177937
-0.9572072072072073 	300.0079426940334 	0.02297249421692318 	101334.3887838189
-0.9547047047047047 	300.0134234288834 	0.03885408511261809 	101340.8686080353
-0.9522022022022023 	300.0186768422034 	0.05405533824927675 	101347.0800383682
-0.9496996996996998 	300.0236118159743 	0.06833444542011485 	101352.9152593757
-0.9471971971971973 	300.0281444248197 	0.08141078600181986 	101358.2748156629
-0.9446946946946947 	300.0321820423184 	0.0930518593037627 	101363.0493525253
-0.9421921921921923 	300.0356311202067 	0.1030424613372427 	101367.1279892632
-0.93968968968969 	300.0384224831648 	0.1111072947883769 	101370.4290293787
-0.9371871871871872 	300.040508356072 	0.1171002407911969 	101372.8958794849
-0.9346846846846848 	300.0418380317263 	0.1209076947331001 	101374.4683657047
-0.9321821821821823 	300.0423881563779 	0.1224900429789618 	101375.1190292453
-0.9296796796796799 	300.0421474179053 	0.1218244671112135 	101374.8343002453
-0.9271771771771771 	300.041115930286 	0.1188599740267611 	101373.6145865261
-0.9246746746746748 	300.0393165369301 	0.1136608018696755 	101371.4868173717
-0.9221721721721724 	300.0367889749783 	0.1063116085482982 	101368.497820207
-0.9196696696696698 	300.0335669030594 	0.09700683144448066 	101364.6876746164
-0.9171671671671672 	300.02972423015 	0.08592552123869403 	101360.1437146147
-0.9146646646646649 	300.0253325454707 	0.07319861977936097 	101354.9507614845
-0.9121621621621623 	300.0204667733238 	0.05910961428324856 	101349.1974763994
-0.9096596596596597 	300.0152180464385 	0.04391728883577407 	101342.9915407462
-0.9071571571571573 	300.0097015617824 	0.02796892223395502 	101336.4693372926
-0.9046546546546547 	300.0040192340275 	0.01162383454508658 	101329.7513286987
-0.9021521521521524 	299.9983015169485 	0.009026639626686813 	101322.9918325949
-0.8996496496496498 	299.9926111929055 	0.02140818829301633 	101316.2650716519
-0.8971471471471473 	299.9870290519475 	0.03754843461937512 	101309.6664275233
-0.894644644644645 	299.9816696066715 	0.05304854473232314 	101303.331327928
-0.892142142142142 	299.9766435117322 	0.06755584288526637 	101297.3904942192
-0.8896396396396397 	299.9720431135719 	0.08085112190353883 	101291.9530659475
-0.8871371371371374 	299.9679703609221 	0.09264576411104855 	101287.1394856461
-0.8846346346346349 	299.9644887366005 	0.1027126571344638 	101283.0246190392
-0.8821321321321324 	299.9616689988431 	0.1108400006500051 	101279.6920927766
-0.8796296296296297 	299.9595740443689 	0.1168526983707869 	101277.2161657075
-0.8771271271271271 	299.9582416919122 	0.1207116610771409 	101275.6414664011
-0.8746246246246248 	299.9576832157113 	0.1223001403966628 	101274.9814714626
-0.8721221221221224 	299.9579259610319 	0.1216327549372059 	101275.2683155948
-0.8696196196196196 	299.9589460655581 	0.1187042657550565 	101276.473741652
-0.8671171171171175 	299.9607224612456 	0.1135378733788882 	101278.573028061
-0.8646146146146148 	299.9632122641409 	0.106352994676341 	101281.515424857
-0.8621121121121121 	299.966363487197 	0.09723074742202983 	101285.2396588514
-0.8596096096096097 	299.9701211144749 	0.08634188449664049 	101289.6806781105
-0.857107107107107 	299.9744464175005 	0.07386053264671558 	101294.792718034
-0.8546046046046049 	299.9792439339915 	0.0599533210802311 	101300.4632178814
-0.8521021021021022 	299.9844171987255 	0.04499294579857618 	101306.5780121661
-0.8495995995995997 	299.9898445172906 	0.02931629786246898 	101312.9934825819
-0.8470970970970974 	299.9954013446102 	0.01325940675022234 	101319.5623429329
-0.8445945945945946 	300.0010043662705 	0.008176513590875826 	101326.1860042125
-0.8420920920920922 	300.0065893146879 	0.01905518547294199 	101332.7887734763
-0.8395895895895897 	300.0120765449248 	0.03495371738314075 	101339.2762007034
-0.8370870870870872 	300.0173733587379 	0.0502869425361816 	101345.5388966696
-0.8345845845845846 	300.0223805852588 	0.06477707777344263 	101351.459465321
-0.8320820820820823 	300.02700879829 	0.07812955312606751 	101356.9319812712
-0.8295795795795798 	300.0311604184494 	0.09011818833228713 	101361.8413143815
-0.8270770770770772 	300.0347473814758 	0.1005144161604348 	101366.0829530761
-0.8245745745745746 	300.037703847198 	0.1090408775419572 	101369.5792408999
-0.8220720720720721 	300.0399701981825 	0.1155420110771823 	101372.2595012549
-0.8195695695695699 	300.0414854418239 	0.1198784143394284 	101374.051390613
-0.817067067067067 	300.0422244682596 	0.1220094028363952 	101374.9254998011
-0.8145645645645651 	300.042175181996 	0.1219108140972513 	101374.8671535255
-0.8120620620620621 	300.0413442373001 	0.1195299777161693 	101373.8846166848
-0.8095595595595597 	300.0397525198822 	0.1149232315880963 	101372.0024405357
-0.8070570570570572 	300.0374206238309 	0.1081432930829861 	101369.2447781632
-0.8045545545545546 	300.0343714089441 	0.09935384967129941 	101365.6390707497
-0.8020520520520523 	300.0306774535759 	0.08869548631007936 	101361.2709076002
-0.7995495495495494 	300.0264064769665 	0.07631158515791819 	101356.2206862633
-0.7970470470470474 	300.0216403663252 	0.06250605440399212 	101350.5851869012
-0.7945445445445446 	300.0164747925611 	0.04753585713693618 	101344.4774511713
-0.7920420420420423 	300.0110155502101 	0.03176921625158425 	101338.0229188086
-0.7895395395395397 	300.0053669100265 	0.01552543467151765 	101331.3446273923
-0.7870370370370371 	299.9996596845261 	0.007531314814553705 	101324.5974984306
-0.7845345345345348 	299.9939460189647 	0.01753789220380238 	101317.843072704
-0.7820320320320323 	299.9883149281768 	0.03380846029003454 	101311.1864367618
-0.7795295295295296 	299.9828890366593 	0.0494950813171171 	101304.7727917969
-0.7770270270270272 	299.9777791006012 	0.064242537126905 	101298.7327602397
-0.7745245245245247 	299.9730834489223 	0.07783224822799391 	101293.1827346711
-0.7720220220220222 	299.9688982768987 	0.08997036456912906 	101288.2362490656
-0.7695195195195199 	299.9652834677904 	0.1004206701412644 	101283.9638928466
-0.767017017017017 	299.9623200405633 	0.1089565667579381 	101280.4615930372
-0.7645145145145147 	299.9600768252093 	0.1154039579280063 	101277.8104023708
-0.7620120120120122 	299.958581782797 	0.1197222759142321 	101276.043467323
-0.7595095095095097 	299.9578515455187 	0.1218038032143806 	101275.1804685029
-0.7570070070070072 	299.9579086646315 	0.1216672014814374 	101275.2478980681
-0.7545045045045048 	299.9587380442281 	0.1192653947727687 	101276.2280031832
-0.7520020020020022 	299.960336906187 	0.1146153805496807 	101278.117412923
-0.7494994994994997 	299.9626734301548 	0.1079121235624876 	101280.8786934418
-0.7469969969969972 	299.9656821577422 	0.09920048499475158 	101284.4344989095
-0.7444944944944945 	299.9693136961221 	0.08869644016707141 	101288.7264138706
-0.7419919919919924 	299.97351982937 	0.07656248378913148 	101293.6976504208
-0.7394894894894897 	299.9782017986938 	0.06296493159527811 	101299.2314524309
-0.7369869869869872 	299.9832709935318 	0.04830383493785945 	101305.2232222704
-0.7344844844844846 	299.9886195583255 	0.03285603883456932 	101311.545547592
-0.7319819819819822 	299.9941149531269 	0.0169694187783952 	101318.0416473305
-0.7294794794794797 	299.9996787715558 	0.006257329470638804 	101324.6189820727
-0.7269769769769773 	300.0052361786502 	0.01517071349745226 	101331.1890375329
-0.7244744744744747 	300.0107266443287 	0.0310616399099823 	101337.6802542931
-0.721971971971972 	300.0160611541635 	0.04649701193788168 	101343.9874698394
-0.7194694694694695 	300.0211371998328 	0.0611801824507725 	101349.9892693459
-0.7169669669669674 	300.025860399372 	0.07481704237301015 	101355.5741191963
-0.7144644644644647 	300.030129379371 	0.08715863707977396 	101360.6221177701
-0.711961961961962 	300.033852440303 	0.09791714126832987 	101365.0247010256
-0.7094594594594597 	300.0369590032735 	0.1068743667326271 	101368.6984803876
-0.7069569569569573 	300.0393865487764 	0.1138443818521203 	101371.5692725827
-0.7044544544544545 	300.0410816902442 	0.1187224696686453 	101373.5739639202
-0.7019519519519523 	300.0420205403705 	0.1214434026849802 	101374.684343903
-0.6994494494494495 	300.0421829369888 	0.121925995617671 	101374.8763824076
-0.6969469469469471 	300.0415628549512 	0.1201548667652456 	101374.1431921076
-0.6944444444444446 	300.0401687609501 	0.116112029346291 	101372.4946671501
-0.6919419419419421 	300.0380129739285 	0.1098662675873889 	101369.9453160251
-0.6894394394394396 	300.0351255441663 	0.1015491160221187 	101366.5308700941
-0.6869369369369374 	300.0315769936989 	0.09127474867339816 	101362.334657932
-0.6844344344344344 	300.0274318709428 	0.079260218751629 	101357.4332278436
-0.6819319319319321 	300.0227721475928 	0.06576312699860909 	101351.9234297648
-0.6794294294294296 	300.0176934924464 	0.05105699436297351 	101345.9184431556
-0.6769269269269272 	300.0122949442506 	0.03548275857877543 	101339.5355694838
-0.6744244244244245 	300.0066842219105 	0.01931590399027435 	101332.9020749602
-0.6719219219219222 	300.0009890506442 	0.005199062241629425 	101326.16913365
-0.6694194194194195 	299.9952672498799 	0.01372251651832164 	101319.4049788534
-0.6669169169169172 	299.9896075027188 	0.03006586987792094 	101312.7144197598
-0.6644144144144146 	299.9841299692216 	0.04590315634756566 	101306.2396369676
-0.661911911911912 	299.978941202722 	0.06090189366700154 	101300.1064035323
-0.6594094094094097 	299.9741505003412 	0.07477154969157981 	101294.4439928674
-0.656906906906907 	299.9698504787777 	0.08722934163362096 	101289.3616928888
-0.6544044044044046 	299.9661120646214 	0.09801824797746399 	101284.9432330046
-0.6519019019019021 	299.9630173898813 	0.1069350234684368 	101281.2857760528
-0.6493993993993996 	299.9606297438731 	0.1138324731539839 	101278.4639190474
-0.6468968968968971 	299.9589684611472 	0.1186070877855209 	101276.5005372827
-0.6443943943943946 	299.9580667236319 	0.1211915517928313 	101275.4348075261
-0.6418918918918921 	299.9579419697913 	0.1215676037337516 	101275.2873211374
-0.6393893893893897 	299.9585934623068 	0.1196757149333406 	101276.0571846286
-0.6368868868868871 	299.9600219392057 	0.1155453249277619 	101277.7452599204
-0.6343843843843846 	299.9621982853706 	0.1093048813387681 	101280.3172409736
-0.6318818818818821 	299.9650480909473 	0.1010250490885346 	101283.685187817
-0.6293793793793795 	299.9685405815504 	0.09094517124545984 	101287.8127467862
-0.6268768768768773 	299.9726059496645 	0.07921044049372772 	101292.6175532706
-0.6243743743743745 	299.9771564784031 	0.06599558072820767 	101297.9961556466
-0.6218718718718721 	299.9821065714542 	0.05166904551263696 	101303.8471456437
-0.6193693693693696 	299.9873675177542 	0.03647489358014151 	101310.06564535
-0.6168668668668671 	299.9928013121602 	0.02076373600652688 	101316.4888038092
-0.6143643643643645 	299.9983424935263 	0.004810873009644403 	101323.0392930111
-0.6118618618618621 	300.0038780083268 	0.0116729477959643 	101329.5834028437
-0.6093593593593596 	300.0093760290173 	0.0271613669824624 	101336.0834955523
-0.6068568568568571 	300.0147476408952 	0.04269989512276524 	101342.4344928134
-0.6043543543543546 	300.0198837267253 	0.05755382831813823 	101348.5072028773
-0.6018518518518521 	300.0246862852339 	0.07142755542206326 	101354.1858353952
-0.5993493493493496 	300.0290542811944 	0.08405647438602627 	101359.3508611968
-0.5968468468468471 	300.0329006951589 	0.09516911530008319 	101363.8992995564
-0.5943443443443446 	300.0361568812492 	0.1045522626672936 	101367.7499700329
-0.591841841841842 	300.0387549785737 	0.1120213373325793 	101370.8224025259
-0.5893393393393397 	300.0406402591063 	0.1174599643007794 	101373.0519636376
-0.5868368368368371 	300.0417818296766 	0.1207628864303214 	101374.4020559204
-0.5843343343343346 	300.0421500487995 	0.1218343275535343 	101374.8375517722
-0.5818318318318321 	300.041732447889 	0.1206445263798526 	101374.3437766883
-0.5793293293293297 	300.0405325882166 	0.1171588008918414 	101372.9249143206
-0.5768268268268271 	300.0385567879893 	0.1114454223749345 	101370.5884447847
-0.5743243243243245 	300.0358385361516 	0.1036102298475103 	101367.374020752
-0.5718218218218221 	300.0324419050893 	0.09375884828817035 	101363.3574581701
-0.5693193193193196 	300.0284272215704 	0.08212983717007696 	101358.610243569
-0.5668168168168171 	300.0238775461618 	0.06895621400501435 	101353.2304753144
-0.5643143143143147 	300.0188904832936 	0.05451838698407738 	101347.3337681772
-0.5618118118118121 	300.0135590369197 	0.03914397409424444 	101341.0301451251
-0.5593093093093094 	300.007992989745 	0.02308171185360898 	101334.4494289237
-0.5568068068068072 	300.0023127151127 	0.006638877932923314 	101327.7340369415
-0.5543043043043046 	299.9965851128396 	0.01123443913495064 	101320.9629037142
-0.551801801801802 	299.9908979006697 	0.02634297290738953 	101314.2398426888
-0.5492992992992995 	299.985369662121 	0.0423290905601432 	101307.7050342874
-0.5467967967967969 	299.9801089477912 	0.05754801383728094 	101301.4867270413
-0.5442942942942947 	299.9752306106104 	0.07165658417682169 	101295.7206912286
-0.5417917917917919 	299.9708230686406 	0.08441024344161387 	101290.5112303983
-0.5392892892892895 	299.9669667254125 	0.09554004831072935 	101285.9533871704
-0.536786786786787 	299.9637387359806 	0.1048601436178716 	101282.1383281013
-0.5342842842842846 	299.9611954732025 	0.1122238389384481 	101279.1325885817
-0.531781781781782 	299.9593641084102 	0.117468866959726 	101276.968209956
-0.5292792792792794 	299.9582908492144 	0.1205619555614184 	101275.6997111879
-0.526776776776777 	299.9579899223896 	0.1214321174854319 	101275.3440451335
-0.5242742742742745 	299.9584723537471 	0.1200346081896617 	101275.91410453
-0.521771771771772 	299.9597318770439 	0.1164144398560846 	101277.4025451956
-0.5192692692692695 	299.9617412103226 	0.1106156136412857 	101279.7771263559
-0.516766766766767 	299.9644414308964 	0.1027748272487172 	101282.9682661063
-0.5142642642642645 	299.9678034146949 	0.09308824181033654 	101286.9415576275
-0.511761761761762 	299.97174002779 	0.08171018019657764 	101291.5941473782
-0.5092592592592596 	299.9761737088892 	0.06886783081758223 	101296.8344504793
-0.506756756756757 	299.9810130757909 	0.05484868747801789 	101302.5544529929
-0.5042542542542544 	299.9861736068041 	0.03992567097542045 	101308.6543770625
-0.5017517517517521 	299.991537332126 	0.0244147525299919 	101314.9946737365
-0.4992492492492494 	299.9970411831117 	0.008568723416150378 	101321.500960795
-0.496746746746747 	300.0025527894931 	0.009567933844285455 	101328.0167522508
-0.4942442442442445 	300.0080527214917 	0.02334331755111445 	101334.5190144317
-0.4917417417417421 	300.0134468948784 	0.03892814774912802 	101340.8966285515
-0.4892392392392395 	300.0186266009941 	0.05389680034824335 	101347.0208182988
-0.486736736736737 	300.023494091089 	0.06796508971183253 	101352.7761773286
-0.4842342342342345 	300.0279533388766 	0.08086305177560153 	101358.0490583689
-0.481731731731732 	300.0319217484392 	0.09233787470674554 	101362.7417018773
-0.4792292292292296 	300.0353260689858 	0.1021512427213672 	101366.7675381986
-0.4767267267267268 	300.0380879832318 	0.1101094299715991 	101370.0336435175
-0.4742242242242246 	300.0401511549338 	0.1160741773176939 	101372.4735752019
-0.471721721721722 	300.0414799947484 	0.119914282154571 	101374.0451346118
-0.4692192192192195 	300.0420436593911 	0.1215419304703214 	101374.7117782352
-0.4667167167167169 	300.0418279436538 	0.1209181545971211 	101374.4567496433
-0.4642142142142145 	300.0408297398329 	0.1180027525084786 	101373.2763192315
-0.461711711711712 	300.0390468740721 	0.1128592780242894 	101371.1680291474
-0.4592092092092094 	300.0365137437589 	0.1055536369771885 	101368.1725208614
-0.456706706706707 	300.0332837070627 	0.096189277780973 	101364.3529288933
-0.4542042042042045 	300.0294138089411 	0.08499563327101647 	101359.7769053147
-0.451701701701702 	300.0249852073885 	0.07217924348689225 	101354.5402251451
-0.4491991991991995 	300.0200932398562 	0.05802799498177223 	101348.755921408
-0.4466966966966969 	300.0148268544683 	0.04284229193504976 	101342.529167874
-0.4441941941941945 	300.0093034694703 	0.02687921098841843 	101335.9988215282
-0.441691691691692 	300.0036342905437 	0.0104734747281615 	101329.296477799
-0.4391891891891895 	299.9979053223396 	0.008754748761706883 	101322.5236325687
-0.436686686686687 	299.9922015778121 	0.02256787951641031 	101315.7809786745
-0.4341841841841846 	299.9866341873638 	0.03866879005757541 	101309.1998102292
-0.431681681681682 	299.9813110325101 	0.05406168261684328 	101302.9076533876
-0.4291791791791794 	299.976346681112 	0.06841168979972519 	101297.0398800145
-0.426676676676677 	299.9718298401849 	0.08146619968318101 	101291.7011770954
-0.4241741741741744 	299.9678503331671 	0.09295251585425984 	101286.9977646521
-0.421671671671672 	299.9644851876819 	0.1026877979215302 	101283.0205577723
-0.4191691691691694 	299.9617886346473 	0.1104928102298132 	101279.8336618088
-0.4166666666666669 	299.9597947484972 	0.1162166123879284 	101277.4772123833
-0.4141641641641645 	299.9585527136767 	0.1198027626264923 	101276.009213735
-0.411661661661662 	299.9580773077332 	0.1211682141119887 	101275.4473832984
-0.4091591591591594 	299.9583878437061 	0.1202726118176908 	101275.8142747403
-0.406656656656657 	299.9594776112572 	0.1171364610426364 	101277.1021256947
-0.4041541541541545 	299.9613207461447 	0.1118009814890537 	101279.2802761042
-0.401651651651652 	299.9638686606297 	0.1044064181897581 	101282.2913861478
-0.3991491491491494 	299.9670888441345 	0.09513651235128477 	101286.0971018875
-0.396646646646647 	299.9708903601038 	0.08414882693625006 	101290.5899522106
-0.3941441441441444 	299.9752027730643 	0.07166946517331253 	101295.6869135099
-0.3916416416416419 	299.9799350315266 	0.05796673511393037 	101301.2802618125
-0.3891391391391395 	299.9850039459043 	0.04330262608417104 	101307.2718088934
-0.3866366366366368 	299.9903049424337 	0.02798298303238814 	101313.537926885
-0.3841341341341344 	299.9957647342271 	0.01225361698022387 	101319.9920180739
-0.381631631631632 	300.0012469120222 	0.006665976082237988 	101326.4729822597
-0.3791291291291294 	300.0067351601412 	0.01954689694031491 	101332.9613546859
-0.3766266266266269 	300.0121389628362 	0.03515340759710887 	101339.35025498
-0.3741241241241244 	300.0173559045294 	0.05022064113645317 	101345.5184382639
-0.371621621621622 	300.0222880906254 	0.06447577743692876 	101351.350187234
-0.3691191191191194 	300.0268393673438 	0.07763223252888758 	101356.7318725492
-0.366616616616617 	300.030927214409 	0.08945772814498461 	101361.5657038811
-0.3641141141141143 	300.0344744786019 	0.09968056777035246 	101365.7605114132
-0.3616116116116119 	300.0373975942331 	0.1081187265913384 	101369.2172528412
-0.3591091091091095 	300.0396407973417 	0.1146135305657828 	101371.8700412078
-0.356606606606607 	300.0411600996474 	0.1189925743932966 	101373.6668613064
-0.3541041041041044 	300.0419195733848 	0.1211910611208256 	101374.5650846329
-0.3516016016016019 	300.041900978588 	0.1211126806275736 	101374.5431475925
-0.3490990990990994 	300.0410960348277 	0.118748271836969 	101373.5912473778
-0.346596596596597 	300.0394975083795 	0.1141488281056952 	101371.7009633786
-0.3440940940940944 	300.0371423145021 	0.1073483212306775 	101368.9158666832
-0.3415915915915919 	300.0340742095854 	0.09847064521392442 	101365.2877623472
-0.3390890890890895 	300.0303490122002 	0.08770110186472552 	101360.8827948724
-0.3365865865865869 	300.0260451620939 	0.0752532405162125 	101355.7935889762
-0.3340840840840844 	300.0212546176961 	0.06140174155258538 	101350.1291753042
-0.3315815815815819 	300.0160610225215 	0.04642751144350435 	101343.9884031063
-0.3290790790790794 	300.0105886426749 	0.0305895071338519 	101337.5183234247
-0.3265765765765769 	300.004939877453 	0.01423400699459809 	101330.8400265469
-0.3240740740740744 	299.9992178937065 	0.005459874436340196 	101324.0753560504
-0.3215715715715718 	299.9935066710935 	0.0188225173588896 	101317.3238167885
-0.3190690690690695 	299.9879075124203 	0.03500783975616115 	101310.7049934008
-0.3165665665665668 	299.9825285275163 	0.05055068038820334 	101304.3468133423
-0.3140640640640644 	299.9774804299183 	0.06511914548420701 	101298.3799836832
-0.311561561561562 	299.9728575345412 	0.07846811527180136 	101292.9158665123
-0.3090590590590593 	299.9687566230009 	0.09030669223968951 	101288.0689660508
-0.3065565565565568 	299.9652581283724 	0.1004455007851698 	101283.9340927055
-0.3040540540540545 	299.962417198795 	0.1086786205970398 	101280.5765892439
-0.3015515515515518 	299.9602764862386 	0.1148483323224797 	101278.0466031549
-0.2990490490490494 	299.9588783885931 	0.118896985944665 	101276.394144827
-0.2965465465465469 	299.9582388015134 	0.120731551825214 	101275.6382983486
-0.2940440440440444 	299.9583747405912 	0.1203333158809651 	101275.7988315836
-0.2915415415415418 	299.9592819905259 	0.117702545000573 	101276.8710272208
-0.2890390390390395 	299.9609408727137 	0.1128699630104796 	101278.8313986954