/*--------------------------------*- C++ -*----------------------------------*\
  =========                 |
  \\      /  F ield         | OpenFOAM: The Open Source CFD Toolbox
   \\    /   O peration     | Website:  https://openfoam.org
    \\  /    A nd           | Version:  7
     \\/     M anipulation  |
\*---------------------------------------------------------------------------*/
FoamFile
{
    version     2.0;
    format      ascii;
    class       volVectorField;
    location    "0.00195";
    object      U;
}
// * * * * * * * * * * * * * * * * * * * * * * * * * * * * * * * * * * * * * //

dimensions      [0 1 -1 0 0 0 0];

internalField   nonuniform List<vector> 
5000
(
(22.935565 7.7999482e-21 0)
(22.935563 1.0725661e-20 0)
(22.935561 0 0)
(22.93556 0 0)
(22.935559 -5.980833e-21 0)
(22.935558 6.8361649e-36 -6.0131542e-21)
(22.935556 6.1459912e-21 -1.3100968e-35)
(22.935554 0 1.8952199e-20)
(22.935553 0 6.4653352e-21)
(22.935551 -6.5405511e-21 -1.3081102e-20)
(22.935549 -1.3137123e-20 -1.3137123e-20)
(22.935548 6.6052056e-21 6.6052056e-21)
(22.935546 6.6582604e-21 -5.6771743e-35)
(22.935545 -6.7168572e-21 -5.9180415e-35)
(22.935543 0 1.3517671e-20)
(22.935542 -6.7703849e-21 -1.354077e-20)
(22.935541 8.5704459e-50 4.2852229e-50)
(22.935539 6.9042639e-21 -6.0831605e-35)
(22.935537 0 -7.0395555e-21)
(22.935535 7.1731904e-21 1.4346381e-20)
(22.935534 -7.2139708e-21 7.2139708e-21)
(22.935532 -7.1955562e-21 0)
(22.93553 1.4374981e-20 0)
(22.935529 -7.1829892e-21 -7.1829892e-21)
(22.935527 -7.2390146e-21 6.1723551e-35)
(22.935525 -6.056415e-35 -6.056415e-35)
(22.935523 7.4624456e-21 -7.4624456e-21)
(22.935521 7.5387894e-21 7.5387894e-21)
(22.935519 -1.5134114e-20 7.5670571e-21)
(22.935517 1.3118048e-34 -7.5663978e-21)
(22.935515 -1.3192392e-34 1.3192392e-34)
(22.935513 7.5234255e-21 -6.4148584e-35)
(22.935512 1.4924115e-20 -7.4620575e-21)
(22.93551 -1.4792537e-20 7.3962683e-21)
(22.935508 1.2918965e-34 7.4515685e-21)
(22.935506 -6.6445283e-34 0)
(22.935504 -2.6816338e-34 0)
(22.935502 1.5323283e-20 -7.6616417e-21)
(22.935501 -1.5122311e-20 -7.5611554e-21)
(22.935499 -1.5151212e-20 7.5756059e-21)
(22.935496 1.5343e-20 -1.2864191e-34)
(22.935495 -5.2446127e-34 -7.6251407e-21)
(22.935494 -1.4923236e-20 7.4616179e-21)
(22.935492 7.4614648e-21 -1.2618021e-34)
(22.935489 2.3167725e-20 -7.7225749e-21)
(22.935487 -7.8266298e-21 7.8266298e-21)
(22.935486 -7.6233415e-21 -2.6216876e-34)
(22.935484 -5.1467941e-34 2.573397e-34)
(22.935482 -1.5394017e-20 -2.6470218e-34)
(22.935479 0 1.3406296e-34)
(22.935478 7.7555253e-21 7.7555253e-21)
(22.935476 1.0851612e-36 0)
(22.935474 -7.6519821e-21 0)
(22.935471 1.5549726e-20 0)
(22.93547 -2.7158444e-34 0)
(22.935469 -1.5031191e-20 0)
(22.935467 7.4549783e-21 0)
(22.935465 -2.6600684e-34 0)
(22.935463 -7.911972e-21 0)
(22.935461 0 0)
(22.935459 7.9416566e-21 0)
(22.935457 2.7282739e-34 0)
(22.935454 2.2728321e-36 0)
(22.935453 7.9202815e-21 -7.9202815e-21)
(22.935451 -7.8379262e-21 -7.8379262e-21)
(22.935449 2.7303389e-34 7.8101837e-21)
(22.935447 7.9088639e-21 -1.3599398e-34)
(22.935445 -8.0141958e-21 1.5445898e-52)
(22.935442 -8.0446631e-21 8.0446631e-21)
(22.93544 8.0192161e-21 0)
(22.935439 7.9892009e-21 0)
(22.935437 -7.9652577e-21 -7.9652577e-21)
(22.935435 -7.955249e-21 -7.955249e-21)
(22.935433 1.59507e-20 0)
(22.935431 8.0047992e-21 8.0047992e-21)
(22.935428 -8.0308253e-21 2.7732349e-34)
(22.935426 0 -8.0463371e-21)
(22.935424 8.0396768e-21 -8.0396768e-21)
(22.935422 -1.1339692e-36 7.9795989e-21)
(22.93542 -7.897382e-21 1.5794764e-20)
(22.935419 7.8012083e-21 -1.5602417e-20)
(22.935417 -2.2067636e-36 4.4135272e-36)
(22.935415 2.2320792e-36 2.3560292e-20)
(22.935412 7.9634433e-21 -1.5926887e-20)
(22.93541 7.9987658e-21 -8.3205926e-34)
(22.935408 2.7677843e-34 1.5899225e-20)
(22.935406 -7.8850812e-21 -2.3655243e-20)
(22.935404 0 7.8198579e-21)
(22.935402 -7.7674138e-21 7.7674138e-21)
(22.9354 -8.0617802e-34 -7.7711965e-21)
(22.935398 -2.7230651e-34 7.789377e-21)
(22.935395 7.760781e-21 7.760781e-21)
(22.935394 7.6972954e-21 2.6799361e-34)
(22.935392 -1.5210662e-20 -1.5210662e-20)
(22.93539 -5.2183644e-34 -5.2183644e-34)
(22.935388 7.531553e-21 -7.531553e-21)
(22.935385 0 -7.5376907e-21)
(22.935383 0 -2.6222646e-34)
(22.935381 -7.3212144e-21 5.097995e-34)
(22.93538 -4.9879481e-34 1.4385067e-20)
(22.935378 1.4343581e-20 7.1717906e-21)
(22.935375 -7.2145996e-21 -7.2145996e-21)
(22.935373 -1.4442631e-20 1.0262107e-36)
(22.935371 0 7.102983e-21)
(22.935369 6.8681257e-21 0)
(22.935368 6.6947189e-21 -6.6947189e-21)
(22.935366 -6.7110524e-21 -2.3365599e-34)
(22.935364 -6.8685404e-21 6.8685404e-21)
(22.935361 0 -6.9053307e-21)
(22.935358 0 -6.762265e-21)
(22.935357 6.5625724e-21 1.3125145e-20)
(22.935356 6.2831859e-21 6.2831859e-21)
(22.935355 0 -1.8531602e-20)
(22.935353 -6.34131e-21 -6.34131e-21)
(22.93535 2.2762116e-34 1.9533433e-20)
(22.935348 6.5310193e-21 -6.5310193e-21)
(22.935345 -6.3391734e-21 -6.3391734e-21)
(22.935344 1.7237161e-36 -3.4474322e-36)
(22.935343 -2.0335436e-34 -5.8169882e-21)
(22.935342 8.041119e-51 1.7440756e-20)
(22.93534 1.2113094e-20 -4.2345805e-34)
(22.935337 -2.6230963e-36 -1.23056e-20)
(22.935334 -6.0739063e-21 1.2147813e-20)
(22.935332 0 5.8390484e-21)
(22.935332 -5.3292023e-21 -5.3292023e-21)
(22.935331 5.2369355e-21 5.2369355e-21)
(22.935329 5.6240974e-21 -5.6240974e-21)
(22.935327 -1.1804204e-20 -1.1804204e-20)
(22.935325 -5.9560328e-21 5.9560328e-21)
(22.935323 1.1773629e-20 2.0328569e-34)
(22.935321 5.7967129e-21 5.7967129e-21)
(22.935319 -5.701407e-21 1.1402814e-20)
(22.935317 -5.6943703e-21 -5.6943703e-21)
(22.935315 -5.6426793e-21 -5.6426793e-21)
(22.935314 0 -5.4046828e-21)
(22.935313 5.335878e-21 -1.857771e-34)
(22.935311 5.5407096e-21 -1.9212125e-34)
(22.935308 -5.6821297e-21 1.978324e-34)
(22.935305 -1.9634213e-34 1.1324876e-20)
(22.935304 5.4653796e-21 5.4653796e-21)
(22.935303 -5.0059645e-21 -5.0059645e-21)
(22.935303 -4.9412854e-21 -9.8825708e-21)
(22.935301 0 -5.3212467e-21)
(22.935298 5.6411392e-21 -5.6411392e-21)
(22.935296 5.6868801e-21 3.9437928e-34)
(22.935292 -5.5081445e-21 1.1016289e-20)
(22.935292 5.2732742e-21 -1.4987547e-36)
(22.935291 -2.7828928e-36 1.3914464e-36)
(22.93529 -4.8947662e-21 -1.1473573e-49)
(22.935288 5.2828499e-21 5.2828499e-21)
(22.935286 -5.5124986e-21 -3.8228611e-34)
(22.935283 3.8545073e-34 7.7090147e-34)
(22.935281 5.3222408e-21 5.3222408e-21)
(22.93528 -4.916791e-21 -4.916791e-21)
(22.93528 4.7413487e-21 4.7413487e-21)
(22.935278 4.9544479e-21 1.7179293e-34)
(22.935276 -5.2665843e-21 -5.2665843e-21)
(22.935273 0 5.3593862e-21)
(22.93527 0 -7.4046385e-37)
(22.93527 -4.9830399e-21 -4.9830399e-21)
(22.935269 -4.6763423e-21 0)
(22.935268 4.6728868e-21 4.6728868e-21)
(22.935266 4.9857207e-21 3.4504609e-34)
(22.935263 -5.149287e-21 -1.0298574e-20)
(22.93526 -3.4665572e-34 4.9987147e-21)
(22.93526 4.657357e-21 -1.3237005e-36)
(22.935259 -4.4182937e-21 -4.4182937e-21)
(22.935258 -4.5121918e-21 4.5121918e-21)
(22.935256 0 -4.768396e-21)
(22.935253 4.8595209e-21 4.8595209e-21)
(22.935251 4.659305e-21 -1.9413565e-33)
(22.93525 0 -1.1709401e-33)
(22.93525 -4.0452652e-21 4.0452652e-21)
(22.935248 -4.2414924e-21 -8.4829848e-21)
(22.935246 0 0)
(22.935243 4.429566e-21 -3.0718584e-34)
(22.935241 8.7776883e-34 -8.7776883e-34)
(22.935241 -3.7982576e-21 3.7982576e-21)
(22.93524 3.7076569e-21 3.7076569e-21)
(22.935238 3.9848059e-21 2.7464336e-34)
(22.935235 -4.050172e-21 -4.050172e-21)
(22.935233 -2.264083e-34 3.2782033e-21)
(22.935233 1.8710308e-34 1.8710308e-34)
(22.935232 1.2623143e-36 1.2623143e-36)
(22.935231 3.3687149e-21 4.667551e-34)
(22.935229 -3.533146e-21 -7.0662919e-21)
(22.935228 -4.7393448e-34 3.417026e-21)
(22.935227 2.2558619e-34 3.2797968e-21)
(22.935226 -2.279358e-34 -2.279358e-34)
(22.935224 3.3730658e-21 2.3248061e-34)
(22.935221 0 -6.8054127e-34)
(22.93522 0 2.0472401e-34)
(22.93522 -2.5180696e-21 -2.5180696e-21)
(22.935219 -2.5075589e-21 0)
(22.935218 0 0)
(22.935216 0 0)
(22.935213 2.9520006e-21 0)
(22.935211 2.2704214e-50 -2.6752949e-21)
(22.935211 -2.10886e-21 4.3964088e-34)
(22.935211 0 1.9111676e-21)
(22.93521 2.2091129e-21 2.2091129e-21)
(22.935209 -2.4881317e-21 -2.4881317e-21)
(22.935207 -7.2276115e-34 -2.6081946e-21)
(22.935205 5.1542697e-21 5.1542697e-21)
(22.935203 -2.3781676e-21 1.6458552e-34)
(22.935202 -4.3071005e-34 -4.3071005e-34)
(22.935202 -2.7474282e-37 -1.9333307e-21)
(22.935201 -2.1028085e-21 -2.1028085e-21)
(22.935199 2.3290268e-21 2.3290268e-21)
(22.935197 -3.2879513e-37 0)
(22.935195 -2.5169793e-34 1.8184463e-21)
(22.935195 1.0647991e-34 1.0647991e-34)
(22.935195 -1.7781145e-21 -1.7781145e-21)
(22.935194 0 -2.0750567e-21)
(22.935192 2.2586983e-21 3.1456073e-34)
(22.935189 1.5736809e-34 2.2738799e-21)
(22.935186 5.6064448e-34 -4.0401278e-21)
(22.935186 1.469587e-21 1.469587e-21)
(22.935186 0 1.3076897e-21)
(22.935185 -1.6397257e-21 -1.6397257e-21)
(22.935184 -1.9669241e-21 1.9669241e-21)
(22.935183 0 0)
(22.935182 0 0)
(22.93518 0 0)
(22.935177 2.1456733e-21 2.1456733e-21)
(22.935174 1.4354875e-34 -2.0741983e-21)
(22.935171 -1.2973658e-21 -2.5947316e-21)
(22.935172 0 8.2579861e-22)
(22.935173 0 -7.6743703e-35)
(22.935173 1.5679084e-21 1.5679084e-21)
(22.935171 1.9509564e-21 1.9509564e-21)
(22.935168 -2.1547559e-21 -4.3095118e-21)
(22.935165 -2.2492259e-21 6.3926844e-37)
(22.93516 0 -5.5796873e-37)
(22.935158 1.0490813e-21 1.0490813e-21)
(22.935158 7.1070637e-22 7.1070637e-22)
(22.935159 -9.7135424e-22 -1.9427085e-21)
(22.935159 -1.0981631e-21 1.5605836e-37)
(22.935159 0 -2.8364779e-34)
(22.935157 1.7163841e-21 1.7163841e-21)
(22.935155 -5.363573e-34 -1.0727146e-33)
(22.935151 -1.2699487e-34 -2.5398974e-34)
(22.935148 1.0869174e-21 1.0869174e-21)
(22.935148 -5.7103934e-22 -5.7103934e-22)
(22.935148 -7.7825553e-22 0)
(22.935148 0 -1.2504465e-21)
(22.935146 1.6202509e-21 1.6202509e-21)
(22.935142 -2.572171e-34 1.8507203e-21)
(22.935138 1.731867e-21 -1.731867e-21)
(22.935134 1.0806925e-34 0)
(22.935134 -2.8402347e-22 -1.4201174e-22)
(22.935136 4.1662162e-22 4.1662162e-22)
(22.935135 -1.3839035e-34 9.9778229e-22)
(22.935133 -5.1094279e-34 -5.1094279e-34)
(22.935128 -1.2242166e-34 -3.5378476e-21)
(22.93512 -1.4874717e-21 -2.9749434e-21)
(22.935115 4.8144207e-23 1.4443262e-22)
(22.935116 -7.77673e-22 -1.555346e-21)
(22.935117 0 0)
(22.935119 1.4639408e-22 2.9278816e-22)
(22.935118 -3.2052453e-22 -3.2052453e-22)
(22.935117 0 7.4682212e-22)
(22.935113 9.8441028e-22 9.8441028e-22)
(22.935109 7.8767915e-22 7.8767915e-22)
(22.935103 2.7582469e-22 2.7582469e-22)
(22.935103 8.0102151e-22 1.602043e-21)
(22.935104 -6.0225922e-22 -6.0225922e-22)
(22.935103 -8.6845481e-23 -1.7369096e-22)
(22.9351 6.2609683e-35 6.2609683e-35)
(22.935096 -2.462705e-22 -4.92541e-22)
(22.93509 -2.3707356e-22 -2.3707356e-22)
(22.935088 7.616633e-35 1.5233266e-34)
(22.935089 1.2592264e-21 1.2592264e-21)
(22.935088 -8.4994557e-22 -1.6998911e-21)
(22.935084 3.4991163e-35 5.0353461e-22)
(22.935078 -5.4785381e-35 -1.0957076e-34)
(22.935073 5.3633839e-37 -1.8870729e-21)
(22.935074 1.6690899e-34 2.4167029e-21)
(22.935073 -2.03076e-21 -2.03076e-21)
(22.93507 0 3.180304e-21)
(22.935064 0 -7.6488827e-34)
(22.935055 2.9536497e-21 -5.9072993e-21)
(22.935056 3.881057e-21 7.7621139e-21)
(22.935057 0 2.5876445e-34)
(22.935056 0 -3.1261674e-21)
(22.935051 0 0)
(22.935042 0 0)
(22.935038 -4.7545071e-21 -4.7545071e-21)
(22.935039 -3.4692355e-34 5.0335205e-21)
(22.935038 9.352335e-21 9.352335e-21)
(22.935033 -1.8757633e-36 -4.3998369e-21)
(22.935025 -5.1078246e-21 1.4517311e-36)
(22.935018 -6.4809108e-21 -6.4809108e-21)
(22.935019 9.7126501e-34 -6.9955679e-21)
(22.935018 9.1436916e-34 6.5992831e-21)
(22.935014 8.9282798e-37 0)
(22.935007 6.6829837e-21 6.6829837e-21)
(22.934994 8.1467067e-21 8.1467067e-21)
(22.934994 9.41715e-21 0)
(22.934995 -1.8288645e-20 -1.8288645e-20)
(22.934993 -2.6132158e-20 -8.7107194e-21)
(22.934986 8.6205994e-21 1.7241199e-20)
(22.934974 1.7721062e-20 -6.1320955e-34)
(22.934954 0 3.0893474e-36)
(22.934949 -1.3678669e-20 -1.3678669e-20)
(22.934955 -1.5556505e-20 -1.5556505e-20)
(22.934962 1.4395041e-20 1.4395041e-20)
(22.934957 -3.4201408e-36 -1.2033551e-20)
(22.934947 5.1248141e-36 1.2020891e-20)
(22.934931 -3.9171012e-36 -7.8342025e-36)
(22.934918 -1.6058708e-20 -3.2117417e-20)
(22.934922 -1.8292214e-20 1.8292214e-20)
(22.934923 1.7796208e-20 1.7796208e-20)
(22.934918 3.1680297e-20 1.5840148e-20)
(22.934907 -1.7049744e-20 2.3647644e-33)
(22.934891 1.6276722e-49 -1.8676113e-20)
(22.934891 -1.9451494e-20 0)
(22.93489 -5.2903534e-33 0)
(22.934884 3.7458249e-20 1.8729125e-20)
(22.93487 0 -2.712883e-33)
(22.93485 0 6.0315125e-33)
(22.934827 -4.9568019e-20 3.4445352e-33)
(22.934828 1.5257162e-32 -2.7472552e-20)
(22.934833 5.4595229e-20 2.7297614e-20)
(22.934829 0 -3.6142439e-36)
(22.934818 -2.5858861e-20 -2.5858861e-20)
(22.934802 -2.8073768e-20 0)
(22.934782 2.9928234e-20 0)
(22.934782 -4.3331422e-36 0)
(22.93478 4.190586e-33 0)
(22.93477 -4.2678625e-36 0)
(22.934751 -3.1169135e-20 0)
(22.934725 3.4752371e-20 0)
(22.934705 3.8061886e-20 3.8061886e-20)
(22.934709 0 0)
(22.934706 -3.7321198e-20 -3.7321198e-20)
(22.934693 5.1157929e-33 0)
(22.934669 3.8817383e-20 3.8817383e-20)
(22.934635 -8.7810922e-20 1.2179194e-32)
(22.934631 1.2949018e-32 -4.6680642e-20)
(22.934633 4.4687502e-20 0)
(22.934626 1.2188336e-32 0)
(22.934605 8.9711471e-20 4.4855736e-20)
(22.934574 -9.7860706e-20 6.7934927e-33)
(22.934537 -5.3083814e-20 -5.3083814e-20)
(22.934538 5.5085761e-20 0)
(22.934539 7.7445901e-36 0)
(22.93453 5.3247272e-20 5.3247272e-20)
(22.934507 0 5.447665e-20)
(22.934473 0 -5.7232454e-20)
(22.934435 -6.3670928e-20 -6.3670928e-20)
(22.934415 9.3005965e-33 0)
(22.93442 1.320379e-19 6.601895e-20)
(22.934417 -9.1884733e-36 -9.1884733e-36)
(22.934406 -1.9554932e-19 -6.5183106e-20)
(22.934386 6.8506102e-20 6.8506102e-20)
(22.934358 7.0725326e-20 7.0725326e-20)
(22.934325 -1.4536977e-19 -7.2684884e-20)
(22.934287 7.5389309e-20 -7.5389309e-20)
(22.934248 -7.9401862e-20 0)
(22.934215 -1.6986252e-19 8.4931258e-20)
(22.934205 9.1801407e-20 9.1801407e-20)
(22.934204 8.7931487e-20 -8.7931487e-20)
(22.934197 8.3035495e-20 -8.3035495e-20)
(22.934177 -8.6112584e-20 0)
(22.934148 6.3901422e-50 8.9196444e-20)
(22.934111 9.2591738e-20 9.2591738e-20)
(22.93407 -9.6791865e-20 -9.6791865e-20)
(22.934026 1.0293919e-19 -1.0293919e-19)
(22.934012 -1.0994594e-19 0)
(22.934003 -3.0143389e-32 0)
(22.933985 -2.9731424e-35 0)
(22.933953 -1.0608618e-19 0)
(22.933912 2.2018507e-19 0)
(22.933863 -1.1640328e-19 0)
(22.933827 -3.4412261e-32 0)
(22.933807 3.5507364e-32 0)
(22.933785 1.2718959e-19 1.2718959e-19)
(22.933754 2.5261456e-19 -2.727456e-49)
(22.933713 -3.8765747e-19 -1.2921916e-19)
(22.933667 -3.7296663e-32 0)
(22.933618 7.8155109e-32 0)
(22.933584 -4.0798298e-32 0)
(22.933555 3.0147021e-19 1.5073511e-19)
(22.933523 -3.0325338e-19 2.103031e-32)
(22.933485 4.2496383e-32 -1.531976e-19)
(22.933441 3.1409646e-19 1.5704823e-19)
(22.933394 0 -2.2617138e-32)
(22.933349 0 2.4006987e-35)
(22.933308 -1.7376601e-19 2.4125682e-32)
(22.933266 2.4542351e-32 -1.769482e-19)
(22.933221 1.7922883e-19 1.7922883e-19)
(22.933172 1.8298744e-19 -1.8298744e-19)
(22.933119 -1.8883415e-19 1.0492464e-31)
(22.933065 -5.8712151e-19 1.9570717e-19)
(22.933018 2.0226189e-19 -2.0226189e-19)
(22.932972 2.0655204e-19 0)
(22.932923 5.9376049e-35 0)
(22.932868 2.1225424e-19 2.1225424e-19)
(22.932808 0 3.0260813e-32)
(22.932744 -4.5137857e-19 -2.2568929e-19)
(22.93268 -4.6714103e-19 2.3357051e-19)
(22.932622 2.4065153e-19 2.4065153e-19)
(22.932563 4.931012e-19 0)
(22.932503 2.5128685e-19 -2.5128685e-19)
(22.932439 -5.1316417e-19 -2.5658208e-19)
(22.932372 -5.2662082e-19 2.6331041e-19)
(22.932302 5.4212624e-19 7.5230315e-32)
(22.932231 5.5756055e-19 1.418844e-48)
(22.932159 0 3.9694973e-32)
(22.932085 -5.8578572e-19 -2.9289286e-19)
(22.932009 3.0053691e-19 3.0053691e-19)
(22.931932 6.1790059e-19 -6.2383393e-48)
(22.931854 -3.1736581e-19 4.4063086e-32)
(22.931774 -3.2496212e-19 3.2496212e-19)
(22.931693 4.7167208e-35 0)
(22.931607 -4.7107524e-32 0)
(22.931518 -3.4801753e-19 -3.4801753e-19)
(22.931425 3.5805023e-19 -5.0881998e-35)
(22.931332 3.6848158e-19 1.5332291e-31)
(22.931239 -3.7820537e-19 -3.7820537e-19)
(22.931144 5.3663999e-32 0)
(22.931047 5.6186164e-35 0)
(22.930946 5.610918e-32 4.0454227e-19)
(22.930842 4.1465986e-19 -1.1496601e-31)
(22.930736 -4.2536021e-19 -4.2536021e-19)
(22.930627 1.817121e-31 0)
(22.930516 6.2094318e-32 0)
(22.930404 1.2715597e-31 0)
(22.930289 4.6874115e-19 4.6874115e-19)
(22.930172 -4.7892665e-19 -6.8059571e-35)
(22.93005 6.7932827e-32 -4.892884e-19)
(22.929924 1.3882817e-31 5.0072599e-19)
(22.929794 7.2990813e-35 -5.1362718e-19)
(22.929663 1.054607e-18 1.4657155e-31)
(22.929531 5.4028646e-19 1.0805729e-18)
(22.929398 -5.5163065e-19 -5.5163065e-19)
(22.929261 -1.1240842e-18 -2.3410185e-31)
(22.929119 7.9588521e-32 -7.9588521e-32)
(22.92897 1.1726857e-18 8.1407868e-32)
(22.928817 6.0116112e-19 6.0116112e-19)
(22.928662 -1.2330707e-18 0)
(22.928507 -6.3115563e-19 0)
(22.928351 6.4449022e-19 -6.4449022e-19)
(22.928191 6.5715307e-19 -9.1239165e-32)
(22.928027 1.8601409e-31 1.8601409e-31)
(22.927858 -6.8431911e-19 6.8248089e-49)
(22.927684 0 6.9929185e-19)
(22.927506 0 -7.1470337e-19)
(22.927325 -7.3023869e-19 -7.3023869e-19)
(22.92714 0 0)
(22.926952 7.6134916e-19 7.6134916e-19)
(22.92676 -7.7686475e-19 1.0785994e-31)
(22.926565 -1.1261702e-34 -7.924718e-19)
(22.926364 2.2439078e-31 0)
(22.926159 0 0)
(22.925951 8.4255416e-19 8.4255416e-19)
(22.925739 -8.5983659e-19 -2.4438026e-34)
(22.925524 -8.7658704e-19 8.2779604e-49)
(22.925304 1.7860131e-18 8.9300654e-19)
(22.925079 9.0996136e-19 -9.0996136e-19)
(22.924848 -9.2820757e-19 1.2860857e-31)
(22.924613 0 -1.3156937e-31)
(22.924376 0 2.6843368e-31)
(22.924136 9.8571668e-19 9.8571668e-19)
(22.923892 -2.7864921e-31 -1.0029767e-18)
(22.923642 -1.0200344e-18 2.8324326e-31)
(22.923385 0 -2.8846562e-31)
(22.923121 0 2.9405042e-31)
(22.922852 1.079728e-18 1.079728e-18)
(22.92258 -4.58715e-31 -1.1009276e-18)
(22.922305 -1.1210338e-18 3.1128879e-31)
(22.922025 0 -1.586417e-31)
(22.92174 0 0)
(22.921448 0 1.180825e-18)
(22.921151 0 -1.2028638e-18)
(22.92085 0 1.7006454e-31)
(22.920545 0 -1.7707483e-34)
(22.920234 0 1.7586177e-31)
(22.919916 0 -1.789892e-31)
(22.919592 -2.6210064e-18 -1.3105032e-18)
(22.919262 -7.4062593e-31 1.3342785e-18)
(22.918928 1.3580408e-18 1.3580408e-18)
(22.91859 -1.3808516e-18 -1.3808516e-18)
(22.918247 1.4027896e-18 -1.4027896e-18)
(22.917897 -1.4247878e-18 0)
(22.917539 4.0242777e-31 1.4477677e-18)
(22.917173 1.47201e-18 1.47201e-18)
(22.916802 4.1573768e-31 0)
(22.916425 1.5226927e-18 -1.5226927e-18)
(22.916044 0 2.1492019e-31)
(22.915659 0 -2.2348475e-34)
(22.915268 -1.5967065e-18 -2.2145991e-31)
(22.91487 -4.5004789e-31 1.6207423e-18)
(22.914464 1.6455992e-18 -1.6455992e-18)
(22.914051 0 -2.3187841e-31)
(22.913631 0 4.7180901e-31)
(22.913207 0 1.7263983e-18)
(22.912778 0 1.7527087e-18)
(22.912344 0 -3.5561274e-18)
(22.911901 0 2.5629069e-34)
(22.911451 0 -2.5381592e-31)
(22.910992 -3.7153584e-18 -1.8576792e-18)
(22.910527 1.5698989e-30 1.8858282e-18)
(22.910055 3.8274999e-18 -2.6570514e-31)
(22.909577 -1.9414481e-18 -1.9414481e-18)
(22.909092 -2.7987227e-34 0)
(22.9086 -1.9979868e-18 0)
(22.908101 1.1239169e-30 0)
(22.907597 4.1111881e-18 2.055594e-18)
(22.907085 2.0839725e-18 2.0839725e-18)
(22.906566 -1.3874416e-48 -2.1123174e-18)
(22.906039 -6.4233083e-18 -2.1411028e-18)
(22.905503 0 0)
(22.90496 4.4013991e-18 2.2006995e-18)
(22.90441 0 2.2311513e-18)
(22.903853 0 -2.2616075e-18)
(22.90329 -4.5837458e-18 -2.2918729e-18)
(22.90272 6.4412361e-31 0)
(22.902142 7.057263e-18 2.352421e-18)
(22.901557 -2.3832657e-18 2.3832657e-18)
(22.900964 -2.4144438e-18 -2.4144438e-18)
(22.900364 2.4455427e-18 -6.7907855e-31)
(22.899756 -2.4763095e-18 2.4763095e-18)
(22.899141 2.5069848e-18 0)
(22.898516 7.0406665e-31 0)
(22.897882 -2.5701166e-18 0)
(22.89724 2.6028102e-18 0)
(22.896592 0 -2.6356881e-18)
(22.895936 2.6682291e-18 7.4015578e-31)
(22.895274 -2.7002425e-18 2.7002425e-18)
(22.894603 -5.4639346e-18 -2.7319673e-18)
(22.893924 2.7639207e-18 -3.8374288e-31)
(22.893235 2.7965608e-18 3.8867205e-31)
(22.892537 2.8299414e-18 1.5883503e-48)
(22.891832 2.8636427e-18 -2.8636427e-18)
(22.891119 -5.7942594e-18 -2.8971297e-18)
(22.890399 -2.9302668e-18 5.8605335e-18)
(22.88967 2.9634365e-18 4.1144368e-31)
(22.888933 0 -4.1568783e-31)
(22.888187 -3.0311155e-18 3.0311155e-18)
(22.887434 3.0650475e-18 0)
(22.886673 3.0985162e-18 -3.0985162e-18)
(22.885903 -9.3954659e-18 -3.131822e-18)
(22.885123 -8.9973571e-34 3.1656636e-18)
(22.884334 6.400787e-18 8.8777599e-31)
(22.883537 -3.2356082e-18 -3.2356082e-18)
(22.882733 -4.5407988e-31 0)
(22.881922 -3.3047473e-18 0)
(22.881101 9.4888929e-34 3.3386074e-18)
(22.880272 6.7455265e-18 -4.6779532e-31)
(22.879433 -3.4075504e-18 -3.4075504e-18)
(22.878586 0 0)
(22.87773 9.6579016e-31 3.4780676e-18)
(22.876867 4.9925294e-34 -4.9925294e-34)
(22.875995 3.5480757e-18 9.8523003e-31)
(22.875114 -3.582761e-18 4.9692158e-31)
(22.874225 1.0044583e-30 -3.6173219e-18)
(22.873326 5.0653324e-31 3.6520602e-18)
(22.872417 5.2400819e-34 -5.2400819e-34)
(22.8715 3.723366e-18 1.0339046e-30)
(22.870575 -3.759518e-18 3.759518e-18)
(22.869643 1.7097718e-48 -3.795073e-18)
(22.868702 1.0634362e-30 -1.0634362e-30)
(22.867753 5.4910017e-34 -5.4910017e-34)
(22.866793 7.7973231e-18 5.4129037e-31)
(22.865823 5.4568615e-31 3.9343493e-18)
(22.864845 -3.9707092e-18 -3.9707092e-18)
(22.863859 0 0)
(22.862865 0 2.2444204e-30)
(22.861864 4.0770932e-18 5.6548443e-31)
(22.860853 1.7107781e-30 1.7107781e-30)
(22.859832 -4.1463609e-18 5.8923333e-34)
(22.858801 4.1819613e-18 4.1819613e-18)
(22.857762 -5.8564565e-31 -4.218132e-18)
(22.856715 6.8545123e-48 6.8545123e-48)
(22.85566 5.9559629e-31 5.9559629e-31)
(22.854598 -4.3245501e-18 -1.2008415e-30)
(22.853527 -4.3589217e-18 6.0519291e-31)
(22.852447 -6.0937195e-31 -8.7870366e-18)
(22.851357 4.4286125e-18 4.4286125e-18)
(22.850258 0 4.4639374e-18)
(22.84915 0 6.2464274e-31)
(22.848034 -4.5336699e-18 -6.2945496e-31)
(22.84691 4.5682706e-18 -9.1365412e-18)
(22.845776 -3.8321008e-30 4.6032797e-18)
(22.844634 -4.6386916e-18 4.6386916e-18)
(22.843485 4.6738912e-18 1.6758797e-48)
(22.842328 0 0)
(22.841163 -4.7415589e-18 1.6344573e-48)
(22.839989 -4.7747317e-18 4.7747317e-18)
(22.838804 4.8085788e-18 -4.8085788e-18)
(22.837611 4.843307e-18 1.6362673e-48)
(22.836409 0 6.7661344e-31)
(22.8352 -4.9128189e-18 6.9815356e-34)
(22.833984 -4.946431e-18 4.946431e-18)
(22.832759 9.9587821e-18 -9.9587821e-18)
(22.831527 5.0121817e-18 -1.3917831e-30)
(22.830285 -5.0451657e-18 5.0451657e-18)
(22.829034 -5.0784589e-18 -7.043718e-31)
(22.827775 -7.0901711e-31 7.0901711e-31)
(22.826508 -5.1453505e-18 -5.1453505e-18)
(22.825234 -1.4379107e-30 5.1782992e-18)
(22.823952 1.0421217e-17 -6.2377199e-48)
(22.822663 0 2.1843316e-30)
(22.821364 0 -1.4653108e-30)
(22.820057 0 1.4727361e-30)
(22.818742 -5.3388426e-18 1.4824903e-30)
(22.81742 -5.3710636e-18 1.5289852e-48)
(22.816091 0 0)
(22.814754 5.4336446e-18 -5.4336446e-18)
(22.813409 7.5711147e-31 0)
(22.812056 -5.4950267e-18 0)
(22.810695 0 5.5259232e-18)
(22.809327 0 1.5430204e-30)
(22.807951 5.5874442e-18 -5.5874442e-18)
(22.806569 7.7914337e-31 0)
(22.805179 -7.8244897e-31 0)
(22.803781 5.6765517e-18 1.1353103e-17)
(22.802376 -5.7059653e-18 4.7500556e-30)
(22.800964 2.3864807e-30 -1.1470878e-17)
(22.799545 5.7646857e-18 5.7646857e-18)
(22.798119 0 -8.2329176e-34)
(22.796685 5.8216032e-18 8.0827168e-31)
(22.795245 8.1216154e-31 5.84962e-18)
(22.793797 -5.8777107e-18 0)
(22.792343 5.9057779e-18 0)
(22.790882 -5.9335001e-18 0)
(22.789414 -5.960696e-18 5.960696e-18)
(22.78794 5.9874738e-18 1.6609006e-30)
(22.786459 0 -6.0140448e-18)
(22.784972 -6.0404974e-18 0)
(22.783478 -6.0667821e-18 0)
(22.781977 6.0928122e-18 6.0928122e-18)
(22.780471 6.118488e-18 -8.6948944e-34)
(22.778958 0 -6.143695e-18)
(22.777439 6.168423e-18 0)
(22.775914 -6.1928893e-18 0)
(22.774382 -6.2174063e-18 6.2174063e-18)
(22.772844 6.2420356e-18 1.731515e-30)
(22.771301 1.2532842e-17 1.740951e-30)
(22.769752 -3.4932511e-30 -1.7466255e-30)
(22.768198 -1.8938471e-17 -6.3128236e-18)
(22.766638 1.0795122e-48 6.335118e-18)
(22.765072 6.3575388e-18 -1.7644586e-30)
(22.763499 1.2760539e-17 1.7707672e-30)
(22.761922 -3.5522874e-30 -1.7761437e-30)
(22.76034 -1.2849823e-17 -6.4249117e-18)
(22.758753 6.4459954e-18 0)
(22.75716 -6.4664413e-18 0)
(22.755562 6.4867699e-18 6.4867699e-18)
(22.753959 6.507289e-18 -2.4156172e-47)
(22.75235 -1.3055707e-17 -6.5278535e-18)
(22.750737 0 0)
(22.749119 0 0)
(22.747498 1.3172147e-17 6.5860733e-18)
(22.745871 -7.0299504e-48 -1.4059901e-47)
(22.744239 -1.3245245e-17 -6.6226226e-18)
(22.742602 0 0)
(22.740961 0 0)
(22.739317 1.3352722e-17 6.676361e-18)
(22.737668 -6.4129812e-48 -1.2825962e-47)
(22.736015 -1.3419061e-17 -6.7095304e-18)
(22.734358 0 0)
(22.732696 0 0)
(22.731031 1.3515062e-17 6.7575311e-18)
(22.729363 6.7725481e-18 -9.6243697e-34)
(22.72769 -1.3574499e-17 -6.7872496e-18)
(22.726014 -6.8018928e-18 6.8018928e-18)
(22.724334 0 -1.8937371e-30)
(22.722651 1.3660508e-17 1.8975962e-30)
(22.720966 -3.8005232e-30 -1.9002616e-30)
(22.719276 -1.3711849e-17 -6.8559244e-18)
(22.717583 6.8684441e-18 0)
(22.715887 0 0)
(22.714188 -6.8933394e-18 0)
(22.712487 6.9049672e-18 0)
(22.710783 -9.8280304e-34 0)
(22.709076 -6.9263805e-18 6.9263805e-18)
(22.707366 6.9368402e-18 -1.9252367e-30)
(22.705653 -6.9471575e-18 -6.9471575e-18)
(22.703939 -6.9569743e-18 0)
(22.702222 6.9661001e-18 0)
(22.700503 6.9747741e-18 0)
(22.698781 -1.9391328e-30 0)
(22.697058 -6.9917498e-18 0)
(22.695333 6.9996785e-18 0)
(22.693606 1.9456795e-30 0)
(22.691877 -7.0136482e-18 7.0136482e-18)
(22.690146 7.0202487e-18 -3.8967715e-30)
(22.688414 -7.026785e-18 -7.026785e-18)
(22.68668 -7.0329468e-18 0)
(22.684945 7.0383755e-18 0)
(22.683209 7.043131e-18 0)
(22.681472 -1.9569887e-30 0)
(22.679732 -7.0521439e-18 0)
(22.677992 7.056507e-18 0)
(22.676252 -1.0033309e-33 0)
(22.674511 -7.0633567e-18 7.0633567e-18)
(22.672769 7.0658645e-18 -1.9610458e-30)
(22.671026 -7.0682305e-18 -7.0682305e-18)
(22.669283 -7.0705521e-18 0)
(22.667539 7.072413e-18 0)
(22.665796 1.4147073e-17 7.0735364e-18)
(22.664051 -3.9307215e-30 -1.9653607e-30)
(22.662306 -1.4149208e-17 -7.0746041e-18)
(22.660561 7.0749269e-18 0)
(22.658816 -1.0054049e-33 0)
(22.657072 -1.4148718e-17 0)
(22.655329 -2.0103515e-33 7.0732954e-18)
(22.653585 7.0717293e-18 1.9646834e-30)
(22.651841 0 -7.0698628e-18)
(22.650098 -7.067744e-18 0)
(22.648355 0 0)
(22.646613 7.0624653e-18 0)
(22.644873 0 0)
(22.643133 0 0)
(22.641393 0 0)
(22.639654 7.0469447e-18 0)
(22.637917 2.3539851e-49 7.0422419e-18)
(22.636181 -7.0371952e-18 -1.0000456e-33)
(22.634447 0 -7.0317299e-18)
(22.632714 -7.0258268e-18 0)
(22.630982 1.9491849e-30 0)
(22.629252 7.0129171e-18 0)
(22.627523 0 0)
(22.625796 0 0)
(22.624072 0 0)
(22.622349 6.9831086e-18 0)
(22.620628 -1.9367286e-30 6.9746755e-18)
(22.618909 -6.9658975e-18 9.8991357e-34)
(22.617192 0 -6.9568119e-18)
(22.615478 -6.9474102e-18 0)
(22.613766 -1.9254668e-30 0)
(22.612056 6.9275694e-18 0)
(22.610349 0 6.917098e-18)
(22.608645 -6.9062601e-18 -3.8344806e-30)
(22.606943 6.8950777e-18 -6.8950777e-18)
(22.605244 -3.8248181e-30 0)
(22.603548 -6.8717524e-18 6.8717524e-18)
(22.601855 6.859619e-18 1.9057545e-30)
(22.600165 0 -6.8471483e-18)
(22.598478 6.8343086e-18 0)
(22.596795 1.8940842e-30 0)
(22.595114 -6.8075646e-18 6.8075646e-18)
(22.593437 0 6.7937361e-18)
(22.591763 -6.7796322e-18 -6.7796322e-18)
(22.590092 6.7652263e-18 -6.7652263e-18)
(22.588426 3.7489428e-30 0)
(22.586764 -6.7353515e-18 0)
(22.585105 3.7310095e-30 0)
(22.583449 9.5271696e-34 0)
(22.581798 -1.8581071e-30 -6.6881157e-18)
(22.58015 9.4811759e-34 9.4811759e-34)
(22.578507 6.6551405e-18 1.3310281e-17)
(22.576868 0 6.6381857e-18)
(22.575233 -6.6209297e-18 -1.3241859e-17)
(22.573602 1.8326894e-30 -1.3206764e-17)
(22.571975 1.8277434e-30 6.5855611e-18)
(22.570354 -8.7955086e-49 6.5674668e-18)
(22.568737 1.8185444e-30 0)
(22.567124 0 0)
(22.565516 1.3022512e-17 0)
(22.563912 1.8026751e-30 0)
(22.562313 -6.472336e-18 6.472336e-18)
(22.560719 6.4525393e-18 1.7926587e-30)
(22.55913 -1.7852594e-30 -6.4324867e-18)
(22.557546 -6.4121311e-18 0)
(22.555968 -6.3914594e-18 0)
(22.554394 -1.768961e-30 0)
(22.552825 1.7630716e-30 0)
(22.551262 -6.327843e-18 0)
(22.549704 6.3061487e-18 0)
(22.548151 6.2842069e-18 0)
(22.546604 0 0)
(22.545062 6.2396157e-18 0)
(22.543526 -1.7263163e-30 0)
(22.541996 -6.1939481e-18 0)
(22.540471 0 0)
(22.538952 0 0)
(22.537438 0 0)
(22.535931 1.2199533e-17 6.0997665e-18)
(22.534429 -6.7483976e-30 -3.3741988e-30)
(22.532934 -1.2102743e-17 -6.0513714e-18)
(22.531445 0 0)
(22.529961 0 0)
(22.528484 0 -5.977034e-18)
(22.527013 0 1.6527015e-30)
(22.525548 0 -8.4219013e-34)
(22.524089 0 5.9007636e-18)
(22.522637 0 5.8749729e-18)
(22.521191 1.169801e-17 3.2474735e-30)
(22.519751 -3.2354219e-30 -1.6177109e-30)
(22.518319 -1.159283e-17 -5.7964152e-18)
(22.516892 -5.7697828e-18 0)
(22.515472 5.7429773e-18 0)
(22.514059 5.716023e-18 0)
(22.512652 -1.5805072e-30 0)
(22.511252 -3.1410363e-30 0)
(22.509859 -5.6342038e-18 5.6342038e-18)
(22.508473 5.6065552e-18 -3.1128609e-30)
(22.507093 -5.5787052e-18 -5.5787052e-18)
(22.505721 -5.5506814e-18 0)
(22.504355 5.5225137e-18 0)
(22.502996 5.4942344e-18 0)
(22.501644 -3.0339646e-30 0)
(22.500299 -5.4373336e-18 0)
(22.498962 -5.4086175e-18 0)
(22.497631 1.4923078e-30 0)
(22.496308 5.3506352e-18 5.3506352e-18)
(22.494991 5.3214576e-18 -2.9538133e-30)
(22.493682 -5.2922028e-18 -5.2922028e-18)
(22.492379 -5.2628595e-18 0)
(22.491085 5.2333782e-18 0)
(22.489798 -5.2037299e-18 0)
(22.488518 0 0)
(22.487245 5.1440218e-18 0)
(22.48598 5.1140364e-18 0)
(22.484721 -1.4102767e-30 0)
(22.483471 -5.0538419e-18 5.0538419e-18)
(22.482228 5.0235682e-18 -4.183407e-30)
(22.480993 -4.99316e-18 -4.99316e-18)
(22.479765 -4.9626453e-18 0)
(22.478544 4.9320608e-18 0)
(22.477331 -4.9014309e-18 0)
(22.476125 -1.352509e-30 0)
(22.474927 4.8399692e-18 0)
(22.473737 4.8090872e-18 0)
(22.472555 6.790107e-34 0)