/*--------------------------------*- C++ -*----------------------------------*\
  =========                 |
  \\      /  F ield         | OpenFOAM: The Open Source CFD Toolbox
   \\    /   O peration     | Website:  https://openfoam.org
    \\  /    A nd           | Version:  7
     \\/     M anipulation  |
\*---------------------------------------------------------------------------*/
FoamFile
{
    version     2.0;
    format      ascii;
    class       volScalarField;
    location    "0.00195";
    object      Uy;
}
// * * * * * * * * * * * * * * * * * * * * * * * * * * * * * * * * * * * * * //

dimensions      [0 1 -1 0 0 0 0];

internalField   nonuniform List<scalar> 
5000
(
7.7999482e-21
1.0725661e-20
0
0
-5.980833e-21
6.8361649e-36
6.1459912e-21
0
0
-6.5405511e-21
-1.3137123e-20
6.6052056e-21
6.6582604e-21
-6.7168572e-21
0
-6.7703849e-21
8.5704459e-50
6.9042639e-21
0
7.1731904e-21
-7.2139708e-21
-7.1955562e-21
1.4374981e-20
-7.1829892e-21
-7.2390146e-21
-6.056415e-35
7.4624456e-21
7.5387894e-21
-1.5134114e-20
1.3118048e-34
-1.3192392e-34
7.5234255e-21
1.4924115e-20
-1.4792537e-20
1.2918965e-34
-6.6445283e-34
-2.6816338e-34
1.5323283e-20
-1.5122311e-20
-1.5151212e-20
1.5343e-20
-5.2446127e-34
-1.4923236e-20
7.4614648e-21
2.3167725e-20
-7.8266298e-21
-7.6233415e-21
-5.1467941e-34
-1.5394017e-20
0
7.7555253e-21
1.0851612e-36
-7.6519821e-21
1.5549726e-20
-2.7158444e-34
-1.5031191e-20
7.4549783e-21
-2.6600684e-34
-7.911972e-21
0
7.9416566e-21
2.7282739e-34
2.2728321e-36
7.9202815e-21
-7.8379262e-21
2.7303389e-34
7.9088639e-21
-8.0141958e-21
-8.0446631e-21
8.0192161e-21
7.9892009e-21
-7.9652577e-21
-7.955249e-21
1.59507e-20
8.0047992e-21
-8.0308253e-21
0
8.0396768e-21
-1.1339692e-36
-7.897382e-21
7.8012083e-21
-2.2067636e-36
2.2320792e-36
7.9634433e-21
7.9987658e-21
2.7677843e-34
-7.8850812e-21
0
-7.7674138e-21
-8.0617802e-34
-2.7230651e-34
7.760781e-21
7.6972954e-21
-1.5210662e-20
-5.2183644e-34
7.531553e-21
0
0
-7.3212144e-21
-4.9879481e-34
1.4343581e-20
-7.2145996e-21
-1.4442631e-20
0
6.8681257e-21
6.6947189e-21
-6.7110524e-21
-6.8685404e-21
0
0
6.5625724e-21
6.2831859e-21
0
-6.34131e-21
2.2762116e-34
6.5310193e-21
-6.3391734e-21
1.7237161e-36
-2.0335436e-34
8.041119e-51
1.2113094e-20
-2.6230963e-36
-6.0739063e-21
0
-5.3292023e-21
5.2369355e-21
5.6240974e-21
-1.1804204e-20
-5.9560328e-21
1.1773629e-20
5.7967129e-21
-5.701407e-21
-5.6943703e-21
-5.6426793e-21
0
5.335878e-21
5.5407096e-21
-5.6821297e-21
-1.9634213e-34
5.4653796e-21
-5.0059645e-21
-4.9412854e-21
0
5.6411392e-21
5.6868801e-21
-5.5081445e-21
5.2732742e-21
-2.7828928e-36
-4.8947662e-21
5.2828499e-21
-5.5124986e-21
3.8545073e-34
5.3222408e-21
-4.916791e-21
4.7413487e-21
4.9544479e-21
-5.2665843e-21
0
0
-4.9830399e-21
-4.6763423e-21
4.6728868e-21
4.9857207e-21
-5.149287e-21
-3.4665572e-34
4.657357e-21
-4.4182937e-21
-4.5121918e-21
0
4.8595209e-21
4.659305e-21
0
-4.0452652e-21
-4.2414924e-21
0
4.429566e-21
8.7776883e-34
-3.7982576e-21
3.7076569e-21
3.9848059e-21
-4.050172e-21
-2.264083e-34
1.8710308e-34
1.2623143e-36
3.3687149e-21
-3.533146e-21
-4.7393448e-34
2.2558619e-34
-2.279358e-34
3.3730658e-21
0
0
-2.5180696e-21
-2.5075589e-21
0
0
2.9520006e-21
2.2704214e-50
-2.10886e-21
0
2.2091129e-21
-2.4881317e-21
-7.2276115e-34
5.1542697e-21
-2.3781676e-21
-4.3071005e-34
-2.7474282e-37
-2.1028085e-21
2.3290268e-21
-3.2879513e-37
-2.5169793e-34
1.0647991e-34
-1.7781145e-21
0
2.2586983e-21
1.5736809e-34
5.6064448e-34
1.469587e-21
0
-1.6397257e-21
-1.9669241e-21
0
0
0
2.1456733e-21
1.4354875e-34
-1.2973658e-21
0
0
1.5679084e-21
1.9509564e-21
-2.1547559e-21
-2.2492259e-21
0
1.0490813e-21
7.1070637e-22
-9.7135424e-22
-1.0981631e-21
0
1.7163841e-21
-5.363573e-34
-1.2699487e-34
1.0869174e-21
-5.7103934e-22
-7.7825553e-22
0
1.6202509e-21
-2.572171e-34
1.731867e-21
1.0806925e-34
-2.8402347e-22
4.1662162e-22
-1.3839035e-34
-5.1094279e-34
-1.2242166e-34
-1.4874717e-21
4.8144207e-23
-7.77673e-22
0
1.4639408e-22
-3.2052453e-22
0
9.8441028e-22
7.8767915e-22
2.7582469e-22
8.0102151e-22
-6.0225922e-22
-8.6845481e-23
6.2609683e-35
-2.462705e-22
-2.3707356e-22
7.616633e-35
1.2592264e-21
-8.4994557e-22
3.4991163e-35
-5.4785381e-35
5.3633839e-37
1.6690899e-34
-2.03076e-21
0
0
2.9536497e-21
3.881057e-21
0
0
0
0
-4.7545071e-21
-3.4692355e-34
9.352335e-21
-1.8757633e-36
-5.1078246e-21
-6.4809108e-21
9.7126501e-34
9.1436916e-34
8.9282798e-37
6.6829837e-21
8.1467067e-21
9.41715e-21
-1.8288645e-20
-2.6132158e-20
8.6205994e-21
1.7721062e-20
0
-1.3678669e-20
-1.5556505e-20
1.4395041e-20
-3.4201408e-36
5.1248141e-36
-3.9171012e-36
-1.6058708e-20
-1.8292214e-20
1.7796208e-20
3.1680297e-20
-1.7049744e-20
1.6276722e-49
-1.9451494e-20
-5.2903534e-33
3.7458249e-20
0
0
-4.9568019e-20
1.5257162e-32
5.4595229e-20
0
-2.5858861e-20
-2.8073768e-20
2.9928234e-20
-4.3331422e-36
4.190586e-33
-4.2678625e-36
-3.1169135e-20
3.4752371e-20
3.8061886e-20
0
-3.7321198e-20
5.1157929e-33
3.8817383e-20
-8.7810922e-20
1.2949018e-32
4.4687502e-20
1.2188336e-32
8.9711471e-20
-9.7860706e-20
-5.3083814e-20
5.5085761e-20
7.7445901e-36
5.3247272e-20
0
0
-6.3670928e-20
9.3005965e-33
1.320379e-19
-9.1884733e-36
-1.9554932e-19
6.8506102e-20
7.0725326e-20
-1.4536977e-19
7.5389309e-20
-7.9401862e-20
-1.6986252e-19
9.1801407e-20
8.7931487e-20
8.3035495e-20
-8.6112584e-20
6.3901422e-50
9.2591738e-20
-9.6791865e-20
1.0293919e-19
-1.0994594e-19
-3.0143389e-32
-2.9731424e-35
-1.0608618e-19
2.2018507e-19
-1.1640328e-19
-3.4412261e-32
3.5507364e-32
1.2718959e-19
2.5261456e-19
-3.8765747e-19
-3.7296663e-32
7.8155109e-32
-4.0798298e-32
3.0147021e-19
-3.0325338e-19
4.2496383e-32
3.1409646e-19
0
0
-1.7376601e-19
2.4542351e-32
1.7922883e-19
1.8298744e-19
-1.8883415e-19
-5.8712151e-19
2.0226189e-19
2.0655204e-19
5.9376049e-35
2.1225424e-19
0
-4.5137857e-19
-4.6714103e-19
2.4065153e-19
4.931012e-19
2.5128685e-19
-5.1316417e-19
-5.2662082e-19
5.4212624e-19
5.5756055e-19
0
-5.8578572e-19
3.0053691e-19
6.1790059e-19
-3.1736581e-19
-3.2496212e-19
4.7167208e-35
-4.7107524e-32
-3.4801753e-19
3.5805023e-19
3.6848158e-19
-3.7820537e-19
5.3663999e-32
5.6186164e-35
5.610918e-32
4.1465986e-19
-4.2536021e-19
1.817121e-31
6.2094318e-32
1.2715597e-31
4.6874115e-19
-4.7892665e-19
6.7932827e-32
1.3882817e-31
7.2990813e-35
1.054607e-18
5.4028646e-19
-5.5163065e-19
-1.1240842e-18
7.9588521e-32
1.1726857e-18
6.0116112e-19
-1.2330707e-18
-6.3115563e-19
6.4449022e-19
6.5715307e-19
1.8601409e-31
-6.8431911e-19
0
0
-7.3023869e-19
0
7.6134916e-19
-7.7686475e-19
-1.1261702e-34
2.2439078e-31
0
8.4255416e-19
-8.5983659e-19
-8.7658704e-19
1.7860131e-18
9.0996136e-19
-9.2820757e-19
0
0
9.8571668e-19
-2.7864921e-31
-1.0200344e-18
0
0
1.079728e-18
-4.58715e-31
-1.1210338e-18
0
0
0
0
0
0
0
0
-2.6210064e-18
-7.4062593e-31
1.3580408e-18
-1.3808516e-18
1.4027896e-18
-1.4247878e-18
4.0242777e-31
1.47201e-18
4.1573768e-31
1.5226927e-18
0
0
-1.5967065e-18
-4.5004789e-31
1.6455992e-18
0
0
0
0
0
0
0
-3.7153584e-18
1.5698989e-30
3.8274999e-18
-1.9414481e-18
-2.7987227e-34
-1.9979868e-18
1.1239169e-30
4.1111881e-18
2.0839725e-18
-1.3874416e-48
-6.4233083e-18
0
4.4013991e-18
0
0
-4.5837458e-18
6.4412361e-31
7.057263e-18
-2.3832657e-18
-2.4144438e-18
2.4455427e-18
-2.4763095e-18
2.5069848e-18
7.0406665e-31
-2.5701166e-18
2.6028102e-18
0
2.6682291e-18
-2.7002425e-18
-5.4639346e-18
2.7639207e-18
2.7965608e-18
2.8299414e-18
2.8636427e-18
-5.7942594e-18
-2.9302668e-18
2.9634365e-18
0
-3.0311155e-18
3.0650475e-18
3.0985162e-18
-9.3954659e-18
-8.9973571e-34
6.400787e-18
-3.2356082e-18
-4.5407988e-31
-3.3047473e-18
9.4888929e-34
6.7455265e-18
-3.4075504e-18
0
9.6579016e-31
4.9925294e-34
3.5480757e-18
-3.582761e-18
1.0044583e-30
5.0653324e-31
5.2400819e-34
3.723366e-18
-3.759518e-18
1.7097718e-48
1.0634362e-30
5.4910017e-34
7.7973231e-18
5.4568615e-31
-3.9707092e-18
0
0
4.0770932e-18
1.7107781e-30
-4.1463609e-18
4.1819613e-18
-5.8564565e-31
6.8545123e-48
5.9559629e-31
-4.3245501e-18
-4.3589217e-18
-6.0937195e-31
4.4286125e-18
0
0
-4.5336699e-18
4.5682706e-18
-3.8321008e-30
-4.6386916e-18
4.6738912e-18
0
-4.7415589e-18
-4.7747317e-18
4.8085788e-18
4.843307e-18
0
-4.9128189e-18
-4.946431e-18
9.9587821e-18
5.0121817e-18
-5.0451657e-18
-5.0784589e-18
-7.0901711e-31
-5.1453505e-18
-1.4379107e-30
1.0421217e-17
0
0
0
-5.3388426e-18
-5.3710636e-18
0
5.4336446e-18
7.5711147e-31
-5.4950267e-18
0
0
5.5874442e-18
7.7914337e-31
-7.8244897e-31
5.6765517e-18
-5.7059653e-18
2.3864807e-30
5.7646857e-18
0
5.8216032e-18
8.1216154e-31
-5.8777107e-18
5.9057779e-18
-5.9335001e-18
-5.960696e-18
5.9874738e-18
0
-6.0404974e-18
-6.0667821e-18
6.0928122e-18
6.118488e-18
0
6.168423e-18
-6.1928893e-18
-6.2174063e-18
6.2420356e-18
1.2532842e-17
-3.4932511e-30
-1.8938471e-17
1.0795122e-48
6.3575388e-18
1.2760539e-17
-3.5522874e-30
-1.2849823e-17
6.4459954e-18
-6.4664413e-18
6.4867699e-18
6.507289e-18
-1.3055707e-17
0
0
1.3172147e-17
-7.0299504e-48
-1.3245245e-17
0
0
1.3352722e-17
-6.4129812e-48
-1.3419061e-17
0
0
1.3515062e-17
6.7725481e-18
-1.3574499e-17
-6.8018928e-18
0
1.3660508e-17
-3.8005232e-30
-1.3711849e-17
6.8684441e-18
0
-6.8933394e-18
6.9049672e-18
-9.8280304e-34
-6.9263805e-18
6.9368402e-18
-6.9471575e-18
-6.9569743e-18
6.9661001e-18
6.9747741e-18
-1.9391328e-30
-6.9917498e-18
6.9996785e-18
1.9456795e-30
-7.0136482e-18
7.0202487e-18
-7.026785e-18
-7.0329468e-18
7.0383755e-18
7.043131e-18
-1.9569887e-30
-7.0521439e-18
7.056507e-18
-1.0033309e-33
-7.0633567e-18
7.0658645e-18
-7.0682305e-18
-7.0705521e-18
7.072413e-18
1.4147073e-17
-3.9307215e-30
-1.4149208e-17
7.0749269e-18
-1.0054049e-33
-1.4148718e-17
-2.0103515e-33
7.0717293e-18
0
-7.067744e-18
0
7.0624653e-18
0
0
0
7.0469447e-18
2.3539851e-49
-7.0371952e-18
0
-7.0258268e-18
1.9491849e-30
7.0129171e-18
0
0
0
6.9831086e-18
-1.9367286e-30
-6.9658975e-18
0
-6.9474102e-18
-1.9254668e-30
6.9275694e-18
0
-6.9062601e-18
6.8950777e-18
-3.8248181e-30
-6.8717524e-18
6.859619e-18
0
6.8343086e-18
1.8940842e-30
-6.8075646e-18
0
-6.7796322e-18
6.7652263e-18
3.7489428e-30
-6.7353515e-18
3.7310095e-30
9.5271696e-34
-1.8581071e-30
9.4811759e-34
6.6551405e-18
0
-6.6209297e-18
1.8326894e-30
1.8277434e-30
-8.7955086e-49
1.8185444e-30
0
1.3022512e-17
1.8026751e-30
-6.472336e-18
6.4525393e-18
-1.7852594e-30
-6.4121311e-18
-6.3914594e-18
-1.768961e-30
1.7630716e-30
-6.327843e-18
6.3061487e-18
6.2842069e-18
0
6.2396157e-18
-1.7263163e-30
-6.1939481e-18
0
0
0
1.2199533e-17
-6.7483976e-30
-1.2102743e-17
0
0
0
0
0
0
0
1.169801e-17
-3.2354219e-30
-1.159283e-17
-5.7697828e-18
5.7429773e-18
5.716023e-18
-1.5805072e-30
-3.1410363e-30
-5.6342038e-18
5.6065552e-18
-5.5787052e-18
-5.5506814e-18
5.5225137e-18
5.4942344e-18
-3.0339646e-30
-5.4373336e-18
-5.4086175e-18
1.4923078e-30
5.3506352e-18
5.3214576e-18
-5.2922028e-18
-5.2628595e-18
5.2333782e-18
-5.2037299e-18
0
5.1440218e-18
5.1140364e-18
-1.4102767e-30
-5.0538419e-18
5.0235682e-18
-4.99316e-18
-4.9626453e-18
4.9320608e-18
-4.9014309e-18
-1.352509e-30
4.8399692e-18
4.8090872e-18
6.790107e-34
-9.4941514e-18
-2.6184079e-30
4.6848782e-18
4.6536988e-18
0
-4.5911651e-18
0
0
0
-4.4655547e-18
-4.4340719e-18
4.4025788e-18
4.371061e-18
0
-4.3079073e-18
1.1880507e-30
4.2446986e-18
0
0
-4.1499267e-18
2.2859783e-30
4.086713e-18
0
0
-3.9919576e-18
2.1983222e-30
3.9288887e-18
0
-3.8660215e-18
1.0647927e-30
-1.0555269e-30
1.0473489e-30
3.7404444e-18
0
3.6780344e-18
-2.0238011e-30
-3.6158264e-18
0
-3.5537197e-18
3.5227623e-18
3.4919019e-18
-6.9222884e-18
-9.5354855e-31
6.7997118e-18
-9.355856e-31
-3.3388019e-18
0
0
-3.2478848e-18
8.9305021e-31
3.1877202e-18
0
-3.1279881e-18
3.0982856e-18
3.0686695e-18
-3.0391384e-18
0
2.9804098e-18
-2.9512614e-18
-1.6220658e-30
1.6060133e-30
-2.8644943e-18
2.3615078e-30
-2.8071931e-18
2.778773e-18
-7.6336869e-31
1.5118874e-30
5.3886343e-18
-7.3964801e-31
-2.6386278e-18
0
0
0
5.0581034e-18
2.5019917e-18
-4.9501965e-18
-2.448386e-18
0
0
-2.3691349e-18
-1.255327e-48
2.3170176e-18
0
4.531276e-18
2.24019e-18
-4.4297626e-18
-2.1897193e-18
0
4.27986e-18
6.0120785e-34
-6.2725723e-18
5.732539e-31
4.0848208e-18
-2.0184504e-18
-1.1338513e-33
1.9711213e-18
-5.4111756e-31
-1.0676692e-30
-1.9013416e-18
0
-1.8556804e-18
1.0178083e-30
3.6216953e-18
-1.7886853e-18
2.9414105e-30
1.7448224e-18
-3.4463007e-18
2.4182212e-34
1.6804011e-18
0
0
0
1.5971439e-18
-1.5767438e-18
-3.113057e-18
1.5365226e-18
4.2116443e-31
4.1529204e-31
1.477656e-18
0
-1.4392315e-18
2.0183608e-34
2.8031431e-18
-1.3830473e-18
-7.5712147e-31
1.3464996e-18
1.3284611e-18
-7.282245e-31
-2.5858563e-18
0
-1.2582014e-18
-1.2410977e-18
0
1.207359e-18
1.1907487e-18
-1.1743354e-18
0
1.1420586e-18
0
0
-1.0948481e-18
8.9893816e-31
1.0642903e-18
0
0
-1.0196948e-18
-1.0051287e-18
9.9073546e-19
9.765338e-19
-9.6251766e-19
-9.4866317e-19
1.869911e-18
9.2139325e-19
-2.5225685e-31
-8.9472622e-19
4.8913144e-31
4.8197201e-31
-8.5599671e-19
8.4339491e-19
-8.3093174e-19
8.1861249e-19
6.8762267e-34
-7.944573e-19
1.5652395e-18
7.7092614e-19
7.5936552e-19
-1.4958864e-18
-1.4733443e-18
7.2555531e-19
-7.1458597e-19
7.0375112e-19
-3.8488826e-31
-1.364941e-18
6.7204853e-19
-1.8366756e-31
1.8103917e-31
6.4162193e-19
0
0
-6.1232352e-19
-6.0284334e-19
0
5.8426093e-19
5.7513335e-19
0
5.572392e-19
-1.5230805e-31
-5.3989358e-19
5.3139869e-19
-1.4507935e-31
-5.1470877e-19
0
-4.9848446e-19
-2.7237296e-31
4.8276708e-19
-4.7506333e-19
1.2960161e-31
4.5992753e-19
4.5252553e-19
1.2357365e-31
-4.3808838e-19
0
4.2405104e-19
-4.1716003e-19
1.1663461e-34
-2.2419773e-31
-3.9713266e-19
3.9066233e-19
0
7.5591328e-19
-8.2536182e-31
-3.6562135e-19
-1.9961413e-31
-7.0740607e-19
6.9573662e-19
6.841962e-19
-6.7279364e-19
-6.6157928e-19
-3.2529013e-19
0
3.145668e-19
6.1862612e-19
-4.3217451e-35
2.9898381e-19
-2.9394109e-19
-2.8899644e-19
2.8413852e-19
-5.5870698e-19
5.4925714e-19
4.4961632e-31
-5.3069942e-19
5.2165126e-19
-1.4231414e-31
2.5202274e-19
-2.4772172e-19
-2.4347226e-19
2.3927522e-19
6.5228696e-32
4.6219165e-19
-4.5423559e-19
-4.4640503e-19
4.3867536e-19
5.9814374e-32
2.1175494e-19
-1.1554973e-31
-2.0444027e-19
-5.5751689e-32
-6.7222756e-49
-1.938957e-19
-3.8093471e-19
1.8709936e-19
1.4169002e-48
1.8055606e-19
2.9545361e-31
-1.7421278e-19
3.4220405e-19
-9.3277338e-32
-3.3008881e-19
-1.4057547e-49
1.5919782e-19
0
0
1.5070061e-19
-1.4797227e-19
-2.9060157e-19
0
0
0
1.3498494e-19
1.3248554e-19
0
-1.2764684e-19
1.2529884e-19
2.0483681e-31
-2.4141571e-19
0
0
0
1.1189172e-19
1.0978305e-19
-1.0771517e-19
1.0568334e-19
5.7581076e-32
-2.0341977e-19
0
0
1.9190304e-19
-2.6744019e-35
-9.2281239e-20
9.0500287e-20
-8.8750694e-20
8.7023682e-20
-4.7378786e-32
-1.6724439e-19
0
0
7.8762886e-20
7.7203747e-20
0
0
-7.2637864e-20
-7.1173024e-20
0
6.8328528e-20
6.6930096e-20
-6.5547484e-20
6.4192024e-20
6.286857e-20
-6.1575874e-20
-6.0306409e-20
3.2792558e-32
5.7797436e-20
-5.6569636e-20
-1.5367839e-32
5.420496e-20
0
5.1936213e-20
-2.8211447e-32
-4.9698452e-20
4.861161e-20
-2.6403473e-32
-4.6526972e-20
0
4.4525324e-20
-1.208773e-32
-6.0463595e-36
4.1586032e-20
-4.0650949e-20
-3.9740072e-20
0
7.5938376e-20
-4.120904e-32
-3.6243535e-20
-5.030394e-36
-6.9140357e-20
6.7525965e-20
6.5951353e-20
-6.4416632e-20
-3.145638e-20
0
5.992082e-20
-4.8658098e-32
-5.7023967e-20
0
5.4317757e-20
1.4723619e-32
-2.5864371e-20
-7.0005275e-33
-4.9127924e-20
4.7870848e-20
5.8267765e-32
-4.5488403e-20
4.4353832e-20
-1.1996826e-32
-4.2138831e-20
-2.0526064e-20
3.9963548e-20
1.9443504e-20
-3.784085e-20
3.6830876e-20
4.4783023e-32
-3.4926651e-20
3.4011435e-20
-4.5936951e-33
1.6078422e-20
-1.7335909e-32
-4.5557323e-20
8.1971865e-33
2.87357e-20
-1.397334e-20
-2.7146643e-20
1.3173014e-20
-7.0974766e-33
1.2409201e-20
1.3387044e-32
-1.1711527e-20
2.2752067e-20
-9.190876e-33
1.1875768e-32
-5.7489095e-33
-1.0040883e-20
0
-9.4372525e-21
-9.1538196e-21
0
0
0
0
0
7.5111632e-21
7.276577e-21
0
-6.8011316e-21
6.5545659e-21
1.0522331e-32
-1.2187162e-20
0
0
0
5.2912519e-21
5.0716705e-21
-4.8712267e-21
-4.6883533e-21
9.0450375e-21
7.2833966e-33
-8.4274707e-21
0
7.6810464e-21
6.1087448e-33
-3.5134904e-21
3.3747507e-21
-3.2500723e-21
3.1255919e-21
1.6555936e-33
-5.6514242e-21
0
0
2.4233889e-21
2.3168383e-21
0
2.1076511e-21
5.6347568e-37
1.8547404e-21
1.7401781e-21
-1.6387614e-21
0
-2.9427958e-21
-2.7728349e-21
0
3.5321924e-21
2.1582181e-21
-1.9882303e-21
9.2300992e-22
8.6183012e-22
-2.3887053e-21
-7.157283e-22
-8.9108903e-38
-5.439728e-22
4.7257615e-22
4.1467241e-22
3.6701939e-22
2.6324076e-51
2.5605275e-22
1.8684164e-22
-1.1902701e-22
0
-2.211232e-23
5.6696864e-23
0
-1.1766053e-22
-3.4037618e-22
-1.2314734e-34
-2.6640299e-22
-6.0002225e-22
6.5680139e-22
7.2297567e-22
4.0234704e-22
4.4730649e-22
0
-5.2645692e-22
-1.6467282e-21
5.6552128e-22
-1.4047254e-49
-1.844942e-21
1.2949865e-21
6.8070723e-22
7.0936713e-22
1.4635789e-21
-1.5037089e-21
-7.726934e-22
7.9275183e-22
8.098544e-22
8.2399831e-22
-2.5152327e-21
-8.5449374e-22
2.6174495e-21
8.9041327e-22
-9.0495754e-22
-1.8304263e-21
9.2389813e-22
-9.3559066e-22
1.5849759e-33
-1.6133928e-33
-2.9333182e-21
9.7626135e-22
9.7323222e-22
1.9515469e-21
9.8815406e-22
-2.0222863e-21
-2.9315682e-37
-1.0374563e-21
1.0293915e-21
3.0646442e-21
-3.055247e-21
-1.023679e-21
3.1248148e-21
0
-3.2137716e-21
-1.0666411e-21
3.1745027e-21
-1.0531178e-21
-2.1058648e-21
-5.8830022e-34
1.189887e-33
1.0815978e-21
0
2.1518208e-21
2.1407888e-21
-1.0668248e-21
-1.0669987e-21
-2.1496659e-21
1.0860089e-21
1.0911222e-21
-2.1732439e-21
0
2.141094e-21
2.1339234e-21
-1.069748e-21
-2.1574055e-21
6.0214152e-34
1.0837492e-21
-2.1583773e-21
1.0740613e-21
-3.570462e-33
-2.151243e-21
1.079946e-21
0
2.1472549e-21
0
-2.3566113e-33
-1.062239e-21
-2.139407e-21
3.2306021e-21
-3.0635319e-37
-2.1460056e-21
0
2.1274578e-21
1.0614059e-21
-2.1219945e-21
1.1802929e-33
1.0659991e-21
-2.1301756e-21
1.0583641e-21
-1.7504914e-33
-2.0904404e-21
1.0425384e-21
-1.0481925e-21
2.1166295e-21
3.1913125e-21
0
-3.1388135e-21
-2.0751289e-21
3.0966982e-21
2.0607825e-21
-1.0334744e-21
-2.0762325e-21
1.0422664e-21
1.0460836e-21
-2.0897459e-21
1.0368932e-21
2.0526942e-21
-1.0165236e-21
1.4365664e-37
-2.0255866e-21
-2.042278e-21
3.083529e-21
-1.0282336e-21
-1.7028502e-33
3.0439666e-21
0
-3.0157575e-21
-2.0046677e-21
1.002752e-21
1.0062228e-21
1.008698e-21
0
9.9697614e-22
-5.4808154e-34
-1.9609541e-21
5.4348177e-34
9.8621308e-22
0
9.8822019e-22
-1.956846e-21
-2.900921e-21
1.92131e-21
2.8888981e-21
9.7246521e-22
-9.7697552e-22
-1.9415881e-21
9.5825394e-22
-9.4591785e-22
-9.3982345e-22
1.8849582e-21
-1.9023119e-21
-9.568773e-22
2.8669501e-21
1.901501e-21
-9.4611284e-22
-2.8309647e-21
2.0894458e-33
-2.0807292e-33
-9.3213778e-22
-1.0283403e-33
-9.2305302e-22
9.2479322e-22
9.3020924e-22
9.3362561e-22
-9.2917276e-22
-9.1952863e-22
2.7359946e-21
-9.0705116e-22
-1.811317e-21
2.7297964e-21
2.6057344e-37
-9.2155039e-22
1.8386186e-21
9.1045502e-22
0
-8.9666101e-22
-8.9527332e-22
-1.7985523e-21
9.0531937e-22
-3.0284479e-33
-2.7278019e-21
9.0735224e-22
9.0584243e-22
9.0323151e-22
-8.9856417e-22
-8.9408267e-22
2.6736382e-21
-8.9265311e-22
-1.8004976e-21
-1.512437e-33
-9.0858046e-22
1.7997758e-21
2.67248e-21
4.9162632e-34
-4.9286136e-34
-1.2774708e-37
-9.1063618e-22
-1.8277129e-21
-9.0682307e-22
2.6964394e-21
-9.930765e-34
-1.7906868e-21
0
0
9.1858832e-22
-5.0776942e-34
5.0445644e-34
9.0608206e-22
-1.8136463e-21
-9.1265354e-22
-1.0204432e-33
9.2254668e-22
2.7617209e-21
9.1728433e-22
0
0
0
-2.7941149e-21
-1.8590072e-21
2.7769078e-21
-1.0256404e-33
-1.8497781e-21
0
0
1.8712957e-21
-2.0685553e-33
-1.0295541e-33
1.8558353e-21
-9.3531398e-22
-1.8903151e-21
-1.8970567e-21
9.4147908e-22
2.7986437e-21
9.2778445e-22
0
0
0
-2.8507031e-21
-1.8964886e-21
2.8342944e-21
-2.0954864e-33
-9.4595159e-22
1.3461003e-37
-9.445061e-22
1.8802612e-21
-1.0386048e-33
-9.3425116e-22
1.877916e-21
0
-5.2898436e-34
-1.8989451e-21
-1.8809507e-21
2.8006358e-21
1.8576273e-21
-9.273012e-22
-5.1723741e-34
9.3999133e-22
-2.8288954e-21
-1.8761878e-21
9.2988606e-22
9.2231689e-22
-9.1870392e-22
-9.2091237e-22
9.2614409e-22
9.2885524e-22
-5.1346121e-34
5.0954004e-34
9.1377268e-22
0
9.15588e-22
-1.8283532e-21
-2.7176442e-21
1.7887516e-21
1.7758262e-21
8.9129469e-22
-1.0026673e-33
-1.8186542e-21
9.0143386e-22
-8.8313036e-22
-8.6417258e-22
1.7109641e-21
-1.724994e-21
-8.7935489e-22
8.9197306e-22
1.7821732e-21
8.7714313e-22
-1.7245313e-21
4.7271131e-34
-8.483531e-22
-8.5342332e-22
2.5865071e-21
-8.6641896e-22
-8.6118497e-22
2.5487446e-21
-1.1927352e-37
-2.4973913e-21
-8.3105672e-22
2.5103934e-21
-8.445395e-22
-4.3195434e-50
-1.3875719e-33
-1.6397279e-21
1.617549e-21
1.6089511e-21
-8.093744e-22
9.0918232e-34
1.6477139e-21
-8.186251e-22
-2.4177277e-21
-7.9404066e-22
7.8720549e-22
0
7.9522435e-22
1.6047336e-21
-1.1381674e-37
-2.3693973e-21
-7.782815e-22
1.5411085e-21
-1.0920672e-37
-1.5482568e-21
1.5646991e-21
-1.3054059e-33
-1.5508481e-21
2.2913016e-21
1.5088887e-21
0
0
-7.6021596e-22
-2.2903471e-21
-7.6021502e-22
2.2604021e-21
-8.2976989e-34
-1.4890205e-21
1.4889295e-21
1.4902009e-21
-7.4309953e-22
-1.4788289e-21
7.3625451e-22
7.3521653e-22
-2.2107948e-21
-7.3682219e-22
-1.2176801e-33
4.0170672e-34
7.19073e-22
-7.178184e-22
1.4435941e-21
2.1770249e-21
0
-2.1519654e-21
-1.4194025e-21
2.1180374e-21
-2.010798e-37
-7.1344649e-22
1.4319626e-21
-7.1162144e-22
-7.0426756e-22
-7.7479145e-34
6.9615738e-22
1.3997346e-21
-7.0577813e-22
-1.4148786e-21
-1.4030235e-21
7.707499e-34
6.896509e-22
-6.8905974e-22
1.386723e-21
2.0917594e-21
0
-2.0787532e-21
-1.377109e-21
2.0612486e-21
-7.6518136e-34
-6.9131523e-22
6.9038127e-22
6.8574103e-22
-3.7756462e-34
-1.3570822e-21
3.7778094e-34
1.3694174e-21
-7.6264952e-34
-7.6068881e-34
-1.3633982e-21
-2.0411192e-21
1.36486e-21
-7.5880321e-34
-2.2642625e-33
6.72735e-22
6.6464549e-22
1.326108e-21
-2.0128021e-21
-6.8409547e-22
1.383276e-21
-1.3720279e-21
-3.8071844e-37
1.9639882e-21
6.4819696e-22
-6.5479298e-22
-2.0148003e-21
2.2832364e-33
1.3824067e-21
6.8646765e-22
-1.3492599e-21
-1.9933205e-21
1.9742065e-21
6.5706812e-22
7.3675934e-34
6.7494234e-22
-1.3710034e-21
3.8203286e-34
-6.8027469e-22
6.6732122e-22
-2.186778e-33
-1.9596908e-21
1.9817604e-21
2.024164e-21
0
0
0
-6.6562701e-22
-1.9710205e-21
-6.5636268e-22
-7.3889994e-34
-6.7850114e-22
2.0619819e-21
6.8636098e-22
-6.7697227e-22
-6.6828562e-22
-6.6341797e-22
1.3277168e-21
-6.7146197e-22
6.813273e-22
-2.282806e-33
-1.3631207e-21
2.0255184e-21
1.3405798e-21
0
-1.3480929e-21
-7.5619257e-34
6.842393e-22
-2.0380275e-21
-6.7284649e-22
6.6882848e-22
0
0
6.8638752e-22
1.3759861e-21
-1.5075264e-33
-1.3378091e-21
-6.6284793e-22
6.6368218e-22
-6.7355025e-22
6.8554782e-22
1.8066677e-50
-1.1422666e-33
2.0300072e-21
0
0
-1.3406854e-21
-1.3545028e-21
-6.8363508e-22
7.6155842e-34
2.0532969e-21
-7.5703043e-34
-1.3588258e-21
0
1.3507278e-21
6.7453033e-22
-1.3523478e-21
6.8029142e-22
6.8322338e-22
-2.0465633e-21
6.7744932e-22
-2.2395085e-33
-1.3407378e-21
2.0176067e-21
1.3569029e-21
0
0
0
-2.0048399e-21
-1.3351947e-21
2.016841e-21
1.3588286e-21
0
-1.3516461e-21
7.413146e-34
6.6273871e-22
-1.3244806e-21
6.6732523e-22
-6.7443213e-22
-6.7783429e-22
2.0244658e-21
-1.3390581e-21
-1.3323029e-21
6.6501063e-22
-6.6546071e-22
1.3324185e-21
1.9984513e-21
0
-1.998817e-21
-1.3330827e-21
6.6481603e-22
6.604664e-22
-7.2797911e-34
6.5355077e-22
-2.1825615e-33
-6.6031653e-22
-3.6802456e-34
-1.5502239e-51
6.5288407e-22
0
6.4449142e-22
-1.295481e-21
-1.9622003e-21
1.9693693e-21
1.9546609e-21
0
-1.2796553e-21
-1.2785879e-21
1.2878012e-21
-6.4960204e-22
-6.4990014e-22
1.9274514e-21
-1.2686041e-21
-1.2592245e-21
6.2961355e-22
1.270404e-21
6.4160526e-22
-1.9293677e-21
-6.3803824e-22
-1.0519447e-33
1.2562582e-21
3.5654291e-37
-1.8858772e-21
1.2606871e-21
1.8901426e-21
6.2828982e-22
-1.8818902e-21
-1.2555073e-21
1.8810817e-21
-1.384445e-33
-1.2378483e-21
-6.1517964e-22
3.4115022e-34
1.2360624e-21
-6.9111773e-34
6.2288453e-22
6.1681311e-22
-1.8303107e-21
-6.0641163e-22
-6.73754e-34
1.2247584e-21
-2.0556197e-33
-1.8490382e-21
1.2192599e-21
-6.6966209e-34
-6.6656551e-34
-1.336183e-33
-6.0782479e-22
1.836869e-21
-6.107257e-22
-1.0054959e-33
-1.9898825e-33
-1.784471e-21
5.9669001e-22
1.2050901e-21
-6.7316663e-34
6.0453377e-22
5.9850223e-22
-1.1858492e-21
-1.1821877e-21
6.587814e-34
1.7967461e-21
-6.6828933e-34
-6.0059164e-22
1.1932667e-21
-5.9345551e-22
-5.9275878e-22
3.2949754e-34
-3.2982001e-34
5.9067223e-22
-1.1721857e-21
5.8369549e-22
-1.9501474e-33
-1.9716922e-33
1.7981625e-21
-1.1991064e-21
1.6744793e-37
1.1538003e-21
-5.6933188e-22
-1.7075763e-21
-5.7703346e-22
1.7617243e-21
-6.5905446e-34
-5.936772e-22
1.1768113e-21
-1.16379e-21
-2.8837423e-33
5.7420391e-22
-5.7263265e-22
5.7347391e-22
-1.1550388e-21
5.8301112e-22
1.7579816e-21
0
0
-1.1317664e-21
-1.5972944e-37
1.1273412e-21
-5.7128684e-22
-1.7385272e-21
-5.8102384e-22
1.7207137e-21
1.600668e-37
6.1686461e-34
1.1077796e-21
-1.6753566e-21
-2.8289747e-33
5.7198753e-22
-5.7129028e-22
-5.6424087e-22
6.1865842e-34
5.5281061e-22
-1.1045776e-21
1.111618e-21
-1.8663172e-33
-1.1226477e-21
1.6700318e-21
1.102126e-21
-5.4770214e-22
-1.6416665e-21
-5.5015828e-22
5.5248219e-22
0
-5.453031e-22
5.3965402e-22
1.6123206e-21
2.9949389e-34
-1.089517e-21
5.4678335e-22
5.4200338e-22
-1.0654851e-21
5.2461621e-22
-5.220016e-22
-1.0516626e-21
1.6006947e-21
-1.7976605e-33
1.1979889e-33
1.0634824e-21
-1.0446126e-21
-5.161933e-22
-5.1424841e-22
-5.7360208e-34
5.2039036e-22
-1.0471502e-21
1.047633e-21
1.5635036e-21
0
-5.1507044e-22
2.8445554e-34
1.4499337e-37
-1.5251212e-21
-5.0754247e-22
1.5238604e-21
-5.0823055e-22
-1.6558446e-50
1.5123433e-21
-5.0106744e-22
-1.4980496e-21
-4.990827e-22
9.9756345e-22
-4.9693029e-22
4.9337328e-22
-1.6308757e-33
-9.7660386e-22
1.4696058e-21
5.4776199e-34
-2.1895778e-33
9.7400055e-22
-9.5911825e-22
-5.268621e-34
4.7419593e-22
-9.5683609e-22
-4.8380257e-22
0
0
9.418697e-22
-1.0359078e-33
-2.6499486e-37
-5.2136683e-34
-4.7285867e-22
-4.7189954e-22
4.6629786e-22
4.6050847e-22
-9.161133e-22
9.1872111e-22
-5.1444889e-34
-9.2925288e-22
9.2089725e-22
1.5104632e-33
-4.9726852e-34
4.4687412e-22
-9.0064411e-22
4.5553924e-22
-1.0135732e-33
-9.020452e-22
0
8.7642568e-22
4.3774528e-22
-8.8356931e-22
-4.4714242e-22
4.4790812e-22
-7.3564474e-34
-4.3387188e-22
0
0
8.6750859e-22
8.7898434e-22
0
-8.6745818e-22
-4.2532614e-22
4.1993249e-22
-4.1981851e-22
4.2456192e-22
0
-8.6544671e-22
0
0
4.1692391e-22
-4.6176311e-34
-4.185033e-22
0
4.2278364e-22
2.327995e-34
-4.152828e-22
0
8.3096206e-22
8.3923797e-22
-4.2094064e-22
-4.625914e-34
4.0954299e-22
-8.0784696e-22
-8.0778289e-22
8.1886604e-22
1.1855042e-37
9.3555782e-34
1.1889735e-37
-8.196067e-22
4.025911e-22
-4.4443693e-34
4.0360355e-22
-4.1109734e-22
-1.254022e-21
1.259681e-21
4.1521149e-22
-4.0816117e-22
-4.4812293e-34
-4.0316098e-22
8.1299233e-22
8.2470241e-22
-8.3558627e-22
-1.3960608e-33
-4.153216e-22
-4.0917084e-22
8.0983903e-22
-4.0480216e-22
4.5415316e-34
-2.3112973e-34
4.2233341e-22
8.4606935e-22
-8.3387694e-22
-8.1987528e-22
0
4.0825176e-22
4.6038202e-34
-8.4479205e-22
-4.7283534e-34
1.2695529e-21
8.3453126e-22
0
-8.2648093e-22
-9.2817083e-34
-4.251742e-22
-4.2952368e-22
1.2845902e-21
-2.3452172e-34
-8.3569531e-22
4.1725817e-22
8.4262441e-22
-4.2854824e-22
-8.6827624e-22
-4.3337779e-22
0
8.3938104e-22
-4.1737261e-22
-1.2622092e-21
4.2955988e-22
4.3863321e-22
8.8395206e-22
4.3623909e-22
-8.5035184e-22
-4.1676275e-22
-4.1474235e-22
4.6616118e-34
4.299028e-22
4.387476e-22
8.8526621e-22
4.4022845e-22
0
0
0
-8.4209844e-22
-8.4469846e-22
8.5296889e-22
4.7886594e-34
4.8294978e-34
-4.8356146e-34
-9.6057365e-34
8.5519665e-22
0
-8.419989e-22
-4.1985948e-22
4.1985126e-22
-4.2108738e-22
-4.23206e-22
0
0
8.3937313e-22
-1.3727557e-33
-9.0166137e-34
8.0871638e-22
-8.1483981e-22
-8.2623489e-22
0
8.2614659e-22
-4.4734116e-34
-7.8752506e-22
7.7847536e-22
4.3368047e-34
-7.9360436e-22
0
8.0314569e-22
3.9232606e-22
-7.6247575e-22
3.7417858e-22
8.2849527e-34
-7.5390725e-22
7.6397343e-22
7.6657579e-22
0
0
0
-7.1271677e-22
-7.1319015e-22
7.1947952e-22
0
-7.1807052e-22
0
-3.4361814e-22
6.7794446e-22
3.3765487e-22
-3.3896356e-22
6.793436e-22
3.3671967e-22
-6.6001823e-22
-3.2350696e-22
-3.552188e-34
3.1928165e-22
-7.1147764e-34
1.8154979e-37
6.2825861e-22
0
-3.0102579e-22
-5.9858708e-22
-3.0082378e-22
0
0
0
-2.863238e-22
5.6258877e-22
2.8081005e-22
-2.83655e-22
-2.8658098e-22
2.8513715e-22
2.7766951e-22
-5.3891724e-22
0
5.3134099e-22
5.3893627e-22
0
0
-5.3219915e-22
-2.8699111e-34
-2.5443066e-22
-2.5488662e-22
2.5850284e-22
-2.6233602e-22
2.628662e-22
5.1786949e-22
2.5405586e-22
0
-5.0495111e-22
-2.8335341e-34
2.5757887e-22
-2.5719845e-22
-2.5435551e-22
-5.040863e-22
5.0525904e-22
2.5575805e-22
-7.3835811e-38
2.6126012e-22
-5.1746685e-22
2.5528232e-22
-2.5432715e-22
1.4194093e-50
2.6293194e-22
-5.3753827e-22
5.4155813e-22
5.3481989e-22
0
-2.6303433e-22
-5.3399152e-22
1.5217556e-34
2.8131015e-22
2.8445271e-22
-5.645501e-22
-5.5807106e-22
2.7882585e-22
5.6527334e-22
5.788746e-22
-2.9648678e-22
-6.0028351e-22
2.9901356e-22
-2.9727071e-22
4.9676912e-34
3.0287223e-22
-6.2037175e-22
6.3518354e-22
3.5633429e-34
-1.7708723e-33
6.3186224e-22
-6.3195061e-22
-1.4213122e-33
3.2741777e-22
-6.7068443e-22
3.4070916e-22
-9.7360155e-38
1.522709e-33
3.441349e-22
-6.9374436e-22
7.7697419e-34
-1.9543553e-34
3.530786e-22
-1.0060038e-37
-7.1359814e-22
7.241968e-22
2.0963823e-37
-1.6622625e-33
7.5185254e-22
-7.4702164e-22
-8.2417023e-34
7.4306001e-22
-3.7456588e-22
-3.7986998e-22
-3.8544291e-22
3.8939097e-22
-4.3426273e-34
-7.8339537e-22
0
0
7.8197061e-22
1.1128468e-37
-7.8741066e-22
3.9796085e-22
-4.4710667e-34
4.0475539e-22
8.9294058e-34
-7.9528325e-22
0
-3.9569833e-22
8.0143069e-22
4.067499e-22
-9.0927365e-34
4.0788986e-22
-8.062104e-22
3.9879145e-22
-4.4146728e-34
-8.0051848e-22
0
0
4.0588258e-22
-2.2269881e-34
3.9707088e-22
-3.9586967e-22
-1.192699e-21
1.2026238e-21
4.0212243e-22
-7.9829118e-22
3.9325047e-22
6.4644236e-34
3.8656774e-22
-2.2061758e-37
-1.303244e-33
3.9196525e-22
-7.7655549e-22
-3.8224343e-22
0
-3.7588368e-22
3.772841e-22
3.7967306e-22
3.7912449e-22
-8.3059564e-34
4.0784839e-34
-4.0251137e-34
-7.2238658e-22
3.6246283e-22
6.0673299e-34
-7.2627678e-22
5.0750471e-38
3.4929864e-22
6.8706752e-22
6.8312514e-22
-6.8565885e-22
-3.8359095e-34
-3.4653168e-22
-3.4391719e-22
6.7392218e-22
-6.5715666e-22
-3.2240114e-22
9.5885755e-22
6.3977549e-22
-3.2177744e-22