/*--------------------------------*- C++ -*----------------------------------*\
  =========                 |
  \\      /  F ield         | OpenFOAM: The Open Source CFD Toolbox
   \\    /   O peration     | Website:  https://openfoam.org
    \\  /    A nd           | Version:  7
     \\/     M anipulation  |
\*---------------------------------------------------------------------------*/
FoamFile
{
    version     2.0;
    format      ascii;
    class       volScalarField;
    location    "0.00148";
    object      p;
}
// * * * * * * * * * * * * * * * * * * * * * * * * * * * * * * * * * * * * * //

dimensions      [1 -1 -2 0 0 0 0];

internalField   nonuniform List<scalar> 
5000
(
87902.655
87886.837
87870.884
87854.872
87838.826
87822.765
87806.706
87790.659
87774.631
87758.628
87742.652
87726.707
87710.793
87694.911
87679.062
87663.246
87647.465
87631.719
87616.009
87600.337
87584.703
87569.109
87553.555
87538.042
87522.572
87507.145
87491.764
87476.428
87461.139
87445.899
87430.707
87415.566
87400.477
87385.441
87370.459
87355.532
87340.661
87325.848
87311.094
87296.4
87281.767
87267.197
87252.69
87238.249
87223.875
87209.568
87195.331
87181.164
87167.069
87153.046
87139.098
87125.224
87111.425
87097.702
87084.056
87070.486
87056.994
87043.58
87030.245
87016.991
87003.819
86990.729
86977.724
86964.805
86951.974
86939.232
86926.581
86914.024
86901.56
86889.193
86876.924
86864.753
86852.684
86840.716
86828.851
86817.091
86805.438
86793.891
86782.453
86771.125
86759.908
86748.804
86737.813
86726.938
86716.178
86705.536
86695.012
86684.609
86674.326
86664.166
86654.129
86644.217
86634.431
86624.771
86615.24
86605.839
86596.568
86587.428
86578.422
86569.549
86560.811
86552.209
86543.745
86535.419
86527.232
86519.185
86511.279
86503.516
86495.897
86488.421
86481.091
86473.907
86466.869
86459.98
86453.24
86446.65
86440.21
86433.922
86427.786
86421.804
86415.975
86410.3
86404.781
86399.418
86394.211
86389.161
86384.269
86379.536
86374.96
86370.544
86366.288
86362.191
86358.254
86354.477
86350.861
86347.406
86344.112
86340.979
86338.007
86335.197
86332.548
86330.061
86327.735
86325.571
86323.569
86321.729
86320.05
86318.533
86317.178
86315.984
86314.953
86314.082
86313.374
86312.826
86312.442
86312.227
86312.177
86312.283
86312.542
86312.959
86313.533
86314.263
86315.148
86316.188
86317.383
86318.731
86320.232
86321.884
86323.688
86325.641
86327.744
86329.995
86332.393
86334.937
86337.626
86340.459
86343.435
86346.552
86349.81
86353.207
86356.743
86360.415
86364.223
86368.165
86372.24
86376.446
86380.782
86385.247
86389.839
86394.557
86399.398
86404.362
86409.447
86414.651
86419.973
86425.411
86430.963
86436.628
86442.403
86448.288
86454.28
86460.378
86466.579
86472.883
86479.288
86485.791
86492.391
86499.086
86505.875
86512.755
86519.726
86526.784
86533.929
86541.158
86548.471
86555.865
86563.338
86570.889
86578.516
86586.218
86593.992
86601.838
86609.753
86617.736
86625.786
86633.9
86642.078
86650.317
86658.617
86666.975
86675.391
86683.863
86692.389
86700.969
86709.6
86718.282
86727.013
86735.792
86744.618
86753.49
86762.406
86771.364
86780.365
86789.406
86798.487
86807.607
86816.763
86825.956
86835.184
86844.446
86853.741
86863.068
86872.426
86881.813
86891.229
86900.673
86910.144
86919.64
86929.161
86938.707
86948.275
86957.866
86967.478
86977.11
86986.762
86996.433
87006.122
87015.828
87025.551
87035.29
87045.044
87054.813
87064.596
87074.392
87084.201
87094.022
87103.854
87113.698
87123.553
87133.418
87143.293
87153.176
87163.069
87172.97
87182.88
87192.797
87202.722
87212.653
87222.592
87232.537
87242.488
87252.446
87262.409
87272.378
87282.352
87292.331
87302.315
87312.304
87322.298
87332.296
87342.299
87352.305
87362.315
87372.33
87382.348
87392.369
87402.394
87412.422
87422.453
87432.487
87442.524
87452.564
87462.606
87472.65
87482.697
87492.746
87502.797
87512.849
87522.903
87532.959
87543.016
87553.074
87563.134
87573.194
87583.255
87593.317
87603.38
87613.443
87623.507
87633.571
87643.635
87653.7
87663.764
87673.829
87683.893
87693.958
87704.022
87714.086
87724.15
87734.214
87744.277
87754.34
87764.403
87774.465
87784.527
87794.589
87804.65
87814.712
87824.772
87834.833
87844.894
87854.954
87865.014
87875.075
87885.135
87895.195
87905.255
87915.315
87925.375
87935.436
87945.496
87955.557
87965.618
87975.679
87985.741
87995.802
88005.864
88015.926
88025.989
88036.052
88046.115
88056.178
88066.242
88076.306
88086.37
88096.434
88106.499
88116.563
88126.628
88136.693
88146.757
88156.822
88166.886
88176.951
88187.015
88197.079
88207.143
88217.206
88227.269
88237.332
88247.394
88257.455
88267.516
88277.577
88287.637
88297.696
88307.754
88317.812
88327.869
88337.925
88347.98
88358.035
88368.088
88378.141
88388.193
88398.243
88408.293
88418.342
88428.39
88438.438
88448.484
88458.529
88468.573
88478.617
88488.66
88498.702
88508.743
88518.783
88528.823
88538.862
88548.901
88558.939
88568.977
88579.014
88589.051
88599.087
88609.123
88619.159
88629.195
88639.231
88649.267
88659.302
88669.338
88679.374
88689.41
88699.446
88709.483
88719.519
88729.556
88739.593
88749.631
88759.668
88769.706
88779.745
88789.783
88799.822
88809.861
88819.9
88829.94
88839.979
88850.019
88860.058
88870.098
88880.138
88890.178
88900.218
88910.257
88920.297
88930.336
88940.375
88950.414
88960.452
88970.49
88980.528
88990.565
89000.602
89010.638
89020.674
89030.709
89040.744
89050.778
89060.812
89070.845
89080.878
89090.91
89100.941
89110.972
89121.002
89131.032
89141.061
89151.09
89161.118
89171.146
89181.173
89191.2
89201.227
89211.253
89221.279
89231.305
89241.331
89251.356
89261.381
89271.406
89281.431
89291.456
89301.48
89311.505
89321.53
89331.555
89341.58
89351.605
89361.63
89371.655
89381.68
89391.705
89401.731
89411.757
89421.782
89431.808
89441.834
89451.86
89461.887
89471.913
89481.939
89491.965
89501.992
89512.018
89522.045
89532.071
89542.097
89552.123
89562.149
89572.175
89582.2
89592.226
89602.251
89612.276
89622.3
89632.325
89642.349
89652.372
89662.395
89672.418
89682.441
89692.463
89702.485
89712.506
89722.527
89732.547
89742.567
89752.587
89762.606
89772.625
89782.644
89792.662
89802.68
89812.698
89822.715
89832.732
89842.749
89852.765
89862.781
89872.798
89882.814
89892.829
89902.845
89912.861
89922.877
89932.892
89942.908
89952.923
89962.939
89972.954
89982.97
89992.986
90003.001
90013.017
90023.033
90033.049
90043.065
90053.082
90063.098
90073.114
90083.131
90093.147
90103.164
90113.181
90123.197
90133.214
90143.23
90153.247
90163.264
90173.28
90183.296
90193.313
90203.329
90213.345
90223.36
90233.376
90243.391
90253.405
90263.42
90273.434
90283.448
90293.461
90303.474
90313.486
90323.498
90333.51
90343.52
90353.531
90363.54
90373.55
90383.558
90393.566
90403.573
90413.58
90423.586
90433.591
90443.596
90453.6
90463.604
90473.607
90483.609
90493.611
90503.612
90513.612
90523.612
90533.611
90543.61
90553.608
90563.606
90573.604
90583.601
90593.597
90603.594
90613.589
90623.585
90633.58
90643.575
90653.57
90663.564
90673.559
90683.553
90693.547
90703.541
90713.535
90723.529
90733.523
90743.517
90753.51
90763.504
90773.498
90783.492
90793.486
90803.48
90813.474
90823.468
90833.462
90843.457
90853.451
90863.446
90873.44
90883.435
90893.429
90903.424
90913.419
90923.413
90933.408
90943.403
90953.397
90963.392
90973.387
90983.381
90993.376
91003.37
91013.364
91023.358
91033.352
91043.346
91053.34
91063.333
91073.327
91083.32
91093.313
91103.305
91113.298
91123.29
91133.282
91143.274
91153.265
91163.257
91173.248
91183.239
91193.23
91203.22
91213.211
91223.201
91233.191
91243.181
91253.171
91263.16
91273.15
91283.139
91293.128
91303.118
91313.107
91323.096
91333.085
91343.074
91353.063
91363.052
91373.041
91383.03
91393.019
91403.009
91412.998
91422.987
91432.977
91442.966
91452.956
91462.945
91472.935
91482.925
91492.915
91502.905
91512.895
91522.886
91532.876
91542.866
91552.857
91562.847
91572.838
91582.828
91592.819
91602.809
91612.8
91622.79
91632.781
91642.771
91652.761
91662.752
91672.742
91682.731
91692.721
91702.71
91712.7
91722.689
91732.677
91742.666
91752.654
91762.642
91772.629
91782.616
91792.603
91802.589
91812.574
91822.56
91832.544
91842.529
91852.512
91862.495
91872.478
91882.46
91892.441
91902.422
91912.402
91922.381
91932.36
91942.338
91952.316
91962.292
91972.268
91982.243
91992.218
92002.192
92012.164
92022.137
92032.108
92042.079
92052.049
92062.018
92071.986
92081.953
92091.92
92101.886
92111.851
92121.816
92131.779
92141.742
92151.704
92161.665
92171.626
92181.586
92191.545
92201.503
92211.461
92221.418
92231.374
92241.33
92251.285
92261.239
92271.193
92281.147
92291.099
92301.051
92311.003
92320.954
92330.905
92340.855
92350.805
92360.754
92370.703
92380.652
92390.6
92400.548
92410.495
92420.443
92430.39
92440.337
92450.283
92460.23
92470.176
92480.122
92490.068
92500.014
92509.96
92519.906
92529.852
92539.797
92549.743
92559.689
92569.634
92579.58
92589.525
92599.471
92609.417
92619.363
92629.308
92639.254
92649.2
92659.146
92669.092
92679.038
92688.984
92698.93
92708.876
92718.822
92728.768
92738.715
92748.661
92758.607
92768.553
92778.499
92788.445
92798.391
92808.337
92818.283
92828.228
92838.174
92848.119
92858.064
92868.009
92877.954
92887.899
92897.843
92907.787
92917.731
92927.675
92937.618
92947.561
92957.503
92967.446
92977.387
92987.329
92997.27
93007.21
93017.15
93027.09
93037.029
93046.968
93056.906
93066.843
93076.781
93086.717
93096.653
93106.588
93116.523
93126.457
93136.39
93146.324
93156.256
93166.187
93176.117
93186.046
93195.976
93205.905
93215.835
93225.763
93235.691
93245.617
93255.541
93265.465
93275.389
93285.312
93295.233
93305.154
93315.073
93324.991
93334.91
93344.828
93354.745
93364.661
93374.576
93384.49
93394.403
93404.315
93414.226
93424.137
93434.047
93443.956
93453.864
93463.771
93473.677
93483.582
93493.487
93503.39
93513.293
93523.196
93533.096
93542.996
93552.895
93562.794
93572.691
93582.588
93592.484
93602.378
93612.272
93622.165
93632.057
93641.948
93651.839
93661.729
93671.618
93681.505
93691.391
93701.277
93711.162
93721.046
93730.929
93740.811
93750.692
93760.573
93770.453
93780.332
93790.211
93800.088
93809.965
93819.841
93829.716
93839.591
93849.466
93859.339
93869.211
93879.082
93888.953
93898.825
93908.695
93918.565
93928.433
93938.3
93948.167
93958.035
93967.903
93977.77
93987.636
93997.5
94007.364
94017.228
94027.093
94036.957
94046.82
94056.683
94066.545
94076.407
94086.269
94096.13
94105.992
94115.853
94125.713
94135.574
94145.435
94155.296
94165.156
94175.016
94184.875
94194.734
94204.595
94214.455
94224.316
94234.175
94244.035
94253.894
94263.753
94273.612
94283.471
94293.33
94303.189
94313.048
94322.908
94332.768
94342.627
94352.486
94362.345
94372.204
94382.063
94391.922
94401.78
94411.639
94421.498
94431.357
94441.216
94451.075
94460.933
94470.791
94480.649
94490.507
94500.365
94510.223
94520.081
94529.939
94539.796
94549.654
94559.511
94569.367
94579.223
94589.078
94598.934
94608.791
94618.647
94628.503
94638.358
94648.212
94658.066
94667.919
94677.771
94687.624
94697.477
94707.329
94717.181
94727.032
94736.883
94746.733
94756.582
94766.431
94776.278
94786.126
94795.974
94805.822
94815.668
94825.513
94835.358
94845.202
94855.046
94864.888
94874.73
94884.571
94894.412
94904.253
94914.093
94923.932
94933.77
94943.606
94953.442
94963.278
94973.113
94982.947
94992.78
95002.613
95012.444
95022.275
95032.106
95041.935
95051.763
95061.591
95071.418
95081.244
95091.069
95100.894
95110.717
95120.54
95130.362
95140.184
95150.004
95159.823
95169.641
95179.459
95189.277
95199.094
95208.91
95218.725
95228.538
95238.351
95248.163
95257.974
95267.784
95277.594
95287.403
95297.211
95307.018
95316.825
95326.631
95336.436
95346.241
95356.045
95365.848
95375.651
95385.452
95395.253
95405.054
95414.855
95424.655
95434.454
95444.252
95454.049
95463.846
95473.642
95483.438
95493.233
95503.028
95512.822
95522.616
95532.409
95542.202
95551.995
95561.787
95571.578
95581.37
95591.161
95600.952
95610.742
95620.531
95630.321
95640.111
95649.901
95659.69
95669.478
95679.266
95689.054
95698.841
95708.628
95718.416
95728.203
95737.99
95747.777
95757.565
95767.352
95777.139
95786.925
95796.71
95806.495
95816.281
95826.066
95835.851
95845.637
95855.422
95865.207
95874.992
95884.777
95894.562
95904.347
95914.132
95923.917
95933.701
95943.486
95953.271
95963.055
95972.839
95982.623
95992.407
96002.191
96011.975
96021.759
96031.543
96041.327
96051.11
96060.893
96070.676
96080.459
96090.242
96100.024
96109.807
96119.589
96129.371
96139.152
96148.934
96158.715
96168.496
96178.277
96188.057
96197.837
96207.617
96217.397
96227.176
96236.954
96246.733
96256.511
96266.289
96276.066
96285.843
96295.619
96305.395
96315.171
96324.945
96334.72
96344.495
96354.269
96364.042
96373.814
96383.585
96393.356
96403.126
96412.896
96422.666
96432.434
96442.202
96451.969
96461.736
96471.503
96481.269
96491.033
96500.797
96510.56
96520.322
96530.084
96539.844
96549.604
96559.364
96569.122
96578.88
96588.637
96598.393
96608.149
96617.904
96627.657
96637.409
96647.16
96656.911
96666.661
96676.41
96686.158
96695.905
96705.651
96715.396
96725.14
96734.885
96744.627
96754.368
96764.108
96773.847
96783.585
96793.322
96803.059
96812.794
96822.528
96832.261
96841.993
96851.724
96861.455
96871.185
96880.913
96890.64
96900.365
96910.09
96919.814
96929.536
96939.258
96948.979
96958.699
96968.418
96978.136
96987.853
96997.569
97007.284
97016.998
97026.711
97036.423
97046.133
97055.843
97065.553
97075.262
97084.97
97094.676
97104.381
97114.086
97123.79
97133.494
97143.197
97152.898
97162.599
97172.299
97181.998
97191.696
97201.395
97211.092
97220.789
97230.485
97240.18
97249.875
97259.569
97269.263
97278.957
97288.65
97298.342
97308.034
97317.725
97327.415
97337.106
97346.796
97356.486
97366.176
97375.865
97385.553
97395.241
97404.929
97414.617
97424.305
97433.993
97443.68
97453.367
97463.053
97472.74
97482.426
97492.113
97501.8
97511.486
97521.171
97530.857
97540.542
97550.228
97559.914
97569.6
97579.286
97588.971
97598.657
97608.342
97618.028
97627.713
97637.399
97647.085
97656.771
97666.457
97676.142
97685.828
97695.514
97705.201
97714.887
97724.573
97734.259
97743.945
97753.631
97763.318
97773.004
97782.69
97792.377
97802.063
97811.749
97821.436
97831.122
97840.808
97850.495
97860.181
97869.867
97879.553
97889.24
97898.926
97908.612
97918.297
97927.983
97937.669
97947.354
97957.04
97966.725
97976.41
97986.094
97995.779
98005.464
98015.148
98024.832
98034.515
98044.199
98053.883
98063.565
98073.248
98082.93
98092.612
98102.294
98111.975
98121.656
98131.336
98141.017
98150.697
98160.376
98170.055
98179.733
98189.412
98199.09
98208.767
98218.443
98228.12
98237.796
98247.471
98257.146
98266.82
98276.494
98286.167
98295.84
98305.512
98315.184
98324.855
98334.525
98344.195
98353.864
98363.533
98373.201
98382.869
98392.535
98402.201
98411.867
98421.532
98431.196
98440.859
98450.522
98460.184
98469.845
98479.505
98489.165
98498.824
98508.483
98518.141
98527.798
98537.454
98547.11
98556.765
98566.42
98576.074
98585.727
98595.38
98605.032
98614.683
98624.333
98633.983
98643.632
98653.28
98662.927
98672.574
98682.22
98691.865
98701.509
98711.152
98720.795
98730.436
98740.077
98749.717
98759.357
98768.995
98778.633
98788.27
98797.907
98807.542
98817.177
98826.812
98836.446
98846.078
98855.711
98865.342
98874.973
98884.603
98894.232
98903.861
98913.489
98923.116
98932.742
98942.368
98951.993
98961.617
98971.241
98980.863
98990.485
99000.106
99009.726
99019.345
99028.964
99038.581
99048.198
99057.814
99067.429
99077.043
99086.656
99096.269
99105.881
99115.492
99125.103
99134.713
99144.322
99153.93
99163.537
99173.144
99182.75
99192.356
99201.96
99211.564
99221.167
99230.769
99240.37
99249.971
99259.57
99269.169
99278.767
99288.364
99297.961
99307.557
99317.152
99326.746
99336.339
99345.931
99355.522
99365.112
99374.702
99384.289
99393.876
99403.461
99413.046
99422.629
99432.211
99441.793
99451.374
99460.953
99470.532
99480.109
99489.686
99499.261
99508.835
99518.408
99527.98
99537.55
99547.119
99556.687
99566.254
99575.819
99585.383
99594.946
99604.507
99614.067
99623.626
99633.183
99642.739
99652.294
99661.848
99671.401
99680.953
99690.503
99700.051
99709.601
99719.153
99728.706
99738.261
99747.803
99757.366
99766.935
99776.505
99786.075
99795.646
99805.217
99814.787
99824.357
99833.927
99843.496
99853.063
99862.63
99872.196
99881.761
99891.324
99900.886
99910.447
99920.007
99929.566
99939.123
99948.679
99958.234
99967.788
99977.341
99986.892
99996.443
100005.99
100015.54
100025.09
100034.63
100044.18
100053.72
100063.26
100072.81
100082.35
100091.89
100101.43
100110.96
100120.5
100130.04
100139.57
100149.1
100158.64
100168.17
100177.7
100187.23
100196.76
100206.29
100215.82
100225.35
100234.87
100244.4
100253.92
100263.45
100272.97
100282.49
100292.01
100301.53
100311.05
100320.57
100330.09
100339.61
100349.13
100358.64
100368.16
100377.67
100387.19
100396.7
100406.21
100415.72
100425.23
100434.75
100444.25
100453.76
100463.27
100472.78
100482.28
100491.79
100501.3
100510.8
100520.3
100529.81
100539.31
100548.81
100558.31
100567.81
100577.31
100586.81
100596.31
100605.8
100615.3
100624.8
100634.29
100643.79
100653.28
100662.77
100672.26
100681.76
100691.25
100700.74
100710.23
100719.71
100729.2
100738.69
100748.18
100757.66
100767.15
100776.63
100786.11
100795.6
100805.08
100814.56
100824.04
100833.52
100843
100852.48
100861.96
100871.43
100880.91
100890.39
100899.86
100909.34
100918.81
100928.28
100937.76
100947.23
100956.7
100966.17
100975.64
100985.11
100994.58
101004.04
101013.51
101022.98
101032.44
101041.91
101051.37
101060.83
101070.3
101079.76
101089.22
101098.68
101108.14
101117.6
101127.06
101136.52
101145.97
101155.43
101164.88
101174.34
101183.79
101193.25
101202.7
101212.15
101221.6
101231.06
101240.51
101249.96
101259.4
101268.85
101278.3
101287.75
101297.19
101306.64
101316.08
101325.53
101334.97
101344.41
101353.86
101363.3
101372.74
101382.18
101391.62
101401.06
101410.5
101419.93
101429.37
101438.81
101448.24
101457.68
101467.11
101476.55
101485.98
101495.41
101504.84
101514.27
101523.71
101533.14
101542.56
101551.99
101561.42
101570.85
101580.28
101589.7
101599.13
101608.55
101617.98
101627.4
101636.82
101646.25
101655.67
101665.09
101674.51
101683.93
101693.35
101702.77
101712.19
101721.61
101731.02
101740.44
101749.86
101759.27
101768.69
101778.1
101787.51
101796.93
101806.34
101815.75
101825.16
101834.58
101843.99
101853.4
101862.81
101872.21
101881.62
101891.03
101900.44
101909.84
101919.25
101928.66
101938.06
101947.47
101956.87
101966.28
101975.68
101985.08
101994.48
102003.89
102013.29
102022.69
102032.09
102041.49
102050.89
102060.29
102069.68
102079.08
102088.48
102097.88
102107.27
102116.67
102126.07
102135.46
102144.85
102154.25
102163.64
102173.04
102182.43
102191.82
102201.21
102210.61
102220
102229.39
102238.78
102248.17
102257.56
102266.95
102276.34
102285.72
102295.11
102304.5
102313.89
102323.27
102332.66
102342.05
102351.43
102360.82
102370.2
102379.59
102388.97
102398.36
102407.74
102417.12
102426.5
102435.89
102445.27
102454.65
102464.03
102473.41
102482.79
102492.17
102501.55
102510.93
102520.31
102529.69
102539.07
102548.45
102557.82
102567.2
102576.58
102585.95
102595.33
102604.71
102614.08
102623.46
102632.83
102642.21
102651.58
102660.96
102670.33
102679.7
102689.08
102698.45
102707.82
102717.19
102726.57
102735.94
102745.31
102754.68
102764.05
102773.42
102782.79
102792.16
102801.53
102810.9
102820.27
102829.64
102839.01
102848.37
102857.74
102867.11
102876.48
102885.84
102895.21
102904.58
102913.94
102923.31
102932.67
102942.04
102951.4
102960.77
102970.13
102979.5
102988.86
102998.22
103007.59
103016.95
103026.31
103035.67
103045.03
103054.4
103063.76
103073.12
103082.48
103091.84
103101.2
103110.56
103119.92
103129.28
103138.64
103148
103157.35
103166.71
103176.07
103185.43
103194.78
103204.14
103213.5
103222.85
103232.21
103241.57
103250.92
103260.28
103269.63
103278.99
103288.34
103297.69
103307.05
103316.4
103325.75
103335.1
103344.46
103353.81
103363.16
103372.51
103381.86
103391.21
103400.56
103409.91
103419.26
103428.61
103437.96
103447.31
103456.66
103466
103475.35
103484.7
103494.05
103503.39
103512.74
103522.08
103531.43
103540.77
103550.12
103559.46
103568.8
103578.15
103587.49
103596.83
103606.18
103615.52
103624.86
103634.2
103643.54
103652.88
103662.22
103671.56
103680.9
103690.24
103699.57
103708.91
103718.25
103727.58
103736.92
103746.26
103755.59
103764.93
103774.26
103783.59
103792.93
103802.26
103811.59
103820.92
103830.26
103839.59
103848.92
103858.25
103867.58
103876.91
103886.23
103895.56
103904.89
103914.22
103923.54
103932.87
103942.19
103951.52
103960.84
103970.17
103979.49
103988.81
103998.13
104007.46
104016.78
104026.1
104035.42
104044.74
104054.05
104063.37
104072.69
104082.01
104091.32
104100.64
104109.96
104119.27
104128.58
104137.9
104147.21
104156.52
104165.83
104175.15
104184.46
104193.77
104203.07
104212.38
104221.69
104231
104240.31
104249.61
104258.92
104268.22
104277.53
104286.83
104296.13
104305.43
104314.74
104324.04
104333.34
104342.64
104351.94
104361.23
104370.53
104379.83
104389.13
104398.42
104407.72
104417.01
104426.31
104435.6
104444.89
104454.18
104463.47
104472.76
104482.05
104491.34
104500.63
104509.92
104519.21
104528.49
104537.78
104547.06
104556.35
104565.63
104574.91
104584.19
104593.48
104602.76
104612.04
104621.32
104630.6
104639.87
104649.15
104658.43
104667.7
104676.98
104686.25
104695.53
104704.8
104714.07
104723.34
104732.61
104741.88
104751.15
104760.42
104769.69
104778.96
104788.23
104797.49
104806.76
104816.02
104825.28
104834.55
104843.81
104853.07
104862.33
104871.59
104880.85
104890.11
104899.37
104908.63
104917.88
104927.14
104936.4
104945.65
104954.9
104964.16
104973.41
104982.66
104991.91
105001.16
105010.41
105019.66
105028.91
105038.16
105047.4
105056.65
105065.89
105075.14
105084.38
105093.63
105102.87
105112.11
105121.35
105130.59
105139.83
105149.07
105158.31
105167.54
105176.78
105186.02
105195.25
105204.49
105213.72
105222.95
105232.19
105241.42
105250.65
105259.88
105269.11
105278.34
105287.56
105296.79
105306.02
105315.24
105324.47
105333.69
105342.92
105352.14
105361.36
105370.58
105379.81
105389.03
105398.24
105407.46
105416.68
105425.9
105435.11
105444.33
105453.55
105462.76
105471.97
105481.19
105490.4
105499.61
105508.82
105518.03
105527.24
105536.45
105545.66
105554.86
105564.07
105573.28
105582.48
105591.69
105600.89
105610.09
105619.29
105628.5
105637.7
105646.9
105656.09
105665.29
105674.49
105683.69
105692.88
105702.08
105711.28
105720.47
105729.66
105738.86
105748.05
105757.24
105766.43
105775.62
105784.81
105794
105803.19
105812.37
105821.56
105830.74
105839.93
105849.11
105858.3
105867.48
105876.66
105885.84
105895.02
105904.2
105913.38
105922.56
105931.74
105940.91
105950.09
105959.27
105968.44
105977.61
105986.79
105995.96
106005.13
106014.3
106023.47
106032.64
106041.81
106050.98
106060.15
106069.31
106078.48
106087.64
106096.81
106105.97
106115.14
106124.3
106133.46
106142.62
106151.78
106160.94
106170.1
106179.26
106188.41
106197.57
106206.72
106215.88
106225.03
106234.19
106243.34
106252.49
106261.64
106270.79
106279.94
106289.09
106298.24
106307.39
106316.53
106325.68
106334.82
106343.97
106353.11
106362.26
106371.4
106380.54
106389.68
106398.82
106407.96
106417.1
106426.24
106435.37
106444.51
106453.65
106462.78
106471.92
106481.05
106490.18
106499.31
106508.45
106517.58
106526.71
106535.84
106544.96
106554.09
106563.22
106572.34
106581.47
106590.59
106599.72
106608.84
106617.96
106627.09
106636.21
106645.33
106654.45
106663.56
106672.68
106681.8
106690.91
106700.03
106709.14
106718.26
106727.37
106736.48
106745.59
106754.7
106763.81
106772.92
106782.03
106791.14
106800.24
106809.35
106818.45
106827.55
106836.65
106845.75
106854.85
106863.95
106873.05
106882.15
106891.24
106900.34
106909.43
106918.52
106927.61
106936.7
106945.79
106954.88
106963.97
106973.05
106982.13
106991.22
107000.3
107009.38
107018.45
107027.53
107036.6
107045.68
107054.75
107063.82
107072.88
107081.95
107091.01
107100.07
107109.13
107118.19
107127.25
107136.3
107145.35
107154.4
107163.44
107172.49
107181.53
107190.57
107199.6
107208.64
107217.67
107226.69
107235.72
107244.74
107253.76
107262.77
107271.78
107280.79
107289.79
107298.79
107307.79
107316.78
107325.77
107334.75
107343.73
107352.7
107361.67
107370.64
107379.6
107388.55
107397.5
107406.44
107415.38
107424.31
107433.23
107442.15
107451.07
107459.97
107468.87
107477.76
107486.65
107495.53
107504.39
107513.26
107522.11
107530.95
107539.79
107548.62
107557.43
107566.24
107575.04
107583.83
107592.61
107601.38
107610.13
107618.88
107627.61
107636.33
107645.04
107653.74
107662.43
107671.1
107679.75
107688.4
107697.03
107705.64
107714.24
107722.82
107731.39
107739.94
107748.48
107757
107765.5
107773.98
107782.44
107790.89
107799.31
107807.72
107816.1
107824.47
107832.81
107841.13
107849.43
107857.71
107865.96
107874.19
107882.4
107890.57
107898.73
107906.86
107914.96
107923.03
107931.08
107939.1
107947.08
107955.04
107962.97
107970.87
107978.74
107986.57
107994.37
108002.14
108009.88
108017.58
108025.24
108032.87
108040.46
108048.02
108055.54
108063.01
108070.45
108077.85
108085.21
108092.53
108099.8
108107.03
108114.22
108121.37
108128.47
108135.52
108142.53
108149.49
108156.4
108163.27
108170.08
108176.85
108183.57
108190.23
108196.84
108203.4
108209.91
108216.36
108222.75
108229.09
108235.38
108241.61
108247.78
108253.89
108259.94
108265.93
108271.86
108277.73
108283.54
108289.29
108294.97
108300.59
108306.14
108311.63
108317.05
108322.41
108327.7
108332.92
108338.07
108343.16
108348.17
108353.11
108357.99
108362.79
108367.52
108372.17
108376.75
108381.26
108385.7
108390.06
108394.34
108398.55
108402.68
108406.73
108410.71
108414.61
108418.43
108422.17
108425.83
108429.41
108432.91
108436.33
108439.67
108442.93
108446.1
108449.19
108452.2
108455.13
108457.97
108460.73
108463.41
108466
108468.5
108470.92
108473.26
108475.51
108477.67
108479.75
108481.74
108483.64
108485.46
108487.19
108488.83
108490.39
108491.86
108493.24
108494.53
108495.73
108496.85
108497.88
108498.82
108499.67
108500.43
108501.1
108501.69
108502.19
108502.6
108502.92
108503.15
108503.29
108503.35
108503.32
108503.2
108502.99
108502.69
108502.29
108501.81
108501.24
108500.59
108499.85
108499.03
108498.11
108497.11
108496.01
108494.84
108493.57
108492.22
108490.78
108489.25
108487.64
108485.95
108484.16
108482.3
108480.34
108478.31
108476.18
108473.98
108471.69
108469.31
108466.86
108464.31
108461.69
108458.98
108456.19
108453.32
108450.37
108447.34
108444.23
108441.03
108437.76
108434.41
108430.99
108427.48
108423.89
108420.23
108416.48
108412.66
108408.76
108404.79
108400.74
108396.61
108392.42
108388.15
108383.81
108379.4
108374.91
108370.36
108365.73
108361.02
108356.25
108351.4
108346.48
108341.49
108336.43
108331.3
108326.12
108320.87
108315.56
108310.19
108304.75
108299.25
108293.68
108288.04
108282.33
108276.55
108270.7
108264.79
108258.82
108252.8
108246.74
108240.62
108234.46
108228.25
108221.99
108215.66
108209.27
108202.81
108196.26
108189.65
108182.98
108176.26
108169.5
108162.69
108155.85
108148.97
108142.09
108135.25
108128.65
108120.92
108114.14
108107.14
108100.02
108092.91
108085.78
108078.61
108071.42
108064.21
108056.98
108049.74
108042.49
108035.21
108027.93
108020.61
108013.27
108005.9
107998.49
107991.05
107983.56
107976.04
107968.48
107960.89
107953.27
107945.61
107937.93
107930.21
107922.47
107914.7
107906.91
107899.08
107891.22
107883.33
107875.41
107867.46
107859.49
107851.48
107843.45
107835.39
107827.31
107819.2
107811.07
107802.92
107794.74
107786.54
107778.31
107770.07
107761.8
107753.5
107745.19
107736.85
107728.49
107720.12
107711.72
107703.3
107694.87
107686.41
107677.94
107669.45
107660.94
107652.41
107643.87
107635.31
107626.73
107618.14
107609.53
107600.9
107592.26
107583.61
107574.94
107566.26
107557.56
107548.85
107540.12
107531.38
107522.63
107513.87
107505.09
107496.31
107487.5
107478.69
107469.87
107461.04
107452.19
107443.33
107434.47
107425.59
107416.71
107407.81
107398.9
107389.99
107381.06
107372.13
107363.19
107354.24
107345.28
107336.31
107327.34
107318.35
107309.36
107300.37
107291.36
107282.35
107273.33
107264.3
107255.27
107246.23
107237.18
107228.13
107219.07
107210
107200.93
107191.86
107182.77
107173.69
107164.59
107155.5
107146.39
107137.28
107128.17
107119.05
107109.93
107100.8
107091.67
107082.53
107073.39
107064.24
107055.09
107045.94
107036.78
107027.62
107018.45
107009.28
107000.11
106990.93
106981.75
106972.57
106963.38
106954.19
106944.99
106935.79
106926.59
106917.39
106908.18
106898.97
106889.76
106880.54
106871.32
106862.1
106852.88
106843.65
106834.42
106825.19
106815.95
106806.71
106797.47
106788.23
106778.98
106769.74
106760.49
106751.23
106741.98
106732.72
106723.46
106714.2
106704.94
106695.67
106686.4
106677.13
106667.86
106658.58
106649.31
106640.03
106630.75
106621.47
106612.18
106602.9
106593.61
106584.32
106575.03
106565.73
106556.44
106547.14
106537.84
106528.54
106519.24
106509.94
106500.63
106491.32
106482.01
106472.7
106463.39
106454.08
106444.76
106435.44
106426.13
106416.81
106407.48
106398.16
106388.84
106379.51
106370.18
106360.85
106351.52
106342.19
106332.86
106323.52
106314.19
106304.85
106295.51
106286.17
106276.83
106267.49
106258.14
106248.8
106239.45
106230.1
106220.75
106211.4
106202.05
106192.69
106183.34
106173.98
106164.63
106155.27
106145.91
106136.55
106127.18
106117.82
106108.45
106099.09
106089.72
106080.35
106070.98
106061.61
106052.24
106042.87
106033.49
106024.12
106014.74
106005.37
105995.99
105986.61
105977.23
105967.84
105958.46
105949.08
105939.69
105930.31
105920.92
105911.53
105902.14
105892.75
105883.36
105873.97
105864.57
105855.18
105845.78
105836.39
105826.99
105817.59
105808.19
105798.79
105789.39
105779.98
105770.58
105761.18
105751.77
105742.36
105732.96
105723.55
105714.14
105704.73
105695.32
105685.9
105676.49
105667.08
105657.66
105648.25
105638.83
105629.41
105619.99
105610.57
105601.15
105591.73
105582.31
105572.88
105563.46
105554.04
105544.61
105535.18
105525.75
105516.33
105506.9
105497.47
105488.03
105478.6
105469.17
105459.73
105450.3
105440.86
105431.43
105421.99