-1.25 	300 	0.1183452388889239 	101277.4471741853
-1.247497497497497 	299.954546532061 	0.1190772887113695 	101275.3230719313
-1.244994994994995 	299.9573900329291 	0.12247020632564 	101274.6950991248
-1.242492492492492 	299.9575867395213 	0.1233864870400718 	101274.8406354154
-1.23998998998999 	299.9584009625642 	0.1200206304104506 	101275.8291031958
-1.237487487487487 	299.9601219698611 	0.1152536410729953 	101277.8633086667
-1.234984984984985 	299.9626101530878 	0.1080497405001162 	101280.8038413892
-1.232482482482482 	299.9657843788857 	0.09887706588438877 	101284.5551622036
-1.22997997997998 	299.9696211753045 	0.08783380287455994 	101289.0896036011
-1.227477477477477 	299.9739757943156 	0.07523061234183849 	101294.2363233329
-1.224974974974975 	299.978743984092 	0.06141659164302669 	101299.8720567078
-1.222472472472472 	299.9838797243147 	0.04655631289371428 	101305.9425609192
-1.21996996996997 	299.9893209749075 	0.03082392729965974 	101312.3745119654
-1.217467467467467 	299.9949446545072 	0.01453722410905958 	101319.0223196343
-1.214964964964965 	300.0006387553333 	0.008326900534480831 	101325.7537265833
-1.212462462462462 	300.0063624218355 	0.01849299308801246 	101332.5203815587
-1.20995995995996 	300.0120038664268 	0.03472563392830338 	101339.1901938981
-1.207457457457457 	300.0174068302305 	0.05034638556030001 	101345.5783935256
-1.204954954954955 	300.0225085802722 	0.06511760204444451 	101351.6106626063
-1.202452452452452 	300.0272338526805 	0.07878000329244678 	101357.1980109592
-1.19994994994995 	300.0314455505019 	0.09091594189524195 	101362.1783565785
-1.197447447447447 	300.0350395897347 	0.1012993143839231 	101366.4284262762
-1.194944944944945 	300.0379740084119 	0.109811108886232 	101369.8985959462
-1.192442442442442 	300.0402160690973 	0.1163082515464722 	101372.5501349774
-1.18993993993994 	300.0417391768198 	0.1207094870532099 	101374.3513636339
-1.187437437437437 	300.0425244394555 	0.1229275439624692 	101375.2801106886
-1.184934934934935 	300.0425250465917 	0.122876259409755 	101375.2808163512
-1.182432432432432 	300.0416974035361 	0.1204797121176013 	101374.3021057255
-1.17992992992993 	300.0400559206214 	0.115742589620802 	101372.3611042355
-1.177427427427427 	300.0376619586353 	0.1088356196883039 	101369.5300848688
-1.174924924924925 	300.034585040385 	0.09994263440999722 	101365.8915590241
-1.172422422422422 	300.0308848215781 	0.08924234630547166 	101361.5160121814
-1.16991991991992 	300.0266274952015 	0.07695361617541663 	101356.4818844121
-1.167417417417417 	300.021890476619 	0.06326981092353312 	101350.8808033086
-1.164914914914915 	300.0167591240949 	0.04841969437664208 	101344.8135459573
-1.162412412412412 	300.0113214195194 	0.032681216596169 	101338.3844186564
-1.15990990990991 	300.0056989380301 	0.01640739651190825 	101331.73706891
-1.157407407407407 	300.0000028409381 	0.008209911031198218 	101325.0030563976
-1.154904904904904 	299.9942960774609 	0.01658253469829829 	101318.2567959481
-1.152402402402403 	299.9886535118684 	0.03288667777987456 	101311.5865937794
-1.1498998998999 	299.9831776003938 	0.04866663462119926 	101305.1137659232
-1.147397397397397 	299.9779930545321 	0.06362141470788371 	101298.9855628957
-1.144894894894895 	299.9732317903956 	0.07738314804629037 	101293.3579675976
-1.142392392392392 	299.9689938078229 	0.08965944049754906 	101288.3490798994
-1.13988988988989 	299.9653476169086 	0.1002179935564019 	101284.039644556
-1.137387387387387 	299.9623380973141 	0.1089191326728535 	101280.4828430201
-1.134884884884885 	299.9600042132005 	0.1156695518322167 	101277.7245260832
-1.132382382382382 	299.9583952388465 	0.1203144406516459 	101275.8229615043
-1.12987987987988 	299.9575550671784 	0.1227523369241658 	101274.830036608
-1.127377377377377 	299.9575056270037 	0.122851631928974 	101274.7715275847
-1.124874874874875 	299.9582694247908 	0.120589103926038 	101275.6741159634
-1.122372372372372 	299.9598353611876 	0.1160747124203136 	101277.5245923372
-1.11986986986987 	299.9621483936329 	0.1093954327040541 	101280.2581320071
-1.117367367367367 	299.9651478478131 	0.1007409267609725 	101283.8029655042
-1.114864864864865 	299.9687757655967 	0.09026149260030809 	101288.0905665616
-1.112362362362362 	299.9729589176076 	0.07813475701236328 	101293.0346192418
-1.10985985985986 	299.9776392745891 	0.06462389183143177 	101298.5664602355
-1.107357357357357 	299.9827287753509 	0.04993979016578905 	101304.5822496208
-1.104854854854855 	299.9881088782075 	0.03438501259423291 	101310.9418088155
-1.102352352352353 	299.9936680153686 	0.01827291001877469 	101317.5132171793
-1.09984984984985 	299.9993152007826 	0.00786837133330784 	101324.1890982432
-1.097347347347347 	300.0049932055007 	0.01451548624258187 	101330.9016651316
-1.094844844844845 	300.0106341812781 	0.03076871714946755 	101337.5708618269
-1.092342342342342 	300.0161039785522 	0.04656890595520576 	101344.0380070876
-1.08983983983984 	300.0212761885248 	0.06155042263181609 	101350.1535052474
-1.087337337337337 	300.0260482296139 	0.07536075945401144 	101355.7961489801
-1.084834834834835 	300.03033171859 	0.08770623130075941 	101360.861279753
-1.082332332332332 	300.0340581527707 	0.09846997139922804 	101365.2678779114
-1.07982982982983 	300.0371833263529 	0.1075101639941243 	101368.9636443158
-1.077327327327327 	300.0396448915046 	0.1146405853693921 	101371.8746758564
-1.074824824824825 	300.0413854362437 	0.1196700771537456 	101373.9330884149
-1.072322322322323 	300.042351034895 	0.1224056184337779 	101375.0750907629
-1.06981981981982 	300.0425027191754 	0.1228155381091832 	101375.2544594532
-1.067317317317317 	300.0418428679006 	0.1209319786011146 	101374.4742244069
-1.064814814814815 	300.0404091742216 	0.1167949654791051 	101372.7788831736
-1.062312312312312 	300.0382321085544 	0.110514915443838 	101370.2043764359
-1.05980980980981 	300.0353538955776 	0.1021770739969799 	101366.8008242262
-1.057307307307307 	300.031819481681 	0.09194201016604557 	101362.6212937971
-1.054804804804805 	300.0276861977092 	0.08001605006517661 	101357.733841267
-1.052302302302302 	300.0230386152708 	0.06658979136426021 	101352.2384306435
-1.0497997997998 	300.0179784916346 	0.0519510106237993 	101346.2553429024
-1.047297297297297 	300.0125988600111 	0.03638525916745829 	101339.8948232332
-1.044794794794795 	300.0070076601309 	0.02020310951919465 	101333.2843720375
-1.042292292292292 	300.0013029755876 	0.007427835136690467 	101326.5401545658
-1.03978978978979 	299.9955657964831 	0.01287650461342796 	101319.7578332071
-1.037287287287287 	299.9898902429437 	0.02927125742570676 	101313.0485831503
-1.034784784784785 	299.9843904352122 	0.04513368164364714 	101306.5474471592
-1.032282282282283 	299.9791836370899 	0.06018765131646214 	101300.3928653048
-1.02977977977978 	299.9743665430578 	0.07412904242312046 	101294.6992460419
-1.027277277277277 	299.9700090602938 	0.0867368865753278 	101289.549037103
-1.024774774774775 	299.9661928747882 	0.09776529064237741 	101285.0386847275
-1.022272272272272 	299.9629963498102 	0.1069963699721898 	101281.2608458381
-1.01976976976977 	299.960488858971 	0.1142375241030266 	101278.2973297422
-1.017267267267267 	299.958731364932 	0.1192946017864262 	101276.2202496518
-1.014764764764765 	299.9577591367508 	0.1221105357108229 	101275.0712224008
-1.012262262262262 	299.9575695238302 	0.1226258025775985 	101274.8470866155
-1.00975975975976 	299.9581682741252 	0.1208789266620589 	101275.5546366186
-1.007257257257257 	299.9595416851705 	0.1169280859848692 	101277.1775962631
-1.004754754754755 	299.9616636174566 	0.1107820306187962 	101279.6852612488
-1.002252252252252 	299.9644968521717 	0.1026004674088547 	101283.0336212151
-0.9997497497497498 	299.9679872938876 	0.09253013146139689 	101287.158745369
-0.9972472472472473 	299.972044749904 	0.0807856271344958 	101291.9541872861
-0.9947447447447449 	299.9766061690331 	0.0676132793204833 	101297.345445729
-0.9922422422422421 	299.9815831348025 	0.05321275592938415 	101303.2281104077
-0.9897397397397399 	299.9868849064356 	0.03786313416356259 	101309.4950061065
-0.9872372372372376 	299.9924087768966 	0.02188794021970301 	101316.0247113413
-0.9847347347347346 	299.998042572896 	0.006634544556507842 	101322.6846389096
-0.9822322322322323 	300.0037083150841 	0.01078592114783638 	101329.3827013304
-0.9797297297297296 	300.009323215541 	0.02698405334780542 	101336.0209351429
-0.9772272272272275 	300.0147750638942 	0.04275689651389929 	101342.4667723052
-0.9747247247247248 	300.0199651955797 	0.05777231417124579 	101348.6034653868
-0.9722222222222224 	300.0248067250731 	0.07177851963550833 	101354.3281416932
-0.9697197197197196 	300.0292141549708 	0.08451354003232311 	101359.5398266287
-0.9672172172172175 	300.0331030785018 	0.09573841709710153 	101364.1384936166
-0.9647147147147147 	300.0363952339261 	0.105258552374053 	101368.0316709237
-0.9622122122122124 	300.0390207162898 	0.1128431916648085 	101371.1365907201
-0.9597097097097099 	300.0409280615087 	0.1183407267348381 	101373.3922079603
-0.9572072072072073 	300.0420728665861 	0.1216197562468101 	101374.7461640372
-0.9547047047047047 	300.0424261919205 	0.1226160697514315 	101375.1640010666
-0.9522022022022023 	300.0419794345323 	0.1213321550425369 	101374.6357170166
-0.9496996996996998 	300.040745188175 	0.1177719826179873 	101373.176269219
-0.9471971971971973 	300.0387536816996 	0.1120333964541882 	101370.8212002995
-0.9446946946946947 	300.0360511912756 	0.1042144935686139 	101367.6254280212
-0.9421921921921923 	300.032681807236 	0.09446144408499951 	101363.641043563
-0.93968968968969 	300.0287029241536 	0.08297049662721297 	101358.9361076547
-0.9371871871871872 	300.0241879885955 	0.06990767768144351 	101353.5975012889
-0.9346846846846848 	300.0192207528607 	0.05553712825904748 	101347.7242017919
-0.9321821821821823 	300.0138956829001 	0.04013219620084414 	101341.4281198684
-0.9296796796796799 	300.0083263155817 	0.024012408015993 	101334.8434277412
-0.9271771771771771 	300.0026228600557 	0.007542226288305273 	101328.1005659973
-0.9246746746746748 	299.9968890743752 	0.01008291485800307 	101321.3221824935
-0.9221721721721724 	299.9912097849714 	0.025445785853659 	101314.6084599843
-0.9196696696696698 	299.9856784762804 	0.04141037453283711 	101308.0700078892
-0.9171671671671672 	299.9803986224443 	0.05668104054821481 	101301.8290358381
-0.9146646646646649 	299.9754700160912 	0.07093036312958272 	101296.0035252596
-0.9121621621621623 	299.9709838436004 	0.08390076877702382 	101290.7011826102
-0.9096596596596597 	299.9670407361299 	0.09530487837929502 	101286.0408033544
-0.9071571571571573 	299.9637173880427 	0.1049167040658326 	101282.1130259018
-0.9046546546546547 	299.9610764134484 	0.11255191231211 	101278.991780913
-0.9021521521521524 	299.9591682242503 	0.1180515858081531 	101276.7365895434
-0.8996496496496498 	299.9580237815612 	0.1213512261995772 	101275.38401562
-0.8971471471471473 	299.9576527252299 	0.1223833342112334 	101274.9454674
-0.894644644644645 	299.9580736867619 	0.1211605513673101 	101275.4428921419
-0.892142142142142 	299.9592723191417 	0.1177022440604508 	101276.8593284111
-0.8896396396396397 	299.9612241892703 	0.1120517094356699 	101279.1659944397
-0.8871371371371374 	299.9638930000556 	0.1043516829910997 	101282.3200127779
-0.8846346346346349 	299.967224553559 	0.09473940529549066 	101286.2573464205
-0.8821321321321324 	299.9711451092435 	0.08339661513853996 	101290.8909254413
-0.8796296296296297 	299.9755998474294 	0.07053377494253343 	101296.1560623647
-0.8771271271271271 	299.980491101955 	0.05637875055481301 	101301.9373746628
-0.8746246246246248 	299.9857205996329 	0.04122961602800908 	101308.118776733
-0.8721221221221224 	299.9911805662869 	0.02543979558148475 	101314.572872945
-0.8696196196196196 	299.9967532147084 	0.009311816901554928 	101321.1604345188
-0.8671171171171175 	300.0023623767794 	0.009453402187348883 	101327.7915362525
-0.8646146146146148 	300.0079460613223 	0.0230171744521997 	101334.3928090182
-0.8621121121121121 	300.0134140294259 	0.03883251434241008 	101340.8576288365
-0.8596096096096097 	300.0186678914488 	0.05400631437124524 	101347.0695770589
-0.857107107107107 	300.023603394138 	0.06826612191142413 	101352.9052978648
-0.8546046046046049 	300.0281192613168 	0.08132007436676819 	101358.2451625474
-0.8521021021021022 	300.0321308704308 	0.09291295403405858 	101362.9888788985
-0.8495995995995997 	300.0355645400825 	0.1028611394531326 	101367.0493798207
-0.8470970970970974 	300.0383545630589 	0.1109189690354807 	101370.3488366374
-0.8445945945945946 	300.0404432480436 	0.1169389631097633 	101372.8188716645
-0.8420920920920922 	300.0417747127693 	0.1207621543247454 	101374.3935907179
-0.8395895895895897 	300.0423156163467 	0.1223092961519124 	101375.0332780821
-0.8370870870870872 	300.042065147178 	0.1215907346319963 	101374.7371230601
-0.8345845845845846 	300.0410367434869 	0.1186042168583404 	101373.521080137
-0.8320820820820823 	300.039252201005 	0.1134491778841705 	101371.4107347273
-0.8295795795795798 	300.0367405270906 	0.106179078478172 	101368.4406351214
-0.8270770770770772 	300.0335343586353 	0.09690480211142373 	101364.6492248733
-0.8245745745745746 	300.0296871796502 	0.08580060320049214 	101360.1000199876
-0.8220720720720721 	300.0252762272553 	0.07303694800020596 	101354.8843222269
-0.8195695695695699 	300.0203889071472 	0.05891162760149024 	101349.1054236359
-0.817067067067067 	300.0151291115197 	0.04370627643412837 	101342.8864899813
-0.8145645645645651 	300.0096114350404 	0.02774066019075735 	101336.3628295464
-0.8120620620620621 	300.0039442487363 	0.01136589411804823 	101329.6628009051
-0.8095595595595597 	299.9982271189959 	0.009092713055661733 	101322.904034015
-0.8070570570570572 	299.9925312265824 	0.02164695369748136 	101316.1705705197
-0.8045545545545546 	299.9869528163041 	0.03773893124483577 	101309.576413404
-0.8020520520520523 	299.9816057485075 	0.05321079434641807 	101303.2559005759
-0.7995495495495494 	299.9765911116453 	0.06770992532285405 	101297.3286829447
-0.7970470470470474 	299.9720038721352 	0.08097515369285069 	101291.9068361629
-0.7945445445445446 	299.9679401925414 	0.09271111078793967 	101287.1038666055
-0.7920420420420423 	299.9644790835733 	0.1026970239097781 	101283.0133036196
-0.7895395395395397 	299.961691338763 	0.1107645277543693 	101279.7185522023
-0.7870370370370371 	299.9596320369244 	0.116720519847291 	101277.2848129375
-0.7845345345345348 	299.9583289175299 	0.120491483708458 	101275.7446983121
-0.7820320320320323 	299.957795647861 	0.1219947488431183 	101275.1143918197
-0.7795295295295296 	299.9580441750833 	0.1212630802404617 	101275.408097087
-0.7770270270270272 	299.9590621776697 	0.1183349527418813 	101276.6110355121
-0.7745245245245247 	299.9608317722091 	0.1132115380345632 	101278.7023111682
-0.7720220220220222 	299.9633266032976 	0.1060077827837047 	101281.6507064857
-0.7695195195195199 	299.9664974436578 	0.0968253792924091 	101285.398028676
-0.767017017017017 	299.9702842888722 	0.08586436258635227 	101289.8736000915
-0.7645145145145147 	299.9746187886737 	0.07336230845077719 	101294.9965408229
-0.7620120120120122 	299.979402339091 	0.05953897750909382 	101300.6505328242
-0.7595095095095097 	299.9845355150827 	0.04468585788529616 	101306.7180212732
-0.7570070070070072 	299.9899194214307 	0.02911768527503977 	101313.082090283
-0.7545045045045048 	299.9954408781363 	0.01313678089366596 	101319.6091306221
-0.7520020020020022 	300.0010169647292 	0.007973777000988488 	101326.2009992454
-0.7494994994994997 	300.0065867384045 	0.01908817314614138 	101332.7857849723
-0.7469969969969972 	300.0120678815189 	0.03495177593501642 	101339.2661100822
-0.7444944944944945 	300.0173634820595 	0.05025123578989608 	101345.5272818886
-0.7419919919919924 	300.0223699363829 	0.06471697163312307 	101351.4469094987
-0.7394894894894897 	300.0269846200259 	0.07804928649754016 	101356.9034921455
-0.7369869869869872 	300.0311223837441 	0.08999044153096984 	101361.7963754625
-0.7344844844844846 	300.0346985868817 	0.1003373082599123 	101366.0254098184
-0.7319819819819822 	300.0376435487868 	0.1088388558292972 	101369.508000768
-0.7294794794794797 	300.0398980853111 	0.1153455413157002 	101372.1742363445
-0.7269769769769773 	300.0414130998848 	0.1197153246824102 	101373.9659425413
-0.7244744744744747 	300.0421558550762 	0.1218564043793878 	101374.844385845
-0.721971971971972 	300.0421207832116 	0.1217623962977479 	101374.8029787168
-0.7194694694694695 	300.0413020310341 	0.1193815688780788 	101373.8347847446
-0.7169669669669674 	300.0397138208336 	0.1147920087890965 	101371.9566877542
-0.7144644644644647 	300.037378786601 	0.1080320698262281 	101369.19541563
-0.711961961961962 	300.0343303708893 	0.09919608421331547 	101365.5905728254
-0.7094594594594597 	300.0306210708023 	0.08849532825644627 	101361.2044005694
-0.7069569569569573 	300.0263314913832 	0.07606511274011496 	101356.132114477
-0.7044544544544545 	300.0215413955981 	0.06223669355852739 	101350.468179416
-0.7019519519519523 	300.016358748603 	0.04726779428792392 	101344.340362648
-0.6994494494494495 	300.0108937093822 	0.0314497772557344 	101337.8789073367
-0.6969469469469471 	300.0052571122513 	0.01517658663228238 	101331.2149826774
-0.6944444444444446 	299.9995515098003 	0.007262198851143369 	101324.4697208785
-0.6919419419419421 	299.9938434967032 	0.01783970137458608 	101317.7218974799
-0.6894394394394396 	299.9882292530696 	0.03403287100358171 	101311.0852726023
-0.6869369369369374 	299.9828227781624 	0.04970393338000018 	101304.6945158089
-0.6844344344344344 	299.977723170807 	0.06444311483591163 	101298.6668097966
-0.6819319319319321 	299.9730324430316 	0.07801847513088069 	101293.1225630773
-0.6794294294294296 	299.9688490573904 	0.09008208971355795 	101288.1781039878
-0.6769269269269272 	299.9652580973814 	0.1004220117524176 	101283.9340081563
-0.6744244244244245 	299.9623329599313 	0.1088995549518155 	101280.4769062872
-0.6719219219219222 	299.96012446587 	0.1152851113517582 	101277.8668552205
-0.6694194194194195 	299.958653684631 	0.1195390896755894 	101276.1285577434
-0.6669169169169172 	299.9579452664821 	0.1215511501042068 	101275.2912671975
-0.6644144144144146 	299.9580134781723 	0.1213414645674198 	101275.371854367
-0.661911911911912 	299.9588537108915 	0.1189449410014194 	101276.3647479143
-0.6594094094094097 	299.9604547983772 	0.1143073946225369 	101278.2568819316
-0.656906906906907 	299.9627920796248 	0.1075667791188289 	101281.0190446695
-0.6544044044044046 	299.9658129797979 	0.09878500151162151 	101284.5891536422
-0.6519019019019021 	299.9694676832073 	0.08819485337319999 	101288.908493704
-0.6493993993993996 	299.9736797371318 	0.07606124933962308 	101293.8867072637
-0.6468968968968971 	299.9783532376024 	0.06254259834936227 	101299.4105821377
-0.6443943943943946 	299.9833929243762 	0.0479765108411711 	101305.3674910728
-0.6418918918918921 	299.9887035088399 	0.03261693334014099 	101311.6448332936
-0.6393893893893897 	299.9941694510995 	0.01679403021769653 	101318.1061551947
-0.6368868868868871 	299.9997061746085 	0.005663992965459684 	101324.6514472771
-0.6343843843843846 	300.0052468625759 	0.01522124496415064 	101331.2017812912
-0.6318818818818821 	300.0107318570368 	0.03109262175157834 	101337.686563807
-0.6293793793793795 	300.0160632662017 	0.04650755151706242 	101343.990005613
-0.6268768768768773 	300.0211335660684 	0.06117720055494527 	101349.9850341873
-0.6243743743743745 	300.0258334790826 	0.07474706331102404 	101355.5424530221
-0.6218718718718721 	300.0300821094193 	0.08700036379676694 	101360.5664710555
-0.6193693693693696 	300.0337834205731 	0.09770259096836316 	101364.9432708105
-0.6168668668668671 	300.0368771074009 	0.1066313450320038 	101368.6016682659
-0.6143643643643645 	300.0393026173758 	0.1136399832020689 	101371.4700651321
-0.6118618618618621 	300.0410090415371 	0.1185463256040244 	101373.4881318921
-0.6093593593593596 	300.0419530650477 	0.1212745756404914 	101374.604618617
-0.6068568568568571 	300.0421256786299 	0.1217693651558941 	101374.8088257649
-0.6043543543543546 	300.041501893194 	0.1199692830469177 	101374.0711494506
-0.6018518518518521 	300.0401019822415 	0.1159432814136784 	101372.4157450803
-0.5993493493493496 	300.0379468391844 	0.1096896828873967 	101369.8672012161
-0.5968468468468471 	300.0350754608752 	0.1013549887985428 	101366.4717221314
-0.5943443443443446 	300.0315317616017 	0.09112416875226045 	101362.2813329599
-0.591841841841842 	300.0273900178561 	0.07910876734116667 	101357.3837958895
-0.5893393393393397 	300.0227099596459 	0.06562633554251679 	101351.8499429936
-0.5868368368368371 	300.0176098691595 	0.05088435809086311 	101345.8196593396
-0.5843343343343346 	300.0121952006071 	0.03521596666754346 	101339.4177174834
-0.5818318318318321 	300.0065849146279 	0.01902627428309469 	101332.7848282947
-0.5793293293293297 	300.0008855538953 	0.004558080542070084 	101326.046836615
-0.5768268268268271 	299.9951651658753 	0.01400070080354798 	101319.2843381055
-0.5743243243243245 	299.9895166147203 	0.03031142620859804 	101312.6070636731
-0.5718218218218221 	299.9840556147087 	0.04616196607378923 	101306.1518167742
-0.5693193193193196 	299.978882318754 	0.06110731360214991 	101300.0369570701
-0.5668168168168171 	299.9741032426731 	0.07494389362042633 	101294.3881954041
-0.5643143143143147 	299.9698125603974 	0.08730381636385437 	101289.3169112229
-0.5618118118118121 	299.9660948385175 	0.09801103658516226 	101284.9229479156
-0.5593093093093094 	299.9630208644553 	0.1069237543577019 	101281.2899528177
-0.5568068068068072 	299.9606477384033 	0.1137654751956153 	101278.4853374535
-0.5543043043043046 	299.9590055438434 	0.1185195258135416 	101276.5444309119
-0.551801801801802 	299.9581281307736 	0.1210255096868598 	101275.5074202864
-0.5492992992992995 	299.9580260585506 	0.1213138865845285 	101275.3867606631
-0.5467967967967969 	299.9586966493617 	0.1194275291880306 	101276.179207701
-0.5442942942942947 	299.9601272230351 	0.1152664792433974 	101277.8698294646
-0.5417917917917919 	299.9623007078265 	0.1090079684684414 	101280.4383753528
-0.5392892892892895 	299.9651689153254 	0.1006604699990711 	101283.8280305194
-0.536786786786787 	299.9686859889762 	0.09046573462547042 	101287.9846637598
-0.5342842842842846 	299.9727704942667 	0.07870771206106861 	101292.812125901
-0.531781781781782 	299.9773319635459 	0.06549683302763513 	101298.2035315396
-0.5292792792792794 	299.9822743377688 	0.05122700857129902 	101304.0453382968
-0.526776776776777 	299.9875076992199 	0.03609743090353067 	101310.2313460304
-0.5242742742742745 	299.9929158044782 	0.02043655064700084 	101316.6242160955
-0.521771771771772 	299.9984137760006 	0.00458741945690478 	101323.1236583873
-0.5192692692692695 	300.0039267828099 	0.01194853097520417 	101329.641179709
-0.516766766766767 	300.0094156921383 	0.02726928274423344 	101336.1305088388
-0.5142642642642645 	300.0147753260221 	0.04275071153983389 	101342.4672486646
-0.511761761761762 	300.0198935109428 	0.05759002846109733 	101348.5188268999
-0.5092592592592596 	300.024667711021 	0.0713682133434143 	101354.1639587471
-0.506756756756757 	300.0290168890119 	0.08393104116188045 	101359.3067339436
-0.5042542542542544 	300.0328455015181 	0.09498427430046311 	101363.8341595379
-0.5017517517517521 	300.0360947034247 	0.1043425100798911 	101367.6764525102
-0.4992492492492494 	300.0386919461777 	0.1118715908571572 	101370.7479204762
-0.496746746746747 	300.0405827533277 	0.1173186722203513 	101372.9840433158
-0.4942442442442445 	300.0417253934168 	0.1206291475259934 	101374.3353975558
-0.4917417417417421 	300.0420987774669 	0.1216861309755389 	101374.7770740658
-0.4892392392392395 	300.0416708001209 	0.1204497079082761 	101374.2708889898
-0.486736736736737 	300.0404623826643 	0.116984564912477 	101372.841965394
-0.4842342342342345 	300.0384872918623 	0.1112454452462095 	101370.5063525162
-0.481731731731732 	300.0357838419077 	0.1034062162706604 	101367.3094315697
-0.4792292292292296 	300.0323955736507 	0.093605433852554 	101363.3028401102
-0.4767267267267268 	300.0283872838446 	0.08197690107352848 	101358.5630464021
-0.4742242242242246 	300.0238200337072 	0.06884256127896476 	101353.162546836
-0.471721721721722 	300.0188145839294 	0.0543610031502469 	101347.2441179277
-0.4692192192192195 	300.0134650689798 	0.03888851682013936 	101340.9191395708
-0.4667167167167169 	300.0078889829198 	0.02280060031813893 	101334.3266358238
-0.4642142142142145 	300.0021989078115 	0.006305169001816133 	101327.5995185261
-0.461711711711712 	299.9964730243528 	0.01140476645520785 	101320.8304603977
-0.4592092092092094 	299.9907997585077 	0.02660599929899165 	101314.123911992
-0.456706706706707 	299.9852936300961 	0.04258774016231261 	101307.6152450579
-0.4542042042042045 	299.9800553119069 	0.05771725783702283 	101301.4234833228
-0.451701701701702 	299.9751917153732 	0.07179757438583913 	101295.6747439093
-0.4491991991991995 	299.9707980008662 	0.08444649741139025 	101290.4816505452
-0.4466966966966969 	299.9669567196396 	0.09552092726783717 	101285.9416333491
-0.4441941941941945 	299.9637391079977 	0.1048443699971761 	101282.1388565046
-0.441691691691692 	299.9612073500688 	0.1121410519404846 	101279.1467565285
-0.4391891891891895 	299.9594001934842 	0.1173779817455483 	101277.0108925041
-0.436686686686687 	299.9583575760514 	0.1203556711770666 	101275.778618901
-0.4341841841841846 	299.9580929092115 	0.1211306648380916 	101275.4658136667
-0.431681681681682 	299.958598234706 	0.1197171088050506 	101276.0629759963
-0.4291791791791794 	299.9598610079546 	0.1160467767176435 	101277.5552715503
-0.426676676676677 	299.9618626784599 	0.110286409693462 	101279.9207519759
-0.4241741741741744 	299.9645612678093 	0.1024304470529417 	101283.1099550418
-0.421671671671672 	299.967916313586 	0.09270825182520287 	101287.0750478115
-0.4191691691691694 	299.9718562621429 	0.08135095267974894 	101291.7316420093
-0.4166666666666669 	299.9762946988937 	0.06849190876783652 	101296.9775662311
-0.4141641641641645 	299.981144133036 	0.05449847334443207 	101302.7094584852
-0.411661661661662 	299.9863057866189 	0.03957539218547355 	101308.8106709738
-0.4091591591591594 	299.9916649435455 	0.02406732626049722 	101315.145583488
-0.406656656656657 	299.9971271058157 	0.008312425401620194 	101321.6026490623
-0.4041541541541545 	300.0026123853077 	0.009476717364063683 	101328.0873045965
-0.401651651651652 	300.0080957787062 	0.02342720392006117 	101334.5700293287
-0.3991491491491494 	300.0134696771192 	0.0389448922829654 	101340.9235914191
-0.396646646646647 	300.0186249385749 	0.0539092838667749 	101347.0189046361
-0.3941441441441444 	300.023468520674 	0.06789849966027078 	101352.7460424221
-0.3916416416416419 	300.0279135162739 	0.0807572355949349 	101358.0020566089
-0.3891391391391395 	300.0318687614677 	0.09216652961055138 	101362.679164954
-0.3866366366366368 	300.035269591091 	0.1019509341975151 	101366.700762524
-0.3841341341341344 	300.0380353156042 	0.1099817495609604 	101369.9714121759
-0.381631631631632 	300.0401126734767 	0.1159622418098976 	101372.4281680102
-0.3791291291291294 	300.0414590228627 	0.1198330595350968 	101374.0204177375
-0.3766266266266269 	300.0420300896442 	0.1214448765595518 	101374.6958727184
-0.3741241241241244 	300.0417946883992 	0.120767432066985 	101374.4174358571
-0.371621621621622 	300.0407732155411 	0.117868738772421 	101373.209544001
-0.3691191191191194 	300.0389766392664 	0.1126617243656846 	101371.0850811168
-0.366616616616617 	300.0364441711366 	0.1053418109613767 	101368.0903428426
-0.3641141141141143 	300.0332194401776 	0.09598185871480965 	101364.2770877268
-0.3616116116116119 	300.0293509619103 	0.08476770133474675 	101359.7026162184
-0.3591091091091095 	300.0249093932866 	0.07200806455148392 	101354.4506559623
-0.356606606606607 	300.0200078200651 	0.05779082770417874 	101348.6550249974
-0.3541041041041044 	300.0147306263149 	0.04253395514336009 	101342.4154946276
-0.3516016016016019 	300.0091944166744 	0.02653436219797663 	101335.8700436159
-0.3490990990990994 	300.0035154020819 	0.01008293066241015 	101329.155950569
-0.346596596596597 	299.9977851737313 	0.008566588865632824 	101322.3816737288
-0.3440940940940944 	299.9920915973862 	0.02286997291333573 	101315.6510454146
-0.3415915915915919 	299.9865421105035 	0.03895938655360986 	101309.0910735823
-0.3390890890890895 	299.9812387122739 	0.05428328069030799 	101302.822304984
-0.3365865865865869 	299.9762903541663 	0.06860194016430024 	101296.9733321665
-0.3340840840840844 	299.9717994663641 	0.08153340466564621 	101291.6653531668
-0.3315815815815819 	299.9678380338116 	0.09297220990956639 	101286.9832756916
-0.3290790790790794 	299.9644826002152 	0.1027101513589016 	101283.0176164026
-0.3265765765765769 	299.9617907824802 	0.1104764336149997 	101279.836325022
-0.3240740740740744 	299.9598128166893 	0.1161957810698289 	101277.4986022567
-0.3215715715715718 	299.9585966363367 	0.1196506114294447 	101276.061202371
-0.3190690690690695 	299.9581663943314 	0.1209072138462715 	101275.5526939286
-0.3165665665665668 	299.958506383224 	0.1199521969591186 	101275.9545029973
-0.3140640640640644 	299.9596143350501 	0.1167388617083217 	101277.2638197452
-0.311561561561562 	299.9614589063741 	0.1114345008033383 	101279.4436171619
-0.3090590590590593 	299.9640014921637 	0.1040294659722766 	101282.4484707007
-0.3065565565565568 	299.9671975645492 	0.09477667924356431 	101286.2256205218
-0.3040540540540545 	299.9709912984626 	0.08385223542926253 	101290.7094094224
-0.3015515515515518 	299.975296512162 	0.07136681183731063 	101295.7978104956
-0.2990490490490494 	299.9800468778054 	0.05766871212715807 	101301.4125397483
-0.2965465465465469 	299.9851282618432 	0.04295565447032674 	101307.4188437318
-0.2940440440440444 	299.9904323183325 	0.02761032390182692 	101313.688518746
-0.2915415415415418 	299.9958515871312 	0.01197502148637683 	101320.0948528611
-0.2890390390390395 	300.0013030056572 	0.006205915924002416 	101326.5393793761