/*--------------------------------*- C++ -*----------------------------------*\
  =========                 |
  \\      /  F ield         | OpenFOAM: The Open Source CFD Toolbox
   \\    /   O peration     | Website:  https://openfoam.org
    \\  /    A nd           | Version:  7
     \\/     M anipulation  |
\*---------------------------------------------------------------------------*/
FoamFile
{
    version     2.0;
    format      ascii;
    class       volScalarField;
    location    "0.0019";
    object      rho;
}
// * * * * * * * * * * * * * * * * * * * * * * * * * * * * * * * * * * * * * //

dimensions      [1 -3 0 0 0 0 0];

internalField   nonuniform List<scalar> 
5000
(
1.3377723
1.3377723
1.3377723
1.3377722
1.3377722
1.3377722
1.3377722
1.3377722
1.3377722
1.3377722
1.3377722
1.3377721
1.3377721
1.3377721
1.337772
1.3377719
1.3377716
1.3377712
1.3377707
1.3377699
1.3377685
1.3377659
1.3377619
1.3377564
1.3377493
1.3377397
1.3377266
1.3377088
1.3376855
1.3376563
1.3376215
1.3375813
1.3375356
1.3374837
1.3374246
1.3373573
1.3372818
1.3371992
1.3371117
1.3370227
1.3369358
1.3368545
1.3367815
1.3367185
1.3366661
1.3366239
1.336591
1.3365659
1.336547
1.3365331
1.3365229
1.3365154
1.3365098
1.3365057
1.3365026
1.3365003
1.3364986
1.3364974
1.3364964
1.3364957
1.3364952
1.3364948
1.3364945
1.3364943
1.3364941
1.336494
1.3364939
1.3364939
1.3364939
1.3364938
1.3364938
1.3364938
1.3364938
1.3364938
1.3364938
1.3364938
1.3364937
1.3364937
1.3364937
1.3364937
1.3364937
1.3364937
1.3364937
1.3364937
1.3364937
1.3364937
1.3364937
1.3364937
1.3364937
1.3364937
1.3364937
1.3364937
1.3364937
1.3364937
1.3364937
1.3364937
1.3364937
1.3364937
1.3364937
1.3364937
1.3364937
1.3364937
1.3364937
1.3364937
1.3364936
1.3364936
1.3364936
1.3364936
1.3364936
1.3364936
1.3364936
1.3364936
1.3364936
1.3364936
1.3364936
1.3364936
1.3364936
1.3364936
1.3364936
1.3364936
1.3364936
1.3364936
1.3364936
1.3364936
1.3364936
1.3364936
1.3364936
1.3364935
1.3364935
1.3364935
1.3364935
1.3364935
1.3364935
1.3364935
1.3364935
1.3364935
1.3364935
1.3364935
1.3364935
1.3364935
1.3364935
1.3364935
1.3364935
1.3364935
1.3364935
1.3364935
1.3364935
1.3364935
1.3364935
1.3364935
1.3364935
1.3364935
1.3364935
1.3364935
1.3364935
1.3364935
1.3364935
1.3364935
1.3364935
1.3364935
1.3364935
1.3364935
1.3364935
1.3364935
1.3364935
1.3364935
1.3364935
1.3364935
1.3364935
1.3364935
1.3364935
1.3364935
1.3364935
1.3364935
1.3364934
1.3364934
1.3364934
1.3364934
1.3364934
1.3364934
1.3364934
1.3364934
1.3364934
1.3364934
1.3364934
1.3364934
1.3364934
1.3364934
1.3364934
1.3364934
1.3364934
1.3364934
1.3364934
1.3364934
1.3364934
1.3364934
1.3364934
1.3364934
1.3364934
1.3364934
1.3364934
1.3364934
1.3364934
1.3364934
1.3364934
1.3364934
1.3364934
1.3364934
1.3364934
1.3364934
1.3364934
1.3364934
1.3364934
1.3364934
1.3364934
1.3364934
1.3364934
1.3364934
1.3364934
1.3364934
1.3364934
1.3364934
1.3364934
1.3364933
1.3364933
1.3364933
1.3364933
1.3364933
1.3364933
1.3364933
1.3364933
1.3364933
1.3364933
1.3364933
1.3364933
1.3364933
1.3364932
1.3364932
1.3364932
1.3364932
1.3364932
1.3364932
1.3364932
1.3364932
1.3364932
1.3364931
1.3364931
1.3364931
1.3364931
1.3364931
1.3364931
1.336493
1.336493
1.336493
1.336493
1.336493
1.336493
1.3364929
1.3364929
1.3364929
1.3364929
1.3364929
1.3364928
1.3364928
1.3364928
1.3364928
1.3364927
1.3364927
1.3364927
1.3364927
1.3364926
1.3364926
1.3364926
1.3364925
1.3364925
1.3364925
1.3364924
1.3364924
1.3364923
1.3364923
1.3364923
1.3364922
1.3364922
1.3364921
1.336492
1.336492
1.3364919
1.3364919
1.3364918
1.3364918
1.3364917
1.3364916
1.3364915
1.3364915
1.3364914
1.3364913
1.3364912
1.3364912
1.3364911
1.336491
1.3364909
1.3364908
1.3364907
1.3364906
1.3364905
1.3364904
1.3364903
1.3364902
1.33649
1.3364899
1.3364898
1.3364897
1.3364896
1.3364895
1.3364894
1.3364892
1.3364891
1.3364889
1.3364888
1.3364886
1.3364885
1.3364883
1.3364882
1.336488
1.3364879
1.3364877
1.3364875
1.3364873
1.3364871
1.3364869
1.3364867
1.3364865
1.3364863
1.3364861
1.3364859
1.3364856
1.3364854
1.3364852
1.3364849
1.3364847
1.3364844
1.3364841
1.3364838
1.3364835
1.3364832
1.3364829
1.3364826
1.3364823
1.3364819
1.3364816
1.3364812
1.3364808
1.3364804
1.33648
1.3364796
1.3364792
1.3364788
1.3364783
1.3364779
1.3364774
1.3364769
1.3364764
1.3364759
1.3364754
1.3364748
1.3364743
1.3364737
1.3364731
1.3364725
1.3364719
1.3364713
1.3364706
1.33647
1.3364693
1.3364686
1.3364679
1.3364671
1.3364664
1.3364656
1.3364648
1.336464
1.3364632
1.3364623
1.3364615
1.3364606
1.3364597
1.3364588
1.3364578
1.3364569
1.3364559
1.3364549
1.3364539
1.3364528
1.3364517
1.3364506
1.3364495
1.3364484
1.3364472
1.336446
1.3364448
1.3364436
1.3364423
1.336441
1.3364397
1.3364383
1.336437
1.3364356
1.3364341
1.3364327
1.3364312
1.3364297
1.3364282
1.3364266
1.336425
1.3364234
1.3364217
1.33642
1.3364183
1.3364166
1.3364148
1.336413
1.3364111
1.3364093
1.3364074
1.3364054
1.3364035
1.3364014
1.3363994
1.3363973
1.3363953
1.3363931
1.3363909
1.3363887
1.3363865
1.3363842
1.3363819
1.3363795
1.3363772
1.3363747
1.3363723
1.3363698
1.3363672
1.3363647
1.336362
1.3363594
1.3363567
1.336354
1.3363512
1.3363484
1.3363455
1.3363427
1.3363397
1.3363368
1.3363338
1.3363307
1.3363276
1.3363245
1.3363213
1.3363181
1.3363149
1.3363116
1.3363082
1.3363049
1.3363014
1.336298
1.3362944
1.3362909
1.3362873
1.3362837
1.33628
1.3362763
1.3362725
1.3362687
1.3362648
1.3362609
1.336257
1.336253
1.3362489
1.3362448
1.3362407
1.3362366
1.3362323
1.3362281
1.3362238
1.3362194
1.336215
1.3362106
1.3362061
1.3362015
1.336197
1.3361923
1.3361877
1.336183
1.3361782
1.3361734
1.3361685
1.3361636
1.3361587
1.3361537
1.3361487
1.3361436
1.3361385
1.3361333
1.3361281
1.3361228
1.3361175
1.3361122
1.3361068
1.3361013
1.3360958
1.3360903
1.3360847
1.3360791
1.3360734
1.3360677
1.3360619
1.3360561
1.3360503
1.3360444
1.3360385
1.3360325
1.3360265
1.3360204
1.3360143
1.3360081
1.3360019
1.3359957
1.3359894
1.3359831
1.3359767
1.3359703
1.3359639
1.3359574
1.3359508
1.3359442
1.3359376
1.335931
1.3359243
1.3359175
1.3359108
1.3359039
1.3358971
1.3358902
1.3358832
1.3358763
1.3358693
1.3358622
1.3358551
1.335848
1.3358408
1.3358336
1.3358264
1.3358191
1.3358118
1.3358044
1.3357971
1.3357897
1.3357822
1.3357747
1.3357672
1.3357596
1.3357521
1.3357444
1.3357368
1.3357291
1.3357214
1.3357137
1.3357059
1.3356981
1.3356902
1.3356824
1.3356745
1.3356666
1.3356586
1.3356506
1.3356426
1.3356346
1.3356265
1.3356184
1.3356103
1.3356022
1.335594
1.3355858
1.3355776
1.3355694
1.3355611
1.3355528
1.3355445
1.3355362
1.3355279
1.3355195
1.3355111
1.3355027
1.3354942
1.3354858
1.3354773
1.3354688
1.3354603
1.3354518
1.3354433
1.3354347
1.3354261
1.3354175
1.3354089
1.3354003
1.3353917
1.335383
1.3353743
1.3353657
1.335357
1.3353483
1.3353396
1.3353308
1.3353221
1.3353134
1.3353046
1.3352958
1.335287
1.3352783
1.3352695
1.3352607
1.3352519
1.335243
1.3352342
1.3352254
1.3352166
1.3352077
1.3351989
1.33519
1.3351812
1.3351723
1.3351634
1.3351546
1.3351457
1.3351369
1.335128
1.3351191
1.3351103
1.3351014
1.3350925
1.3350837
1.3350748
1.3350659
1.3350571
1.3350482
1.3350394
1.3350305
1.3350217
1.3350128
1.335004
1.3349951
1.3349863
1.3349775
1.3349687
1.3349599
1.3349511
1.3349423
1.3349335
1.3349247
1.334916
1.3349072
1.3348985
1.3348897
1.334881
1.3348723
1.3348636
1.3348549
1.3348462
1.3348376
1.3348289
1.3348203
1.3348116
1.334803
1.3347944
1.3347858
1.3347773
1.3347687
1.3347602
1.3347517
1.3347432
1.3347347
1.3347262
1.3347178
1.3347093
1.3347009
1.3346925
1.3346842
1.3346758
1.3346675
1.3346591
1.3346509
1.3346426
1.3346343
1.3346261
1.3346179
1.3346097
1.3346015
1.3345934
1.3345853
1.3345772
1.3345691
1.334561
1.334553
1.334545
1.334537
1.3345291
1.3345211
1.3345132
1.3345054
1.3344975
1.3344897
1.3344819
1.3344741
1.3344664
1.3344587
1.334451
1.3344433
1.3344357
1.3344281
1.3344205
1.3344129
1.3344054
1.3343979
1.3343904
1.334383
1.3343756
1.3343682
1.3343609
1.3343536
1.3343463
1.334339
1.3343318
1.3343246
1.3343174
1.3343103
1.3343032
1.3342961
1.334289
1.334282
1.334275
1.3342681
1.3342612
1.3342543
1.3342474
1.3342406
1.3342338
1.334227
1.3342203
1.3342136
1.334207
1.3342003
1.3341937
1.3341871
1.3341806
1.3341741
1.3341676
1.3341612
1.3341548
1.3341484
1.3341421
1.3341358
1.3341295
1.3341233
1.334117
1.3341109
1.3341047
1.3340986
1.3340925
1.3340865
1.3340805
1.3340745
1.3340685
1.3340626
1.3340567
1.3340509
1.3340451
1.3340393
1.3340335
1.3340278
1.3340221
1.3340165
1.3340109
1.3340053
1.3339997
1.3339942
1.3339887
1.3339832
1.3339778
1.3339724
1.333967
1.3339617
1.3339564
1.3339511
1.3339459
1.3339407
1.3339355
1.3339303
1.3339252
1.3339201
1.3339151
1.33391
1.3339051
1.3339001
1.3338952
1.3338902
1.3338854
1.3338805
1.3338757
1.3338709
1.3338662
1.3338614
1.3338567
1.3338521
1.3338474
1.3338428
1.3338382
1.3338337
1.3338291
1.3338246
1.3338201
1.3338157
1.3338113
1.3338069
1.3338025
1.3337982
1.3337939
1.3337896
1.3337853
1.3337811
1.3337769
1.3337727
1.3337685
1.3337644
1.3337603
1.3337562
1.3337522
1.3337481
1.3337441
1.3337401
1.3337362
1.3337322
1.3337283
1.3337244
1.3337206
1.3337167
1.3337129
1.3337091
1.3337053
1.3337016
1.3336979
1.3336942
1.3336905
1.3336868
1.3336832
1.3336796
1.333676
1.3336724
1.3336688
1.3336653
1.3336618
1.3336583
1.3336548
1.3336514
1.3336479
1.3336445
1.3336411
1.3336378
1.3336344
1.3336311
1.3336278
1.3336245
1.3336212
1.333618
1.3336147
1.3336115
1.3336083
1.3336052
1.333602
1.3335989
1.3335958
1.3335927
1.3335896
1.3335865
1.3335835
1.3335805
1.3335775
1.3335745
1.3335715
1.3335686
1.3335657
1.3335627
1.3335599
1.333557
1.3335541
1.3335513
1.3335485
1.3335457
1.3335429
1.3335401
1.3335374
1.3335347
1.3335319
1.3335292
1.3335266
1.3335239
1.3335213
1.3335187
1.3335161
1.3335135
1.3335109
1.3335084
1.3335058
1.3335033
1.3335008
1.3334984
1.3334959
1.3334935
1.3334911
1.3334887
1.3334863
1.3334839
1.3334816
1.3334792
1.3334769
1.3334746
1.3334724
1.3334701
1.3334679
1.3334656
1.3334634
1.3334612
1.3334591
1.3334569
1.3334548
1.3334527
1.3334506
1.3334485
1.3334465
1.3334444
1.3334424
1.3334404
1.3334384
1.3334364
1.3334345
1.3334326
1.3334306
1.3334287
1.3334269
1.333425
1.3334232
1.3334213
1.3334195
1.3334177
1.333416
1.3334142
1.3334125
1.3334107
1.333409
1.3334074
1.3334057
1.333404
1.3334024
1.3334008
1.3333992
1.3333976
1.333396
1.3333945
1.333393
1.3333914
1.33339
1.3333885
1.333387
1.3333856
1.3333841
1.3333827
1.3333813
1.3333799
1.3333786
1.3333772
1.3333759
1.3333746
1.3333733
1.333372
1.3333707
1.3333695
1.3333682
1.333367
1.3333658
1.3333646
1.3333634
1.3333623
1.3333611
1.33336
1.3333589
1.3333578
1.3333567
1.3333556
1.3333546
1.3333535
1.3333525
1.3333515
1.3333505
1.3333495
1.3333485
1.3333476
1.3333466
1.3333457
1.3333448
1.3333439
1.333343
1.3333421
1.3333412
1.3333404
1.3333395
1.3333387
1.3333379
1.3333371
1.3333363
1.3333355
1.3333348
1.333334
1.3333333
1.3333325
1.3333318
1.3333311
1.3333304
1.3333297
1.333329
1.3333284
1.3333277
1.3333271
1.3333264
1.3333258
1.3333252
1.3333246
1.333324
1.3333234
1.3333228
1.3333223
1.3333217
1.3333212
1.3333206
1.3333201
1.3333196
1.3333191
1.3333186
1.3333181
1.3333176
1.3333172
1.3333167
1.3333162
1.3333158
1.3333154
1.3333149
1.3333145
1.3333141
1.3333137
1.3333133
1.3333129
1.3333125
1.3333121
1.3333117
1.3333114
1.333311
1.3333107
1.3333103
1.33331
1.3333097
1.3333093
1.333309
1.3333087
1.3333084
1.3333081
1.3333078
1.3333075
1.3333072
1.333307
1.3333067
1.3333064
1.3333062
1.3333059
1.3333057
1.3333054
1.3333052
1.3333049
1.3333047
1.3333045
1.3333043
1.333304
1.3333038
1.3333036
1.3333034
1.3333032
1.333303
1.3333028
1.3333027
1.3333025
1.3333023
1.3333021
1.333302
1.3333018
1.3333016
1.3333015
1.3333013
1.3333012
1.333301
1.3333009
1.3333007
1.3333006
1.3333004
1.3333003
1.3333002
1.3333
1.3332999
1.3332998
1.3332997
1.3332996
1.3332995
1.3332994
1.3332992
1.3332991
1.333299
1.3332989
1.3332988
1.3332987
1.3332986
1.3332985
1.3332985
1.3332984
1.3332983
1.3332982
1.3332981
1.333298
1.333298
1.3332979
1.3332978
1.3332977
1.3332977
1.3332976
1.3332975
1.3332975
1.3332974
1.3332973
1.3332973
1.3332972
1.3332972
1.3332971
1.333297
1.333297
1.3332969
1.3332969
1.3332968
1.3332968
1.3332967
1.3332967
1.3332966
1.3332966
1.3332966
1.3332965
1.3332965
1.3332964
1.3332964
1.3332964
1.3332963
1.3332963
1.3332962
1.3332962
1.3332962
1.3332961
1.3332961
1.3332961
1.333296
1.333296
1.333296
1.333296
1.3332959
1.3332959
1.3332959
1.3332959
1.3332958
1.3332958
1.3332958
1.3332958
1.3332957
1.3332957
1.3332957
1.3332957
1.3332956
1.3332956
1.3332956
1.3332956
1.3332956
1.3332955
1.3332955
1.3332955
1.3332955
1.3332955
1.3332955
1.3332954
1.3332954
1.3332954
1.3332954
1.3332954
1.3332954
1.3332953
1.3332953
1.3332953
1.3332953
1.3332953
1.3332953
1.3332953
1.3332953
1.3332952
1.3332952
1.3332952
1.3332952
1.3332952
1.3332952
1.3332952
1.3332952
1.3332951
1.3332951
1.3332951
1.3332951
1.3332951
1.3332951
1.3332951
1.3332951
1.3332951
1.333295
1.333295
1.333295
1.333295
1.333295
1.333295
1.333295
1.333295
1.333295
1.333295
1.3332949
1.3332949
1.3332949
1.3332949
1.3332949
1.3332949
1.3332949
1.3332949
1.3332949
1.3332949
1.3332949
1.3332948
1.3332948
1.3332948
1.3332948
1.3332948
1.3332948
1.3332948
1.3332948
1.3332948
1.3332948
1.3332948
1.3332947
1.3332947
1.3332947
1.3332947
1.3332947
1.3332947
1.3332947
1.3332947
1.3332947
1.3332947
1.3332947
1.3332947
1.3332947
1.3332947
1.3332946
1.3332946
1.3332946
1.3332946
1.3332946
1.3332946
1.3332946
1.3332946
1.3332946
1.3332946
1.3332946
1.3332946
1.3332945
1.3332945
1.3332945
1.3332945
1.3332945
1.3332945
1.3332945
1.3332945
1.3332945
1.3332945
1.3332945
1.3332945
1.3332944
1.3332944
1.3332944
1.3332944
1.3332944
1.3332944
1.3332944
1.3332944
1.3332944
1.3332944
1.3332944
1.3332944
1.3332944
1.3332944
1.3332943
1.3332943
1.3332943
1.3332943
1.3332943
1.3332943
1.3332943
1.3332943
1.3332943
1.3332943
1.3332943
1.3332943
1.3332942
1.3332942
1.3332942
1.3332942
1.3332942
1.3332942
1.3332942
1.3332942
1.3332942
1.3332942
1.3332942
1.3332942
1.3332942
1.3332942
1.3332941
1.3332941
1.3332941
1.3332941
1.3332941
1.3332941
1.3332941
1.3332941
1.3332941
1.3332941
1.3332941
1.333294
1.333294
1.333294
1.333294
1.333294
1.333294
1.333294
1.333294
1.333294
1.333294
1.333294
1.333294
1.333294
1.3332939
1.3332939
1.3332939
1.3332939
1.3332939
1.3332939
1.3332939
1.3332939
1.3332939
1.3332939
1.3332939
1.3332939
1.3332938
1.3332938
1.3332938
1.3332938
1.3332938
1.3332938
1.3332938
1.3332938
1.3332938
1.3332938
1.3332938
1.3332938
1.3332937
1.3332937
1.3332937
1.3332937
1.3332937
1.3332937
1.3332937
1.3332937
1.3332937
1.3332937
1.3332937
1.3332937
1.3332936
1.3332936
1.3332936
1.3332936
1.3332936
1.3332936
1.3332936
1.3332936
1.3332936
1.3332936
1.3332936
1.3332936
1.3332935
1.3332935
1.3332935
1.3332935
1.3332935
1.3332935
1.3332935
1.3332935
1.3332935
1.3332935
1.3332935
1.3332935
1.3332934
1.3332934
1.3332934
1.3332934
1.3332934
1.3332934
1.3332934
1.3332934
1.3332934
1.3332934
1.3332934
1.3332933
1.3332933
1.3332933
1.3332933
1.3332933
1.3332933
1.3332933
1.3332933
1.3332933
1.3332933
1.3332933
1.3332932
1.3332932
1.3332932
1.3332932
1.3332932
1.3332932
1.3332932
1.3332932
1.3332932
1.3332932
1.3332932
1.3332931
1.3332931
1.3332931
1.3332931
1.3332931
1.3332931
1.3332931
1.3332931
1.3332931
1.3332931
1.3332931
1.3332931
1.333293
1.333293
1.333293
1.333293
1.333293
1.333293
1.333293
1.333293
1.333293
1.3332929
1.3332929
1.3332929
1.3332929
1.3332929
1.3332929
1.3332929
1.3332929
1.3332929
1.3332929
1.3332929
1.3332928
1.3332928
1.3332928
1.3332928
1.3332928
1.3332928
1.3332928
1.3332928
1.3332928
1.3332928
1.3332927
1.3332927
1.3332927
1.3332927
1.3332927
1.3332927
1.3332927
1.3332927
1.3332927
1.3332926
1.3332926
1.3332926
1.3332926
1.3332926
1.3332926
1.3332926
1.3332926
1.3332926
1.3332926
1.3332925
1.3332925
1.3332925
1.3332925
1.3332925
1.3332925
1.3332925
1.3332925
1.3332925
1.3332925
1.3332925
1.3332924
1.3332924
1.3332924
1.3332924
1.3332924
1.3332924
1.3332924
1.3332924
1.3332924
1.3332923
1.3332923
1.3332923
1.3332923
1.3332923
1.3332923
1.3332923
1.3332923
1.3332922
1.3332922
1.3332922
1.3332922
1.3332922
1.3332922
1.3332922
1.3332922
1.3332922
1.3332922
1.3332921
1.3332921
1.3332921
1.3332921
1.3332921
1.3332921
1.3332921
1.3332921
1.3332921
1.333292
1.333292
1.333292
1.333292
1.333292
1.333292
1.333292
1.333292
1.333292
1.3332919
1.3332919
1.3332919
1.3332919
1.3332919
1.3332919
1.3332919
1.3332919
1.3332919
1.3332918
1.3332918
1.3332918
1.3332918
1.3332918
1.3332918
1.3332918
1.3332918
1.3332918
1.3332917
1.3332917
1.3332917
1.3332917
1.3332917
1.3332917
1.3332917
1.3332917
1.3332917
1.3332916
1.3332916
1.3332916
1.3332916
1.3332916
1.3332916
1.3332916
1.3332916
1.3332915
1.3332915
1.3332915
1.3332915
1.3332915
1.3332915
1.3332915
1.3332915
1.3332914
1.3332914
1.3332914
1.3332914
1.3332914
1.3332914
1.3332914
1.3332914
1.3332914
1.3332913
1.3332913
1.3332913
1.3332913
1.3332913
1.3332913
1.3332913
1.3332913
1.3332912
1.3332912
1.3332912
1.3332912
1.3332912
1.3332912
1.3332912
1.3332912
1.3332911
1.3332911
1.3332911
1.3332911
1.3332911
1.3332911
1.3332911
1.3332911
1.3332911
1.333291
1.333291
1.333291
1.333291
1.333291
1.333291
1.333291
1.3332909
1.3332909
1.3332909
1.3332909
1.3332909
1.3332909
1.3332909
1.3332909
1.3332908
1.3332908
1.3332908
1.3332908
1.3332908
1.3332908
1.3332908
1.3332908
1.3332907
1.3332907
1.3332907
1.3332907
1.3332907
1.3332907
1.3332907
1.3332907
1.3332906
1.3332906
1.3332906
1.3332906
1.3332906
1.3332906
1.3332906
1.3332905
1.3332905
1.3332905
1.3332905
1.3332905
1.3332905
1.3332905
1.3332904
1.3332904
1.3332904
1.3332904
1.3332904
1.3332904
1.3332904
1.3332903
1.3332903
1.3332903
1.3332903
1.3332903
1.3332903
1.3332903
1.3332903
1.3332902
1.3332902
1.3332902
1.3332902
1.3332902
1.3332902
1.3332902
1.3332901
1.3332901
1.3332901
1.3332901
1.3332901
1.3332901
1.3332901
1.33329
1.33329
1.33329
1.33329
1.33329
1.33329
1.33329
1.3332899
1.3332899
1.3332899
1.3332899
1.3332899
1.3332899
1.3332899
1.3332899
1.3332898
1.3332898
1.3332898
1.3332898
1.3332898
1.3332898
1.3332897
1.3332897
1.3332897
1.3332897
1.3332897
1.3332897
1.3332896
1.3332896
1.3332896
1.3332896
1.3332896
1.3332896
1.3332896
1.3332895
1.3332895
1.3332895
1.3332895
1.3332895
1.3332895
1.3332895
1.3332894
1.3332894
1.3332894
1.3332894
1.3332894
1.3332894
1.3332893
1.3332893
1.3332893
1.3332893
1.3332893
1.3332893
1.3332892
1.3332892
1.3332892
1.3332892
1.3332892
1.3332892
1.3332892
1.3332892
1.3332891
1.3332891
1.3332891
1.3332891
1.3332891
1.3332891
1.333289
1.333289
1.333289
1.333289
1.333289
1.333289
1.3332889
1.3332889
1.3332889
1.3332889
1.3332889
1.3332889
1.3332888
1.3332888
1.3332888
1.3332888
1.3332888
1.3332888
1.3332887
1.3332887
1.3332887
1.3332887
1.3332887
1.3332887
1.3332886
1.3332886
1.3332886
1.3332886
1.3332886
1.3332886
1.3332885
1.3332885
1.3332885
1.3332885
1.3332885
1.3332885
1.3332884
1.3332884
1.3332884
1.3332884
1.3332884
1.3332884
1.3332883
1.3332883
1.3332883
1.3332883
1.3332883
1.3332883
1.3332882
1.3332882
1.3332882
1.3332882
1.3332882
1.3332881
1.3332881
1.3332881
1.3332881
1.3332881
1.3332881
1.333288
1.333288
1.333288
1.333288
1.333288
1.333288
1.3332879
1.3332879
1.3332879
1.3332879
1.3332879
1.3332879
1.3332878
1.3332878
1.3332878
1.3332878
1.3332878
1.3332877
1.3332877
1.3332877
1.3332877
1.3332877
1.3332876
1.3332876
1.3332876
1.3332876
1.3332876
1.3332875
1.3332875
1.3332875
1.3332875
1.3332875
1.3332875
1.3332874
1.3332874
1.3332874
1.3332874
1.3332874
1.3332873
1.3332873
1.3332873
1.3332873
1.3332873
1.3332872
1.3332872
1.3332872
1.3332872
1.3332872
1.3332871
1.3332871
1.3332871
1.3332871
1.3332871
1.333287
1.333287
1.333287
1.333287
1.333287
1.333287
1.3332869
1.3332869
1.3332869
1.3332869
1.3332869
1.3332868
1.3332868
1.3332868
1.3332868
1.3332867
1.3332867
1.3332867
1.3332867
1.3332867
1.3332866
1.3332866
1.3332866
1.3332866
1.3332866
1.3332865
1.3332865
1.3332865
1.3332865
1.3332865
1.3332864
1.3332864
1.3332864
1.3332864
1.3332863
1.3332863
1.3332863
1.3332863
1.3332863
1.3332862
1.3332862
1.3332862
1.3332862
1.3332862
1.3332861
1.3332861
1.3332861
1.3332861
1.333286
1.333286
1.333286
1.333286
1.333286
1.3332859
1.3332859
1.3332859
1.3332859
1.3332858
1.3332858
1.3332858
1.3332858
1.3332858
1.3332857
1.3332857
1.3332857
1.3332857
1.3332856
1.3332856
1.3332856
1.3332856
1.3332856
1.3332855
1.3332855
1.3332855
1.3332855
1.3332854
1.3332854
1.3332854
1.3332854
1.3332853
1.3332853
1.3332853
1.3332853
1.3332853
1.3332852
1.3332852
1.3332852
1.3332852
1.3332851
1.3332851
1.3332851
1.3332851
1.333285
1.333285
1.333285
1.333285
1.3332849
1.3332849
1.3332849
1.3332849
1.3332848
1.3332848
1.3332848
1.3332848
1.3332847
1.3332847
1.3332847
1.3332847
1.3332846
1.3332846
1.3332846
1.3332846
1.3332845
1.3332845
1.3332845
1.3332845
1.3332844
1.3332844
1.3332844
1.3332844
1.3332843
1.3332843
1.3332843
1.3332843
1.3332842
1.3332842
1.3332842
1.3332842
1.3332841
1.3332841
1.3332841
1.333284
1.333284
1.333284
1.333284
1.3332839
1.3332839
1.3332839
1.3332839
1.3332838
1.3332838
1.3332838
1.3332838
1.3332837
1.3332837
1.3332837
1.3332836
1.3332836
1.3332836
1.3332836
1.3332835
1.3332835
1.3332835
1.3332835
1.3332834
1.3332834
1.3332834
1.3332833
1.3332833
1.3332833
1.3332833
1.3332832
1.3332832
1.3332832
1.3332831
1.3332831
1.3332831
1.3332831
1.333283
1.333283
1.333283
1.3332829
1.3332829
1.3332829
1.3332828
1.3332828
1.3332828
1.3332828
1.3332827
1.3332827
1.3332827
1.3332826
1.3332826
1.3332826
1.3332826
1.3332825
1.3332825
1.3332825
1.3332824
1.3332824
1.3332824
1.3332823
1.3332823
1.3332823
1.3332823
1.3332822
1.3332822
1.3332822
1.3332821
1.3332821
1.3332821
1.333282
1.333282
1.333282
1.3332819
1.3332819
1.3332819
1.3332819
1.3332818
1.3332818
1.3332818
1.3332817
1.3332817
1.3332817
1.3332816
1.3332816
1.3332816
1.3332815
1.3332815
1.3332815
1.3332814
1.3332814
1.3332813
1.3332813
1.3332813
1.3332812
1.3332812
1.3332812
1.3332812
1.3332811
1.3332811
1.3332811
1.333281
1.333281
1.333281
1.3332809
1.3332809
1.3332809
1.3332808
1.3332808
1.3332808
1.3332807
1.3332807
1.3332806
1.3332806
1.3332806
1.3332805
1.3332805
1.3332805
1.3332804
1.3332804
1.3332804
1.3332803
1.3332803
1.3332803
1.3332802
1.3332802
1.3332802
1.3332801
1.3332801
1.33328
1.33328
1.33328
1.3332799
1.3332799
1.3332798
1.3332798
1.3332798
1.3332797
1.3332797
1.3332797
1.3332796
1.3332796
1.3332796
1.3332795
1.3332795
1.3332794
1.3332794
1.3332794
1.3332793
1.3332793
1.3332792
1.3332792
1.3332792
1.3332791
1.3332791
1.333279
1.333279
1.333279
1.3332789
1.3332789
1.3332788
1.3332788
1.3332788
1.3332787
1.3332787
1.3332786
1.3332786
1.3332786
1.3332785
1.3332785
1.3332784
1.3332784
1.3332784
1.3332783
1.3332783
1.3332782
1.3332782
1.3332782
1.3332781
1.3332781
1.333278
1.333278
1.3332779
1.3332779
1.3332779
1.3332778
1.3332778
1.3332777
1.3332777
1.3332776
1.3332776
1.3332775
1.3332775
1.3332774
1.3332774
1.3332774
1.3332773
1.3332773
1.3332772
1.3332772
1.3332771
1.3332771
1.333277
1.333277
1.3332769
1.3332769
1.3332768
1.3332768
1.3332768
1.3332767
1.3332767
1.3332766
1.3332766
1.3332765
1.3332765
1.3332764
1.3332764
1.3332763
1.3332763
1.3332762
1.3332762
1.3332761
1.3332761
1.333276
1.333276
1.3332759
1.3332759
1.3332758
1.3332758
1.3332757
1.3332757
1.3332756
1.3332756
1.3332755
1.3332755
1.3332754
1.3332754
1.3332753
1.3332753
1.3332752
1.3332752
1.3332751
1.3332751
1.333275
1.333275
1.3332749
1.3332749
1.3332748
1.3332747
1.3332747
1.3332746
1.3332746
1.3332745
1.3332745
1.3332744
1.3332744
1.3332743
1.3332742
1.3332742
1.3332741
1.3332741
1.333274
1.333274
1.3332739
1.3332739
1.3332738
1.3332737
1.3332737
1.3332736
1.3332736
1.3332735
1.3332735
1.3332734
1.3332733
1.3332733
1.3332732
1.3332732
1.3332731
1.333273
1.333273
1.3332729
1.3332729
1.3332728
1.3332727
1.3332727
1.3332726
1.3332725
1.3332725
1.3332724
1.3332723
1.3332723
1.3332722
1.3332722
1.3332721
1.333272
1.333272
1.3332719
1.3332718
1.3332718
1.3332717
1.3332716
1.3332716
1.3332715
1.3332714
1.3332714
1.3332713
1.3332712
1.3332712
1.3332711
1.333271
1.333271
1.3332709
1.3332708
1.3332707
1.3332707
1.3332706
1.3332705
1.3332705
1.3332704
1.3332703
1.3332703
1.3332702
1.3332701
1.33327
1.33327
1.3332699
1.3332698
1.3332697
1.3332697
1.3332696
1.3332695
1.3332694
1.3332694
1.3332693
1.3332692
1.3332691
1.3332691
1.333269
1.3332689
1.3332688
1.3332688
1.3332687
1.3332686
1.3332685
1.3332684
1.3332684
1.3332683
1.3332682
1.3332681
1.333268
1.3332679
1.3332679
1.3332678
1.3332677
1.3332676
1.3332675
1.3332674
1.3332673
1.3332673
1.3332672
1.3332671
1.333267
1.3332669
1.3332668
1.3332667
1.3332666
1.3332666
1.3332665
1.3332664
1.3332663
1.3332662
1.3332661
1.333266
1.3332659
1.3332658
1.3332657
1.3332656
1.3332656
1.3332655
1.3332654
1.3332653
1.3332652
1.3332651
1.333265
1.3332649
1.3332648
1.3332647
1.3332646
1.3332645
1.3332644
1.3332643
1.3332642
1.3332641
1.333264
1.3332639
1.3332638
1.3332637
1.3332636
1.3332635
1.3332634
1.3332633
1.3332631
1.333263
1.3332629
1.3332628
1.3332627
1.3332626
1.3332625
1.3332624
1.3332623
1.3332621
1.333262
1.3332619
1.3332618
1.3332617
1.3332616
1.3332615
1.3332613
1.3332612
1.3332611
1.333261
1.3332609
1.3332607
1.3332606
1.3332605
1.3332604
1.3332602
1.3332601
1.33326
1.3332599
1.3332597
1.3332596
1.3332595
1.3332594
1.3332592
1.3332591
1.333259
1.3332588
1.3332587
1.3332586
1.3332584
1.3332583
1.3332582
1.333258
1.3332579
1.3332577
1.3332576
1.3332575
1.3332573
1.3332572
1.333257
1.3332569
1.3332567
1.3332566
1.3332564
1.3332563
1.3332561
1.333256
1.3332558
1.3332557
1.3332555
1.3332554
1.3332552
1.3332551
1.3332549
1.3332547
1.3332546
1.3332544
1.3332543
1.3332541
1.3332539
1.3332537
1.3332536
1.3332534
1.3332532
1.333253
1.3332529
1.3332527
1.3332525
1.3332523
1.3332521
1.333252
1.3332518
1.3332516
1.3332514
1.3332512
1.333251
1.3332508
1.3332506
1.3332504
1.3332502
1.33325
1.3332498
1.3332496
1.3332494
1.3332492
1.333249
1.3332488
1.3332486
1.3332484
1.3332482
1.3332479
1.3332477
1.3332475
1.3332473
1.3332471
1.3332468
1.3332466
1.3332464
1.3332462
1.3332459
1.3332457
1.3332454
1.3332452
1.333245
1.3332447
1.3332445
1.3332442
1.3332439
1.3332437
1.3332434
1.3332432
1.3332429
1.3332427
1.3332424
1.3332421
1.3332419
1.3332416
1.3332413
1.333241
1.3332407
1.3332405
1.3332402
1.3332399
1.3332396
1.3332393
1.333239
1.3332387
1.3332384
1.3332381
1.3332378
1.3332374
1.3332371
1.3332368
1.3332365
1.3332361
1.3332358
1.3332355
1.3332351
1.3332348
1.3332344
1.3332341
1.3332337
1.3332334
1.333233
1.3332327
1.3332323
1.3332319
1.3332316
1.3332312
1.3332308
1.3332304
1.33323
1.3332296
1.3332292
1.3332288
1.3332284
1.333228
1.3332276
1.3332272
1.3332267
1.3332263
1.3332259
1.3332254
1.333225
1.3332245
1.3332241
1.3332236
1.3332231
1.3332227
1.3332222
1.3332217
1.3332212
1.3332206
1.3332201
1.3332196
1.333219
1.3332184
1.3332178
1.3332172
1.3332166
1.3332159
1.3332153
1.3332146
1.3332139
1.3332132
1.3332125
1.3332117
1.3332109
1.3332101
1.3332093
1.3332085
1.3332076
1.3332068
1.3332058
1.3332049
1.333204
1.333203
1.333202
1.333201
1.3331999
1.3331989
1.3331978
1.3331967
1.3331955
1.3331943
1.3331931
1.3331919
1.3331906
1.3331893
1.3331879
1.3331866
1.3331851
1.3331837
1.3331822
1.3331807
1.3331792
1.3331776
1.3331761
1.3331745
1.3331729
1.3331712
1.3331696
1.333168
1.3331664
1.3331648
1.3331633
1.3331618
1.3331604
1.3331591
1.3331578
1.3331567
1.3331557
1.3331548
1.3331541
1.3331537
1.3331534
1.3331533
1.3331533
1.3331534
1.3331538
1.3331549
1.3331569
1.3331589
1.3331608
1.3331622
1.333163
1.3331633
1.3331633
1.3331629
1.3331615
1.3331572
1.3331457
1.3331166
1.3330451
1.3328703
1.3324535
1.3314755
1.329933
1.327937
1.3254874
1.3226094
1.3193496
1.3157725
1.3119556
1.3079839
1.3039448
1.2999227
1.2959951
1.2922291
1.2886794
1.2853872
1.2823804
1.2796741
1.2772721
1.2751688
1.2733506
1.2717986
1.2704899
1.2693994
1.2685014
1.2677703
1.2671821
1.2667141
1.2663463
1.2660606
1.2658416
1.2656759
1.2655524
1.265462
1.2653972
1.2653518
1.2653211
1.2653013
1.2652896
1.2652834
1.2652811
1.2652809
1.2652817
1.265285
1.2652912
1.2652975
1.2653034
1.265309
1.2653143
1.2653192
1.2653238
1.265328
1.2653318
1.2653354
1.2653387
1.2653418
1.2653447
1.2653473
1.2653498
1.2653521
1.2653542
1.2653563
1.2653582
1.26536
1.2653617
1.2653634
1.2653649
1.2653664
1.2653678
1.2653692
1.2653705
1.2653718
1.265373
1.2653741
1.2653753
1.2653763
1.2653774
1.2653784
1.2653794
1.2653803
1.2653812
1.2653821
1.265383
1.2653839
1.2653847
1.2653855
1.2653863
1.265387
1.2653878
1.2653885
1.2653892
1.2653899
1.2653906
1.2653913
1.265392
1.2653927
1.2653933
1.265394
1.2653946
1.2653953
1.2653959
1.2653965
1.2653972
1.2653978
1.2653984
1.265399
1.2653996
1.2654002
1.2654008
1.2654014
1.265402
1.2654026
1.2654032
1.2654037
1.2654043
1.2654048
1.2654054
1.2654059
1.2654064
1.265407
1.2654075
1.265408
1.2654085
1.265409
1.2654094
1.2654099
1.2654104
1.2654108
1.2654113
1.2654117
1.2654121
1.2654125
1.2654129
1.2654134
1.2654138
1.2654141
1.2654145
1.2654149
1.2654153
1.2654156
1.265416
1.2654164
1.2654167
1.265417
1.2654174
1.2654177
1.2654181
1.2654184
1.2654187
1.265419
1.2654193
1.2654197
1.26542
1.2654203
1.2654206
1.2654209
1.2654212
1.2654214
1.2654217
1.265422
1.2654223
1.2654226
1.2654229
1.2654231
1.2654234
1.2654237
1.2654239
1.2654242
1.2654244
1.2654247
1.2654249
1.2654252
1.2654254
1.2654257
1.2654259
1.2654261
1.2654264
1.2654266
1.2654268
1.2654271
1.2654273
1.2654275
1.2654277
1.265428
1.2654282
1.2654284
1.2654286
1.2654288
1.265429
1.2654293
1.2654295
1.2654297
1.2654299
1.2654301
1.2654303
1.2654305
1.2654307
1.2654309
1.2654311
1.2654313
1.2654314
1.2654316
1.2654318
1.265432
1.2654322
1.2654324
1.2654325
1.2654327
1.2654329
1.2654331
1.2654333
1.2654334
1.2654336
1.2654338
1.2654339
1.2654341
1.2654343
1.2654344
1.2654346
1.2654348
1.2654349
1.2654351
1.2654353
1.2654354
1.2654356
1.2654357
1.2654359
1.265436
1.2654362
1.2654363
1.2654365
1.2654366
1.2654368
1.2654369
1.2654371
1.2654372
1.2654374
1.2654375
1.2654377
1.2654378
1.2654379
1.2654381
1.2654382
1.2654383
1.2654385
1.2654386
1.2654387
1.2654389
1.265439
1.2654391
1.2654393
1.2654394
1.2654395
1.2654397
1.2654398
1.2654399
1.26544
1.2654402
1.2654403
1.2654404
1.2654405