/*--------------------------------*- C++ -*----------------------------------*\
  =========                 |
  \\      /  F ield         | OpenFOAM: The Open Source CFD Toolbox
   \\    /   O peration     | Website:  https://openfoam.org
    \\  /    A nd           | Version:  7
     \\/     M anipulation  |
\*---------------------------------------------------------------------------*/
FoamFile
{
    version     2.0;
    format      ascii;
    class       volScalarField;
    location    "0.00022";
    object      rho;
}
// * * * * * * * * * * * * * * * * * * * * * * * * * * * * * * * * * * * * * //

dimensions      [1 -3 0 0 0 0 0];

internalField   nonuniform List<scalar> 
5000
(
1.3851424
1.3852195
1.3853372
1.3854263
1.3855451
1.3856392
1.3857493
1.3858512
1.3859567
1.3860608
1.3861654
1.3862698
1.3863742
1.3864786
1.386583
1.3866874
1.3867918
1.3868961
1.3870005
1.3871048
1.3872091
1.3873134
1.3874177
1.387522
1.3876262
1.3877305
1.3878347
1.3879389
1.3880431
1.3881473
1.3882514
1.3883556
1.3884597
1.3885638
1.3886679
1.388772
1.3888761
1.3889801
1.3890841
1.3891881
1.3892921
1.3893961
1.3895001
1.389604
1.3897079
1.3898119
1.3899157
1.3900196
1.3901235
1.3902273
1.3903312
1.390435
1.3905388
1.3906426
1.3907463
1.3908501
1.3909538
1.3910576
1.3911613
1.391265
1.3913686
1.3914723
1.391576
1.3916796
1.3917832
1.3918868
1.3919904
1.392094
1.3921975
1.3923011
1.3924046
1.3925081
1.3926116
1.392715
1.3928185
1.3929219
1.3930254
1.3931288
1.3932322
1.3933355
1.3934389
1.3935422
1.3936456
1.3937489
1.3938522
1.3939554
1.3940587
1.3941619
1.3942652
1.3943684
1.3944716
1.3945747
1.3946779
1.394781
1.3948842
1.3949873
1.3950904
1.3951934
1.3952965
1.3953995
1.3955026
1.3956056
1.3957086
1.3958115
1.3959145
1.3960174
1.3961204
1.3962233
1.3963262
1.396429
1.3965319
1.3966347
1.3967376
1.3968404
1.3969432
1.397046
1.3971487
1.3972515
1.3973542
1.3974569
1.3975596
1.3976623
1.3977649
1.3978676
1.3979702
1.3980728
1.3981754
1.398278
1.3983806
1.3984831
1.3985856
1.3986881
1.3987906
1.3988931
1.3989956
1.399098
1.3992005
1.3993029
1.3994053
1.3995076
1.39961
1.3997123
1.3998147
1.399917
1.4000193
1.4001216
1.4002238
1.4003261
1.4004283
1.4005305
1.4006327
1.4007349
1.4008371
1.4009392
1.4010413
1.4011435
1.4012456
1.4013476
1.4014497
1.4015517
1.4016538
1.4017558
1.4018578
1.4019598
1.4020617
1.4021637
1.4022656
1.4023675
1.4024694
1.4025713
1.4026732
1.402775
1.4028768
1.4029787
1.4030805
1.4031822
1.403284
1.4033858
1.4034875
1.4035892
1.4036909
1.4037926
1.4038942
1.4039959
1.4040975
1.4041991
1.4043007
1.4044023
1.4045039
1.4046054
1.404707
1.4048085
1.40491
1.4050115
1.4051129
1.4052144
1.4053158
1.4054172
1.4055186
1.40562
1.4057213
1.4058227
1.405924
1.4060253
1.4061266
1.4062279
1.4063292
1.4064304
1.4065317
1.4066329
1.4067341
1.4068352
1.4069364
1.4070376
1.4071387
1.4072398
1.4073409
1.407442
1.407543
1.4076441
1.4077451
1.4078461
1.4079471
1.4080481
1.408149
1.40825
1.4083509
1.4084518
1.4085527
1.4086536
1.4087545
1.4088553
1.4089561
1.4090569
1.4091577
1.4092585
1.4093593
1.40946
1.4095608
1.4096615
1.4097622
1.4098628
1.4099635
1.4100642
1.4101648
1.4102654
1.410366
1.4104666
1.4105671
1.4106677
1.4107682
1.4108687
1.4109693
1.4110697
1.4111702
1.4112707
1.4113711
1.4114715
1.411572
1.4116724
1.4117727
1.4118731
1.4119735
1.4120738
1.4121741
1.4122744
1.4123748
1.412475
1.4125753
1.4126756
1.4127758
1.4128761
1.4129763
1.4130765
1.4131767
1.4132769
1.4133771
1.4134773
1.4135775
1.4136776
1.4137778
1.4138779
1.413978
1.4140781
1.4141782
1.4142783
1.4143784
1.4144785
1.4145786
1.4146786
1.4147787
1.4148787
1.4149787
1.4150787
1.4151787
1.4152786
1.4153786
1.4154785
1.4155784
1.4156783
1.4157782
1.415878
1.4159778
1.4160775
1.4161772
1.4162769
1.4163765
1.4164761
1.4165756
1.416675
1.4167744
1.4168736
1.4169728
1.4170719
1.4171709
1.4172698
1.4173685
1.4174671
1.4175656
1.4176639
1.417762
1.4178599
1.4179576
1.4180551
1.4181524
1.4182494
1.4183462
1.4184426
1.4185388
1.4186346
1.4187301
1.4188252
1.4189199
1.4190142
1.419108
1.4192014
1.4192942
1.4193866
1.4194784
1.4195697
1.4196603
1.4197503
1.4198397
1.4199284
1.4200163
1.4201035
1.42019
1.4202756
1.4203604
1.4204443
1.4205274
1.4206095
1.4206907
1.4207709
1.4208502
1.4209283
1.4210055
1.4210815
1.4211564
1.4212302
1.4213029
1.4213744
1.4214447
1.4215137
1.4215815
1.4216481
1.4217134
1.4217774
1.4218402
1.4219016
1.4219617
1.4220204
1.4220779
1.422134
1.4221887
1.4222421
1.4222941
1.4223448
1.4223942
1.4224422
1.4224888
1.4225341
1.4225781
1.4226208
1.4226621
1.4227022
1.422741
1.4227785
1.4228147
1.4228498
1.4228836
1.4229162
1.4229476
1.4229779
1.423007
1.423035
1.4230619
1.4230877
1.4231125
1.4231363
1.4231591
1.4231809
1.4232018
1.4232217
1.4232408
1.423259
1.4232763
1.4232929
1.4233086
1.4233236
1.4233379
1.4233514
1.4233643
1.4233765
1.4233881
1.423399
1.4234094
1.4234192
1.4234285
1.4234373
1.4234456
1.4234534
1.4234607
1.4234677
1.4234742
1.4234803
1.4234861
1.4234915
1.4234966
1.4235013
1.4235058
1.42351
1.4235139
1.4235175
1.4235209
1.4235241
1.4235271
1.4235299
1.4235325
1.4235349
1.4235371
1.4235392
1.4235411
1.4235429
1.4235445
1.4235461
1.4235475
1.4235488
1.4235501
1.4235512
1.4235522
1.4235532
1.4235541
1.4235549
1.4235556
1.4235563
1.423557
1.4235576
1.4235581
1.4235586
1.423559
1.4235595
1.4235598
1.4235602
1.4235605
1.4235608
1.4235611
1.4235613
1.4235615
1.4235617
1.4235619
1.4235621
1.4235622
1.4235624
1.4235625
1.4235626
1.4235627
1.4235628
1.4235629
1.423563
1.423563
1.4235631
1.4235632
1.4235632
1.4235633
1.4235633
1.4235633
1.4235634
1.4235634
1.4235634
1.4235635
1.4235635
1.4235635
1.4235635
1.4235635
1.4235635
1.4235636
1.4235636
1.4235636
1.4235636
1.4235636
1.4235636
1.4235636
1.4235636
1.4235636
1.4235636
1.4235636
1.4235636
1.4235636
1.4235636
1.4235636
1.4235636
1.4235636
1.4235637
1.4235637
1.4235637
1.4235637
1.4235637
1.4235637
1.4235637
1.4235637
1.4235637
1.4235637
1.4235637
1.4235637
1.4235637
1.4235637
1.4235637
1.4235637
1.4235637
1.4235637
1.4235637
1.4235637
1.4235637
1.4235637
1.4235637
1.4235637
1.4235637
1.4235637
1.4235637
1.4235637
1.4235637
1.4235637
1.4235637
1.4235637
1.4235637
1.4235637
1.4235637
1.4235637
1.4235637
1.4235637
1.4235637
1.4235637
1.4235637
1.4235637
1.4235637
1.4235637
1.4235637
1.4235637
1.4235637
1.4235637
1.4235637
1.4235637
1.4235637
1.4235637
1.4235637
1.4235637
1.4235637
1.4235637
1.4235637
1.4235637
1.4235637
1.4235637
1.4235637
1.4235637
1.4235637
1.4235637
1.4235637
1.4235637
1.4235637
1.4235637
1.4235637
1.4235637
1.4235637
1.4235637
1.4235637
1.4235637
1.4235637
1.4235637
1.4235637
1.4235637
1.4235637
1.4235637
1.4235637
1.4235637
1.4235637
1.4235637
1.4235637
1.4235637
1.4235637
1.4235637
1.4235637
1.4235637
1.4235637
1.4235637
1.4235637
1.4235637
1.4235637
1.4235637
1.4235637
1.4235637
1.4235637
1.4235637
1.4235637
1.4235637
1.4235637
1.4235637
1.4235637
1.4235637
1.4235637
1.4235637
1.4235637
1.4235637
1.4235637
1.4235637
1.4235637
1.4235637
1.4235637
1.4235637
1.4235637
1.4235637
1.4235637
1.4235637
1.4235637
1.4235637
1.4235637
1.4235637
1.4235637
1.4235637
1.4235637
1.4235637
1.4235637
1.4235637
1.4235637
1.4235637
1.4235637
1.4235637
1.4235637
1.4235637
1.4235637
1.4235637
1.4235637
1.4235637
1.4235637
1.4235637
1.4235637
1.4235637
1.4235637
1.4235637
1.4235637
1.4235637
1.4235637
1.4235637
1.4235637
1.4235637
1.4235637
1.4235637
1.4235637
1.4235637
1.4235637
1.4235637
1.4235637
1.4235637
1.4235637
1.4235637
1.4235637
1.4235637
1.4235637
1.4235637
1.4235637
1.4235637
1.4235637
1.4235637
1.4235637
1.4235637
1.4235637
1.4235637
1.4235637
1.4235637
1.4235637
1.4235637
1.4235637
1.4235637
1.4235637
1.4235637
1.4235637
1.4235637
1.4235637
1.4235637
1.4235637
1.4235637
1.4235637
1.4235637
1.4235637
1.4235637
1.4235637
1.4235637
1.4235637
1.4235637
1.4235637
1.4235637
1.4235637
1.4235637
1.4235637
1.4235637
1.4235637
1.4235637
1.4235637
1.4235637
1.4235637
1.4235637
1.4235637
1.4235637
1.4235637
1.4235637
1.4235637
1.4235637
1.4235637
1.4235637
1.4235637
1.4235637
1.4235637
1.4235637
1.4235637
1.4235637
1.4235637
1.4235637
1.4235637
1.4235637
1.4235637
1.4235637
1.4235637
1.4235637
1.4235637
1.4235637
1.4235637
1.4235637
1.4235637
1.4235637
1.4235637
1.4235637
1.4235637
1.4235637
1.4235637
1.4235637
1.4235637
1.4235637
1.4235637
1.4235637
1.4235637
1.4235637
1.4235637
1.4235637
1.4235637
1.4235637
1.4235637
1.4235637
1.4235637
1.4235637
1.4235637
1.4235637
1.4235637
1.4235637
1.4235637
1.4235637
1.4235637
1.4235637
1.4235637
1.4235637
1.4235637
1.4235637
1.4235637
1.4235637
1.4235637
1.4235637
1.4235637
1.4235637
1.4235637
1.4235637
1.4235637
1.4235637
1.4235637
1.4235637
1.4235637
1.4235637
1.4235637
1.4235637
1.4235637
1.4235637
1.4235637
1.4235637
1.4235637
1.4235637
1.4235637
1.4235637
1.4235637
1.4235637
1.4235637
1.4235637
1.4235637
1.4235637
1.4235637
1.4235637
1.4235637
1.4235637
1.4235637
1.4235637
1.4235637
1.4235637
1.4235637
1.4235637
1.4235637
1.4235637
1.4235637
1.4235637
1.4235637
1.4235637
1.4235637
1.4235637
1.4235637
1.4235637
1.4235637
1.4235637
1.4235637
1.4235637
1.4235637
1.4235637
1.4235637
1.4235637
1.4235637
1.4235637
1.4235637
1.4235637
1.4235637
1.4235637
1.4235637
1.4235637
1.4235637
1.4235637
1.4235637
1.4235637
1.4235637
1.4235637
1.4235637
1.4235637
1.4235637
1.4235637
1.4235637
1.4235637
1.4235637
1.4235637
1.4235637
1.4235637
1.4235637
1.4235637
1.4235637
1.4235637
1.4235637
1.4235637
1.4235637
1.4235637
1.4235637
1.4235637
1.4235637
1.4235637
1.4235637
1.4235637
1.4235637
1.4235637
1.4235637
1.4235637
1.4235637
1.4235637
1.4235637
1.4235637
1.4235637
1.4235637
1.4235637
1.4235637
1.4235637
1.4235637
1.4235637
1.4235637
1.4235637
1.4235637
1.4235637
1.4235637
1.4235637
1.4235637
1.4235637
1.4235637
1.4235637
1.4235637
1.4235637
1.4235637
1.4235637
1.4235637
1.4235637
1.4235637
1.4235637
1.4235637
1.4235637
1.4235637
1.4235637
1.4235637
1.4235637
1.4235637
1.4235637
1.4235637
1.4235637
1.4235637
1.4235637
1.4235637
1.4235637
1.4235637
1.4235637
1.4235637
1.4235637
1.4235637
1.4235637
1.4235637
1.4235637
1.4235637
1.4235637
1.4235637
1.4235637
1.4235637
1.4235637
1.4235637
1.4235637
1.4235637
1.4235637
1.4235637
1.4235637
1.4235637
1.4235637
1.4235637
1.4235637
1.4235637
1.4235637
1.4235637
1.4235637
1.4235637
1.4235637
1.4235637
1.4235637
1.4235637
1.4235637
1.4235637
1.4235637
1.4235637
1.4235637
1.4235637
1.4235637
1.4235637
1.4235637
1.4235637
1.4235637
1.4235637
1.4235637
1.4235637
1.4235637
1.4235637
1.4235637
1.4235637
1.4235637
1.4235637
1.4235637
1.4235637
1.4235637
1.4235637
1.4235637
1.4235637
1.4235637
1.4235637
1.4235637
1.4235637
1.4235637
1.4235637
1.4235637
1.4235637
1.4235637
1.4235637
1.4235637
1.4235637
1.4235637
1.4235637
1.4235637
1.4235637
1.4235637
1.4235637
1.4235637
1.4235637
1.4235637
1.4235637
1.4235637
1.4235637
1.4235637
1.4235637
1.4235637
1.4235637
1.4235637
1.4235637
1.4235637
1.4235637
1.4235637
1.4235637
1.4235637
1.4235637
1.4235637
1.4235637
1.4235637
1.4235637
1.4235637
1.4235637
1.4235637
1.4235637
1.4235637
1.4235637
1.4235637
1.4235637
1.4235637
1.4235637
1.4235637
1.4235637
1.4235637
1.4235637
1.4235637
1.4235637
1.4235637
1.4235637
1.4235637
1.4235637
1.4235637
1.4235637
1.4235637
1.4235637
1.4235637
1.4235637
1.4235637
1.4235637
1.4235637
1.4235637
1.4235637
1.4235637
1.4235637
1.4235637
1.4235637
1.4235637
1.4235637
1.4235637
1.4235637
1.4235637
1.4235637
1.4235637
1.4235637
1.4235637
1.4235637
1.4235637
1.4235637
1.4235637
1.4235637
1.4235637
1.4235637
1.4235637
1.4235637
1.4235637
1.4235637
1.4235637
1.4235637
1.4235637
1.4235637
1.4235637
1.4235637
1.4235637
1.4235637
1.4235637
1.4235637
1.4235637
1.4235637
1.4235637
1.4235637
1.4235637
1.4235637
1.4235637
1.4235637
1.4235637
1.4235637
1.4235637
1.4235637
1.4235637
1.4235637
1.4235637
1.4235637
1.4235637
1.4235637
1.4235637
1.4235637
1.4235637
1.4235637
1.4235637
1.4235637
1.4235637
1.4235637
1.4235637
1.4235637
1.4235637
1.4235637
1.4235637
1.4235637
1.4235637
1.4235637
1.4235637
1.4235637
1.4235637
1.4235637
1.4235637
1.4235637
1.4235637
1.4235637
1.4235637
1.4235637
1.4235637
1.4235637
1.4235637
1.4235637
1.4235637
1.4235637
1.4235637
1.4235637
1.4235637
1.4235637
1.4235637
1.4235637
1.4235637
1.4235637
1.4235637
1.4235637
1.4235637
1.4235637
1.4235637
1.4235637
1.4235637
1.4235637
1.4235637
1.4235637
1.4235637
1.4235637
1.4235637
1.4235637
1.4235637
1.4235637
1.4235637
1.4235637
1.4235637
1.4235637
1.4235637
1.4235637
1.4235637
1.4235637
1.4235637
1.4235637
1.4235637
1.4235637
1.4235637
1.4235637
1.4235637
1.4235637
1.4235637
1.4235637
1.4235637
1.4235637
1.4235637
1.4235637
1.4235637
1.4235637
1.4235637
1.4235637
1.4235637
1.4235637
1.4235637
1.4235637
1.4235637
1.4235637
1.4235637
1.4235637
1.4235637
1.4235637
1.4235637
1.4235637
1.4235637
1.4235637
1.4235637
1.4235637
1.4235637
1.4235637
1.4235637
1.4235637
1.4235637
1.4235637
1.4235637
1.4235637
1.4235637
1.4235637
1.4235637
1.4235637
1.4235637
1.4235637
1.4235637
1.4235637
1.4235637
1.4235637
1.4235637
1.4235637
1.4235637
1.4235637
1.4235637
1.4235637
1.4235637
1.4235637
1.4235637
1.4235637
1.4235637
1.4235637
1.4235637
1.4235637
1.4235637
1.4235637
1.4235637
1.4235637
1.4235637
1.4235637
1.4235637
1.4235637
1.4235637
1.4235637
1.4235637
1.4235637
1.4235637
1.4235637
1.4235637
1.4235637
1.4235637
1.4235637
1.4235637
1.4235637
1.4235637
1.4235637
1.4235637
1.4235637
1.4235637
1.4235637
1.4235637
1.4235637
1.4235637
1.4235637
1.4235637
1.4235637
1.4235637
1.4235637
1.4235637
1.4235637
1.4235637
1.4235637
1.4235637
1.4235637
1.4235637
1.4235637
1.4235637
1.4235637
1.4235637
1.4235637
1.4235637
1.4235637
1.4235637
1.4235637
1.4235637
1.4235637
1.4235637
1.4235637
1.4235637
1.4235637
1.4235637
1.4235637
1.4235637
1.4235637
1.4235637
1.4235637
1.4235637
1.4235637
1.4235637
1.4235637
1.4235637
1.4235637
1.4235637
1.4235637
1.4235637
1.4235637
1.4235637
1.4235637
1.4235637
1.4235637
1.4235637
1.4235637
1.4235637
1.4235637
1.4235637
1.4235637
1.4235637
1.4235637
1.4235637
1.4235637
1.4235637
1.4235637
1.4235637
1.4235637
1.4235637
1.4235637
1.4235637
1.4235637
1.4235637
1.4235637
1.4235637
1.4235637
1.4235637
1.4235637
1.4235637
1.4235637
1.4235637
1.4235637
1.4235637
1.4235637
1.4235637
1.4235637
1.4235637
1.4235637
1.4235637
1.4235637
1.4235637
1.4235637
1.4235637
1.4235637
1.4235637
1.4235637
1.4235637
1.4235637
1.4235637
1.4235637
1.4235637
1.4235637
1.4235637
1.4235637
1.4235637
1.4235637
1.4235637
1.4235637
1.4235637
1.4235637
1.4235637
1.4235637
1.4235637
1.4235637
1.4235637
1.4235637
1.4235637
1.4235637
1.4235637
1.4235637
1.4235637
1.4235637
1.4235637
1.4235637
1.4235637
1.4235637
1.4235637
1.4235637
1.4235637
1.4235637
1.4235637
1.4235637
1.4235637
1.4235637
1.4235637
1.4235637
1.4235637
1.4235637
1.4235637
1.4235637
1.4235637
1.4235637
1.4235637
1.4235637
1.4235637
1.4235637
1.4235637
1.4235637
1.4235637
1.4235637
1.4235637
1.4235637
1.4235637
1.4235637
1.4235637
1.4235637
1.4235637
1.4235637
1.4235637
1.4235637
1.4235637
1.4235637
1.4235637
1.4235637
1.4235637
1.4235637
1.4235637
1.4235637
1.4235637
1.4235637
1.4235637
1.4235637
1.4235637
1.4235637
1.4235637
1.4235637
1.4235637
1.4235637
1.4235637
1.4235637
1.4235637
1.4235637
1.4235637
1.4235637
1.4235637
1.4235637
1.4235637
1.4235637
1.4235637
1.4235637
1.4235637
1.4235637
1.4235637
1.4235637
1.4235637
1.4235637
1.4235637
1.4235637
1.4235637
1.4235637
1.4235637
1.4235637
1.4235637
1.4235637
1.4235637
1.4235637
1.4235637
1.4235637
1.4235637
1.4235637
1.4235637
1.4235637
1.4235637
1.4235637
1.4235637
1.4235637
1.4235637
1.4235637
1.4235637
1.4235637
1.4235637
1.4235637
1.4235637
1.4235637
1.4235637
1.4235637
1.4235637
1.4235637
1.4235637
1.4235637
1.4235637
1.4235637
1.4235637
1.4235637
1.4235637
1.4235637
1.4235637
1.4235637
1.4235637
1.4235637
1.4235637
1.4235637
1.4235637
1.4235637
1.4235637
1.4235637
1.4235637
1.4235637
1.4235637
1.4235637
1.4235637
1.4235637
1.4235637
1.4235637
1.4235637
1.4235637
1.4235637
1.4235637
1.4235637
1.4235637
1.4235637
1.4235637
1.4235637
1.4235637
1.4235637
1.4235637
1.4235637
1.4235637
1.4235637
1.4235637
1.4235637
1.4235637
1.4235637
1.4235637
1.4235637
1.4235637
1.4235637
1.4235637
1.4235637
1.4235637
1.4235637
1.4235637
1.4235637
1.4235637
1.4235637
1.4235637
1.4235637
1.4235637
1.4235637
1.4235637
1.4235637
1.4235637
1.4235637
1.4235637
1.4235637
1.4235637
1.4235637
1.4235637
1.4235637
1.4235637
1.4235637
1.4235637
1.4235637
1.4235637
1.4235637
1.4235637
1.4235637
1.4235637
1.4235637
1.4235637
1.4235637
1.4235637
1.4235637
1.4235637
1.4235637
1.4235637
1.4235637
1.4235637
1.4235637
1.4235637
1.4235637
1.4235637
1.4235637
1.4235637
1.4235637
1.4235637
1.4235637
1.4235637
1.4235637
1.4235637
1.4235637
1.4235637
1.4235637
1.4235637
1.4235637
1.4235637
1.4235637
1.4235637
1.4235637
1.4235637
1.4235637
1.4235637
1.4235637
1.4235637
1.4235637
1.4235637
1.4235637
1.4235637
1.4235637
1.4235637
1.4235637
1.4235637
1.4235637
1.4235637
1.4235637
1.4235637
1.4235637
1.4235637
1.4235637
1.4235637
1.4235637
1.4235637
1.4235637
1.4235637
1.4235637
1.4235637
1.4235637
1.4235637
1.4235637
1.4235637
1.4235637
1.4235637
1.4235637
1.4235637
1.4235637
1.4235637
1.4235637
1.4235637
1.4235637
1.4235637
1.4235637
1.4235637
1.4235637
1.4235637
1.4235637
1.4235637
1.4235637
1.4235637
1.4235637
1.4235637
1.4235637
1.4235637
1.4235637
1.4235637
1.4235637
1.4235637
1.4235637
1.4235637
1.4235637
1.4235637
1.4235637
1.4235637
1.4235637
1.4235637
1.4235637
1.4235637
1.4235637
1.4235637
1.4235637
1.4235637
1.4235637
1.4235637
1.4235637
1.4235637
1.4235637
1.4235637
1.4235637
1.4235637
1.4235637
1.4235637
1.4235637
1.4235637
1.4235637
1.4235637
1.4235637
1.4235637
1.4235637
1.4235637
1.4235637
1.4235637
1.4235637
1.4235637
1.4235637
1.4235637
1.4235637
1.4235637
1.4235637
1.4235637
1.4235637
1.4235637
1.4235637
1.4235637
1.4235637
1.4235637
1.4235637
1.4235637
1.4235637
1.4235637
1.4235637
1.4235637
1.4235637
1.4235637
1.4235637
1.4235637
1.4235637
1.4235637
1.4235637
1.4235637
1.4235637
1.4235637
1.4235637
1.4235637
1.4235637
1.4235637
1.4235637
1.4235637
1.4235637
1.4235637
1.4235637
1.4235637
1.4235637
1.4235637
1.4235637
1.4235637
1.4235637
1.4235637
1.4235637
1.4235637
1.4235637
1.4235637
1.4235637
1.4235637
1.4235637
1.4235637
1.4235637
1.4235637
1.4235637
1.4235637
1.4235637
1.4235637
1.4235637
1.4235637
1.4235637
1.4235637
1.4235637
1.4235637
1.4235637
1.4235637
1.4235637
1.4235637
1.4235637
1.4235637
1.4235637
1.4235637
1.4235637
1.4235637
1.4235637
1.4235637
1.4235637
1.4235637
1.4235637
1.4235637
1.4235637
1.4235637
1.4235637
1.4235637
1.4235637
1.4235637
1.4235637
1.4235637
1.4235637
1.4235637
1.4235637
1.4235637
1.4235637
1.4235637
1.4235637
1.4235637
1.4235637
1.4235637
1.4235637
1.4235637
1.4235637
1.4235637
1.4235637
1.4235637
1.4235637
1.4235637
1.4235637
1.4235637
1.4235637
1.4235637
1.4235637
1.4235637
1.4235637
1.4235637
1.4235637
1.4235637
1.4235637
1.4235637
1.4235637
1.4235637
1.4235637
1.4235637
1.4235637
1.4235637
1.4235637
1.4235637
1.4235637
1.4235637
1.4235637
1.4235637
1.4235637
1.4235637
1.4235637
1.4235637
1.4235637
1.4235637
1.4235637
1.4235637
1.4235637
1.4235637
1.4235637
1.4235637
1.4235637
1.4235637
1.4235637
1.4235637
1.4235637
1.4235637
1.4235637
1.4235637
1.4235637
1.4235637
1.4235637
1.4235637
1.4235637
1.4235637
1.4235637
1.4235637
1.4235637
1.4235637
1.4235637
1.4235637
1.4235637
1.4235637
1.4235637
1.4235637
1.4235637
1.4235637
1.4235637
1.4235637
1.4235637
1.4235637
1.4235637
1.4235637
1.4235637
1.4235637
1.4235637
1.4235637
1.4235637
1.4235637
1.4235637
1.4235637
1.4235637
1.4235637
1.4235637
1.4235637
1.4235637
1.4235637
1.4235637
1.4235637
1.4235637
1.4235637
1.4235637
1.4235637
1.4235637
1.4235637
1.4235637
1.4235637
1.4235637
1.4235637
1.4235637
1.4235637
1.4235637
1.4235637
1.4235637
1.4235637
1.4235637
1.4235637
1.4235637
1.4235637
1.4235637
1.4235637
1.4235637
1.4235637
1.4235637
1.4235637
1.4235637
1.4235637
1.4235637
1.4235637
1.4235637
1.4235637
1.4235637
1.4235637
1.4235637
1.4235637
1.4235637
1.4235637
1.4235637
1.4235637
1.4235637
1.4235637
1.4235637
1.4235637
1.4235637
1.4235637
1.4235637
1.4235637
1.4235637
1.4235637
1.4235637
1.4235637
1.4235637
1.4235637
1.4235637
1.4235637
1.4235637
1.4235637
1.4235637
1.4235637
1.4235637
1.4235637
1.4235637
1.4235637
1.4235637
1.4235637
1.4235637
1.4235637
1.4235637
1.4235637
1.4235637
1.4235637
1.4235637
1.4235636
1.4235636
1.4235636
1.4235636
1.4235636
1.4235636
1.4235636
1.4235636
1.4235636
1.4235636
1.4235636
1.4235636
1.4235636
1.4235636
1.4235636
1.4235635
1.4235635
1.4235635
1.4235635
1.4235635
1.4235634
1.4235634
1.4235634
1.4235633
1.4235633
1.4235632
1.4235632
1.4235631
1.4235631
1.423563
1.4235629
1.4235628
1.4235627
1.4235625
1.4235624
1.4235622
1.4235621
1.4235619
1.4235616
1.4235614
1.4235611
1.4235608
1.4235605
1.4235601
1.4235596
1.4235592
1.4235586
1.423558
1.4235574
1.4235566
1.4235558
1.4235549
1.4235539
1.4235528
1.4235516
1.4235502
1.4235487
1.4235471
1.4235452
1.4235432
1.423541
1.4235385
1.4235358
1.4235328
1.4235296
1.423526
1.423522
1.4235177
1.423513
1.4235078
1.4235021
1.4234959
1.4234891
1.4234817
1.4234735
1.4234647
1.4234551
1.4234446
1.4234332
1.4234208
1.4234073
1.4233926
1.4233767
1.4233595
1.4233409
1.4233207
1.4232988
1.4232752
1.4232497
1.4232222
1.4231925
1.4231606
1.4231262
1.4230892
1.4230494
1.4230067
1.4229608
1.4229117
1.422859
1.4228027
1.4227424
1.4226779
1.4226091
1.4225357
1.4224574
1.422374
1.4222852
1.4221908
1.4220905
1.421984
1.421871
1.4217512
1.4216243
1.4214901
1.4213481
1.4211981
1.4210398
1.4208728
1.4206968
1.4205115
1.4203165
1.4201115
1.4198961
1.4196701
1.4194331
1.4191848
1.4189248
1.4186528
1.4183685
1.4180716
1.4177618
1.4174387
1.4171021
1.4167517
1.4163872
1.4160083
1.4156149
1.4152066
1.4147833
1.4143447
1.4138906
1.4134209
1.4129353
1.4124338
1.4119162
1.4113824
1.4108323
1.4102659
1.4096831
1.4090838
1.4084681
1.4078359
1.4071874
1.4065225
1.4058414
1.4051441
1.4044308
1.4037017
1.4029568
1.4021965
1.4014209
1.4006303
1.399825
1.3990052
1.3981712
1.3973234
1.3964622
1.3955879
1.394701
1.3938018
1.3928909
1.3919686
1.3910355
1.3900921
1.3891389
1.3881765
1.3872053
1.3862261
1.3852394
1.3842458
1.3832459
1.3822404
1.38123
1.3802153
1.3791971
1.3781759
1.3771525
1.3761277
1.3751022
1.3740767
1.3730519
1.3720286
1.3710075
1.3699895
1.3689752
1.3679654
1.3669609
1.3659625
1.3649708
1.3639867
1.3630109
1.362044
1.361087
1.3601404
1.3592049
1.3582813
1.3573703
1.3564724
1.3555884
1.3547188
1.3538643
1.3530254
1.3522027
1.3513966
1.3506077
1.3498365
1.3490833
1.3483486
1.3476327
1.3469359
1.3462585
1.3456009
1.3449631
1.3443453
1.3437478
1.3431705
1.3426135
1.3420768
1.3415604
1.3410642
1.3405881
1.3401319
1.3396954
1.3392784
1.3388806
1.3385017
1.3381414
1.3377993
1.337475
1.3371681
1.336878
1.3366045
1.3363468
1.3361046
1.3358772
1.3356643
1.3354651
1.3352791
1.3351058
1.3349447
1.334795
1.3346563
1.334528
1.3344096
1.3343005
1.3342001
1.334108
1.3340235
1.3339464
1.333876
1.3338118
1.3337535
1.3337007
1.3336528
1.3336096
1.3335706
1.3335356
1.3335041
1.3334759
1.3334507
1.3334282
1.3334081
1.3333903
1.3333745
1.3333606
1.3333482
1.3333373
1.3333278
1.3333194
1.333312
1.3333055
1.3332999
1.333295
1.3332907
1.333287
1.3332837
1.3332809
1.3332785
1.3332764
1.3332746
1.333273
1.3332716
1.3332704
1.3332694
1.3332685
1.3332677
1.333267
1.3332664
1.3332659
1.3332655
1.3332651
1.3332648
1.3332645
1.3332643
1.3332641
1.3332638
1.3332636
1.3332635
1.3332632
1.3332629
1.3332625
1.3332621
1.333262
1.3332618
1.3332614
1.333261
1.3332608
1.3332605
1.3332601
1.3332597
1.3332593
1.333259
1.3332588
1.3332586
1.3332582
1.3332578
1.3332574
1.3332571
1.3332568
1.3332565
1.3332561
1.3332558
1.3332555
1.3332552
1.3332549
1.3332546
1.3332543
1.3332539
1.3332536
1.3332534
1.3332532
1.3332529
1.3332527
1.3332524
1.3332521
1.3332518
1.3332514
1.333251
1.3332506
1.3332503
1.33325
1.3332497
1.3332494
1.333249
1.3332487
1.3332485
1.3332483
1.3332481
1.3332479
1.3332477
1.3332475
1.3332472
1.333247
1.3332468
1.3332466
1.3332464
1.3332462
1.3332459
1.3332457
1.3332454
1.3332452
1.3332449
1.3332447
1.3332445
1.3332442
1.3332439
1.3332435
1.3332432
1.3332429
1.3332427
1.3332424
1.3332421
1.3332418
1.3332415
1.3332412
1.333241
1.3332407
1.3332405
1.3332403
1.3332402
1.3332399
1.3332397
1.3332396
1.3332394
1.3332392
1.333239
1.3332389
1.3332386
1.3332385
1.3332382
1.3332379
1.3332377
1.3332374
1.333237
1.3332367
1.3332365
1.3332363
1.3332361
1.3332358
1.3332355
1.3332351
1.3332347
1.3332344
1.3332341
1.333234
1.3332338
1.3332335
1.3332331
1.3332327
1.3332325
1.3332323
1.3332321
1.3332319
1.3332315
1.3332312
1.3332309
1.3332307
1.3332304
1.3332301
1.3332298
1.3332296
1.3332294
1.3332291
1.3332288
1.3332285
1.3332283
1.333228
1.3332277
1.3332273
1.3332269
1.3332265
1.3332261
1.3332258
1.3332255
1.3332253
1.333225
1.3332246
1.3332242
1.3332237
1.3332234
1.333223
1.3332225
1.333222
1.3332217
1.3332213
1.333221
1.3332207
1.3332202
1.3332198
1.3332194
1.3332189
1.3332185
1.333218
1.3332176
1.3332172
1.3332168
1.3332164
1.3332159
1.3332154
1.3332148
1.3332144
1.3332139
1.3332133
1.3332128
1.3332123
1.3332118
1.3332113
1.3332109
1.3332104
1.3332099
1.3332094
1.3332089
1.3332083
1.3332078
1.3332072
1.3332067
1.3332061
1.3332055
1.333205
1.3332046
1.3332041
1.3332036
1.3332031
1.3332025
1.333202
1.3332016
1.3332013
1.3332011
1.333201
1.3332008
1.3332006
1.3332003
1.3332001
1.3331999
1.3331998
1.3331998
1.3331998
1.3331999
1.3332
1.3332002
1.3332003
1.3332006
1.3332009
1.3332012
1.3332015
1.3332017
1.333202
1.3332022
1.3332023
1.3332024
1.3332025
1.3332025
1.3332024
1.3332022
1.3332016
1.3332008
1.3331998
1.3331988
1.3331977
1.3331965
1.3331951
1.3331937
1.3331921
1.3331905
1.333189
1.3331878
1.3331867
1.3331857
1.3331845
1.3331833
1.3331819
1.3331805
1.3331791
1.3331777
1.3331764
1.3331753
1.3331746
1.3331742
1.333174
1.3331741
1.3331743
1.3331748
1.3331751
1.333175
1.3331748
1.3331739
1.3331717
1.3331701
1.3331696
1.3331698
1.3331701
1.33317
1.3331679
1.3331573
1.3331173
1.3329846
1.3325764
1.3313759
1.3280291
1.3193023
1.307296
1.295966
1.286403
1.2790263
1.2737507
1.2702184
1.2679904
1.2666616
1.2659116
1.2655126
1.2653147
1.2652258
1.2651926
1.2651852
1.2651865
1.2651948
1.2652059
1.2652141
1.2652203
1.2652256
1.2652309
1.2652366
1.2652432
1.2652504
1.265258
1.2652655
1.2652729
1.2652796
1.2652856
1.2652909
1.2652953
1.2652989
1.2653019
1.2653042
1.2653059
1.2653075
1.2653089
1.2653104
1.265312
1.2653136
1.2653153
1.2653169
1.2653186
1.2653202
1.2653217
1.2653232
1.2653246
1.265326
1.2653273
1.2653286
1.2653298
1.265331
1.2653323
1.2653337
1.2653352
1.265337
1.2653388
1.2653407
1.2653428
1.265345
1.2653473
1.2653498
1.2653522
1.2653547
1.2653571
1.2653594
1.2653617
1.2653639
1.2653659
1.2653679
1.2653698
1.2653714
1.265373
1.2653744
1.2653758
1.2653771
1.2653784
1.2653796
1.2653808
1.2653819
1.2653829
1.2653839
1.2653847
1.2653855
1.2653863
1.2653871
1.2653878
1.2653886
1.2653894
1.2653901
1.2653908
1.2653915
1.2653921
1.2653927
1.2653934
1.265394
1.2653946
1.2653952
1.2653957
1.2653962
1.2653967
1.2653972
1.2653977
1.2653982
1.2653987
1.2653992
1.2653997
1.2654001
1.2654006
1.2654011
1.2654015
1.2654019
1.2654023
1.2654027
1.2654032
1.2654036
1.265404
1.2654044
1.2654047
1.265405
1.2654053
1.2654056
1.265406
1.2654064
1.2654067
1.265407
1.2654073
1.2654076
1.2654079
1.2654082
1.2654085
1.2654088
1.2654091
1.2654095
1.2654098
1.26541
1.2654103
1.2654105
1.2654108
1.2654111
1.2654114
1.2654116
1.2654119
1.2654121
1.2654123
1.2654125
1.2654128
1.2654131
1.2654133
1.2654135
1.2654138
1.265414
1.2654142
1.2654144
1.2654147
1.2654149
1.2654151
1.2654153
1.2654155
1.2654158
1.265416
1.2654162
1.2654163
1.2654165
1.2654167
1.265417
1.2654172
1.2654174
1.2654176
1.2654178
1.2654179
1.2654181
1.2654182
1.2654184
1.2654187
1.2654188
1.265419
1.2654191
1.2654193
1.2654194
1.2654196
1.2654198
1.2654199
1.2654201
1.2654202
1.2654203
1.2654205
1.2654206
1.2654208
1.2654209
1.2654211
1.2654213
1.2654214
1.2654215
1.2654216
1.2654216
1.2654218
1.2654219
1.265422
1.2654221
1.2654222
1.2654223
1.2654224
1.2654225
1.2654227
1.2654228
1.2654229
1.2654229
1.265423
1.2654231
1.2654233
1.2654234
1.2654235
1.2654237
1.2654238
1.2654239
1.265424
1.2654242
1.2654243
1.2654244
1.2654245
1.2654246
1.2654247
1.2654249
1.2654251
1.2654253
1.2654255
1.2654256
1.2654256
1.2654257
1.2654259
1.2654261
1.2654263
1.2654265
1.2654266
1.2654268
1.265427
1.2654273
1.2654274
1.2654277
1.265428
1.2654282
1.2654284
1.2654287
1.265429
1.2654292
1.2654294
1.2654296
1.2654299
1.2654302
1.2654305
1.2654308
1.265431
1.2654313
1.2654315
1.2654318
1.2654321
1.2654323
1.2654324
1.2654326
1.2654328
1.2654329
1.2654331
1.2654331
1.2654331
1.2654331
1.265433
1.2654327
1.2654324
1.2654321
1.2654316
1.265431
1.2654303
1.2654295
1.2654286
1.2654275
1.2654262
1.2654247
1.2654229
1.2654209
1.2654186
1.265416
1.2654129
1.2654094
1.2654055
1.2654009
1.2653958
1.2653899
1.2653832
1.2653757
1.2653672
1.2653576
1.2653467
1.2653345
1.2653208
1.2653054
1.2652882
1.2652689
1.2652474
1.2652234
1.2651967
1.2651671
1.2651341
1.2650976
1.2650573
1.2650127
1.2649634
1.2649092
1.2648496
1.2647841
1.2647123
1.2646336
1.2645476
1.2644536
1.2643512
1.2642396
1.2641183
1.2639865
1.2638437
1.263689
1.2635217
1.263341
1.2631463
1.2629365
1.262711
1.2624687
1.262209
1.2619309
1.2616334
1.2613158
1.2609771
1.2606163
1.2602327
1.2598254
1.2593934
1.258936
1.2584523
1.2579415
1.257403
1.256836
1.2562398
1.255614
1.254958
1.2542714
1.2535538
1.2528049
1.2520246
1.2512129
1.2503697
1.2494952
1.2485897
1.2476536
1.2466874
1.2456917
1.2446674
1.2436154
1.2425366
1.2414324
1.2403039
1.2391527
1.2379803
1.2367883
1.2355786
1.234353
1.2331136
1.2318623
1.2306014
1.2293329
1.2280592
1.2267824
1.2255049
1.2242289
1.2229568
1.2216908
1.220433
1.2191857
1.217951
1.2167308
1.2155271
1.2143418
1.2131765
1.2120328
1.2109123
1.2098164
1.2087462
1.2077028
1.2066872
1.2057003
1.2047427
1.203815
1.2029176
1.2020509
1.201215
1.2004099
1.1996357
1.1988922
1.1981791
1.1974962
1.196843
1.196219
1.1956238
1.1950565
1.1945167
1.1940036
1.1935165
1.1930545
1.1926168
1.1922027
1.1918114
1.1914418
1.1910933
1.1907649
1.1904558
1.1901651
1.189892
1.1896358
1.1893955
1.1891704
1.1889598
1.1887628
1.1885788
1.1884071
1.1882469