/*--------------------------------*- C++ -*----------------------------------*\
  =========                 |
  \\      /  F ield         | OpenFOAM: The Open Source CFD Toolbox
   \\    /   O peration     | Website:  https://openfoam.org
    \\  /    A nd           | Version:  7
     \\/     M anipulation  |
\*---------------------------------------------------------------------------*/
FoamFile
{
    version     2.0;
    format      ascii;
    class       volScalarField;
    location    "0.00225";
    object      Uy;
}
// * * * * * * * * * * * * * * * * * * * * * * * * * * * * * * * * * * * * * //

dimensions      [0 1 -1 0 0 0 0];

internalField   nonuniform List<scalar> 
5000
(
5.3484143e-21
7.2126392e-21
0
0
-3.935828e-21
4.4348259e-36
3.8681336e-21
0
0
-3.7928617e-21
-7.5884652e-21
3.8141638e-21
3.83803e-21
-3.8622372e-21
0
-3.8553837e-21
-3.9815801e-50
3.7673921e-21
0
3.6920208e-21
-3.7387552e-21
-3.7994827e-21
7.6630267e-21
-3.8240401e-21
-3.8005351e-21
-3.1175529e-35
3.7679171e-21
3.7594943e-21
-7.5228327e-21
6.5279787e-35
-6.5828158e-35
3.7665471e-21
7.562728e-21
-7.5400419e-21
6.4585414e-35
-3.1948814e-34
-1.2404642e-34
7.0291776e-21
-7.1276128e-21
-7.3216391e-21
7.474899e-21
-2.5885267e-34
-7.4618466e-21
3.6702435e-21
1.0851934e-20
-3.552199e-21
-3.5244209e-21
-2.4504873e-34
-7.2946583e-21
0
3.7003108e-21
5.2167638e-37
-3.6328842e-21
7.2194003e-21
-1.26766e-34
-6.9590823e-21
3.4248917e-21
-1.2443579e-34
-3.6551152e-21
0
3.5823487e-21
1.2099833e-34
9.9923776e-37
3.5168764e-21
-3.5483547e-21
1.2557998e-34
3.5988116e-21
-3.5572189e-21
-3.5057287e-21
3.4358978e-21
3.3850252e-21
-3.4069706e-21
-3.4720518e-21
7.0686713e-21
3.551967e-21
-3.5153419e-21
0
3.4078785e-21
-4.7769502e-37
-3.3697359e-21
3.4230229e-21
-9.8848844e-37
9.9150033e-37
3.4440779e-21
3.393847e-21
1.1592986e-34
-3.2928039e-21
0
-3.3986656e-21
-3.5705149e-34
-1.2001631e-34
3.3906288e-21
3.356712e-21
-6.6365042e-21
-2.2776437e-34
3.3091146e-21
0
0
-3.3771529e-21
-2.3217298e-34
6.6395851e-21
-3.2867035e-21
-6.5269306e-21
0
3.3119502e-21
3.3270643e-21
-3.3153949e-21
-3.2912943e-21
0
0
3.2698266e-21
3.2885585e-21
0
-3.2653881e-21
1.134052e-34
3.2398643e-21
-3.2481675e-21
9.2566127e-37
-1.1363238e-34
-1.2316084e-52
6.3785127e-21
-1.3630129e-36
-3.2225175e-21
0
-3.2253257e-21
3.1798302e-21
3.1389656e-21
-6.2844379e-21
-3.1933166e-21
6.4637164e-21
3.2178485e-21
-3.1825109e-21
-3.1320586e-21
-3.1036448e-21
0
3.1873898e-21
3.1995199e-21
-3.1705257e-21
-1.0768947e-34
3.0502159e-21
-3.0605757e-21
-3.1303302e-21
0
3.1955058e-21
3.1615571e-21
-3.1231285e-21
3.0769692e-21
-1.7350774e-36
-3.0875024e-21
3.1332467e-21
-3.1617553e-21
2.2037812e-34
3.1469482e-21
-3.1235644e-21
3.0978985e-21
3.0687677e-21
-3.0607638e-21
0
0
-3.1054469e-21
-3.0859227e-21
3.0356581e-21
3.0024e-21
-3.0277439e-21
-2.1313617e-34
3.0974079e-21
-3.0779953e-21
-3.0314063e-21
0
2.9762283e-21
3.02811e-21
0
-3.0594331e-21
-3.0365872e-21
0
2.9577378e-21
6.2010506e-34
-3.0190251e-21
3.0394612e-21
3.0274089e-21
-2.9893718e-21
-2.0410977e-34
2.0327468e-34
1.2732467e-36
3.0133351e-21
-3.0060588e-21
-4.1230974e-34
2.0218322e-34
-2.0177971e-34
2.9607996e-21
0
0
-2.9606736e-21
-2.9340006e-21
0
0
2.956911e-21
1.9225487e-51
-2.8980488e-21
0
2.8667347e-21
-2.9168404e-21
-8.1985863e-34
5.9108951e-21
-2.9226853e-21
-6.00743e-34
-4.0685279e-37
-2.8480841e-21
2.8682186e-21
-4.1289324e-37
-4.0385505e-34
2.0091373e-34
-2.8795222e-21
0
2.7985274e-21
1.9489514e-34
7.9566008e-34
2.9006763e-21
0
-2.8479398e-21
-2.8024981e-21
0
0
0
2.85605e-21
1.9673979e-34
-2.7995792e-21
0
0
2.8218143e-21
2.8454054e-21
-2.8152913e-21
-2.7526226e-21
0
2.6702428e-21
2.7471451e-21
-2.8183519e-21
-2.8467281e-21
0
2.7721341e-21
-7.5539402e-34
-1.8511567e-34
2.667396e-21
-2.7189167e-21
-2.7766033e-21
0
2.8120098e-21
-3.8311543e-34
2.6963085e-21
3.6174712e-34
-5.1727618e-21
2.6737183e-21
-3.8130305e-34
-9.6806728e-34
-1.9282841e-34
-2.74878e-21
2.7123158e-21
2.663843e-21
0
-2.6541503e-21
-2.708967e-21
0
2.7380626e-21
2.7132529e-21
-5.3178043e-21
-2.6154679e-21
2.630314e-21
2.692593e-21
7.5516705e-34
-2.7094901e-21
2.671169e-21
-1.7858119e-34
-2.5237606e-21
2.5810084e-21
-1.8553904e-34
1.8992809e-34
-7.7549089e-37
-1.8551801e-34
2.6464329e-21
0
0
-2.6111982e-21
-2.6750193e-21
0
0
0
0
2.5836158e-21
1.7986203e-34
-5.2955836e-21
1.1377663e-36
2.6605116e-21
2.6273869e-21
-3.6082522e-34
-3.6063311e-34
-3.7345262e-37
-2.6482734e-21
-2.6467574e-21
-2.6172613e-21
5.1900952e-21
7.818346e-21
-2.6321323e-21
-5.2806547e-21
0
2.6044465e-21
2.5896764e-21
-2.6032081e-21
7.4682329e-37
-1.1212854e-36
7.401827e-37
2.5817341e-21
2.5852203e-21
-2.6117636e-21
-5.2507197e-21
2.6197803e-21
-2.6946682e-52
2.5912559e-21
7.2104459e-34
-5.2146156e-21
0
0
5.1013256e-21
-1.4305902e-33
-5.2201091e-21
0
2.5714293e-21
2.5322837e-21
-2.5255407e-21
3.6458057e-37
-3.6170751e-34
3.7002868e-37
2.5745517e-21
-2.5416437e-21
-2.5333491e-21
0
2.5877432e-21
-3.5954169e-34
-2.5569495e-21
5.0594828e-21
-7.0453357e-34
-2.5648759e-21
-7.1601736e-34
-5.1476383e-21
5.0728598e-21
2.5132605e-21
-2.5376573e-21
-3.6631646e-37
-2.5827317e-21
0
0
2.509897e-21
-3.5174503e-34
-5.1413068e-21
3.6561981e-37
7.6167638e-21
-2.5071216e-21
-2.5114118e-21
5.0777578e-21
-2.5607291e-21
2.5603948e-21
5.045951e-21
-2.4974906e-21
-2.5184383e-21
-2.5573139e-21
2.561739e-21
1.8084656e-51
-2.488713e-21
2.4683749e-21
-2.5159769e-21
2.5687377e-21
7.1531907e-34
7.2120846e-37
2.4586035e-21
-4.737994e-21
2.3717699e-21
6.855521e-34
-7.0531924e-34
-2.5834225e-21
-5.1765056e-21
7.6867279e-21
6.9979452e-34
-1.3625395e-33
6.6477833e-34
-4.8406072e-21
4.9918232e-21
-7.0861695e-34
-5.1359285e-21
0
0
2.4091392e-21
-3.3272194e-34
-2.4717894e-21
-2.5361423e-21
2.5564156e-21
7.5845192e-21
-2.478161e-21
-2.4150469e-21
-6.8315726e-37
-2.4704122e-21
0
5.0607821e-21
5.0131847e-21
-2.4372346e-21
-4.7686756e-21
-2.4088623e-21
4.9669594e-21
5.043053e-21
-5.0206122e-21
-4.9662177e-21
0
4.7626839e-21
-2.4316795e-21
-4.9694651e-21
2.5067394e-21
2.4869989e-21
-3.4304144e-37
3.2706056e-34
2.3786344e-21
-2.4579245e-21
-2.495167e-21
2.4856016e-21
-3.4031403e-34
-3.3449575e-37
-3.1959084e-34
-2.3694944e-21
2.4591884e-21
-1.039241e-33
-3.4414344e-34
-6.7971784e-34
-2.3803116e-21
2.3431322e-21
-3.3193856e-34
-6.7729938e-34
-3.5082336e-37
-4.9215605e-21
-2.4065978e-21
2.3643262e-21
4.7694949e-21
-3.3643707e-34
-4.8964326e-21
-2.4420143e-21
4.7389524e-21
2.3227098e-21
-2.360424e-21
-2.4372505e-21
-6.8765882e-34
2.4442762e-21
0
0
2.2430045e-21
0
-2.4397501e-21
2.4651273e-21
3.4651643e-37
-6.6442472e-34
0
-2.2225111e-21
2.2906464e-21
2.3823943e-21
-4.9069348e-21
-2.4674205e-21
2.4124279e-21
0
0
-2.1883531e-21
6.3891905e-34
2.3917232e-21
0
0
-2.3836119e-21
9.6092364e-34
2.2260708e-21
0
0
0
0
0
0
0
0
4.6514121e-21
1.3198818e-33
-2.3817972e-21
2.3385216e-21
-2.2022413e-21
2.1272234e-21
-6.120744e-34
-2.3093173e-21
-6.5870128e-34
-2.3807435e-21
0
0
2.1813894e-21
6.0730987e-34
-2.2770303e-21
0
0
0
0
0
0
0
4.6067889e-21
-1.9036901e-33
-4.3744349e-21
2.1358896e-21
3.1205841e-37
2.2809235e-21
-1.2879353e-33
-4.5676301e-21
-2.1915706e-21
2.1693376e-51
6.2624692e-21
0
-4.5608196e-21
0
0
4.3999479e-21
-5.4200382e-34
-5.6723401e-21
2.0739781e-21
2.1959047e-21
-2.2481394e-21
2.2601822e-21
-2.2533411e-21
-6.2184076e-34
2.2251714e-21
-2.209949e-21
0
-2.201654e-21
2.167787e-21
4.1231477e-21
-1.982868e-21
-2.0288e-21
-2.1263147e-21
-2.1864837e-21
4.3941366e-21
2.1789801e-21
-2.1621406e-21
0
2.1542381e-21
-2.1410792e-21
-2.1059887e-21
6.0172216e-21
5.5225877e-37
-3.9848514e-21
2.079082e-21
2.9548566e-34
2.1259253e-21
-5.8369298e-37
-3.62001e-21
1.7467862e-21
0
-5.6587136e-34
-2.9620777e-37
-2.0908326e-21
2.0796892e-21
-5.7164478e-34
-2.8271029e-34
-2.8901486e-37
-2.0181557e-21
2.0015772e-21
3.2876718e-51
-5.1224639e-34
-2.555926e-37
-3.7787088e-21
-2.7497931e-34
2.0185745e-21
0
0
-1.7922257e-21
-7.4493353e-34
1.8969976e-21
-1.9480232e-21
2.7002756e-34
1.9100025e-50
-2.4063496e-34
1.6831818e-21
1.7891115e-21
2.6199274e-34
-1.9219937e-21
0
0
1.640782e-21
-1.5940148e-21
1.4372485e-33
1.8276119e-21
-1.8745085e-21
0
1.7919121e-21
1.6307508e-21
-1.5597393e-21
-1.6469589e-21
0
1.7989128e-21
1.814091e-21
-3.6209445e-21
-1.8009456e-21
1.7659502e-21
1.7179311e-21
2.2877254e-34
1.4621764e-21
3.9860996e-34
-3.1790159e-21
0
0
0
1.7004223e-21
1.6471165e-21
0
-1.4710164e-21
-2.0040508e-34
1.537062e-21
0
0
-1.6140144e-21
-2.1658115e-34
2.058365e-34
-1.4458607e-21
1.4766501e-21
-6.3821959e-34
-1.5649389e-21
0
-1.5069959e-21
-2.0063432e-34
1.39875e-21
-1.4054966e-21
1.4557758e-21
1.4999558e-21
-1.5024904e-21
0
1.390723e-21
1.3190439e-21
-1.2978255e-21
-1.3432115e-21
0
-1.3965292e-21
1.3826805e-21
1.3594267e-21
-1.3438565e-21
-2.6828537e-21
7.4906973e-34
4.0469016e-21
1.6020834e-51
-1.2980978e-21
-2.5378005e-21
6.924515e-34
2.4777307e-21
-1.2423583e-21
1.2460587e-21
-1.245219e-21
-1.2427562e-21
2.4832022e-21
0
0
-2.3399343e-21
-2.6183794e-51
2.2527887e-21
0
0
-2.3009206e-21
-1.4712962e-50
2.1914113e-21
0
0
-2.1271453e-21
-1.0799195e-21
2.1527069e-21
1.0455311e-21
0
-1.9528826e-21
5.3788928e-34
1.9645381e-21
-9.943312e-22
0
9.6002192e-22
-9.2980571e-22
1.295919e-37
9.0957109e-22
-9.1801726e-22
9.2351087e-22
9.11923e-22
-8.779727e-22
-8.3995063e-22
2.259541e-34
8.0417865e-22
-8.0810949e-22
-2.257357e-34
8.1099059e-22
-7.9923548e-22
7.7832682e-22
7.5409446e-22
-7.3301732e-22
-7.1807513e-22
1.9684796e-34
7.0310028e-22
-6.9589926e-22
9.67408e-38
6.5475381e-22
-6.2645221e-22
6.0427131e-22
5.8823331e-22
-5.7561844e-22
-1.1255304e-21
3.0411573e-34
1.060931e-21
-5.1571374e-22
7.1778144e-38
9.936136e-22
1.3826351e-37
-4.6758251e-22
0
3.9420025e-22
0
-3.3738103e-22
0
0
0
-3.0472961e-22
-1.4219558e-51
2.4727279e-22
0
1.707935e-22
-4.0282147e-35
-1.2650928e-22
0
0
0
-2.8833436e-23
-2.2205749e-36
-4.0438448e-23
0
-8.7168227e-23
-3.0761097e-35
1.4170974e-22
0
-2.2507016e-22
2.6571722e-22
-1.6697736e-34
-3.3338372e-22
3.7049663e-22
0
4.6732142e-22
1.4232567e-34
-5.4733882e-22
0
-6.1584536e-22
6.6731066e-22
4.0581192e-34
-7.9578724e-22
4.7235032e-34
1.2714251e-37
-2.6067468e-34
1.4090896e-37
1.0577657e-21
0
-1.1956143e-21
3.4732726e-34
3.619693e-34
3.1347005e-51
4.0181869e-34
0
3.2686422e-21
4.75876e-34
-1.7734393e-21
1.8278395e-21
-5.2525848e-34
-1.9752095e-21
-2.0749933e-21
-6.0681158e-34
6.3837132e-34
-2.4124198e-21
2.5237983e-21
2.6299763e-21
0
2.8280858e-21
-8.1376105e-34
-3.0431491e-21
0
0
0
7.217893e-21
-4.1527102e-33
-7.7054292e-21
0
0
0
0
0
0
0
1.0326671e-20
-2.9558593e-33
-1.1025696e-20
-5.7410519e-21
5.9854045e-21
6.2283488e-21
-1.7946027e-33
-3.7000913e-33
-6.8672203e-21
7.0797222e-21
-7.3231155e-21
-7.5966952e-21
7.8890371e-21
8.184045e-21
-4.7000512e-33
-8.7364316e-21
-9.0037649e-21
2.5765161e-33
9.602732e-21
9.9484365e-21
-1.0314999e-20
-1.0683089e-20
1.1034339e-20
-1.1366337e-20
0
1.2055412e-20
1.2457094e-20
-3.579145e-33
-1.3369202e-20
1.3829329e-20
-1.4260626e-20
-1.4666297e-20
1.5083802e-20
-1.554703e-20
-4.460805e-33
1.6619159e-20
1.717805e-20
2.517394e-36
-3.6461047e-20
-1.0413492e-32
1.9322066e-20
1.9939064e-20
0
-2.1240113e-20
0
0
0
-2.3852423e-20
-2.4600402e-20
2.5370928e-20
2.6134276e-20
0
-2.763567e-20
7.8978305e-33
2.9274575e-20
0
0
-3.1976119e-20
1.824741e-32
3.3789514e-20
0
0
-3.679456e-20
2.1009355e-32
3.8908268e-20
0
-4.1079019e-20
1.172527e-32
-1.2051338e-32
1.2400872e-32
4.591924e-20
0
4.846797e-20
-2.7615497e-32
-5.1095013e-20
0
-5.3921092e-20
5.5414123e-20
5.6940029e-20
-1.1696109e-19
-1.6685811e-32
1.2318862e-19
-1.7549498e-32
-6.487023e-20
0
0
-7.0283179e-20
2.0024301e-32
7.4010978e-20
0
-7.7797595e-20
7.9802627e-20
8.191053e-20
-8.4101203e-20
0
8.8566287e-20
-9.0800432e-20
-5.1658764e-32
5.2957283e-32
-9.7841014e-20
8.3579366e-32
-1.0295045e-19
1.0557553e-19
-3.0039553e-32
6.1613773e-32
2.2743118e-19
-3.2333237e-32
-1.1947723e-19
0
0
0
2.6370997e-19
1.3511238e-19
-2.768551e-19
-1.4181083e-19
0
0
-1.5251955e-19
1.8159403e-49
1.6006927e-19
0
3.3573596e-19
1.7190668e-19
-3.5211428e-19
-1.8030946e-19
0
3.7811462e-19
5.5011306e-35
-5.9445188e-19
5.6270863e-32
4.1531317e-19
-2.12549e-19
-1.23654e-34
2.2262974e-19
-6.330197e-32
-1.2937477e-31
-2.3864351e-19
0
-2.4979252e-19
1.4186759e-31
5.2275302e-19
-2.6738151e-19
4.5539397e-31
2.7976899e-19
-5.722463e-19
4.1579783e-35
2.9918964e-19
0
0
0
3.2683093e-19
-3.3407173e-19
-6.829638e-19
3.4905418e-19
9.9063941e-32
1.0112572e-31
3.7244685e-19
0
-3.8867344e-19
5.6428383e-35
8.1134064e-19
-4.1439997e-19
-2.3480483e-31
4.321619e-19
4.4123134e-19
-2.5030977e-31
-9.1989445e-19
0
-4.7941284e-19
-4.8934783e-19
0
5.0961016e-19
5.2000243e-19
-5.3060208e-19
0
5.5236108e-19
0
0
-5.8607258e-19
4.9770477e-31
6.0946924e-19
0
0
-6.4601453e-19
-6.5848694e-19
6.7112862e-19
6.8397612e-19
-6.9704344e-19
-7.1031345e-19
1.4475127e-18
7.3735795e-19
-2.086814e-31
-7.651106e-19
4.3235341e-31
4.4034431e-31
-8.0828946e-19
8.230219e-19
-8.3791893e-19
8.530173e-19
7.4040015e-34
-8.8392063e-19
1.7993918e-18
9.1563583e-19
9.3172432e-19
-1.8959654e-18
-1.928905e-18
9.8116274e-19
-9.9810859e-19
1.0152577e-18
-5.7345215e-31
-2.1001165e-18
1.0677223e-18
-3.0129544e-31
3.0663543e-31
1.1220453e-18
0
0
-1.1781808e-18
-1.1972642e-18
0
1.2360778e-18
1.2558048e-18
0
1.2958344e-18
-3.6546494e-31
-1.3366444e-18
1.3573617e-18
-3.8232922e-31
-1.3993884e-18
0
-1.4421837e-18
-8.1278037e-31
1.4858138e-18
-1.507926e-18
4.2425753e-31
1.5526786e-18
1.5753412e-18
4.4356726e-31
-1.621319e-18
0
1.6680626e-18
-1.6916786e-18
4.8756889e-34
-9.6604825e-31
-1.7637394e-18
1.7881778e-18
0
3.6750343e-18
-4.1351344e-30
-1.8875163e-18
-1.061769e-30
-3.8767298e-18
3.9281377e-18
3.9798314e-18
-4.0318074e-18
-4.0841185e-18
-2.0684107e-18
0
2.1216885e-18
4.2971197e-18
-3.0916666e-34
2.2027295e-18
-2.230076e-18
-2.2576144e-18
2.2853209e-18
-4.6263168e-18
4.682217e-18
3.9459128e-30
-4.7948758e-18
4.851761e-18
-1.3624355e-30
2.4832597e-18
-2.5121111e-18
-2.5410525e-18
2.5701186e-18
7.2104969e-31
5.257539e-18
-5.3166856e-18
-5.3760485e-18
5.435562e-18
7.625687e-31
2.7775749e-18
-1.5592751e-30
-2.8379447e-18
-7.9607073e-31
5.8674519e-48
-2.9293325e-18
-5.9198864e-18
2.9906637e-18
-1.3362583e-47
3.0524833e-18
5.1365485e-30
-3.1146527e-18
6.2916424e-18
-1.763514e-30
-6.4168356e-18
1.5126557e-48
3.2714082e-18
0
0
3.3662428e-18
-3.3979624e-18
-6.8595397e-18
0
0
0
3.557496e-18
3.5894991e-18
0
-3.6536548e-18
3.6857745e-18
6.1921951e-30
-7.5000248e-18
0
0
0
3.8788326e-18
3.9110331e-18
-3.9431814e-18
3.9753022e-18
2.2255709e-30
-8.0792171e-18
0
0
8.2721987e-18
-1.1846585e-33
-4.2001365e-18
4.2320956e-18
-4.2640398e-18
4.2959661e-18
-2.4035198e-30
-8.7193896e-18
0
0
4.4547735e-18
4.4863148e-18
0
0
-4.5805575e-18
-4.6118389e-18
0
4.6741159e-18
4.7050866e-18
-4.7359468e-18
4.7667091e-18
4.7973843e-18
-4.8279705e-18
-4.85845e-18
2.7150446e-30
4.9190054e-18
-4.949074e-18
-1.3818678e-30
5.0088589e-18
0
5.0681389e-18
-2.8302455e-30
-5.1267751e-18
5.1558695e-18
-2.8787138e-30
-5.2136576e-18
0
5.2707683e-18
-1.4714371e-30
-7.5703229e-34
5.3551e-18
-5.3829038e-18
-5.4105173e-18
0
1.0930149e-17
-6.1001266e-30
-5.5188525e-18
-7.880633e-34
-1.1143931e-17
1.1196393e-17
1.1248343e-17
-1.1299801e-17
-5.6754186e-18
0
1.1451799e-17
-9.574809e-30
-1.1551022e-17
0
1.164816e-17
3.2477463e-30
-5.8716993e-18
-1.6369734e-30
-1.1836836e-17
1.1882808e-17
1.4896584e-29
-1.1973121e-17
1.2017445e-17
-3.3465948e-30
-1.2104537e-17
-6.0736838e-18
1.2189718e-17
6.1157626e-18
-1.2272715e-17
1.2313254e-17
1.5427261e-29
-1.2392553e-17
1.2431449e-17
-1.7313158e-30
6.2538616e-18
-6.9598438e-30
-1.8872321e-17
3.5018303e-30
1.2652807e-17
-6.3437759e-18
-1.2721721e-17
6.3776558e-18
-3.5501533e-30
6.4103645e-18
7.1377665e-30
-6.4417966e-18
1.2914009e-17
-5.3895069e-30
7.2019042e-30
-3.6065868e-30
-6.5148065e-18
0
-6.5417975e-18
-6.5547508e-18
0
0
0
0
0
6.6258932e-18
6.6365415e-18
0
-6.656863e-18
6.666565e-18
1.1120771e-29
-1.3369972e-17
0
0
0
6.7175522e-18
6.7248548e-18
-6.7318428e-18
-6.7385001e-18
1.3489593e-17
1.1247238e-29
-1.3512531e-17
0
1.3532733e-17
1.1279055e-29
-6.7752347e-18
6.7791196e-18
-6.7826086e-18
6.7857163e-18
3.768127e-30
-1.3581945e-17
0
0
6.7965093e-18
6.7975771e-18
0
6.7986079e-18
1.9322976e-33
6.7983888e-18
6.7977262e-18
-6.7967114e-18
0
-1.3587243e-17
-1.3583093e-17
0
2.0359171e-17
1.3566648e-17
-1.3559848e-17
6.7761812e-18
6.7720916e-18
-2.0302966e-17
-6.7628806e-18
-9.6033836e-34
-6.7523611e-18
6.7466178e-18
6.7405421e-18
6.7341281e-18
3.3493343e-49
6.7202875e-18
6.7128811e-18
-6.7051637e-18
0
-1.3377559e-17
-1.3360196e-17
0
6.6617492e-18
1.3304202e-17
3.6859547e-30
6.6318987e-18
1.3242674e-17
-1.322092e-17
-1.3198531e-17
-6.5877583e-18
-6.5759489e-18
0
6.551451e-18
1.9616275e-17
-6.5257645e-18
-7.0079027e-47
1.9496632e-17
-1.2969999e-17
-6.4708407e-18
-6.4564009e-18
-1.2883352e-17
1.2853323e-17
6.4113576e-18
-6.3957729e-18
-6.3799185e-18
-6.3638e-18
1.9042252e-17
6.3307664e-18
-1.8941532e-17
-6.2966505e-18
6.2791909e-18
1.2522948e-17
-6.243506e-18
6.2252861e-18
-1.0333995e-29
1.0306338e-29
1.8507354e-17
-6.1499039e-18
-6.1304508e-18
-1.2221518e-17
-6.0908292e-18
1.2141328e-17
1.7195896e-33
6.0296455e-18
-6.0087988e-18
-1.7963181e-17
1.7899294e-17
5.9449186e-18
-1.7769589e-17
0
1.7637401e-17
5.8567898e-18
-1.75027e-17
5.8114692e-18
1.157702e-17
3.2002164e-30
-6.3737215e-30
-5.7185299e-18
0
-1.1341872e-17
-1.1293707e-17
5.6225957e-18
5.5981725e-18
1.1147174e-17
-5.5488377e-18
-5.523922e-18
1.0997677e-17
0
-1.0896369e-17
-1.0845263e-17
5.3969366e-18
1.07422e-17
-2.9669479e-30
-5.3189977e-18
1.0585465e-17
-5.2663295e-18
1.7450911e-29
1.0426283e-17
-5.1863674e-18
0
-1.0264933e-17
0
1.1276361e-29
5.0507427e-18
1.0046572e-17
-1.4987196e-17
1.4120137e-33
9.8806714e-18
0
-9.7691188e-18
-4.8565393e-18
9.6568806e-18
-5.3297075e-30
-4.7720187e-18
9.4873904e-18
-4.7152959e-18
7.8033004e-30
9.3165829e-18
-4.6297011e-18
4.6010572e-18
-9.1447209e-18
-1.3630833e-17
0
1.3457879e-17
8.9141364e-18
-1.3284424e-17
-8.7983648e-18
4.3701931e-18
8.6823488e-18
-4.3121267e-18
-4.2830503e-18
8.5078962e-18
-4.2248272e-18
-8.3913905e-18
4.1665571e-18
-5.8796214e-34
8.2165437e-18
8.1582449e-18
-1.21499e-17
4.0208088e-18
6.6481517e-30
-1.1887541e-17
0
1.1712823e-17
7.7503655e-18
-3.8461134e-18
-3.8170676e-18
-3.7880444e-18
0
-3.7300715e-18
2.0544104e-30
7.3444716e-18
-2.021836e-30
-3.6145726e-18
0
-3.5570847e-18
7.0568149e-18
1.0499341e-17
-6.9424183e-18
-1.0328093e-17
-3.4142477e-18
3.3858616e-18
6.7150824e-18
-3.3292855e-18
3.301094e-18
3.2729714e-18
-6.4898474e-18
6.4339112e-18
3.1890702e-18
-9.4838017e-18
-6.2670853e-18
3.1058958e-18
9.2349966e-18
-6.7738355e-30
6.7130532e-30
2.9962083e-18
3.2960757e-30
2.9419468e-18
-2.9149541e-18
-2.8880578e-18
-2.8612649e-18
2.8345802e-18
2.8080058e-18
-8.3446231e-18
2.7551853e-18
5.4578791e-18
-8.10842e-18
-7.6078973e-34
2.6508934e-18
-5.2502243e-18
-2.5994471e-18
0
2.5484805e-18
2.5231879e-18
4.9960516e-18
-2.4729934e-18
8.1532457e-30
7.2699131e-18
-2.3986483e-18
-2.3741241e-18
-2.3497363e-18
2.3254873e-18
2.301379e-18
-6.8322319e-18
2.253579e-18
4.4597645e-18
3.6746561e-30
2.1829021e-18
-4.3192512e-18
-6.4094831e-18
-1.1728582e-30
1.1604819e-30
2.938777e-34
2.0454349e-18
4.0460729e-18
2.000785e-18
-5.9360409e-18
2.1722606e-30
3.8698346e-18
0
0
-1.8704256e-18
1.0264658e-30
-1.014525e-30
-1.8072959e-18
3.5731084e-18
1.76597e-18
1.9373255e-30
-1.7252821e-18
-5.1155156e-18
-1.6852112e-18
0
0
0
4.8207454e-18
3.175481e-18
-4.706166e-18
1.7210159e-30
3.0622852e-18
0
0
-2.9518953e-18
3.2369098e-30
1.5981465e-30
-2.8443431e-18
1.4045537e-18
2.7741836e-18
2.739577e-18
-1.3526442e-18
-4.0069668e-18
-1.3188199e-18
0
0
0
3.7590507e-18
2.4739098e-18
-3.6631282e-18
2.6760864e-30
1.1896658e-18
-1.6686467e-34
1.1589027e-18
-2.2875119e-18
1.2530946e-30
1.1139079e-18
-2.1984009e-18
0
5.94209e-31
2.1119305e-18
2.083709e-18
-3.0836698e-18
-2.028137e-18
1.0003899e-18
5.4764015e-31
-9.7347009e-19
2.8806826e-18
1.8942493e-18
-9.3415922e-19
-9.213316e-19
9.0864373e-19
8.9609886e-19
-8.8369827e-19
-8.7143779e-19
4.7698287e-31
-4.7020354e-31
-8.354493e-19
0
-8.1211975e-19
1.6013201e-18
2.3680101e-18
-1.5562883e-18
-1.5341555e-18
-7.5613664e-19
8.273138e-31
1.4692651e-18
-7.2407314e-19
7.1364203e-19
7.0333584e-19
-1.3863027e-18
1.3661736e-18
6.7314388e-19
-6.633246e-19
-1.3072543e-18
-6.4404684e-19
1.2691606e-18
-3.4687047e-31
6.159867e-19
6.0686675e-19
-1.7936072e-18
5.8898758e-19
5.8021424e-19
-1.7146349e-18
8.0004137e-35
1.6635578e-18
5.46172e-19
-1.6138237e-18
5.2982187e-19
4.1429851e-47
8.5559214e-31
1.0121299e-18
-9.9668456e-19
-9.814444e-19
4.832087e-19
-5.2821094e-31
-9.3698196e-19
4.6127442e-19
1.3624472e-18
4.4711499e-19
-4.4017372e-19
0
-4.2658326e-19
-8.3986621e-19
5.8743683e-35
1.2206869e-18
4.0050313e-19
-7.8838907e-19
5.5134207e-35
7.6368321e-19
-7.5160345e-19
6.1598462e-31
7.2794369e-19
-1.0745218e-18
-7.0490545e-19
0
0
3.3577494e-19
9.9114079e-19
3.2506006e-19
-9.5943336e-19
3.4928949e-31
6.1904784e-19
-6.0898089e-19
-5.990704e-19
2.9465601e-19
5.7969412e-19
-2.8510433e-19
-2.8042623e-19
8.2743674e-19
2.7126444e-19
4.4433596e-31
-1.4556526e-31
-2.5803609e-19
2.5375634e-19
-4.9907401e-19
-7.3613303e-19
0
7.1172802e-19
4.6653433e-19
-6.8805253e-19
6.4088554e-35
2.2168902e-19
-4.3588892e-19
2.1425758e-19
2.1062623e-19
2.2985519e-31
-2.035223e-19
-4.0009486e-19
1.9662592e-19
3.865189e-19
3.7989236e-19
-2.0729947e-31
-1.8346714e-19
1.8029701e-19
-3.5434758e-19
-5.2230304e-19
0
5.0431555e-19
3.3035153e-19
-4.8686484e-19
1.7704991e-31
1.5663911e-19
-1.5388391e-19
-1.5117528e-19
8.239192e-32
2.9176797e-19
-7.9540106e-32
-2.8149003e-19
1.5344155e-31
1.507021e-31
2.6667957e-19
3.9285399e-19
-2.5719678e-19
1.4022571e-31
4.1293378e-31
-1.2175463e-19
-1.1954992e-19
-2.3476219e-19
3.4573698e-19
1.1314106e-19
-2.221343e-19
2.1805337e-19
6.0834575e-35
-3.1515115e-19
-1.0311127e-19
1.0120228e-19
2.9797392e-19
-3.2467584e-31
-1.9132643e-19
-9.3876953e-20
1.842328e-19
2.7113914e-19
-2.6601085e-19
-8.6994048e-20
-9.4729315e-32
-8.3739906e-20
1.643095e-19
-4.47341e-32
7.9043319e-20
-7.7515852e-20
2.5321508e-31
2.2365405e-19
-2.193499e-19
-2.1512415e-19
0
0
0
6.6267994e-20
1.9487619e-19
6.3676561e-20
6.9297275e-32
6.1190091e-20
-1.7993984e-19
-5.8788617e-20
5.7612085e-20
5.6449783e-20
5.5306561e-20
-1.083758e-19
5.3094494e-20
-5.2023041e-20
1.697562e-31
9.9868561e-20
-1.4672754e-19
-9.579365e-20
0
9.1864121e-20
4.9937872e-32
-4.4052715e-20
1.2941676e-19
4.2237974e-20
-4.1347472e-20
0
0
-3.8770723e-20
-7.588868e-20
8.2457655e-32
7.2706747e-20
3.5569942e-20
-3.4797304e-20
3.4040609e-20
-3.3300427e-20
-3.7456561e-48
5.3075229e-32
-9.3508195e-20
0
0
5.8270931e-20
5.6975581e-20
2.7855142e-20
-3.0232314e-32
-7.9879085e-20
2.8895597e-32
5.0848982e-20
0
-4.8542166e-20
-2.3717218e-20
4.6352842e-20
-2.2645956e-20
-2.2121485e-20
6.4805055e-20
-2.1090354e-20
6.8578774e-32
4.0210948e-20
-5.8894608e-20
-3.8336134e-20
0
0
0
5.2173186e-20
3.3933068e-20
-4.9654302e-20
-3.2291979e-20
0
3.0725255e-20
-1.663394e-32
-1.4610212e-20
2.848431e-20
-1.3881487e-20
1.3529996e-20
1.3187758e-20
-3.8562886e-20
2.5054637e-20
2.4407988e-20
-1.1884772e-20
1.1572907e-20
-2.2540541e-20
-3.2930362e-20
0
3.1237927e-20
2.0269541e-20
-9.8590205e-21
-9.5893369e-21
1.0355673e-32
-9.075686e-21
2.9417298e-32
8.5929637e-21
4.6401699e-33
4.4813301e-50
-7.8936688e-21
0
-7.4529745e-21
1.4484288e-20
2.1110929e-20
-2.0509462e-20
-1.9921141e-20
0
1.2518411e-20
1.2145962e-20
-1.1782347e-20
5.7149272e-21
5.544439e-21
-1.6139972e-20
1.0439931e-20
1.0122257e-20
-4.9031267e-21
-9.4972882e-21
-4.5994242e-21
1.3368376e-20
4.3185801e-21
6.9669002e-33
-8.0974688e-21
-2.2252681e-36
1.1354076e-20
-7.3198916e-21
-1.0624042e-20
-3.4283459e-21
9.9496806e-21
6.4058279e-21
-9.2683921e-21
6.6160355e-33
5.7486236e-21
2.775012e-21
-1.4882695e-33
-5.1794551e-21
2.7723603e-33
-2.4043646e-21
-2.3135043e-21
6.6783926e-21
2.1425099e-21
2.2894085e-33
-3.969098e-21
6.3566375e-33
5.5036818e-21
-3.5254861e-21
1.8799652e-33
1.8033055e-33
3.4527417e-33
1.4888933e-21
-4.2772791e-21
1.3662748e-21
2.1812302e-33
4.1772028e-33
3.5910794e-21
-1.1400634e-21
-2.1704887e-21
1.1475991e-33
-9.8680352e-22
-9.4297265e-22
1.79624e-21
1.7012793e-21
-8.912958e-34
-2.2740352e-21
7.955909e-34
6.8011849e-22
-1.2918709e-21
6.1018111e-22
5.7150165e-22
-2.9537602e-34
2.7539417e-34
-4.6383037e-22
8.7234813e-22
-4.1105496e-22
1.2778013e-33
1.1727247e-33
-9.5796614e-22
5.7756456e-22
-7.4447347e-38
-4.7780162e-22
2.18544e-22
5.9458842e-22
1.7651328e-22
-4.6399727e-22
1.491251e-34
1.1529015e-22
-1.9154497e-22
1.498995e-22
2.6743855e-34
-3.3131275e-23
1.5657263e-23
-3.1356794e-24
-9.7763679e-24
1.3701762e-23
8.3543899e-23
0
0
-1.6774045e-22
-2.7479533e-38
2.0885093e-22
-1.0900837e-22
-3.4360186e-22
-1.2346854e-22
4.0588598e-22
4.2185217e-38
1.789114e-34
3.4399781e-22
-5.4033062e-22
-9.2465349e-34
1.8744485e-22
-1.9015009e-22
-1.9571491e-22
2.2697188e-34
2.1489654e-22
-4.5014617e-22
4.6436916e-22
-7.8010887e-34
-4.6553779e-22
6.9781763e-22
4.718981e-22
-2.4262763e-22
-7.5419565e-22
-2.59275e-22
2.6319913e-22
0
-2.5984478e-22
2.5959743e-22
7.8735214e-22
1.4855945e-34
-5.4696023e-22
2.7725357e-22
2.7741524e-22
-5.5039289e-22
2.7373084e-22
-2.7449638e-22
-5.5431908e-22
8.4243035e-22
-9.4137823e-34
6.2505988e-34
5.5826542e-22
-5.5564494e-22
-2.7875125e-22
-2.816554e-22
-3.1659181e-34
2.8488549e-22
-5.5937469e-22
5.4698801e-22
8.1066368e-22
0
-2.7571984e-22
1.5586054e-34
8.0421021e-38
-8.3901072e-22
-2.7221878e-22
7.9735084e-22
-2.6282329e-22
2.0196707e-50
8.0009977e-22
-2.6993584e-22
-8.1202757e-22
-2.6797109e-22
5.2670913e-22
-2.5939502e-22
2.569428e-22
-8.5125177e-34
-5.0977121e-22
7.6278388e-22
2.814448e-34
-1.1202433e-33
5.0158979e-22
-4.9773034e-22
-2.7356836e-34
2.4399797e-22
-4.8398516e-22
-2.402584e-22
0
0
4.6784322e-22
-5.1561905e-34
-1.3153916e-37
-2.5673617e-34
-2.3065763e-22
-2.2809762e-22
2.2349336e-22
2.1925782e-22
-4.342138e-22
4.3455672e-22
-2.4316778e-34
-4.4013516e-22
4.363666e-22
7.1055938e-34
-2.317895e-34
2.0662554e-22
-4.1379077e-22
2.0871517e-22
-4.6493809e-34
-4.1466095e-22
0
4.0001393e-22
1.992445e-22
-4.0106888e-22
-2.0240327e-22
2.0217921e-22
-3.3106971e-34
-1.9470154e-22
0
0
3.9164641e-22
3.9634866e-22
0
-3.8777276e-22
-1.9001674e-22
1.8874654e-22
-1.902948e-22
1.9369207e-22
0
-3.9105825e-22
0
0
1.8798208e-22
-2.1169894e-34
-1.9502139e-22
0
1.9731923e-22
1.07142e-34
-1.8931582e-22
0
3.843032e-22
3.9493243e-22
-2.0201701e-22
-2.2548754e-34
2.0027214e-22
-3.9373246e-22
-3.9199065e-22
3.9595403e-22
5.7363604e-38
4.5615973e-34
5.8813771e-38
-4.1252456e-22
2.0566916e-22
-2.2978437e-34
2.1002919e-22
-2.1372676e-22
-6.461774e-22
6.4114296e-22
2.1147896e-22
-2.1151663e-22
-2.3835991e-34
-2.2044332e-22
4.5238797e-22
4.567266e-22
-4.5145433e-22
-7.3805312e-34
-2.2010962e-22
-2.2306728e-22
4.5894189e-22
-2.3647372e-22
2.6740091e-34
-1.3363014e-34
2.3672845e-22
4.676629e-22
-4.6878673e-22
-4.7714968e-22
0
2.5159998e-22
2.825557e-34
-5.0584248e-22
-2.7653181e-34
7.4085091e-22
4.9666978e-22
0
-5.1935079e-22
-5.8936413e-34
-2.6780532e-22
-2.6591694e-22
7.8734353e-22
-1.4472358e-34
-5.2515418e-22
2.6744748e-22
5.472514e-22
-2.7835574e-22
-5.5829357e-22
-2.7609706e-22
0
5.4628327e-22
-2.7609546e-22
-8.4508866e-22
2.8736201e-22
2.8953396e-22
5.7395804e-22
2.8357936e-22
-5.6526058e-22
-2.8495851e-22
-2.9022032e-22
3.2870332e-34
2.9819041e-22
2.9492047e-22
5.7939146e-22
2.8671975e-22
0
0
0
-6.16849e-22
-6.1543079e-22
6.0078871e-22
3.2513287e-34
3.2165385e-34
-3.2459049e-34
-6.6630688e-34
6.1647761e-22
0
-6.2770694e-22
-3.0998552e-22
3.0437695e-22
-3.007187e-22
-2.9973751e-22
0
0
6.2057704e-22
-1.0455811e-33
-7.0056148e-34
6.2905409e-22
-6.2320878e-22
-6.167059e-22
0
6.1195523e-22
-3.4125986e-34
-6.2126879e-22
6.2810338e-22
3.5140934e-34
-6.3258196e-22
0
6.1877538e-22
3.0681439e-22
-6.1326641e-22
3.0902643e-22
6.9538467e-34
-6.3360052e-22
6.3405112e-22
6.2574277e-22
0
0
0
-6.1930173e-22
-6.2884606e-22
6.3339634e-22
0
-6.1799892e-22
0
-3.0371068e-22
6.1243488e-22
3.1088053e-22
-3.1465761e-22
6.2902463e-22
3.1002224e-22
-6.1032606e-22
-3.0285434e-22
-3.370667e-34
3.0685743e-22
-6.8960351e-34
1.7722374e-37
6.1855072e-22
0
-3.0218252e-22
-6.0368092e-22
-3.0371572e-22
0
0
0
-3.0317532e-22
6.0168725e-22
3.0052174e-22
-3.0191191e-22
-3.0393564e-22
3.0426408e-22
3.0176957e-22
-5.9738651e-22
0
5.9480608e-22
5.9871222e-22
0
0
-5.9462728e-22
-3.2643568e-34
-2.9274143e-22
-2.9358089e-22
2.9608088e-22
-2.9766605e-22
2.9621402e-22
5.8419926e-22
2.8846145e-22
0
-5.7667156e-22
-3.2331506e-34
2.9348325e-22
-2.9209567e-22
-2.877529e-22
-5.6752971e-22
5.6432734e-22
2.8298766e-22
-8.118202e-38
2.876796e-22
-5.738506e-22
2.8333371e-22
-2.7978866e-22
4.5233097e-52
2.7809033e-22
-5.5885e-22
5.6021473e-22
5.5760041e-22
0
-2.7366399e-22
-5.4564409e-22
1.516803e-34
2.739953e-22
2.7320548e-22
-5.4034926e-22
-5.3402616e-22
2.6531604e-22
5.3067671e-22
5.3358765e-22
-2.6754486e-22
-5.3112724e-22
2.6104668e-22
-2.5698079e-22
4.250586e-34
2.5603169e-22
-5.1659537e-22
5.1914994e-22
2.8605045e-34
-1.4045669e-33
4.9737625e-22
-4.9308953e-22
-1.0950086e-33
2.4820022e-22
-4.9757041e-22
2.465137e-22
-6.8780546e-38
1.0571611e-33
2.3661646e-22
-4.7504864e-22
5.322034e-34
-1.3347205e-34
2.3752768e-22
-6.570242e-38
-4.5063648e-22
4.44793e-22
1.2655615e-37
-9.9978024e-34
4.5491913e-22
-4.5491594e-22
-4.9850582e-34
4.4065867e-22
-2.1706685e-22
-2.1506939e-22
-2.1329827e-22
2.1119983e-22
-2.3188962e-34
-4.1380157e-22
0
0
4.1403846e-22
5.8624638e-38
-4.0535053e-22
1.9703372e-22
-2.1346196e-34
1.9020997e-22
4.2313739e-34
-3.8482752e-22
0
-1.9261037e-22
3.7785697e-22
1.8411124e-22
-4.006004e-34
1.7826997e-22
-3.548484e-22
1.7758776e-22
-1.9763111e-34
-3.5627098e-22
0
0
1.6865044e-22
-9.1433091e-35
1.6298381e-22
-1.6345935e-22
-4.9573138e-22
4.995664e-22
1.6520927e-22
-3.2131734e-22
1.5557896e-22
2.5427848e-34
1.5256784e-22
-8.766574e-38
-5.1917748e-34
1.5522044e-22
-3.0306449e-22
-1.4717359e-22
0
-1.4497695e-22
1.4688353e-22
1.4870867e-22
1.4827549e-22
-3.2170763e-34
1.5633724e-34
-1.5399378e-34
-2.7842106e-22
1.4129698e-22
2.3862693e-34
-2.8622841e-22
1.9887873e-38
1.3636174e-22
2.6977611e-22
2.7175785e-22
-2.7674935e-22
-1.5611275e-34
-1.4046186e-22
-1.3777088e-22
2.7026093e-22
-2.693366e-22
-1.3650891e-22
4.1896861e-22
2.8399164e-22
-1.4131733e-22
-2.7500542e-22
-1.3401922e-22