/*--------------------------------*- C++ -*----------------------------------*\
  =========                 |
  \\      /  F ield         | OpenFOAM: The Open Source CFD Toolbox
   \\    /   O peration     | Website:  https://openfoam.org
    \\  /    A nd           | Version:  7
     \\/     M anipulation  |
\*---------------------------------------------------------------------------*/
FoamFile
{
    version     2.0;
    format      ascii;
    class       volScalarField;
    location    "0.00229";
    object      T;
}
// * * * * * * * * * * * * * * * * * * * * * * * * * * * * * * * * * * * * * //

dimensions      [0 0 0 1 0 0 0];

internalField   nonuniform List<scalar> 
5000
(
277.93639
277.9364
277.93633
277.93627
277.93622
277.93618
277.93615
277.93613
277.93612
277.93611
277.9361
277.9361
277.93609
277.93609
277.93609
277.93609
277.93609
277.93609
277.93609
277.93609
277.93609
277.93609
277.9361
277.9361
277.9361
277.9361
277.9361
277.9361
277.9361
277.9361
277.9361
277.9361
277.9361
277.9361
277.9361
277.93611
277.93611
277.93611
277.93611
277.93611
277.93611
277.93611
277.93611
277.93611
277.93611
277.93612
277.93612
277.93612
277.93612
277.93612
277.93612
277.93612
277.93612
277.93612
277.93612
277.93613
277.93613
277.93613
277.93613
277.93613
277.93613
277.93613
277.93613
277.93613
277.93613
277.93614
277.93614
277.93614
277.93614
277.93614
277.93614
277.93614
277.93614
277.93615
277.93615
277.93615
277.93615
277.93615
277.93615
277.93615
277.93615
277.93615
277.93616
277.93616
277.93616
277.93616
277.93616
277.93616
277.93616
277.93616
277.93617
277.93617
277.93617
277.93617
277.93617
277.93617
277.93617
277.93617
277.93617
277.93618
277.93618
277.93618
277.93618
277.93618
277.93618
277.93618
277.93618
277.93619
277.93619
277.93619
277.93619
277.93619
277.93619
277.93619
277.93619
277.9362
277.9362
277.9362
277.9362
277.9362
277.9362
277.9362
277.9362
277.9362
277.93621
277.93621
277.93621
277.93621
277.93621
277.93621
277.93621
277.93621
277.93621
277.93622
277.93622
277.93622
277.93622
277.93622
277.93622
277.93622
277.93622
277.93623
277.93623
277.93623
277.93623
277.93623
277.93623
277.93623
277.93623
277.93623
277.93623
277.93624
277.93624
277.93624
277.93624
277.93624
277.93624
277.93624
277.93624
277.93624
277.93624
277.93625
277.93625
277.93625
277.93625
277.93625
277.93625
277.93625
277.93625
277.93625
277.93625
277.93625
277.93626
277.93626
277.93626
277.93626
277.93626
277.93626
277.93626
277.93626
277.93626
277.93626
277.93626
277.93627
277.93627
277.93627
277.93627
277.93627
277.93627
277.93627
277.93627
277.93627
277.93627
277.93627
277.93627
277.93627
277.93628
277.93628
277.93628
277.93628
277.93628
277.93628
277.93628
277.93628
277.93628
277.93628
277.93628
277.93628
277.93629
277.93629
277.93629
277.93629
277.93629
277.93629
277.93629
277.93629
277.93629
277.93629
277.93629
277.93629
277.93629
277.93629
277.93629
277.9363
277.9363
277.9363
277.9363
277.9363
277.9363
277.9363
277.9363
277.9363
277.9363
277.9363
277.9363
277.9363
277.9363
277.93631
277.93631
277.93631
277.93631
277.93631
277.93631
277.93631
277.93631
277.93631
277.93631
277.93631
277.93631
277.93631
277.93631
277.93631
277.93631
277.93631
277.93632
277.93632
277.93632
277.93632
277.93632
277.93632
277.93632
277.93632
277.93632
277.93632
277.93632
277.93632
277.93632
277.93632
277.93632
277.93632
277.93632
277.93633
277.93633
277.93633
277.93633
277.93633
277.93633
277.93633
277.93633
277.93633
277.93633
277.93633
277.93633
277.93633
277.93633
277.93633
277.93633
277.93633
277.93634
277.93634
277.93634
277.93634
277.93634
277.93634
277.93634
277.93634
277.93634
277.93634
277.93634
277.93634
277.93634
277.93634
277.93634
277.93634
277.93635
277.93635
277.93635
277.93635
277.93635
277.93635
277.93635
277.93635
277.93635
277.93635
277.93635
277.93635
277.93635
277.93635
277.93635
277.93635
277.93635
277.93636
277.93636
277.93636
277.93636
277.93636
277.93636
277.93636
277.93636
277.93636
277.93636
277.93636
277.93636
277.93636
277.93636
277.93636
277.93637
277.93637
277.93637
277.93637
277.93637
277.93637
277.93637
277.93637
277.93637
277.93637
277.93637
277.93637
277.93637
277.93637
277.93637
277.93638
277.93638
277.93638
277.93638
277.93638
277.93638
277.93638
277.93638
277.93638
277.93638
277.93638
277.93638
277.93638
277.93638
277.93638
277.93639
277.93639
277.93639
277.93639
277.93639
277.93639
277.93639
277.93639
277.93639
277.93639
277.93639
277.93639
277.93639
277.93639
277.9364
277.9364
277.9364
277.9364
277.9364
277.9364
277.9364
277.9364
277.9364
277.9364
277.9364
277.9364
277.9364
277.93641
277.93641
277.93641
277.93641
277.93641
277.93641
277.93641
277.93641
277.93641
277.93641
277.93641
277.93641
277.93641
277.93642
277.93642
277.93642
277.93642
277.93642
277.93642
277.93642
277.93642
277.93642
277.93642
277.93642
277.93642
277.93643
277.93643
277.93643
277.93643
277.93643
277.93643
277.93643
277.93643
277.93643
277.93643
277.93643
277.93644
277.93644
277.93644
277.93644
277.93644
277.93644
277.93644
277.93644
277.93644
277.93644
277.93644
277.93645
277.93645
277.93645
277.93645
277.93645
277.93645
277.93645
277.93645
277.93645
277.93645
277.93646
277.93646
277.93646
277.93646
277.93646
277.93646
277.93646
277.93646
277.93646
277.93647
277.93647
277.93647
277.93647
277.93647
277.93647
277.93647
277.93647
277.93647
277.93647
277.93648
277.93648
277.93648
277.93648
277.93648
277.93648
277.93648
277.93648
277.93648
277.93649
277.93649
277.93649
277.93649
277.93649
277.93649
277.93649
277.93649
277.9365
277.9365
277.9365
277.9365
277.9365
277.9365
277.9365
277.9365
277.93651
277.93651
277.93651
277.93651
277.93651
277.93651
277.93651
277.93651
277.93652
277.93652
277.93652
277.93652
277.93652
277.93652
277.93652
277.93652
277.93653
277.93653
277.93653
277.93653
277.93653
277.93653
277.93653
277.93654
277.93654
277.93654
277.93654
277.93654
277.93654
277.93654
277.93655
277.93655
277.93655
277.93655
277.93655
277.93655
277.93656
277.93656
277.93656
277.93656
277.93656
277.93656
277.93656
277.93657
277.93657
277.93657
277.93657
277.93657
277.93657
277.93658
277.93658
277.93658
277.93658
277.93658
277.93659
277.93659
277.93659
277.93659
277.93659
277.93659
277.9366
277.9366
277.9366
277.9366
277.9366
277.93661
277.93661
277.93661
277.93661
277.93661
277.93661
277.93662
277.93662
277.93662
277.93662
277.93663
277.93663
277.93663
277.93663
277.93663
277.93663
277.93664
277.93664
277.93664
277.93664
277.93665
277.93665
277.93665
277.93665
277.93665
277.93666
277.93666
277.93666
277.93667
277.93667
277.93667
277.93667
277.93668
277.93668
277.93668
277.93668
277.93668
277.93669
277.93669
277.93669
277.93669
277.9367
277.9367
277.9367
277.9367
277.93671
277.93671
277.93671
277.93671
277.93672
277.93672
277.93672
277.93673
277.93673
277.93673
277.93673
277.93674
277.93674
277.93674
277.93675
277.93675
277.93675
277.93675
277.93676
277.93676
277.93676
277.93677
277.93677
277.93677
277.93677
277.93678
277.93678
277.93678
277.93679
277.93679
277.93679
277.9368
277.9368
277.9368
277.93681
277.93681
277.93682
277.93682
277.93682
277.93683
277.93683
277.93683
277.93684
277.93684
277.93684
277.93685
277.93685
277.93685
277.93686
277.93686
277.93686
277.93687
277.93687
277.93687
277.93688
277.93688
277.93689
277.93689
277.9369
277.9369
277.9369
277.93691
277.93691
277.93691
277.93692
277.93692
277.93693
277.93693
277.93693
277.93694
277.93694
277.93695
277.93695
277.93696
277.93696
277.93696
277.93697
277.93697
277.93698
277.93698
277.93699
277.93699
277.93699
277.937
277.937
277.93701
277.93701
277.93702
277.93702
277.93703
277.93703
277.93704
277.93704
277.93705
277.93705
277.93706
277.93706
277.93707
277.93707
277.93708
277.93708
277.93709
277.93709
277.9371
277.9371
277.93711
277.93711
277.93712
277.93712
277.93713
277.93714
277.93714
277.93715
277.93715
277.93716
277.93716
277.93717
277.93718
277.93718
277.93719
277.93719
277.9372
277.9372
277.93721
277.93721
277.93722
277.93723
277.93723
277.93724
277.93724
277.93725
277.93726
277.93726
277.93727
277.93728
277.93728
277.93729
277.9373
277.9373
277.93731
277.93732
277.93732
277.93733
277.93734
277.93734
277.93735
277.93736
277.93736
277.93737
277.93738
277.93738
277.93739
277.9374
277.93741
277.93741
277.93742
277.93743
277.93744
277.93744
277.93745
277.93746
277.93747
277.93747
277.93748
277.93749
277.9375
277.93751
277.93751
277.93752
277.93753
277.93754
277.93755
277.93755
277.93756
277.93757
277.93758
277.93759
277.9376
277.93761
277.93761
277.93762
277.93763
277.93764
277.93765
277.93766
277.93767
277.93768
277.93769
277.9377
277.93771
277.93772
277.93773
277.93774
277.93775
277.93776
277.93777
277.93778
277.93779
277.9378
277.93781
277.93782
277.93783
277.93784
277.93785
277.93786
277.93788
277.93789
277.9379
277.93791
277.93793
277.93794
277.93795
277.93796
277.93798
277.93799
277.938
277.93802
277.93803
277.93804
277.93806
277.93807
277.93809
277.9381
277.93812
277.93813
277.93815
277.93817
277.93818
277.9382
277.93822
277.93823
277.93825
277.93827
277.93829
277.93831
277.93833
277.93834
277.93836
277.93839
277.93841
277.93843
277.93845
277.93847
277.9385
277.93852
277.93854
277.93857
277.93859
277.93862
277.93865
277.93867
277.9387
277.93873
277.93876
277.93879
277.93882
277.93885
277.93889
277.93892
277.93896
277.93899
277.93903
277.93907
277.93911
277.93915
277.93919
277.93923
277.93927
277.93932
277.93937
277.93941
277.93946
277.93951
277.93957
277.93962
277.93968
277.93973
277.93979
277.93986
277.93992
277.93998
277.94005
277.94012
277.94019
277.94026
277.94034
277.94041
277.94049
277.94058
277.94066
277.94075
277.94084
277.94093
277.94103
277.94113
277.94123
277.94134
277.94145
277.94156
277.94168
277.9418
277.94192
277.94205
277.94218
277.94232
277.94246
277.9426
277.94275
277.9429
277.94306
277.94323
277.94339
277.94357
277.94375
277.94393
277.94412
277.94432
277.94452
277.94473
277.94494
277.94516
277.94539
277.94562
277.94586
277.94611
277.94636
277.94663
277.9469
277.94718
277.94747
277.94776
277.94807
277.94838
277.9487
277.94903
277.94937
277.94972
277.95008
277.95045
277.95084
277.95123
277.95163
277.95204
277.95247
277.95291
277.95336
277.95382
277.95429
277.95478
277.95528
277.9558
277.95633
277.95687
277.95743
277.958
277.95859
277.95919
277.95981
277.96044
277.96109
277.96176
277.96244
277.96315
277.96387
277.9646
277.96536
277.96614
277.96693
277.96775
277.96859
277.96944
277.97032
277.97122
277.97214
277.97308
277.97405
277.97503
277.97604
277.97708
277.97814
277.97922
277.98033
277.98147
277.98263
277.98381
277.98503
277.98627
277.98754
277.98884
277.99016
277.99152
277.99291
277.99432
277.99577
277.99725
277.99875
278.0003
278.00187
278.00348
278.00512
278.00679
278.0085
278.01024
278.01202
278.01384
278.01569
278.01758
278.01951
278.02147
278.02347
278.02552
278.0276
278.02972
278.03188
278.03408
278.03633
278.03862
278.04095
278.04332
278.04574
278.0482
278.05071
278.05326
278.05585
278.05849
278.06118
278.06392
278.0667
278.06953
278.07241
278.07534
278.07832
278.08135
278.08443
278.08756
278.09074
278.09398
278.09726
278.1006
278.104
278.10744
278.11094
278.1145
278.11811
278.12178
278.1255
278.12928
278.13311
278.13701
278.14096
278.14496
278.14903
278.15316
278.15734
278.16159
278.16589
278.17026
278.17469
278.17917
278.18372
278.18834
278.19301
278.19775
278.20255
278.20741
278.21234
278.21733
278.22239
278.22751
278.23269
278.23794
278.24326
278.24864
278.25408
278.2596
278.26517
278.27082
278.27653
278.28231
278.28816
278.29408
278.30006
278.30611
278.31223
278.31842
278.32468
278.331
278.3374
278.34386
278.35039
278.35699
278.36366
278.3704
278.37721
278.38409
278.39104
278.39806
278.40515
278.41231
278.41954
278.42684
278.43421
278.44165
278.44916
278.45675
278.4644
278.47212
278.47991
278.48778
278.49571
278.50371
278.51179
278.51993
278.52814
278.53643
278.54478
278.55321
278.5617
278.57027
278.5789
278.5876
278.59638
278.60522
278.61413
278.62312
278.63217
278.64129
278.65047
278.65973
278.66906
278.67845
278.68791
278.69744
278.70704
278.7167
278.72644
278.73624
278.7461
278.75604
278.76604
278.77611
278.78624
278.79644
278.80671
278.81704
278.82743
278.8379
278.84842
278.85901
278.86967
278.88039
278.89117
278.90201
278.91292
278.92389
278.93493
278.94602
278.95718
278.9684
278.97968
278.99102
279.00243
279.01389
279.02542
279.037
279.04864
279.06035
279.07211
279.08393
279.0958
279.10774
279.11973
279.13178
279.14389
279.15605
279.16827
279.18055
279.19288
279.20527
279.21771
279.2302
279.24275
279.25535
279.26801
279.28072
279.29348
279.30629
279.31916
279.33207
279.34504
279.35806
279.37112
279.38424
279.39741
279.41062
279.42389
279.4372
279.45056
279.46397
279.47743
279.49093
279.50448
279.51808
279.53172
279.5454
279.55914
279.57291
279.58673
279.60059
279.6145
279.62845
279.64244
279.65648
279.67055
279.68467
279.69883
279.71303
279.72727
279.74154
279.75586
279.77022
279.78462
279.79905
279.81352
279.82803
279.84258
279.85716
279.87178
279.88644
279.90113
279.91585
279.93061
279.94541
279.96024
279.9751
279.98999
280.00492
280.01988
280.03487
280.0499
280.06495
280.08004
280.09516
280.1103
280.12548
280.14069
280.15592
280.17119
280.18648
280.2018
280.21715
280.23252
280.24793
280.26335
280.27881
280.29429
280.30979
280.32532
280.34088
280.35646
280.37206
280.38769
280.40333
280.41901
280.4347
280.45042
280.46616
280.48191
280.49769
280.51349
280.52931
280.54515
280.56101
280.57689
280.59279
280.60871
280.62464
280.6406
280.65657
280.67255
280.68856
280.70458
280.72061
280.73666
280.75273
280.76881
280.78491
280.80102
280.81714
280.83328
280.84943
280.8656
280.88178
280.89797
280.91417
280.93038
280.9466
280.96284
280.97908
280.99534
281.01161
281.02788
281.04417
281.06046
281.07676
281.09307
281.10939
281.12572
281.14205
281.15839
281.17474
281.19109
281.20745
281.22382
281.24019
281.25656
281.27294
281.28933
281.30572
281.32211
281.3385
281.3549
281.3713
281.38771
281.40411
281.42052
281.43693
281.45334
281.46975
281.48616
281.50258
281.51899
281.5354
281.55181
281.56822
281.58463
281.60104
281.61745
281.63385
281.65025
281.66665
281.68305
281.69944
281.71583
281.73221
281.74859
281.76496
281.78133
281.7977
281.81406
281.83041
281.84675
281.86309
281.87943
281.89575
281.91207
281.92838
281.94469
281.96098
281.97727
281.99354
282.00981
282.02607
282.04232
282.05855
282.07478
282.091
282.1072
282.1234
282.13958
282.15575
282.17191
282.18805
282.20418
282.2203
282.23641
282.2525
282.26858
282.28464
282.30069
282.31672
282.33274
282.34874
282.36473
282.3807
282.39665
282.41259
282.42851
282.44441
282.46029
282.47616
282.49201
282.50784
282.52365
282.53944
282.55521
282.57096
282.58669
282.6024
282.61809
282.63375
282.6494
282.66502
282.68063
282.69621
282.71176
282.7273
282.74281
282.7583
282.77376
282.7892
282.80462
282.82001
282.83537
282.85071
282.86603
282.88132
282.89658
282.91181
282.92702
282.9422
282.95736
282.97248
282.98758
283.00265
283.01769
283.0327
283.04768
283.06263
283.07756
283.09245
283.10731
283.12214
283.13694
283.15171
283.16644
283.18115
283.19582
283.21046
283.22506
283.23963
283.25417
283.26868
283.28315
283.29758
283.31199
283.32635
283.34068
283.35498
283.36924
283.38346
283.39764
283.41179
283.4259
283.43998
283.45401
283.46801
283.48197
283.49589
283.50977
283.52362
283.53742
283.55118
283.56491
283.57859
283.59223
283.60583
283.61939
283.63291
283.64638
283.65981
283.6732
283.68655
283.69986
283.71312
283.72634
283.73951
283.75264
283.76572
283.77877
283.79176
283.80471
283.81761
283.83047
283.84329
283.85605
283.86877
283.88144
283.89407
283.90665
283.91918
283.93166
283.94409
283.95648
283.96881
283.9811
283.99334
284.00552
284.01766
284.02975
284.04179
284.05377
284.06571
284.07759
284.08943
284.10121
284.11294
284.12462
284.13624
284.14782
284.15934
284.17081
284.18222
284.19358
284.20489
284.21614
284.22734
284.23849
284.24958
284.26062
284.2716
284.28252
284.2934
284.30421
284.31497
284.32568
284.33632
284.34692
284.35745
284.36793
284.37835
284.38872
284.39903
284.40928
284.41947
284.42961
284.43969
284.44971
284.45967
284.46958
284.47942
284.48921
284.49894
284.50861
284.51823
284.52778
284.53727
284.54671
284.55608
284.5654
284.57466
284.58385
284.59299
284.60207
284.61109
284.62005
284.62894
284.63778
284.64656
284.65528
284.66394
284.67253
284.68107
284.68955
284.69796
284.70632
284.71461
284.72285
284.73102
284.73914
284.74719
284.75518
284.76311
284.77099
284.7788
284.78655
284.79423
284.80186
284.80943
284.81694
284.82439
284.83177
284.8391
284.84637
284.85357
284.86072
284.8678
284.87483
284.88179
284.8887
284.89554
284.90233
284.90905
284.91572
284.92233
284.92887
284.93536
284.94179
284.94816
284.95447
284.96072
284.96691
284.97305
284.97912
284.98514
284.9911
284.997
285.00285
285.00863
285.01436
285.02004
285.02565
285.03121
285.03671
285.04216
285.04754
285.05288
285.05815
285.06337
285.06854
285.07365
285.0787
285.0837
285.08864
285.09354
285.09837
285.10316
285.10788
285.11256
285.11718
285.12175
285.12627
285.13074
285.13515
285.13951
285.14382
285.14808
285.15229
285.15645
285.16055
285.16461
285.16862
285.17257
285.17648
285.18034
285.18415
285.18792
285.19163
285.1953
285.19892
285.20249
285.20602
285.2095
285.21293
285.21632
285.21967
285.22297
285.22622
285.22943
285.2326
285.23572
285.2388
285.24184
285.24483
285.24778
285.25069
285.25356
285.25639
285.25917
285.26192
285.26463
285.26729
285.26992
285.27251
285.27506
285.27757
285.28004
285.28248
285.28488
285.28724
285.28957
285.29186
285.29412
285.29633
285.29852
285.30067
285.30278
285.30487
285.30691
285.30893
285.31091
285.31286
285.31478
285.31666
285.31852
285.32034
285.32214
285.3239
285.32563
285.32734
285.32901
285.33066
285.33227
285.33386
285.33542
285.33696
285.33847
285.33995
285.3414
285.34283
285.34423
285.34561
285.34696
285.34829
285.3496
285.35088
285.35213
285.35336
285.35457
285.35576
285.35692
285.35807
285.35919
285.36029
285.36137
285.36242
285.36346
285.36448
285.36547
285.36645
285.36741
285.36835
285.36927
285.37017
285.37106
285.37192
285.37277
285.3736
285.37442
285.37521
285.376
285.37676
285.37751
285.37824
285.37896
285.37966
285.38035
285.38103
285.38169
285.38233
285.38296
285.38358
285.38419
285.38478
285.38536
285.38592
285.38648
285.38702
285.38755
285.38807
285.38857
285.38907
285.38955
285.39002
285.39049
285.39094
285.39138
285.39181
285.39223
285.39264
285.39304
285.39344
285.39382
285.3942
285.39456
285.39492
285.39527
285.39561
285.39594
285.39626
285.39658
285.39689
285.39719
285.39749
285.39777
285.39805
285.39833
285.39859
285.39885
285.39911
285.39935
285.3996
285.39983
285.40006
285.40028
285.4005
285.40071
285.40092
285.40112
285.40132
285.40151
285.40169
285.40188
285.40205
285.40223
285.40239
285.40256
285.40272
285.40287
285.40302
285.40317
285.40332
285.40346
285.40359
285.40372
285.40385
285.40398
285.4041
285.40422
285.40433
285.40445
285.40456
285.40466
285.40477
285.40487
285.40496
285.40506
285.40515
285.40524
285.40533
285.40542
285.4055
285.40558
285.40566
285.40573
285.40581
285.40588
285.40595
285.40602
285.40608
285.40615
285.40621
285.40627
285.40633
285.40639
285.40644
285.4065
285.40655
285.4066
285.40665
285.4067
285.40675
285.40679
285.40684
285.40688
285.40692
285.40696
285.407
285.40704
285.40708
285.40711
285.40715
285.40718
285.40722
285.40725
285.40728
285.40731
285.40734
285.40737
285.4074
285.40742
285.40745
285.40748
285.4075
285.40752
285.40755
285.40757
285.40759
285.40761
285.40764
285.40766
285.40768
285.4077
285.40771
285.40773
285.40775
285.40777
285.40779
285.4078
285.40782
285.40783
285.40785
285.40786
285.40788
285.40789
285.4079
285.40792
285.40793
285.40794
285.40796
285.40797
285.40798
285.40799
285.408
285.40802
285.40803
285.40804
285.40805
285.40806
285.40807
285.40808
285.40809
285.40809
285.4081
285.40811
285.40812
285.40813
285.40814
285.40815
285.40815
285.40816
285.40817
285.40818
285.40818
285.40819
285.4082
285.40821
285.40821
285.40822
285.40823
285.40823
285.40824
285.40825
285.40825
285.40826
285.40826
285.40827
285.40828
285.40828
285.40829
285.40829
285.4083
285.40831
285.40831
285.40832
285.40832
285.40833
285.40833
285.40834
285.40834
285.40835
285.40835
285.40836
285.40836
285.40837
285.40837
285.40838
285.40838
285.40839
285.40839
285.4084
285.4084
285.40841
285.40841
285.40842
285.40842
285.40843
285.40843
285.40844
285.40844
285.40845
285.40845
285.40846
285.40846
285.40847
285.40847
285.40848
285.40848
285.40848
285.40849
285.40849
285.4085
285.4085
285.40851
285.40851
285.40852
285.40852
285.40853
285.40853
285.40853
285.40854
285.40854
285.40855
285.40855
285.40856
285.40856
285.40856
285.40857
285.40857
285.40858
285.40858
285.40859
285.40859
285.4086
285.4086
285.40861
285.40861
285.40862
285.40862
285.40863
285.40863
285.40863
285.40864
285.40864
285.40865
285.40865
285.40866
285.40866
285.40867
285.40867
285.40868
285.40868
285.40869
285.40869
285.40869
285.4087
285.4087
285.40871
285.40871
285.40872
285.40872
285.40873
285.40873
285.40874
285.40874
285.40875
285.40875
285.40876
285.40876
285.40877
285.40877
285.40878
285.40878
285.40879
285.40879
285.40879
285.4088
285.4088
285.40881
285.40881
285.40882
285.40882
285.40883
285.40883
285.40884
285.40884
285.40885
285.40886
285.40886
285.40887
285.40887
285.40888
285.40888
285.40888
285.40889
285.40889
285.4089
285.40891
285.40891
285.40892
285.40892
285.40893
285.40893
285.40894
285.40894
285.40895
285.40895
285.40896
285.40896
285.40897
285.40897
285.40898
285.40898
285.40899
285.40899
285.409
285.409
285.40901
285.40902
285.40902
285.40903
285.40903
285.40904
285.40904
285.40905
285.40905
285.40906
285.40906
285.40907
285.40907
285.40908
285.40909
285.40909
285.4091
285.4091
285.40911
285.40912
285.40912
285.40913
285.40913
285.40914
285.40914
285.40915
285.40915
285.40916
285.40916
285.40917
285.40918
285.40918
285.40919
285.40919
285.4092
285.4092
285.40921
285.40922
285.40922
285.40923
285.40923
285.40924
285.40925
285.40925
285.40926
285.40926
285.40927
285.40928
285.40928
285.40929
285.40929
285.4093
285.40931
285.40931
285.40932
285.40932
285.40933
285.40934
285.40934
285.40935
285.40935
285.40936
285.40937
285.40937
285.40938
285.40939
285.40939
285.4094
285.4094
285.40941
285.40942
285.40942
285.40943
285.40944
285.40944
285.40945
285.40945
285.40946
285.40947
285.40947
285.40948
285.40949
285.40949
285.4095
285.40951
285.40951
285.40952
285.40953
285.40953
285.40954
285.40955
285.40955
285.40956
285.40957
285.40957
285.40958
285.40959
285.4096
285.4096
285.40961
285.40962
285.40962
285.40963
285.40964
285.40964
285.40965
285.40966
285.40966
285.40967
285.40968
285.40968
285.40969
285.4097
285.4097
285.40971
285.40972
285.40973
285.40973
285.40974
285.40975
285.40976
285.40976
285.40977
285.40978
285.40979
285.4098
285.4098
285.40981
285.40982
285.40983
285.40983
285.40984
285.40985
285.40985
285.40986
285.40987
285.40988
285.40988
285.40989
285.4099
285.40991
285.40991
285.40992
285.40993
285.40994
285.40995
285.40995
285.40996
285.40997
285.40998
285.40999
285.40999
285.41
285.41001
285.41002
285.41003
285.41004
285.41004
285.41005
285.41006
285.41007
285.41008
285.41008
285.41009
285.4101
285.41011
285.41012
285.41012
285.41013
285.41014
285.41015
285.41016
285.41017
285.41018
285.41018
285.41019
285.4102
285.41021
285.41022
285.41023
285.41024
285.41025
285.41025
285.41026
285.41027
285.41028
285.41029
285.4103
285.41031
285.41032
285.41033
285.41034
285.41034
285.41035
285.41036
285.41037
285.41038
285.41039
285.4104
285.41041
285.41042
285.41043
285.41043
285.41044
285.41045
285.41046
285.41047
285.41048
285.41049
285.4105
285.41051
285.41052
285.41053
285.41054
285.41055
285.41056
285.41057
285.41058
285.41059
285.4106
285.41061
285.41062
285.41063
285.41064
285.41065
285.41066
285.41067
285.41068
285.41069
285.4107
285.41071
285.41072
285.41074
285.41075
285.41076
285.41077
285.41078
285.41079
285.4108
285.41081
285.41082
285.41083
285.41084
285.41085
285.41086
285.41087
285.41088
285.41089
285.41091
285.41092
285.41093
285.41094
285.41095
285.41096
285.41097
285.41099
285.411
285.41101
285.41102
285.41103
285.41104
285.41105
285.41107
285.41108
285.41109
285.4111
285.41111
285.41113
285.41114
285.41115
285.41116
285.41117
285.41119
285.4112
285.41121
285.41122
285.41123
285.41125
285.41126
285.41127
285.41128
285.4113
285.41131
285.41132
285.41133
285.41135
285.41136
285.41137
285.41139
285.4114
285.41141
285.41143
285.41144
285.41145
285.41147
285.41148
285.41149
285.41151
285.41152
285.41153
285.41155
285.41156
285.41157
285.41159
285.4116
285.41161
285.41163
285.41164
285.41166
285.41167
285.41168
285.4117
285.41171
285.41173
285.41174
285.41176
285.41177
285.41178
285.4118
285.41181
285.41183
285.41185
285.41186
285.41188
285.41189
285.41191
285.41192
285.41194
285.41196
285.41197
285.41199
285.412
285.41202
285.41203
285.41205
285.41207
285.41208
285.4121
285.41211
285.41213
285.41214
285.41216
285.41218
285.41219
285.41221
285.41223
285.41224
285.41226
285.41228
285.4123
285.41231
285.41233
285.41235
285.41237
285.41239
285.4124
285.41242
285.41244
285.41245
285.41247
285.41249
285.41251
285.41253
285.41254
285.41256
285.41258
285.4126
285.41262
285.41264
285.41266
285.41268
285.41269
285.41271
285.41273
285.41275
285.41277
285.41279
285.41281
285.41283
285.41285
285.41287
285.4129
285.41292
285.41294
285.41296
285.41298
285.413
285.41302
285.41304
285.41306
285.41309
285.41311
285.41313
285.41315
285.41317
285.41319
285.41321
285.41324
285.41326
285.41328
285.4133
285.41333
285.41335
285.41337
285.4134
285.41342
285.41344
285.41347
285.41349
285.41351
285.41354
285.41356
285.41358
285.41361
285.41363
285.41366
285.41368
285.41371
285.41374
285.41376
285.41379
285.41382
285.41384
285.41387
285.4139
285.41392
285.41395
285.41398
285.414
285.41403
285.41406
285.41409
285.41411
285.41414
285.41417
285.4142
285.41423
285.41425
285.41428
285.41431
285.41434
285.41437
285.41441
285.41444
285.41447
285.4145
285.41453
285.41456
285.4146
285.41463
285.41466
285.41469
285.41472
285.41475
285.41478
285.41482
285.41485
285.41488
285.41491
285.41494
285.41498
285.41501
285.41504
285.41508
285.41511
285.41515
285.41518
285.41522
285.41526
285.41529
285.41533
285.41537
285.41541
285.41545
285.41549
285.41553
285.41557
285.41561
285.41565
285.41569
285.41573
285.41577
285.41582
285.41586
285.4159
285.41594
285.41599
285.41603
285.41607
285.41612
285.41616
285.41621
285.41625
285.4163
285.41634
285.41639
285.41644
285.41648
285.41653
285.41658
285.41663
285.41668
285.41673
285.41678
285.41683
285.41688
285.41694
285.41699
285.41704
285.41709
285.41715
285.4172
285.41726
285.41731
285.41737
285.41742
285.41748
285.41754
285.4176
285.41766
285.41772
285.41778
285.41785
285.41791
285.41797
285.41804
285.4181
285.41817
285.41824
285.4183
285.41837
285.41844
285.41851
285.41858
285.41865
285.41873
285.4188
285.41888
285.41895
285.41903
285.41911
285.41919
285.41927
285.41935
285.41944
285.41952
285.4196
285.41969
285.41977
285.41986
285.41995
285.42004
285.42013
285.42023
285.42032
285.42042
285.42052
285.42062
285.42072
285.42082
285.42093
285.42103
285.42114
285.42125
285.42135
285.42146
285.42157
285.42168
285.4218
285.42191
285.42202
285.42214
285.42225
285.42237
285.42249
285.4226
285.42272
285.42283
285.42295
285.42306
285.42317
285.42328
285.42339
285.42349
285.42359
285.42368
285.42377
285.42385
285.42393
285.424
285.42406
285.42412
285.42417
285.42421
285.42424
285.42427
285.42428
285.4243
285.4243
285.4243
285.4243
285.4243
285.42429
285.42427
285.42425
285.42423
285.42422
285.42421
285.4242
285.4242
285.4242
285.4242
285.4242
285.42422
285.42427
285.42436
285.42447
285.4246
285.42474
285.42491
285.42509
285.42529
285.42551
285.42574
285.42598
285.42622
285.42648
285.42674
285.427
285.42726
285.42752
285.42777
285.42801
285.42824
285.42846
285.42867
285.42885
285.42902
285.42915
285.42926
285.42934
285.4294
285.42944
285.42947
285.42952
285.42962
285.42985
285.43036
285.43156
285.43448
285.44163
285.45922
285.50279
285.60945
285.8633
286.25584
286.74952
287.34114
288.0224
288.78097
289.60149
290.46653
291.35768
292.25653
293.1456
294.00915
294.83368
295.60836
296.32514
296.97873
297.56647
298.08798
298.54482
298.9401
299.27807
299.56371
299.80245
299.99981
300.16123
300.29189
300.39657
300.47956
300.5447
300.5953
300.63419
300.66376
300.68599
300.70248
300.71457
300.72328
300.72945
300.73372
300.73658
300.73843
300.73954
300.74014
300.7404
300.74045
300.74041
300.74024
300.73978
300.73928
300.7388
300.73834
300.73791
300.73749
300.73709
300.7367
300.73633
300.73596
300.73559
300.73522
300.73485
300.73447
300.73408
300.73368
300.73326
300.73284
300.7324
300.73194
300.73148
300.73101
300.73052
300.73004
300.72955
300.72905
300.72856
300.72808
300.7276
300.72713
300.72667
300.72623
300.7258
300.72538
300.72498
300.7246
300.72423
300.72388
300.72355
300.72323
300.72293
300.72264
300.72237
300.7221
300.72186
300.72162
300.72139
300.72117
300.72097
300.72077
300.72058
300.72039
300.72021
300.72004
300.71987
300.71971
300.71955
300.7194
300.71925
300.71911
300.71897
300.71883
300.71869
300.71856
300.71843
300.71831
300.71818
300.71806
300.71794
300.71783
300.71771
300.7176
300.71749
300.71738
300.71727
300.71716
300.71706
300.71695
300.71685
300.71675
300.71665
300.71656
300.71646
300.71637
300.71628
300.71619
300.7161
300.71601
300.71592
300.71583
300.71575
300.71567
300.71558
300.7155
300.71542
300.71534
300.71526
300.71519
300.71511
300.71504
300.71496
300.71489
300.71482
300.71474
300.71467
300.7146
300.71454
300.71447
300.7144
300.71433
300.71427
300.7142
300.71414
300.71408
300.71401
300.71395
300.71389
300.71383
300.71377
300.71371
300.71365
300.71359
300.71354
300.71348
300.71342
300.71337
300.71331
300.71326
300.7132
300.71315
300.7131
300.71305
300.71299
300.71294
300.71289
300.71284
300.71279
300.71274
300.71269
300.71264
300.7126
300.71255
300.7125
300.71245
300.71241
300.71236
300.71232
300.71227
300.71223
300.71218
300.71214
300.7121
300.71206
300.71201
300.71197
300.71193
300.71189
300.71185
300.71181
300.71177
300.71173
300.71169
300.71165
300.71161
300.71157
300.71153
300.71149
300.71145
300.71142
300.71138
300.71134
300.71131