/*--------------------------------*- C++ -*----------------------------------*\
  =========                 |
  \\      /  F ield         | OpenFOAM: The Open Source CFD Toolbox
   \\    /   O peration     | Website:  https://openfoam.org
    \\  /    A nd           | Version:  7
     \\/     M anipulation  |
\*---------------------------------------------------------------------------*/
FoamFile
{
    version     2.0;
    format      ascii;
    class       volScalarField;
    location    "0.00229";
    object      Uy;
}
// * * * * * * * * * * * * * * * * * * * * * * * * * * * * * * * * * * * * * //

dimensions      [0 1 -1 0 0 0 0];

internalField   nonuniform List<scalar> 
5000
(
8.0275205e-21
1.4016632e-20
0
0
-5.7435044e-21
4.472223e-36
3.8824165e-21
0
0
-4.0180153e-21
-8.0422524e-21
4.0113104e-21
4.0090504e-21
-4.0093319e-21
0
-4.0119528e-21
-1.3694312e-51
4.0084914e-21
0
4.0050593e-21
-4.0033425e-21
-4.0016121e-21
7.999724e-21
-3.9981078e-21
-3.9963598e-21
-3.2924757e-35
3.9928533e-21
3.9910925e-21
-7.9786641e-21
6.913355e-35
-6.9669541e-35
3.9840633e-21
7.9646163e-21
-7.9611249e-21
6.8981962e-35
-3.4589154e-34
-1.3784566e-34
7.9474859e-21
-7.9441691e-21
-7.9409042e-21
7.9377073e-21
-2.728726e-34
-7.9315466e-21
3.9642878e-21
1.1888508e-20
-3.9614156e-21
-3.9600172e-21
-2.7115217e-34
-7.914569e-21
0
3.9545966e-21
5.6178751e-37
-3.9518336e-21
7.9008268e-21
-1.3805101e-34
-7.8950502e-21
3.9460849e-21
-1.3621923e-34
-3.943347e-21
0
3.9409544e-21
1.3419016e-34
1.1131279e-36
3.9039141e-21
-3.909641e-21
1.3677815e-34
3.9120834e-21
-3.9179312e-21
-3.9163917e-21
3.9120321e-21
3.9077567e-21
-3.9041008e-21
-3.9103891e-21
7.8255769e-21
3.9097846e-21
-3.9075104e-21
0
3.9150941e-21
-5.5536709e-37
-3.8935758e-21
3.8937727e-21
-1.1098059e-36
1.1094461e-36
3.8930245e-21
3.8971459e-21
1.3607927e-34
-3.9032422e-21
0
-3.9014648e-21
-4.0470785e-34
-1.359506e-34
3.8894552e-21
3.902004e-21
-7.8033674e-21
-2.694545e-34
3.8971932e-21
0
0
-3.8903591e-21
-2.7071822e-34
7.8074124e-21
-3.8969899e-21
-7.809827e-21
0
3.8988121e-21
3.9069229e-21
-3.9075391e-21
-3.9010549e-21
0
0
3.8973448e-21
3.8988296e-21
0
-3.9150882e-21
1.3643191e-34
3.9041403e-21
-3.9190714e-21
1.1140442e-36
-1.3656285e-34
6.6423428e-52
7.8438312e-21
-1.674505e-36
-3.9266987e-21
0
-3.9176881e-21
3.9176078e-21
3.9216814e-21
-7.8712087e-21
-3.9539395e-21
7.9120135e-21
3.9438416e-21
-3.9426028e-21
-3.954875e-21
-3.9618443e-21
0
3.9738462e-21
3.9814544e-21
-3.9872299e-21
-1.3839846e-34
3.9945949e-21
-3.997322e-21
-3.9997626e-21
0
4.0046193e-21
4.007394e-21
-4.010232e-21
4.013126e-21
-2.2831243e-36
-4.0197076e-21
4.0231724e-21
-4.0268593e-21
2.8064665e-34
4.03417e-21
-4.0380376e-21
4.0418571e-21
4.0459452e-21
-4.0500231e-21
0
0
-4.062627e-21
-4.0669045e-21
4.0708616e-21
4.0742118e-21
-4.0778032e-21
-2.8306678e-34
4.0856003e-21
-4.0899977e-21
-4.0945611e-21
0
4.1022273e-21
4.1066168e-21
0
-4.1155563e-21
-4.1200902e-21
0
4.1293825e-21
8.6009824e-34
-4.1389471e-21
4.1440113e-21
4.1491004e-21
-4.1542453e-21
-2.8727939e-34
2.864596e-34
1.7777615e-36
4.1746298e-21
-4.1786162e-21
-5.8016242e-34
2.8805022e-34
-2.8839625e-34
4.1985415e-21
0
0
-4.2140383e-21
-4.2194967e-21
0
0
4.2354303e-21
-2.5519452e-52
-4.2464147e-21
0
4.2579417e-21
-4.2638536e-21
-1.1832186e-33
8.5516688e-21
-4.2818909e-21
-8.9023882e-34
-6.1010384e-37
-4.2977659e-21
4.3024037e-21
-6.1220886e-37
-5.9711112e-34
2.9899066e-34
-4.3272123e-21
0
4.3386447e-21
3.0065112e-34
1.2073447e-33
4.3559299e-21
0
-4.3682816e-21
-4.3743824e-21
0
0
0
4.4001695e-21
3.0497631e-34
-4.4132423e-21
0
0
4.4303118e-21
4.43567e-21
-4.442093e-21
-4.448797e-21
0
4.463777e-21
4.4702346e-21
-4.4759458e-21
-4.4823363e-21
0
4.4953563e-21
-1.2501523e-33
-3.1269807e-34
4.5158445e-21
-4.5228278e-21
-4.5299061e-21
0
4.5440141e-21
-6.3250458e-34
4.5578346e-21
6.330492e-34
-9.1397721e-21
4.5758578e-21
-6.3560776e-34
-1.5934684e-33
-3.1818566e-34
-4.6055758e-21
4.612731e-21
4.6190786e-21
0
-4.6331723e-21
-4.6400189e-21
0
4.6545799e-21
4.661929e-21
-9.3387055e-21
-4.6768703e-21
4.6843295e-21
4.6917521e-21
1.3035225e-33
-4.7062572e-21
4.712853e-21
-3.2728672e-34
-4.7265251e-21
4.7340503e-21
-3.295252e-34
3.30776e-34
-1.3523695e-36
-3.2912141e-34
4.7724745e-21
0
0
-4.795571e-21
-4.803398e-21
0
0
0
0
4.8433568e-21
3.3436409e-34
-9.7181793e-21
2.0747423e-36
4.8739723e-21
4.8817097e-21
-6.7890118e-34
-6.7868001e-34
-6.973212e-37
-4.9155934e-21
-4.9237105e-21
-4.9315093e-21
9.8795581e-21
1.4845172e-20
-4.9567458e-21
-9.9303098e-21
0
4.982529e-21
4.9912872e-21
-5.0000366e-21
1.4235714e-36
-2.1390539e-36
1.4284654e-36
5.0344467e-21
5.0430374e-21
-5.0518457e-21
-1.0121842e-20
5.0702391e-21
-4.5240588e-52
5.0888899e-21
1.4126664e-33
-1.0213692e-20
0
0
1.027036e-20
-2.8571581e-33
-1.0308681e-20
0
5.1738768e-21
5.1836584e-21
-5.1934184e-21
7.3941459e-37
-7.2376333e-34
7.4220165e-37
5.2328138e-21
-5.2430691e-21
-5.253514e-21
0
5.2744436e-21
-7.3373901e-34
-5.2952262e-21
1.0611847e-20
-1.4748521e-33
-5.3276436e-21
-1.4824037e-33
-1.0699064e-20
1.0721335e-20
5.3718692e-21
-5.383093e-21
-7.6658346e-37
-5.405669e-21
0
0
5.440324e-21
-7.562124e-34
-1.0928513e-20
7.7823112e-37
1.6465042e-20
-5.5004339e-21
-5.5127086e-21
1.1050382e-20
-5.5377766e-21
5.550397e-21
1.1126193e-20
-5.5759364e-21
-5.5888975e-21
-5.6019253e-21
5.6150129e-21
-1.276183e-51
-5.6415276e-21
5.6550154e-21
-5.6686619e-21
5.6824546e-21
1.578528e-33
1.6229749e-36
5.7243697e-21
-1.1477054e-20
5.7528731e-21
1.6014904e-33
-1.6039087e-33
-5.7967299e-21
-1.162311e-20
1.7479572e-20
1.6204436e-33
-3.2493305e-33
1.627251e-33
-1.1775331e-20
1.1806623e-20
-1.641942e-33
-1.1870214e-20
0
0
5.9837739e-21
-8.3222296e-34
-6.0169276e-21
-6.033785e-21
6.0507838e-21
1.8203721e-20
-6.0851784e-21
-6.1026205e-21
-1.7394729e-36
-6.1379833e-21
0
1.2347983e-20
1.2384542e-20
-6.2107331e-21
-1.2458738e-20
-6.2481682e-21
1.2534232e-20
1.2572433e-20
-1.2610984e-20
-1.2649896e-20
0
1.2728535e-20
-6.3840668e-21
-1.2807945e-20
6.4240207e-21
6.4442541e-21
-9.1869731e-37
9.0047149e-34
6.5071988e-21
-6.529559e-21
-6.5529752e-21
6.5776171e-21
-9.1590467e-34
-9.4230932e-37
-9.2365427e-34
-6.6890135e-21
6.719198e-21
-2.8113568e-33
-9.4133761e-34
-1.8901018e-33
-6.8404258e-21
6.8708102e-21
-9.5822354e-34
-1.9221949e-33
-9.8973611e-37
-1.3992517e-20
-7.0276044e-21
7.058648e-21
1.4179023e-20
-9.8867143e-34
-1.4306422e-20
-7.1854615e-21
1.4433902e-20
7.247634e-21
-7.2786923e-21
-7.3114612e-21
-2.0385117e-33
7.3775554e-21
0
0
7.4763845e-21
0
-7.5481939e-21
7.5826574e-21
1.0824841e-36
-2.1241185e-33
0
-7.7271172e-21
7.7632182e-21
7.7993646e-21
-1.5672587e-20
-7.8737623e-21
7.9111843e-21
0
0
-8.023841e-21
2.2397927e-33
8.1004393e-21
0
0
-8.2195135e-21
3.4418327e-33
8.3019784e-21
0
0
0
0
0
0
0
0
1.742702e-20
4.8646574e-33
-8.815165e-21
8.8671264e-21
-8.919846e-21
8.9733106e-21
-2.509312e-33
-9.0823214e-21
-2.5374237e-33
-9.1942062e-21
0
0
9.3670328e-21
2.6174062e-33
-9.4853097e-21
0
0
0
0
0
0
0
1.9974738e-20
-8.3690572e-33
-2.023981e-20
1.01888e-20
1.4580101e-36
1.0331501e-20
-5.768584e-33
-2.095088e-20
-1.0549799e-20
3.7248033e-51
3.2109747e-20
0
-2.171727e-20
0
0
2.2203075e-20
-3.1024255e-33
-3.3802853e-20
1.1352761e-20
1.1439428e-20
-1.1527026e-20
1.1615414e-20
-1.1705115e-20
-3.2722483e-33
1.1888604e-20
-1.1981859e-20
0
-1.2172054e-20
1.2269083e-20
2.4733981e-20
-1.2465712e-20
-1.2565554e-20
-1.26667e-20
-1.276907e-20
2.5744948e-20
1.2976912e-20
-1.3082776e-20
0
1.3299791e-20
-1.3410727e-20
-1.3523058e-20
4.0910266e-20
3.9085605e-36
-2.7738273e-20
1.3988031e-20
1.9588102e-33
1.4230242e-20
-4.0796391e-36
-2.8958806e-20
1.4605929e-20
0
-4.1267125e-33
-2.1301915e-36
-1.5118319e-20
1.524657e-20
-4.2692257e-33
-2.1501662e-33
-2.2213051e-36
-1.5761724e-20
1.5895016e-20
-6.5226086e-51
-4.4889805e-33
-2.3169101e-36
-3.2887873e-20
-2.3005289e-33
1.673167e-20
0
0
-1.7176496e-20
-7.2099454e-33
1.7480308e-20
-1.7633662e-20
2.4695761e-33
-2.9418922e-50
-2.5119405e-33
1.824321e-20
1.8393658e-20
2.5720618e-33
-1.8696765e-20
0
0
1.9170442e-20
-1.9329426e-20
1.6224837e-32
1.9652642e-20
-1.9816196e-20
0
2.0146752e-20
2.0314573e-20
-2.0482162e-20
-2.0649903e-20
0
2.0993207e-20
2.116804e-20
-4.2685052e-20
-2.1517173e-20
2.1692684e-20
2.1868674e-20
3.0577572e-33
2.2226603e-20
6.2225814e-33
-4.5184191e-20
0
0
0
2.3334753e-20
2.3521094e-20
0
-2.3896862e-20
-3.3374925e-33
2.4279246e-20
0
0
-2.486186e-20
-3.4756527e-33
3.499485e-33
-2.5454435e-20
2.5652591e-20
-1.0757284e-32
-2.6055495e-20
0
-2.6461136e-20
-3.7022112e-33
2.6871473e-20
-2.7079683e-20
2.7288891e-20
2.7498371e-20
-2.7709141e-20
0
2.8135972e-20
2.8350141e-20
-2.8564014e-20
-2.8778886e-20
0
-2.9215635e-20
2.9434917e-20
2.9654657e-20
-2.9875491e-20
-6.0195204e-20
1.6839343e-32
9.1640535e-20
-1.0876913e-50
-3.0999845e-20
-6.2454759e-20
1.7451178e-32
6.3370795e-20
-3.1918817e-20
3.2154283e-20
-3.2390536e-20
-3.2627649e-20
6.5729473e-20
0
0
-6.7156101e-20
9.2434325e-50
6.8118704e-20
0
0
-6.9588042e-20
9.5437978e-50
7.0580294e-20
0
0
-7.2085349e-20
-3.6296106e-20
7.3101233e-20
3.6806238e-20
0
-7.4643927e-20
2.08718e-32
7.5688773e-20
-3.8107449e-20
0
3.8636164e-20
-3.8902017e-20
5.5663756e-36
3.9439937e-20
-3.9711583e-20
3.9984519e-20
4.025857e-20
-4.0533551e-20
-4.080977e-20
1.1409244e-32
4.1367508e-20
-4.1648948e-20
-1.1643686e-32
4.2216688e-20
-4.2502913e-20
4.2790726e-20
4.3080253e-20
-4.337157e-20
-4.3664647e-20
1.2206659e-32
4.4255884e-20
-4.4553941e-20
6.3740736e-36
4.5154869e-20
-4.5458197e-20
4.5763731e-20
4.6071296e-20
-4.6380657e-20
-9.3383303e-20
2.6117749e-32
9.4638805e-20
-4.7636721e-20
6.8149794e-36
9.6554738e-20
1.3813069e-35
-4.8925686e-20
0
4.9583772e-20
0
-5.0250498e-20
0
0
0
-5.1611504e-20
1.6729377e-50
5.2307044e-20
0
5.3012612e-20
-1.4819702e-32
-5.3729612e-20
0
0
0
-5.5197459e-20
1.5431173e-32
5.5948842e-20
0
5.6711992e-20
1.5847048e-32
-5.7488901e-20
0
5.8279872e-20
-5.8680574e-20
3.2830122e-32
5.9492482e-20
-5.9903874e-20
0
-6.0738948e-20
-1.6983739e-32
6.1591128e-20
0
6.2459649e-20
-6.29006e-20
-3.5180123e-32
6.3797372e-20
-3.5674453e-32
-9.1963271e-36
1.8108076e-32
-9.3293257e-36
-6.6125817e-20
0
6.7096859e-20
-1.8759104e-32
-1.8897931e-32
-2.4565984e-50
-1.919087e-32
0
-1.4031935e-19
-1.9630425e-32
7.1236419e-20
-7.1786288e-20
2.0078355e-32
7.2911454e-20
7.3487178e-20
2.0568264e-32
-2.0733137e-32
7.5268809e-20
-7.588199e-20
-7.6505523e-20
0
-7.7785806e-20
2.1782242e-32
7.911375e-20
0
0
0
-1.6384581e-19
9.1813062e-32
1.6682843e-19
0
0
0
0
0
0
0
-1.8014134e-19
5.0559621e-32
1.8387549e-19
9.2906855e-20
-9.3901126e-20
-9.4921331e-20
2.6662109e-32
5.3838634e-32
9.8146962e-20
-9.9281833e-20
1.0044887e-19
1.0164909e-19
-1.0288354e-19
-1.0415366e-19
5.8539075e-32
1.0680863e-19
1.0819707e-19
-3.0410355e-32
-1.1110274e-19
-1.126231e-19
1.1419135e-19
1.1580987e-19
-1.1748075e-19
1.1920573e-19
0
-1.2282579e-19
-1.2472614e-19
3.514351e-32
1.2872263e-19
-1.3082384e-19
1.3299644e-19
1.3524275e-19
-1.3756589e-19
1.3996962e-19
3.9557712e-32
-1.4503414e-19
-1.4770167e-19
-2.1382169e-35
3.0664703e-19
8.6772321e-32
-1.5935246e-19
-1.6252979e-19
0
1.6923242e-19
0
0
0
1.8415729e-19
1.8823397e-19
-1.9245966e-19
-1.9683961e-19
0
2.0608414e-19
-5.8609684e-32
-2.1601686e-19
0
0
2.323214e-19
-1.3219549e-31
-2.4420662e-19
0
0
2.637117e-19
-1.5025448e-31
-2.7792471e-19
0
2.9318708e-19
-8.3647046e-32
8.5918441e-32
-8.8360959e-32
-3.271586e-19
0
-3.4602613e-19
1.9753928e-31
3.6626592e-19
0
3.8796581e-19
-3.9939282e-19
-4.1122191e-19
8.469331e-19
1.2123136e-31
-8.9851081e-19
1.2851761e-31
4.7686632e-19
0
0
5.2195484e-19
-1.4932263e-31
-5.5464385e-19
0
5.8958517e-19
-6.0794296e-19
-6.2691651e-19
6.4652441e-19
0
-6.8771678e-19
7.0933818e-19
4.0613182e-31
-4.189322e-31
7.785413e-19
-6.6880799e-31
8.2850482e-19
-8.5469964e-19
2.4471427e-31
-5.0517022e-31
-1.8768088e-18
2.6854443e-31
9.9871013e-19
0
0
0
-2.2620359e-18
-1.1666823e-18
2.4068703e-18
1.2413046e-18
0
0
1.3618974e-18
-2.0822499e-48
-1.4484021e-18
0
-3.080156e-18
-1.5879345e-18
3.2743581e-18
1.6878435e-18
0
-3.5871279e-18
-5.2542875e-34
5.716104e-18
-5.4470539e-31
-4.0470729e-18
2.0850957e-18
1.2211971e-33
-2.2133442e-18
6.3346467e-31
1.3030297e-30
2.4191061e-18
0
2.5656546e-18
-1.4668069e-30
-5.4401299e-18
2.8003189e-18
-4.7994669e-30
-2.9671299e-18
6.1075387e-18
-4.4659313e-34
-3.2337231e-18
0
0
0
-3.621531e-18
3.7245487e-18
7.6601593e-18
-3.9381684e-18
-1.1242879e-30
-1.1545773e-30
-4.2782342e-18
0
4.518562e-18
-6.5980237e-34
-9.540412e-18
4.9003871e-18
2.7925644e-30
-5.1696991e-18
-5.3089218e-18
3.0289568e-30
1.1193461e-17
0
5.8973345e-18
6.0525512e-18
0
-6.3730445e-18
-6.5384128e-18
6.7072569e-18
0
-7.0555568e-18
0
0
7.6052178e-18
-6.4920615e-30
-7.9903226e-18
0
0
8.5968627e-18
8.8069181e-18
-9.0209826e-18
-9.2390982e-18
9.4613068e-18
9.6876492e-18
-1.9836332e-17
-1.0152896e-17
2.8870952e-30
1.0635157e-17
-6.0376679e-30
-6.1774613e-30
1.1391117e-17
-1.1651937e-17
1.1917232e-17
-1.2187037e-17
-1.0625216e-32
1.2740308e-17
-2.6047679e-17
-1.331201e-17
-1.360485e-17
2.7804775e-17
2.8409303e-17
-1.4511667e-17
1.4823462e-17
-1.514006e-17
8.5866937e-30
3.1575525e-17
-1.6118912e-17
4.5668749e-30
-4.6662762e-30
-1.7141791e-17
0
0
1.8209181e-17
1.857494e-17
0
-1.9321475e-17
-1.9702269e-17
0
-2.047895e-17
5.7965301e-30
2.1275792e-17
-2.1681782e-17
6.1284571e-30
2.2508902e-17
0
2.3356196e-17
1.3207195e-29
-2.4223634e-17
2.4664889e-17
-6.9621625e-30
-2.5562421e-17
-2.6018675e-17
-7.3491792e-30
2.6946091e-17
0
-2.7893275e-17
2.8374231e-17
-8.2025246e-33
1.6300246e-29
2.9846291e-17
-3.0346628e-17
0
-6.272323e-17
7.0774861e-29
3.2395481e-17
1.8272776e-29
6.689593e-17
-6.7962202e-17
-6.9037565e-17
7.012194e-17
7.1215247e-17
3.61587e-17
0
-3.727395e-17
-7.5676064e-17
5.4578713e-33
-3.8978869e-17
3.9555527e-17
4.0136276e-17
-4.0721065e-17
8.2619676e-17
-8.3805081e-17
-7.0782793e-29
8.6199009e-17
-8.7407304e-17
2.4596249e-29
-4.4922983e-17
4.5538041e-17
4.6156611e-17
-4.6778628e-17
-1.3149683e-29
-9.6065497e-17
9.7329441e-17
9.8599753e-17
-9.9876293e-17
-1.4037722e-29
-5.1223752e-17
2.8807061e-29
5.252098e-17
1.4757742e-29
-1.2701265e-46
5.448735e-17
1.1029597e-16
-5.5811087e-17
2.9016764e-46
-5.714439e-17
-9.6307086e-29
5.8486653e-17
-1.183219e-16
3.3214223e-29
1.2103097e-16
-3.2954773e-47
-6.1877434e-17
0
0
-6.3932876e-17
6.4621046e-17
1.3062119e-16
0
0
0
-6.8080992e-17
-6.8776249e-17
0
7.0169394e-17
-7.0867123e-17
-1.1919324e-28
1.4452899e-16
0
0
0
-7.5064744e-17
-7.5765496e-17
7.6466368e-17
-7.7167283e-17
-4.3244881e-29
1.5713789e-16
0
0
-1.6133979e-16
2.3126602e-32
8.206862e-17
-8.276719e-17
8.3465138e-17
-8.4162394e-17
4.7127248e-29
1.7110908e-16
0
0
-8.7635788e-17
-8.8327404e-17
0
0
9.0394935e-17
9.1081452e-17
0
-9.2450105e-17
-9.3132116e-17
9.3812503e-17
-9.4491207e-17
-9.5168167e-17
9.5843323e-17
9.6516617e-17
-5.3974341e-29
-9.7857384e-17
9.8524746e-17
2.7529e-29
-9.9853161e-17
0
-1.011728e-16
5.6537417e-29
1.0248326e-16
-1.0313491e-16
5.7622822e-29
1.0443084e-16
0
-1.0571661e-16
2.9532826e-29
1.5204457e-32
-1.0762542e-16
1.0825623e-16
1.0888423e-16
0
-2.2026336e-16
1.2301343e-28
1.1136743e-16
1.5913433e-32
2.2518241e-16
-2.2639702e-16
-2.2760543e-16
2.2880756e-16
1.1500168e-16
0
-2.3237567e-16
1.9442554e-28
2.3472193e-16
0
-2.3704163e-16
-6.6141006e-29
1.1966716e-16
3.3386926e-29
2.4159963e-16
-2.427219e-16
-3.0451603e-28
2.4494541e-16
-2.4604656e-16
6.8573341e-29
2.4822745e-16
1.2465356e-16
-2.5037957e-16
-1.2572237e-16
2.525026e-16
-2.5355312e-16
-3.1795253e-28
2.5563202e-16
-2.5666036e-16
3.5776475e-29
-1.2934731e-16
1.440797e-28
3.9104826e-16
-7.2628818e-29
-2.6267287e-16
1.3182425e-16
2.6461652e-16
-1.3278845e-16
7.3991039e-29
-1.3373736e-16
-1.4906541e-28
1.3467092e-16
-2.7026383e-16
1.1291261e-28
-1.5104701e-28
7.5724505e-29
1.3693731e-16
0
1.3781677e-16
1.3825068e-16
0
0
0
0
0
-1.4077254e-16
-1.4117923e-16
0
1.4198097e-16
-1.4237601e-16
-2.3782103e-28
2.8630887e-16
0
0
0
-1.4466471e-16
-1.450326e-16
1.4539662e-16
1.4575678e-16
-2.9222615e-16
-2.4402336e-28
2.9362822e-16
0
-2.9499957e-16
-2.4626612e-28
1.4817012e-16
-1.4849954e-16
1.4882514e-16
-1.4914693e-16
-8.2964393e-29
2.9955826e-16
0
0
-1.50699e-16
-1.5099807e-16
0
-1.5158492e-16
-4.3164823e-32
-1.5215678e-16
1.5243711e-16
4.5814115e-16
0
3.0651155e-16
3.0704249e-16
0
-4.6212334e-16
-3.0859107e-16
3.0909257e-16
-1.5479338e-16
-1.5503682e-16
4.6582984e-16
1.5551277e-16
2.2132738e-32
1.5597421e-16
-1.5619953e-16
-1.5642124e-16
-1.5663937e-16
1.1296166e-47
-1.5706488e-16
-1.5727228e-16
1.5747612e-16
0
3.1574635e-16
3.1613282e-16
0
-1.5844233e-16
-3.1725008e-16
-8.8125854e-29
-1.5897996e-16
-3.1830439e-16
3.1864193e-16
3.1897257e-16
1.5964816e-16
1.5980658e-16
0
-1.6011315e-16
-4.8078387e-16
1.6040602e-16
-8.4487057e-46
-4.8205592e-16
3.2163975e-16
1.6095107e-16
1.6107889e-16
3.2240671e-16
-3.2264892e-16
-1.6144222e-16
1.6155664e-16
1.6166775e-16
1.6177553e-16
-4.8563999e-16
-1.6198116e-16
4.8623705e-16
1.6217358e-16
-1.6226486e-16
-3.2470575e-16
1.6243761e-16
-1.6251909e-16
2.7071538e-28
-2.7093266e-28
-4.88232e-16
1.6281249e-16
1.6287775e-16
3.2587958e-16
1.6299861e-16
-3.2610844e-16
-4.6357688e-32
-1.6315581e-16
1.6320182e-16
4.8973393e-16
-4.8985287e-16
-1.6332075e-16
4.9006213e-16
0
-4.9023337e-16
-1.6343494e-16
4.9036681e-16
-1.6347313e-16
-3.2697499e-16
-9.0754216e-29
1.8149419e-28
1.6351175e-16
0
3.2702385e-16
3.2701458e-16
-1.6349954e-16
-1.6348869e-16
-3.2694945e-16
1.6345766e-16
1.634375e-16
-3.268285e-16
0
3.2671697e-16
3.2665195e-16
-1.6329039e-16
-3.2650344e-16
9.0593941e-29
1.6316517e-16
-3.2623458e-16
1.6306634e-16
-5.429054e-28
-3.2591054e-16
1.6289514e-16
0
3.2553144e-16
0
-3.6112114e-28
-1.6254871e-16
-3.2494056e-16
4.871664e-16
-4.6129651e-32
-3.2443343e-16
0
3.2406496e-16
1.619358e-16
-3.2367218e-16
1.7957157e-28
1.6162756e-16
-3.230375e-16
1.614069e-16
-2.6854215e-28
-3.2234824e-16
1.6105318e-16
-1.6092922e-16
3.2160445e-16
4.8201661e-16
0
-4.8120921e-16
-3.2052793e-16
4.803655e-16
3.1995335e-16
-1.5982849e-16
-3.1935457e-16
1.5952304e-16
1.5936578e-16
-3.1841097e-16
1.5904217e-16
3.1775164e-16
-1.5870645e-16
2.2529044e-32
-3.1671725e-16
-3.1636034e-16
4.7399605e-16
-1.5781417e-16
-2.6252907e-28
4.7230819e-16
0
-4.7113748e-16
-3.1369233e-16
1.5664347e-16
1.5643775e-16
1.5622899e-16
0
1.5580238e-16
-8.6361229e-29
-3.1072725e-16
8.6092274e-29
1.5491274e-16
0
1.5444971e-16
-3.0842727e-16
-4.6192358e-16
3.0746476e-16
4.604616e-16
1.5323898e-16
-1.5298772e-16
-3.0546685e-16
1.5247608e-16
-1.5221571e-16
-1.5195229e-16
3.0337168e-16
-3.028327e-16
-1.5114382e-16
4.5260475e-16
3.0117928e-16
-1.5030799e-16
-4.5006991e-16
3.3245851e-28
-3.3181294e-28
-1.4915103e-16
-1.6525078e-28
-1.4855433e-16
1.4825143e-16
1.4794549e-16
1.4763653e-16
-1.4732454e-16
-1.4700951e-16
4.4007437e-16
-1.4637037e-16
-2.9209253e-16
4.3715742e-16
4.1322037e-32
-1.4505583e-16
2.8943929e-16
1.4438045e-16
0
-1.4369301e-16
-1.4334479e-16
-2.8598712e-16
1.4263933e-16
-4.738643e-28
-4.2576568e-16
1.4155869e-16
1.411925e-16
1.4082332e-16
-1.4045117e-16
-1.4007605e-16
4.1909388e-16
-1.3931691e-16
-2.778658e-16
-2.3074995e-28
-1.3815603e-16
2.7552636e-16
4.1210219e-16
7.6008561e-29
-7.5805089e-29
-1.9349855e-32
-1.3575505e-16
-2.7068938e-16
-1.3493144e-16
4.035459e-16
-1.4886725e-28
-2.673488e-16
0
0
1.3239163e-16
-7.3246919e-29
7.2986164e-29
1.3108337e-16
-2.6128332e-16
-1.3019716e-16
-1.4400522e-28
1.2929984e-16
3.8654111e-16
1.2839149e-16
0
0
0
-3.7962626e-16
-2.5214601e-16
3.7680376e-16
-1.3894538e-28
-2.4929962e-16
0
0
2.4640607e-16
-2.7246595e-28
-1.3565427e-28
2.4346618e-16
-1.2123804e-16
-2.4148097e-16
-2.4048089e-16
1.1973794e-16
3.5769895e-16
1.187256e-16
0
0
0
-3.5001647e-16
-2.3230586e-16
3.4689419e-16
-2.5557383e-28
-1.1458152e-16
1.6207936e-32
-1.1352268e-16
2.2597995e-16
-1.2484225e-28
-1.1191809e-16
2.2275793e-16
0
-6.1237491e-29
-2.1949834e-16
-2.1840369e-16
3.2595764e-16
2.162026e-16
-1.0754813e-16
-5.9374074e-29
1.0643613e-16
-3.1763206e-16
-2.1063355e-16
1.0475442e-16
1.0419032e-16
-1.0362452e-16
-1.0305703e-16
1.0248789e-16
1.0191714e-16
-5.6254064e-29
5.5921194e-29
1.0019551e-16
0
9.9040307e-17
-1.9692114e-16
-2.9363837e-16
1.9459402e-16
1.9342652e-16
9.6128251e-17
-1.0605257e-28
-1.8990915e-16
9.4365992e-17
-9.3776295e-17
-9.3185527e-17
1.8518746e-16
-1.8400187e-16
-9.1407184e-17
9.0812518e-17
1.8043395e-16
8.9620605e-17
-1.7804689e-16
4.9057761e-29
-8.7826927e-17
-8.7227651e-17
2.5988326e-16
-8.6027274e-17
-8.5426262e-17
2.5447428e-16
-1.1968782e-32
-2.5086141e-16
-8.3017767e-17
2.4724425e-16
-8.1811465e-17
-3.1088823e-45
-1.3420159e-28
-1.6000094e-16
1.5879316e-16
1.575853e-16
-7.8188729e-17
8.6130986e-29
1.5396219e-16
-7.6377483e-17
-2.2732221e-16
-7.5170906e-17
7.4568032e-17
0
7.3363349e-17
1.4552327e-16
-1.0254611e-32
-2.1467913e-16
-7.0959596e-17
1.4072022e-16
-9.9136775e-33
-1.3832644e-16
1.3713183e-16
-1.1320391e-28
-1.3474761e-16
2.0033732e-16
1.3237075e-16
0
0
-6.4410468e-17
-1.9146326e-16
-6.3232913e-17
1.8793798e-16
-6.8896451e-29
-1.2295223e-16
1.217865e-16
1.2062366e-16
-5.9731904e-17
-1.1830703e-16
5.857671e-17
5.8001541e-17
-1.7228416e-16
-5.6856292e-17
-9.3745513e-29
3.0911952e-29
5.5151795e-17
-5.458738e-17
1.0804984e-16
1.6039337e-16
0
-1.5704907e-16
-1.0359094e-16
1.5373024e-16
-1.4407979e-32
-5.0145976e-17
9.920136e-17
-4.9057721e-17
-4.8517137e-17
-5.3263945e-29
4.7443252e-17
9.3820062e-17
-4.6379342e-17
-9.1702447e-17
-9.065143e-17
4.9750709e-29
4.4282674e-17
-4.3765214e-17
8.6501017e-17
1.2821577e-16
0
-1.2516977e-16
-8.2439813e-17
1.2215844e-16
-4.4663975e-29
-3.9727525e-17
3.9236056e-17
3.8747631e-17
-2.1227597e-29
-7.5560058e-17
2.0704841e-29
7.3649912e-17
-4.0351285e-29
-3.9830069e-29
-7.0832602e-17
-1.048597e-16
6.8986897e-17
-3.7795884e-29
-1.118399e-28
3.3134029e-17
3.2687605e-17
6.4489141e-17
-9.5414833e-17
-3.1368745e-17
6.1871982e-17
-6.1013402e-17
-1.7099007e-32
8.8975737e-17
2.9239775e-17
-2.8824494e-17
-8.5238241e-17
9.3275869e-29
5.5199812e-17
2.7198836e-17
-5.3602695e-17
-7.9222351e-17
7.8051457e-17
2.563046e-17
2.8021255e-29
2.4867922e-17
-4.8984169e-17
1.3388363e-29
-2.3751297e-17
2.3386357e-17
-7.669703e-29
-6.8002205e-17
6.6940159e-17
6.5889035e-17
0
0
0
-2.0597891e-17
-6.0797096e-17
-1.9937135e-17
-2.1772515e-29
-1.9290869e-17
5.6919467e-17
1.8659045e-17
-1.8348528e-17
-1.80416e-17
-1.7738253e-17
3.4876956e-17
-1.7142263e-17
1.6849598e-17
-5.5153911e-29
-3.2549726e-17
4.7978309e-17
3.1428356e-17
0
-3.0334895e-17
-1.6540463e-29
1.4634549e-17
-4.311973e-17
-1.4115345e-17
1.3860841e-17
0
0
1.3117521e-17
2.5752831e-17
-2.8061555e-29
-2.4808167e-17
-1.2172818e-17
1.1944793e-17
-1.171999e-17
1.1498385e-17
1.1270273e-45
-1.8428368e-29
3.2557634e-17
0
0
-2.046936e-17
-2.0069665e-17
-9.8380001e-18
1.0705112e-29
2.8359854e-17
-1.0288581e-29
-1.8160664e-17
0
1.7437865e-17
8.5425029e-18
-1.6737773e-17
8.1980563e-18
8.0299851e-18
-2.3593936e-17
7.7020105e-18
-2.5118482e-29
-1.4769506e-17
2.1690231e-17
1.4155996e-17
0
0
0
-1.9485248e-17
-1.2711148e-17
1.8655496e-17
1.2167654e-17
0
-1.1643149e-17
6.3211363e-30
5.5685933e-18
-1.0891028e-17
5.3246721e-18
-5.206039e-18
-5.0895868e-18
1.492586e-17
-9.7262189e-18
-9.506053e-18
4.6450108e-18
-4.5390369e-18
8.8701575e-18
1.2999328e-17
0
-1.2405074e-17
-8.0777006e-18
3.9445499e-18
3.852099e-18
-4.1758081e-30
3.6726506e-18
-1.1943724e-29
-3.5002972e-18
-1.8970194e-30
-1.5609965e-47
3.254577e-18
0
3.0990093e-18
-6.0472568e-18
-8.8494453e-18
8.632628e-18
8.4203503e-18
0
-5.3394067e-18
-5.2066782e-18
5.0767923e-18
-2.4748506e-18
-2.4126783e-18
7.0555644e-18
-4.5847089e-18
-4.4683057e-18
2.177229e-18
4.2431266e-18
2.067135e-18
-6.041766e-18
-1.9619023e-18
-3.1823388e-30
3.7227004e-18
1.0304418e-33
-5.2959015e-18
3.4378329e-18
5.0208028e-18
1.629334e-18
-4.7582851e-18
-3.0877253e-18
4.5078468e-18
-3.2472443e-30
-2.8460099e-18
-1.3846079e-18
7.4775741e-31
2.6210832e-18
-1.4152606e-30
1.2399867e-18
1.2059786e-18
-3.5183859e-18
-1.1404218e-18
-1.2309837e-30
2.1560822e-18
-3.4903207e-30
-3.0561117e-18
1.9802663e-18
-1.0688176e-30
-1.0389159e-30
-2.0177119e-30
-8.8283359e-19
2.5730529e-18
-8.3317469e-19
-1.3474215e-30
-2.6177903e-30
-2.290023e-18
7.4125343e-19
1.4394805e-18
-7.757609e-31
6.7838258e-19
6.5851072e-19
-1.2783221e-18
-1.2406463e-18
6.6821089e-31
1.752419e-18
-6.2903971e-31
-5.4986405e-19
1.0668215e-18
-5.1740101e-19
-5.0182593e-19
2.700039e-31
-2.6196355e-31
4.5761176e-19
-8.8734794e-19
4.3011818e-19
-1.3888255e-30
-1.3459076e-30
1.1749923e-18
-7.591143e-19
1.0453254e-34
7.1271211e-19
-3.4524218e-19
-1.0033258e-18
-3.2394871e-19
9.4126636e-19
-3.3732531e-31
-2.9424052e-19
5.6980766e-19
-5.5167284e-19
-1.3342285e-30
2.5848041e-19
-2.5017995e-19
2.4212362e-19
-4.686115e-19
2.2671958e-19
6.5807199e-19
0
0
-3.9710543e-19
-5.457806e-35
3.714089e-19
-1.795713e-19
-5.2086862e-19
-1.6785346e-19
4.8677674e-19
4.4575344e-35
1.6827665e-31
2.929755e-19
-4.2466122e-19
-6.8330711e-31
1.3213685e-19
-1.2764561e-19
-1.2329498e-19
1.3226686e-31
1.1500317e-19
-2.2210704e-19
2.1445625e-19
-3.4477933e-31
-1.9987182e-19
2.8939299e-19
1.8621187e-19
-8.9856476e-20
-2.6013334e-19
-8.3666218e-20
8.071938e-20
0
-7.5113494e-20
7.245048e-20
2.096264e-19
3.7403301e-32
-1.2994725e-19
6.2642426e-20
6.0389591e-20
-1.1642849e-19
5.6113956e-20
-5.4084546e-20
-1.0424443e-19
1.5067418e-19
-1.6116353e-31
1.0352352e-31
8.9822975e-20
-8.6527804e-20
-4.1673347e-20
-4.0136445e-20
-4.2941922e-32
3.7217368e-20
-7.1667587e-20
6.900044e-20
9.9644349e-20
0
-3.0776711e-20
1.6441542e-32
8.1016718e-36
-8.2294846e-20
-2.6398177e-20
7.6205562e-20
-2.4439966e-20
-4.744533e-48
6.78455e-20
-2.1752554e-20
-6.2772147e-20
-2.0128011e-20
3.8721531e-20
-1.8619696e-20
1.7904043e-20
-5.7330052e-32
-3.3100044e-20
4.7740742e-20
1.6997846e-32
-6.5356745e-32
2.8297813e-20
-2.7202746e-20
-1.4513436e-32
1.2565194e-20
-2.4156076e-20
-1.1612047e-20
0
0
2.0635088e-20
-2.2016321e-32
-5.4165865e-36
-1.0166427e-32
-8.8031746e-21
-8.4642945e-21
8.138279e-21
7.8235072e-21
-1.5039331e-20
1.4453187e-20
-7.7100204e-33
-1.3352671e-20
1.2840618e-20
2.0564789e-32
-6.5920012e-33
5.7090783e-21
-1.0975867e-20
5.2750859e-21
-1.1261444e-32
-9.7583991e-21
0
9.0342663e-21
4.3451227e-21
-8.3573664e-21
-4.0182966e-21
3.8653977e-21
-6.1967382e-33
-3.5825859e-21
0
0
6.3892341e-21
6.1465191e-21
0
-5.6993302e-21
-2.7469457e-21
2.6477128e-21
-2.5509619e-21
2.456285e-21
0
-4.5528668e-21
0
0
2.0445263e-21
-2.189911e-33
-1.9016265e-21
0
1.7614161e-21
9.4227808e-34
-1.6404145e-21
0
3.0665496e-21
2.9629622e-21
-1.4305354e-21
-1.5319081e-33
1.3301079e-21
-2.5659549e-21
-2.4797703e-21
2.3993363e-21
3.3009049e-37
2.4953907e-33
3.0635667e-37
-2.054298e-21
9.9781712e-22
-1.0858833e-33
9.506734e-22
-8.5404509e-22
-2.3051894e-21
2.3289882e-21
8.0794852e-22
-7.390021e-22
-7.8956766e-34
-6.939886e-22
1.2657471e-21
1.2805076e-21
-1.3147755e-21
-2.1861134e-33
-6.4629285e-22
-6.3225433e-22
1.2281702e-21
-5.9180652e-22
6.3157763e-34
-3.0109722e-34
5.200822e-22
1.0182992e-21
-1.0045676e-21
-9.9015601e-22
0
4.743296e-22
5.0934648e-34
-8.850235e-22
-4.733612e-34
1.2339439e-21
8.0170604e-22
0
-7.7981545e-22
-8.5274204e-34
-3.7492286e-22
-3.6175195e-22
1.0457926e-21
-1.8683931e-34
-6.5647468e-22
3.2503273e-22
6.4651651e-22
-3.1960703e-22
-6.2419851e-22
-3.0130051e-22
0
5.6544271e-22
-2.7771327e-22
-8.2875261e-22
2.7538249e-22
2.7284197e-22
5.3428298e-22
2.5880078e-22
-5.0189257e-22
-2.4507557e-22
-2.4181594e-22
2.6776342e-34
2.4109129e-22
2.3954459e-22
4.7069224e-22
2.290101e-22
0
0
0
-4.3456247e-22
-4.3475432e-22
4.3151561e-22
2.354739e-34
2.30694e-34
-2.2682421e-34
-4.4992263e-34
4.0447564e-22
0
-4.0195253e-22
-1.9794709e-22
1.9462962e-22
-1.924122e-22
-1.9173068e-22
0
0
3.8246826e-22
-6.2525324e-34
-4.0920027e-34
3.6521218e-22
-3.6582492e-22
-3.691539e-22
0
3.6970176e-22
-2.0094252e-34
-3.5409556e-22
3.5014153e-22
1.9490182e-34
-3.5535838e-22
0
3.597745e-22
1.7714005e-22
-3.4574418e-22
1.6975823e-22
3.757898e-34
-3.4167015e-22
3.4662981e-22
3.4996825e-22
0
0
0
-3.3122531e-22
-3.3058002e-22
3.3316384e-22
0
-3.3950297e-22
0
-1.6751461e-22
3.2966862e-22
1.6297278e-22
-1.6239538e-22
3.2581872e-22
1.6406255e-22
-3.3011137e-22
-1.6532485e-22
-1.8261025e-34
1.6254265e-22
-3.5611716e-34
9.0423824e-38
3.1818227e-22
0
-1.6185062e-22
-3.2577009e-22
-1.6222993e-22
0
0
0
-1.5708697e-22
3.178649e-22
1.6072136e-22
-1.6114428e-22
-1.5977844e-22
1.5806843e-22
1.5740342e-22
-3.1557737e-22
0
3.1811921e-22
3.1670696e-22
0
0
-3.1748679e-22
-1.7823151e-34
-1.6162358e-22
-1.6071378e-22
1.5814686e-22
-1.5629733e-22
1.5683304e-22
3.1899312e-22
1.6299689e-22
0
-3.3037243e-22
-1.8047723e-34
1.6040834e-22
-1.6035241e-22
-1.6227591e-22
-3.3056043e-22
3.3493391e-22
1.6775659e-22
-4.7429423e-38
1.6664494e-22
-3.3619051e-22
1.707206e-22
-1.7311983e-22
-3.9939326e-51
1.7118811e-22
-3.3869373e-22
3.4046935e-22
3.47993e-22
0
-1.8360552e-22
-3.6784385e-22
9.9787822e-35
1.7566154e-22
1.7526673e-22
-3.5850376e-22
-3.7218804e-22
1.9248587e-22
3.9106575e-22
3.8731493e-22
-1.8874278e-22
-3.7110394e-22
1.86564e-22
-1.916097e-22
3.3083954e-34
2.0466143e-22
-4.1505171e-22
4.1249619e-22
2.2464616e-34
-1.1102196e-33
4.0134201e-22
-4.0917405e-22
-9.3646684e-34
2.1677931e-22
-4.4099386e-22
2.2079057e-22
-6.1999414e-38
9.5775625e-34
2.1559775e-22
-4.3680199e-22
4.9627996e-34
-1.2712275e-34
2.3334624e-22
-6.6836103e-38
-4.6875991e-22
4.6527088e-22
1.3195933e-37
-1.0368999e-33
4.7326022e-22
-4.8218371e-22
-5.448947e-34
4.9670518e-22
-2.4901511e-22
-2.4791179e-22
-2.4711784e-22
2.4771917e-22
-2.7734988e-34
-5.0669124e-22
0
0
5.2180735e-22
7.3838307e-38
-5.1815673e-22
2.5960847e-22
-2.9017035e-34
2.6465227e-22
5.95493e-34
-5.4018311e-22
0
-2.6796628e-22
5.3451624e-22
2.6801091e-22
-6.0007022e-34
2.7336434e-22
-5.5157627e-22
2.7604861e-22
-3.0456128e-34
-5.4594454e-22
0
0
2.7528826e-22
-1.5400317e-34
2.7820483e-22
-2.7703293e-22
-8.260746e-22
8.2318281e-22
2.7409931e-22
-5.4859031e-22
2.7471064e-22
4.5763981e-34
2.7435779e-22
-1.554537e-37
-9.0755166e-34
2.7114625e-22
-5.3886352e-22
-2.6776028e-22
0
-2.6512195e-22
2.6464669e-22
2.6390334e-22
2.619308e-22
-5.7456138e-34
2.8364472e-34
-2.8096403e-34
-5.0356946e-22
2.5134797e-22
4.1637803e-34
-4.9383068e-22
3.4472731e-38
2.3839261e-22
4.7080592e-22
4.6755057e-22
-4.6578887e-22
-2.562951e-34
-2.2646398e-22
-2.2129915e-22
4.3319073e-22
-4.2634399e-22