/*--------------------------------*- C++ -*----------------------------------*\
  =========                 |
  \\      /  F ield         | OpenFOAM: The Open Source CFD Toolbox
   \\    /   O peration     | Website:  https://openfoam.org
    \\  /    A nd           | Version:  7
     \\/     M anipulation  |
\*---------------------------------------------------------------------------*/
FoamFile
{
    version     2.0;
    format      ascii;
    class       volScalarField;
    location    "0.00241";
    object      rho;
}
// * * * * * * * * * * * * * * * * * * * * * * * * * * * * * * * * * * * * * //

dimensions      [1 -3 0 0 0 0 0];

internalField   nonuniform List<scalar> 
5000
(
1.3374784
1.3374784
1.3374785
1.3374785
1.3374785
1.3374785
1.3374785
1.3374785
1.3374785
1.3374785
1.3374785
1.3374785
1.3374785
1.3374785
1.3374785
1.3374785
1.3374785
1.3374785
1.3374785
1.3374785
1.3374785
1.3374785
1.3374785
1.3374785
1.3374785
1.3374785
1.3374785
1.3374785
1.3374785
1.3374785
1.3374785
1.3374786
1.3374786
1.3374786
1.3374786
1.3374786
1.3374786
1.3374786
1.3374786
1.3374786
1.3374786
1.3374786
1.3374786
1.3374786
1.3374786
1.3374786
1.3374786
1.3374786
1.3374786
1.3374786
1.3374786
1.3374786
1.3374786
1.3374786
1.3374786
1.3374786
1.3374786
1.3374786
1.3374786
1.3374786
1.3374786
1.3374786
1.3374786
1.3374786
1.3374786
1.3374786
1.3374786
1.3374786
1.3374786
1.3374786
1.3374786
1.3374785
1.3374785
1.3374784
1.3374784
1.3374783
1.3374782
1.3374781
1.3374778
1.3374773
1.337476
1.3374731
1.3374676
1.3374599
1.3374495
1.3374359
1.3374183
1.337396
1.3373679
1.337333
1.3372904
1.3372396
1.3371806
1.3371141
1.3370411
1.3369636
1.3368834
1.3368029
1.3367242
1.3366493
1.3365798
1.3365167
1.3364609
1.3364125
1.3363713
1.336337
1.336309
1.3362864
1.3362685
1.3362546
1.3362438
1.3362357
1.3362295
1.336225
1.3362216
1.3362192
1.3362174
1.3362161
1.3362152
1.3362146
1.3362141
1.3362138
1.3362136
1.3362134
1.3362133
1.3362132
1.3362132
1.3362131
1.3362131
1.3362131
1.3362131
1.3362131
1.3362131
1.3362131
1.3362131
1.336213
1.336213
1.336213
1.336213
1.336213
1.336213
1.336213
1.336213
1.336213
1.336213
1.336213
1.336213
1.336213
1.336213
1.336213
1.336213
1.336213
1.336213
1.336213
1.336213
1.336213
1.336213
1.336213
1.336213
1.336213
1.336213
1.336213
1.336213
1.336213
1.336213
1.336213
1.336213
1.336213
1.336213
1.336213
1.336213
1.336213
1.336213
1.336213
1.336213
1.336213
1.336213
1.336213
1.336213
1.336213
1.336213
1.336213
1.336213
1.336213
1.336213
1.336213
1.336213
1.336213
1.336213
1.336213
1.336213
1.336213
1.336213
1.336213
1.336213
1.336213
1.336213
1.336213
1.336213
1.336213
1.336213
1.336213
1.336213
1.336213
1.336213
1.336213
1.336213
1.336213
1.336213
1.336213
1.336213
1.336213
1.336213
1.336213
1.336213
1.336213
1.336213
1.336213
1.336213
1.336213
1.336213
1.336213
1.336213
1.336213
1.336213
1.336213
1.336213
1.336213
1.336213
1.336213
1.336213
1.336213
1.336213
1.336213
1.336213
1.336213
1.336213
1.336213
1.336213
1.336213
1.3362129
1.3362129
1.3362129
1.3362129
1.3362129
1.3362129
1.3362129
1.3362129
1.3362129
1.3362129
1.3362129
1.3362129
1.3362129
1.3362129
1.3362129
1.3362129
1.3362129
1.3362129
1.3362129
1.3362129
1.3362129
1.3362129
1.3362129
1.3362129
1.3362129
1.3362129
1.3362129
1.3362129
1.3362129
1.3362129
1.3362129
1.3362129
1.3362129
1.3362129
1.3362129
1.3362129
1.3362129
1.3362129
1.3362129
1.3362129
1.3362129
1.3362129
1.3362129
1.3362129
1.3362129
1.3362129
1.3362129
1.3362129
1.3362129
1.3362129
1.3362129
1.3362129
1.3362129
1.3362129
1.3362129
1.3362129
1.3362129
1.3362129
1.3362129
1.3362129
1.3362129
1.3362129
1.3362129
1.3362129
1.3362129
1.3362129
1.3362129
1.3362129
1.3362129
1.3362129
1.3362129
1.3362129
1.3362129
1.3362129
1.3362129
1.3362129
1.3362129
1.3362129
1.3362129
1.3362129
1.3362129
1.3362129
1.3362129
1.3362129
1.3362129
1.3362129
1.3362129
1.3362128
1.3362128
1.3362128
1.3362128
1.3362128
1.3362128
1.3362128
1.3362128
1.3362128
1.3362128
1.3362128
1.3362128
1.3362128
1.3362128
1.3362128
1.3362128
1.3362128
1.3362128
1.3362128
1.3362128
1.3362128
1.3362128
1.3362128
1.3362128
1.3362128
1.3362128
1.3362128
1.3362128
1.3362128
1.3362128
1.3362128
1.3362128
1.3362128
1.3362128
1.3362128
1.3362128
1.3362128
1.3362128
1.3362128
1.3362128
1.3362128
1.3362128
1.3362128
1.3362128
1.3362128
1.3362128
1.3362128
1.3362128
1.3362128
1.3362128
1.3362128
1.3362128
1.3362128
1.3362128
1.3362128
1.3362128
1.3362128
1.3362128
1.3362128
1.3362128
1.3362128
1.3362128
1.3362128
1.3362128
1.3362128
1.3362128
1.3362128
1.3362127
1.3362127
1.3362127
1.3362127
1.3362127
1.3362127
1.3362127
1.3362127
1.3362127
1.3362127
1.3362127
1.3362127
1.3362127
1.3362127
1.3362127
1.3362127
1.3362127
1.3362127
1.3362127
1.3362127
1.3362127
1.3362127
1.3362127
1.3362127
1.3362127
1.3362127
1.3362127
1.3362127
1.3362127
1.3362127
1.3362127
1.3362127
1.3362127
1.3362127
1.3362127
1.3362127
1.3362127
1.3362127
1.3362127
1.3362127
1.3362127
1.3362127
1.3362127
1.3362127
1.3362127
1.3362127
1.3362127
1.3362127
1.3362127
1.3362127
1.3362127
1.3362127
1.3362127
1.3362127
1.3362127
1.3362127
1.3362127
1.3362127
1.3362127
1.3362127
1.3362126
1.3362126
1.3362126
1.3362126
1.3362126
1.3362126
1.3362126
1.3362126
1.3362126
1.3362126
1.3362126
1.3362126
1.3362126
1.3362126
1.3362126
1.3362126
1.3362126
1.3362126
1.3362126
1.3362126
1.3362126
1.3362126
1.3362126
1.3362126
1.3362126
1.3362126
1.3362126
1.3362126
1.3362126
1.3362126
1.3362126
1.3362126
1.3362126
1.3362126
1.3362126
1.3362126
1.3362126
1.3362126
1.3362126
1.3362126
1.3362126
1.3362126
1.3362126
1.3362126
1.3362126
1.3362126
1.3362126
1.3362126
1.3362125
1.3362125
1.3362125
1.3362125
1.3362125
1.3362125
1.3362125
1.3362125
1.3362125
1.3362125
1.3362125
1.3362125
1.3362125
1.3362125
1.3362125
1.3362125
1.3362125
1.3362125
1.3362125
1.3362125
1.3362125
1.3362125
1.3362125
1.3362125
1.3362125
1.3362125
1.3362125
1.3362125
1.3362125
1.3362125
1.3362125
1.3362125
1.3362125
1.3362125
1.3362125
1.3362125
1.3362125
1.3362125
1.3362125
1.3362125
1.3362125
1.3362125
1.3362125
1.3362125
1.3362125
1.3362125
1.3362125
1.3362125
1.3362125
1.3362125
1.3362125
1.3362125
1.3362124
1.3362124
1.3362124
1.3362124
1.3362124
1.3362124
1.3362124
1.3362124
1.3362124
1.3362124
1.3362124
1.3362124
1.3362124
1.3362124
1.3362124
1.3362124
1.3362124
1.3362124
1.3362124
1.3362124
1.3362124
1.3362124
1.3362124
1.3362124
1.3362124
1.3362124
1.3362124
1.3362124
1.3362124
1.3362124
1.3362124
1.3362124
1.3362124
1.3362124
1.3362124
1.3362124
1.3362124
1.3362124
1.3362124
1.3362124
1.3362124
1.3362124
1.3362124
1.3362124
1.3362123
1.3362123
1.3362123
1.3362123
1.3362123
1.3362123
1.3362123
1.3362123
1.3362123
1.3362123
1.3362123
1.3362123
1.3362123
1.3362123
1.3362123
1.3362123
1.3362123
1.3362123
1.3362123
1.3362123
1.3362123
1.3362123
1.3362123
1.3362123
1.3362123
1.3362123
1.3362123
1.3362123
1.3362123
1.3362123
1.3362123
1.3362123
1.3362123
1.3362123
1.3362123
1.3362123
1.3362123
1.3362123
1.3362123
1.3362123
1.3362123
1.3362122
1.3362122
1.3362122
1.3362122
1.3362122
1.3362122
1.3362122
1.3362122
1.3362122
1.3362122
1.3362122
1.3362122
1.3362122
1.3362122
1.3362122
1.3362122
1.3362122
1.3362122
1.3362122
1.3362122
1.3362122
1.3362122
1.3362122
1.3362122
1.3362122
1.3362122
1.3362122
1.3362122
1.3362122
1.3362122
1.3362122
1.3362122
1.3362122
1.3362122
1.3362122
1.3362122
1.3362121
1.3362121
1.3362121
1.3362121
1.3362121
1.3362121
1.3362121
1.3362121
1.3362121
1.3362121
1.3362121
1.3362121
1.3362121
1.3362121
1.3362121
1.3362121
1.3362121
1.3362121
1.3362121
1.3362121
1.3362121
1.3362121
1.3362121
1.3362121
1.3362121
1.3362121
1.3362121
1.3362121
1.3362121
1.3362121
1.3362121
1.3362121
1.3362121
1.3362121
1.3362121
1.3362121
1.3362121
1.3362121
1.3362121
1.336212
1.336212
1.336212
1.336212
1.336212
1.336212
1.336212
1.336212
1.336212
1.336212
1.336212
1.336212
1.336212
1.336212
1.336212
1.336212
1.336212
1.336212
1.336212
1.336212
1.336212
1.336212
1.336212
1.336212
1.336212
1.336212
1.336212
1.336212
1.336212
1.336212
1.336212
1.336212
1.336212
1.336212
1.336212
1.336212
1.3362119
1.3362119
1.3362119
1.3362119
1.3362119
1.3362119
1.3362119
1.3362119
1.3362119
1.3362119
1.3362119
1.3362119
1.3362119
1.3362119
1.3362119
1.3362119
1.3362119
1.3362119
1.3362119
1.3362119
1.3362119
1.3362119
1.3362119
1.3362119
1.3362119
1.3362119
1.3362119
1.3362119
1.3362119
1.3362119
1.3362118
1.3362118
1.3362118
1.3362118
1.3362118
1.3362118
1.3362118
1.3362118
1.3362118
1.3362118
1.3362118
1.3362118
1.3362118
1.3362118
1.3362118
1.3362118
1.3362118
1.3362118
1.3362118
1.3362118
1.3362118
1.3362118
1.3362118
1.3362118
1.3362118
1.3362118
1.3362118
1.3362118
1.3362118
1.3362118
1.3362118
1.3362118
1.3362118
1.3362118
1.3362117
1.3362117
1.3362117
1.3362117
1.3362117
1.3362117
1.3362117
1.3362117
1.3362117
1.3362117
1.3362117
1.3362117
1.3362117
1.3362117
1.3362117
1.3362117
1.3362117
1.3362117
1.3362117
1.3362117
1.3362117
1.3362117
1.3362117
1.3362117
1.3362117
1.3362117
1.3362117
1.3362117
1.3362117
1.3362116
1.3362116
1.3362116
1.3362116
1.3362116
1.3362116
1.3362116
1.3362116
1.3362116
1.3362116
1.3362116
1.3362116
1.3362116
1.3362116
1.3362116
1.3362116
1.3362116
1.3362116
1.3362116
1.3362116
1.3362116
1.3362116
1.3362116
1.3362116
1.3362116
1.3362116
1.3362115
1.3362115
1.3362115
1.3362115
1.3362115
1.3362115
1.3362115
1.3362115
1.3362115
1.3362115
1.3362115
1.3362115
1.3362115
1.3362115
1.3362115
1.3362115
1.3362115
1.3362115
1.3362115
1.3362115
1.3362115
1.3362115
1.3362115
1.3362115
1.3362114
1.3362114
1.3362114
1.3362114
1.3362114
1.3362114
1.3362114
1.3362114
1.3362114
1.3362114
1.3362114
1.3362114
1.3362114
1.3362114
1.3362114
1.3362114
1.3362114
1.3362114
1.3362114
1.3362114
1.3362114
1.3362114
1.3362114
1.3362113
1.3362113
1.3362113
1.3362113
1.3362113
1.3362113
1.3362113
1.3362113
1.3362113
1.3362113
1.3362113
1.3362113
1.3362113
1.3362113
1.3362113
1.3362113
1.3362113
1.3362113
1.3362113
1.3362113
1.3362113
1.3362112
1.3362112
1.3362112
1.3362112
1.3362112
1.3362112
1.3362112
1.3362112
1.3362112
1.3362112
1.3362112
1.3362112
1.3362112
1.3362112
1.3362112
1.3362112
1.3362112
1.3362112
1.3362112
1.3362111
1.3362111
1.3362111
1.3362111
1.3362111
1.3362111
1.3362111
1.3362111
1.3362111
1.3362111
1.3362111
1.3362111
1.3362111
1.3362111
1.3362111
1.3362111
1.3362111
1.3362111
1.3362111
1.3362111
1.3362111
1.336211
1.336211
1.336211
1.336211
1.336211
1.336211
1.336211
1.336211
1.336211
1.336211
1.336211
1.336211
1.336211
1.336211
1.336211
1.336211
1.336211
1.3362109
1.3362109
1.3362109
1.3362109
1.3362109
1.3362109
1.3362109
1.3362109
1.3362109
1.3362109
1.3362109
1.3362109
1.3362109
1.3362109
1.3362109
1.3362109
1.3362109
1.3362109
1.3362109
1.3362109
1.3362108
1.3362108
1.3362108
1.3362108
1.3362108
1.3362108
1.3362108
1.3362108
1.3362108
1.3362108
1.3362108
1.3362108
1.3362108
1.3362108
1.3362108
1.3362108
1.3362108
1.3362107
1.3362107
1.3362107
1.3362107
1.3362107
1.3362107
1.3362107
1.3362107
1.3362107
1.3362107
1.3362107
1.3362107
1.3362107
1.3362107
1.3362107
1.3362107
1.3362106
1.3362106
1.3362106
1.3362106
1.3362106
1.3362106
1.3362106
1.3362106
1.3362106
1.3362106
1.3362106
1.3362106
1.3362106
1.3362106
1.3362106
1.3362106
1.3362106
1.3362105
1.3362105
1.3362105
1.3362105
1.3362105
1.3362105
1.3362105
1.3362105
1.3362105
1.3362105
1.3362105
1.3362105
1.3362105
1.3362105
1.3362104
1.3362104
1.3362104
1.3362104
1.3362104
1.3362104
1.3362104
1.3362104
1.3362104
1.3362104
1.3362104
1.3362104
1.3362104
1.3362104
1.3362104
1.3362103
1.3362103
1.3362103
1.3362103
1.3362103
1.3362103
1.3362103
1.3362103
1.3362103
1.3362103
1.3362103
1.3362103
1.3362103
1.3362102
1.3362102
1.3362102
1.3362102
1.3362102
1.3362102
1.3362102
1.3362102
1.3362102
1.3362102
1.3362102
1.3362102
1.3362101
1.3362101
1.3362101
1.3362101
1.3362101
1.3362101
1.3362101
1.3362101
1.3362101
1.3362101
1.33621
1.33621
1.33621
1.33621
1.33621
1.33621
1.33621
1.33621
1.33621
1.33621
1.3362099
1.3362099
1.3362099
1.3362099
1.3362099
1.3362099
1.3362099
1.3362099
1.3362099
1.3362098
1.3362098
1.3362098
1.3362098
1.3362098
1.3362098
1.3362098
1.3362097
1.3362097
1.3362097
1.3362097
1.3362097
1.3362097
1.3362097
1.3362096
1.3362096
1.3362096
1.3362096
1.3362096
1.3362096
1.3362095
1.3362095
1.3362095
1.3362095
1.3362095
1.3362094
1.3362094
1.3362094
1.3362094
1.3362093
1.3362093
1.3362093
1.3362093
1.3362092
1.3362092
1.3362092
1.3362092
1.3362091
1.3362091
1.3362091
1.3362091
1.336209
1.336209
1.336209
1.3362089
1.3362089
1.3362088
1.3362088
1.3362088
1.3362087
1.3362087
1.3362086
1.3362086
1.3362086
1.3362085
1.3362085
1.3362084
1.3362084
1.3362083
1.3362083
1.3362082
1.3362082
1.3362081
1.3362081
1.336208
1.3362079
1.3362079
1.3362078
1.3362077
1.3362077
1.3362076
1.3362075
1.3362075
1.3362074
1.3362073
1.3362072
1.3362071
1.3362071
1.336207
1.3362069
1.3362068
1.3362067
1.3362066
1.3362065
1.3362064
1.3362063
1.3362062
1.3362061
1.3362059
1.3362058
1.3362057
1.3362056
1.3362054
1.3362053
1.3362052
1.336205
1.3362049
1.3362047
1.3362046
1.3362044
1.3362042
1.3362041
1.3362039
1.3362037
1.3362036
1.3362034
1.3362032
1.336203
1.3362028
1.3362026
1.3362024
1.3362021
1.3362019
1.3362017
1.3362014
1.3362012
1.336201
1.3362007
1.3362004
1.3362002
1.3361999
1.3361996
1.3361993
1.336199
1.3361987
1.3361984
1.3361981
1.3361977
1.3361974
1.3361971
1.3361967
1.3361963
1.336196
1.3361956
1.3361952
1.3361948
1.3361944
1.3361939
1.3361935
1.3361931
1.3361926
1.3361921
1.3361917
1.3361912
1.3361907
1.3361902
1.3361896
1.3361891
1.3361886
1.336188
1.3361874
1.3361868
1.3361862
1.3361856
1.336185
1.3361844
1.3361837
1.336183
1.3361823
1.3361816
1.3361809
1.3361802
1.3361794
1.3361787
1.3361779
1.3361771
1.3361763
1.3361755
1.3361746
1.3361737
1.3361729
1.336172
1.336171
1.3361701
1.3361691
1.3361682
1.3361672
1.3361662
1.3361651
1.3361641
1.336163
1.3361619
1.3361608
1.3361596
1.3361584
1.3361573
1.336156
1.3361548
1.3361536
1.3361523
1.336151
1.3361497
1.3361483
1.3361469
1.3361455
1.3361441
1.3361427
1.3361412
1.3361397
1.3361382
1.3361366
1.336135
1.3361334
1.3361318
1.3361301
1.3361284
1.3361267
1.336125
1.3361232
1.3361214
1.3361195
1.3361177
1.3361158
1.3361138
1.3361119
1.3361099
1.3361079
1.3361058
1.3361038
1.3361017
1.3360995
1.3360973
1.3360951
1.3360929
1.3360906
1.3360883
1.336086
1.3360836
1.3360812
1.3360787
1.3360762
1.3360737
1.3360712
1.3360686
1.336066
1.3360633
1.3360606
1.3360579
1.3360551
1.3360523
1.3360495
1.3360466
1.3360437
1.3360407
1.3360377
1.3360347
1.3360316
1.3360285
1.3360254
1.3360222
1.336019
1.3360157
1.3360124
1.3360091
1.3360057
1.3360023
1.3359988
1.3359953
1.3359918
1.3359882
1.3359846
1.3359809
1.3359772
1.3359735
1.3359697
1.3359659
1.335962
1.3359581
1.3359541
1.3359501
1.3359461
1.335942
1.3359379
1.3359338
1.3359296
1.3359253
1.335921
1.3359167
1.3359123
1.3359079
1.3359035
1.335899
1.3358944
1.3358899
1.3358852
1.3358806
1.3358759
1.3358711
1.3358663
1.3358615
1.3358566
1.3358517
1.3358468
1.3358418
1.3358367
1.3358316
1.3358265
1.3358213
1.3358161
1.3358109
1.3358056
1.3358002
1.3357949
1.3357894
1.335784
1.3357785
1.3357729
1.3357674
1.3357617
1.3357561
1.3357504
1.3357446
1.3357388
1.335733
1.3357271
1.3357212
1.3357153
1.3357093
1.3357033
1.3356972
1.3356911
1.335685
1.3356788
1.3356726
1.3356663
1.3356601
1.3356537
1.3356474
1.335641
1.3356345
1.3356281
1.3356215
1.335615
1.3356084
1.3356018
1.3355951
1.3355885
1.3355817
1.335575
1.3355682
1.3355614
1.3355545
1.3355476
1.3355407
1.3355337
1.3355267
1.3355197
1.3355127
1.3355056
1.3354985
1.3354913
1.3354842
1.335477
1.3354697
1.3354625
1.3354552
1.3354479
1.3354405
1.3354331
1.3354257
1.3354183
1.3354108
1.3354034
1.3353959
1.3353883
1.3353808
1.3353732
1.3353656
1.335358
1.3353503
1.3353426
1.3353349
1.3353272
1.3353195
1.3353117
1.3353039
1.3352961
1.3352883
1.3352805
1.3352726
1.3352647
1.3352568
1.3352489
1.335241
1.335233
1.335225
1.3352171
1.3352091
1.335201
1.335193
1.335185
1.3351769
1.3351688
1.3351608
1.3351527
1.3351446
1.3351364
1.3351283
1.3351202
1.335112
1.3351038
1.3350957
1.3350875
1.3350793
1.3350711
1.3350629
1.3350547
1.3350465
1.3350383
1.33503
1.3350218
1.3350135
1.3350053
1.3349971
1.3349888
1.3349806
1.3349723
1.334964
1.3349558
1.3349475
1.3349393
1.334931
1.3349227
1.3349145
1.3349062
1.3348979
1.3348897
1.3348814
1.3348732
1.3348649
1.3348567
1.3348484
1.3348402
1.334832
1.3348237
1.3348155
1.3348073
1.3347991
1.3347909
1.3347827
1.3347745
1.3347663
1.3347582
1.33475
1.3347418
1.3347337
1.3347256
1.3347174
1.3347093
1.3347012
1.3346931
1.3346851
1.334677
1.3346689
1.3346609
1.3346529
1.3346449
1.3346369
1.3346289
1.3346209
1.334613
1.334605
1.3345971
1.3345892
1.3345813
1.3345734
1.3345656
1.3345577
1.3345499
1.3345421
1.3345343
1.3345266
1.3345188
1.3345111
1.3345034
1.3344957
1.3344881
1.3344804
1.3344728
1.3344652
1.3344576
1.33445
1.3344425
1.334435
1.3344275
1.33442
1.3344126
1.3344052
1.3343977
1.3343904
1.334383
1.3343757
1.3343684
1.3343611
1.3343538
1.3343466
1.3343394
1.3343322
1.3343251
1.3343179
1.3343108
1.3343037
1.3342967
1.3342897
1.3342827
1.3342757
1.3342687
1.3342618
1.3342549
1.3342481
1.3342412
1.3342344
1.3342276
1.3342209
1.3342141
1.3342074
1.3342008
1.3341941
1.3341875
1.3341809
1.3341743
1.3341678
1.3341613
1.3341548
1.3341484
1.334142
1.3341356
1.3341292
1.3341229
1.3341166
1.3341103
1.3341041
1.3340978
1.3340917
1.3340855
1.3340794
1.3340733
1.3340672
1.3340612
1.3340552
1.3340492
1.3340432
1.3340373
1.3340314
1.3340256
1.3340197
1.3340139
1.3340082
1.3340024
1.3339967
1.333991
1.3339854
1.3339798
1.3339742
1.3339686
1.3339631
1.3339576
1.3339521
1.3339466
1.3339412
1.3339358
1.3339305
1.3339251
1.3339198
1.3339146
1.3339093
1.3339041
1.3338989
1.3338938
1.3338886
1.3338835
1.3338785
1.3338734
1.3338684
1.3338634
1.3338585
1.3338535
1.3338487
1.3338438
1.3338389
1.3338341
1.3338293
1.3338246
1.3338199
1.3338152
1.3338105
1.3338058
1.3338012
1.3337966
1.3337921
1.3337875
1.333783
1.3337786
1.3337741
1.3337697
1.3337653
1.3337609
1.3337566
1.3337522
1.333748
1.3337437
1.3337395
1.3337352
1.3337311
1.3337269
1.3337228
1.3337187
1.3337146
1.3337105
1.3337065
1.3337025
1.3336985
1.3336946
1.3336907
1.3336868
1.3336829
1.333679
1.3336752
1.3336714
1.3336677
1.3336639
1.3336602
1.3336565
1.3336528
1.3336492
1.3336456
1.333642
1.3336384
1.3336348
1.3336313
1.3336278
1.3336243
1.3336209
1.3336175
1.3336141
1.3336107
1.3336073
1.333604
1.3336007
1.3335974
1.3335941
1.3335909
1.3335877
1.3335845
1.3335813
1.3335782
1.333575
1.3335719
1.3335689
1.3335658
1.3335628
1.3335598
1.3335568
1.3335538
1.3335509
1.3335479
1.333545
1.3335422
1.3335393
1.3335365
1.3335337
1.3335309
1.3335281
1.3335254
1.3335227
1.33352
1.3335173
1.3335146
1.333512
1.3335094
1.3335068
1.3335042
1.3335016
1.3334991
1.3334966
1.3334941
1.3334916
1.3334892
1.3334868
1.3334844
1.333482
1.3334796
1.3334772
1.3334749
1.3334726
1.3334703
1.3334681
1.3334658
1.3334636
1.3334614
1.3334592
1.333457
1.3334549
1.3334528
1.3334507
1.3334486
1.3334465
1.3334444
1.3334424
1.3334404
1.3334384
1.3334364
1.3334345
1.3334325
1.3334306
1.3334287
1.3334268
1.333425
1.3334231
1.3334213
1.3334195
1.3334177
1.3334159
1.3334142
1.3334124
1.3334107
1.333409
1.3334073
1.3334057
1.333404
1.3334024
1.3334008
1.3333992
1.3333976
1.333396
1.3333945
1.3333929
1.3333914
1.3333899
1.3333885
1.333387
1.3333856
1.3333841
1.3333827
1.3333813
1.3333799
1.3333786
1.3333772
1.3333759
1.3333745
1.3333732
1.333372
1.3333707
1.3333694
1.3333682
1.3333669
1.3333657
1.3333645
1.3333633
1.3333622
1.333361
1.3333599
1.3333587
1.3333576
1.3333565
1.3333554
1.3333544
1.3333533
1.3333523
1.3333512
1.3333502
1.3333492
1.3333482
1.3333472
1.3333463
1.3333453
1.3333444
1.3333435
1.3333425
1.3333416
1.3333408
1.3333399
1.333339
1.3333382
1.3333373
1.3333365
1.3333357
1.3333349
1.3333341
1.3333333
1.3333325
1.3333317
1.333331
1.3333303
1.3333295
1.3333288
1.3333281
1.3333274
1.3333267
1.333326
1.3333254
1.3333247
1.3333241
1.3333234
1.3333228
1.3333222
1.3333216
1.333321
1.3333204
1.3333198
1.3333192
1.3333187
1.3333181
1.3333176
1.3333171
1.3333165
1.333316
1.3333155
1.333315
1.3333145
1.333314
1.3333135
1.3333131
1.3333126
1.3333121
1.3333117
1.3333113
1.3333108
1.3333104
1.33331
1.3333096
1.3333092
1.3333088
1.3333084
1.333308
1.3333076
1.3333072
1.3333069
1.3333065
1.3333062
1.3333058
1.3333055
1.3333052
1.3333048
1.3333045
1.3333042
1.3333039
1.3333036
1.3333033
1.333303
1.3333027
1.3333024
1.3333022
1.3333019
1.3333016
1.3333014
1.3333011
1.3333008
1.3333006
1.3333004
1.3333001
1.3332999
1.3332996
1.3332994
1.3332992
1.333299
1.3332988
1.3332986
1.3332984
1.3332982
1.333298
1.3332978
1.3332976
1.3332974
1.3332972
1.333297
1.3332969
1.3332967
1.3332965
1.3332964
1.3332962
1.333296
1.3332959
1.3332957
1.3332956
1.3332954
1.3332953
1.3332951
1.333295
1.3332949
1.3332947
1.3332946
1.3332945
1.3332944
1.3332942
1.3332941
1.333294
1.3332939
1.3332938
1.3332937
1.3332935
1.3332934
1.3332933
1.3332932
1.3332931
1.333293
1.3332929
1.3332928
1.3332927
1.3332927
1.3332926
1.3332925
1.3332924
1.3332923
1.3332922
1.3332921
1.3332921
1.333292
1.3332919
1.3332918
1.3332917
1.3332917
1.3332916
1.3332915
1.3332915
1.3332914
1.3332913
1.3332913
1.3332912
1.3332911
1.3332911
1.333291
1.3332909
1.3332909
1.3332908
1.3332908
1.3332907
1.3332907
1.3332906
1.3332906
1.3332905
1.3332905
1.3332904
1.3332904
1.3332903
1.3332903
1.3332902
1.3332902
1.3332901
1.3332901
1.33329
1.33329
1.3332899
1.3332899
1.3332898
1.3332898
1.3332898
1.3332897
1.3332897
1.3332896
1.3332896
1.3332896
1.3332895
1.3332895
1.3332894
1.3332894
1.3332894
1.3332893
1.3332893
1.3332893
1.3332892
1.3332892
1.3332892
1.3332891
1.3332891
1.3332891
1.333289
1.333289
1.333289
1.3332889
1.3332889
1.3332888
1.3332888
1.3332888
1.3332888
1.3332887
1.3332887
1.3332887
1.3332886
1.3332886
1.3332886
1.3332885
1.3332885
1.3332885
1.3332884
1.3332884
1.3332884
1.3332883
1.3332883
1.3332883
1.3332883
1.3332882
1.3332882
1.3332882
1.3332881
1.3332881
1.3332881
1.333288
1.333288
1.333288
1.333288
1.3332879
1.3332879
1.3332879
1.3332878
1.3332878
1.3332878
1.3332877
1.3332877
1.3332877
1.3332877
1.3332876
1.3332876
1.3332876
1.3332875
1.3332875
1.3332875
1.3332875
1.3332874
1.3332874
1.3332874
1.3332873
1.3332873
1.3332873
1.3332872
1.3332872
1.3332872
1.3332871
1.3332871
1.3332871
1.3332871
1.333287
1.333287
1.333287
1.3332869
1.3332869
1.3332869
1.3332868
1.3332868
1.3332868
1.3332867
1.3332867
1.3332867
1.3332866
1.3332866
1.3332866
1.3332865
1.3332865
1.3332865
1.3332865
1.3332864
1.3332864
1.3332864
1.3332863
1.3332863
1.3332863
1.3332862
1.3332862
1.3332862
1.3332861
1.3332861
1.3332861
1.333286
1.333286
1.333286
1.3332859
1.3332859
1.3332859
1.3332858
1.3332858
1.3332858
1.3332857
1.3332857
1.3332857
1.3332856
1.3332856
1.3332856
1.3332855
1.3332855
1.3332855
1.3332854
1.3332854
1.3332854
1.3332853
1.3332853
1.3332853
1.3332852
1.3332852
1.3332851
1.3332851
1.3332851
1.333285
1.333285
1.333285
1.3332849
1.3332849
1.3332849
1.3332848
1.3332848
1.3332848
1.3332847
1.3332847
1.3332846
1.3332846
1.3332846
1.3332845
1.3332845
1.3332845
1.3332844
1.3332844
1.3332843
1.3332843
1.3332843
1.3332842
1.3332842
1.3332841
1.3332841
1.3332841
1.333284
1.333284
1.333284
1.3332839
1.3332839
1.3332838
1.3332838
1.3332838
1.3332837
1.3332837
1.3332836
1.3332836
1.3332836
1.3332835
1.3332835
1.3332834
1.3332834
1.3332834
1.3332833
1.3332833
1.3332832
1.3332832
1.3332832
1.3332831
1.3332831
1.333283
1.333283
1.333283
1.3332829
1.3332829
1.3332828
1.3332828
1.3332827
1.3332827
1.3332827
1.3332826
1.3332826
1.3332825
1.3332825
1.3332824
1.3332824
1.3332823
1.3332823
1.3332823
1.3332822
1.3332822
1.3332821
1.3332821
1.333282
1.333282
1.333282
1.3332819
1.3332819
1.3332818
1.3332818
1.3332817
1.3332817
1.3332816
1.3332816
1.3332815
1.3332815
1.3332814
1.3332814
1.3332814
1.3332813
1.3332813
1.3332812
1.3332812
1.3332811
1.3332811
1.333281
1.333281
1.3332809
1.3332809
1.3332808
1.3332808
1.3332807
1.3332807
1.3332806
1.3332806
1.3332805
1.3332805
1.3332804
1.3332804
1.3332803
1.3332803
1.3332802
1.3332802
1.3332801
1.3332801
1.33328
1.33328
1.3332799
1.3332799
1.3332798
1.3332798
1.3332797
1.3332797
1.3332796
1.3332795
1.3332795
1.3332794
1.3332794
1.3332793
1.3332793
1.3332792
1.3332792
1.3332791
1.333279
1.333279
1.3332789
1.3332789
1.3332788
1.3332788
1.3332787
1.3332787
1.3332786
1.3332785
1.3332785
1.3332784
1.3332784
1.3332783
1.3332782
1.3332782
1.3332781
1.3332781
1.333278
1.3332779
1.3332779
1.3332778
1.3332778
1.3332777
1.3332776
1.3332776
1.3332775
1.3332775
1.3332774
1.3332773
1.3332773
1.3332772
1.3332771
1.3332771
1.333277
1.3332769
1.3332769
1.3332768
1.3332767
1.3332767
1.3332766
1.3332765
1.3332765
1.3332764
1.3332763
1.3332763
1.3332762
1.3332761
1.3332761
1.333276
1.3332759
1.3332759
1.3332758
1.3332757
1.3332757
1.3332756
1.3332755
1.3332754
1.3332754
1.3332753
1.3332752
1.3332752
1.3332751
1.333275
1.3332749
1.3332749
1.3332748
1.3332747
1.3332746
1.3332746
1.3332745
1.3332744
1.3332743
1.3332743
1.3332742
1.3332741
1.333274
1.3332739
1.3332739
1.3332738
1.3332737
1.3332736
1.3332735
1.3332735
1.3332734
1.3332733
1.3332732
1.3332731
1.333273
1.333273
1.3332729
1.3332728
1.3332727
1.3332726
1.3332726
1.3332725
1.3332724
1.3332723
1.3332722
1.3332721
1.333272
1.3332719
1.3332719
1.3332718
1.3332717
1.3332716
1.3332715
1.3332714
1.3332713
1.3332712
1.3332711
1.333271
1.3332709
1.3332708
1.3332707
1.3332706
1.3332705
1.3332704
1.3332703
1.3332702
1.3332701
1.33327
1.3332699
1.3332698
1.3332697
1.3332696
1.3332695
1.3332694
1.3332693
1.3332692
1.3332691
1.333269
1.3332689
1.3332688
1.3332687
1.3332686
1.3332685
1.3332684
1.3332683
1.3332682
1.3332681
1.3332679
1.3332678
1.3332677
1.3332676
1.3332675
1.3332674
1.3332672
1.3332671
1.333267
1.3332669
1.3332668
1.3332666
1.3332665
1.3332664
1.3332663
1.3332662
1.333266
1.3332659
1.3332658
1.3332657
1.3332655
1.3332654
1.3332653
1.3332651
1.333265
1.3332649
1.3332647
1.3332646
1.3332645
1.3332643
1.3332642
1.333264
1.3332639
1.3332637
1.3332636
1.3332635
1.3332633
1.3332632
1.333263
1.3332629
1.3332627
1.3332626
1.3332625
1.3332623
1.3332622
1.333262
1.3332619
1.3332617
1.3332616
1.3332614
1.3332612
1.3332611
1.3332609
1.3332608
1.3332606
1.3332604
1.3332602
1.3332601
1.3332599
1.3332597
1.3332596
1.3332594
1.3332592
1.333259
1.3332588
1.3332587
1.3332585
1.3332583
1.3332581
1.3332579
1.3332577
1.3332575
1.3332573
1.3332572
1.333257
1.3332568
1.3332566
1.3332564
1.3332562
1.3332559
1.3332557
1.3332555
1.3332553
1.3332551
1.3332549
1.3332547
1.3332545
1.3332542
1.333254
1.3332538
1.3332536
1.3332533
1.3332531
1.3332529
1.3332526
1.3332524
1.3332522
1.3332519
1.3332517
1.3332514
1.3332511
1.3332509
1.3332506
1.3332504
1.3332501
1.3332498
1.3332495
1.3332493
1.333249
1.3332487
1.3332484
1.3332482
1.3332479
1.3332476
1.3332473
1.333247
1.3332467
1.3332464
1.3332461
1.3332458
1.3332455
1.3332452
1.3332448
1.3332445
1.3332442
1.3332438
1.3332435
1.3332431
1.3332428
1.3332424
1.333242
1.3332417
1.3332413
1.3332409
1.3332405
1.3332401
1.3332397
1.3332393
1.3332389
1.3332385
1.3332381
1.3332377
1.3332373
1.3332368
1.3332364
1.3332359
1.3332355
1.333235
1.3332345
1.3332341
1.3332336
1.3332331
1.3332326
1.3332321
1.3332316
1.3332311
1.3332306
1.3332301
1.3332295
1.333229
1.3332285
1.333228
1.3332274
1.3332269
1.3332263
1.3332258
1.3332252
1.3332247
1.3332242
1.3332236
1.3332231
1.3332226
1.3332221
1.3332216
1.3332212
1.3332207
1.3332203
1.3332199
1.3332196
1.3332192
1.3332189
1.3332186
1.3332184
1.3332182
1.333218
1.3332179
1.3332178
1.3332177
1.3332177
1.3332177
1.3332177
1.3332177
1.3332177
1.3332177
1.3332178
1.3332179
1.333218
1.333218
1.3332181
1.3332181
1.3332181
1.3332181
1.3332181
1.333218
1.3332178
1.3332175
1.333217
1.3332164
1.3332158
1.333215
1.3332142
1.3332133
1.3332123
1.3332113
1.3332102
1.3332091
1.3332079
1.3332067
1.3332055
1.3332043
1.3332031
1.3332019
1.3332008
1.3331997
1.3331987
1.3331977
1.3331968
1.333196
1.3331953
1.3331948
1.3331944
1.3331941
1.3331939
1.3331937
1.3331935
1.3331931
1.3331922
1.33319
1.333185
1.3331727
1.3331425
1.3330684
1.3328852
1.3324373
1.3313641
1.3296737
1.3275411
1.3249796
1.3220247
1.3187292
1.3151596
1.3113913
1.307504
1.303577
1.2996855
1.2958974
1.2922707
1.2888522
1.285677
1.2827687
1.28014
1.2777939
1.2757253
1.2739227
1.2723695
1.2710457
1.2699295
1.2689979
1.2682284
1.2675989
1.2670891
1.2666802
1.2663554
1.2660999
1.2659009
1.2657474
1.2656303
1.2655419
1.265476
1.2654274
1.2653922
1.2653671
1.2653496
1.2653378
1.26533
1.2653253
1.2653226
1.2653215
1.2653212
1.2653212
1.2653218
1.2653234
1.2653254
1.2653273
1.2653292
1.265331
1.2653327
1.2653344
1.265336
1.2653376
1.2653391
1.2653407
1.2653423
1.2653439
1.2653455
1.2653472
1.2653489
1.2653507
1.2653525
1.2653544
1.2653563
1.2653583
1.2653603
1.2653624
1.2653644
1.2653665
1.2653685
1.2653705
1.2653726
1.2653745
1.2653765
1.2653784
1.2653802
1.265382
1.2653837
1.2653853
1.2653869
1.2653884
1.2653898
1.2653912
1.2653925
1.2653937
1.2653949
1.265396
1.2653971
1.2653981
1.2653991
1.2654
1.2654009
1.2654018
1.2654026
1.2654034
1.2654041
1.2654049
1.2654056
1.2654063
1.265407
1.2654076
1.2654083
1.2654089
1.2654095
1.2654101
1.2654106
1.2654112
1.2654118
1.2654123
1.2654128
1.2654133
1.2654138
1.2654143
1.2654148
1.2654153
1.2654158
1.2654162
1.2654167
1.2654172
1.2654176
1.265418
1.2654185
1.2654189
1.2654193
1.2654197
1.2654201
1.2654205
1.2654209
1.2654213
1.2654217
1.265422
1.2654224
1.2654228
1.2654231
1.2654235
1.2654238
1.2654242
1.2654245
1.2654249
1.2654252
1.2654255
1.2654258
1.2654262
1.2654265
1.2654268
1.2654271
1.2654274
1.2654277
1.265428
1.2654283
1.2654285
1.2654288
1.2654291
1.2654294
1.2654296
1.2654299
1.2654302
1.2654304
1.2654307
1.265431
1.2654312
1.2654315
1.2654317
1.265432
1.2654322
1.2654325
1.2654327
1.265433
1.2654332
1.2654334
1.2654337
1.2654339
1.2654341
1.2654343
1.2654345
1.2654348
1.265435
1.2654352
1.2654354
1.2654356
1.2654358
1.265436
1.2654362
1.2654364
1.2654366
1.2654368
1.265437
1.2654372
1.2654374
1.2654376
1.2654378
1.265438
1.2654382
1.2654384
1.2654386
1.2654387
1.2654389
1.2654391
1.2654393
1.2654394
1.2654396
1.2654398
1.2654399
1.2654401
1.2654403
1.2654404
1.2654406
1.2654408