/*--------------------------------*- C++ -*----------------------------------*\
  =========                 |
  \\      /  F ield         | OpenFOAM: The Open Source CFD Toolbox
   \\    /   O peration     | Website:  https://openfoam.org
    \\  /    A nd           | Version:  7
     \\/     M anipulation  |
\*---------------------------------------------------------------------------*/
FoamFile
{
    version     2.0;
    format      ascii;
    class       volScalarField;
    location    "0.00241";
    object      Ux;
}
// * * * * * * * * * * * * * * * * * * * * * * * * * * * * * * * * * * * * * //

dimensions      [0 1 -1 0 0 0 0];

internalField   nonuniform List<scalar> 
5000
(
23.100367
23.100366
23.100365
23.100364
23.100363
23.100363
23.100363
23.100363
23.100362
23.100362
23.100361
23.10036
23.10036
23.100359
23.100359
23.100358
23.100358
23.100357
23.100357
23.100356
23.100356
23.100355
23.100355
23.100354
23.100354
23.100353
23.100353
23.100352
23.100352
23.100351
23.100351
23.10035
23.100349
23.100349
23.100348
23.100348
23.100348
23.100347
23.100347
23.100346
23.100346
23.100345
23.100345
23.100344
23.100344
23.100343
23.100343
23.100342
23.100342
23.100341
23.100341
23.10034
23.10034
23.100339
23.100339
23.100338
23.100338
23.100337
23.100337
23.100337
23.100336
23.100336
23.100335
23.100335
23.100334
23.100334
23.100333
23.100333
23.100332
23.100332
23.100331
23.100331
23.10033
23.10033
23.100329
23.100329
23.100329
23.100328
23.100328
23.100328
23.100329
23.100329
23.100326
23.100325
23.100325
23.100325
23.100324
23.100323
23.100323
23.100322
23.100322
23.100322
23.100321
23.100321
23.10032
23.10032
23.100319
23.100319
23.100319
23.100318
23.100318
23.100317
23.100316
23.100316
23.100316
23.100315
23.100315
23.100314
23.100314
23.100313
23.100313
23.100313
23.100312
23.100312
23.100311
23.100311
23.10031
23.10031
23.10031
23.100309
23.100309
23.100308
23.100308
23.100307
23.100307
23.100307
23.100306
23.100306
23.100305
23.100305
23.100304
23.100304
23.100304
23.100303
23.100303
23.100302
23.100302
23.100301
23.100301
23.1003
23.1003
23.1003
23.100299
23.100299
23.100298
23.100298
23.100298
23.100297
23.100297
23.100296
23.100296
23.100295
23.100295
23.100295
23.100294
23.100294
23.100293
23.100293
23.100292
23.100292
23.100292
23.100291
23.100291
23.10029
23.10029
23.100289
23.100289
23.100289
23.100288
23.100288
23.100287
23.100287
23.100286
23.100286
23.100286
23.100285
23.100285
23.100284
23.100284
23.100283
23.100283
23.100283
23.100282
23.100282
23.100281
23.100281
23.10028
23.10028
23.100279
23.100279
23.100279
23.100278
23.100278
23.100277
23.100277
23.100276
23.100276
23.100276
23.100275
23.100275
23.100274
23.100274
23.100273
23.100273
23.100273
23.100272
23.100272
23.100271
23.100271
23.10027
23.10027
23.10027
23.100269
23.100269
23.100268
23.100268
23.100267
23.100267
23.100267
23.100266
23.100266
23.100265
23.100265
23.100264
23.100264
23.100264
23.100263
23.100263
23.100262
23.100262
23.100261
23.100261
23.100261
23.10026
23.10026
23.100259
23.100259
23.100258
23.100258
23.100257
23.100257
23.100257
23.100256
23.100256
23.100255
23.100255
23.100254
23.100254
23.100254
23.100253
23.100253
23.100252
23.100252
23.100251
23.100251
23.100251
23.10025
23.10025
23.100249
23.100249
23.100249
23.100248
23.100248
23.100247
23.100247
23.100246
23.100246
23.100246
23.100245
23.100245
23.100244
23.100244
23.100243
23.100243
23.100243
23.100242
23.100242
23.100241
23.100241
23.100241
23.10024
23.10024
23.100239
23.100239
23.100238
23.100238
23.100238
23.100237
23.100237
23.100236
23.100236
23.100236
23.100235
23.100235
23.100234
23.100234
23.100234
23.100233
23.100233
23.100232
23.100232
23.100231
23.100231
23.100231
23.10023
23.10023
23.100229
23.100229
23.100229
23.100228
23.100228
23.100228
23.100227
23.100227
23.100226
23.100226
23.100225
23.100225
23.100225
23.100225
23.100224
23.100224
23.100223
23.100223
23.100222
23.100222
23.100222
23.100221
23.100221
23.100221
23.10022
23.10022
23.100219
23.100219
23.100219
23.100218
23.100218
23.100217
23.100217
23.100217
23.100216
23.100216
23.100216
23.100215
23.100215
23.100214
23.100214
23.100214
23.100213
23.100213
23.100213
23.100212
23.100212
23.100212
23.100211
23.100211
23.10021
23.10021
23.10021
23.100209
23.100209
23.100209
23.100208
23.100208
23.100208
23.100207
23.100207
23.100206
23.100206
23.100206
23.100205
23.100205
23.100204
23.100204
23.100204
23.100204
23.100203
23.100203
23.100202
23.100202
23.100202
23.100201
23.100201
23.100201
23.1002
23.1002
23.1002
23.100199
23.100199
23.100199
23.100198
23.100198
23.100198
23.100197
23.100197
23.100197
23.100196
23.100196
23.100196
23.100195
23.100195
23.100194
23.100194
23.100194
23.100194
23.100193
23.100193
23.100192
23.100192
23.100192
23.100191
23.100191
23.100191
23.10019
23.10019
23.10019
23.100189
23.100189
23.100189
23.100188
23.100188
23.100188
23.100187
23.100187
23.100187
23.100186
23.100186
23.100186
23.100185
23.100185
23.100185
23.100184
23.100184
23.100183
23.100183
23.100183
23.100183
23.100182
23.100182
23.100181
23.100181
23.100181
23.100181
23.10018
23.10018
23.10018
23.100179
23.100179
23.100178
23.100178
23.100178
23.100178
23.100177
23.100177
23.100177
23.100176
23.100176
23.100176
23.100175
23.100175
23.100175
23.100174
23.100174
23.100174
23.100173
23.100173
23.100173
23.100172
23.100172
23.100172
23.100171
23.100171
23.100171
23.10017
23.10017
23.10017
23.10017
23.100169
23.100169
23.100169
23.100168
23.100168
23.100168
23.100167
23.100167
23.100167
23.100166
23.100166
23.100166
23.100165
23.100165
23.100165
23.100164
23.100164
23.100164
23.100163
23.100163
23.100163
23.100162
23.100162
23.100162
23.100161
23.100161
23.100161
23.100161
23.10016
23.10016
23.100159
23.100159
23.100159
23.100159
23.100158
23.100158
23.100158
23.100157
23.100157
23.100157
23.100156
23.100156
23.100156
23.100155
23.100155
23.100155
23.100154
23.100154
23.100154
23.100154
23.100153
23.100153
23.100153
23.100152
23.100152
23.100152
23.100151
23.100151
23.100151
23.10015
23.10015
23.10015
23.100149
23.100149
23.100149
23.100149
23.100148
23.100148
23.100148
23.100147
23.100147
23.100147
23.100146
23.100146
23.100146
23.100145
23.100145
23.100145
23.100145
23.100144
23.100144
23.100143
23.100143
23.100143
23.100143
23.100142
23.100142
23.100142
23.100141
23.100141
23.100141
23.100141
23.10014
23.10014
23.100139
23.100139
23.100139
23.100139
23.100138
23.100138
23.100138
23.100137
23.100137
23.100137
23.100137
23.100136
23.100136
23.100135
23.100135
23.100135
23.100135
23.100135
23.100134
23.100134
23.100133
23.100133
23.100133
23.100133
23.100132
23.100132
23.100132
23.100131
23.100131
23.100131
23.10013
23.10013
23.10013
23.10013
23.10013
23.100129
23.100129
23.100129
23.100128
23.100128
23.100128
23.100128
23.100127
23.100127
23.100127
23.100126
23.100126
23.100126
23.100126
23.100125
23.100125
23.100125
23.100124
23.100124
23.100124
23.100124
23.100123
23.100123
23.100123
23.100123
23.100122
23.100122
23.100122
23.100122
23.100121
23.100121
23.100121
23.100121
23.10012
23.10012
23.10012
23.10012
23.100119
23.100119
23.100119
23.100118
23.100118
23.100118
23.100118
23.100117
23.100117
23.100117
23.100117
23.100116
23.100116
23.100116
23.100116
23.100115
23.100115
23.100115
23.100115
23.100114
23.100114
23.100114
23.100114
23.100113
23.100113
23.100113
23.100113
23.100112
23.100112
23.100112
23.100112
23.100111
23.100111
23.100111
23.100111
23.100111
23.10011
23.10011
23.10011
23.10011
23.100109
23.100109
23.100109
23.100109
23.100108
23.100108
23.100108
23.100108
23.100108
23.100107
23.100107
23.100107
23.100107
23.100106
23.100106
23.100106
23.100106
23.100105
23.100105
23.100105
23.100105
23.100105
23.100104
23.100104
23.100104
23.100104
23.100104
23.100103
23.100103
23.100103
23.100103
23.100103
23.100102
23.100102
23.100102
23.100102
23.100101
23.100101
23.100101
23.100101
23.100101
23.1001
23.1001
23.1001
23.1001
23.100099
23.100099
23.100099
23.100099
23.100099
23.100098
23.100098
23.100098
23.100098
23.100098
23.100097
23.100097
23.100097
23.100097
23.100097
23.100096
23.100096
23.100096
23.100096
23.100096
23.100095
23.100095
23.100095
23.100095
23.100095
23.100094
23.100094
23.100094
23.100094
23.100094
23.100093
23.100093
23.100093
23.100093
23.100093
23.100092
23.100092
23.100092
23.100092
23.100092
23.100091
23.100091
23.100091
23.100091
23.100091
23.10009
23.10009
23.10009
23.10009
23.100089
23.100089
23.100089
23.100089
23.100089
23.100088
23.100088
23.100088
23.100088
23.100088
23.100087
23.100087
23.100087
23.100087
23.100086
23.100086
23.100086
23.100086
23.100086
23.100085
23.100085
23.100085
23.100085
23.100085
23.100084
23.100084
23.100084
23.100084
23.100084
23.100083
23.100083
23.100083
23.100083
23.100082
23.100082
23.100082
23.100082
23.100081
23.100081
23.100081
23.100081
23.100081
23.10008
23.10008
23.10008
23.10008
23.100079
23.100079
23.100079
23.100079
23.100078
23.100078
23.100078
23.100078
23.100078
23.100077
23.100077
23.100077
23.100077
23.100076
23.100076
23.100076
23.100076
23.100075
23.100075
23.100075
23.100075
23.100074
23.100074
23.100074
23.100074
23.100073
23.100073
23.100073
23.100073
23.100072
23.100072
23.100072
23.100072
23.100071
23.100071
23.100071
23.100071
23.10007
23.10007
23.10007
23.100069
23.100069
23.100069
23.100069
23.100068
23.100068
23.100068
23.100067
23.100067
23.100067
23.100067
23.100066
23.100066
23.100066
23.100065
23.100065
23.100065
23.100065
23.100064
23.100064
23.100064
23.100063
23.100063
23.100063
23.100062
23.100062
23.100062
23.100061
23.100061
23.100061
23.100061
23.10006
23.10006
23.10006
23.100059
23.100059
23.100059
23.100058
23.100058
23.100058
23.100057
23.100057
23.100057
23.100056
23.100056
23.100055
23.100055
23.100055
23.100054
23.100054
23.100054
23.100053
23.100053
23.100053
23.100052
23.100052
23.100052
23.100051
23.100051
23.10005
23.10005
23.10005
23.100049
23.100049
23.100049
23.100048
23.100048
23.100047
23.100047
23.100047
23.100046
23.100046
23.100046
23.100045
23.100045
23.100044
23.100044
23.100044
23.100043
23.100043
23.100042
23.100042
23.100041
23.100041
23.100041
23.10004
23.10004
23.100039
23.100039
23.100038
23.100038
23.100038
23.100037
23.100037
23.100036
23.100036
23.100035
23.100035
23.100035
23.100034
23.100034
23.100033
23.100033
23.100032
23.100032
23.100031
23.100031
23.10003
23.10003
23.10003
23.100029
23.100029
23.100028
23.100028
23.100027
23.100027
23.100026
23.100026
23.100025
23.100025
23.100024
23.100024
23.100023
23.100023
23.100022
23.100022
23.100021
23.100021
23.10002
23.10002
23.100019
23.100019
23.100018
23.100018
23.100017
23.100017
23.100016
23.100016
23.100015
23.100015
23.100014
23.100014
23.100013
23.100013
23.100012
23.100012
23.100011
23.10001
23.10001
23.100009
23.100009
23.100008
23.100008
23.100007
23.100007
23.100006
23.100005
23.100005
23.100004
23.100004
23.100003
23.100003
23.100002
23.100001
23.100001
23.1
23.1
23.099999
23.099998
23.099998
23.099997
23.099997
23.099996
23.099995
23.099995
23.099994
23.099994
23.099993
23.099992
23.099992
23.099991
23.09999
23.09999
23.099989
23.099988
23.099988
23.099987
23.099987
23.099986
23.099985
23.099985
23.099984
23.099983
23.099983
23.099982
23.099981
23.09998
23.09998
23.099979
23.099978
23.099978
23.099977
23.099976
23.099975
23.099975
23.099974
23.099973
23.099973
23.099972
23.099971
23.09997
23.09997
23.099969
23.099968
23.099967
23.099966
23.099966
23.099965
23.099964
23.099963
23.099963
23.099962
23.099961
23.09996
23.099959
23.099958
23.099958
23.099957
23.099956
23.099955
23.099954
23.099953
23.099952
23.099951
23.099951
23.09995
23.099949
23.099948
23.099947
23.099946
23.099945
23.099944
23.099943
23.099942
23.099941
23.09994
23.099939
23.099938
23.099937
23.099936
23.099935
23.099933
23.099932
23.099931
23.09993
23.099929
23.099928
23.099927
23.099925
23.099924
23.099923
23.099922
23.09992
23.099919
23.099917
23.099916
23.099915
23.099913
23.099912
23.09991
23.099909
23.099907
23.099906
23.099904
23.099902
23.099901
23.099899
23.099897
23.099895
23.099894
23.099892
23.09989
23.099888
23.099886
23.099884
23.099882
23.099879
23.099877
23.099875
23.099872
23.09987
23.099868
23.099865
23.099862
23.09986
23.099857
23.099854
23.099851
23.099848
23.099845
23.099842
23.099839
23.099835
23.099832
23.099828
23.099825
23.099821
23.099817
23.099813
23.099809
23.099804
23.0998
23.099795
23.099791
23.099786
23.099781
23.099776
23.099771
23.099765
23.09976
23.099754
23.099748
23.099742
23.099735
23.099729
23.099722
23.099715
23.099708
23.0997
23.099693
23.099685
23.099677
23.099668
23.09966
23.099651
23.099642
23.099632
23.099622
23.099612
23.099602
23.099591
23.09958
23.099568
23.099557
23.099544
23.099532
23.099519
23.099506
23.099492
23.099478
23.099463
23.099448
23.099432
23.099416
23.0994
23.099383
23.099365
23.099347
23.099328
23.099309
23.099289
23.099269
23.099248
23.099226
23.099203
23.09918
23.099157
23.099132
23.099107
23.099081
23.099054
23.099027
23.098998
23.098969
23.098939
23.098908
23.098877
23.098844
23.09881
23.098775
23.09874
23.098703
23.098665
23.098626
23.098586
23.098545
23.098503
23.098459
23.098415
23.098369
23.098321
23.098273
23.098223
23.098171
23.098119
23.098064
23.098009
23.097951
23.097893
23.097832
23.09777
23.097706
23.097641
23.097574
23.097505
23.097434
23.097361
23.097287
23.09721
23.097132
23.097051
23.096968
23.096884
23.096797
23.096707
23.096616
23.096522
23.096426
23.096327
23.096226
23.096123
23.096017
23.095908
23.095797
23.095682
23.095565
23.095446
23.095323
23.095198
23.095069
23.094937
23.094803
23.094665
23.094524
23.094379
23.094232
23.094081
23.093926
23.093768
23.093606
23.093441
23.093272
23.093099
23.092923
23.092742
23.092558
23.092369
23.092177
23.09198
23.091779
23.091573
23.091364
23.09115
23.090931
23.090708
23.09048
23.090248
23.090011
23.089769
23.089522
23.08927
23.089013
23.08875
23.088483
23.08821
23.087933
23.087649
23.08736
23.087066
23.086766
23.08646
23.086149
23.085831
23.085508
23.085178
23.084843
23.084502
23.084154
23.0838
23.083439
23.083073
23.082699
23.082319
23.081932
23.081539
23.081139
23.080732
23.080318
23.079897
23.079469
23.079033
23.078591
23.078141
23.077684
23.077219
23.076747
23.076267
23.075779
23.075284
23.074781
23.074269
23.07375
23.073223
23.072688
23.072145
23.071593
23.071034
23.070465
23.069889
23.069304
23.06871
23.068107
23.067496
23.066877
23.066248
23.065611
23.064964
23.064309
23.063644
23.06297
23.062288
23.061596
23.060894
23.060184
23.059463
23.058734
23.057995
23.057246
23.056488
23.05572
23.054942
23.054155
23.053358
23.052551
23.051734
23.050907
23.05007
23.049223
23.048366
23.047498
23.046621
23.045734
23.044836
23.043928
23.04301
23.042081
23.041142
23.040192
23.039233
23.038262
23.037282
23.03629
23.035289
23.034276
23.033253
23.03222
23.031176
23.030121
23.029056
23.02798
23.026893
23.025795
23.024687
23.023568
23.022439
23.021299
23.020148
23.018986
23.017813
23.01663
23.015436
23.014232
23.013016
23.01179
23.010553
23.009306
23.008048
23.006779
23.005499
23.004209
23.002908
23.001596
23.000274
22.998942
22.997598
22.996244
22.99488
22.993505
22.99212
22.990724
22.989318
22.987901
22.986474
22.985037
22.98359
22.982132
22.980664
22.979186
22.977698
22.9762
22.974691
22.973173
22.971645
22.970107
22.968559
22.967001
22.965434
22.963856
22.96227
22.960673
22.959067
22.957452
22.955828
22.954194
22.95255
22.950898
22.949236
22.947566
22.945886
22.944198
22.9425
22.940794
22.939079
22.937356
22.935624
22.933883
22.932134
22.930377
22.928611
22.926838
22.925056
22.923266
22.921469
22.919663
22.91785
22.916029
22.914201
22.912365
22.910522
22.908671
22.906813
22.904948
22.903077
22.901198
22.899312
22.89742
22.895521
22.893616
22.891704
22.889786
22.887861
22.885931
22.883994
22.882052
22.880103
22.878149
22.87619
22.874225
22.872254
22.870279
22.868298
22.866312
22.864321
22.862325
22.860324
22.858319
22.856309
22.854295
22.852277
22.850254
22.848227
22.846197
22.844162
22.842124
22.840082
22.838036
22.835987
22.833935
22.83188
22.829821
22.82776
22.825696
22.823629
22.821559
22.819488
22.817413
22.815336
22.813258
22.811177
22.809094
22.80701
22.804923
22.802836
22.800746
22.798656
22.796564
22.794471
22.792377
22.790282
22.788187
22.78609
22.783993
22.781896
22.779799
22.777701
22.775603
22.773505
22.771408
22.76931
22.767213
22.765116
22.76302
22.760925
22.75883
22.756736
22.754644
22.752552
22.750462
22.748373
22.746285
22.744199
22.742115
22.740032
22.737951
22.735873
22.733796
22.731721
22.729649
22.727579
22.725511
22.723446
22.721384
22.719325
22.717268
22.715214
22.713164
22.711116
22.709072
22.707031
22.704993
22.702959
22.700929
22.698902
22.696879
22.69486
22.692845
22.690834
22.688827
22.686824
22.684826
22.682831
22.680842
22.678857
22.676876
22.674901
22.672929
22.670963
22.669002
22.667046
22.665095
22.663148
22.661208
22.659272
22.657342
22.655417
22.653498
22.651584
22.649676
22.647773
22.645876
22.643986
22.6421
22.640221
22.638348
22.636481
22.63462
22.632765
22.630916
22.629074
22.627237
22.625407
22.623584
22.621767
22.619956
22.618152
22.616355
22.614564
22.61278
22.611003
22.609232
22.607468
22.605711
22.603961
22.602218
22.600481
22.598752
22.59703
22.595314
22.593606
22.591905
22.590211
22.588524
22.586844
22.585171
22.583506
22.581848
22.580197
22.578553
22.576917
22.575288
22.573667
22.572052
22.570446
22.568846
22.567254
22.565669
22.564092
22.562522
22.56096
22.559405
22.557858
22.556318
22.554786
22.553261
22.551743
22.550233
22.548731
22.547236
22.545749
22.544269
22.542797
22.541332
22.539874
22.538425
22.536982
22.535548
22.53412
22.532701
22.531288
22.529884
22.528486
22.527097
22.525714
22.524339
22.522972
22.521612
22.520259
22.518914
22.517577
22.516246
22.514923
22.513608
22.5123
22.510999
22.509705
22.508419
22.507141
22.505869
22.504605
22.503348
22.502098
22.500856
22.49962
22.498392
22.497172
22.495958
22.494751
22.493552
22.49236
22.491174
22.489996
22.488825
22.487661
22.486504
22.485354
22.484211
22.483075
22.481946
22.480824
22.479709
22.4786
22.477499
22.476404
22.475316
22.474235
22.473161
22.472094
22.471033
22.469979
22.468931
22.46789
22.466856
22.465829
22.464808
22.463794
22.462786
22.461785
22.460791
22.459802
22.458821
22.457846
22.456877
22.455914
22.454959
22.454009
22.453066
22.452129
22.451198
22.450274
22.449356
22.448444
22.447539
22.44664
22.445746
22.444859
22.443979
22.443104
22.442235
22.441373
22.440516
22.439666
22.438821
22.437983
22.437151
22.436324
22.435504
22.434689
22.43388
22.433078
22.432281
22.43149
22.430704
22.429925
22.429151
22.428383
22.427621
22.426864
22.426114
22.425369
22.424629
22.423896
22.423167
22.422445
22.421728
22.421017
22.420311
22.419611
22.418916
22.418227
22.417543
22.416865
22.416192
22.415525
22.414863
22.414206
22.413555
22.412909
22.412269
22.411633
22.411004
22.410379
22.40976
22.409146
22.408537
22.407933
22.407335
22.406741
22.406153
22.40557
22.404992
22.404419
22.403852
22.403289
22.402731
22.402179
22.401631
22.401088
22.400551
22.400018
22.39949
22.398967
22.398449
22.397936
22.397428
22.396924
22.396426
22.395932
22.395443
22.394958
22.394479
22.394004
22.393533
22.393068
22.392607
22.39215
22.391699
22.391251
22.390809
22.390371
22.389937
22.389508
22.389083
22.388663
22.388247
22.387836
22.387429
22.387027
22.386628
22.386234
22.385845
22.385459
22.385078
22.384701
22.384329
22.38396
22.383596
22.383235
22.382879
22.382527
22.382179
22.381835
22.381495
22.381159
22.380827
22.380499
22.380175
22.379854
22.379538
22.379225
22.378916
22.378611
22.37831
22.378012
22.377718
22.377428
22.377141
22.376858
22.376579
22.376303
22.376031
22.375762
22.375497
22.375235
22.374977
22.374722
22.374471
22.374222
22.373977
22.373736
22.373498
22.373263
22.373031
22.372802
22.372577
22.372354
22.372135
22.371919
22.371706
22.371496
22.371289
22.371085
22.370884
22.370686
22.37049
22.370298
22.370108
22.369921
22.369737
22.369556
22.369378
22.369202
22.369029
22.368858
22.36869
22.368525
22.368362
22.368202
22.368044
22.367889
22.367737
22.367586
22.367438
22.367293
22.367149
22.367009
22.36687
22.366734
22.3666
22.366468
22.366338
22.366211
22.366085
22.365962
22.365841
22.365722
22.365605
22.36549
22.365377
22.365266
22.365156
22.365049
22.364944
22.36484
22.364739
22.364639
22.364541
22.364444
22.36435
22.364257
22.364166
22.364076
22.363989
22.363902
22.363818
22.363735
22.363653
22.363574
22.363495
22.363418
22.363343
22.363269
22.363196
22.363125
22.363055
22.362987
22.36292
22.362854
22.36279
22.362726
22.362665
22.362604
22.362545
22.362486
22.362429
22.362373
22.362319
22.362265
22.362213
22.362161
22.362111
22.362062
22.362013
22.361966
22.36192
22.361875
22.361831
22.361787
22.361745
22.361703
22.361663
22.361623
22.361584
22.361547
22.36151
22.361473
22.361438
22.361403
22.361369
22.361336
22.361304
22.361272
22.361241
22.361211
22.361182
22.361153
22.361125
22.361098
22.361071
22.361045
22.361019
22.360994
22.36097
22.360946
22.360923
22.3609
22.360878
22.360857
22.360836
22.360815
22.360795
22.360776
22.360757
22.360738
22.36072
22.360703
22.360686
22.360669
22.360653
22.360637
22.360622
22.360607
22.360592
22.360578
22.360564
22.36055
22.360537
22.360524
22.360512
22.3605
22.360488
22.360476
22.360465
22.360454
22.360444
22.360434
22.360424
22.360414
22.360405
22.360395
22.360386
22.360378
22.360369
22.360361
22.360353
22.360346
22.360338
22.360331
22.360324
22.360317
22.36031
22.360304
22.360298
22.360292
22.360286
22.36028
22.360274
22.360269
22.360264
22.360259
22.360254
22.360249
22.360244
22.36024
22.360236
22.360231
22.360227
22.360223
22.36022
22.360216
22.360212
22.360209
22.360206
22.360202
22.360199
22.360196
22.360193
22.36019
22.360188
22.360185
22.360182
22.36018
22.360177
22.360175
22.360173
22.360171
22.360169
22.360167
22.360165
22.360163
22.360161
22.360159
22.360157
22.360156
22.360154
22.360152
22.360151
22.360149
22.360148
22.360147
22.360145
22.360144
22.360143
22.360142
22.360141
22.360139
22.360138
22.360137
22.360136
22.360135
22.360134
22.360133
22.360132
22.360132
22.360131
22.36013
22.360129
22.360128
22.360128
22.360127
22.360126
22.360125
22.360125
22.360124
22.360123
22.360123
22.360122
22.360122
22.360121
22.36012
22.36012
22.360119
22.360119
22.360118
22.360118
22.360117
22.360117
22.360116
22.360116
22.360115
22.360115
22.360114
22.360114
22.360113
22.360113
22.360112
22.360112
22.360111
22.360111
22.360111
22.36011
22.36011
22.360109
22.360109
22.360108
22.360108
22.360108
22.360107
22.360107
22.360106
22.360106
22.360106
22.360105
22.360105
22.360104
22.360104
22.360103
22.360103
22.360103
22.360102
22.360102
22.360101
22.360101
22.360101
22.3601
22.3601
22.360099
22.360099
22.360098
22.360098
22.360098
22.360097
22.360097
22.360096
22.360096
22.360095
22.360095
22.360095
22.360094
22.360094
22.360093
22.360093
22.360092
22.360092
22.360092
22.360091
22.360091
22.36009
22.36009
22.36009
22.360089
22.360089
22.360088
22.360088
22.360087
22.360087
22.360087
22.360086
22.360086
22.360085
22.360085
22.360084
22.360084
22.360084
22.360083
22.360083
22.360082
22.360082
22.360082
22.360081
22.360081
22.360081
22.36008
22.36008
22.360079
22.360079
22.360079
22.360078
22.360078
22.360078
22.360077
22.360077
22.360076
22.360076
22.360076
22.360075
22.360075
22.360075
22.360074
22.360074
22.360074
22.360074
22.360073
22.360073
22.360073
22.360072
22.360072
22.360072
22.360071
22.360071
22.360071
22.360071
22.36007
22.36007
22.36007
22.36007
22.360069
22.360069
22.360069
22.360069
22.360068
22.360068
22.360068
22.360068
22.360068
22.360067
22.360067
22.360067
22.360067
22.360067
22.360066
22.360066
22.360066
22.360066
22.360066
22.360066
22.360066
22.360065
22.360065
22.360065
22.360065
22.360065
22.360065
22.360065
22.360064
22.360064
22.360064
22.360064
22.360064
22.360064
22.360064
22.360064
22.360064
22.360063
22.360063
22.360063
22.360063
22.360063
22.360063
22.360063
22.360063
22.360063
22.360063
22.360063
22.360063
22.360063
22.360063
22.360063
22.360062
22.360062
22.360062
22.360062
22.360062
22.360062
22.360062
22.360062
22.360062
22.360062
22.360062
22.360062
22.360062
22.360062
22.360062
22.360062
22.360062
22.360062
22.360061
22.360061
22.360061
22.360061
22.360061
22.360061
22.360061
22.360061
22.360061
22.360061
22.360061
22.360061
22.360061
22.360061
22.360061
22.360061
22.360061
22.360061
22.36006
22.36006
22.36006
22.36006
22.36006
22.36006
22.36006
22.36006
22.36006
22.36006
22.36006
22.36006
22.36006
22.36006
22.360059
22.360059
22.360059
22.360059
22.360059
22.360059
22.360059
22.360059
22.360059
22.360059
22.360059
22.360058
22.360058
22.360058
22.360058
22.360058
22.360058
22.360058
22.360058
22.360058
22.360058
22.360057
22.360057
22.360057
22.360057
22.360057
22.360057
22.360057
22.360057
22.360057
22.360056
22.360056
22.360056
22.360056
22.360056
22.360056
22.360056
22.360056
22.360055
22.360055
22.360055
22.360055
22.360055
22.360055
22.360055
22.360054
22.360054
22.360054
22.360054
22.360054
22.360054
22.360054
22.360053
22.360053
22.360053
22.360053
22.360053
22.360053
22.360053
22.360052
22.360052
22.360052
22.360052
22.360052
22.360052
22.360052
22.360051
22.360051
22.360051
22.360051
22.360051
22.360051
22.36005
22.36005
22.36005
22.36005
22.36005
22.36005
22.360049
22.360049
22.360049
22.360049
22.360049
22.360049
22.360048
22.360048
22.360048
22.360048
22.360048
22.360047
22.360047
22.360047
22.360047
22.360047
22.360047
22.360046
22.360046
22.360046
22.360046
22.360046
22.360045
22.360045
22.360045
22.360045
22.360045
22.360044
22.360044
22.360044
22.360044
22.360044
22.360044
22.360043
22.360043
22.360043
22.360043
22.360043
22.360042
22.360042
22.360042
22.360042
22.360041
22.360041
22.360041
22.360041
22.360041
22.36004
22.36004
22.36004
22.36004
22.36004
22.360039
22.360039
22.360039
22.360039
22.360038
22.360038
22.360038
22.360038
22.360038
22.360037
22.360037
22.360037
22.360037
22.360036
22.360036
22.360036
22.360036
22.360035
22.360035
22.360035
22.360035
22.360035
22.360034
22.360034
22.360034
22.360034
22.360033
22.360033
22.360033
22.360033
22.360032
22.360032
22.360032
22.360032
22.360032
22.360031
22.360031
22.360031
22.360031
22.36003
22.36003
22.36003
22.36003
22.36003
22.360029
22.360029
22.360029
22.360029
22.360028
22.360028
22.360028
22.360028
22.360028
22.360027
22.360027
22.360027
22.360027
22.360027
22.360026
22.360026
22.360026
22.360026
22.360025
22.360025
22.360025
22.360025
22.360025
22.360024
22.360024
22.360024
22.360024
22.360024
22.360024
22.360023
22.360023
22.360023
22.360023
22.360023
22.360022
22.360022
22.360022
22.360022
22.360022
22.360022
22.360021
22.360021
22.360021
22.360021
22.360021
22.360021
22.36002
22.36002
22.36002
22.36002
22.36002
22.36002
22.36002
22.360019
22.360019
22.360019
22.360019
22.360019
22.360019
22.360019
22.360019
22.360018
22.360018
22.360018
22.360018
22.360018
22.360018
22.360018
22.360018
22.360017
22.360017
22.360017
22.360017
22.360017
22.360017
22.360017
22.360017
22.360017
22.360017
22.360016
22.360016
22.360016
22.360016
22.360016
22.360016
22.360016
22.360016
22.360016
22.360016
22.360015
22.360015
22.360015
22.360015
22.360015
22.360015
22.360015
22.360015
22.360015
22.360015
22.360015
22.360014
22.360014
22.360014
22.360014
22.360014
22.360014
22.360014
22.360014
22.360014
22.360014
22.360014
22.360013
22.360013
22.360013
22.360013
22.360013
22.360013
22.360013
22.360013
22.360013
22.360013
22.360012
22.360012
22.360012
22.360012
22.360012
22.360012
22.360012
22.360012
22.360011
22.360011
22.360011
22.360011
22.360011
22.360011
22.360011
22.36001
22.36001
22.36001
22.36001
22.36001
22.36001
22.360009
22.360009
22.360009
22.360009
22.360009
22.360009
22.360009
22.360009
22.360008
22.360008
22.360008
22.360008
22.360008
22.360008
22.360007
22.360007
22.360007
22.360007
22.360007
22.360007
22.360007
22.360006
22.360006
22.360006
22.360006
22.360005
22.360005
22.360004
22.360003
22.360003
22.360002
22.360002
22.360001
22.360002
22.360002
22.360003
22.360005
22.360007
22.360008
22.36001
22.36001
22.360009
22.360007
22.360002
22.359997
22.359991
22.35999
22.36
22.360037
22.36015
22.360444
22.361143
22.360875
22.359913
22.359861
22.359971
22.359965
22.359947
22.359947
22.35995
22.359952
22.359956
22.359961
22.359967
22.359974
22.35998
22.359986
22.359992
22.359997
22.360001
22.360005
22.360008
22.36001
22.360012
22.360013
22.360015
22.360015
22.360016
22.360016
22.360017
22.360017
22.360017
22.360017
22.360017
22.360016
22.360016
22.360016
22.360016
22.360016
22.360015
22.360015
22.360015
22.360015
22.360015
22.360014
22.360014
22.360014
22.360012
22.360009
22.360011
22.360014
22.360013
22.360013
22.360013
22.360013
22.360013
22.360013
22.360012
22.360012
22.360012
22.360012
22.360012
22.360012
22.360012
22.360011
22.360011
22.360011
22.360011
22.360011
22.360011
22.36001
22.36001
22.36001
22.36001
22.36001
22.36001
22.36001
22.360009
22.360009
22.360009
22.360009
22.360009
22.360008
22.360008
22.360008
22.360008
22.360008
22.360008
22.360007
22.360007
22.360007
22.360007
22.360007
22.360007
22.360006
22.360006
22.360006
22.360006
22.360006
22.360006
22.360005
22.360005
22.360005
22.360005
22.360005
22.360005
22.360004
22.360004
22.360004
22.360004
22.360004
22.360004
22.360003
22.360003
22.360003
22.360003
22.360003
22.360003
22.360002
22.360002
22.360002
22.360002
22.360002
22.360002
22.360002
22.360001
22.360001
22.360001
22.360001
22.360001
22.360001
22.360001
22.36
22.36
22.36
22.36
22.36
22.36
22.36
22.359999
22.359999
22.359999
22.359999
22.359999
22.359999
22.359998
22.359998
22.359998
22.359998
22.359998
22.359998
22.359998
22.359997
22.359997
22.359997
22.359997
22.359997
22.359997
22.359997
22.359996
22.359996
22.359996
22.359996
22.359996
22.359996
22.359995
22.359995
22.359995
22.359995
22.359995
22.359995
22.359995
22.359994
22.359994
22.359994
22.359994
22.359994
22.359994
22.359994
22.359994
22.359993
22.359993
22.359993
22.359993
22.359993
22.359993
22.359993
22.359993
22.359993
22.359993
22.359993
22.359992
22.359992
22.359992
22.359992
22.359992
22.359992
22.359992
22.359992
22.359992
22.359992
22.359992
22.359992
22.359992
22.359992
22.359992
22.359992
22.359992
22.359992