/*--------------------------------*- C++ -*----------------------------------*\
| =========                 |                                                 |
| \\      /  F ield         | OpenFOAM: The Open Source CFD Toolbox           |
|  \\    /   O peration     | Version:  4.x                                   |
|   \\  /    A nd           | Web:      www.OpenFOAM.org                      |
|    \\/     M anipulation  |                                                 |
\*---------------------------------------------------------------------------*/
FoamFile
{
    version     2.0;
    format      ascii;
    class       volVectorField;
    location    "0.8";
    object      U;
}
// * * * * * * * * * * * * * * * * * * * * * * * * * * * * * * * * * * * * * //

dimensions      [0 1 -1 0 0 0 0];

internalField   nonuniform List<vector> 
6279
(
(0.05482494904 0.01572330349 -0.007655081174)
(0.05939201041 0.01677790306 -0.009399162127)
(0.0642093995 0.01528539961 -0.01095421865)
(0.06867871091 0.01233780868 -0.01233778887)
(0.07221789859 0.008065154648 -0.013389814)
(0.07420787662 0.002806324711 -0.01397822919)
(0.07420786601 -0.002806287185 -0.01397822557)
(0.07221787177 -0.008065113556 -0.01338980628)
(0.06867867867 -0.01233776361 -0.0123377823)
(0.06420936099 -0.01528536235 -0.01095423692)
(0.05939201195 -0.01677787555 -0.009399137555)
(0.054824995 -0.01572325766 -0.007655096289)
(0.05276750359 0.0140873779 -0.00961337777)
(0.0565551449 0.01495817708 -0.01170850868)
(0.06053648044 0.01359723233 -0.01359720138)
(0.0642094055 0.01095423675 -0.01528535477)
(0.06709780519 0.007150020318 -0.01657885304)
(0.06870090251 0.002484443673 -0.01728415607)
(0.06870089413 -0.002484414168 -0.01728415382)
(0.06709778544 -0.007149986459 -0.01657884486)
(0.0642093878 -0.01095421648 -0.01528534114)
(0.06053646231 -0.01359718752 -0.01359720234)
(0.05655524227 -0.01495813933 -0.01170837334)
(0.05276763111 -0.01408731492 -0.009613300663)
(0.05049096303 0.01227445729 -0.01078343224)
(0.05348009974 0.01293394401 -0.01293388473)
(0.05655514925 0.01170855721 -0.01495813496)
(0.05939203014 0.009399203708 -0.01677786074)
(0.0616005001 0.006116697615 -0.01818249554)
(0.06282144896 0.00212113997 -0.0189452174)
(0.0628214516 -0.00212109008 -0.01894522624)
(0.06160050899 -0.006116649152 -0.01818251472)
(0.0593920596 -0.009399178354 -0.01677787857)
(0.056555246 -0.01170841683 -0.01495812761)
(0.05348029645 -0.01293386594 -0.01293381945)
(0.05049112667 -0.01227450866 -0.01078332185)
(0.04799606302 0.01033182396 -0.01033178004)
(0.05049098353 0.01078347417 -0.01227441387)
(0.05276753947 0.009613397343 -0.01408734021)
(0.05482499534 0.00765510276 -0.01572326541)
(0.05638719108 0.004955087632 -0.01697532873)
(0.05723295256 0.001712373414 -0.01768231171)
(0.05723296786 -0.001712369571 -0.01768230061)
(0.05638723151 -0.004955067011 -0.01697530177)
(0.05482507261 -0.007655067943 -0.01572321921)
(0.05276768884 -0.009613275927 -0.01408726834)
(0.05049114748 -0.0107833477 -0.01227446174)
(0.04799617292 -0.01033180303 -0.01033177979)
(0.06013373936 0.01890092499 -0.009223340007)
(0.06589666325 0.02058990613 -0.01139843628)
(0.0717910566 0.01839936352 -0.01322525952)
(0.07706708593 0.014880164 -0.01488015582)
(0.08122907009 0.009733866379 -0.01615194006)
(0.08354315236 0.003391476491 -0.01683472761)
(0.08354313892 -0.003391454556 -0.01683472728)
(0.08122903255 -0.009733834333 -0.01615193898)
(0.07706704019 -0.01488011513 -0.01488013995)
(0.07179102284 -0.0183993007 -0.01322525654)
(0.06589674178 -0.02058983402 -0.01139839356)
(0.06013388613 -0.01890088753 -0.009223294418)
(0.05739674949 0.01706986059 -0.0115522908)
(0.06233857319 0.01844826506 -0.01419940492)
(0.06734399382 0.01641448951 -0.01641445561)
(0.0717910744 0.01322526714 -0.01839931371)
(0.07525791243 0.008615054563 -0.01992616292)
(0.07717410839 0.00299591252 -0.02075013606)
(0.07717410955 -0.002995902167 -0.02075012661)
(0.07525792063 -0.008615024978 -0.01992613793)
(0.07179110884 -0.01322523041 -0.01839926265)
(0.06734407894 -0.01641442603 -0.01641442404)
(0.06233879714 -0.01844817392 -0.01419928447)
(0.05739702699 -0.01706983188 -0.01155220041)
(0.05439079603 0.01482532607 -0.01328452704)
(0.05837066816 0.01602769793 -0.01602762991)
(0.06233858624 0.01419945935 -0.01844820847)
(0.06589669535 0.01139847596 -0.02058983831)
(0.06864438949 0.007393187629 -0.02223820463)
(0.07015255086 0.002566887358 -0.02312620434)
(0.07015258272 -0.002566837799 -0.02312619116)
(0.06864447322 -0.007393127221 -0.02223816994)
(0.06589682986 -0.01139843633 -0.02058978248)
(0.0623388157 -0.01419934843 -0.01844814347)
(0.05837088341 -0.01602757697 -0.01602751609)
(0.05439101287 -0.01482535377 -0.01328444419)
(0.05088485929 0.01237237742 -0.01237232542)
(0.05439078636 0.01328458315 -0.01482527871)
(0.05739677057 0.01155233338 -0.01706983083)
(0.06013378208 0.009223377866 -0.01890090933)
(0.06213710694 0.005940622049 -0.02042009577)
(0.06324653011 0.002058643391 -0.02119785546)
(0.06324657781 -0.00205858622 -0.02119786334)
(0.06213722832 -0.005940563726 -0.02042011468)
(0.06013394665 -0.009223337887 -0.01890094216)
(0.05739700885 -0.01155224463 -0.01706983573)
(0.0543909549 -0.01328449 -0.01482531423)
(0.05088489466 -0.01237241661 -0.01237237948)
(0.06778096281 0.02314878758 -0.01097117396)
(0.07464932566 0.02476041186 -0.01363772307)
(0.08162596604 0.02142546485 -0.01545123292)
(0.087629952 0.01697660926 -0.01697660617)
(0.09211575035 0.01093662003 -0.01811791319)
(0.09451092382 0.003774043133 -0.01874815694)
(0.09451091328 -0.003774018657 -0.01874815503)
(0.09211572986 -0.01093659639 -0.01811789941)
(0.08762994404 -0.01697656719 -0.01697655488)
(0.08162599158 -0.02142537722 -0.01545116812)
(0.07464944529 -0.02476029741 -0.01363761853)
(0.06778110137 -0.02314872988 -0.01097107832)
(0.06427184275 0.02100805786 -0.01387875124)
(0.07024980892 0.02257807538 -0.0171962429)
(0.0763312182 0.01950088267 -0.01950084478)
(0.0816259915 0.01545123807 -0.02142540866)
(0.08558619772 0.009954330716 -0.0228651473)
(0.08771974345 0.003432907001 -0.0236609661)
(0.08771975633 -0.003432875206 -0.02366094823)
(0.08558623617 -0.009954290712 -0.02286509875)
(0.08162606975 -0.01545118372 -0.0214253171)
(0.07633134352 -0.01950079117 -0.01950075403)
(0.07025001827 -0.02257796457 -0.01719611194)
(0.06427201667 -0.02100801723 -0.01387865256)
(0.06043557985 0.01852679373 -0.01652978019)
(0.06530190886 0.0199876461 -0.01998757723)
(0.07024981201 0.01719630228 -0.0225780137)
(0.07464935676 0.01363776512 -0.02476032895)
(0.07791718857 0.008769956259 -0.02639116176)
(0.07969048277 0.003019692122 -0.0272786841)
(0.07969051313 -0.003019605215 -0.02727866856)
(0.07791726513 -0.008769874646 -0.0263911199)
(0.07464947409 -0.01363769953 -0.02476026078)
(0.07024999034 -0.01719619831 -0.02257794689)
(0.06530205957 -0.01998755596 -0.01998751141)
(0.06043566013 -0.01852678865 -0.01652973206)
(0.05584769875 0.01528021969 -0.01528016824)
(0.06043556083 0.01652984239 -0.01852674585)
(0.06427182919 0.01387880902 -0.02100802398)
(0.06778097123 0.01097122248 -0.02314875205)
(0.07030313951 0.007024891099 -0.02465471121)
(0.07163959419 0.002409537077 -0.02553288144)
(0.07163961529 -0.002409447679 -0.02553288902)
(0.07030319283 -0.007024810298 -0.02465472637)
(0.06778103228 -0.01097116323 -0.02314878017)
(0.06427191696 -0.01387873274 -0.02100804967)
(0.06043557877 -0.0165297717 -0.01852679237)
(0.0558476637 -0.01528024942 -0.01528023587)
(0.07901318146 0.0292275231 -0.01482768138)
(0.08723653129 0.03168770289 -0.01769770265)
(0.09556041198 0.02704385747 -0.01974860085)
(0.1023882156 0.02159773993 -0.02159773507)
(0.1076781129 0.01386936826 -0.02299008837)
(0.1105987425 0.004804096644 -0.02370021887)
(0.1105987364 -0.004804078809 -0.02370021088)
(0.1076781011 -0.01386933468 -0.02299006946)
(0.1023882191 -0.02159768734 -0.02159768194)
(0.09556043684 -0.02704376366 -0.01974854094)
(0.08723661203 -0.03168758326 -0.01769761511)
(0.07901326266 -0.02922744199 -0.01482759715)
(0.07451009885 0.0272781667 -0.01844579979)
(0.08189316549 0.02921854364 -0.02213957835)
(0.08943889027 0.02476509951 -0.02476506576)
(0.09556043739 0.01974860451 -0.02704380752)
(0.1002348254 0.01260638853 -0.02878620623)
(0.1027766234 0.004356995652 -0.02966806274)
(0.1027766288 -0.004356972914 -0.02966804383)
(0.1002348397 -0.01260634532 -0.02878616485)
(0.09556047594 -0.01974854454 -0.02704372456)
(0.08943894695 -0.02476500996 -0.02476498388)
(0.08189326983 -0.02921844011 -0.0221394781)
(0.07451018091 -0.02727809505 -0.01844572538)
(0.06941458015 0.02396587965 -0.02240018437)
(0.07553667535 0.02609512837 -0.02609506911)
(0.08189316291 0.02213962815 -0.02921848713)
(0.08723655133 0.01769773404 -0.03168762931)
(0.09122484807 0.01125027521 -0.03368593898)
(0.0933959086 0.003892021216 -0.0347009012)
(0.09339592174 -0.003891952443 -0.03470088521)
(0.09122488343 -0.01125019874 -0.03368590015)
(0.08723659987 -0.01769766498 -0.0316875673)
(0.08189323781 -0.0221395385 -0.0292184257)
(0.07553673357 -0.02609505227 -0.02609501747)
(0.06941460319 -0.02396584871 -0.02240013692)
(0.06324914029 0.02068977395 -0.02068973231)
(0.06941456814 0.02240024061 -0.0239658316)
(0.07451008359 0.01844585008 -0.02727812613)
(0.07901317825 0.01482772256 -0.02922747877)
(0.08197453584 0.009297082032 -0.0312506952)
(0.08368686334 0.003225451326 -0.03209614039)
(0.08368687327 -0.003225361486 -0.03209614141)
(0.08197456889 -0.009296998615 -0.03125068677)
(0.07901319858 -0.01482765792 -0.02922748263)
(0.07451012812 -0.01844578327 -0.02727811348)
(0.06941457045 -0.02240017506 -0.02396585051)
(0.063249117 -0.02068976102 -0.02068976653)
(0.09452297035 0.03717908554 -0.01700495389)
(0.1045234573 0.03679021713 -0.02045941658)
(0.1140768018 0.03062861349 -0.02234074944)
(0.1218708297 0.02348759389 -0.0234875824)
(0.1276471333 0.01470340522 -0.02423086016)
(0.1305653504 0.004990618607 -0.02471080573)
(0.1305653479 -0.004990589206 -0.02471080176)
(0.1276471311 -0.01470337134 -0.02423085)
(0.1218708443 -0.02348754673 -0.02348754312)
(0.1140768471 -0.03062854083 -0.02234070258)
(0.1045235389 -0.03679010193 -0.02045935504)
(0.09452305731 -0.03717900024 -0.01700489286)
(0.08896031207 0.03496927269 -0.02205586531)
(0.09816093899 0.03476686737 -0.02642512957)
(0.1068589807 0.02901217229 -0.02901214179)
(0.1140768213 0.02234075567 -0.03062856698)
(0.119463772 0.01407338362 -0.0317689838)
(0.1222828683 0.004803857954 -0.0324307224)
(0.1222828796 -0.004803828015 -0.03243071452)
(0.119463802 -0.01407334774 -0.03176896904)
(0.1140768763 -0.02234070601 -0.03062852653)
(0.1068590622 -0.02901210881 -0.02901210081)
(0.09816104459 -0.03476677299 -0.02642506804)
(0.08896040369 -0.0349692009 -0.02205582016)
(0.08272349718 0.03162744156 -0.02718409474)
(0.09053713736 0.03191517081 -0.03191512017)
(0.09816093409 0.02642517087 -0.03476681781)
(0.1045234717 0.02045944312 -0.03679014944)
(0.1092128568 0.01284045732 -0.03822307839)
(0.1116713982 0.004385679679 -0.03898756956)
(0.1116714146 -0.004385638222 -0.03898755681)
(0.1092129043 -0.01284040917 -0.03822304826)
(0.1045235379 -0.02045938424 -0.03679009902)
(0.09816101903 -0.02642509678 -0.03476677479)
(0.09053721008 -0.03191510094 -0.03191508405)
(0.08272353209 -0.03162739086 -0.02718406854)
(0.07452480006 0.02693707058 -0.02693702356)
(0.08272347794 0.02718414362 -0.03162739632)
(0.08896028825 0.02205591125 -0.03496923593)
(0.09452296297 0.0170049943 -0.03717903892)
(0.09841004434 0.01061981126 -0.03885873839)
(0.100482596 0.003632136451 -0.03974267062)
(0.1004826134 -0.003632077178 -0.03974266889)
(0.0984100996 -0.01061975241 -0.03885872446)
(0.09452301923 -0.01700494045 -0.03717902883)
(0.08896034894 -0.02205585918 -0.03496922806)
(0.08272349745 -0.0271840956 -0.03162739978)
(0.07452479195 -0.02693705466 -0.02693703687)
(0.1216558956 0.04301854826 -0.02482860581)
(0.1333780114 0.04868754956 -0.02819992805)
(0.1433405597 0.03998338898 -0.02972454891)
(0.1515507984 0.0316793897 -0.03167937601)
(0.1576059824 0.02013067449 -0.03337194545)
(0.160687004 0.007000219032 -0.03418970534)
(0.160687001 -0.007000190887 -0.03418969186)
(0.1576059744 -0.02013062625 -0.03337191564)
(0.1515507965 -0.03167932372 -0.0316793173)
(0.1433405742 -0.03998328897 -0.02972447706)
(0.1333780554 -0.04868745187 -0.02819985406)
(0.1216559027 -0.04301848191 -0.02482854247)
(0.11537948 0.04162864955 -0.03105249009)
(0.1261588557 0.04623832365 -0.03567853067)
(0.1354853179 0.03761632881 -0.03761631416)
(0.1433405724 0.02972455654 -0.03998336447)
(0.149110609 0.01860850295 -0.0420653841)
(0.152060231 0.00637233269 -0.04306407444)
(0.1520602354 -0.006372284013 -0.04306405542)
(0.1491106211 -0.01860844389 -0.04206534263)
(0.1433405975 -0.02972448634 -0.03998329847)
(0.135485355 -0.0376162383 -0.03761624825)
(0.1261589127 -0.04623824979 -0.03567849119)
(0.1153794918 -0.0416286109 -0.03105245914)
(0.1081655952 0.03857319735 -0.03949810001)
(0.117588657 0.04329793329 -0.04329791535)
(0.1261588521 0.0356785471 -0.04623829704)
(0.1333780191 0.02819994299 -0.04868750704)
(0.1386204189 0.0175913364 -0.05105733051)
(0.1412205638 0.00602836209 -0.05217937267)
(0.1412205758 -0.006028275578 -0.05217936536)
(0.138620454 -0.01759125837 -0.05105731139)
(0.1333780677 -0.02819987771 -0.0486874772)
(0.1261589063 -0.03567848275 -0.04623826955)
(0.1175886985 -0.04329789241 -0.04329791573)
(0.1081656043 -0.03857317298 -0.03949809601)
(0.09769412178 0.03491581053 -0.03491578219)
(0.108165581 0.03949812437 -0.03857316619)
(0.1153794634 0.03105252128 -0.04162861313)
(0.1216558962 0.02482863783 -0.04301849832)
(0.1252462744 0.01524495354 -0.04526846411)
(0.1272763759 0.00524848978 -0.04598421548)
(0.1272763837 -0.005248397004 -0.04598421647)
(0.1252463094 -0.01524487347 -0.04526845712)
(0.1216559298 -0.02482857393 -0.04301849566)
(0.1153795053 -0.03105246689 -0.041628612)
(0.1081655996 -0.03949808889 -0.03857318895)
(0.09769413652 -0.03491578632 -0.03491579149)
(0.1610283583 0.07083355407 -0.02673539553)
(0.1757129838 0.0551711929 -0.0289959535)
(0.1882791403 0.04368288868 -0.032240144)
(0.1967666861 0.03132569964 -0.03132566398)
(0.2025677496 0.01830040944 -0.02983157725)
(0.2051873189 0.005795457523 -0.02893592438)
(0.2051873122 -0.005795393318 -0.02893591805)
(0.2025677258 -0.01830034415 -0.02983156094)
(0.1967666479 -0.03132562672 -0.03132563099)
(0.1882791034 -0.04368280086 -0.03224011292)
(0.1757129512 -0.0551711139 -0.02899592209)
(0.161028319 -0.07083347882 -0.02673536455)
(0.1510817679 0.07034621863 -0.03573923523)
(0.1648415704 0.05538596909 -0.03975300656)
(0.1777525068 0.04419266457 -0.04419263887)
(0.1882791494 0.03224017002 -0.04368285461)
(0.194881592 0.01947411935 -0.04241134134)
(0.1980540683 0.00657281557 -0.04170322656)
(0.1980540629 -0.006572754561 -0.04170321811)
(0.194881578 -0.0194740582 -0.04241132128)
(0.1882791276 -0.03224010662 -0.04368282734)
(0.1777524859 -0.04419259573 -0.0441926202)
(0.1648415489 -0.05538591639 -0.03975300255)
(0.1510817509 -0.07034616929 -0.03573923056)
(0.139098401 0.06370555736 -0.04685130038)
(0.1514476472 0.05039526816 -0.05039525578)
(0.1648415787 0.03975303398 -0.05538595192)
(0.175713003 0.02899598236 -0.05517116522)
(0.1824962055 0.01704261726 -0.05508427974)
(0.1858477383 0.005718141394 -0.05485597662)
(0.1858477368 -0.005718079334 -0.05485597349)
(0.1824962065 -0.01704255795 -0.05508427189)
(0.1757129983 -0.02899592871 -0.05517116118)
(0.1648415757 -0.03975298693 -0.05538595199)
(0.1514476339 -0.0503952443 -0.05039527275)
(0.1390983971 -0.06370553155 -0.04685131226)
(0.1266427633 0.06250790703 -0.06250790836)
(0.1390983948 0.04685131002 -0.06370553686)
(0.1510817665 0.03573926714 -0.07034619745)
(0.1610283659 0.02673543467 -0.07083352505)
(0.1670320029 0.01557700232 -0.07275136737)
(0.1702876354 0.005355913045 -0.07315935954)
(0.1702876347 -0.005355850274 -0.07315936216)
(0.1670320099 -0.01557694473 -0.07275136187)
(0.1610283648 -0.0267353827 -0.07083353758)
(0.1510817804 -0.03573922928 -0.07034620615)
(0.1390983975 -0.0468512936 -0.06370557092)
(0.1266427534 -0.06250787903 -0.06250790581)
(0.1777634806 0.1045727552 -0.0473027871)
(0.1980941038 0.08771994196 -0.04973366349)
(0.2197402248 0.07666965592 -0.05331477053)
(0.2359217675 0.06061370675 -0.06061366778)
(0.2460066616 0.0383242992 -0.06510330518)
(0.2502552873 0.01320578978 -0.0663681677)
(0.2502552767 -0.01320575061 -0.0663681596)
(0.2460066319 -0.03832424855 -0.06510328793)
(0.2359217254 -0.06061364435 -0.06061364951)
(0.2197401855 -0.07666958787 -0.05331475327)
(0.1980940789 -0.08771987545 -0.04973364166)
(0.1777634711 -0.104572687 -0.04730277818)
(0.1669634274 0.09801877846 -0.06120661787)
(0.1870755988 0.08011164891 -0.06285937331)
(0.2069096915 0.06838382097 -0.06838378327)
(0.219740233 0.05331480819 -0.07666961348)
(0.2291938135 0.0323730216 -0.08180754304)
(0.2338079768 0.01079304251 -0.08355821531)
(0.233807974 -0.01079301063 -0.08355821277)
(0.2291938066 -0.03237297978 -0.08180753397)
(0.2197402207 -0.05331475829 -0.07666960189)
(0.206909684 -0.06838377333 -0.06838376866)
(0.1870756072 -0.08011160952 -0.06285936738)
(0.1669634429 -0.09801872618 -0.06120663347)
(0.1550994768 0.08843841931 -0.07323173204)
(0.1744173805 0.07399021501 -0.07399020981)
(0.1870756007 0.06285940282 -0.08011162948)
(0.1980941195 0.04973369464 -0.08771991536)
(0.2062532935 0.03072545468 -0.09365293191)
(0.2105801115 0.01049127427 -0.09632296994)
(0.210580116 -0.0104912247 -0.09632296921)
(0.2062533078 -0.03072540478 -0.09365292199)
(0.1980941346 -0.04973364619 -0.08771990904)
(0.1870756301 -0.06285937047 -0.08011161904)
(0.1744174139 -0.07399020638 -0.07399022297)
(0.1550995115 -0.08843840204 -0.07323174344)
(0.1387064833 0.08773068179 -0.08773069959)
(0.1550994708 0.07323172545 -0.08843841405)
(0.166963432 0.06120663196 -0.09801875642)
(0.1777634922 0.04730279952 -0.1045727303)
(0.1845854476 0.02830770666 -0.1104935585)
(0.1880328525 0.009581205983 -0.112747744)
(0.1880328601 -0.009581151182 -0.1127477396)
(0.184585472 -0.02830766248 -0.1104935375)
(0.1777635227 -0.04730276414 -0.1045727155)
(0.1669634716 -0.0612066165 -0.09801873777)
(0.1550995101 -0.07323171486 -0.08843842897)
(0.1387065067 -0.08773064977 -0.08773069973)
(0.2439761536 0.1355087617 -0.05360113836)
(0.2700462407 0.1114518084 -0.05926198526)
(0.2960831149 0.08072953499 -0.06119765343)
(0.3162749803 0.05688121502 -0.05688116873)
(0.3276915842 0.03197886527 -0.05478947997)
(0.3323390368 0.010011303 -0.05323355886)
(0.3323390199 -0.01001125563 -0.05323355569)
(0.3276915465 -0.03197880965 -0.05478946654)
(0.316274943 -0.05688115196 -0.05688114058)
(0.2960830933 -0.08072946073 -0.06119761612)
(0.2700462397 -0.1114517186 -0.05926196713)
(0.2439761904 -0.1355086916 -0.05360114904)
(0.2218782266 0.1329819781 -0.07125297908)
(0.2464244374 0.112127447 -0.08273812653)
(0.2702437942 0.08355911638 -0.0835590913)
(0.2960831244 0.06119768327 -0.08072949003)
(0.3105983355 0.03761061733 -0.08130515602)
(0.3175881474 0.01270360497 -0.08163322797)
(0.3175881475 -0.01270354198 -0.08163322066)
(0.31059834 -0.03761055826 -0.08130513292)
(0.2960831397 -0.06119762998 -0.08072945831)
(0.2702438274 -0.08355906547 -0.08355906263)
(0.2464244816 -0.1121273981 -0.08273813922)
(0.2218782769 -0.1329819286 -0.07125301634)
(0.1887916418 0.123663593 -0.09612347447)
(0.21762736 0.1073577923 -0.1073577975)
(0.2464244419 0.08273813081 -0.1121274267)
(0.2700462529 0.05926199596 -0.1114517718)
(0.2848466927 0.03491168941 -0.1130799449)
(0.2921744374 0.0114826875 -0.1129129152)
(0.292174447 -0.01148264255 -0.1129129045)
(0.2848467204 -0.03491164533 -0.1130799155)
(0.2700462988 -0.05926196081 -0.1114517497)
(0.2464245032 -0.08273811332 -0.1121274225)
(0.2176274198 -0.1073577842 -0.1073578335)
(0.1887917047 -0.1236635773 -0.09612351752)
(0.1500204101 0.1186252806 -0.1186252956)
(0.1887916351 0.0961234588 -0.1236635847)
(0.2218782225 0.07125298687 -0.1329819557)
(0.2439761635 0.05360114841 -0.1355087336)
(0.2559555005 0.03186670349 -0.1397782369)
(0.2615793406 0.01096250313 -0.1416202037)
(0.2615793572 -0.01096246103 -0.1416201949)
(0.2559555441 -0.03186667223 -0.13977821)
(0.2439762205 -0.05360112598 -0.1355087159)
(0.2218782743 -0.07125297815 -0.1329819463)
(0.1887916782 -0.09612344677 -0.1236636084)
(0.1500204258 -0.1186252531 -0.1186253194)
(0.2611081517 0.226482918 -0.08884236459)
(0.3401279403 0.1845301212 -0.08513078728)
(0.3797390009 0.1647251159 -0.1001659309)
(0.4070637915 0.1204760611 -0.1204760257)
(0.4210544976 0.07212673204 -0.1284532044)
(0.4248954157 0.02358974604 -0.1298725759)
(0.4248953968 -0.02358970187 -0.1298725623)
(0.4210544636 -0.07212668386 -0.1284531724)
(0.4070637729 -0.1204760085 -0.1204759986)
(0.3797390087 -0.1647250626 -0.1001659199)
(0.3401279833 -0.1845300731 -0.08513078652)
(0.2611082128 -0.2264828846 -0.08884235595)
(0.2401735162 0.2123773241 -0.1220697992)
(0.3248240172 0.174339614 -0.1192501145)
(0.3622439405 0.1444956721 -0.1444956534)
(0.3797390039 0.1001659527 -0.1647250812)
(0.3942392411 0.05553533459 -0.1701622034)
(0.4014390679 0.01763496724 -0.1715668964)
(0.4014390739 -0.01763495088 -0.171566887)
(0.3942392607 -0.05553531026 -0.170162176)
(0.3797390417 -0.1001659219 -0.1647250597)
(0.3622440009 -0.1444956484 -0.1444956531)
(0.3248240778 -0.1743396007 -0.1192501265)
(0.2401735856 -0.2123773222 -0.1220697893)
(0.2105766636 0.1806891194 -0.152848741)
(0.2918797765 0.153093871 -0.1530938717)
(0.3248240002 0.1192501252 -0.1743396051)
(0.3401279297 0.08513080277 -0.1845300932)
(0.3489162674 0.04941563813 -0.1899977236)
(0.3528654916 0.01661120525 -0.1934491868)
(0.3528655093 -0.0166111626 -0.1934491788)
(0.3489163169 -0.04941560325 -0.1899976975)
(0.3401279925 -0.08513077571 -0.1845300764)
(0.3248240588 -0.1192501112 -0.1743396086)
(0.2918798292 -0.1530938697 -0.1530938924)
(0.2105767285 -0.1806891276 -0.1528487439)
(0.1531553297 0.172733832 -0.1727338484)
(0.2105766579 0.1528487306 -0.1806891275)
(0.2401735151 0.1220697802 -0.2123773219)
(0.2611081539 0.08884234164 -0.2264829045)
(0.2730497698 0.0510801815 -0.2353692385)
(0.2781438735 0.01700688174 -0.2388220868)
(0.2781438902 -0.01700682153 -0.2388220685)
(0.2730498063 -0.05108013561 -0.2353691977)
(0.2611081936 -0.08884231035 -0.2264828695)
(0.2401735346 -0.1220697686 -0.2123773084)
(0.210576672 -0.1528487314 -0.180689136)
(0.1531553511 -0.1727338354 -0.1727338385)
(0.4640390481 0.3263708314 -0.05764332673)
(0.4827738091 0.2609203953 -0.06700185078)
(0.5428821974 0.1442498123 -0.0642206345)
(0.5582634545 0.09297427459 -0.05407540275)
(0.5784138313 0.05787266302 -0.05787262219)
(0.5842250783 0.02030338668 -0.05964400231)
(0.5842250272 -0.02030335926 -0.05964399044)
(0.5784137157 -0.05787262333 -0.05787259451)
(0.55826334 -0.09297422193 -0.0540753614)
(0.542882166 -0.1442497411 -0.06422057819)
(0.4827738641 -0.260920335 -0.06700183396)
(0.4640391474 -0.3263708489 -0.05764334968)
(0.4427268643 0.3142059047 -0.0995879325)
(0.4700206042 0.2514853061 -0.1154778101)
(0.5286901386 0.1409357558 -0.1054079661)
(0.5467655081 0.09282512338 -0.09282508959)
(0.5582634738 0.05407543 -0.0929742265)
(0.5657911655 0.0188809402 -0.09521227055)
(0.5657911428 -0.0188809066 -0.09521226223)
(0.5582634164 -0.05407539069 -0.0929742045)
(0.5467654741 -0.09282508476 -0.09282505634)
(0.528690178 -0.1409357052 -0.1054079319)
(0.4700206873 -0.2514852666 -0.1154777871)
(0.442726972 -0.3142059033 -0.09958793883)
(0.3926661732 0.302835308 -0.1377259428)
(0.4409266791 0.2439898748 -0.1669773637)
(0.4999893221 0.1504057491 -0.150405758)
(0.5286901414 0.1054079796 -0.140935735)
(0.5428822281 0.06422065658 -0.1442497705)
(0.549714559 0.02202911411 -0.1468014552)
(0.5497145659 -0.02202903179 -0.1468014405)
(0.542882244 -0.06422059181 -0.1442497414)
(0.5286901857 -0.1054079416 -0.140935713)
(0.4999893975 -0.1504057316 -0.1504057486)
(0.4409267624 -0.2439898696 -0.1669773484)
(0.3926662789 -0.3028353157 -0.1377259313)
(0.3090807817 0.2857145308 -0.2098086882)
(0.3860564254 0.2384728645 -0.2384729176)
(0.440926683 0.1669773046 -0.2439898931)
(0.4700206109 0.1154777686 -0.2514853052)
(0.482773846 0.0670018272 -0.260920378)
(0.4894994887 0.0218767427 -0.2633067481)
(0.4894995032 -0.02187666367 -0.2633067179)
(0.4827738765 -0.06700176646 -0.2609203245)
(0.4700206476 -0.1154777358 -0.2514852687)
(0.4409267193 -0.1669772992 -0.2439898854)
(0.3860564757 -0.2384728744 -0.23847292)
(0.3090808585 -0.2857145323 -0.2098086768)
(0.1832218984 0.2651630523 -0.2651630825)
(0.3090808071 0.209808614 -0.2857145506)
(0.3926662107 0.1377258703 -0.3028353145)
(0.4427268978 0.09958786031 -0.3142059125)
(0.4640391024 0.05764325567 -0.3263708419)
(0.4712496219 0.01927402181 -0.3319119806)
(0.4712496279 -0.01927405972 -0.3319119502)
(0.4640391143 -0.05764327741 -0.3263707615)
(0.4427268964 -0.09958786151 -0.3142058318)
(0.3926661892 -0.1377258677 -0.3028352714)
(0.3090807984 -0.2098086185 -0.2857145384)
(0.1832219176 -0.2651630531 -0.265163069)
(0.518966419 0.6491184552 -0.06117364338)
(0.8134469983 0.4446258421 -0.07440320966)
(0.7661826704 0.3154014858 -0.09234857838)
(0.7257494518 0.1698601171 -0.09926079077)
(0.7255505417 0.09771828246 -0.09771822775)
(0.7308693366 0.03198860201 -0.09582007883)
(0.7308692845 -0.03198851576 -0.09582005467)
(0.7255504481 -0.09771820028 -0.09771816377)
(0.7257494033 -0.1698600314 -0.0992607142)
(0.76618272 -0.3154014103 -0.09234856612)
(0.8134471148 -0.4446258572 -0.07440326261)
(0.5189665137 -0.6491185247 -0.06117371253)
(0.5200637333 0.6350413469 -0.1109172771)
(0.8099594897 0.438912063 -0.1367783559)
(0.7588935807 0.3091309855 -0.1692564424)
(0.7226166305 0.1721164636 -0.1721164351)
(0.7257494624 0.09926082835 -0.16986006)
(0.7318627399 0.03210766979 -0.1691589768)
(0.7318627307 -0.0321075764 -0.1691589541)
(0.7257494789 -0.09926074568 -0.1698600003)
(0.7226167008 -0.1721163936 -0.1721163802)
(0.7588936888 -0.3091309328 -0.16925643)
(0.8099596138 -0.4389120564 -0.1367783635)
(0.5200638253 -0.6350413919 -0.1109173152)
(0.5195667637 0.6118807252 -0.1679693844)
(0.7815659137 0.4405093556 -0.2176575471)
(0.7624150025 0.2976951228 -0.2976951747)
(0.7588935835 0.1692564074 -0.3091309953)
(0.7661826974 0.09234855173 -0.3154014654)
(0.7718640644 0.0290985547 -0.3198114741)
(0.7718640708 -0.02909850932 -0.3198114401)
(0.7661827478 -0.09234851658 -0.3154013873)
(0.7588936614 -0.1692563803 -0.309130934)
(0.7624150766 -0.2976951072 -0.297695158)
(0.7815660076 -0.4405093566 -0.2176575512)
(0.5195668451 -0.6118807609 -0.1679694063)
(0.5091256604 0.560567826 -0.2855309777)
(0.7251395088 0.3806208416 -0.3806208906)
(0.7815659547 0.2176574829 -0.4405094013)
(0.8099595431 0.1367782808 -0.4389121068)
(0.8134470672 0.0744031353 -0.4446258742)
(0.8108397951 0.02416717 -0.4524350734)
(0.8108397847 -0.02416723077 -0.4524350161)
(0.8134470301 -0.07440317026 -0.4446257493)
(0.809959494 -0.1367782867 -0.4389119888)
(0.7815659157 -0.2176574776 -0.4405093418)
(0.7251395309 -0.3806208355 -0.3806208842)
(0.509125711 -0.5605678564 -0.2855309965)
(0.4023099164 0.4482876509 -0.4482876729)
(0.5091256912 0.2855309555 -0.5605678751)
(0.5195668078 0.1679693439 -0.6118807897)
(0.5200637824 0.1109172235 -0.6350414307)
(0.5189664896 0.06117357848 -0.6491185342)
(0.5194746622 0.02031198659 -0.654271791)
(0.5194746645 -0.02031210409 -0.6542717467)
(0.5189664913 -0.06117366755 -0.6491184154)
(0.5200637628 -0.1109172652 -0.6350412888)
(0.5195667525 -0.167969348 -0.6118806884)
(0.5091256512 -0.2855309336 -0.5605678335)
(0.4023099296 -0.4482876596 -0.4482876726)
(0.05270741326 0.01822172097 -0.008306231056)
(0.05074340747 0.0160215235 -0.01038154325)
(0.04864764698 0.01373345905 -0.0115041385)
(0.04631530599 0.01126878533 -0.0107488351)
(0.0535317213 0.02404592343 -0.0107755632)
(0.05095194387 0.0206111188 -0.01312780102)
(0.04802748539 0.01742788719 -0.01424159785)
(0.04498713469 0.01391215996 -0.0130999253)
(0.05315408185 0.03288407334 -0.01404052869)
(0.04968430434 0.02767883607 -0.01710014765)
(0.04570693237 0.02285316138 -0.018295221)
(0.04198475283 0.01752839173 -0.01655789503)
(0.04842714963 0.04529381729 -0.01916785496)
(0.04483569396 0.03697010794 -0.02308183129)
(0.04025585982 0.02947862866 -0.02392940821)
(0.03624799953 0.0219003183 -0.0210259315)
(0.03950698041 0.05800495425 -0.02726429084)
(0.03509519678 0.04630430002 -0.03143783111)
(0.02994819302 0.0357575956 -0.0306845123)
(0.02568640179 0.02602893547 -0.02567110725)
(0.01439934384 0.06363691423 -0.02843430497)
(0.01177454976 0.04865802545 -0.03172705146)
(0.009076433168 0.03565338456 -0.02953290118)
(0.00675345062 0.02392062951 -0.02307564553)
(0.05787461306 0.02340074604 -0.009999746254)
(0.05512853726 0.02103915489 -0.01250834098)
(0.05241864805 0.01796358235 -0.0144425139)
(0.04884150856 0.01493491372 -0.01355992457)
(0.06044938774 0.03185357585 -0.01361607202)
(0.05665431947 0.02805329964 -0.01656442842)
(0.05279543372 0.02366111379 -0.01864456144)
(0.04800935638 0.01957162043 -0.01733827181)
(0.06098296362 0.04422908923 -0.01803997656)
(0.05581469824 0.03850761814 -0.021789072)
(0.05077360643 0.03182642814 -0.02432275514)
(0.04486983978 0.0256584719 -0.0223695374)
(0.05575164755 0.06199653386 -0.02556267266)
(0.05013995269 0.05258615494 -0.02982026417)
(0.0447613578 0.04206028263 -0.03219392672)
(0.03844003036 0.03294396119 -0.02868220399)
(0.04622118392 0.08169329276 -0.03356448989)
(0.03991510747 0.06761024032 -0.03825033441)
(0.03464871637 0.05225617897 -0.04063727749)
(0.02803536036 0.04027574397 -0.0347962331)
(0.01761275725 0.08934346093 -0.03643536211)
(0.01420562212 0.07098608986 -0.04020306448)
(0.01179829458 0.05096969442 -0.04111477713)
(0.008605900904 0.03722803487 -0.03184594219)
(0.06516120584 0.02999623473 -0.01193640572)
(0.06173783361 0.02683406118 -0.01505484195)
(0.05830567617 0.02329206944 -0.01802748328)
(0.05387036202 0.01903271179 -0.01701469962)
(0.07073782906 0.04093917312 -0.01681399988)
(0.06613726535 0.03556977246 -0.02050298566)
(0.06121822197 0.03059165526 -0.02360384869)
(0.05556250407 0.02488652241 -0.02191158021)
(0.07415705555 0.05556732551 -0.02172037588)
(0.06796037966 0.04724373674 -0.02647122348)