/*--------------------------------*- C++ -*----------------------------------*\
  =========                 |
  \\      /  F ield         | OpenFOAM: The Open Source CFD Toolbox
   \\    /   O peration     | Website:  https://openfoam.org
    \\  /    A nd           | Version:  7
     \\/     M anipulation  |
\*---------------------------------------------------------------------------*/
FoamFile
{
    version     2.0;
    format      ascii;
    class       volScalarField;
    location    "0.00068";
    object      T;
}
// * * * * * * * * * * * * * * * * * * * * * * * * * * * * * * * * * * * * * //

dimensions      [0 0 0 1 0 0 0];

internalField   nonuniform List<scalar> 
5000
(
293
293
293
293
293
293
293
293
293
293
293
293
293
293
293
293
293
293
293
293
293
293
293
293
293
293
293
293
293
293
293
293
293
293
293
293
293
293
293
293
293
293
293
293
293
293
293
293
293
293
293
293
293
293
293
293
293
293
293
293
293
293
293
293
293
293
293
293
293
293
293
293
293
293
293
293
293
293
293
293
293
293
293
293
293
293
293
293
293
293
293
293
293
293
293
293
293
293
293
293
293
293
293
293
293
293
293
293
293
293
293
293
293
293
293
293
293
293
293
293
293
293
293
293
293
293
293
293
293
293
293
293
293
293
293
293
293
293
293
293
293
293
293
293
293
293
293
293
293
293
293
293
293
293
293
293
293
293
293
293
293
293
293
293
293
293
293
293
293
293
293
293
293
293
293
293
293
293
293
293
293
293
293
293
293
293
293
293
293
293
293
293
293
293
293
293
293
293
293
293
293
293
293
293
293
293
293
293
293
293
293
293
293
293
293
293
293
293
293
293
293
293
293
293
293
293
293
293
293
293
293
293
293
293
293
293
293
293
293
293
293
293
293
293
293
293
293
293
293
293
293
293
293
293
293
293
293
293
293
293
293
293
293
293
293
293
293
293
293
293
293
293
293
293
293
293
293
293
293
293
293
293
293
293
293
293
293
293
293
293
293
293
293
293
293
293
293
293
293
293
293
293
293
293
293
293
293
293
293
293
293
293
293
293
293
293
293
293
293
293
293
293
293
293
293
293
293
293
293
293
293
293
293
293
293
293
293
293
293
293
293
293
293
293
293
293
293
293
293
293
293
293
293
293
293
293
293
293
293
293
293
293
293
293
293
293
293
293
293
293
293
293
293
293
293
293
293
293
293
293
293
293
293
293
293
293
293
293
293
293
293
293
293
293
293
293
293
293
293
293
293
293
293
293
293
293
293
293
293
293
293
293
293
293
293
293
293
293
293
293
293
293
293
293
293
293
293
293
293
293
293
293
293
293
293
293
293
293
293
293
293
293
293
293
293
293
293
293
293
293
293
293
293
293
293
293
293
293
293
293
293
293
293
293
293
293
293
293
293
293
293
293
293
293
293
293
293
293
293
293
293
293
293
293
293
293
293
293
293
293
293
293
293
293
293
293
293
293
293
293
293
293
293
293
293
293
293
293
293
293
293
293
293
293
293
293
293
293
293
293
293
293
293
293
293
293
293
293
293
293
293
293
293
293
293
293
293
293
293
293
293
293
293
293
293
293
293
293
293
293
293
293
293
293
293
293
293
293
293
293
293
293
293
293
293
293
293
293
293
293
293
293
293
293
293
293
293
293
293
293
293
293
293
293
293
293
293
293
293
293
293
293
293
293
293
293
293
293
293
293
293
293
293
293
293
293
293
293
293
293
293
293
293
293
293
293
293
293
293
293
293
293
293
293
293
293
293
293
293
293
293
293
293
293
293
293
293
293
293
293
293
293
293
293
293
293
293
293
293
293
293
293
293
293
293
293
293
293
293
293
293
293
293
293
293
293
293
293
293
293
293
293
293
293
293
293
293
293
293
293
293
293
293
293
293
293
293
293
293
293
293
293
293
293
293
293
293
293
293
293
293
293
293
293
293
293
293
293
293
293
293
293
293
293
293
293
293
293
293
293
293
293
293
293
293
293
293
293
293
293
293
293
293
293
293
293
293
293
293
293
293
293
293
293
293
293
293
293
293
293
293
293
293
293
293
293
293
293
293
293
293
293
293
293
293
293
293
293
293
293
293
293
293
293
293
293
293
293
293
293
293
293
293
293
293
293
293
293
293
293
293
293
293
293
293
293
293
293
293
293
293
293
293
293
293
293
293
293
293
293
293
293
293
293
293
293
293
293
293
293
293
293
293
293
293
293
293
293
293
293
293
293
293
293
293
293
293
293
293
293
293
293
293
293
293
293
293
293
293
293
293
293
293
293
293
293
293
293
293
293
293
293
293
293
293
293
293
293
293
293
293
293
293
293
293
293
293
293
293
293
293
293
293
293
293
293
293
293
293
293
293
293
293
293
293
293
293
293
293
293
293
293
293
293
293
293
293
293
293
293
293
293
293
293
293
293
293
293
293
293
293
293
293
293
293
293
293
293
293
293
293
293
293
293
293
293
293
293
293
293
293
293
293
293
293
293
293
293
293
293
293
293
293
293
293
293
293
293
293
293
293
293
293
293
293
293
293
293
293
293
293
293
293
293
293
293
293
293
293
293
293
293
293
293
293
293
293
293
293
293
293
293
293
293
293
293
293
293
293
293
293
293
293
293
293
293
293
293
293
293
293
293
293
293
293
293
293
293
293
293
293
293
293
293
293
293
293
293
293
293
293
293
293
293
293
293
293
293
293
293
293
293
293
293
293
293
293
293
293
293
293
293
293
293
293
293
293
293
293
293
293
293
293
293
292.99999
292.99999
292.99999
292.99999
292.99999
292.99999
292.99999
292.99999
292.99999
292.99999
292.99999
292.99999
292.99999
292.99999
292.99998
292.99998
292.99998
292.99998
292.99998
292.99998
292.99997
292.99997
292.99997
292.99997
292.99997
292.99996
292.99996
292.99996
292.99995
292.99995
292.99995
292.99994
292.99994
292.99993
292.99993
292.99992
292.99992
292.99991
292.9999
292.9999
292.99989
292.99988
292.99987
292.99986
292.99985
292.99984
292.99983
292.99982
292.9998
292.99979
292.99977
292.99976
292.99974
292.99972
292.9997
292.99968
292.99966
292.99964
292.99961
292.99958
292.99956
292.99952
292.99949
292.99946
292.99942
292.99938
292.99934
292.9993
292.99925
292.9992
292.99914
292.99909
292.99903
292.99896
292.9989
292.99882
292.99875
292.99867
292.99858
292.99849
292.99839
292.99829
292.99818
292.99807
292.99795
292.99782
292.99768
292.99754
292.99739
292.99723
292.99706
292.99688
292.99669
292.99649
292.99628
292.99606
292.99583
292.99558
292.99532
292.99505
292.99476
292.99445
292.99413
292.99379
292.99344
292.99307
292.99267
292.99226
292.99183
292.99137
292.99089
292.99039
292.98986
292.9893
292.98872
292.98811
292.98747
292.98679
292.98609
292.98535
292.98458
292.98377
292.98292
292.98203
292.9811
292.98013
292.97912
292.97805
292.97694
292.97579
292.97457
292.97331
292.97199
292.97061
292.96918
292.96768
292.96612
292.96449
292.96279
292.96102
292.95918
292.95727
292.95527
292.9532
292.95104
292.9488
292.94647
292.94404
292.94152
292.93891
292.9362
292.93338
292.93045
292.92742
292.92428
292.92102
292.91764
292.91414
292.91051
292.90676
292.90287
292.89885
292.89469
292.89039
292.88594
292.88135
292.8766
292.87169
292.86662
292.86139
292.85599
292.85042
292.84468
292.83875
292.83265
292.82635
292.81987
292.81319
292.80632
292.79924
292.79196
292.78446
292.77676
292.76884
292.76069
292.75233
292.74373
292.7349
292.72584
292.71654
292.70699
292.6972
292.68716
292.67687
292.66631
292.6555
292.64442
292.63308
292.62147
292.60958
292.59741
292.58497
292.57224
292.55923
292.54592
292.53233
292.51844
292.50425
292.48977
292.47498
292.45989
292.44449
292.42878
292.41276
292.39642
292.37977
292.3628
292.34552
292.32791
292.30998
292.29173
292.27315
292.25424
292.23501
292.21545
292.19555
292.17533
292.15478
292.13389
292.11267
292.09112
292.06924
292.04702
292.02447
292.00158
291.97836
291.95481
291.93093
291.90671
291.88216
291.85728
291.83208
291.80654
291.78067
291.75448
291.72796
291.70111
291.67394
291.64645
291.61865
291.59052
291.56207
291.53332
291.50425
291.47487
291.44518
291.41518
291.38489
291.35429
291.32339
291.2922
291.26072
291.22895
291.19689
291.16455
291.13192
291.09902
291.06585
291.03241
290.9987
290.96472
290.93049
290.896
290.86126
290.82627
290.79103
290.75556
290.71984
290.6839
290.64773
290.61133
290.57472
290.53789
290.50085
290.4636
290.42615
290.3885
290.35067
290.31264
290.27443
290.23605
290.19749
290.15876
290.11987
290.08082
290.04162
290.00227
289.96278
289.92314
289.88338
289.84349
289.80348
289.76335
289.72312
289.68277
289.64233
289.60179
289.56116
289.52046
289.47967
289.43881
289.39788
289.3569
289.31586
289.27477
289.23364
289.19247
289.15127
289.11005
289.0688
289.02755
288.98628
288.94502
288.90376
288.86251
288.82127
288.78007
288.73889
288.69774
288.65664
288.61559
288.57459
288.53365
288.49278
288.45198
288.41126
288.37062
288.33008
288.28963
288.24929
288.20906
288.16895
288.12896
288.0891
288.04938
288.0098
287.97036
287.93109
287.89197
287.85302
287.81425
287.77565
287.73724
287.69903
287.66101
287.62319
287.58559
287.54821
287.51104
287.47411
287.43741
287.40095
287.36474
287.32878
287.29308
287.25764
287.22247
287.18758
287.15297
287.11864
287.08461
287.05087
287.01744
286.98431
286.95149
286.91899
286.88682
286.85497
286.82345
286.79226
286.76142
286.73092
286.70077
286.67097
286.64152
286.61244
286.58372
286.55537
286.52739
286.49978
286.47255
286.44569
286.41922
286.39313
286.36743
286.34212
286.3172
286.29267
286.26854
286.2448
286.22146
286.19852
286.17597
286.15382
286.13208
286.11073
286.08978
286.06924
286.04909
286.02934
286.00999
285.99104
285.97248
285.95432
285.93655
285.91917
285.90218
285.88558
285.86936
285.85352
285.83807
285.82299
285.80828
285.79395
285.77998
285.76638
285.75313
285.74024
285.7277
285.71551
285.70366
285.69215
285.68098
285.67013
285.65961
285.6494
285.63952
285.62993
285.62066
285.61168
285.60299
285.59459
285.58648
285.57864
285.57106
285.56376
285.55671
285.54992
285.54337
285.53706
285.53099
285.52515
285.51954
285.51414
285.50895
285.50397
285.49919
285.49461
285.49022
285.48601
285.48197
285.47811
285.47442
285.47089
285.46752
285.4643
285.46122
285.45829
285.45549
285.45282
285.45028
285.44786
285.44556
285.44338
285.4413
285.43932
285.43745
285.43567
285.43399
285.43239
285.43087
285.42944
285.42809
285.4268
285.42559
285.42445
285.42337
285.42235
285.42139
285.42049
285.41964
285.41884
285.41808
285.41737
285.41671
285.41608
285.4155
285.41495
285.41443
285.41395
285.4135
285.41308
285.41268
285.41232
285.41197
285.41165
285.41135
285.41107
285.41081
285.41057
285.41035
285.41014
285.40995
285.40977
285.4096
285.40945
285.40931
285.40917
285.40905
285.40894
285.40884
285.40874
285.40865
285.40857
285.4085
285.40843
285.40837
285.40831
285.40826
285.40821
285.40817
285.40813
285.40809
285.40806
285.40803
285.408
285.40798
285.40796
285.40794
285.40792
285.40791
285.4079
285.40788
285.40787
285.40787
285.40786
285.40785
285.40785
285.40785
285.40784
285.40784
285.40784
285.40783
285.40783
285.40783
285.40782
285.40781
285.40781
285.4078
285.4078
285.40779
285.40778
285.40778
285.40777
285.40777
285.40776
285.40775
285.40774
285.40774
285.40773
285.40772
285.40772
285.40772
285.40771
285.4077
285.4077
285.40769
285.40769
285.40768
285.40768
285.40768
285.40768
285.40767
285.40767
285.40767
285.40766
285.40766
285.40765
285.40765
285.40765
285.40765
285.40764
285.40764
285.40764
285.40764
285.40763
285.40763
285.40763
285.40763
285.40762
285.40761
285.40761
285.40761
285.40761
285.40761
285.4076
285.4076
285.4076
285.40759
285.40759
285.40759
285.40759
285.40759
285.40758
285.40758
285.40758
285.40758
285.40758
285.40758
285.40757
285.40757
285.40757
285.40757
285.40757
285.40756
285.40756
285.40756
285.40756
285.40756
285.40756
285.40756
285.40756
285.40756
285.40756
285.40756
285.40755
285.40755
285.40756
285.40756
285.40756
285.40755
285.40755
285.40754
285.40753
285.40753
285.40753
285.40753
285.40753
285.40753
285.40753
285.40753
285.40753
285.40753
285.40754
285.40754
285.40754
285.40754
285.40754
285.40754
285.40755
285.40755
285.40755
285.40755
285.40755
285.40754
285.40754
285.40755
285.40755
285.40755
285.40755
285.40755
285.40755
285.40755
285.40755
285.40755
285.40755
285.40756
285.40756
285.40756
285.40756
285.40756
285.40756
285.40757
285.40757
285.40757
285.40757
285.40757
285.40758
285.40758
285.40758
285.40758
285.40759
285.40759
285.40759
285.40759
285.40759
285.40759
285.40759
285.40759
285.40759
285.4076
285.4076
285.4076
285.40761
285.40761
285.40762
285.40762
285.40763
285.40763
285.40763
285.40763
285.40763
285.40762
285.40762
285.40762
285.40763
285.40764
285.40764
285.40764
285.40765
285.40765
285.40765
285.40765
285.40766
285.40766
285.40766
285.40767
285.40767
285.40768
285.40768
285.40769
285.40769
285.4077
285.4077
285.40771
285.40771
285.40772
285.40772
285.40773
285.40773
285.40774
285.40774
285.40775
285.40775
285.40775
285.40776
285.40776
285.40776
285.40777
285.40777
285.40777
285.40778
285.40779
285.40779
285.40779
285.4078
285.4078
285.4078
285.4078
285.40781
285.40781
285.40782
285.40783
285.40784
285.40784
285.40784
285.40784
285.40785
285.40786
285.40787
285.40787
285.40788
285.40788
285.40788
285.40789
285.40789
285.4079
285.40791
285.40791
285.40792
285.40792
285.40793
285.40793
285.40794
285.40794
285.40795
285.40795
285.40795
285.40796
285.40797
285.40797
285.40798
285.40799
285.40799
285.408
285.408
285.40801
285.40801
285.40802
285.40802
285.40803
285.40804
285.40805
285.40805
285.40806
285.40806
285.40807
285.40808
285.40808
285.40809
285.40809
285.4081
285.4081
285.40811
285.40812
285.40812
285.40813
285.40814
285.40815
285.40815
285.40816
285.40816
285.40817
285.40817
285.40818
285.40818
285.40819
285.40819
285.4082
285.40821
285.40821
285.40822
285.40823
285.40823
285.40824
285.40825
285.40825
285.40826
285.40826
285.40827
285.40828
285.40828
285.40829
285.40829
285.40829
285.4083
285.40831
285.40832
285.40833
285.40834
285.40834
285.40835
285.40835
285.40836
285.40836
285.40837
285.40837
285.40838
285.40839
285.40839
285.4084
285.40841
285.40842
285.40842
285.40843
285.40843
285.40844
285.40845
285.40846
285.40847
285.40847
285.40848
285.40848
285.40849
285.40849
285.4085
285.40851
285.40852
285.40852
285.40853
285.40854
285.40854
285.40855
285.40855
285.40856
285.40857
285.40857
285.40858
285.40859
285.40859
285.4086
285.40861
285.40861
285.40862
285.40863
285.40863
285.40864
285.40865
285.40865
285.40866
285.40867
285.40868
285.40868
285.40869
285.40869
285.4087
285.4087
285.40871
285.40872
285.40873
285.40873
285.40874
285.40875
285.40876
285.40877
285.40877
285.40878
285.40879
285.40879
285.4088
285.40881
285.40882
285.40883
285.40883
285.40883
285.40884
285.40885
285.40886
285.40887
285.40888
285.40888
285.40889
285.40889
285.4089
285.40891
285.40892
285.40893
285.40893
285.40894
285.40895
285.40896
285.40897
285.40898
285.40898
285.40899
285.40899
285.40899
285.409
285.40901
285.40901
285.40902
285.40903
285.40904
285.40905
285.40906
285.40907
285.40908
285.40909
285.40909
285.4091
285.4091
285.40911
285.40912
285.40912
285.40913
285.40914
285.40914
285.40915
285.40916
285.40917
285.40918
285.40919
285.4092
285.40921
285.40921
285.40922
285.40923
285.40923
285.40924
285.40925
285.40926
285.40927
285.40928
285.40929
285.40929
285.4093
285.40931
285.40931
285.40932
285.40933
285.40934
285.40935
285.40936
285.40937
285.40937
285.40938
285.40939
285.4094
285.40941
285.40942
285.40943
285.40944
285.40944
285.40945
285.40946
285.40947
285.40947
285.40948
285.40949
285.40951
285.40952
285.40953
285.40953
285.40954
285.40955
285.40956
285.40956
285.40957
285.40958
285.40959
285.4096
285.40961
285.40962
285.40963
285.40964
285.40965
285.40966
285.40967
285.40968
285.40969
285.4097
285.4097
285.40971
285.40972
285.40973
285.40974
285.40975
285.40976
285.40977
285.40978
285.40979
285.4098
285.40981
285.40982
285.40983
285.40984
285.40985
285.40986
285.40987
285.40988
285.40989
285.4099
285.40991
285.40992
285.40993
285.40994
285.40995
285.40996
285.40997
285.40998
285.40999
285.41
285.41
285.41002
285.41002
285.41003
285.41004
285.41006
285.41007
285.41008
285.4101
285.41011
285.41012
285.41013
285.41014
285.41015
285.41016
285.41017
285.41018
285.41019
285.4102
285.41021
285.41022
285.41023
285.41025
285.41026
285.41027
285.41028
285.41029
285.4103
285.41031
285.41033
285.41034
285.41035
285.41036
285.41037
285.41038
285.41039
285.4104
285.41041
285.41042
285.41043
285.41045
285.41046
285.41047
285.41048
285.41049
285.4105
285.41052
285.41053
285.41055
285.41056
285.41057
285.41059
285.4106
285.41061
285.41062
285.41063
285.41064
285.41065
285.41066
285.41067
285.41069
285.4107
285.41071
285.41072
285.41074
285.41075
285.41077
285.41078
285.41079
285.4108
285.41082
285.41083
285.41085
285.41086
285.41087
285.41089
285.4109
285.41092
285.41093
285.41094
285.41095
285.41097
285.41098
285.41099
285.41101
285.41102
285.41104
285.41105
285.41107
285.41108
285.4111
285.41111
285.41112
285.41114
285.41115
285.41117
285.41118
285.4112
285.41121
285.41123
285.41124
285.41126
285.41127
285.41129
285.4113
285.41132
285.41133
285.41135
285.41136
285.41138
285.41139
285.4114
285.41142
285.41144
285.41146
285.41147
285.41149
285.41151
285.41152
285.41154
285.41156
285.41157
285.41159
285.4116
285.41162
285.41163
285.41165
285.41167
285.41168
285.4117
285.41172
285.41173
285.41175
285.41177
285.41179
285.41181
285.41183
285.41185
285.41186
285.41188
285.4119
285.41191
285.41193
285.41195
285.41197
285.41199
285.412
285.41202
285.41204
285.41206
285.41208
285.4121
285.41212
285.41214
285.41215
285.41217
285.41218
285.4122
285.41222
285.41224
285.41227
285.41229
285.41231
285.41234
285.41236
285.41238
285.4124
285.41241
285.41243
285.41245
285.41247
285.41249
285.41251
285.41254
285.41257
285.41259
285.41262
285.41263
285.41265
285.41267
285.41268
285.41271
285.41273
285.41276
285.41279
285.41281
285.41283
285.41285
285.41287
285.41289
285.41291
285.41293
285.41296
285.41298
285.413
285.41303
285.41306
285.41309
285.41312
285.41315
285.41317
285.4132
285.41322
285.41324
285.41327
285.41329
285.41332
285.41335
285.41337
285.4134
285.41342
285.41345
285.41348
285.41351
285.41353
285.41356
285.41358
285.41361
285.41364
285.41367
285.4137
285.41373
285.41376
285.41379
285.41382
285.41385
285.41388
285.41391
285.41394
285.41398
285.41401
285.41404
285.41408
285.41411
285.41415
285.41417
285.4142
285.41423
285.41426
285.41428
285.41431
285.41434
285.41438
285.41441
285.41445
285.41448
285.41453
285.41456
285.4146
285.41463
285.41467
285.4147
285.41473
285.41477
285.41481
285.41485
285.41489
285.41493
285.41497
285.415
285.41504
285.41508
285.41513
285.41517
285.41521
285.41525
285.41529
285.41533
285.41537
285.4154
285.41544
285.41549
285.41553
285.41558
285.41563
285.41568
285.41572
285.41577
285.41582
285.41586
285.41591
285.41595
285.416
285.41604
285.41609
285.41613
285.41618
285.41623
285.41628
285.41634
285.41639
285.41644
285.4165
285.41655
285.41661
285.41666
285.41672
285.41677
285.41683
285.41689
285.41695
285.41701
285.41707
285.41713
285.41719
285.41725
285.41731
285.41737
285.41743
285.41749
285.41755
285.41761
285.41768
285.41774
285.41781
285.41788
285.41795
285.41802
285.41809
285.41815
285.41822
285.41829
285.41837
285.41845
285.41853
285.41862
285.4187
285.41879
285.41887
285.41896
285.41904
285.41912
285.4192
285.41928
285.41937
285.41945
285.41954
285.41963
285.41973
285.41983
285.41993
285.42003
285.42013
285.42023
285.42033
285.42043
285.42054
285.42064
285.42075
285.42086
285.42097
285.42108
285.42119
285.42131
285.42142
285.42154
285.42166
285.42177
285.42189
285.422
285.42212
285.42224
285.42235
285.42247
285.42259
285.42271
285.42283
285.42295
285.42306
285.42317
285.42327
285.42336
285.42345
285.42353
285.42361
285.42368
285.42374
285.4238
285.42385
285.42389
285.42392
285.42395
285.42396
285.42397
285.42397
285.42397
285.42396
285.42394
285.4239
285.42384
285.42379
285.42374
285.42369
285.42365
285.42362
285.4236
285.42358
285.42358
285.42358
285.42358
285.4236
285.42364
285.42375
285.4239
285.42409
285.4243
285.42454
285.42479
285.42506
285.42534
285.42562
285.42589
285.42616
285.42643
285.4267
285.42698
285.42727
285.42758
285.42788
285.42816
285.42843
285.42868
285.42889
285.42905
285.42918
285.42926
285.42932
285.42937
285.42942
285.42948
285.42954
285.42958
285.42961
285.42964
285.42969
285.42979
285.43002
285.43057
285.43194
285.43544
285.44447
285.46782
285.52814
285.68423
286.08261
287.03209
288.36283
289.86131
291.43398
292.98989
294.45351
295.77067
296.90987
297.8602
298.62701
299.22689
299.68277
300.01983
300.2626
300.43311
300.54994
300.62804
300.67896
300.71126
300.73113
300.74287
300.7494
300.75269
300.75401
300.75428
300.75412
300.75331
300.75156
300.74982
300.7482
300.74672
300.74538
300.74419
300.74315
300.74225
300.74146
300.74078
300.74018
300.73965
300.73917
300.73871
300.73828
300.73786
300.73745
300.73705
300.73666
300.73628
300.73592
300.73559
300.73526
300.73494
300.73464
300.73433
300.73402
300.7337
300.73336
300.733
300.73262
300.7322
300.73176
300.73128
300.73078
300.73027
300.72973
300.7292
300.72865
300.72811
300.72757
300.72704
300.72652
300.72602
300.72554
300.72507
300.72463
300.72421
300.72382
300.72344
300.7231
300.72277
300.72247
300.72218
300.72191
300.72165
300.7214
300.72117
300.72095
300.72073
300.72053
300.72033
300.72014
300.71997
300.71979
300.71962
300.71946
300.7193
300.71915
300.71899
300.71885
300.7187
300.71856
300.71842
300.71828
300.71815
300.71802
300.71789
300.71777
300.71765
300.71753
300.71742
300.71731
300.71719
300.71708
300.71696
300.71685
300.71674
300.71664
300.71654
300.71644
300.71634
300.71624
300.71614
300.71605
300.71595
300.71586
300.71577
300.71568
300.71559
300.7155
300.71542
300.71533
300.71525
300.71516
300.71508
300.715
300.71491
300.71483
300.71475
300.71468
300.7146
300.71452
300.71445
300.71438
300.71431
300.71424
300.71417
300.71411
300.71404
300.71397
300.7139
300.71384
300.71377
300.7137
300.71364
300.71358
300.71352
300.71346
300.7134
300.71334
300.71328
300.71322
300.71316
300.7131
300.71304
300.71298
300.71292
300.71287
300.71281
300.71276
300.7127
300.71265
300.7126
300.71255
300.7125
300.71245
300.7124
300.71235
300.7123
300.71225
300.7122
300.71215
300.7121
300.71205
300.712
300.71196
300.71191
300.71186
300.71182
300.71177
300.71173
300.71169
300.71164
300.7116
300.71155
300.71151
300.71147
300.71142
300.71139
300.71135
300.71131
300.71127
300.71123
300.71119
300.71115
300.71111
300.71107
300.71104
300.711
300.71096
300.71092
300.71088
300.71084
300.7108
300.71076
300.71072
300.71069
300.71066
300.71063
300.71059
300.71056
300.71053
300.71049
300.71046
300.71043
300.71039
300.71036
300.71032
300.71029
300.71026
300.71023
300.7102
300.71016
300.71013
300.7101
300.71007
300.71004
300.71
300.70997
300.70994
300.70991
300.70988
300.70985
300.70982
300.70979
300.70976
300.70973
300.70971
300.70969
300.70966
300.70964
300.70961
300.70958
300.70955
300.70952
300.70949
300.70946
300.70944
300.70941
300.70938
300.70935
300.70933
300.7093
300.70927
300.70925
300.70923
300.7092
300.70918
300.70915
300.70912
300.7091
300.70907
300.70905
300.70902
300.709
300.70897
300.70895
300.70893
300.70891
300.70888
300.70886
300.70884
300.70882
300.7088
300.70877
300.70875
300.70873
300.7087
300.70868
300.70865
300.70863
300.7086
300.70858
300.70856
300.70854
300.70852
300.7085
300.70848
300.70846
300.70845
300.70843
300.70841
300.70838
300.70836
300.70834
300.70831
300.70829
300.70827
300.70825
300.70823
300.70821
300.70819
300.70817
300.70815
300.70814
300.70812
300.7081
300.70808
300.70806
300.70804
300.70803
300.70801
300.70799
300.70797
300.70795
300.70793
300.70792
300.7079
300.70788
300.70786
300.70784
300.70783
300.70781
300.7078
300.70778
300.70776
300.70774
300.70772
300.7077
300.70768
300.70766
300.70765
300.70763
300.70761
300.7076
300.70758
300.70757
300.70755
300.70753
300.70752
300.7075
300.70748
300.70747
300.70745
300.70744
300.70742
300.70741
300.70739
300.70737
300.70736
300.70734
300.70732
300.70731
300.70729
300.70728
300.70727
300.70726
300.70724
300.70723
300.70721
300.7072
300.70718
300.70717
300.70715
300.70713
300.70711
300.7071
300.70708
300.70707
300.70705
300.70704
300.70703
300.70702
300.707
300.70699
300.70698
300.70696
300.70695
300.70693
300.70692
300.70691
300.70689
300.70688
300.70686
300.70685
300.70684
300.70683
300.70681
300.7068
300.70679
300.70678
300.70677
300.70675
300.70674
300.70672
300.70671
300.70669
300.70668
300.70667
300.70666
300.70665
300.70664
300.70663
300.70662
300.7066
300.70659
300.70657
300.70656
300.70655
300.70653
300.70652
300.70651
300.7065
300.70648
300.70647
300.70646
300.70644
300.70643
300.70642
300.70641
300.7064
300.70639
300.70638
300.70637
300.70636
300.70635
300.70634
300.70632
300.70631
300.7063
300.70628
300.70627
300.70626
300.70625
300.70624
300.70623
300.70622
300.70621
300.7062
300.7062
300.70619
300.70617
300.70616
300.70615
300.70613
300.70612
300.70611
300.7061
300.70609
300.70608
300.70607
300.70606
300.70605
300.70604
300.70603
300.70601
300.706
300.70599
300.70599
300.70598
300.70597
300.70596
300.70595
300.70594
300.70593
300.70592
300.70591
300.7059
300.70589
300.70588
300.70587
300.70586
300.70584
300.70583
300.70582
300.70581
300.7058
300.7058
300.70579
300.70578
300.70577
300.70576
300.70575
300.70574
300.70573
300.70573
300.70571
300.7057
300.70569
300.70568
300.70567
300.70566
300.70565
300.70565
300.70564
300.70563
300.70562
300.70561
300.7056
300.70559
300.70558
300.70557
300.70556
300.70555
300.70555
300.70554
300.70553
300.70552
300.7055
300.70549
300.70548
300.70547
300.70546
300.70545
300.70545
300.70544
300.70543
300.70543
300.70542
300.70541
300.70539
300.70538
300.70537
300.70536
300.70536
300.70535
300.70535
300.70534
300.70533
300.70532
300.70531
300.7053
300.70529
300.70528
300.70528
300.70527
300.70526
300.70525
300.70524
300.70524
300.70523
300.70522
300.70521
300.7052
300.70519
300.70518
300.70517
300.70517
300.70516
300.70515
300.70515
300.70514
300.70513
300.70512
300.70512
300.70511
300.7051
300.70509
300.70507
300.70507
300.70506
300.70505
300.70505
300.70505
300.70504
300.70503
300.70502
300.70501
300.705
300.70499
300.70499
300.70498
300.70498
300.70497
300.70496
300.70495
300.70495
300.70494
300.70493
300.70492
300.70491
300.70491
300.7049
300.7049
300.70489
300.70488
300.70487
300.70487
300.70486
300.70485
300.70484
300.70484
300.70483
300.70482
300.70481
300.7048
300.70479
300.70479
300.70478
300.70478
300.70478
300.70477
300.70477
300.70476
300.70475
300.70474
300.70473
300.70472
300.70471
300.7047
300.7047
300.70469
300.70469
300.70468
300.70468
300.70467
300.70467
300.70466
300.70465
300.70464
300.70464
300.70463
300.70463
300.70462
300.70461
300.7046
300.7046
300.70459
300.70458
300.70458
300.70457
300.70456
300.70456
300.70455
300.70454
300.70454
300.70454
300.70453
300.70453
300.70452
300.70451
300.7045
300.70449
300.70448
300.70447
300.70447
300.70447
300.70447
300.70446
300.70446
300.70445
300.70444
300.70443
300.70442
300.70441
300.70441
300.7044
300.70439
300.70439
300.70438
300.70438
300.70437
300.70437
300.70436
300.70435
300.70434
300.70434
300.70433
300.70433
300.70432
300.70432
300.70431
300.7043
300.7043
300.70429
300.70428
300.70428
300.70427
300.70427
300.70426
300.70425
300.70424
300.70423
300.70423
300.70422
300.70422
300.70422
300.70421
300.7042
300.7042
300.70419
300.70418
300.70418
300.70417
300.70417
300.70416
300.70416
300.70415
300.70414
300.70414
300.70413
300.70412
300.70412
300.70411
300.70411
300.7041
300.7041
300.70409
300.70409
300.70408
300.70407
300.70407
300.70406
300.70405
300.70405
300.70404
300.70403
300.70402
300.70401
300.704
300.704
300.704
300.704
300.70399
300.70399
300.70398
300.70398
300.70397
300.70396
300.70395
300.70395
300.70394
300.70394
300.70393
300.70393
300.70392
300.70391
300.7039
300.7039
300.70389
300.70389
300.70388
300.70388
300.70387
300.70387
300.70386
300.70385
300.70384
300.70384
300.70383
300.70382
300.70382
300.70381
300.70381
300.7038
300.7038
300.7038
300.70379
300.70378
300.70378
300.70377
300.70376
300.70376
300.70375
300.70374
300.70374
300.70374
300.70373
300.70373
300.70372
300.70372
300.70371
300.70371
300.7037
300.70369
300.70368
300.70368
300.70367
300.70367
300.70366
300.70366
300.70365
300.70365
300.70364
300.70364
300.70364
300.70364
300.70364
300.70363
300.70362
300.70361
300.7036
300.70359
300.70358
300.70358
300.70357
300.70357
300.70356
300.70356
300.70356
300.70356
300.70355
300.70355
300.70354
300.70353
300.70353
300.70352
300.70351
300.7035
300.7035
300.7035
300.70349
300.70349
300.70349
300.70349
300.70348
300.70347
300.70346
300.70346
300.70345
300.70345
300.70344
300.70344
300.70344
300.70343
300.70342
300.70341
300.70341
300.70341
300.7034
300.7034
300.70339
300.70338
300.70338
300.70337
300.70337
300.70337
300.70336
300.70336
300.70335
300.70335
300.70335
300.70334
300.70333
300.70333
300.70332
300.70332
300.70331
300.70331
300.70331
300.7033
300.7033
300.70329
300.70329
300.70328
300.70327
300.70327
300.70327
300.70326
300.70326
300.70326
300.70326
300.70325
300.70324
300.70323
300.70323
300.70323
300.70323
300.70322
300.70322
300.70321
300.70321
300.7032
300.7032
300.7032
300.7032
300.7032
300.7032
300.70319
300.70319
300.70318
300.70318
300.70317
300.70317
300.70317
300.70317
300.70316
300.70316
300.70316
300.70316
300.70316
300.70316
300.70316
300.70316
300.70315
300.70315
300.70315
300.70315
300.70316
300.70317
300.70316
300.70316
300.70315
300.70315
300.70315
300.70315
300.70315
300.70316
300.70316
300.70317
300.70317
300.70317
300.70317
300.70317
300.70318
300.70318
300.70318
300.70318
300.70318
300.70319
300.7032
300.70321
300.70322
300.70323
300.70323
300.70324
300.70324
300.70324
300.70326
300.70327
300.70327
300.70328
300.70329
300.7033
300.70331
300.70332
300.70333
300.70334
300.70336
300.70337
300.70338
300.70339
300.7034
300.70341
300.70342
300.70343
300.70344
300.70345
300.70346
300.70347
300.70348
300.70348
300.70348
300.70347
300.70347
300.70348
300.70348
300.70348
300.70347
300.70346
300.70345
300.70343
300.70341
300.70339
300.70336
300.70334
300.7033
300.70327
300.70323
300.7032
300.70315
300.70311
300.70306
300.703
300.70295
300.70289
300.70282
300.70275
300.70267
300.70259
300.7025
300.7024
300.7023
300.70219
300.70207
300.70194
300.7018
300.70165
300.70149
300.70132
300.70113
300.70093
300.70072
300.70049
300.70025
300.69999
300.69971
300.69941
300.69909
300.69874
300.69838
300.69798
300.69756
300.69711
300.69663
300.69612
300.69557
300.69499
300.69436
300.6937
300.69299
300.69223
300.69143
300.69057
300.68966
300.68869
300.68766