/*--------------------------------*- C++ -*----------------------------------*\
  =========                 |
  \\      /  F ield         | OpenFOAM: The Open Source CFD Toolbox
   \\    /   O peration     | Website:  https://openfoam.org
    \\  /    A nd           | Version:  7
     \\/     M anipulation  |
\*---------------------------------------------------------------------------*/
FoamFile
{
    version     2.0;
    format      ascii;
    class       volScalarField;
    location    "0.00101";
    object      p;
}
// * * * * * * * * * * * * * * * * * * * * * * * * * * * * * * * * * * * * * //

dimensions      [1 -1 -2 0 0 0 0];

internalField   nonuniform List<scalar> 
5000
(
100429.47
100441.03
100452.91
100464.85
100476.83
100488.81
100500.81
100512.82
100524.84
100536.86
100548.89
100560.92
100572.96
100585
100597.03
100609.07
100621.11
100633.14
100645.18
100657.21
100669.24
100681.27
100693.3
100705.33
100717.36
100729.39
100741.41
100753.43
100765.46
100777.48
100789.5
100801.51
100813.53
100825.54
100837.56
100849.57
100861.58
100873.59
100885.6
100897.6
100909.61
100921.61
100933.61
100945.61
100957.61
100969.61
100981.61
100993.6
101005.6
101017.59
101029.58
101041.57
101053.56
101065.54
101077.53
101089.51
101101.49
101113.48
101125.45
101137.43
101149.41
101161.38
101173.36
101185.33
101197.3
101209.27
101221.24
101233.2
101245.17
101257.13
101269.09
101281.05
101293.01
101304.97
101316.92
101328.88
101340.83
101352.78
101364.72
101376.67
101388.61
101400.55
101412.49
101424.42
101436.36
101448.29
101460.22
101472.14
101484.06
101495.99
101507.91
101519.82
101531.74
101543.65
101555.57
101567.48
101579.39
101591.3
101603.22
101615.13
101627.04
101638.96
101650.87
101662.79
101674.71
101686.63
101698.56
101710.48
101722.41
101734.34
101746.28
101758.21
101770.15
101782.09
101794.04
101805.98
101817.93
101829.88
101841.83
101853.78
101865.73
101877.68
101889.64
101901.59
101913.54
101925.5
101937.45
101949.41
101961.36
101973.31
101985.27
101997.22
102009.17
102021.12
102033.07
102045.02
102056.96
102068.91
102080.85
102092.8
102104.74
102116.68
102128.62
102140.56
102152.5
102164.43
102176.37
102188.3
102200.23
102212.16
102224.09
102236.02
102247.95
102259.87
102271.8
102283.72
102295.64
102307.56
102319.48
102331.4
102343.31
102355.23
102367.14
102379.05
102390.96
102402.87
102414.78
102426.68
102438.59
102450.49
102462.39
102474.29
102486.19
102498.09
102509.99
102521.88
102533.78
102545.67
102557.56
102569.45
102581.34
102593.23
102605.11
102617
102628.88
102640.76
102652.64
102664.52
102676.4
102688.27
102700.15
102712.02
102723.89
102735.76
102747.63
102759.5
102771.37
102783.23
102795.1
102806.96
102818.82
102830.68
102842.54
102854.39
102866.25
102878.1
102889.95
102901.8
102913.65
102925.5
102937.35
102949.19
102961.03
102972.87
102984.71
102996.55
103008.39
103020.22
103032.05
103043.88
103055.71
103067.54
103079.37
103091.19
103103.01
103114.83
103126.65
103138.46
103150.28
103162.09
103173.9
103185.71
103197.52
103209.32
103221.13
103232.93
103244.73
103256.53
103268.33
103280.13
103291.93
103303.73
103315.52
103327.32
103339.11
103350.91
103362.7
103374.5
103386.29
103398.08
103409.88
103421.67
103433.47
103445.27
103457.06
103468.86
103480.66
103492.46
103504.25
103516.05
103527.86
103539.66
103551.46
103563.27
103575.07
103586.88
103598.68
103610.49
103622.3
103634.11
103645.92
103657.73
103669.54
103681.36
103693.17
103704.98
103716.79
103728.61
103740.42
103752.24
103764.05
103775.87
103787.68
103799.49
103811.31
103823.12
103834.94
103846.75
103858.56
103870.37
103882.18
103893.99
103905.8
103917.61
103929.42
103941.23
103953.04
103964.84
103976.65
103988.45
104000.25
104012.05
104023.85
104035.65
104047.45
104059.25
104071.04
104082.84
104094.63
104106.42
104118.21
104130
104141.79
104153.58
104165.36
104177.15
104188.93
104200.71
104212.49
104224.27
104236.05
104247.83
104259.6
104271.38
104283.15
104294.92
104306.69
104318.46
104330.22
104341.99
104353.75
104365.52
104377.28
104389.04
104400.8
104412.55
104424.31
104436.06
104447.81
104459.57
104471.32
104483.06
104494.81
104506.56
104518.3
104530.04
104541.78
104553.52
104565.26
104576.99
104588.73
104600.46
104612.19
104623.92
104635.65
104647.38
104659.1
104670.82
104682.55
104694.27
104705.98
104717.7
104729.42
104741.13
104752.84
104764.56
104776.26
104787.97
104799.68
104811.39
104823.09
104834.79
104846.5
104858.2
104869.9
104881.59
104893.29
104904.99
104916.68
104928.38
104940.07
104951.77
104963.46
104975.15
104986.84
104998.53
105010.22
105021.91
105033.6
105045.29
105056.98
105068.67
105080.36
105092.05
105103.74
105115.43
105127.12
105138.81
105150.49
105162.18
105173.87
105185.56
105197.25
105208.94
105220.64
105232.33
105244.02
105255.71
105267.4
105279.09
105290.79
105302.48
105314.17
105325.87
105337.56
105349.26
105360.95
105372.65
105384.34
105396.04
105407.73
105419.43
105431.12
105442.82
105454.51
105466.21
105477.91
105489.6
105501.3
105512.99
105524.69
105536.38
105548.08
105559.77
105571.46
105583.16
105594.85
105606.54
105618.23
105629.92
105641.61
105653.3
105664.99
105676.68
105688.37
105700.05
105711.74
105723.42
105735.11
105746.79
105758.47
105770.15
105781.83
105793.51
105805.19
105816.86
105828.54
105840.21
105851.89
105863.56
105875.23
105886.9
105898.57
105910.23
105921.9
105933.56
105945.23
105956.89
105968.55
105980.21
105991.86
106003.52
106015.17
106026.83
106038.48
106050.13
106061.77
106073.42
106085.06
106096.71
106108.35
106119.99
106131.62
106143.26
106154.89
106166.52
106178.15
106189.78
106201.4
106213.02
106224.64
106236.26
106247.87
106259.49
106271.1
106282.7
106294.31
106305.91
106317.5
106329.1
106340.69
106352.28
106363.86
106375.44
106387.02
106398.6
106410.17
106421.73
106433.3
106444.85
106456.41
106467.96
106479.5
106491.05
106502.58
106514.11
106525.64
106537.16
106548.68
106560.19
106571.69
106583.19
106594.69
106606.18
106617.66
106629.14
106640.61
106652.07
106663.53
106674.98
106686.42
106697.86
106709.29
106720.71
106732.12
106743.53
106754.92
106766.31
106777.69
106789.06
106800.43
106811.78
106823.12
106834.46
106845.78
106857.09
106868.39
106879.68
106890.96
106902.23
106913.48
106924.72
106935.95
106947.16
106958.36
106969.55
106980.72
106991.87
107003.01
107014.13
107025.23
107036.31
107047.38
107058.42
107069.45
107080.45
107091.44
107102.4
107113.34
107124.25
107135.14
107146
107156.83
107167.64
107178.42
107189.17
107199.89
107210.57
107221.23
107231.85
107242.43
107252.98
107263.49
107273.96
107284.39
107294.78
107305.13
107315.43
107325.69
107335.9
107346.06
107356.18
107366.24
107376.25
107386.2
107396.1
107405.94
107415.72
107425.44
107435.1
107444.69
107454.22
107463.68
107473.07
107482.38
107491.63
107500.79
107509.88
107518.89
107527.82
107536.67
107545.43
107554.1
107562.68
107571.17
107579.56
107587.86
107596.06
107604.16
107612.16
107620.05
107627.84
107635.51
107643.07
107650.52
107657.85
107665.06
107672.15
107679.11
107685.95
107692.66
107699.24
107705.68
107711.99
107718.16
107724.19
107730.07
107735.81
107741.4
107746.84
107752.12
107757.25
107762.22
107767.03
107771.68
107776.15
107780.46
107784.6
107788.57
107792.36
107795.97
107799.4
107802.65
107805.71
107808.58
107811.27
107813.76
107816.05
107818.15
107820.05
107821.75
107823.24
107824.53
107825.61
107826.48
107827.14
107827.58
107827.8
107827.8
107827.58
107827.14
107826.48
107825.59
107824.47
107823.13
107821.55
107819.74
107817.69
107815.41
107812.89
107810.13
107807.13
107803.89
107800.4
107796.67
107792.69
107788.47
107784
107779.28
107774.31
107769.08
107763.61
107757.88
107751.9
107745.66
107739.17
107732.42
107725.42
107718.15
107710.63
107702.86
107694.82
107686.52
107677.97
107669.16
107660.08
107650.75
107641.16
107631.31
107621.2
107610.83
107600.2
107589.31
107578.16
107566.76
107555.1
107543.18
107531
107518.57
107505.88
107492.93
107479.74
107466.28
107452.58
107438.62
107424.42
107409.96
107395.25
107380.3
107365.1
107349.65
107333.96
107318.03
107301.85
107285.44
107268.78
107251.89
107234.76
107217.39
107199.8
107181.97
107163.91
107145.62
107127.1
107108.36
107089.4
107070.21
107050.81
107031.18
107011.34
106991.29
106971.02
106950.54
106929.86
106908.97
106887.87
106866.57
106845.08
106823.38
106801.49
106779.4
106757.13
106734.66
106712.01
106689.17
106666.15
106642.95
106619.57
106596.02
106572.3
106548.4
106524.34
106500.11
106475.72
106451.16
106426.45
106401.58
106376.56
106351.39
106326.07
106300.61
106275
106249.25
106223.37
106197.35
106171.2
106144.91
106118.5
106091.97
106065.31
106038.54
106011.65
105984.64
105957.52
105930.3
105902.97
105875.54
105848
105820.37
105792.65
105764.83
105736.93
105708.94
105680.86
105652.71
105624.48
105596.17
105567.79
105539.34
105510.83
105482.25
105453.62
105424.92
105396.17
105367.37
105338.52
105309.63
105280.69
105251.71
105222.7
105193.65
105164.57
105135.46
105106.33
105077.17
105048
105018.81
104989.61
104960.39
104931.17
104901.95
104872.72
104843.5
104814.28
104785.07
104755.87
104726.68
104697.51
104668.36
104639.24
104610.14
104581.07
104552.03
104523.03
104494.07
104465.15
104436.28
104407.45
104378.68
104349.96
104321.3
104292.69
104264.16
104235.69
104207.29
104178.96
104150.71
104122.54
104094.46
104066.46
104038.55
104010.73
103983.01
103955.39
103927.87
103900.46
103873.15
103845.96
103818.88
103791.92
103765.09
103738.37
103711.79
103685.34
103659.02
103632.84
103606.8
103580.91
103555.16
103529.57
103504.13
103478.84
103453.72
103428.76
103403.97
103379.34
103354.89
103330.62
103306.53
103282.61
103258.89
103235.35
103212
103188.85
103165.9
103143.15
103120.6
103098.26
103076.13
103054.21
103032.51
103011.02
102989.76
102968.72
102947.91
102927.33
102906.98
102886.87
102866.99
102847.35
102827.96
102808.81
102789.92
102771.27
102752.87
102734.73
102716.85
102699.22
102681.86
102664.76
102647.94
102631.38
102615.09
102599.08
102583.33
102567.87
102552.68
102537.77
102523.15
102508.81
102494.75
102480.97
102467.49
102454.29
102441.38
102428.76
102416.44
102404.4
102392.66
102381.21
102370.06
102359.2
102348.64
102338.37
102328.4
102318.73
102309.35
102300.27
102291.49
102283
102274.81
102266.92
102259.32
102252.01
102245
102238.28
102231.86
102225.73
102219.88
102214.33
102209.06
102204.09
102199.39
102194.98
102190.86
102187.01
102183.45
102180.16
102177.14
102174.4
102171.94
102169.74
102167.8
102166.13
102164.73
102163.58
102162.69
102162.05
102161.67
102161.53
102161.64
102161.99
102162.58
102163.4
102164.46
102165.75
102167.27
102169.02
102170.98
102173.16
102175.55
102178.16
102180.97
102183.99
102187.2
102190.62
102194.22
102198.02
102202
102206.17
102210.51
102215.03
102219.72
102224.58
102229.61
102234.79
102240.14
102245.63
102251.28
102257.07
102263.01
102269.09
102275.31
102281.65
102288.13
102294.74
102301.46
102308.31
102315.27
102322.35
102329.54
102336.83
102344.23
102351.72
102359.32
102367.01
102374.79
102382.66
102390.62
102398.66
102406.78
102414.98
102423.26
102431.61
102440.02
102448.51
102457.06
102465.68
102474.35
102483.09
102491.88
102500.72
102509.62
102518.57
102527.57
102536.61
102545.7
102554.83
102564
102573.21
102582.46
102591.74
102601.07
102610.42
102619.8
102629.22
102638.66
102648.14
102657.63
102667.16
102676.71
102686.28
102695.87
102705.49
102715.12
102724.77
102734.44
102744.13
102753.83
102763.55
102773.29
102783.04
102792.8
102802.57
102812.36
102822.15
102831.96
102841.78
102851.6
102861.44
102871.28
102881.14
102890.99
102900.86
102910.73
102920.61
102930.5
102940.39
102950.28
102960.18
102970.09
102980
102989.91
102999.83
103009.75
103019.67
103029.59
103039.52
103049.45
103059.39
103069.32
103079.26
103089.2
103099.14
103109.09
103119.03
103128.97
103138.92
103148.87
103158.82
103168.77
103178.72
103188.67
103198.62
103208.57
103218.53
103228.48
103238.43
103248.39
103258.34
103268.29
103278.25
103288.2
103298.16
103308.11
103318.07
103328.02
103337.97
103347.93
103357.88
103367.84
103377.79
103387.74
103397.7
103407.65
103417.6
103427.55
103437.51
103447.46
103457.41
103467.36
103477.31
103487.26
103497.21
103507.16
103517.11
103527.06
103537.01
103546.96
103556.91
103566.85
103576.8
103586.75
103596.69
103606.64
103616.58
103626.53
103636.47
103646.42
103656.36
103666.3
103676.24
103686.19
103696.13
103706.07
103716.01
103725.95
103735.89
103745.83
103755.77
103765.7
103775.64
103785.58
103795.51
103805.45
103815.38
103825.32
103835.25
103845.19
103855.12
103865.05
103874.98
103884.91
103894.84
103904.77
103914.7
103924.63
103934.56
103944.48
103954.41
103964.34
103974.26
103984.18
103994.11
104004.03
104013.95
104023.87
104033.8
104043.71
104053.63
104063.55
104073.47
104083.39
104093.3
104103.22
104113.13
104123.05
104132.96
104142.87
104152.79
104162.7
104172.61
104182.52
104192.42
104202.33
104212.24
104222.15
104232.05
104241.96
104251.86
104261.76
104271.66
104281.57
104291.47
104301.37
104311.27
104321.16
104331.06
104340.96
104350.85
104360.75
104370.64
104380.54
104390.43
104400.32
104410.21
104420.1
104429.99
104439.88
104449.76
104459.65
104469.54
104479.42
104489.3
104499.19
104509.07
104518.95
104528.83
104538.71
104548.59
104558.47
104568.34
104578.22
104588.1
104597.97
104607.84
104617.72
104627.59
104637.46
104647.33
104657.2
104667.07
104676.93
104686.8
104696.67
104706.53
104716.4
104726.26
104736.12
104745.98
104755.84
104765.7
104775.56
104785.42
104795.28
104805.13
104814.99
104824.84
104834.7
104844.55
104854.4
104864.25
104874.1
104883.95
104893.8
104903.65
104913.49
104923.34
104933.18
104943.03
104952.87
104962.71
104972.55
104982.39
104992.23
105002.07
105011.91
105021.74
105031.58
105041.42
105051.25
105061.08
105070.92
105080.75
105090.58
105100.41
105110.24
105120.06
105129.89
105139.72
105149.54
105159.37
105169.19
105179.01
105188.83
105198.66
105208.48
105218.29
105228.11
105237.93
105247.75
105257.56
105267.38
105277.19
105287
105296.82
105306.63
105316.44
105326.25
105336.05
105345.86
105355.67
105365.47
105375.28
105385.08
105394.89
105404.69
105414.49
105424.29
105434.09
105443.89
105453.69
105463.48
105473.28
105483.08
105492.87
105502.66
105512.46
105522.25
105532.04
105541.83
105551.62
105561.4
105571.19
105580.98
105590.76
105600.55
105610.33
105620.11
105629.9
105639.68
105649.46
105659.24
105669.01
105678.79
105688.57
105698.34
105708.12
105717.89
105727.66
105737.44
105747.21
105756.98
105766.75
105776.51
105786.28
105796.05
105805.81
105815.58
105825.34
105835.11
105844.87
105854.63
105864.39
105874.15
105883.91
105893.66
105903.42
105913.18
105922.93
105932.68
105942.44
105952.19
105961.94
105971.69
105981.44
105991.19
106000.94
106010.68
106020.43
106030.17
106039.92
106049.66
106059.4
106069.14
106078.88
106088.62
106098.36
106108.1
106117.84
106127.57
106137.31
106147.04
106156.78
106166.51
106176.24
106185.97
106195.7
106205.43
106215.16
106224.88
106234.61
106244.33
106254.06
106263.78
106273.5
106283.22
106292.94
106302.66
106312.38
106322.1
106331.82
106341.53
106351.25
106360.96
106370.68
106380.39
106390.1
106399.81
106409.52
106419.23
106428.94
106438.64
106448.35
106458.05
106467.76
106477.46
106487.16
106496.87
106506.57
106516.27
106525.97
106535.66
106545.36
106555.06
106564.75
106574.45
106584.14
106593.83
106603.52
106613.21
106622.9
106632.59
106642.28
106651.97
106661.65
106671.34
106681.02
106690.71
106700.39
106710.07
106719.75
106729.43
106739.11
106748.79
106758.47
106768.14
106777.82
106787.49
106797.17
106806.84
106816.51
106826.18
106835.85
106845.52
106855.19
106864.85
106874.52
106884.19
106893.85
106903.51
106913.18
106922.84
106932.5
106942.16
106951.82
106961.48
106971.13
106980.79
106990.44
107000.1
107009.75
107019.4
107029.06
107038.71
107048.36
107058
107067.65
107077.3
107086.95
107096.59
107106.23
107115.88
107125.52
107135.16
107144.8
107154.44
107164.08
107173.72
107183.35
107192.99
107202.62
107212.26
107221.89
107231.52
107241.15
107250.78
107260.41
107270.04
107279.67
107289.3
107298.92
107308.54
107318.17
107327.79
107337.41
107347.03
107356.65
107366.27
107375.89
107385.5
107395.12
107404.73
107414.34
107423.96
107433.57
107443.18
107452.78
107462.39
107472
107481.6
107491.21
107500.81
107510.41
107520.01
107529.61
107539.21
107548.81
107558.4
107568
107577.59
107587.18
107596.77
107606.36
107615.95
107625.53
107635.12
107644.7
107654.28
107663.86
107673.44
107683.02
107692.59
107702.17
107711.74
107721.31
107730.88
107740.44
107750.01
107759.57
107769.13
107778.69
107788.24
107797.8
107807.35
107816.9
107826.44
107835.99
107845.53
107855.07
107864.61
107874.14
107883.67
107893.2
107902.73
107912.25
107921.77
107931.28
107940.8
107950.31
107959.81
107969.31
107978.81
107988.31
107997.8
108007.28
108016.76
108026.24
108035.71
108045.18
108054.65
108064.1
108073.56
108083.01
108092.45
108101.89
108111.32
108120.74
108130.16
108139.58
108148.98
108158.38
108167.78
108177.16
108186.54
108195.91
108205.28
108214.63
108223.98
108233.32
108242.65
108251.98
108261.29
108270.59
108279.89
108289.17
108298.44
108307.71
108316.96
108326.2
108335.43
108344.65
108353.86
108363.05
108372.23
108381.4
108390.56
108399.7
108408.83
108417.94
108427.04
108436.12
108445.19
108454.24
108463.28
108472.3
108481.3
108490.29
108499.26
108508.21
108517.14
108526.05
108534.94
108543.82
108552.67
108561.5
108570.31
108579.1
108587.87
108596.61
108605.33
108614.03
108622.7
108631.35
108639.98
108648.58
108657.15
108665.7
108674.22
108682.71
108691.17
108699.61
108708.01
108716.39
108724.74
108733.06
108741.34
108749.6
108757.82
108766.01
108774.16
108782.29
108790.37
108798.43
108806.45
108814.43
108822.37
108830.28
108838.16
108845.99
108853.78
108861.54
108869.26
108876.94
108884.57
108892.17
108899.72
108907.23
108914.7
108922.13
108929.51
108936.85
108944.14
108951.39
108958.59
108965.75
108972.86
108979.93
108986.94
108993.91
109000.83
109007.7
109014.52
109021.3
109028.02
109034.69
109041.31
109047.88
109054.4
109060.87
109067.28
109073.64
109079.95
109086.2
109092.41
109098.55
109104.65
109110.68
109116.67
109122.59
109128.47
109134.28
109140.05
109145.75
109151.4
109156.99
109162.53
109168
109173.43
109178.79
109184.1
109189.35
109194.54
109199.67
109204.75
109209.77
109214.73
109219.63
109224.47
109229.26
109233.99
109238.66
109243.27
109247.82
109252.32
109256.76
109261.14
109265.46
109269.73
109273.94
109278.09
109282.18
109286.22
109290.2
109294.12
109297.99
109301.8
109305.55
109309.25
109312.89
109316.48
109320.01
109323.49
109326.91
109330.28
109333.6
109336.86
109340.07
109343.22
109346.32
109349.37
109352.37
109355.32
109358.22
109361.06
109363.86
109366.6
109369.3
109371.94
109374.54
109377.09
109379.59
109382.05
109384.46
109386.82
109389.14
109391.41
109393.63
109395.82
109397.96
109400.05
109402.1
109404.11
109406.08
109408.01
109409.89
109411.74
109413.55
109415.31
109417.04
109418.73
109420.39
109422
109423.58
109425.13
109426.64
109428.11
109429.55
109430.96
109432.33
109433.67
109434.98
109436.25
109437.5
109438.71
109439.9
109441.05
109442.18
109443.27
109444.34
109445.39
109446.4
109447.39
109448.35
109449.29
109450.2
109451.09
109451.96
109452.8
109453.62
109454.41
109455.19
109455.94
109456.67
109457.38
109458.07
109458.74
109459.39
109460.03
109460.64
109461.24
109461.81
109462.38
109462.92
109463.45
109463.96
109464.46
109464.94
109465.41
109465.86
109466.3
109466.72
109467.13
109467.53
109467.92
109468.29
109468.65
109469
109469.34
109469.66
109469.98
109470.29
109470.58
109470.87
109471.14
109471.41
109471.67
109471.92
109472.16
109472.39
109472.61
109472.83
109473.04
109473.24
109473.43
109473.62
109473.8
109473.97
109474.14
109474.3
109474.46
109474.61
109474.75
109474.89
109475.02
109475.15
109475.28
109475.4
109475.51
109475.62
109475.73
109475.83
109475.93
109476.02
109476.11
109476.2
109476.28
109476.36
109476.44
109476.51
109476.59
109476.65
109476.72
109476.78
109476.84
109476.9
109476.96
109477.01
109477.06
109477.11
109477.16
109477.2
109477.24
109477.29
109477.33
109477.36
109477.4
109477.43
109477.47
109477.5
109477.53
109477.56
109477.59
109477.61
109477.64
109477.66
109477.69
109477.71
109477.73
109477.75
109477.77
109477.79
109477.81
109477.83
109477.84
109477.86
109477.87
109477.89
109477.9
109477.91
109477.93
109477.94
109477.95
109477.96
109477.97
109477.98
109477.99
109478
109478.01
109478.02
109478.02
109478.03
109478.04
109478.05
109478.05
109478.06
109478.07
109478.07
109478.08
109478.08
109478.09
109478.09
109478.1
109478.1
109478.11
109478.11
109478.11
109478.12
109478.12
109478.13
109478.13
109478.13
109478.13
109478.14
109478.14
109478.14
109478.15
109478.15
109478.15
109478.15
109478.16
109478.16
109478.16
109478.16
109478.16
109478.17
109478.17
109478.17
109478.17
109478.17
109478.17
109478.18
109478.18
109478.18
109478.18
109478.18
109478.18
109478.18
109478.18
109478.19
109478.19
109478.19
109478.19
109478.19
109478.19
109478.19
109478.19
109478.19
109478.19
109478.2
109478.2
109478.2
109478.2
109478.2
109478.2
109478.2
109478.2
109478.2
109478.2
109478.2
109478.2
109478.2
109478.2
109478.2
109478.2
109478.2
109478.2
109478.2
109478.2
109478.2
109478.2
109478.21
109478.21
109478.21
109478.21
109478.21
109478.21
109478.21
109478.21
109478.21
109478.2
109478.2
109478.2
109478.2
109478.2
109478.2
109478.2
109478.2
109478.2
109478.2
109478.2
109478.2
109478.2
109478.2
109478.2
109478.2
109478.2
109478.2
109478.2
109478.2
109478.2
109478.2
109478.2
109478.19
109478.19
109478.19
109478.19
109478.19
109478.19
109478.19
109478.19
109478.19
109478.19
109478.19
109478.19
109478.18
109478.18
109478.18
109478.18
109478.18
109478.18
109478.18
109478.18
109478.18
109478.17
109478.17
109478.17
109478.17
109478.17
109478.17
109478.17
109478.17
109478.17
109478.16
109478.16
109478.16
109478.16
109478.16
109478.16
109478.16
109478.16
109478.15
109478.15
109478.15
109478.15
109478.15
109478.15
109478.15
109478.15
109478.14
109478.14
109478.14
109478.14
109478.14
109478.14
109478.14
109478.14
109478.13
109478.13
109478.13
109478.13
109478.13
109478.13
109478.13
109478.12
109478.12
109478.12
109478.12
109478.12
109478.12
109478.12
109478.12
109478.11
109478.11
109478.11
109478.11
109478.11
109478.11
109478.11
109478.1
109478.1
109478.1
109478.1
109478.1
109478.1
109478.1
109478.1
109478.09
109478.09
109478.09
109478.09
109478.09
109478.09
109478.09
109478.09
109478.08
109478.08
109478.08
109478.08
109478.08
109478.08
109478.08
109478.08
109478.08
109478.07
109478.07
109478.07
109478.07
109478.07
109478.07
109478.07
109478.07
109478.07
109478.07
109478.06
109478.06
109478.06
109478.06
109478.06
109478.06
109478.06
109478.06
109478.06
109478.06
109478.06
109478.06
109478.06
109478.06
109478.05
109478.05
109478.05
109478.05
109478.05
109478.05
109478.05
109478.05
109478.05
109478.05
109478.05
109478.05
109478.05
109478.05
109478.05
109478.05
109478.05
109478.05
109478.05
109478.05
109478.05
109478.05
109478.05
109478.05
109478.05
109478.05
109478.05
109478.05
109478.05
109478.05
109478.05
109478.05
109478.05
109478.05
109478.05
109478.05
109478.05
109478.05
109478.05
109478.06
109478.06
109478.06
109478.06
109478.06
109478.06
109478.06
109478.06
109478.06
109478.06
109478.06
109478.06
109478.06
109478.06
109478.06
109478.06
109478.06
109478.06
109478.06
109478.06
109478.06
109478.06
109478.06
109478.06
109478.07
109478.07
109478.07
109478.07
109478.07
109478.07
109478.07
109478.07
109478.07
109478.07
109478.07
109478.07
109478.07
109478.07
109478.07
109478.07
109478.07
109478.07
109478.07
109478.07
109478.08
109478.08
109478.08
109478.08
109478.08
109478.08
109478.08
109478.08
109478.08
109478.08
109478.08
109478.08
109478.08
109478.08
109478.08
109478.08
109478.08
109478.08
109478.08
109478.08
109478.08
109478.09
109478.09
109478.09
109478.09
109478.09
109478.09
109478.09
109478.09
109478.09
109478.09
109478.09
109478.09
109478.09
109478.09
109478.09
109478.09
109478.09
109478.09
109478.09
109478.09
109478.09
109478.09
109478.09
109478.09
109478.09
109478.09
109478.09
109478.09
109478.09
109478.09
109478.09
109478.09
109478.09
109478.09
109478.09
109478.09
109478.09
109478.09
109478.09
109478.09
109478.09
109478.09
109478.09
109478.09
109478.09
109478.09
109478.09
109478.09
109478.09
109478.09
109478.09
109478.09
109478.09
109478.09
109478.09
109478.09
109478.09
109478.09
109478.09
109478.09
109478.09
109478.09
109478.09
109478.08
109478.08
109478.08
109478.08
109478.08
109478.08
109478.08
109478.08
109478.08
109478.08
109478.08
109478.08
109478.08
109478.08
109478.08
109478.08
109478.08
109478.08
109478.08
109478.08
109478.08
109478.08
109478.08
109478.08
109478.08
109478.08
109478.08
109478.08
109478.08
109478.08
109478.08
109478.08
109478.08
109478.08
109478.08
109478.08
109478.08
109478.08
109478.08
109478.08
109478.08
109478.08
109478.08
109478.08
109478.08
109478.08
109478.08
109478.08
109478.08
109478.08
109478.08
109478.08
109478.08
109478.08
109478.08
109478.08
109478.08
109478.08
109478.08
109478.08
109478.08
109478.08
109478.08
109478.08
109478.08
109478.08
109478.08
109478.08
109478.08
109478.08
109478.08
109478.08
109478.08
109478.08
109478.08
109478.08
109478.08
109478.08
109478.08
109478.08
109478.08
109478.08
109478.08
109478.08
109478.08
109478.08
109478.08
109478.09
109478.09
109478.09
109478.09
109478.09
109478.09
109478.09
109478.09
109478.09
109478.09
109478.09
109478.09
109478.09
109478.09
109478.09
109478.09
109478.09
109478.09
109478.09
109478.09
109478.09
109478.09
109478.09
109478.09
109478.09
109478.09
109478.09
109478.09
109478.09
109478.09
109478.09
109478.09
109478.09
109478.09
109478.09
109478.09
109478.09
109478.09
109478.09
109478.09
109478.09
109478.09
109478.09
109478.09
109478.09
109478.09
109478.09
109478.09
109478.09
109478.09
109478.09
109478.09
109478.09
109478.09
109478.09
109478.09
109478.09
109478.09
109478.09
109478.09
109478.09
109478.09
109478.09
109478.09
109478.09
109478.09
109478.09
109478.09
109478.09
109478.09
109478.09
109478.09
109478.09
109478.09
109478.09
109478.09
109478.09
109478.09
109478.09
109478.09
109478.09
109478.09
109478.09
109478.09
109478.09
109478.09
109478.09
109478.09
109478.09
109478.09
109478.09
109478.09
109478.09
109478.09
109478.09
109478.09
109478.09
109478.09
109478.09
109478.09
109478.09
109478.09
109478.09
109478.09
109478.09
109478.09
109478.09
109478.09
109478.09
109478.09
109478.09
109478.09
109478.09
109478.09
109478.09
109478.09
109478.09
109478.08
109478.08
109478.08
109478.08
109478.08
109478.09
109478.09
109478.1
109478.1
109478.1
109478.11
109478.11
109478.1
109478.1
109478.08
109478.07
109478.06
109478.05
109478.04
109478.04
109478.05
109478.07
109478.1
109478.14
109478.17
109478.2
109478.2
109478.23
109477.92
109478.01
109478.03
109478.03
109478.04
109478.07
109478.08
109478.1
109478.11
109478.11
109478.11
109478.11
109478.11
109478.1
109478.09
109478.09
109478.09
109478.08
109478.08
109478.08
109478.08
109478.09
109478.09
109478.09
109478.09
109478.09
109478.09
109478.09
109478.09
109478.09
109478.09
109478.09
109478.09
109478.09
109478.09
109478.09
109478.09
109478.09
109478.09
109478.09
109478.09
109478.09
109478.09
109478.09
109478.09
109478.09
109478.09
109478.09
109478.09
109478.09
109478.09
109478.09
109478.09
109478.09
109478.09
109478.09
109478.09
109478.09
109478.09
109478.09
109478.09
109478.09
109478.09
109478.09
109478.09
109478.09
109478.09
109478.09
109478.09
109478.09
109478.09
109478.09
109478.09
109478.09
109478.09
109478.09
109478.09
109478.09
109478.09
109478.09
109478.09
109478.09
109478.09
109478.09
109478.09
109478.09
109478.09
109478.09
109478.09
109478.09
109478.09
109478.09
109478.09
109478.09
109478.09
109478.09
109478.09
109478.09
109478.09
109478.09
109478.09
109478.09
109478.09
109478.09
109478.09
109478.09
109478.09
109478.09
109478.09
109478.09
109478.09
109478.09
109478.09
109478.09
109478.09
109478.09
109478.09
109478.09
109478.09
109478.09
109478.09
109478.09
109478.09
109478.09
109478.09
109478.09
109478.09
109478.09
109478.09
109478.09
109478.09
109478.09
109478.09
109478.09
109478.09
109478.09
109478.09
109478.09
109478.09
109478.09
109478.09
109478.09
109478.09
109478.09
109478.09
109478.09
109478.09
109478.09
109478.09
109478.09
109478.09
109478.09
109478.09
109478.09
109478.09
109478.09
109478.09
109478.09
109478.09
109478.09
109478.09
109478.09
109478.09
109478.09
109478.09
109478.09
109478.09
109478.09
109478.09
109478.09
109478.09
109478.09
109478.09
109478.09
109478.09
109478.09
109478.09
109478.09
109478.09
109478.09
109478.09
109478.09
109478.09
109478.09
109478.09
109478.09
109478.09
109478.09
109478.09
109478.09
109478.09
109478.09
109478.09
109478.09
109478.09
109478.09
109478.09
109478.09
109478.09
109478.09
109478.09
109478.09
109478.09
109478.09
109478.09
109478.09
109478.09
109478.09
109478.09
109478.09
109478.09
109478.09
109478.09
109478.09
109478.09
109478.09
109478.09
109478.09
109478.09
109478.09
109478.09
109478.09
109478.09
109478.09
109478.09
109478.09
109478.09
109478.09
109478.08
109478.08
109478.08
109478.08
109478.08
109478.08
109478.08
109478.08
109478.08
109478.08
109478.08
109478.08
109478.08
109478.08
109478.08
109478.08
109478.08
109478.08
109478.08
109478.08
109478.08
109478.08
109478.08
109478.08
109478.08
109478.08
109478.08
109478.08
109478.08
109478.08
109478.08
109478.08
109478.08
109478.08
109478.08
109478.08
109478.08
109478.08
109478.08
109478.08
109478.08
109478.08
109478.08
109478.08
109478.08
109478.08
109478.08
109478.08
109478.08
109478.08
109478.08
109478.08
109478.08
109478.08
109478.08
109478.08
109478.08
109478.08
109478.08
109478.08
109478.08
109478.08
109478.08
109478.08
109478.08
109478.08
109478.08
109478.08
109478.08
109478.08
109478.08
109478.08
109478.08
109478.08
109478.08
109478.08
109478.08
109478.08
109478.08
109478.08
109478.08
109478.08
109478.08
109478.08
109478.07
109478.07
109478.07
109478.07
109478.07
109478.07
109478.07
109478.07
109478.07
109478.07
109478.07
109478.07
109478.07
109478.07
109478.07
109478.07
109478.07
109478.07
109478.07
109478.07
109478.07
109478.07
109478.07
109478.06
109478.06
109478.06
109478.06
109478.06
109478.06
109478.06
109478.06
109478.06
109478.06
109478.06
109478.06
109478.06
109478.06
109478.06
109478.06
109478.06
109478.06
109478.06
109478.06