/*--------------------------------*- C++ -*----------------------------------*\
  =========                 |
  \\      /  F ield         | OpenFOAM: The Open Source CFD Toolbox
   \\    /   O peration     | Website:  https://openfoam.org
    \\  /    A nd           | Version:  7
     \\/     M anipulation  |
\*---------------------------------------------------------------------------*/
FoamFile
{
    version     2.0;
    format      ascii;
    class       volScalarField;
    location    "0.00291";
    object      Uz;
}
// * * * * * * * * * * * * * * * * * * * * * * * * * * * * * * * * * * * * * //

dimensions      [0 1 -1 0 0 0 0];

internalField   nonuniform List<scalar> 
5000
(
0
0
0
0
0
-9.0194473e-22
-1.7439258e-36
2.4248521e-21
8.8437105e-22
-1.8580593e-21
-1.8914092e-21
9.4897147e-22
-8.079328e-36
-8.3272893e-36
1.8847454e-21
-1.8780916e-21
-1.6902931e-51
-8.199335e-36
-9.2665532e-22
1.8473662e-21
9.2138308e-22
0
0
-9.1672603e-22
7.8438346e-36
-7.6165345e-36
-9.276158e-22
9.3015536e-22
9.3006476e-22
-9.2710845e-22
1.613853e-35
-7.840098e-36
-9.1632305e-22
9.1367684e-22
9.1039932e-22
0
0
-9.1315837e-22
-9.1742812e-22
9.1981638e-22
-1.5375036e-35
-9.0841285e-22
9.0071254e-22
-1.5090751e-35
-8.8660363e-22
8.9052838e-22
-3.0956458e-35
3.1123262e-35
-3.1455874e-35
1.5574318e-35
9.0303877e-22
0
0
0
0
0
0
0
0
0
0
0
0
-8.8174188e-22
-8.8785959e-22
8.9275893e-22
-1.5358607e-35
-1.9594176e-52
8.8623105e-22
0
0
-8.8035671e-22
-8.8196253e-22
0
8.8402391e-22
3.0487248e-35
-8.8126907e-22
-8.7995898e-22
8.7918441e-22
1.757503e-21
-1.7559347e-21
4.9827186e-37
2.6246043e-21
-1.7466409e-21
-9.075923e-35
1.7458528e-21
-2.6190789e-21
8.7198882e-22
8.7049957e-22
-8.6876469e-22
8.6741073e-22
8.6712298e-22
3.0205781e-35
-1.7351428e-21
-5.9963167e-35
-8.6497779e-22
-8.6370056e-22
-3.0283065e-35
6.0068724e-35
1.7252987e-21
8.6215307e-22
-8.6134308e-22
1.222763e-37
8.5974127e-22
0
-8.5908307e-22
-2.9887534e-35
8.5743589e-22
-8.5634336e-22
-8.5520426e-22
1.7081869e-21
8.5294545e-22
-2.5552256e-21
-8.5083512e-22
2.5513903e-21
-8.4862642e-22
-8.4958236e-22
-4.8468221e-37
-8.5346892e-22
2.5654761e-21
-5.9959215e-35
-1.7187083e-21
1.7193179e-21
8.5789721e-22
-8.5329908e-22
8.4564219e-22
-8.353567e-22
-1.6467848e-21
8.1131463e-22
2.7669123e-35
7.9560854e-22
1.5913387e-21
-8.0713383e-22
-8.3209452e-22
-8.1715959e-22
-2.9243183e-35
-3.6273067e-35
2.0042825e-35
1.1708987e-21
9.944377e-22
-7.4477583e-22
-1.4687077e-21
-8.0122956e-22
-8.3141663e-22
5.584489e-35
1.5959954e-21
-2.2986389e-37
2.3404411e-37
-4.1527976e-52
8.3229001e-22
-5.7615025e-35
1.1541349e-34
8.2819927e-22
-8.3405479e-22
8.4336841e-22
2.939742e-35
-8.4414011e-22
8.3846053e-22
-1.1830447e-37
-8.2858154e-22
0
8.388772e-22
5.8355258e-35
-1.6836126e-21
8.3817217e-22
-2.3682493e-37
-8.3008855e-22
8.323583e-22
-8.3934065e-22
8.4415365e-22
-3.5175398e-34
-2.3350725e-34
8.3812326e-22
-1.6714041e-21
0
-5.8417692e-35
-1.7614725e-34
8.4623101e-22
8.4389846e-22
5.7997783e-35
-8.4019259e-22
8.4306671e-22
5.8221564e-35
3.6142078e-37
1.1731178e-34
-1.6871673e-21
8.4138762e-22
8.4283397e-22
-5.833316e-35
5.8752579e-35
-1.7706991e-34
5.8636185e-35
-8.4622617e-22
0
0
0
0
-8.5302717e-22
1.7708024e-34
8.4658038e-22
8.476258e-22
-8.5366334e-22
-8.5855436e-22
1.7181806e-21
5.9285378e-35
-1.7710287e-34
-8.5035838e-22
-8.5129869e-22
8.5665295e-22
0
8.6451919e-22
5.9751808e-35
-8.6173584e-22
-8.607389e-22
1.1979402e-34
8.6091111e-22
-1.7261677e-21
8.6615436e-22
8.6779073e-22
-8.6752989e-22
8.6662312e-22
0
0
0
8.685517e-22
-8.7132897e-22
-1.7421794e-21
8.6965321e-22
-6.02823e-35
8.6624443e-22
8.6826137e-22
-1.7426971e-21
2.4821903e-37
-2.4818674e-37
8.7103205e-22
8.694694e-22
-1.7415882e-21
1.2421408e-37
-1.8258948e-34
8.7554489e-22
-4.8465133e-34
-1.2065459e-34
8.6956268e-22
-8.7399377e-22
0
-8.7946278e-22
8.7694053e-22
8.7363868e-22
-8.7095101e-22
0
-8.7388695e-22
8.7840032e-22
8.8108893e-22
-3.059733e-34
-1.7614073e-21
-1.759536e-21
2.6340676e-21
1.7526024e-21
0
-1.7436126e-21
-8.7354328e-22
8.7871903e-22
8.8131524e-22
8.7882472e-22
-1.7500822e-21
-1.7410457e-21
8.674724e-22
1.7390715e-21
2.4291415e-34
-1.7591887e-21
8.7846719e-22
-1.2133803e-34
-8.7055719e-22
1.7344887e-21
-8.6740106e-22
1.2140381e-34
8.7554683e-22
-8.760313e-22
8.7378379e-22
-1.741376e-21
3.6222696e-34
1.7352097e-21
-1.7397136e-21
-6.0357535e-35
8.7138275e-22
0
0
8.6513955e-22
-8.6654831e-22
-1.7360327e-21
8.6678903e-22
-2.4566236e-37
8.611865e-22
8.5888104e-22
-8.601825e-22
0
-8.6203821e-22
-8.5987504e-22
0
1.7051656e-21
8.5260235e-22
-1.7113321e-21
5.9357557e-35
-2.4308695e-37
8.5131502e-22
8.4695763e-22
-8.4403466e-22
8.4660494e-22
-8.497269e-22
4.8295133e-37
1.6920857e-21
-8.4050772e-22
-8.3569945e-22
-8.3485359e-22
-1.1644488e-34
8.4261061e-22
0
0
-8.3026081e-22
1.1459675e-34
-2.2914893e-34
-1.1549481e-34
8.3500941e-22
-8.3374129e-22
1.1778771e-37
8.2391145e-22
0
0
0
0
0
0
0
-8.1683557e-22
0
8.0672724e-22
0
-8.0191845e-22
-2.2402118e-34
8.1110366e-22
0
0
-7.943214e-22
-1.093115e-34
7.8708814e-22
0
0
-8.0174741e-22
-7.9546616e-22
7.8882352e-22
7.8198046e-22
0
-7.8099471e-22
1.1201668e-37
7.9125171e-22
-7.8763725e-22
-7.8173914e-22
7.7543783e-22
7.7034905e-22
0
-7.7461586e-22
-7.7911563e-22
7.7917619e-22
7.746927e-22
0
-7.6485427e-22
-7.6143725e-22
7.6381588e-22
7.6771141e-22
0
0
0
0
0
0
0
0
-7.5517463e-22
-2.4584384e-51
7.4362392e-22
0
0
0
-7.5220514e-22
-1.0377908e-34
7.4337641e-22
-7.3836161e-22
1.0205053e-34
-1.048161e-37
-1.0299606e-34
7.4299428e-22
-7.397603e-22
7.350863e-22
-4.0581919e-34
-7.2814643e-22
7.3168617e-22
0
0
-7.3147089e-22
-1.0075215e-34
7.2034526e-22
-7.1939129e-22
-7.2482065e-22
0
7.2930041e-22
7.2477671e-22
-7.183164e-22
-1.9774852e-34
-8.879297e-52
-9.968828e-35
7.2372499e-22
-7.2425042e-22
-5.1831317e-51
-9.9140124e-35
-7.0846802e-22
0
0
7.1841621e-22
1.0226561e-37
-2.9775153e-34
7.1050842e-22
0
0
-7.0736387e-22
1.9793577e-34
7.1608852e-22
0
0
0
-6.9914884e-22
9.9844436e-38
7.0943707e-22
-7.1289158e-22
7.0990692e-22
-1.9604903e-34
-1.4014101e-21
6.9759307e-22
2.9142235e-34
9.7907732e-35
-9.8418056e-35
-7.0726423e-22
0
0
6.9827888e-22
9.718942e-35
-1.951195e-34
1.2172059e-52
-7.0345877e-22
7.0054525e-22
6.981372e-22
0
-7.0021565e-22
-9.7498626e-35
7.0195909e-22
0
0
-6.9703175e-22
1.9884053e-37
1.4575249e-52
-6.9949376e-22
6.9511158e-22
-9.5670149e-35
9.572033e-35
-1.9290293e-34
-7.0048663e-22
7.0122423e-22
-1.9362184e-34
1.9201429e-34
-1.9044928e-34
-6.8528637e-22
6.9246499e-22
-1.9443816e-34
9.772206e-35
0
-6.9375023e-22
6.8874262e-22
-9.5204657e-35
9.7991609e-38
-9.6763721e-35
9.7408972e-35
6.9930349e-22
-6.9573275e-22
-6.9161929e-22
6.8835779e-22
6.8892714e-22
0
-6.9806931e-22
-6.9906938e-22
0
6.9420808e-22
-9.6015189e-35
9.8169289e-38
9.6250579e-35
-6.9691441e-22
6.9738539e-22
9.6581472e-35
-1.9273493e-34
-6.9255202e-22
-6.9378661e-22
1.3913016e-21
-9.8974258e-38
9.6507005e-35
6.932441e-22
-6.9125014e-22
9.6107419e-35
6.9501543e-22
0
0
0
-6.9008099e-22
-6.8940481e-22
6.9320187e-22
6.9630487e-22
0
-6.9412466e-22
-6.9069483e-22
6.8838432e-22
6.9031124e-22
0
-6.958329e-22
-6.9506015e-22
6.9184631e-22
1.9136224e-34
-6.8957824e-22
0
0
0
0
6.8696509e-22
-1.9023553e-34
-6.9061529e-22
6.946563e-22
9.646203e-35
-9.6172429e-35
5.5883647e-54
6.8216168e-22
6.8370412e-22
-1.3815459e-21
-9.6549056e-35
9.6373932e-35
-6.914991e-22
0
6.822036e-22
6.833937e-22
-6.896798e-22
-1.9265673e-34
6.9485671e-22
0
0
-6.8441916e-22
9.4885271e-35
6.8865107e-22
0
-6.940054e-22
9.8309726e-38
-1.9118548e-34
-9.5056104e-35
6.8453162e-22
-6.8816173e-22
9.8326802e-38
-1.9239343e-34
-6.9111958e-22
6.8826351e-22
1.9040776e-34
9.7377988e-38
-9.555984e-35
-6.9115532e-22
6.9150848e-22
0
-3.8240391e-34
-9.5392777e-35
-2.8634938e-34
-9.7999888e-38
-6.9002338e-22
6.8888657e-22
-1.2815347e-52
-9.550748e-35
1.9114205e-34
-9.5585385e-35
1.3754805e-21
-6.8537693e-22
-6.8338894e-22
-9.4967846e-35
9.5292666e-35
1.3761849e-21
-6.8723982e-22
-6.8460253e-22
-6.4281283e-53
0
-5.5362022e-53
-6.869272e-22
6.8643843e-22
6.8649198e-53
-9.4512748e-35
-9.6598718e-38
-6.821749e-22
1.3694925e-21
1.9004473e-34
-6.8258375e-22
9.4207716e-35
-9.3869987e-35
6.7883772e-22
-6.8214159e-22
-6.6110266e-52
-2.8396719e-34
1.8814554e-34
-1.8681487e-34
-1.8676903e-34
-8.6351548e-53
0
6.7974291e-22
0
0
-6.6626581e-22
-1.860608e-34
6.7878305e-22
0
0
-1.3425825e-21
-5.511674e-34
1.3126133e-21
-6.609725e-22
9.5327296e-38
-9.4156892e-35
-6.7963301e-22
0
0
0
-6.6882899e-22
-1.853924e-34
6.6860926e-22
0
0
-6.7210869e-22
9.5543306e-38
6.7012279e-22
0
0
-6.6335372e-22
-1.8441902e-34
-1.8534681e-34
1.8547925e-34
6.6703128e-22
-6.6532832e-22
1.8426379e-34
-1.8416541e-34
1.8431393e-34
6.6536251e-22
0
0
-6.6504317e-22
-3.9750677e-52
6.6452674e-22
0
0
-6.6289566e-22
-6.2572849e-52
6.61317e-22
0
0
-6.5933861e-22
-7.399287e-53
6.5846798e-22
0
0
-6.5877682e-22
9.3590369e-38
6.5768154e-22
-6.5639833e-22
1.8191552e-34
-1.814573e-34
1.8094304e-34
6.5042015e-22
0
0
0
0
0
-6.504504e-22
1.8084633e-34
6.5151375e-22
0
0
0
0
0
0
0
-6.4359412e-22
3.5801147e-34
6.4571077e-22
0
0
0
0
0
0
0
-6.4031887e-22
1.7788266e-34
6.4020536e-22
0
0
-6.3688215e-22
1.7677918e-34
6.3646264e-22
0
0
0
-6.3636263e-22
-1.7676151e-34
6.3612677e-22
0
0
0
0
0
0
0
-6.3505958e-22
9.022515e-38
6.3470301e-22
0
0
0
0
0
0
0
-6.3203679e-22
-8.9796429e-38
6.3179157e-22
0
0
0
-6.3115845e-22
3.5029716e-34
6.3056312e-22
0
-6.2964341e-22
-1.7478498e-34
6.2864754e-22
0
0
-6.278934e-22
-6.2788271e-22
6.2786439e-22
6.2780875e-22
0
0
0
0
6.2764982e-22
-8.9189543e-38
-1.2551537e-21
-6.2753371e-22
1.2549722e-21
1.2548664e-21
-6.2737504e-22
-6.2731137e-22
0
0
0
0
-6.2691662e-22
-1.7414539e-34
6.2672566e-22
0
0
0
0
0
0
0
0
0
0
0
0
0
0
-6.2478046e-22
3.4688217e-34
6.2442621e-22
0
0
6.2382832e-22
-1.731644e-34
8.8586341e-38
-6.231088e-22
-6.2282277e-22
-3.4562158e-34
1.7284075e-34
6.2169985e-22
0
0
0
0
0
-6.1845148e-22
3.4310412e-34
6.1754798e-22
0
0
0
0
0
0
0
-6.1469088e-22
3.4098531e-34
6.1390791e-22
0
0
0
0
0
0
0
-6.1033352e-22
5.0783787e-34
6.0930564e-22
0
0
0
0
0
0
0
0
-6.0296112e-22
8.5580804e-38
6.0153506e-22
0
0
0
0
-5.9845834e-22
5.9782821e-22
5.9719124e-22
-1.1930955e-21
-1.6546896e-34
5.9524176e-22
0
0
0
0
-5.918693e-22
1.6407397e-34
1.1809563e-21
-5.8977468e-22
-5.8906662e-22
5.8835467e-22
0
0
0
-5.8550616e-22
-1.6221948e-34
5.8408106e-22
5.8336766e-22
-5.8265435e-22
-5.8194073e-22
5.8122689e-22
0
0
-5.7908455e-22
-5.7837044e-22
5.7765666e-22
5.7694254e-22
5.7622811e-22
3.1961742e-34
-5.747973e-22
0
0
0
-5.7186944e-22
-5.7110195e-22
5.7031103e-22
5.6950003e-22
5.6867823e-22
1.5760263e-34
-5.6705829e-22
0
0
0
-5.6422063e-22
1.5641913e-34
5.6297317e-22
0
0
0
0
0
0
0
-5.5814977e-22
1.5474989e-34
1.1140389e-21
1.5451936e-34
-5.559187e-22
0
0
-5.5432002e-22
7.8699415e-38
-1.5363425e-34
1.5341085e-34
5.5222967e-22
5.5169335e-22
-1.5304176e-34
-5.5058338e-22
0
0
-5.4889105e-22
4.5664233e-34
1.5204658e-34
-7.7786115e-38
5.4694897e-22
-5.4657286e-22
-5.4623346e-22
1.0918311e-21
-3.0270041e-34
-5.4531057e-22
5.4501327e-22
0
-5.4446487e-22
-1.511949e-34
5.4397762e-22
0
-5.4354176e-22
5.4334437e-22
-6.0314463e-34
-5.4298905e-22
5.4283084e-22
0
-5.4255373e-22
0
5.4232735e-22
0
-5.4215026e-22
5.4207993e-22
-3.0070884e-34
-5.4197322e-22
5.4193576e-22
0
-5.4188767e-22
-1.5046795e-34
5.4187029e-22
0
-5.4188994e-22
5.4191952e-22
-1.5403577e-37
-5.4202916e-22
5.4211368e-22
0
-5.4234627e-22
-5.4248775e-22
5.4264926e-22
5.4282042e-22
-5.4300252e-22
5.4319709e-22
5.4340132e-22
-5.4361901e-22
0
0
0
0
0
0
-5.4547345e-22
1.4522585e-53
1.0921551e-21
-5.4638814e-22
-5.4670326e-22
5.4702264e-22
0
0
-5.4802041e-22
-5.4837574e-22
5.487491e-22
5.4914507e-22
0
-5.499843e-22
-1.5292138e-34
5.5088351e-22
0
0
-5.522998e-22
-5.5279269e-22
5.5329484e-22
5.5380612e-22
0
-5.5485547e-22
1.5422126e-34
5.5593513e-22
-5.5648382e-22
-3.0935655e-34
-7.9239193e-38
-5.5815817e-22
5.5872336e-22
5.5929061e-22
0
0
-5.6099704e-22
1.5585554e-34
5.6213041e-22
0
-5.632543e-22
-5.6381063e-22
5.6436243e-22
5.6490903e-22
0
0
0
0
0
0
-5.6864554e-22
1.5796627e-34
5.6969042e-22
0
0
0
0
0
0
-5.7317955e-22
2.2420358e-53
5.7410903e-22
5.7455901e-22
1.5950219e-34
-5.7542666e-22
0
0
0
0
-5.7737547e-22
-1.6033989e-34
5.7805347e-22
-5.783684e-22
-5.7866696e-22
5.7894884e-22
-3.2150776e-34
-4.8254989e-34
-4.8257644e-34
1.611105e-34
-3.2216584e-34
1.6105042e-34
5.8044478e-22
0
-5.8071666e-22
4.8360337e-34
-8.2553068e-38
-5.8098742e-22
5.8104097e-22
5.8107573e-22
-5.8109139e-22
1.6127398e-34
-4.83638e-34
-3.225949e-34
-3.2231342e-34
1.6113437e-34
-3.2237844e-34
-5.8066325e-22
5.8052378e-22
5.8036477e-22
-5.8018594e-22
1.6088606e-34
-6.4363155e-34
-1.6084164e-34
1.608521e-34
1.6061019e-34
1.6060955e-34
-5.7837449e-22
0
5.7767615e-22
-1.6022185e-34
-7.8735934e-53
5.7647933e-22
0
-5.7558364e-22
5.7510719e-22
5.7461157e-22
-5.7409739e-22
0
0
0
0
-5.7125984e-22
1.5837459e-34
-3.1647778e-34
5.693556e-22
5.6868985e-22
-5.6800888e-22
0
0
0
0
-5.6439628e-22
-8.0097435e-38
5.6286307e-22
0
0
0
0
0
0
0
-5.5632709e-22
-5.5547334e-22
5.5461322e-22
5.5374728e-22
0
0
0
0
0
0
-5.4757688e-22
-5.4668658e-22
5.4579602e-22
5.4490568e-22
0
0
0
0
0
0
-5.387397e-22
-5.3787737e-22
5.3702195e-22
5.3617408e-22
0
0
0
0
0
0
-5.3052143e-22
2.9413368e-34
5.2901807e-22
0
0
0
0
0
0
-5.2425997e-22
1.4540783e-34
5.2306401e-22
0
0
0
0
-5.2043319e-22
-7.3892445e-38
5.1953292e-22
-5.1911698e-22
-1.8337765e-53
5.1835537e-22
-5.1801029e-22
2.8750427e-34
5.1739372e-22
-5.171226e-22
-2.8697932e-34
-2.8685698e-34
-1.4013213e-52
-2.8658196e-34
-1.4317815e-34
5.1603487e-22
-5.1594516e-22
-5.1588228e-22
1.0316925e-21
-2.8618203e-34
-1.0317085e-21
0
5.1596882e-22
-1.4330125e-34
-1.4340887e-34
-4.2983774e-34
-4.3005635e-34
-2.8666835e-34
4.3041266e-34
-2.8701017e-34
1.4376729e-34
5.1778834e-22
0
-5.1848456e-22
-7.3735961e-38
-4.32287e-34
-4.327228e-34
7.3921275e-38
2.8900414e-34
-1.4471627e-34
-5.2168933e-22
0
5.2280979e-22
-2.90528e-34
-7.4466942e-38
5.2464724e-22
0
-5.2597086e-22
5.2666097e-22
5.273695e-22
-5.2809558e-22
0
0
-5.3037293e-22
5.8974771e-34
-2.9513163e-34
2.9581286e-34
-1.4825131e-34
5.344648e-22
5.3532249e-22
-5.3619252e-22
0
0
0
0
-5.4070065e-22
-1.5039946e-34
-6.023271e-34
5.4350288e-22
5.4444782e-22
-5.4539667e-22
0
0
0
0
-5.501686e-22
-5.5112222e-22
5.5207347e-22
5.5302178e-22
0
0
0
0
0
0
-5.5951164e-22
-5.6040929e-22
5.6129821e-22
5.6217783e-22
0
0
0
0
0
0
-5.6801096e-22
4.736648e-34
1.1391167e-21
-5.7030942e-22
-1.7131339e-21
-5.717641e-22
0
1.1463013e-21
-6.3718851e-34
-1.9130766e-33
-5.7509873e-22
-1.1514215e-21
1.1526071e-21
-5.7687652e-22
-5.7742958e-22
5.7796199e-22
-5.7847335e-22
8.2275732e-38
5.7943323e-22
5.7988038e-22
-5.8030585e-22
-5.807093e-22
5.8109049e-22
-5.8144944e-22
-8.2676769e-38
5.8210032e-22
0
0
0
1.1662968e-21
-5.8336065e-22
-1.1671045e-21
5.8372359e-22
-5.8387479e-22
-5.840059e-22
1.1682346e-21
-3.1810425e-53
-5.8428243e-22
5.8433619e-22
1.1687422e-21
5.8438791e-22
-1.7531603e-21
5.8436783e-22
2.3071915e-52
-1.7528365e-21
1.1684179e-21
5.8412263e-22
5.8402035e-22
1.167805e-21
-1.1675399e-21
-5.8362282e-22
-5.8346116e-22
5.8328574e-22
5.8309698e-22
-1.7486855e-21
5.8268109e-22
5.824551e-22
-5.8221722e-22
-5.819685e-22
-8.2665887e-38
1.7443204e-21
-5.8116144e-22
9.6712265e-34
-9.6696011e-34
-1.7408242e-21
5.7996419e-22
5.7964719e-22
1.1586482e-21
-5.7899575e-22
-1.1573264e-21
1.1566529e-21
-5.7798607e-22
5.7764283e-22
5.7729711e-22
-1.7308501e-21
5.7660211e-22
5.7625353e-22
-1.1518103e-21
-5.7555772e-22
5.7521135e-22
1.7246003e-21
-5.7452472e-22
-2.2967432e-21
3.1853045e-34
1.1470368e-21
5.7319139e-22
0
1.1451037e-21
1.2703854e-33
-1.7158077e-21
5.7163795e-22
-1.268564e-33
5.7106326e-22
5.7078766e-22
-1.1410414e-21
0
0
0
-5.6954221e-22
3.1609772e-34
1.1382231e-21
-5.689122e-22
-1.1374475e-21
1.7056391e-21
-1.8929674e-33
-1.1364555e-21
5.680861e-22
0
0
0
1.1352938e-21
-5.675701e-22
-1.1350136e-21
1.7023727e-21
-1.6127132e-37
-1.1348035e-21
0
0
-5.6742859e-22
3.1506829e-34
1.1350425e-21
-5.6758811e-22
-1.135338e-21
1.7032919e-21
-9.4547603e-34
-1.1359897e-21
5.6813042e-22
-5.6827923e-22
1.1368814e-21
5.686144e-22
-1.8942028e-33
-5.6899831e-22
-1.1384143e-21
1.70828e-21
-3.2381272e-37
-5.698983e-22
3.1647549e-34
-5.7040672e-22
-5.7067393e-22
3.1691994e-34
1.713692e-21
-1.6243556e-37
-1.7154422e-21
1.1442283e-21
-7.0977932e-52
-1.1454545e-21
5.7303927e-22
-5.7335419e-22
1.1473422e-21
5.7398893e-22
-1.2753009e-33
-5.7462681e-22
-1.1498899e-21
-5.7526223e-22
-5.7557734e-22
1.7276688e-21
0
-5.7650393e-22
-3.2017018e-34
3.203336e-34
-3.2041168e-34
5.7766894e-22
-6.4160435e-34
5.7820814e-22
-1.9265506e-33
-1.736134e-21
1.1578945e-21
1.7375154e-21
5.7938415e-22
-1.7387508e-21
-1.1595398e-21
1.7398258e-21
-5.8009896e-22
-1.7407207e-21
0
0
5.8056268e-22
5.806336e-22
0
-5.8071757e-22
-5.807289e-22
1.1614378e-21
-1.2893017e-33
-1.7418986e-21
6.4450467e-34
5.8045367e-22
5.8032806e-22
5.8017788e-22
-5.8000202e-22
-5.7979965e-22
5.7957077e-22
1.7379455e-21
-5.7903214e-22
-2.3148803e-21
5.783804e-22
1.1560306e-21
5.7762327e-22
0
-5.7675571e-22
0
-5.7577258e-22
5.7523659e-22
-1.2759435e-33
5.7407437e-22
-1.9098439e-33
-1.7183756e-21
5.7210481e-22
5.713873e-22
-5.7063935e-22
-5.69861e-22
5.6905184e-22
1.7046365e-21
-5.6734175e-22
-2.2657598e-21
9.4185875e-34
5.6454316e-22
1.1270983e-21
5.6252508e-22
-1.122943e-21
-3.1105839e-34
-7.94781e-38
5.5813758e-22
-1.2366422e-33
-5.5577437e-22
1.6636559e-21
-6.1425046e-34
-1.1040554e-21
0
0
-5.4804905e-22
3.0344549e-34
1.09055e-21
-5.438536e-22
-1.0848201e-21
-5.4094468e-22
5.9872817e-34
1.613862e-21
5.3643028e-22
-5.3488892e-22
1.066661e-21
-3.022678e-37
-1.7658306e-33
-5.2855053e-22
-1.0538469e-21
1.5758462e-21
-5.8145489e-34
-1.0439205e-21
0
0
1.033789e-21
-1.1438742e-33
-5.6988865e-34
-1.4544932e-37
-1.5300873e-21
-1.0165999e-21
8.4369505e-34
1.5145016e-21
5.0309906e-22
-5.0136451e-22
9.9926231e-22
5.5260346e-34
-1.6523422e-33
-4.94451e-22
-9.8546874e-22
1.4730743e-21
-4.8932293e-22
-4.8763049e-22
4.8594862e-22
-4.8427777e-22
9.6523899e-22
-5.339552e-34
-4.7934488e-22
-6.7889578e-38
-9.5226588e-22
9.4910672e-22
-7.8750601e-34
-9.4290414e-22
4.6993197e-22
0
-4.6695801e-22
-2.5832501e-34
1.392235e-21
-4.6267625e-22
-9.2259957e-22
-4.5994961e-22
-4.5862707e-22
4.5733233e-22
4.5606538e-22
4.5482651e-22
-4.5361656e-22
2.5113614e-34
-2.5043219e-34
4.5015838e-22
-4.9865404e-34
4.4799164e-22
-1.4885406e-33
-1.3377874e-21
8.898675e-22
3.7137163e-52
-4.430044e-22
-4.9069758e-34
2.4492974e-34
1.3206829e-21
-4.3932173e-22
-1.3152624e-21
0
0
4.3571144e-22
4.3479745e-22
8.6774965e-22
-4.3294389e-22
-8.6401101e-22
8.6212538e-22
-4.3012198e-22
-1.2875754e-21
4.2828348e-22
4.2741295e-22
4.265993e-22
4.2586586e-22
-8.5048184e-22
-4.2476636e-22
4.246027e-22
1.2734817e-21
-4.2527602e-22
1.4293776e-50
-7.1029645e-34
-8.5779552e-22
8.6457235e-22
8.621901e-22
-4.3238798e-22
-8.7360926e-22
8.7761331e-22
4.375902e-22
-1.3148229e-21
-1.3301802e-21
4.4606354e-22
8.9066943e-22
4.4556797e-22
-2.4971181e-34
-9.0530515e-22
-4.5351396e-22
4.5323417e-22
9.1180834e-22
-6.5268524e-38
-9.2114179e-22
9.202199e-22
-7.6892501e-34
-9.2982084e-22
4.6553987e-22
9.3001113e-22
9.3151403e-22
0
-4.6973254e-22
-1.406505e-21
-4.6974544e-22
4.7274949e-22
0
0
0
0
-4.7872793e-22
2.6625975e-34
1.4405949e-21
-4.8212661e-22
-1.4533027e-21
-4.8587692e-22
8.1039555e-34
9.758155e-22
4.8993322e-22
-4.9118708e-22
9.8395054e-22
4.9350042e-22
-1.650472e-33
-4.9629396e-22
-9.9443723e-22
1.4977399e-21
-1.4251107e-37
-5.0309518e-22
7.157862e-38
-5.0436666e-22
-5.0710788e-22
5.657002e-34
1.5366269e-21
-1.4547008e-37
-1.5415049e-21
-1.0359512e-21
2.8832213e-34
1.0377889e-21
5.1887558e-22
-5.2383291e-22
1.0517955e-21
5.2516122e-22
-1.7444908e-33
-5.2446522e-22
-1.0538236e-21
1.5844096e-21
-5.8586427e-34
-5.2667975e-22
-5.2728265e-22
-5.2869953e-22
-2.9374329e-34
2.9379275e-34
1.0596355e-21
2.9467401e-34
-1.0643245e-21
1.0657206e-21
-2.6657934e-33
-1.603977e-21
1.0715692e-21
-5.9601312e-34
-1.0752656e-21
5.3858924e-22
5.3955206e-22
1.0808925e-21
-5.4127947e-22
-1.6262393e-21
0
0
0
1.634425e-21
1.6360668e-21
-1.6375411e-21
-1.6388427e-21
1.0933118e-21
-1.5545872e-37
5.4722722e-22
-1.8234735e-33
-1.6426587e-21
1.6428622e-21
-2.7362247e-33
-1.095125e-21
-3.0378978e-34
3.0383676e-34
1.09395e-21
-5.4664245e-22
5.462407e-22
-1.8179734e-33
-1.6356872e-21
1.6338521e-21
5.4393527e-22
-1.2060293e-33
1.0847157e-21
-1.0829248e-21
-5.4049527e-22
-5.3945667e-22
-1.6150398e-21
5.9633489e-34
5.3591177e-22
1.6037583e-21
-3.5515202e-33
-1.5951542e-21
0
5.2855951e-22
1.0537417e-21
-5.2510833e-22
5.2327221e-22
-1.7363729e-33
-1.0387541e-21
1.5519521e-21
-1.1437155e-33
-5.6976936e-34
-5.6693991e-34
-5.6431755e-34
5.0588615e-22
-1.5101107e-21
-1.5023316e-21
4.9810753e-22
9.9072043e-22
0
-4.8963254e-22
5.4011986e-34
-1.073728e-33
5.3338302e-34
4.7724615e-22
-4.7395527e-22
-4.7058648e-22
1.401419e-21
1.8571753e-50
-7.6615453e-34
4.5633019e-22
-5.02165e-34
8.9746483e-22
-8.896305e-22
-8.8164009e-22
-4.3674707e-22
4.8018638e-34
4.2836955e-22
0
0
0
8.2141132e-22
-4.0610144e-22
-8.0284266e-22
1.1899947e-21
-3.9183176e-22
-1.1607651e-21
1.1458053e-21
-1.2551571e-33
-7.434702e-22
1.0995751e-21
7.2248837e-22
0
-7.0094789e-22
-1.1488616e-33
-3.3942938e-22
-6.6760957e-22
3.281112e-22
0
6.3303627e-22
8.828365e-38
3.3821759e-34
-2.9863569e-22
-8.7765903e-22
8.5923742e-22
-4.6685933e-34
-8.2187093e-22
8.0292057e-22
-1.3054116e-33
-5.0965158e-22
2.4832916e-22
-2.4177774e-22
4.7035045e-22
2.2852494e-22
-9.8505789e-34
-2.1508899e-22
-4.1660306e-22
-2.0146486e-22
-1.9457728e-22
3.7527679e-22
1.8065004e-22
0
-1.665433e-22
8.8521305e-35
1.3779802e-51
1.45121e-22
-3.9197089e-38
1.3066543e-22
1.689529e-50
-3.4815625e-22
3.2607652e-22
3.0391575e-22
-1.8779412e-22
-1.7294205e-22
0
1.4311624e-22
-6.4063427e-23
-1.6961907e-22
1.4697181e-22
-6.8989235e-35
-6.7682903e-23
2.625654e-23
0
-1.1065619e-23
-3.4524992e-24
-4.1253397e-24
1.9634137e-35
-3.9019358e-23
-1.5435684e-38
1.0443327e-22
0
-1.5037944e-22
-1.1558971e-22
1.9641831e-22
1.4630626e-22
-2.4247316e-22
-8.8476504e-23
3.8442697e-22
1.0372264e-22
-2.2267927e-22
-2.3794438e-22
1.4057345e-34
1.342904e-22
1.4194481e-22
1.4956363e-22
-1.5713258e-22
1.8279335e-34
-3.4431322e-22
5.9835752e-34
5.6157544e-22
0
0
-4.1962381e-22
4.8247388e-34
2.2467501e-22
-6.9612107e-22
2.3940414e-22
4.108991e-34
8.4665965e-34
7.849538e-22
-2.6905756e-22
1.5338364e-34
-3.1491127e-34
-2.9087123e-22
2.9805902e-22
-4.3381753e-38
1.7347966e-34
-3.550178e-34
-3.2713311e-22
0
3.4155498e-22
-6.97283e-22
-3.5567851e-22
7.2543362e-22
0
-3.7693495e-22
3.8410495e-22
7.8252841e-22
-1.1951107e-21
1.3504099e-33
1.3734089e-33
-4.1933292e-22
1.2789154e-21
-6.1577768e-38
-4.4035647e-22
-4.4740523e-22
4.5443621e-22
4.6143672e-22
-4.6841179e-22
0
4.8235041e-22
-9.7866731e-22
8.2663801e-34
5.0332922e-22
1.1332756e-33
1.1486356e-33
1.4906659e-37
1.0631679e-21
-1.6160366e-21
-1.6372237e-21
0
1.1196294e-21
1.7007879e-21
8.1594046e-38
-5.8152669e-22
-5.8894458e-22
5.963236e-22
6.0359421e-22
-6.1077092e-22
0
-1.2506026e-21
-1.2657776e-21
1.9220936e-21
6.4858904e-22
-6.5638492e-22
1.8871575e-37
6.7144421e-22
1.3579221e-21
6.8675741e-22
-1.1574394e-33
-2.8138116e-21
2.3714739e-33
2.1615124e-21
-7.2867312e-22
-7.3666254e-22
-7.4473688e-22
7.5316176e-22
7.6204779e-22
7.7129658e-22
2.218781e-37
-7.8990654e-22
7.9893244e-22
-2.4235977e-21
-1.6339376e-21
2.4794211e-21
-8.3644466e-22
-1.693496e-21
1.7142717e-21
-8.6740089e-22
8.7751407e-22
1.7753e-21
-2.6942262e-21
9.0897976e-22
-3.0657497e-33
-2.7961212e-21
1.887537e-21
9.5540684e-22
9.6703078e-22
1.9577919e-21
-9.9127318e-22
5.3458625e-77
-2.0354698e-21
-1.0313552e-21
1.1599244e-33
1.0581179e-21
2.1429338e-21
-2.1706236e-21
1.0999978e-21
3.3467421e-21
-3.395354e-21
-1.1481455e-21
-8.5083863e-50
-1.1801544e-21
3.5882975e-21
1.2126273e-21
-1.2301165e-21
-2.4972644e-21
1.2679398e-21
-1.2876651e-21
4.3545995e-33
2.6547896e-21
-4.0424103e-21
-1.5194335e-33
6.1692057e-33
-3.1323517e-33
2.8673326e-21
-2.9146863e-21
1.4820682e-21
6.0309911e-21
-1.5340327e-21
-3.1208646e-21
0
-3.2256834e-21
3.640783e-33
9.4832606e-37
1.8861973e-33
1.7318381e-21
1.7658448e-21
-1.7998866e-21
-1.8332043e-21
3.7321439e-21
-3.7993927e-21
2.1486293e-33
3.9479978e-21
-4.0302109e-21
-6.8530989e-33
2.3319664e-33
2.143113e-21
4.3714015e-21
-2.2295131e-21
2.2757248e-21
-1.2904852e-33
-2.3767175e-21
-4.8607915e-21
2.4849599e-21
5.0797246e-21
-2.5952845e-21
2.6520517e-21
-4.5155234e-33
2.7734463e-21
6.3049905e-33
-5.814601e-21
-5.9551608e-21
-6.7688761e-33
1.0396529e-32
-1.0642598e-32
3.2717326e-21
3.3517664e-21
3.4357089e-21
-3.5231325e-21
0
0
3.7987065e-21
-2.1619424e-33
-5.6765322e-37
-4.5497985e-33
-4.2064719e-21
0
4.4335026e-21
9.1033805e-21
-4.6732782e-21
-9.5977071e-21
-9.8576578e-21
-1.0126471e-20
1.5605626e-20
1.7800199e-32
-1.647576e-20
1.1288379e-20
1.1603944e-20
0
6.1337878e-21
-1.2613796e-20
-6.484617e-21
1.3335243e-20
6.8569758e-21
-7.8304358e-33
-2.1771546e-20
7.467418e-21
2.3050273e-20
-2.3715194e-20
-8.133119e-21
2.5106557e-20
-9.5607212e-33
-8.8661223e-21
-1.8253756e-20
-1.0426843e-32
1.9339164e-20
-1.9905512e-20
1.0245749e-20
3.1648573e-20
0
-1.1187502e-20
-2.3038595e-20
6.5860794e-33
-1.2208369e-20
-2.5138612e-20
2.5887158e-20
2.6662694e-20
0
1.4142303e-20
1.6167328e-32
1.6648659e-32
1.7139994e-32
-4.7696335e-20
-3.2748316e-20
0
3.4739611e-20
3.9710918e-32
1.8418723e-20
5.6893964e-20
-1.9527549e-20
1.1159082e-32
-2.9428839e-36
-2.1326258e-20
-4.3920923e-20
2.2611084e-20
4.6558289e-20
-2.3966294e-20
0
-5.0807076e-20
2.615418e-20
8.077703e-20
-2.7718166e-20
-2.8532383e-20
-5.873908e-20
3.0230791e-20
9.3347631e-20
-3.2025001e-20
3.6583964e-32
6.7833344e-20
-3.4901517e-20
-3.5914737e-20
-7.3914136e-20
-1.140843e-19
7.8255894e-20
8.0502941e-20
-8.2820012e-20
-4.7273993e-32
8.7617034e-20
-9.0124009e-20
-5.1447199e-32
9.5332989e-20
0
-1.0082179e-19
-1.0367127e-19
0
1.6438106e-19
5.6332082e-20
1.6458997e-35
5.9527293e-20
6.11847e-20
6.9792364e-32
-1.292504e-19
-1.3282197e-19
2.2727556e-31
1.4023514e-19
-1.4407973e-19
-2.46486e-31
1.5205651e-19
0
0
0
0
-1.7375234e-19
-9.9056572e-32
1.8318173e-19
9.4033716e-20
-1.9306673e-19
3.3007135e-31
2.0341062e-19
-2.0876359e-19
-1.1895224e-31
1.0992751e-19
-2.2559581e-19
3.8550795e-31
2.3746334e-19
-2.4359459e-19
-2.498655e-19
2.5628219e-19
2.6284745e-19
0
0
0
0
1.4894238e-19
-1.5267909e-19
-1.564994e-19
1.7807181e-31
1.5766968e-74
1.6845784e-19
3.4522194e-19
1.7685209e-19
-3.6236895e-19
-5.568291e-19
1.9012747e-19
3.8947386e-19
-5.9831558e-19
-4.0846995e-19
6.2739164e-19
4.2825811e-19
2.1923199e-19
2.4916055e-31
-4.5949134e-19
0
2.4066494e-19
-2.4628476e-19
5.5955849e-31
7.3291237e-35
8.7863141e-31
2.6992316e-19
2.7611848e-19
-8.0270283e-35
-5.7769927e-19
-5.9079143e-19
1.0059438e-30
6.1774776e-19
0
0
0
3.3736755e-19
3.4481082e-19
-3.5238947e-19
-3.6010788e-19
3.6796848e-19
-7.5194328e-19
-1.1523495e-18
0
8.01659e-19
4.5438032e-31
4.1811882e-19
1.2809671e-18
-4.3601459e-19
7.4135495e-31
-9.0907388e-19
3.0911431e-30
9.4736687e-19
2.6837446e-31
7.0124899e-35
-5.0359432e-19
5.1389799e-19
-1.0487458e-18
-5.3501875e-19
1.0916688e-18
-1.1136394e-18
-1.6142866e-34
6.4328568e-31
5.9082121e-19
1.8075497e-18
-1.2287931e-18
1.1694833e-48
-6.3870949e-19
1.0844857e-30
1.327524e-18
-6.7657162e-19
-1.3791503e-18
7.7998803e-31
2.1485235e-18
-2.0741364e-34
-7.4356748e-19
7.5756194e-19
-1.5435149e-18
-7.8615765e-19
1.6015327e-18
-1.6311728e-18
-9.2187705e-31
4.6954257e-30
-1.9126376e-30
1.7539805e-18
-1.7857523e-18
9.0898174e-19
1.8506207e-18
-9.4186385e-19
9.5864296e-19
-1.951296e-18
1.6536539e-30
3.031025e-18
0
0
-3.1923854e-18
-1.0825294e-18
2.2023363e-18
-2.2400944e-18
-6.4754329e-34
5.1446245e-30
1.3079367e-30
2.3960569e-18
-2.4362898e-18
-2.47702e-18
1.2591268e-18
3.8400005e-18
1.3011348e-18
-1.3225331e-18
0
0
1.3883055e-18
-7.83077e-31
-4.3004292e-18
-4.1395369e-34
2.9594809e-18
1.5032883e-18
-1.694894e-30
-4.6536499e-18
-3.4983107e-30
3.2005332e-18
0
1.6504624e-18
-3.3519907e-18
-1.7018205e-18
3.837044e-30
1.7543584e-18
3.5621541e-18
-1.8080979e-18
0
0
0
0
1.9477835e-18
-1.0971985e-30
-6.0175944e-18
2.0353862e-18
6.1956811e-18
-6.2861672e-18
-2.1258775e-18
4.3133979e-18
2.187859e-18
3.6954255e-30
-6.7536084e-18
1.2979544e-33
7.7136921e-30
2.3487779e-18
4.763994e-18
2.4155728e-18
2.7186319e-30
-2.4838104e-18
-2.5184753e-18
-2.553505e-18
-2.5889013e-18
5.8275605e-30
5.3216211e-18
0
0
2.7715504e-18
4.6776339e-30
4.0463019e-34
-4.1009873e-34
-2.9246938e-18
-5.9279595e-18
-6.0073557e-18
6.0875854e-18
3.4258247e-30
3.1252815e-18
9.4999781e-18
0
0
-3.2933882e-18
-3.3365145e-18
0
3.4241078e-18
-1.9253262e-30
-3.513516e-18
3.5589206e-18
-7.2096031e-18
1.216003e-29
1.109399e-17
-3.7453096e-18
-3.7931046e-18
-7.6827849e-18
3.8901856e-18
1.181848e-17
-3.9893187e-18
2.2428922e-30
-8.181029e-18
-4.1418852e-18
8.3875618e-18
-8.4924284e-18
8.1827937e-47
8.7054719e-18
0
0
-9.0334093e-18
5.0709534e-30
1.5418761e-29
8.7905035e-47
1.4229875e-17
5.3309825e-30
-4.8601423e-18
-9.8389536e-18
-9.9588404e-18
1.0079951e-17
1.1326101e-29
5.162949e-18
1.7405899e-29
-5.2884671e-18
1.0704179e-17
0
5.4810868e-18
-6.1559511e-30
-5.612696e-18
-1.1358986e-17
-6.3783663e-30
1.1630214e-17
0
0
6.0236768e-18
-3.382961e-30
-1.849862e-17
-6.925716e-30
1.2623132e-17
0
-6.4598053e-18
6.5350197e-18
6.610969e-18
6.6876565e-18
6.7650858e-18
-1.3686522e-17
-2.076656e-17
7.0018676e-18
1.4164617e-17
-2.1490536e-17
3.1704288e-47
1.4656452e-17
0
0
0
0
-1.5507215e-17
-1.5682068e-17
7.9292489e-18
2.4054767e-17
9.0057846e-30
-8.1986548e-18
1.6580098e-17
1.6764479e-17
-8.4752262e-18
-3.4276036e-17
-1.7327178e-17
2.62769e-17
1.7710286e-17
-2.6856351e-17
-2.0090929e-29
1.8296906e-17
0
0
0
-1.9101224e-17
-1.0716424e-29
2.1664941e-29
-9.8604578e-18
2.9895873e-17
-1.0070892e-17
-1.0177256e-17
3.0853131e-17
2.0784499e-17
-1.050087e-17
-2.1220464e-17
-2.1440664e-17
3.6078869e-29
-1.2151191e-29
3.1420174e-33
2.2335947e-17
0
1.139605e-17
1.1511135e-17
-1.1626912e-17
-1.1743384e-17
1.1860511e-17
1.1978272e-17
-2.4189746e-17
-1.1285841e-17
1.0923653e-17
-1.1589879e-17
1.1934255e-17
2.4381404e-17
0
0
-3.8271342e-17
-1.2919451e-17
2.6114791e-17
1.3201621e-17
1.3350242e-17
-2.6967681e-17
1.5126141e-29
2.7520933e-17
0
-1.4024131e-17
-4.2484161e-17
-3.173174e-29
8.0075278e-29
-2.911733e-17
4.4073549e-17
1.4822189e-17