-1.25 	300 	0.1183554288145652 	101277.4471741852
-1.247497497497497 	299.9560816403942 	0.1190895260783853 	101275.3227655967
-1.244994994994995 	299.9574371543048 	0.1224868275476395 	101274.6945230882
-1.242492492492492 	299.9575711188778 	0.1234110796034109 	101274.8401202298
-1.23998998998999 	299.9584001435694 	0.1200416516432918 	101275.8289921338
-1.237487487487487 	299.9601218964839 	0.1152746694948664 	101277.8635301488
-1.234984984984985 	299.9626102170602 	0.1080687733763266 	101280.8042348505
-1.232482482482482 	299.9657845869783 	0.0988943298159419 	101284.5557456473
-1.22997997997998 	299.9696207392566 	0.08784802574205297 	101289.0894762217
-1.227477477477477 	299.9739741208638 	0.07524003279199781 	101294.2347453196
-1.224974974974975 	299.9787418487445 	0.06142604753213596 	101299.8699526444
-1.222472472472472 	299.9838778833401 	0.04656439354425371 	101305.9407830197
-1.21996996996997 	299.9893196362635 	0.03083645807265235 	101312.3732874194
-1.217467467467467 	299.9949441037575 	0.01455222707658356 	101319.0220344238
-1.214964964964965 	300.000639251035 	0.008325830720925896 	101325.7546749385
-1.212462462462462 	300.0063632301968 	0.01847501838582141 	101332.5217069475
-1.20995995995996 	300.0120040210022 	0.03470892265965395 	101339.1907463487
-1.207457457457457 	300.0174058204976 	0.05033255134375124 	101345.5775486007
-1.204954954954955 	300.0225063923631 	0.06510684474513831 	101351.6084305425
-1.202452452452452 	300.0272306750494 	0.0787721634791507 	101357.1946317493
-1.19994994994995 	300.0314419818301 	0.09091030224292172 	101362.1745003978
-1.197447447447447 	300.0350367443148 	0.1012920221745352 	101366.4254325963
-1.194944944944945 	300.0379728526739 	0.1098010253638066 	101369.8976020676
-1.192442442442442 	300.0402171006849 	0.1162927343858537 	101372.5517021786
-1.18993993993994 	300.0417418746359 	0.1206897035423674 	101374.3549322483
-1.187437437437437 	300.0425275130801 	0.1229087241289211 	101375.2841108969
-1.184934934934935 	300.0425270408632 	0.1228584777003083 	101375.2835556497
-1.182432432432432 	300.0416976416302 	0.1204656957485334 	101374.30277497
-1.17992992992993 	300.0400543196798 	0.1157333820620582 	101372.3595625855
-1.177427427427427 	300.0376588125851 	0.1088306336817181 	101369.5267445615
-1.174924924924925 	300.0345816697373 	0.09994123410468732 	101365.8879431511
-1.172422422422422 	300.030882630251 	0.0892409509465628 	101361.5138107491
-1.16991991991992 	300.0266272721279 	0.07694858385526299 	101356.4820078048
-1.167417417417417 	300.0218921556342 	0.06325948466842263 	101350.8831383919
-1.164914914914915 	300.0167615243054 	0.04840586410276615 	101344.8167626681
-1.162412412412412 	300.011323223806 	0.03266685662342459 	101338.3869240762
-1.15990990990991 	300.0056994276807 	0.01639416080927224 	101331.738041688
-1.157407407407407 	300.0000017468613 	0.008209519888256051 	101325.0021436615
-1.154904904904904 	299.9942935772811 	0.01658994787828859 	101318.2541872377
-1.152402402402403 	299.9886503457152 	0.03288817802164948 	101311.5832275281
-1.1498998998999 	299.9831750788113 	0.048663954075772 	101305.1111556291
-1.147397397397397 	299.9779923798582 	0.06361836200517067 	101298.985159591
-1.144894894894895 	299.9732333691208 	0.07738432971381318 	101293.3602098314
-1.142392392392392 	299.9689968174912 	0.08966636384963708 	101288.3529840131
-1.13988988988989 	299.9653505408936 	0.1002278630734322 	101284.0434762226
-1.137387387387387 	299.9623395277088 	0.1089298824179197 	101280.4849026366
-1.134884884884885 	299.9600030492114 	0.1156784005263072 	101277.7235449085
-1.132382382382382 	299.9583912440405 	0.1203205451540484 	101275.8186150215
-1.12987987987988 	299.9575490484489 	0.1227547372030265 	101274.8232724485
-1.127377377377377 	299.9574991011234 	0.1228499041686098 	101274.7641902582
-1.124874874874875 	299.9582641323152 	0.1205853004129092 	101275.6682288896
-1.122372372372372 	299.9598325298699 	0.1160719133759303 	101277.5216403681
-1.11986986986987 	299.9621483556327 	0.1093974585037405 	101280.2584585634
-1.117367367367367 	299.9651496173464 	0.1007473436010721 	101283.8054067395
-1.114864864864865 	299.9687774355604 	0.09026996554678646 	101288.0929131309
-1.112362362362362 	299.9729587181178 	0.07814216335725389 	101293.0347485546
-1.10985985985986 	299.9776365611482 	0.06462820614306697 	101298.5636435769
-1.107357357357357 	299.9827238575978 	0.04994044077597976 	101304.5768062221
-1.104854854854855 	299.9881025391064 	0.03438047233025204 	101310.934665115
-1.102352352352353 	299.9936614794382 	0.01826464661262997 	101317.5058617279
-1.09984984984985 	299.9993098803808 	0.007869646260643787 	101324.1831729767
-1.097347347347347 	300.0049903373665 	0.01452293774315764 	101330.8986573055
-1.094844844844845 	300.0106341902947 	0.03076997460736065 	101337.5712466409
-1.092342342342342 	300.0161054212742 	0.04656616511845647 	101344.0400638256
-1.08983983983984 	300.0212767646314 	0.0615459828226372 	101350.1545533052
-1.087337337337337 	300.0260467515689 	0.07535638418869914 	101355.7947697517
-1.084834834834835 	300.0303278480234 	0.08770512331761214 	101360.8570737789
-1.082332332332332 	300.0340521186167 	0.09847035709217208 	101365.2611223
-1.07982982982983 	300.0371764833185 	0.1075155336108896 	101368.9559089601
-1.077327327327327 	300.0396384172176 	0.1146499396817779 	101371.8673777542
-1.074824824824825 	300.0413806922787 	0.119680353659345 	101373.9278526299
-1.072322322322323 	300.0423489229916 	0.1224150086214016 	101375.0729588323
-1.06981981981982 	300.0425024817799 	0.1228181430693136 	101375.2545647054
-1.067317317317317 	300.0418426607 	0.1209319720349009 	101374.4743442887
-1.064814814814815 	300.0404078073396 	0.1167924462983302 	101372.7776174649
-1.062312312312312 	300.0382289604184 	0.1105118115405267 	101370.2010322579
-1.05980980980981 	300.0353492157334 	0.1021764251888853 	101366.7956468498
-1.057307307307307 	300.0318137557537 	0.09193945233094468 	101362.6149163106
-1.054804804804805 	300.0276797532399 	0.0800180217547215 	101357.7265912373
-1.052302302302302 	300.0230318729986 	0.06659541699214327 	101352.2308002641
-1.0497997997998 	300.0179721775402 	0.05195622108077501 	101346.2482540851
-1.047297297297297 	300.012594017454 	0.03638748214133484 	101339.8894569929
-1.044794794794795 	300.0070048548871 	0.02019748701203193 	101333.2814474251
-1.042292292292292 	300.0013015409456 	0.007429667175327874 	101326.5388287367
-1.03978978978979 	299.9955638798282 	0.01288941472822724 	101319.7559122168
-1.037287287287287 	299.9898868732743 	0.02928712824213778 	101313.0449769443
-1.034784784784785 	299.9843856373631 	0.04515093594355152 	101306.5421381533
-1.032282282282283 	299.9791770853795 	0.0602039159174123 	101300.3855147261
-1.02977977977978 	299.9743587007802 	0.07413972625924085 	101294.6903496529
-1.027277277277277 	299.9700015961532 	0.08674258137713634 	101289.5405666712
-1.024774774774775 	299.9661870994974 	0.09776816343776606 	101285.0322355061
-1.022272272272272 	299.9629931498282 	0.1069994063282198 	101281.2574279099
-1.01976976976977 	299.9604882906494 	0.1142442410170604 	101278.2970507454
-1.017267267267267 	299.9587321290376 	0.1193046652698695 	101276.2215291189
-1.014764764764765 	299.9577602329774 	0.1221250267001153 	101275.0728729514
-1.012262262262262 	299.9575700856392 	0.1226448741184599 	101274.8481228492
-1.00975975975976 	299.9581668976622 	0.1208989483561498 	101275.5533781917
-1.007257257257257 	299.9595379774172 	0.1169463593179098 	101277.1736011591
-1.004754754754755 	299.9616578327356 	0.1107971088073242 	101279.678805015
-1.002252252252252 	299.9644901624293 	0.1026090006950015 	101283.0260702484
-0.9997497497497498 	299.9679814431634 	0.09253938406942216 	101287.1521997036
-0.9972472472472473 	299.9720416711132 	0.08079465008645105 	101291.9509220266
-0.9947447447447449 	299.9766057478775 	0.06761884625363547 	101297.3453260558
-0.9922422422422421 	299.9815854806572 	0.05321993333639874 	101303.2312690416
-0.9897397397397399 	299.9868880945903 	0.03787312960497221 	101309.4991364681
-0.9872372372372376 	299.9924106640814 	0.02190361356188414 	101316.0273002983
-0.9847347347347346 	299.9980421555469 	0.006634130359369821 	101322.6845277376
-0.9822322322322323 	300.0037050482852 	0.01077543997716147 	101329.3792091786
-0.9797297297297296 	300.0093172900546 	0.02697795952538954 	101336.0143219572
-0.9772272272272275 	300.0147682620671 	0.04275375137846844 	101342.4591002544
-0.9747247247247248 	300.0199600021467 	0.0577651955851067 	101348.5976751355
-0.9722222222222224 	300.024804296617 	0.07176767899616665 	101354.3256559669
-0.9697197197197196 	300.0292142401553 	0.0845006355120036 	101359.5402927547
-0.9672172172172175 	300.0331051116474 	0.09572156492473465 	101364.1412921377
-0.9647147147147147 	300.036398477789 	0.1052429842238747 	101368.035879872
-0.9622122122122124 	300.0390237240333 	0.1128263609447318 	101371.1404958019
-0.9597097097097099 	300.0409287173846 	0.1183292363062619 	101373.3933692424
-0.9572072072072073 	300.0420697027724 	0.1216155325887499 	101374.7427876494
-0.9547047047047047 	300.0424193362816 	0.1226114907298556 	101375.1562892803
-0.9522022022022023 	300.0419712382153 	0.1213281724681059 	101374.6263988999
-0.9496996996996998 	300.0407389915529 	0.11776140053086 	101373.169290714
-0.9471971971971973 	300.0387512510212 	0.1120206995621282 	101370.8187091276
-0.9446946946946947 	300.0360516286566 	0.1041992984560802 	101367.626309095
-0.9421921921921923 	300.0326834864347 	0.09443982625440889 	101363.6434266226
-0.93968968968969 	300.0287048842786 	0.08294899786621721 	101358.9387999773
-0.9371871871871872 	300.0241887813197 	0.0698856036682849 	101353.598789276
-0.9346846846846848 	300.0192191283908 	0.05552509206265197 	101347.7226624395
-0.9321821821821823 	300.013891649647 	0.0401302191331783 	101341.423715733
-0.9296796796796799 	300.0083204276488 	0.02401314305625165 	101334.8368650596
-0.9271771771771771 	300.0026163803436 	0.007541763590897827 	101328.0932807033
-0.9246746746746748 	299.9968831562403 	0.01009429874773509 	101321.3155391641
-0.9221721721721724 	299.9912054438072 	0.02546428640596959 	101314.6037108708
-0.9196696696696698 	299.9856768648829 	0.04143408753598282 	101308.0684713675
-0.9171671671671672 	299.980399687037 	0.0567065024410455 	101301.8306922447
-0.9146646646646649 	299.9754720142811 	0.07094967203583871 	101296.0062639943
-0.9121621621621623 	299.970984583592 	0.08391585354030043 	101290.7024132287
-0.9096596596596597 	299.9670382902434 	0.09530958805752786 	101286.0382923869
-0.9071571571571573 	299.9637118298048 	0.1049152139461552 	101282.1068306814
-0.9046546546546547 	299.9610697386976 	0.1125506142040629 	101278.984287645
-0.9021521521521524 	299.9591626067541 	0.1180515981580538 	101276.73032969
-0.8996496496496498 	299.9580205940294 	0.1213578785380915 	101275.3806100879
-0.8971471471471473 	299.9576529490126 	0.1223938104333683 	101274.946107799
-0.894644644644645 	299.9580767614957 	0.1211740006355647 	101275.4469034094
-0.892142142142142 	299.9592767607299 	0.1177175962309214 	101276.8649693695
-0.8896396396396397 	299.961228033659 	0.1120633234032762 	101279.1709182628
-0.8871371371371374 	299.9638941230887 	0.1043573818091979 	101282.321700582
-0.8846346346346349 	299.9672222686012 	0.09473700338122924 	101286.2550180848
-0.8821321321321324 	299.9711411131985 	0.08338829281652188 	101290.8865812123
-0.8796296296296297 	299.9755953014644 	0.07052845666957797 	101296.1510751392
-0.8771271271271271 	299.980487473399 	0.05637870459657723 	101301.93346921
-0.8746246246246248 	299.9857188958769 	0.04123923638236424 	101308.1171230426
-0.8721221221221224 	299.9911809481209 	0.02545654106644606 	101314.5736902566
-0.8696196196196196 	299.9967561953609 	0.009326641840901964 	101321.1643414319
-0.8671171171171175 	300.0023668414518 	0.009448544014080778 	101327.7971913146
-0.8646146146146148 	300.0079495786121 	0.02301444464600531 	101334.3973561732
-0.8621121121121121 	300.0134149438769 	0.03883592251667856 	101340.8590713548
-0.8596096096096097 	300.0186659610804 	0.05401349809643358 	101347.0676530041
-0.857107107107107 	300.0235995706655 	0.06827763310472443 	101352.9011662092
-0.8546046046046049 	300.0281154164597 	0.08132359008461298 	101358.2409859372
-0.8521021021021022 	300.0321287867152 	0.09291453442304956 	101362.9868072958
-0.8495995995995997 	300.0355651372006 	0.1028560696922339 	101367.0504497727
-0.8470970970970974 	300.0383575426179 	0.1109107959315349 	101370.3527137231
-0.8445945945945946 	300.0404474606454 	0.1169347881359538 	101372.8242447753
-0.8420920920920922 	300.0417787025794 	0.12075839587125 	101374.3986733923
-0.8395895895895897 	300.0423181359354 	0.1223144282825411 	101375.0366516543
-0.8370870870870872 	300.0420655783572 	0.1215979381720427 	101374.7379992588
-0.8345845845845846 	300.0410350165457 	0.1186116569964307 	101373.519385117
-0.8320820820820823 	300.039249120172 	0.1134556151948726 	101371.4074820976
-0.8295795795795798 	300.0367376143364 	0.106179134157911 	101368.4375492847
-0.8270770770770772 	300.0335325906925 	0.09690262443193368 	101364.6475319302
-0.8245745745745746 	300.0296868315696 	0.08579445560525864 	101360.0999740575
-0.8220720720720721 	300.0252764916376 	0.07302874218246302 	101354.8849767698
-0.8195695695695699 	300.0203884222012 	0.05890549821518548 	101349.1052392617
-0.817067067067067 	300.0151270848057 	0.04370261409598672 	101342.8844520397
-0.8145645645645651 	300.0096079397723 	0.02774044383585566 	101336.3590958292
-0.8120620620620621 	300.0039398965894 	0.01136632819577379 	101329.6580200713
-0.8095595595595597 	299.9982222482449 	0.009095625258618322 	101322.8986192699
-0.8070570570570572 	299.9925259354537 	0.02165171378449632 	101316.1647059189
-0.8045545545545546 	299.9869478623326 	0.03774750899900808 	101309.5709168766
-0.8020520520520523 	299.9816022220109 	0.05322141353400416 	101303.2521333197
-0.7995495495495494 	299.9765889529026 	0.06771952969587977 	101297.3264977873
-0.7970470470470474 	299.9720020915448 	0.08098324173371681 	101291.905076423
-0.7945445445445446 	299.9679376057273 	0.09271495435430466 	101287.1012011836
-0.7920420420420423 	299.964474938873 	0.102698697132048 	101283.0087665332
-0.7895395395395397 	299.9616860841234 	0.1107650281452674 	101279.7127441822
-0.7870370370370371 	299.9596268321337 	0.1167209907871777 	101277.279029255
-0.7845345345345348 	299.9583238190785 	0.1204936806685141 	101275.7390191017
-0.7820320320320323 	299.9577908004514 	0.1219987531909968 	101275.1090530604
-0.7795295295295296 	299.958039781153 	0.1212712796429863 	101275.403271566
-0.7770270270270272 	299.9590581101641 	0.1183460984568895 	101276.6066221979
-0.7745245245245247 	299.9608282967558 	0.1132232225979804 	101278.6985731524
-0.7720220220220222 	299.9633233747996 	0.1060182226689894 	101281.6472400056
-0.7695195195195199 	299.9664939250758 	0.09682772653124992 	101285.3942534568
-0.767017017017017 	299.9702807540112 	0.08586019235084835 	101289.8697919321
-0.7645145145145147 	299.9746159502004 	0.07335785614714133 	101294.9935758722
-0.7620120120120122 	299.9793997637318 	0.0595335480911482 	101300.6478608513
-0.7595095095095097 	299.9845332804088 	0.04468248095647426 	101306.7157316084
-0.7570070070070072 	299.9899176828988 	0.0291146573239143 	101313.0804125639
-0.7545045045045048 	299.9954400835621 	0.01313378359630067 	101319.6085621707
-0.7520020020020022 	300.0010173149001 	0.007971368758892769 	101326.2017995355
-0.7494994994994997 	300.0065876260153 	0.01908836839071177 	101332.7872090236
-0.7469969969969972 	300.0120685858286 	0.03495460303075506 	101339.2672967719
-0.7444944944944945 	300.0173635628757 	0.05025817668085714 	101345.5277506892
-0.7419919919919924 	300.0223697638983 	0.06472634467963134 	101351.4470792044
-0.7394894894894897 	300.0269843633969 	0.07805531595588397 	101356.9035715448
-0.7369869869869872 	300.0311221783527 	0.0899945997141243 	101361.796511735
-0.7344844844844846 	300.0346980635312 	0.1003385108511597 	101366.0251458115
-0.7319819819819822 	300.0376430162792 	0.1088385360767318 	101369.5077406271
-0.7294794794794797 	300.0398979770757 	0.1153455414330939 	101372.1744834536
-0.7269769769769773 	300.0414135573841 	0.1197128938450688 	101373.9668608717
-0.7244744744744747 	300.0421567235168 	0.1218580604624678 	101374.8457970359
-0.721971971971972 	300.0421223098822 	0.1217684707044672 	101374.8051364624
-0.7194694694694695 	300.0413035213655 	0.1193912177579962 	101373.8369093646
-0.7169669669669674 	300.0397146993593 	0.1148025538738007 	101371.9581033952
-0.7144644644644647 	300.0373790000904 	0.1080377161355016 	101369.1960388263
-0.711961961961962 	300.0343304223719 	0.09920226125708125 	101365.5910207467
-0.7094594594594597 	300.0306212278153 	0.08850057078856019 	101361.2049356598
-0.7069569569569573 	300.02633172169 	0.07607322330791449 	101356.1327427994
-0.7044544544544545 	300.0215411830227 	0.0622446527838098 	101350.4683088122
-0.7019519519519523 	300.0163581353146 	0.04727273732798645 	101344.3400054027
-0.6994494494494495 	300.0108932269194 	0.03145589790712106 	101337.8787255784
-0.6969469469469471 	300.0052577512943 	0.01518259913813797 	101331.2160886522
-0.6944444444444446 	299.9995537377573 	0.007255828450420522 	101324.4727084171
-0.6919419419419421 	299.9938469218328 	0.01782953194112882 	101317.7263314097
-0.6894394394394396 	299.9882324369946 	0.03402348185079437 	101311.0894039422
-0.6869369369369374 	299.9828242189235 	0.04969576200277852 	101304.6966124716
-0.6844344344344344 	299.9777222914557 	0.06443548502696038 	101298.6661223471
-0.6819319319319321 	299.9730299599221 	0.07800957233702555 	101293.119980783
-0.6794294294294296 	299.9688468131802 	0.09007159390340845 	101288.175840982
-0.6769269269269272 	299.9652579341194 	0.1004086128363542 	101283.9341827435
-0.6744244244244245 	299.9623354580997 	0.1088871857937523 	101280.480254814
-0.6719219219219222 	299.9601293126233 	0.1152734001875885 	101277.8729348899
-0.6694194194194195 	299.95865959114 	0.1195318405131832 	101276.1358889931
-0.6669169169169172 	299.9579503445801 	0.121547791917888 	101275.2976593219
-0.6644144144144146 	299.9580168130658 	0.1213362958730852 	101275.3761608855
-0.661911911911912 	299.9588553449056 	0.1189400181485358 	101276.3670742533
-0.6594094094094097 	299.9604552547877 	0.1142961505440071 	101278.2577735648
-0.656906906906907 	299.9627915344862 	0.1075523076924169 	101281.0187467149
-0.6544044044044046 	299.9658122781227 	0.09877053302797634 	101284.5887129238
-0.6519019019019021 	299.9694683973752 	0.08817975507062256 	101288.9097007502
-0.6493993993993996 	299.9736831632701 	0.07605500735553486 	101293.8911501423
-0.6468968968968971 	299.9783588624077 	0.06253946733751695 	101299.4175851655
-0.6443943943943946 	299.9833996837531 	0.04797897056125531 	101305.3758231992
-0.6418918918918921 	299.9887095694222 	0.03262625567091351 	101311.6523819779
-0.6393893893893897 	299.9941733621508 	0.01680036842181752 	101318.1111436195
-0.6368868868868871 	299.9997073674396 	0.005657636509284534 	101324.6532447704
-0.6343843843843846 	300.0052455834774 	0.01521962758124749 	101331.2006299358
-0.6318818818818821 	300.0107295069785 	0.03109500844182356 	101337.6841258329
-0.6293793793793795 	300.016061666304 	0.04651515594668766 	101343.9884947973
-0.6268768768768773 	300.0211348116985 	0.06119258753327383 	101349.9868766826
-0.6243743743743745 	300.0258378942403 	0.07475283054148861 	101355.5481048131
-0.6218718718718721 	300.0300892848264 	0.08700773577707156 	101360.5753888573
-0.6193693693693696 	300.0337918029657 	0.09770710787296638 	101364.9535402076
-0.6168668668668671 	300.0368855310587 	0.1066342496802992 	101368.6120071218
-0.6143643643643645 	300.0393091763614 	0.1136477159574709 	101371.4781913861
-0.6118618618618621 	300.041013709123 	0.1185472710805108 	101373.4940292662
-0.6093593593593596 	300.041956173508 	0.1212812463357664 	101374.6086734454
-0.6068568568568571 	300.0421277914509 	0.1217728883499964 	101374.8116574213
-0.6043543543543546 	300.0415044104228 	0.1199751120196865 	101374.0744984818
-0.6018518518518521 	300.0401057393354 	0.1159557596465912 	101372.4205579926
-0.5993493493493496 	300.0379507417222 	0.109697034964075 	101369.8721891586
-0.5968468468468471 	300.0350792488857 	0.1013684287556228 	101366.4765814255
-0.5943443443443446 	300.0315360594504 	0.09112898503230343 	101362.2867435493
-0.591841841841842 	300.0273944171643 	0.07911592340977844 	101357.3893670378
-0.5893393393393397 	300.022714143987 	0.06563288705197336 	101351.8552603384
-0.5868368368368371 	300.0176131789835 	0.05088263447279055 	101345.8239471719
-0.5843343343343346 	300.0121973727387 	0.0352235480017755 	101339.4206662667
-0.5818318318318321 	300.0065867959531 	0.019025558431065 	101332.7873808974
-0.5793293293293297 	300.0008869302978 	0.004549380025157783 	101326.0488316273
-0.5768268268268271 	299.9951662839989 	0.01399070606864034 	101319.2860319568
-0.5743243243243245 	299.9895181222005 	0.0303072361449437 	101312.6092239662
-0.5718218218218221 	299.9840577045047 	0.04614743126023996 	101306.1546678021
-0.5693193193193196 	299.9788841288685 	0.06110398969044367 	101300.0394278668
-0.5668168168168171 	299.9741042878125 	0.07493731298609674 	101294.3897990227
-0.5643143143143147 	299.9698128258461 	0.08730033355135791 	101289.3175989111
-0.5618118118118121 	299.9660945684532 	0.09801751231862219 	101284.9230125973
-0.5593093093093094 	299.9630200724845 	0.1069192525846276 	101281.289395538
-0.5568068068068072 	299.9606461289509 	0.1137694700612379 	101278.483769626
-0.5543043043043046 	299.9590034189084 	0.1185148021320401 	101276.5422860756
-0.551801801801802 	299.9581263858629 	0.1210187963186764 	101275.5057317584
-0.5492992992992995 	299.9580243447915 	0.1213143645490253 	101275.3851210238
-0.5467967967967969 	299.9586955171382 	0.1194168604721901 	101276.1782451449
-0.5442942942942947 	299.9601272076212 	0.1152698560841071 	101277.8701473928
-0.5417917917917919 	299.9623013917821 	0.1090066842805808 	101280.4395448218
-0.5392892892892895 	299.9651693763966 	0.1006605284136289 	101283.8289465854
-0.536786786786787 	299.9686853636283 	0.0904752676690715 	101287.9843117384
-0.5342842842842846 	299.972767606713 	0.07870573561824902 	101292.8090813499
-0.531781781781782 	299.9773273038487 	0.06550572231254055 	101298.1983654782
-0.5292792792792794 	299.9822689837991 	0.05122620634335497 	101304.0393656279
-0.526776776776777 	299.9875021810228 	0.03609453994086659 	101310.2251901514
-0.5242742742742745 	299.992910402401 	0.02044000875029664 	101316.6182191746
-0.521771771771772 	299.998409570641 	0.004579551557903599 	101323.119053133
-0.5192692692692695 	300.003923371586 	0.01193657170750879 	101329.6374985428
-0.516766766766767 	300.0094126126875 	0.02726200599220952 	101336.1272171606
-0.5142642642642645 	300.0147722372886 	0.0427374483921148 	101342.4639650516
-0.511761761761762 	300.0198900432268 	0.05756835051254778 	101348.5151138239
-0.5092592592592596 	300.024664717205 	0.07136211465980839 	101354.1607853887
-0.506756756756757 	300.0290136633377 	0.08392538271464128 	101359.3032831332
-0.5042542542542544 	300.0328415399645 	0.09498610125565367 	101363.8298136792
-0.5017517517517521 	300.0360903326264 	0.1043481796279696 	101367.671652739
-0.4992492492492494 	300.0386878498389 	0.1118773669256573 	101370.7434609007
-0.496746746746747 	300.0405799764244 	0.1173278029055931 	101372.9811247038
-0.4942442442442445 	300.0417240593625 	0.1206248561400526 	101374.3341925236
-0.4917417417417421 	300.0420970154779 	0.1216733733146588 	101374.7753186476
-0.4892392392392395 	300.0416676568053 	0.1204315377091696 	101374.2675422391
-0.486736736736737 	300.0404582974592 	0.116958416937401 	101372.8375114716
-0.4842342342342345 	300.0384825790637 	0.1112310227213208 	101370.5011479152
-0.481731731731732 	300.0357783854017 	0.103400696199443 	101367.3033517156
-0.4792292292292296 	300.0323901534657 	0.09360328696060739 	101363.2967506824
-0.4767267267267268 	300.0283817720165 	0.0819851940166528 	101358.5568989435
-0.4742242242242246 	300.0238157856139 	0.06884535013808642 	101353.1578968532
-0.471721721721722 	300.0188105320805 	0.05436547386869329 	101347.2397006287
-0.4692192192192195 	300.0134616742835 	0.03889144245158502 	101340.9154992942
-0.4667167167167169 	300.007886584869 	0.02278975388982777 	101334.3241190449
-0.4642142142142145 	300.0021973980676 	0.006297706605868515 	101327.5981071551
-0.461711711711712 	299.996471382969 	0.01142055545119369 	101320.8288930232
-0.4592092092092094 	299.9907958977399 	0.02662186515037161 	101314.1197259076
-0.456706706706707 	299.9852866634749 	0.04259335159667886 	101307.6073855305
-0.4542042042042045 	299.9800462786529 	0.05772750129314469 	101301.4131266031
-0.451701701701702 	299.9751827652668 	0.07179082585504061 	101295.664541505
-0.4491991991991995 	299.9707902170156 	0.0844418727460205 	101290.4728241241
-0.4466966966966969 	299.9669493406447 	0.09551667759276986 	101285.9332968181
-0.4441941941941945 	299.9637322030555 	0.1048415944580778 	101282.1310701271
-0.441691691691692 	299.9612011681224 	0.1121585384301965 	101279.1397768755
-0.4391891891891895 	299.9593948319159 	0.1173922935007208 	101277.0049326252
-0.436686686686687 	299.9583519936608 	0.1203868697925664 	101275.772390791
-0.4341841841841846 	299.9580861449177 	0.1211560893965168 	101275.4582128976
-0.431681681681682 	299.9585919927318 	0.1197183527207861 	101276.0559628854
-0.4291791791791794 	299.9598558702179 	0.1160451567641256 	101277.5495332085
-0.426676676676677 	299.9618560760612 	0.1102689809463039 	101279.9133228871
-0.4241741741741744 	299.964551743531 	0.1024251944337704 	101283.0990596769
-0.421671671671672 	299.9679035994343 	0.09271255690866352 	101287.0604195166
-0.4191691691691694 	299.971843831127 	0.08135714223669971 	101291.71730876
-0.4166666666666669 	299.9762871201858 	0.06851524466657206 	101296.9689510197
-0.4141641641641645 	299.9811410477524 	0.05451864992525343 	101302.7061800904
-0.411661661661662 	299.9863024341612 	0.0395996355689083 	101308.8070615039
-0.4091591591591594 	299.9916591598873 	0.02408623612005261 	101315.1391470833
-0.406656656656657 	299.9971202052019 	0.008314206373116147 	101321.5948470341
-0.4041541541541545 	300.0026052844736 	0.009473615806066907 	101328.0792616936
-0.401651651651652 	300.0080875207818 	0.02343461815581388 	101334.5606281297
-0.3991491491491494 	300.0134595346497 	0.03895365941460384 	101340.9119513936
-0.396646646646647 	300.0186139081032 	0.0539111827738328 	101347.0062677701
-0.3941441441441444 	300.0234604638052 	0.06789231906872527 	101352.7368711338
-0.3916416416416419 	300.0279097537941 	0.08072563231797578 	101357.9979708893
-0.3891391391391395 	300.0318667792154 	0.09213151652424416 	101362.6771734671
-0.3866366366366368 	300.0352674725937 	0.1019228344384876 	101366.6986102953
-0.3841341341341344 	300.0380327388797 	0.1099629566900431 	101369.9687699222
-0.381631631631632 	300.0401109389928 	0.1159673835916334 	101372.4264676876
-0.3791291291291294 	300.0414577080363 	0.1198418536476426 	101374.019232928
-0.3766266266266269 	300.0420256071128 	0.1214649219975526 	101374.6909118656
-0.3741241241241244 	300.0417861423746 	0.1207962791794391 	101374.407684238
-0.371621621621622 	300.0407665543813 	0.117883951235048 	101373.2020666051
-0.3691191191191194 	300.0389756687313 	0.1126694159329234 	101371.084285448
-0.366616616616617 	300.0364467023086 	0.1053208890202363 	101368.0937064
-0.3641141141141143 	300.0332201621818 	0.09594987050007095 	101364.2782706685
-0.3616116116116119 	300.0293458525278 	0.08473503539558665 	101359.6969355912
-0.3591091091091095 	300.0248998607011 	0.07197167945088764 	101354.4397748063
-0.356606606606607 	300.0199978492881 	0.05776178349279464 	101348.6435919668
-0.3541041041041044 	300.0147174359287 	0.0425026758128161 	101342.4002715346
-0.3516016016016019 	300.0091755610351 	0.02651664084631305 	101335.8480734785
-0.3490990990990994 	300.0034942664978 	0.01007436504840467 	101329.1313345536
-0.346596596596597 	299.9977694037564 	0.00857584553385634 	101322.3634120964
-0.3440940940940944 	299.9920863309818 	0.02289599684893783 	101315.645186151
-0.3415915915915919 	299.9865417277153 	0.0389980186070842 	101309.0909961252
-0.3390890890890895 	299.9812367685498 	0.05432201292139936 	101302.8203305476
-0.3365865865865869 	299.9762880179815 	0.06862889030349523 	101296.9709494464
-0.3340840840840844 	299.9717996330755 	0.08155140561711352 	101291.6659249224
-0.3315815815815819 	299.9678381142276 	0.09298819150197032 	101286.9837475977
-0.3290790790790794 	299.9644783574905 	0.1027100418212913 	101283.0129740709
-0.3265765765765769 	299.9617785793135 	0.1104674530597392 	101279.8222300339
-0.3240740740740744 	299.959799078944 	0.1161833095021631 	101277.482747398
-0.3215715715715718 	299.9585901960988 	0.1196495632892052 	101276.0539620238
-0.3190690690690695 	299.958167484142 	0.1209273031147869 	101275.554364716
-0.3165665665665668 	299.9585072777024 	0.1199762608119088 	101275.955926698
-0.3140640640640644 	299.9596126883267 	0.1167620537551686 	101277.2622030095
-0.311561561561562 	299.9614596568829 	0.1114590360464593 	101279.4448832211
-0.3090590590590593 	299.9640072511154 	0.1040362914860844 	101282.4556396835
-0.3065565565565568 	299.9672033864659 	0.09477180257251851 	101286.2328860292
-0.3040540540540545 	299.970989341952 	0.08383494724529135 	101290.7074604216
-0.3015515515515518 	299.9752883282085 	0.07133225908954804 	101295.7884714749
-0.2990490490490494 	299.9800431192793 	0.05764652581578228 	101301.4084694085
-0.2965465465465469 	299.9851359492453 	0.04293224523519706 	101307.4282915579
-0.2940440440440444 	299.9904465781199 	0.02759046778330766 	101313.7057627585
-0.2915415415415418 	299.9958649941243 	0.0119566611809892 	101320.1110638414
-0.2890390390390395 	300.0013134060692 	0.006223756430906097 	101326.5520182401