/*--------------------------------*- C++ -*----------------------------------*\
  =========                 |
  \\      /  F ield         | OpenFOAM: The Open Source CFD Toolbox
   \\    /   O peration     | Website:  https://openfoam.org
    \\  /    A nd           | Version:  7
     \\/     M anipulation  |
\*---------------------------------------------------------------------------*/
FoamFile
{
    version     2.0;
    format      ascii;
    class       surfaceScalarField;
    location    "0.00244";
    object      phi;
}
// * * * * * * * * * * * * * * * * * * * * * * * * * * * * * * * * * * * * * //

dimensions      [1 0 -1 0 0 0 0];

internalField   nonuniform List<scalar> 
4999
(
-2.9551579
-2.9542813
-2.9534048
-2.9525283
-2.9516518
-2.9507752
-2.9498987
-2.9490222
-2.9481456
-2.9472691
-2.9463925
-2.945516
-2.9446394
-2.9437629
-2.9428863
-2.9420097
-2.9411332
-2.9402566
-2.93938
-2.9385035
-2.9376269
-2.9367503
-2.9358737
-2.9349972
-2.9341206
-2.9332441
-2.9323675
-2.931491
-2.9306145
-2.9297382
-2.9288618
-2.9279857
-2.9271096
-2.9262336
-2.9253576
-2.9244816
-2.9236055
-2.9227292
-2.9218526
-2.9209757
-2.9200985
-2.9192211
-2.9183433
-2.9174654
-2.9165874
-2.9157093
-2.9148311
-2.9139528
-2.9130746
-2.9121963
-2.911318
-2.9104397
-2.9095614
-2.9086831
-2.9078048
-2.9069264
-2.9060481
-2.9051698
-2.9042914
-2.9034131
-2.9025347
-2.9016564
-2.900778
-2.8998996
-2.8990213
-2.8981429
-2.8972645
-2.8963861
-2.8955077
-2.8946293
-2.8937509
-2.8928724
-2.891994
-2.8911156
-2.8902371
-2.8893587
-2.8884802
-2.8876018
-2.8867233
-2.8858449
-2.8849664
-2.8840879
-2.8832094
-2.8823309
-2.8814524
-2.8805739
-2.8796954
-2.8788169
-2.8779383
-2.8770598
-2.8761813
-2.8753027
-2.8744242
-2.8735456
-2.872667
-2.8717885
-2.8709099
-2.8700313
-2.8691527
-2.8682741
-2.8673955
-2.8665169
-2.8656383
-2.8647596
-2.863881
-2.8630024
-2.8621237
-2.8612451
-2.8603664
-2.8594877
-2.8586091
-2.8577304
-2.8568517
-2.855973
-2.8550943
-2.8542156
-2.8533369
-2.8524582
-2.8515794
-2.8507007
-2.849822
-2.8489432
-2.8480645
-2.8471857
-2.8463069
-2.8454282
-2.8445494
-2.8436706
-2.8427918
-2.841913
-2.8410342
-2.8401554
-2.8392765
-2.8383977
-2.8375189
-2.83664
-2.8357612
-2.8348823
-2.8340035
-2.8331246
-2.8322457
-2.8313668
-2.8304879
-2.829609
-2.8287301
-2.8278512
-2.8269723
-2.8260934
-2.8252145
-2.8243355
-2.8234566
-2.8225776
-2.8216987
-2.8208197
-2.8199407
-2.8190618
-2.8181828
-2.8173038
-2.8164248
-2.8155458
-2.8146668
-2.8137877
-2.8129087
-2.8120297
-2.8111507
-2.8102716
-2.8093926
-2.8085136
-2.8076346
-2.8067556
-2.8058766
-2.8049976
-2.8041186
-2.8032397
-2.8023608
-2.8014819
-2.800603
-2.7997242
-2.7988453
-2.7979664
-2.7970876
-2.7962087
-2.7953298
-2.7944508
-2.7935718
-2.7926927
-2.7918135
-2.7909343
-2.790055
-2.7891755
-2.788296
-2.7874163
-2.7865366
-2.7856567
-2.7847767
-2.7838966
-2.7830164
-2.7821362
-2.7812558
-2.7803754
-2.7794948
-2.7786143
-2.7777337
-2.776853
-2.7759723
-2.7750916
-2.7742108
-2.77333
-2.7724491
-2.7715683
-2.7706874
-2.7698066
-2.7689257
-2.7680447
-2.7671639
-2.7662829
-2.765402
-2.764521
-2.7636401
-2.7627592
-2.7618781
-2.7609973
-2.7601161
-2.7592353
-2.7583541
-2.7574732
-2.7565922
-2.7557109
-2.7548304
-2.7539486
-2.7530685
-2.7521864
-2.7513065
-2.7504241
-2.7495443
-2.748662
-2.7477821
-2.7468999
-2.7460197
-2.7451377
-2.7442573
-2.7433756
-2.7424949
-2.7416134
-2.7407325
-2.7398511
-2.7389701
-2.7380888
-2.7372076
-2.7363264
-2.7354452
-2.7345639
-2.7336827
-2.7328015
-2.7319202
-2.731039
-2.7301577
-2.7292764
-2.7283951
-2.7275138
-2.7266325
-2.7257512
-2.7248699
-2.7239886
-2.7231072
-2.7222259
-2.7213445
-2.7204632
-2.7195818
-2.7187004
-2.717819
-2.7169376
-2.7160562
-2.7151748
-2.7142934
-2.713412
-2.7125305
-2.7116491
-2.7107676
-2.7098862
-2.7090047
-2.7081232
-2.7072417
-2.7063603
-2.7054787
-2.7045972
-2.7037157
-2.7028342
-2.7019526
-2.7010711
-2.7001895
-2.699308
-2.6984264
-2.6975448
-2.6966632
-2.6957817
-2.6949
-2.6940185
-2.6931368
-2.6922552
-2.6913736
-2.690492
-2.6896103
-2.6887287
-2.687847
-2.6869654
-2.6860837
-2.6852021
-2.6843204
-2.6834388
-2.6825571
-2.6816754
-2.6807938
-2.6799121
-2.6790304
-2.6781488
-2.6772671
-2.6763854
-2.6755037
-2.674622
-2.6737403
-2.6728586
-2.6719768
-2.6710951
-2.6702133
-2.6693315
-2.6684496
-2.6675677
-2.6666858
-2.6658038
-2.6649218
-2.6640397
-2.6631576
-2.6622754
-2.6613931
-2.6605108
-2.6596284
-2.6587459
-2.6578633
-2.6569807
-2.656098
-2.6552153
-2.6543324
-2.6534495
-2.6525666
-2.6516835
-2.6508004
-2.6499173
-2.6490341
-2.6481508
-2.6472675
-2.6463842
-2.6455008
-2.6446174
-2.6437339
-2.6428504
-2.6419669
-2.6410833
-2.6401998
-2.6393162
-2.6384325
-2.6375489
-2.6366652
-2.6357816
-2.6348979
-2.6340142
-2.6331305
-2.6322467
-2.631363
-2.6304792
-2.6295955
-2.6287117
-2.6278279
-2.6269441
-2.6260603
-2.6251764
-2.6242926
-2.6234088
-2.6225249
-2.6216411
-2.6207572
-2.6198733
-2.6189894
-2.6181055
-2.6172216
-2.6163377
-2.6154538
-2.6145698
-2.6136859
-2.6128019
-2.6119179
-2.611034
-2.61015
-2.609266
-2.608382
-2.6074979
-2.6066139
-2.6057299
-2.6048458
-2.6039618
-2.6030777
-2.6021936
-2.6013095
-2.6004254
-2.5995413
-2.5986572
-2.5977731
-2.5968889
-2.5960048
-2.5951206
-2.5942365
-2.5933523
-2.5924681
-2.5915839
-2.5906997
-2.5898155
-2.5889313
-2.588047
-2.5871628
-2.5862785
-2.5853942
-2.58451
-2.5836257
-2.5827414
-2.5818571
-2.5809728
-2.5800884
-2.5792041
-2.5783198
-2.5774354
-2.576551
-2.5756667
-2.5747823
-2.5738979
-2.5730135
-2.5721291
-2.5712446
-2.5703602
-2.5694758
-2.5685913
-2.5677069
-2.5668224
-2.5659379
-2.5650534
-2.5641689
-2.5632844
-2.5623999
-2.5615154
-2.5606309
-2.5597463
-2.5588618
-2.5579773
-2.5570927
-2.5562081
-2.5553236
-2.554439
-2.5535544
-2.5526698
-2.5517853
-2.5509006
-2.550016
-2.5491314
-2.5482468
-2.5473622
-2.5464775
-2.5455929
-2.5447082
-2.5438235
-2.5429388
-2.5420541
-2.5411693
-2.5402846
-2.5393998
-2.5385149
-2.5376301
-2.5367452
-2.5358603
-2.5349753
-2.5340903
-2.5332052
-2.5323201
-2.531435
-2.5305498
-2.5296645
-2.5287792
-2.5278939
-2.5270084
-2.526123
-2.5252374
-2.5243518
-2.5234662
-2.5225804
-2.5216947
-2.5208088
-2.5199229
-2.519037
-2.518151
-2.5172649
-2.5163788
-2.5154926
-2.5146064
-2.5137202
-2.5128339
-2.5119475
-2.5110611
-2.5101747
-2.5092883
-2.5084018
-2.5075152
-2.5066287
-2.5057421
-2.5048555
-2.5039688
-2.5030822
-2.5021955
-2.5013088
-2.500422
-2.4995353
-2.4986485
-2.4977617
-2.4968749
-2.4959881
-2.4951012
-2.4942144
-2.4933275
-2.4924406
-2.4915537
-2.4906668
-2.4897799
-2.4888929
-2.488006
-2.487119
-2.486232
-2.485345
-2.484458
-2.483571
-2.4826839
-2.4817969
-2.4809098
-2.4800227
-2.4791357
-2.4782485
-2.4773614
-2.4764743
-2.4755872
-2.4747
-2.4738128
-2.4729257
-2.4720385
-2.4711513
-2.470264
-2.4693768
-2.4684896
-2.4676023
-2.466715
-2.4658277
-2.4649404
-2.4640531
-2.4631658
-2.4622784
-2.4613911
-2.4605037
-2.4596163
-2.4587289
-2.4578415
-2.4569541
-2.4560666
-2.4551792
-2.4542917
-2.4534042
-2.4525167
-2.4516291
-2.4507416
-2.449854
-2.4489665
-2.4480789
-2.4471913
-2.4463037
-2.445416
-2.4445284
-2.4436407
-2.442753
-2.4418653
-2.4409776
-2.4400898
-2.439202
-2.4383142
-2.4374264
-2.4365386
-2.4356508
-2.4347629
-2.433875
-2.4329871
-2.4320992
-2.4312112
-2.4303232
-2.4294352
-2.4285472
-2.4276592
-2.4267711
-2.425883
-2.4249949
-2.4241067
-2.4232185
-2.4223303
-2.4214421
-2.4205538
-2.4196655
-2.4187772
-2.4178888
-2.4170004
-2.416112
-2.4152235
-2.414335
-2.4134465
-2.4125579
-2.4116692
-2.4107805
-2.4098918
-2.409003
-2.4081141
-2.4072252
-2.4063362
-2.4054472
-2.4045581
-2.4036689
-2.4027796
-2.4018903
-2.4010009
-2.4001113
-2.3992217
-2.398332
-2.3974422
-2.3965523
-2.3956623
-2.3947722
-2.393882
-2.3929916
-2.3921011
-2.3912105
-2.3903197
-2.3894288
-2.3885378
-2.3876466
-2.3867553
-2.3858638
-2.3849722
-2.3840804
-2.3831884
-2.3822963
-2.381404
-2.3805115
-2.3796188
-2.378726
-2.3778329
-2.3769397
-2.3760463
-2.3751527
-2.3742589
-2.3733648
-2.3724706
-2.3715761
-2.3706814
-2.3697865
-2.3688914
-2.367996
-2.3671004
-2.3662046
-2.3653085
-2.3644121
-2.3635155
-2.3626186
-2.3617214
-2.360824
-2.3599263
-2.3590282
-2.3581299
-2.3572312
-2.3563323
-2.355433
-2.3545334
-2.3536334
-2.3527331
-2.3518324
-2.3509313
-2.3500298
-2.349128
-2.3482257
-2.3473231
-2.34642
-2.3455165
-2.3446125
-2.3437081
-2.3428031
-2.3418978
-2.3409919
-2.3400855
-2.3391785
-2.3382711
-2.3373631
-2.3364545
-2.3355453
-2.3346356
-2.3337252
-2.3328142
-2.3319026
-2.3309904
-2.3300774
-2.3291638
-2.3282495
-2.3273344
-2.3264186
-2.3255021
-2.3245848
-2.3236667
-2.3227477
-2.321828
-2.3209074
-2.319986
-2.3190637
-2.3181404
-2.3172163
-2.3162912
-2.3153651
-2.314438
-2.31351
-2.3125809
-2.3116508
-2.3107196
-2.3097872
-2.3088538
-2.3079193
-2.3069836
-2.3060466
-2.3051085
-2.3041692
-2.3032286
-2.3022867
-2.3013435
-2.300399
-2.2994531
-2.2985058
-2.2975571
-2.296607
-2.2956554
-2.2947024
-2.2937478
-2.2927917
-2.291834
-2.2908747
-2.2899138
-2.2889513
-2.287987
-2.2870211
-2.2860534
-2.285084
-2.2841128
-2.2831397
-2.2821648
-2.281188
-2.2802093
-2.2792287
-2.2782461
-2.2772615
-2.2762749
-2.2752862
-2.2742954
-2.2733025
-2.2723074
-2.2713102
-2.2703107
-2.2693091
-2.2683051
-2.2672988
-2.2662902
-2.2652792
-2.2642658
-2.26325
-2.2622317
-2.2612109
-2.2601876
-2.2591617
-2.2581332
-2.2571022
-2.2560684
-2.255032
-2.2539928
-2.2529509
-2.2519062
-2.2508587
-2.2498083
-2.2487551
-2.2476989
-2.2466398
-2.2455778
-2.2445127
-2.2434446
-2.2423735
-2.2412993
-2.2402219
-2.2391414
-2.2380577
-2.2369708
-2.2358807
-2.2347873
-2.2336907
-2.2325907
-2.2314874
-2.2303807
-2.2292706
-2.2281572
-2.2270403
-2.2259199
-2.224796
-2.2236686
-2.2225377
-2.2214033
-2.2202652
-2.2191236
-2.2179784
-2.2168295
-2.215677
-2.2145207
-2.2133608
-2.2121972
-2.2110299
-2.2098588
-2.208684
-2.2075053
-2.2063229
-2.2051367
-2.2039466
-2.2027527
-2.201555
-2.2003534
-2.1991479
-2.1979385
-2.1967252
-2.195508
-2.1942869
-2.1930619
-2.1918329
-2.1905999
-2.189363
-2.1881221
-2.1868773
-2.1856284
-2.1843756
-2.1831188
-2.1818579
-2.1805931
-2.1793242
-2.1780514
-2.1767745
-2.1754936
-2.1742086
-2.1729197
-2.1716267
-2.1703296
-2.1690286
-2.1677235
-2.1664144
-2.1651013
-2.1637842
-2.162463
-2.1611378
-2.1598086
-2.1584754
-2.1571382
-2.155797
-2.1544518
-2.1531026
-2.1517494
-2.1503923
-2.1490312
-2.1476662
-2.1462972
-2.1449242
-2.1435474
-2.1421666
-2.1407819
-2.1393934
-2.1380009
-2.1366046
-2.1352044
-2.1338004
-2.1323926
-2.1309809
-2.1295655
-2.1281462
-2.1267232
-2.1252965
-2.123866
-2.1224318
-2.1209939
-2.1195523
-2.118107
-2.1166581
-2.1152056
-2.1137494
-2.1122897
-2.1108264
-2.1093595
-2.1078891
-2.1064152
-2.1049378
-2.103457
-2.1019727
-2.100485
-2.0989938
-2.0974993
-2.0960015
-2.0945003
-2.0929958
-2.091488
-2.0899769
-2.0884626
-2.0869451
-2.0854243
-2.0839005
-2.0823734
-2.0808433
-2.07931
-2.0777737
-2.0762343
-2.0746919
-2.0731465
-2.0715981
-2.0700468
-2.0684926
-2.0669354
-2.0653754
-2.0638125
-2.0622468
-2.0606784
-2.0591071
-2.0575331
-2.0559564
-2.0543769
-2.0527948
-2.0512101
-2.0496227
-2.0480328
-2.0464403
-2.0448452
-2.0432476
-2.0416476
-2.0400451
-2.0384401
-2.0368327
-2.0352229
-2.0336108
-2.0319964
-2.0303796
-2.0287605
-2.0271392
-2.0255157
-2.0238899
-2.022262
-2.0206319
-2.0189997
-2.0173654
-2.0157291
-2.0140906
-2.0124502
-2.0108077
-2.0091633
-2.007517
-2.0058687
-2.0042185
-2.0025665
-2.0009126
-1.9992569
-1.9975994
-1.9959401
-1.9942791
-1.9926164
-1.990952
-1.9892859
-1.9876182
-1.9859488
-1.9842779
-1.9826053
-1.9809313
-1.9792557
-1.9775786
-1.9759
-1.97422
-1.9725386
-1.9708557
-1.9691715
-1.9674859
-1.9657989
-1.9641106
-1.9624211
-1.9607302
-1.9590381
-1.9573448
-1.9556502
-1.9539545
-1.9522576
-1.9505595
-1.9488603
-1.94716
-1.9454586
-1.9437561
-1.9420526
-1.940348
-1.9386424
-1.9369358
-1.9352282
-1.9335196
-1.9318101
-1.9300997
-1.9283884
-1.9266761
-1.924963
-1.923249
-1.9215342
-1.9198186
-1.9181021
-1.9163848
-1.9146667
-1.9129479
-1.9112283
-1.909508
-1.907787
-1.9060652
-1.9043428
-1.9026196
-1.9008958
-1.8991714
-1.8974462
-1.8957205
-1.8939942
-1.8922672
-1.8905397
-1.8888115
-1.8870829
-1.8853536
-1.8836238
-1.8818935
-1.8801627
-1.8784313
-1.8766995
-1.8749671
-1.8732343
-1.871501
-1.8697673
-1.8680331
-1.8662985
-1.8645635
-1.862828
-1.8610921
-1.8593559
-1.8576192
-1.8558822
-1.8541448
-1.852407
-1.8506689
-1.8489304
-1.8471916
-1.8454525
-1.843713
-1.8419732
-1.8402332
-1.8384928
-1.8367521
-1.8350111
-1.8332699
-1.8315284
-1.8297866
-1.8280446
-1.8263023
-1.8245598
-1.822817
-1.821074
-1.8193308
-1.8175873
-1.8158436
-1.8140998
-1.8123557
-1.8106114
-1.8088669
-1.8071222
-1.8053773
-1.8036323
-1.8018871
-1.8001416
-1.7983961
-1.7966503
-1.7949044
-1.7931584
-1.7914121
-1.7896658
-1.7879192
-1.7861726
-1.7844258
-1.7826788
-1.7809318
-1.7791845
-1.7774372
-1.7756897
-1.7739421
-1.7721944
-1.7704466
-1.7686986
-1.7669506
-1.7652024
-1.7634541
-1.7617057
-1.7599572
-1.7582085
-1.7564598
-1.754711
-1.7529621
-1.7512131
-1.7494639
-1.7477147
-1.7459654
-1.744216
-1.7424666
-1.740717
-1.7389674
-1.7372176
-1.7354678
-1.7337179
-1.731968
-1.7302179
-1.7284678
-1.7267176
-1.7249674
-1.7232171
-1.7214667
-1.7197163
-1.7179658
-1.7162152
-1.7144646
-1.7127139
-1.7109632
-1.7092125
-1.7074617
-1.7057109
-1.70396
-1.7022091
-1.7004582
-1.6987072
-1.6969562
-1.6952052
-1.6934542
-1.6917031
-1.6899521
-1.688201
-1.68645
-1.6846989
-1.6829478
-1.6811968
-1.6794457
-1.6776947
-1.6759436
-1.6741926
-1.6724416
-1.6706907
-1.6689397
-1.6671888
-1.665438
-1.6636871
-1.6619364
-1.6601856
-1.6584349
-1.6566843
-1.6549338
-1.6531833
-1.6514328
-1.6496825
-1.6479322
-1.646182
-1.6444319
-1.6426818
-1.6409319
-1.639182
-1.6374323
-1.6356826
-1.6339331
-1.6321837
-1.6304344
-1.6286852
-1.6269361
-1.6251872
-1.6234384
-1.6216897
-1.6199412
-1.6181928
-1.6164445
-1.6146965
-1.6129485
-1.6112008
-1.6094532
-1.6077058
-1.6059585
-1.6042115
-1.6024646
-1.6007179
-1.5989714
-1.5972251
-1.595479
-1.5937331
-1.5919874
-1.590242
-1.5884967
-1.5867517
-1.5850069
-1.5832623
-1.581518
-1.5797739
-1.5780301
-1.5762865
-1.5745432
-1.5728001
-1.5710573
-1.5693148
-1.5675725
-1.5658305
-1.5640888
-1.5623474
-1.5606063
-1.5588655
-1.5571249
-1.5553847
-1.5536448
-1.5519051
-1.5501658
-1.5484269
-1.5466882
-1.5449499
-1.5432119
-1.5414742
-1.5397369
-1.5379999
-1.5362632
-1.534527
-1.532791
-1.5310554
-1.5293202
-1.5275854
-1.5258509
-1.5241168
-1.522383
-1.5206497
-1.5189167
-1.5171841
-1.5154519
-1.5137201
-1.5119887
-1.5102577
-1.5085271
-1.5067969
-1.5050671
-1.5033377
-1.5016087
-1.4998801
-1.498152
-1.4964243
-1.494697
-1.4929701
-1.4912437
-1.4895176
-1.4877921
-1.4860669
-1.4843422
-1.4826179
-1.4808941
-1.4791707
-1.4774478
-1.4757253
-1.4740032
-1.4722816
-1.4705604
-1.4688397
-1.4671195
-1.4653997
-1.4636803
-1.4619614
-1.460243
-1.458525
-1.4568074
-1.4550903
-1.4533737
-1.4516575
-1.4499418
-1.4482266
-1.4465118
-1.4447974
-1.4430835
-1.44137
-1.439657
-1.4379445
-1.4362324
-1.4345207
-1.4328095
-1.4310987
-1.4293884
-1.4276785
-1.4259691
-1.4242601
-1.4225515
-1.4208434
-1.4191357
-1.4174284
-1.4157215
-1.4140151
-1.4123091
-1.4106035
-1.4088984
-1.4071936
-1.4054893
-1.4037853
-1.4020818
-1.4003787
-1.398676
-1.3969736
-1.3952717
-1.3935701
-1.391869
-1.3901682
-1.3884678
-1.3867678
-1.3850681
-1.3833688
-1.3816699
-1.3799714
-1.3782732
-1.3765753
-1.3748778
-1.3731807
-1.3714839
-1.3697874
-1.3680913
-1.3663955
-1.3647
-1.3630048
-1.36131
-1.3596155
-1.3579213
-1.3562274
-1.3545338
-1.3528405
-1.3511475
-1.3494548
-1.3477624
-1.3460703
-1.3443784
-1.3426868
-1.3409955
-1.3393045
-1.3376137
-1.3359232
-1.3342329
-1.3325429
-1.3308532
-1.3291636
-1.3274743
-1.3257853
-1.3240965
-1.3224079
-1.3207195
-1.3190313
-1.3173434
-1.3156556
-1.3139681
-1.3122807
-1.3105936
-1.3089066
-1.3072199
-1.3055333
-1.3038469
-1.3021606
-1.3004746
-1.2987887
-1.2971029
-1.2954173
-1.2937319
-1.2920466
-1.2903615
-1.2886765
-1.2869916
-1.2853069
-1.2836223
-1.2819378
-1.2802534
-1.2785691
-1.276885
-1.2752009
-1.273517
-1.2718331
-1.2701494
-1.2684657
-1.2667821
-1.2650986
-1.2634152
-1.2617318
-1.2600485
-1.2583653
-1.2566821
-1.2549989
-1.2533159
-1.2516328
-1.2499498
-1.2482669
-1.2465839
-1.244901
-1.2432182
-1.2415353
-1.2398525
-1.2381696
-1.2364868
-1.234804
-1.2331212
-1.2314383
-1.2297555
-1.2280726
-1.2263898
-1.2247069
-1.2230239
-1.221341
-1.219658
-1.2179749
-1.2162919
-1.2146087
-1.2129255
-1.2112423
-1.209559
-1.2078756
-1.2061922
-1.2045087
-1.202825
-1.2011414
-1.1994576
-1.1977737
-1.1960897
-1.1944056
-1.1927214
-1.1910371
-1.1893526
-1.1876681
-1.1859834
-1.1842985
-1.1826135
-1.1809284
-1.1792431
-1.1775576
-1.175872
-1.1741862
-1.1725002
-1.170814
-1.1691276
-1.167441
-1.1657542
-1.1640672
-1.16238
-1.1606926
-1.1590049
-1.157317
-1.1556288
-1.1539404
-1.1522517
-1.1505627
-1.1488735
-1.147184
-1.1454941
-1.143804
-1.1421136
-1.1404229
-1.1387318
-1.1370404
-1.1353487
-1.1336566
-1.1319642
-1.1302714
-1.1285782
-1.1268847
-1.1251908
-1.1234965
-1.1218017
-1.1201066
-1.1184111
-1.1167151
-1.1150187
-1.1133219
-1.1116246
-1.1099269
-1.1082287
-1.10653
-1.1048309
-1.1031312
-1.1014311
-1.0997305
-1.0980294
-1.0963277
-1.0946256
-1.0929229
-1.0912197
-1.0895159
-1.0878116
-1.0861067
-1.0844013
-1.0826953
-1.0809887
-1.0792815
-1.0775738
-1.0758654
-1.0741565
-1.0724469
-1.0707367
-1.069026
-1.0673145
-1.0656025
-1.0638898
-1.0621765
-1.0604625
-1.0587479
-1.0570326
-1.0553167
-1.0536001
-1.0518828
-1.0501648
-1.0484462
-1.0467269
-1.0450069
-1.0432862
-1.0415648
-1.0398426
-1.0381198
-1.0363963
-1.0346721
-1.0329471
-1.0312214
-1.029495
-1.0277679
-1.02604
-1.0243115
-1.0225821
-1.0208521
-1.0191212
-1.0173897
-1.0156574
-1.0139243
-1.0121905
-1.010456
-1.0087207
-1.0069846
-1.0052478
-1.0035102
-1.0017719
-1.0000328
-0.99829293
-0.99655231
-0.99481092
-0.99306877
-0.99132585
-0.98958216
-0.98783772
-0.9860925
-0.98434651
-0.98259976
-0.98085225
-0.97910396
-0.97735491
-0.9756051
-0.97385452
-0.97210318
-0.97035108
-0.96859822
-0.9668446
-0.96509022
-0.96333508
-0.9615792
-0.95982256
-0.95806517
-0.95630703
-0.95454815
-0.95278852
-0.95102815
-0.94926704
-0.9475052
-0.94574263
-0.94397933
-0.9422153
-0.94045056
-0.93868509
-0.93691892
-0.93515203
-0.93338443
-0.93161614
-0.92984714
-0.92807745
-0.92630708
-0.92453602
-0.92276429
-0.92099188
-0.91921879
-0.91744505
-0.91567064
-0.91389557
-0.91211986
-0.91034349
-0.90856649
-0.90678886
-0.9050106
-0.90323172
-0.90145223
-0.89967212
-0.89789142
-0.89611012
-0.89432823
-0.89254575
-0.8907627
-0.88897907
-0.88719488
-0.88541014
-0.88362483
-0.88183899
-0.8800526
-0.87826567
-0.87647822
-0.87469025
-0.87290177
-0.87111278
-0.86932329
-0.86753331
-0.86574283
-0.86395188
-0.86216046
-0.86036856
-0.85857621
-0.8567834
-0.85499014
-0.85319644
-0.85140231
-0.84960775
-0.84781277
-0.84601738
-0.84422157
-0.84242536
-0.84062876
-0.83883176
-0.83703438
-0.83523663
-0.8334385
-0.83164001
-0.82984116
-0.82804196
-0.82624241
-0.82444252
-0.8226423
-0.82084174
-0.81904086
-0.81723967
-0.81543815
-0.81363633
-0.81183421
-0.81003179
-0.80822907
-0.80642607
-0.8046228
-0.80281924
-0.80101542
-0.79921134
-0.797407
-0.7956024
-0.79379756
-0.79199247
-0.79018714
-0.78838158
-0.78657578
-0.78476976
-0.78296352
-0.78115706
-0.77935039
-0.77754351
-0.77573643
-0.77392915
-0.77212168
-0.77031401
-0.76850616
-0.76669813
-0.76488992
-0.76308154
-0.76127298
-0.75946426
-0.75765538
-0.75584633
-0.75403713
-0.75222777
-0.75041827
-0.74860861
-0.74679882
-0.74498888
-0.7431788
-0.7413686
-0.73955826
-0.7377478
-0.73593721
-0.73412649
-0.73231566
-0.73050471
-0.72869364
-0.72688246
-0.72507117
-0.72325977
-0.72144827
-0.71963666
-0.71782494
-0.71601313
-0.71420123
-0.71238922
-0.71057713
-0.70876494
-0.70695266
-0.70514029
-0.70332783
-0.70151529
-0.69970265
-0.69788994
-0.69607714
-0.69426427
-0.69245131
-0.69063828
-0.68882518
-0.687012
-0.68519875
-0.68338542
-0.68157202
-0.67975855
-0.67794501
-0.67613139
-0.67431771
-0.67250397
-0.67069015
-0.66887627
-0.66706233
-0.66524832
-0.66343425
-0.66162012
-0.65980592
-0.65799167
-0.65617735
-0.65436298
-0.65254855
-0.65073406
-0.64891951
-0.64710491
-0.64529025
-0.64347553
-0.64166076
-0.63984594
-0.63803105
-0.63621612
-0.63440112
-0.63258608
-0.63077098
-0.62895584
-0.62714064
-0.62532538
-0.62351008
-0.62169473
-0.61987932
-0.61806387
-0.61624836
-0.61443281
-0.61261721
-0.61080155
-0.60898585
-0.6071701
-0.6053543
-0.60353845
-0.60172255
-0.5999066
-0.59809061
-0.59627457
-0.59445848
-0.59264235
-0.59082616
-0.58900993
-0.58719365
-0.58537732
-0.58356095
-0.58174453
-0.57992805
-0.57811154
-0.57629497
-0.57447836
-0.5726617
-0.57084499
-0.56902824
-0.56721143
-0.56539458
-0.56357769
-0.56176075
-0.55994376
-0.55812672
-0.55630963
-0.5544925
-0.55267532
-0.55085809
-0.54904081
-0.54722349
-0.54540612
-0.5435887
-0.54177124
-0.53995372
-0.53813616
-0.53631856
-0.5345009
-0.5326832
-0.53086546
-0.52904766
-0.52722982
-0.52541194
-0.523594
-0.52177602
-0.519958
-0.51813993
-0.51632182
-0.51450366
-0.51268545
-0.5108672
-0.50904891
-0.50723057
-0.50541218
-0.50359376
-0.50177529
-0.49995677
-0.49813821
-0.49631961
-0.49450097
-0.49268228
-0.49086355
-0.48904477
-0.48722596
-0.4854071
-0.4835882
-0.48176926
-0.47995028
-0.47813126
-0.47631219
-0.47449309
-0.47267394
-0.47085476
-0.46903553
-0.46721626
-0.46539695
-0.46357759
-0.4617582
-0.45993876
-0.45811929
-0.45629977
-0.45448021
-0.4526606
-0.45084096
-0.44902127
-0.44720155
-0.44538177
-0.44356196
-0.4417421
-0.43992221
-0.43810226
-0.43628228
-0.43446225
-0.43264218
-0.43082206
-0.4290019
-0.4271817
-0.42536145
-0.42354115
-0.42172081
-0.41990043
-0.41807999
-0.41625951
-0.41443899
-0.41261841
-0.41079779
-0.40897712
-0.40715641
-0.40533564
-0.40351482
-0.40169396
-0.39987305
-0.39805208
-0.39623107
-0.39441
-0.39258888
-0.39076771
-0.38894649
-0.38712522
-0.38530389
-0.38348251
-0.38166108
-0.37983959
-0.37801804
-0.37619644
-0.37437479
-0.37255308
-0.37073132
-0.3689095
-0.36708763
-0.36526571
-0.36344372
-0.36162169
-0.3597996
-0.35797745
-0.35615524
-0.35433298
-0.35251067
-0.35068829
-0.34886586
-0.34704338
-0.34522083
-0.34339824
-0.34157558
-0.33975287
-0.3379301
-0.33610728
-0.3342844
-0.33246146
-0.33063847
-0.32881542
-0.32699232
-0.32516916
-0.32334594
-0.32152266
-0.31969933
-0.31787594
-0.3160525
-0.314229
-0.31240544
-0.31058182
-0.30875815
-0.30693441
-0.30511063
-0.30328678
-0.30146288
-0.29963892
-0.29781491
-0.29599084
-0.29416672
-0.29234253
-0.2905183
-0.288694
-0.28686965
-0.28504525
-0.28322078
-0.28139626
-0.27957168
-0.27774705
-0.27592236
-0.27409761
-0.2722728
-0.27044793
-0.268623
-0.26679802
-0.26497297
-0.26314787
-0.2613227
-0.25949748
-0.2576722
-0.25584686
-0.25402146
-0.25219601
-0.25037049
-0.24854492
-0.24671929
-0.24489361
-0.24306786
-0.24124206
-0.2394162
-0.23759028
-0.2357643
-0.23393826
-0.23211216
-0.230286
-0.22845978
-0.2266335
-0.22480716
-0.22298077
-0.22115431
-0.21932779
-0.21750122
-0.21567459
-0.2138479
-0.21202116
-0.21019436
-0.2083675
-0.20654059
-0.20471362
-0.2028866
-0.20105952
-0.19923238
-0.19740518
-0.19557793
-0.19375061
-0.19192324
-0.19009581
-0.18826831
-0.18644076
-0.18461314
-0.18278547
-0.18095773
-0.17912994
-0.17730209
-0.17547418
-0.17364621
-0.17181819
-0.16999011
-0.16816198
-0.16633379
-0.16450555
-0.16267725
-0.1608489
-0.15902049
-0.15719203
-0.15536351
-0.15353493
-0.1517063
-0.1498776
-0.14804884
-0.14622002
-0.14439114
-0.1425622
-0.1407332
-0.13890414
-0.13707502
-0.13524584
-0.1334166
-0.13158731
-0.12975796
-0.12792856
-0.12609911
-0.1242696
-0.12244005
-0.12061044
-0.11878078
-0.11695107
-0.1151213
-0.11329148
-0.1114616
-0.10963167
-0.10780167
-0.10597162
-0.1041415
-0.10231133
-0.1004811
-0.098650812
-0.096820464
-0.094990059
-0.093159598
-0.091329082
-0.089498512
-0.08766789
-0.085837217
-0.084006497
-0.082175729
-0.080344917
-0.07851406
-0.076683158
-0.07485221
-0.073021214
-0.071190169
-0.069359071
-0.067527919
-0.065696714
-0.063865453
-0.062034139
-0.060202772
-0.058371352
-0.05653988
-0.054708355
-0.052876777
-0.051045143
-0.049213454
-0.047381706
-0.045549902
-0.043718044
-0.04188614
-0.040054199
-0.038222234
-0.036390258
-0.034558274
-0.032726278
-0.030894254
-0.02906218
-0.02723004
-0.025397826
-0.023565542
-0.0217332
-0.019900808
-0.018068371
-0.016235889
-0.014403362
-0.012570789
-0.010738171
-0.0089055066
-0.0070727967
-0.0052400404
-0.0034072371
-0.0015743858
0.00025851577
0.0020914299
0.0039243927
0.0057574034
0.0075904614
0.0094235664
0.011256718
0.013089917
0.014923162
0.016756454
0.018589793
0.020423183
0.022256633
0.024090155
0.025923753
0.027757419
0.029591137
0.031424886
0.033258649
0.035092423
0.036926211
0.038760026
0.04059388
0.042427783
0.044261742
0.046095761
0.04792984
0.049763978
0.051598174
0.053432427
0.055266737
0.057101102
0.058935525
0.060770004
0.062604539
0.06443913
0.066273774
0.068108469
0.069943213
0.071778005
0.073612842
0.075447724
0.077282652
0.079117627
0.080952651
0.082787724
0.08462285
0.086458029
0.088293263
0.090128553
0.0919639
0.093799304
0.095634767
0.097470286
0.099305863
0.1011415
0.10297718
0.10481293
0.10664872
0.10848456
0.11032046
0.1121564
0.11399239
0.11582842
0.1176645
0.11950063
0.12133681
0.12317304
0.12500932
0.12684565
0.12868203
0.13051847
0.13235496
0.13419151
0.1360281
0.13786476
0.13970146
0.14153821
0.14337502
0.14521187
0.14704877
0.14888572
0.15072271
0.15255975
0.15439683
0.15623396
0.15807112
0.15990834
0.1617456
0.1635829
0.16542025
0.16725765
0.16909509
0.17093258
0.17277012
0.1746077
0.17644533
0.178283
0.18012071
0.18195847
0.18379627
0.18563411
0.18747199
0.1893099
0.19114785
0.19298584
0.19482387
0.19666193
0.19850002
0.20033815
0.20217631
0.20401451
0.20585274
0.207691
0.20952929
0.21136762
0.21320598
0.21504437
0.21688279
0.21872124
0.22055971
0.22239821
0.22423674
0.22607529
0.22791386
0.22975246
0.23159108
0.23342971
0.23526837
0.23710704
0.23894573
0.24078444
0.24262316
0.24446189
0.24630064
0.2481394
0.24997817
0.25181696
0.25365575
0.25549454
0.25733335
0.25917215
0.26101097
0.26284978
0.26468859
0.26652741
0.26836622
0.27020503
0.27204383
0.27388264
0.27572143
0.27756022
0.27939901
0.28123778
0.28307655
0.2849153
0.28675405
0.28859278
0.2904315
0.29227021
0.2941089
0.29594758
0.29778625
0.29962489
0.30146352
0.30330213
0.30514073
0.3069793
0.30881785
0.31065638
0.31249489
0.31433338
0.31617185
0.3180103
0.31984872
0.32168712
0.3235255
0.32536385
0.32720218
0.32904049
0.33087877
0.33271703
0.33455527
0.33639348
0.33823166
0.34006983
0.34190797
0.34374609
0.34558418
0.34742226
0.34926031
0.35109833
0.35293634
0.35477433
0.35661229
0.35845023
0.36028816
0.36212607
0.36396395
0.36580183
0.36763968
0.36947752
0.37131534
0.37315314
0.37499094
0.37682872
0.37866648
0.38050424
0.38234198
0.38417972
0.38601745
0.38785517
0.38969288
0.39153059
0.3933683
0.39520601
0.39704371
0.39888142
0.40071912
0.40255683
0.40439454
0.40623226
0.40806998
0.40990771
0.41174545
0.4135832
0.41542096
0.41725874
0.41909653
0.42093433
0.42277215
0.42460999
0.42644785
0.42828573
0.43012364
0.43196156
0.43379951
0.43563748
0.43747548
0.43931351
0.44115156
0.44298964
0.44482775
0.44666589
0.44850407
0.45034227
0.45218051
0.45401878
0.45585709
0.45769543
0.45953381
0.46137223
0.46321068
0.46504917
0.4668877
0.46872627
0.47056487
0.47240352
0.4742422
0.47608092
0.47791969
0.47975849
0.48159734
0.48343623
0.48527516
0.48711413
0.48895314
0.4907922
0.49263129
0.49447043
0.4963096
0.49814882
0.49998807
0.50182737
0.5036667
0.50550608
0.50734549
0.50918495
0.51102444
0.51286397
0.51470354
0.51654315
0.51838279
0.52022246
0.52206218
0.52390192
0.52574171
0.52758152
0.52942137
0.53126124
0.53310116
0.5349411
0.53678107
0.53862107
0.5404611
0.54230115
0.54414123
0.54598134
0.54782147
0.54966162
0.55150179
0.55334199
0.5551822
0.55702243
0.55886269
0.56070295
0.56254323
0.56438353
0.56622384
0.56806416
0.56990449
0.57174483
0.57358518
0.57542554
0.5772659
0.57910626
0.58094663
0.58278701
0.58462738
0.58646775
0.58830812
0.59014849
0.59198886
0.59382922
0.59566957
0.59750991
0.59935025
0.60119058
0.60303089
0.60487119
0.60671148
0.60855175
0.61039201
0.61223225
0.61407247
0.61591268
0.61775286
0.61959302
0.62143316
0.62327328
0.62511338
0.62695345
0.6287935
0.63063352
0.63247351
0.63431347
0.63615341
0.63799331
0.63983319
0.64167303
0.64351284
0.64535262
0.64719236
0.64903207
0.65087174
0.65271137
0.65455097
0.65639053
0.65823006
0.66006955
0.66190899
0.66374841
0.66558778
0.66742711
0.6692664
0.67110565
0.67294486
0.67478404
0.67662317
0.67846226
0.6803013
0.68214031
0.68397927
0.6858182
0.68765708
0.68949592
0.69133471
0.69317347
0.69501218
0.69685085
0.69868947
0.70052806
0.70236661
0.70420512
0.70604358
0.70788201
0.70972039
0.71155874
0.71339704
0.71523531
0.71707354
0.71891173
0.72074989
0.72258801
0.7244261
0.72626415
0.72810216
0.72994014
0.7317781
0.73361602
0.73545391
0.73729177
0.73912961
0.74096742
0.7428052
0.74464295
0.74648068
0.74831839
0.75015607
0.75199373
0.75383136
0.75566898
0.75750657
0.75934415
0.7611817
0.76301924
0.76485676
0.76669427
0.76853177
0.77036925
0.77220672
0.77404419
0.77588164
0.77771908
0.77955652
0.78139395
0.78323138
0.7850688
0.78690621
0.78874363
0.79058104
0.79241845
0.79425586
0.79609328
0.7979307
0.79976812
0.80160556
0.80344299
0.80528044
0.80711789
0.80895535
0.81079283
0.81263031
0.8144678
0.8163053
0.81814282
0.81998034
0.82181788
0.82365542
0.82549298
0.82733055
0.82916814
0.83100574
0.83284335
0.83468099
0.83651862
0.83835629
0.84019396
0.84203164
0.84386936
0.84570707
0.84754482
0.84938257
0.85122033
0.85305813
0.85489592
0.85673374
0.85857158
0.86040942
0.86224729
0.86408516
0.86592306
0.86776098
0.86959889
0.87143684
0.8732748
0.87511276
0.87695076
0.87878876
0.88062676
0.8824648
0.88430283
0.88614087
0.88797894
0.88981701
0.89165509
0.89349319
0.89533128
0.89716939
0.89900751
0.90084563
0.90268376
0.9045219
0.90636003
0.90819818
0.91003633
0.91187447
0.9137126
0.91555075
0.91738888
0.919227
0.92106513
0.92290325
0.92474135
0.92657945
0.92841756
0.93025564
0.93209371
0.93393178
0.93576983
0.93760786
0.93944589
0.9412839
0.94312188
0.94495984
0.94679779
0.94863572
0.95047361
0.95231149
0.95414935
0.95598717
0.95782497
0.95966274
0.96150049
0.96333819
0.96517587