-1.25 	299.9585996707557 	0.8816013852295048 	101277.4471741852
-1.247497497497497 	299.9579945679648 	0.8793681364953879 	101275.329018155
-1.244994994994995 	299.9573044815383 	0.8768151695517572 	101274.5828767118
-1.242492492492492 	299.9574914884822 	0.8772276067586467 	101274.7606312155
-1.23998998998999 	299.9584243849457 	0.8798704867625406 	101275.8588897561
-1.237487487487487 	299.960117151167 	0.884762045349941 	101277.8581240446
-1.234984984984985 	299.9625395480719 	0.8917659763394815 	101280.7207913121
-1.232482482482482 	299.9656478837105 	0.9007529617506496 	101284.3943303745
-1.22997997997998 	299.9693848985265 	0.9115561158573712 	101288.8110945592
-1.227477477477477 	299.9736820258526 	0.9239780315045971 	101293.8900597889
-1.224974974974975 	299.9784606250379 	0.9377909190134071 	101299.5381699449
-1.222472472472472 	299.9836326576535 	0.9527408823755861 	101305.6515382817
-1.21996996996997 	299.9891036478852 	0.968554372177022 	101312.1185026093
-1.217467467467467 	299.9947734725864 	0.9849420207025399 	101318.8208212749
-1.214964964964965 	300.0005379984721 	1.0016033618603 	101325.6354066091
-1.212462462462462 	300.0062920065385 	1.018234030033737 	101332.4378576462
-1.20995995995996 	300.0119304953735 	1.034530553184759 	101339.1041654259
-1.207457457457457 	300.0173501927979 	1.050194371859589 	101345.5120606701
-1.204954954954955 	300.022451639739 	1.064938511964299 	101351.543960014
-1.202452452452452 	300.0271420133227 	1.078494409511072 	101357.0900541205
-1.19994994994995 	300.0313360945036 	1.090615417313048 	101362.0495238668
-1.197447447447447 	300.0349568595117 	1.10107936972907 	101366.3312726604
-1.194944944944945 	300.0379377394556 	1.109693786291114 	101369.8563670681
-1.192442442442442 	300.0402241707853 	1.116301069697314 	101372.5602860617
-1.18993993993994 	300.0417745955749 	1.12078120035945 	101374.3938783842
-1.187437437437437 	300.0425611453804 	1.123053199036312 	101375.3240607624
-1.184934934934935 	300.042569725135 	1.12307485595474 	101375.3338045968
-1.182432432432432 	300.0417978598479 	1.120842513689154 	101374.4210349541
-1.17992992992993 	300.0402587319076 	1.11639465046831 	101372.601398916
-1.177427427427427 	300.0379817695618 	1.109813098753339 	101369.9089132714
-1.174924924924925 	300.0350084382182 	1.101218289645288 	101366.3928707392
-1.172422422422422 	300.0313922995688 	1.090765625990818 	101362.1167839617
-1.16991991991992 	300.0271988652787 	1.078644484280528 	101357.1580979455
-1.167417417417417 	300.0225045593394 	1.06507608376965 	101351.6074655595
-1.164914914914915 	300.0173954777333 	1.050308876092249 	101345.5666705722
-1.162412412412412 	300.011965254673 	1.03461326006918 	101339.1463174849
-1.15990990990991 	300.0063134363694 	1.018277326660991 	101332.4642680813
-1.157407407407407 	300.0005442496661 	1.001602275320049 	101325.6438095961
-1.154904904904904 	299.9947643535497 	0.9848963687803375 	101318.8110642885
-1.152402402402403 	299.9890807136738 	0.9684684318811263 	101312.0923430132
-1.1498998998999 	299.9835982014191 	0.9526217483280606 	101305.6116471152
-1.147397397397397 	299.9784177717602 	0.9376485036112965 	101299.4883486992
-1.144894894894895 	299.9736350870099 	0.9238250357020624 	101293.8353535906
-1.142392392392392 	299.9693385634301 	0.9114070849092613 	101288.7572389441
-1.13988988988989 	299.9656077026108 	0.9006240453794205 	101284.3477923026
-1.137387387387387 	299.9625109015237 	0.8916736003533392 	101280.6877495521
-1.134884884884885 	299.9601042739076 	0.8847184093715952 	101277.8435113142
-1.132382382382382 	299.9584312539884 	0.8798838133436604 	101275.866293911
-1.12987987987988 	299.9575214432961 	0.8772554797070875 	101274.7910959464
-1.127377377377377 	299.9573901050313 	0.8768786899094521 	101274.6361713035
-1.124874874874875 	299.9580399466512 	0.8787588882057491 	101275.4041103547
-1.122372372372372 	299.9594586219071 	0.882859777594871 	101277.0802721693
-1.11986986986987 	299.9616180483835 	0.8891025013771841 	101279.6321182943
-1.117367367367367 	299.9644776236249 	0.8973692220809832 	101283.0115350738
-1.114864864864865 	299.9679844501356 	0.9075064587842095 	101287.1559202703
-1.112362362362362 	299.9720738710378 	0.9193277168621607 	101291.989082712
-1.10985985985986 	299.9766711434565 	0.9326170360771557 	101297.4228090985
-1.107357357357357 	299.9816927438744 	0.9471325284544081 	101303.3583326766
-1.104854854854855 	299.9870473318746 	0.9626098584336724 	101309.6876440244
-1.102352352352353 	299.9926371382618 	0.9787667754996747 	101316.2952899385
-1.09984984984985 	299.9983602938937 	0.9953090333538935 	101323.0609237148
-1.097347347347347 	300.0041129653216 	1.011936272133271 	101329.8617436877
-1.094844844844845 	300.0097908057282 	1.028346856539694 	101336.5744005389
-1.092342342342342 	300.015290585868 	1.04424258579139 	101343.0768925825
-1.08983983983984 	300.0205121667398 	1.059334112228143 	101349.2508014448
-1.087337337337337 	300.0253604639961 	1.0733464739633 	101354.9835756393
-1.084834834834835 	300.0297470618507 	1.086024164961469 	101360.1706245751
-1.082332332332332 	300.0335919126932 	1.09713580949052 	101364.7172068634
-1.07982982982983 	300.0368247110659 	1.10647841429812 	101368.5401855417
-1.077327327327327 	300.0393862869601 	1.113881058151148 	101371.5695666948
-1.074824824824825 	300.0412297928235 	1.119207863567961 	101373.7497098647
-1.072322322322323 	300.0423209512632 	1.122360012115376 	101375.0401529669
-1.06981981981982 	300.0426391473907 	1.123276617638008 	101375.4161444907
-1.067317317317317 	300.0421759815833 	1.121935179340891 	101374.8681651863
-1.064814814814815 	300.0409372363952 	1.118355095437732 	101373.403738251
-1.062312312312312 	300.0389461403788 	1.112600037366009 	101371.0494316674
-1.05980980980981 	300.0362388359291 	1.104773813158612 	101367.8479134873
-1.057307307307307 	300.0328633303404 	1.095016560060552 	101363.8563501298
-1.054804804804805 	300.028880400651 	1.083503887011172 	101359.1466153828
-1.052302302302302 	300.0243624874857 	1.070445061265975 	101353.8043801978
-1.0497997997998 	300.0193923387964 	1.056079461002851 	101347.9276656664
-1.047297297297297 	300.0140617069366 	1.040672081183828 	101341.6249704803
-1.044794794794795 	300.0084693766731 	1.024508421969005 	101335.0131550148
-1.042292292292292 	300.0027192835381 	1.0078888393751 	101328.2151535466
-1.03978978978979 	299.9969185285009 	0.9911225920685777 	101321.3575038069
-1.037287287287287 	299.9911750001891 	0.9745218166545982 	101314.5678485598
-1.034784784784785 	299.9855955569902 	0.9583956010676083 	101307.9725650645
-1.032282282282283 	299.9802842778471 	0.9430442491397877 	101301.6944336284
-1.02977977977978 	299.9753398557802 	0.9287534256662493 	101295.8502415734
-1.027277277277277 	299.9708540646765 	0.9157880165339142 	101290.5482868669
-1.024774774774775 	299.9669093075094 	0.9043864669010031 	101285.8859973224
-1.022272272272272 	299.9635773734783 	0.8947564368206278 	101281.9481464788
-1.01976976976977 	299.9609184784549 	0.8870716751126475 	101278.8056881711
-1.017267267267267 	299.9589799542714 	0.8814694009639231 	101276.5146983647
-1.014764764764765 	299.9577958646199 	0.8780478178769864 	101275.1152916774
-1.012262262262262 	299.9573857809366 	0.8768645496027108 	101274.630872219
-1.00975975975976 	299.9577559927588 	0.8779370254398613 	101275.0686150182
-1.007257257257257 	299.9588992069342 	0.8812415727228333 	101276.4192413751
-1.004754754754755 	299.9607917387847 	0.8867122572476728 	101278.6555143179
-1.002252252252252 	299.9633970183922 	0.8942440100083406 	101281.7343989078
-0.9997497497497498 	299.9666667210234 	0.9036961993871677 	101285.5986130097
-0.9972472472472473 	299.9705405746713 	0.9148946516327348 	101290.1770208528
-0.9947447447447449 	299.9749478119766 	0.9276345450598057 	101295.385965788
-0.9922422422422421 	299.9798082237843 	0.941684152907147 	101301.1307798439
-0.9897397397397399 	299.9850337210372 	0.9567888591231819 	101307.3074122849
-0.9872372372372376 	299.9905299057735 	0.9726756130907631 	101313.8042631391
-0.9847347347347346 	299.996197556164 	0.9890576866205367 	101320.504124459
-0.9822322322322323 	300.001934377451 	1.005639388883221 	101327.2861078067
-0.9797297297297296 	300.0076366698668 	1.022120933464912 	101334.0275900419
-0.9772272272272275 	300.013201108779 	1.038203851474805 	101340.6064292557
-0.9747247247247248 	300.0185268829064 	1.053596771098732 	101346.9033860921
-0.9722222222222224 	300.0235175861453 	1.06802096962508 	101352.8044187831
-0.9697197197197196 	300.0280828206186 	1.0812152322762 	101358.2026262462
-0.9672172172172175 	300.032139741247 	1.092940036723168 	101362.9999676271
-0.9647147147147147 	300.0356143785982 	1.102981463267422 	101367.1088466822
-0.9622122122122124 	300.0384427692613 	1.111155041118385 	101370.453696875
-0.9597097097097099 	300.0405725717558 	1.11730925315831 	101372.9724490473
-0.9572072072072073 	300.0419637896997 	1.121328397281178 	101374.617711611
-0.9547047047047047 	300.0425894714111 	1.123134570168965 	101375.3576287605
-0.9522022022022023 	300.0424363797309 	1.122687952585741 	101375.1760466928
-0.9496996996996998 	300.0415027160378 	1.119988508229757 	101374.0722239403
-0.9471971971971973 	300.0398043157319 	1.115079698787475 	101372.0642573155
-0.9446946946946947 	300.0373717085301 	1.108047310662723 	101369.1875868912
-0.9421921921921923 	300.0342472853677 	1.099015674569806 	101365.492914068
-0.93968968968969 	300.030486960286 	1.088146437340603 	101361.046377599
-0.9371871871871872 	300.0261591011458 	1.075636919557488 	101355.9288005271
-0.9346846846846848 	300.0213429803358 	1.061716586651308 	101350.2341447473
-0.9321821821821823 	300.0161276392107 	1.046642676200163 	101344.0677130818
-0.9296796796796799 	300.0106101598105 	1.030695556798693 	101337.5442590643
-0.9271771771771771 	300.0048937362127 	1.014173689179163 	101330.7859315494
-0.9246746746746748 	299.999085955674 	0.9973877096654442 	101323.9198834377
-0.9221721721721724 	299.9932962069989 	0.9806537348733294 	101317.0754730399
-0.9196696696696698 	299.9876333040171 	0.9642865192905865 	101310.38142234
-0.9171671671671672 	299.9822036146994 	0.9485929492908627 	101303.9632018446
-0.9146646646646649 	299.9771083449282 	0.9338660298022048 	101297.9405966868
-0.9121621621621623 	299.972442106414 	0.9203791919711659 	101292.4253553836
-0.9096596596596597 	299.9682909838972 	0.9083809145914066 	101287.5190173673
-0.9071571571571573 	299.9647304327424 	0.898089997743026 	101283.3109717056
-0.9046546546546547 	299.9618247899489 	0.8896916619273666 	101279.8768582525
-0.9021521521521524 	299.9596252591919 	0.8833344400486254 	101277.2773364101
-0.8996496496496498 	299.9581696836772 	0.8791279498264719 	101275.5571667308
-0.8971471471471473 	299.9574821734108 	0.8771416696891687 	101274.7446415495
-0.894644644644645 	299.9575724072941 	0.8774053171067453 	101274.8517072017
-0.892142142142142 	299.9584383326735 	0.8799086505479429 	101275.8747759268
-0.8896396396396397 	299.9600612372063 	0.884599293138137 	101277.7922489043
-0.8871371371371374 	299.9624082165204 	0.8913842403343557 	101280.565872372
-0.8846346346346349 	299.9654350902119 	0.9001344472890076 	101284.1430452235
-0.8821321321321324 	299.9690857591193 	0.910687685102753 	101288.4575401448
-0.8796296296296297 	299.9732934160265 	0.9228511229637801 	101293.4305967845
-0.8771271271271271 	299.9779820740575 	0.9364045601778532 	101298.9723012262
-0.8746246246246248 	299.983067224026 	0.9511038731568739 	101304.9829359612
-0.8721221221221224 	299.9884575160164 	0.9666848094396649 	101311.3545078289
-0.8696196196196196 	299.9940560978383 	0.9828673035456142 	101317.9725299267
-0.8671171171171175 	299.9997620961489 	0.9993603715262509 	101324.7180181095
-0.8646146146146148 	300.0054730652521 	1.015867386109628 	101331.4696351515
-0.8621121121121121 	300.0110862760798 	1.032091543331667 	101338.1059690889
-0.8596096096096097 	300.0165007841002 	1.047741247190959 	101344.5077288655
-0.857107107107107 	300.0216192936728 	1.062535058889976 	101350.559768713
-0.8546046046046049 	300.0263494478021 	1.076206228104937 	101356.1529368394
-0.8521021021021022 	300.0306056579474 	1.088507145513266 	101361.1858714764
-0.8495995995995997 	300.0343104510587 	1.099213758058549 	101365.5668172306
-0.8470970970970974 	300.0373956911163 	1.108129658128517 	101369.2153472796
-0.8445945945945946 	300.0398042613955 	1.115089544433277 	101372.0637759655
-0.8420920920920922 	300.0414907412996 	1.119961956368382 	101374.0582508834
-0.8395895895895897 	300.0424220708782 	1.122651545872045 	101375.1597096695
-0.8370870870870872 	300.0425789066746 	1.123100475927254 	101375.3446756308
-0.8345845845845846 	300.0419532165139 	1.121289446441328 	101374.6047019848
-0.8320820820820823 	300.0405528133361 	1.117241990884191 	101372.9492494251
-0.8295795795795798 	300.0384026194139 	1.111026081155814 	101370.4066427137
-0.8270770770770772 	300.0355397000978 	1.102749948094983 	101367.0211617103
-0.8245745745745746 	300.032014435707 	1.092559788928481 	101362.8525271626
-0.8220720720720721 	300.0278902129126 	1.08063879741497 	101357.9757208875
-0.8195695695695699 	300.0232422871474 	1.067204783521824 	101352.4799161256
-0.817067067067067 	300.0181569616384 	1.052506590916928 	101346.4669890149
-0.8145645645645651 	300.0127292989968 	1.036819526123294 	101340.0496638401
-0.8120620620620621 	300.0070618799753 	1.020439802743267 	101333.3492238575
-0.8095595595595597 	300.0012624332846 	1.003678130546687 	101326.4928630197
-0.8070570570570572 	299.9954409081746 	0.9868528135570139 	101319.6108304004
-0.8045545545545546 	299.9897078592092 	0.9702829080328338 	101312.8336402655
-0.8020520520520523 	299.9841715874856 	0.9542816358992283 	101306.2893781129
-0.7995495495495494 	299.9789361393844 	0.9391499180098599 	101300.1010812026
-0.7970470470470474 	299.9740994626354 	0.9251701188533586 	101294.3841798943
-0.7945445445445446 	299.9697505812896 	0.9126003533444769 	101289.2441443711
-0.7920420420420423 	299.9659688256632 	0.9016696621668465 	101284.7745325139
-0.7895395395395397 	299.9628220158618 	0.8925741746625658 	101281.0554388348
-0.7870370370370371 	299.9603655160558 	0.8854740997610071 	101278.1522759665
-0.7845345345345348 	299.9586415894883 	0.8804913327514723 	101276.1148131812
-0.7820320320320323 	299.9576783828072 	0.8777077559994999 	101274.9764876324
-0.7795295295295296 	299.95748985101 	0.877164887727218 	101274.7540289778
-0.7770270270270272 	299.9580774894364 	0.8788645911690969 	101275.4485129696
-0.7745245245245247 	299.959427941929 	0.8827674379372299 	101277.0440023648
-0.7720220220220222 	299.961512429872 	0.8887929788701423 	101279.5072104373
-0.7695195195195199 	299.964290622201 	0.8968245595415669 	101282.7905088895
-0.767017017017017 	299.967711062179 	0.9067125712095334 	101286.8329165939
-0.7645145145145147 	299.9717112771417 	0.9182762997922556 	101291.5606618931
-0.7620120120120122 	299.9762188517226 	0.931306530852259 	101296.8882945683
-0.7595095095095097 	299.9811527679364 	0.9455688593176446 	101302.7200514997
-0.7570070070070072 	299.9864245832498 	0.9608076336144475 	101308.9514712714
-0.7545045045045048 	299.9919399945257 	0.9767503880723967 	101315.4711837992
-0.7520020020020022 	299.9976006294604 	0.9931124388031883 	101322.1628068113
-0.7494994994994997 	300.0033053485615 	1.009601634153265 	101328.9068862972
-0.7469969969969972 	300.0089521375316 	1.025923383231027 	101335.5829017169
-0.7444944944944945 	300.0144402463735 	1.041785896545047 	101342.0714820563
-0.7419919919919924 	300.0196712704429 	1.056905387709956 	101348.25653098
-0.7394894894894897 	300.0245516587199 	1.071010909776985 	101354.0271827673
-0.7369869869869872 	300.0289936116586 	1.083848677842247 	101359.2795744519
-0.7344844844844846 	300.0329164444955 	1.095186082275491 	101363.9185099631
-0.7319819819819822 	300.0362486781712 	1.104815502432545 	101367.8589613781
-0.7294794794794797 	300.0389280735805 	1.112557885976231 	101371.0275887084
-0.7269769769769773 	300.0409037483573 	1.118266136728525 	101373.3641242424
-0.7244744744744747 	300.0421370652124 	1.121828194521589 	101374.8226267168
-0.721971971971972 	300.0426021537517 	1.123169243550635 	101375.3725514286
-0.7194694694694695 	300.0422865099708 	1.122252192307065 	101374.9987560453
-0.7169669669669674 	300.0411894594208 	1.119080608616891 	101373.701866783
-0.7144644644644647 	300.0393289997965 	1.113702673911623 	101371.5022061513
-0.711961961961962 	300.0367369682878 	1.106209043070888 	101368.4369692611
-0.7094594594594597 	300.0334577189403 	1.096729745816206 	101364.5592143939
-0.7069569569569573 	300.0295496806592 	1.085433590586764 	101359.9380269175
-0.7044544544544545 	300.025084124016 	1.072526375385317 	101354.6576666515
-0.7019519519519523 	300.0201437065718 	1.058247464505228 	101348.8161342115
-0.6994494494494495 	300.0148215033595 	1.042865357647132 	101342.5233664579
-0.6969469469469471 	300.0092186379779 	1.026672331117738 	101335.8990425292
-0.6944444444444446 	300.0034423347924 	1.009978142195174 	101329.0699968222
-0.6919419419419421 	299.9976034624933 	0.9931029526765115 	101322.1672802165
-0.6894394394394396 	299.9918138247413 	0.9763699365537312 	101315.323121933
-0.6869369369369374 	299.9861838316602 	0.9600980503611499 	101308.6679859493
-0.6844344344344344 	299.9808200347458 	0.944595200128446 	101302.3277721408
-0.6819319319319321 	299.9758229204916 	0.9301519423902287 	101296.421243649
-0.6794294294294296 	299.9712850224826 	0.9170358682317342 	101291.0577427877
-0.6769269269269272 	299.9672893414185 	0.9054867189367738 	101286.3352117717
-0.6744244244244245 	299.9639076380273 	0.8957121526848699 	101282.3384771102
-0.6719219219219222 	299.9611994386727 	0.8878841895978191 	101279.1378019841
-0.6694194194194195 	299.9592109715429 	0.8821364770654034 	101276.7877360475
-0.6669169169169172 	299.9579744566781 	0.8785625549549478 	101275.3264399146
-0.6644144144144146 	299.9575081360471 	0.8772154138607775 	101274.7754079041
-0.661911911911912 	299.9578164623339 	0.8781088659364021 	101275.1401823726
-0.6594094094094097 	299.9588920449946 	0.8812170963972786 	101276.4108514895
-0.656906906906907 	299.9607105620007 	0.8864732596532486 	101278.55958139
-0.6544044044044046 	299.963235547901 	0.8937729142050455 	101281.5436617276
-0.6519019019019021 	299.9664198809923 	0.9029782123713244 	101285.3069115429
-0.6493993993993996 	299.9702048135977 	0.9139198719151673 	101289.7802131787
-0.6468968968968971 	299.9745219033005 	0.9263996638654417 	101294.8826275877
-0.6443943943943946 	299.9792937305809 	0.9401936590051495 	101300.522689255
-0.6418918918918921 	299.984435047127 	0.9550557331282937 	101306.5998398911
-0.6393893893893897 	299.9898546151193 	0.9707214336829657 	101313.0060263664
-0.6368868868868871 	299.9954559014567 	0.9869123627285141 	101319.6274331119
-0.6343843843843846 	300.0011394776363 	1.003340962739639 	101326.3464563793
-0.6318818818818821 	300.0068045443929 	1.019715601686107 	101333.0438321573
-0.6293793793793795 	300.012350407136 	1.035745778433991 	101339.6007274011
-0.6268768768768773 	300.0176788910416 	1.051146976952803 	101345.9007649349
-0.6243743743743745 	300.0226948398332 	1.065645056210286 	101351.8318172826
-0.6218718718718721 	300.0273088592812 	1.078980490160637 	101357.2876789065
-0.6193693693693696 	300.0314377203466 	1.090912511350439 	101362.169766766
-0.6168668668668671 	300.0350054590765 	1.101223128053983 	101366.3888440114
-0.6143643643643645 	300.0379463102033 	1.109721016585749 	101369.866551347
-0.6118618618618621 	300.0402042134455 	1.116245017698203 	101372.5368677907
-0.6093593593593596 	300.0417351050274 	1.120667188179105 	101374.347377671
-0.6068568568568571 	300.0425071751504 	1.122895503794404 	101375.2603702197
-0.6043543543543546 	300.0425019084093 	1.122875098598349 	101375.253637464
-0.6018518518518521 	300.041712074688 	1.120589814489771 	101374.3197304069
-0.5993493493493496 	300.0401476154968 	1.116067483500265 	101372.4702069137
-0.5968468468468471 	300.03783467247 	1.109380716736537 	101369.7351697717
-0.5943443443443446 	300.0348121977793 	1.100642963669351 	101366.1608986671
-0.591841841841842 	300.0311327794138 	1.090007576741176 	101361.8100808584
-0.5893393393393397 	300.0268632478681 	1.077666862834473 	101356.7614378062
-0.5868368368368371 	300.0220824732015 	1.063849390136995 	101351.1085574455
-0.5843343343343346 	300.0168808234947 	1.048815956582607 	101344.9582327938
-0.5818318318318321 	300.011357901726 	1.032854230085255 	101338.4282771029
-0.5793293293293297 	300.005620210536 	1.016272157794035 	101331.6448185632
-0.5768268268268271 	299.9997789818691 	0.9993905179776775 	101324.7391976622
-0.5743243243243245 	299.9939469724096 	0.9825352392072719 	101317.8447872904
-0.5718218218218221 	299.9882361825584 	0.9660300630585656 	101311.0940140025
-0.5693193193193196 	299.9827555098976 	0.9501896860486242 	101304.615556455
-0.5668168168168171 	299.9776084286146 	0.9353132272204621 	101298.5317071936
-0.5643143143143147 	299.9728909468563 	0.9216781226158991 	101292.955872433
-0.5618118118118121 	299.968689740208 	0.9095346621933181 	101287.990319391
-0.5593093093093094 	299.9650801902799 	0.8991013611336408 	101283.7242913828
-0.5568068068068072 	299.9621257438042 	0.890561355914645 	101280.232569209
-0.5543043043043046 	299.9598765832649 	0.8840598536832401 	101277.5744116045
-0.551801801801802 	299.9583691580913 	0.8797024905572214 	101275.7929203828
-0.5492992992992995 	299.9576261230133 	0.8775545702753411 	101274.9147055696
-0.5467967967967969 	299.9576555225813 	0.8776418860372499 	101274.9499928675
-0.5442942942942947 	299.9584546330058 	0.8799514943857463 	101275.8941210684
-0.5417917917917919 	299.9600042718855 	0.8844298645638898 	101277.7249950504
-0.5392892892892895 	299.9622717411473 	0.890984724257192 	101280.4046095179
-0.536786786786787 	299.9652139200194 	0.8994901101135917 	101283.8816610601
-0.5342842842842846 	299.968776304582 	0.9097885933467623 	101288.0919246511
-0.531781781781782 	299.9728943617899 	0.9216931997366801 	101292.9590439642
-0.5292792792792794 	299.977494258526 	0.9349902194086399 	101298.3957477457
-0.526776776776777 	299.9824938323575 	0.9494427029129326 	101304.3052359862
-0.5242742742742745 	299.9878045964085 	0.9647943976051092 	101310.5827715626
-0.521771771771772 	299.9933326670338 	0.9807740032009195 	101317.1174818038
-0.5192692692692695 	299.9989805318522 	0.9970997334411058 	101323.7941674509
-0.516766766766767 	300.0046488505851 	1.013484013562301 	101330.495216275
-0.5142642642642645 	300.0102375110346 	1.029638205827003 	101337.1025862667
-0.511761761761762 	300.015648149698 	1.045277400737723 	101343.4997515025
-0.5092592592592596 	300.0207851401369 	1.060124947797955 	101349.5735231155
-0.506756756756757 	300.0255568556208 	1.073916685327939 	101355.215838901
-0.5042542542542544 	300.0298779884445 	1.086405081348837 	101360.3253961225
-0.5017517517517521 	300.033669714895 	1.097363198071816 	101364.8092745371
-0.4992492492492494 	300.0368621411986 	1.106588415541843 	101368.5845222267
-0.496746746746747 	300.0393948498163 	1.113906068656315 	101371.5795944329
-0.4942442442442445 	300.0412179572938 	1.119172869349639 	101373.7357500076
-0.4917417417417421 	300.0422940609209 	1.122279953301138 	101375.0083735217
-0.4892392392392395 	300.0425984383078 	1.123155168075271 	101375.3680702198
-0.486736736736737 	300.0421187692605 	1.121763756037357 	101374.8004124259
-0.4842342342342345 	300.0408558312367 	1.118112803579314 	101373.3075240016
-0.481731731731732 	300.0388298046494 	1.112255296235628 	101370.9118767084
-0.4792292292292296 	300.0360736169046 	1.104287266057686 	101367.6526302144
-0.4767267267267268 	300.032634533122 	1.094345924324203 	101363.5858112531
-0.4742242242242246 	300.0285740275534 	1.082609561869049 	101358.7843925983
-0.471721721721722 	300.0239674161414 	1.069295294732882 	101353.3372756875
-0.4692192192192195 	300.0189017261953 	1.054655023008399 	101347.3476483519
-0.4667167167167169 	300.0134744480526 	1.038970120195252 	101340.930750458
-0.4642142142142145 	300.0077910712764 	1.022545005790829 	101334.2112515103
-0.461711711711712 	300.0019622676767 	1.005699867040943 	101327.3202765286
-0.4592092092092094 	299.9961018946035 	0.9887629472859276 	101320.392182307
-0.456706706706707 	299.9903234678297 	0.9720627744480892 	101313.5613818972
-0.4542042042042045 	299.9847383098336 	0.9559206835500138 	101306.9593197139
-0.451701701701702 	299.979452727142 	0.9406438282058939 	101300.7115801227
-0.4491991991991995 	299.9745656728356 	0.9265187486416879 	101294.9352742184
-0.4466966966966969 	299.9701674052101 	0.9138057387938683 	101289.73677789
-0.4441941941941945 	299.966337084096 	0.9027341667388186 	101285.2097710342
-0.441691691691692 	299.9631420704527 	0.8934986708870396 	101281.4337266839
-0.4391891891891895 	299.9606367750347 	0.886256298288901 	101278.4727524774
-0.436686686686687 	299.9588615340062 	0.8811247020114776 	101276.3748442724
-0.4341841841841846 	299.9578434719966 	0.8781812808823299 	101275.1715338591
-0.431681681681682 	299.9575947606508 	0.8774635787142018 	101274.8779522545
-0.4291791791791794 	299.958115875621 	0.8789711371773304 	101275.4940085376
-0.426676676676677 	299.9593941053184 	0.8826641962961221 	101277.0039499088
-0.4241741741741744 	299.9614002184047 	0.8884632801704642 	101279.374662796
-0.421671671671672 	299.9640952222446 	0.8962540246821969 	101282.5595549826
-0.4191691691691694 	299.9674285689484 	0.9058903425264213 	101286.4990510951
-0.4166666666666669 	299.9713394519807 	0.917196127716192 	101291.1212581062
-0.4141641641641645 	299.9757576395328 	0.9299680549170337 	101296.3431185541
-0.411661661661662 	299.9806043086797 	0.9439789078686602 	101302.0718228233
-0.4091591591591594 	299.9857941859591 	0.958981264959105 	101308.2062955196
-0.406656656656657 	299.9912358333265 	0.9747114777907134 	101314.6387720233
-0.4041541541541545 	299.9968340033209 	0.9908938474863758 	101321.2565606557
-0.401651651651652 	300.0024907699763 	1.007245134866092 	101327.9438681101
-0.3991491491491494 	300.0081069926688 	1.02347928985119 	101334.5836903832
-0.396646646646647 	300.0135845347619 	1.039312062952499 	101341.0597662223
-0.3941441441441444 	300.0188271336445 	1.054465419063214 	101347.2584117249
-0.3916416416416419 	300.0237422190496 	1.068671678179031 	101353.0700966359
-0.3891391391391395 	300.0282422623824 	1.081677443320084 	101358.3911421952
-0.3866366366366368 	300.0322457013875 	1.093247590516155 	101363.1253081589
-0.3841341341341344 	300.0356791023329 	1.103169254457469 	101367.1854205077
-0.381631631631632 	300.0384776426661 	1.111255489673153 	101370.4949130341
-0.3791291291291294 	300.0405867591882 	1.117348726861596 	101372.9892671136
-0.3766266266266269 	300.0419633734305 	1.121323965381171 	101374.6172152971
-0.3741241241241244 	300.0425761782136 	1.123091503503775 	101375.3420181386
-0.371621621621622 	300.042407903179 	1.122598284822234 	101375.1422146972
-0.3691191191191194 	300.0414510152706 	1.119830817563976 	101374.0111191946
-0.366616616616617 	300.0397183029121 	1.114821578483657 	101371.9625869175
-0.3641141141141143 	300.0372375565788 	1.107648993355184 	101369.0288898343
-0.3616116116116119 	300.0340496188459 	1.098433897638719 	101365.2592747798
-0.3591091091091095 	300.030211468119 	1.087339468672728 	101360.7205166372
-0.356606606606607 	300.0257931990253 	1.074569744959863 	101355.4961571714
-0.3541041041041044 	300.0208785750302 	1.060366131116227 	101349.6850512269
-0.3516016016016019 	300.0155624604571 	1.045002446213606 	101343.3993709418
-0.3490990990990994 	300.0099484820374 	1.02877873924699 	101336.762022364
-0.346596596596597 	300.0041475204089 	1.012013955874858 	101329.9036277388
-0.3440940940940944 	299.9982733041449 	0.9950378342359694 	101322.9592110262
-0.3415915915915919 	299.9924412367752 	0.9781827522343063 	101316.064792851
-0.3390890890890895 	299.9867643809529 	0.9617759207154305 	101309.3542093395
-0.3365865865865869 	299.9813516336137 	0.9461320637181041 	101302.9561826821
-0.3340840840840844 	299.9763054229074 	0.9315467323322479 	101296.9915316872
-0.3315815815815819 	299.9717190352756 	0.918290309742665 	101291.5707361097
-0.3290790790790794 	299.9676757321602 	0.9066028795120114 	101286.7918845879
-0.3265765765765769 	299.9642465390378 	0.8966902611247859 	101282.7390215379
-0.3240740740740744 	299.961489767483 	0.8887211192787209 	101279.480959057
-0.3215715715715718 	299.95945029105 	0.8828251190918127 	101277.0706058885
-0.3190690690690695 	299.9581590239088 	0.8790920707589942 	101275.5445727474
-0.3165665665665668 	299.9576331799871 	0.8775719073848196 	101274.9231267322
-0.3140640640640644 	299.9578760969705 	0.8782762115678552 	101275.2107518904
-0.311561561561562 	299.9588806822749 	0.8811785023912067 	101276.3974597324
-0.3090590590590593 	299.9606223784458 	0.8862123240379853 	101278.455439616
-0.3065565565565568 	299.963065391161 	0.8932746000534019 	101281.3425495729
-0.3040540540540545 	299.9661634333534 	0.9022305457624398 	101285.0038715447
-0.3015515515515518 	299.9698594469268 	0.912915230220949 	101289.3720673864
-0.2990490490490494 	299.9740868329323 	0.9251359300829765 	101294.3684474477
-0.2965465465465469 	299.9787704543423 	0.9386752751508749 	101299.9042084821
-0.2940440440440444 	299.9838276910359 	0.9532947440235987 	101305.881905448
-0.2915415415415418 	299.9891702092648 	0.9687385009465255 	101312.1970172822
-0.2890390390390395 	299.9947047986057 	0.9847375277365928 	101318.7395811196
-0.2865365365365368 	300.0003354802667 	1.001013819062292 	101325.3959346059
-0.2840340340340343 	300.0059643449541 	1.017284693260271 	101332.0505121399
-0.2815315315315318 	300.0114935411506 	1.033267240671487 	101338.5876095123
-0.2790290290290295 	300.0168267327936 	1.048682688619621 	101344.8932055721
-0.2765265265265269 	300.0218702398838 	1.063260585514167 	101350.8566951143
-0.2740240240240244 	300.0265350923456 	1.076742887081337 	101356.3724832652