/*--------------------------------*- C++ -*----------------------------------*\
  =========                 |
  \\      /  F ield         | OpenFOAM: The Open Source CFD Toolbox
   \\    /   O peration     | Website:  https://openfoam.org
    \\  /    A nd           | Version:  7
     \\/     M anipulation  |
\*---------------------------------------------------------------------------*/
FoamFile
{
    version     2.0;
    format      ascii;
    class       volScalarField;
    location    "0.0025";
    object      p;
}
// * * * * * * * * * * * * * * * * * * * * * * * * * * * * * * * * * * * * * //

dimensions      [1 -1 -2 0 0 0 0];

internalField   nonuniform List<scalar> 
5000
(
109813.2
109813.2
109813.2
109813.2
109813.2
109813.21
109813.21
109813.21
109813.21
109813.21
109813.21
109813.21
109813.21
109813.21
109813.21
109813.21
109813.21
109813.21
109813.21
109813.21
109813.21
109813.21
109813.21
109813.21
109813.21
109813.21
109813.21
109813.21
109813.21
109813.21
109813.21
109813.21
109813.21
109813.21
109813.21
109813.21
109813.21
109813.21
109813.21
109813.21
109813.21
109813.21
109813.21
109813.21
109813.21
109813.21
109813.21
109813.21
109813.21
109813.21
109813.21
109813.22
109813.22
109813.22
109813.22
109813.22
109813.22
109813.22
109813.22
109813.22
109813.22
109813.22
109813.22
109813.22
109813.22
109813.22
109813.22
109813.22
109813.22
109813.22
109813.22
109813.22
109813.22
109813.22
109813.22
109813.22
109813.22
109813.22
109813.22
109813.22
109813.22
109813.22
109813.22
109813.22
109813.22
109813.22
109813.22
109813.22
109813.22
109813.22
109813.22
109813.22
109813.22
109813.22
109813.22
109813.23
109813.23
109813.23
109813.23
109813.23
109813.23
109813.23
109813.23
109813.23
109813.23
109813.23
109813.23
109813.23
109813.23
109813.23
109813.23
109813.23
109813.23
109813.23
109813.23
109813.23
109813.23
109813.23
109813.23
109813.23
109813.23
109813.23
109813.23
109813.23
109813.23
109813.23
109813.23
109813.23
109813.23
109813.23
109813.23
109813.23
109813.23
109813.23
109813.23
109813.23
109813.23
109813.23
109813.23
109813.23
109813.23
109813.24
109813.24
109813.24
109813.24
109813.24
109813.24
109813.24
109813.24
109813.24
109813.24
109813.24
109813.24
109813.24
109813.24
109813.24
109813.24
109813.24
109813.24
109813.24
109813.24
109813.24
109813.24
109813.24
109813.24
109813.24
109813.24
109813.24
109813.24
109813.24
109813.24
109813.24
109813.24
109813.24
109813.24
109813.24
109813.24
109813.24
109813.24
109813.24
109813.24
109813.24
109813.24
109813.24
109813.24
109813.24
109813.24
109813.24
109813.24
109813.25
109813.25
109813.25
109813.25
109813.25
109813.25
109813.25
109813.25
109813.25
109813.25
109813.25
109813.25
109813.25
109813.25
109813.25
109813.25
109813.25
109813.25
109813.25
109813.25
109813.25
109813.25
109813.25
109813.25
109813.25
109813.25
109813.25
109813.25
109813.25
109813.25
109813.25
109813.25
109813.25
109813.25
109813.25
109813.25
109813.25
109813.25
109813.25
109813.25
109813.25
109813.25
109813.25
109813.25
109813.25
109813.25
109813.25
109813.25
109813.25
109813.25
109813.26
109813.26
109813.26
109813.26
109813.26
109813.26
109813.26
109813.26
109813.26
109813.26
109813.26
109813.26
109813.26
109813.26
109813.26
109813.26
109813.26
109813.26
109813.26
109813.26
109813.26
109813.26
109813.26
109813.26
109813.26
109813.26
109813.26
109813.26
109813.26
109813.26
109813.26
109813.26
109813.26
109813.26
109813.26
109813.26
109813.26
109813.26
109813.26
109813.26
109813.26
109813.26
109813.26
109813.26
109813.26
109813.26
109813.26
109813.26
109813.26
109813.26
109813.26
109813.26
109813.27
109813.27
109813.27
109813.27
109813.27
109813.27
109813.27
109813.27
109813.27
109813.27
109813.27
109813.27
109813.27
109813.27
109813.27
109813.27
109813.27
109813.27
109813.27
109813.27
109813.27
109813.27
109813.27
109813.27
109813.27
109813.27
109813.27
109813.27
109813.27
109813.27
109813.27
109813.27
109813.27
109813.27
109813.27
109813.27
109813.27
109813.27
109813.27
109813.27
109813.27
109813.27
109813.27
109813.27
109813.27
109813.27
109813.27
109813.27
109813.27
109813.27
109813.27
109813.27
109813.27
109813.27
109813.28
109813.28
109813.28
109813.28
109813.28
109813.28
109813.28
109813.28
109813.28
109813.28
109813.28
109813.28
109813.28
109813.28
109813.28
109813.28
109813.28
109813.28
109813.28
109813.28
109813.28
109813.28
109813.28
109813.28
109813.28
109813.28
109813.28
109813.28
109813.28
109813.28
109813.28
109813.28
109813.28
109813.28
109813.28
109813.28
109813.28
109813.28
109813.28
109813.28
109813.28
109813.28
109813.28
109813.28
109813.28
109813.28
109813.28
109813.28
109813.28
109813.28
109813.28
109813.28
109813.28
109813.28
109813.28
109813.28
109813.29
109813.29
109813.29
109813.29
109813.29
109813.29
109813.29
109813.29
109813.29
109813.29
109813.29
109813.29
109813.29
109813.29
109813.29
109813.29
109813.29
109813.29
109813.29
109813.29
109813.29
109813.29
109813.29
109813.29
109813.29
109813.29
109813.29
109813.29
109813.29
109813.29
109813.29
109813.29
109813.29
109813.29
109813.29
109813.29
109813.29
109813.29
109813.29
109813.29
109813.29
109813.29
109813.29
109813.29
109813.29
109813.29
109813.29
109813.29
109813.29
109813.29
109813.29
109813.29
109813.29
109813.29
109813.29
109813.29
109813.29
109813.29
109813.3
109813.3
109813.3
109813.3
109813.3
109813.3
109813.3
109813.3
109813.3
109813.3
109813.3
109813.3
109813.3
109813.3
109813.3
109813.3
109813.3
109813.3
109813.3
109813.3
109813.3
109813.3
109813.3
109813.3
109813.3
109813.3
109813.3
109813.3
109813.3
109813.3
109813.3
109813.3
109813.3
109813.3
109813.3
109813.3
109813.3
109813.3
109813.3
109813.3
109813.3
109813.3
109813.3
109813.3
109813.3
109813.3
109813.3
109813.3
109813.3
109813.3
109813.3
109813.3
109813.3
109813.3
109813.3
109813.3
109813.3
109813.3
109813.3
109813.3
109813.3
109813.3
109813.3
109813.31
109813.31
109813.31
109813.31
109813.31
109813.31
109813.31
109813.31
109813.31
109813.31
109813.31
109813.31
109813.31
109813.31
109813.31
109813.31
109813.31
109813.31
109813.31
109813.31
109813.31
109813.31
109813.31
109813.31
109813.31
109813.31
109813.31
109813.31
109813.31
109813.31
109813.31
109813.31
109813.31
109813.31
109813.31
109813.31
109813.31
109813.31
109813.31
109813.31
109813.31
109813.31
109813.31
109813.31
109813.31
109813.31
109813.31
109813.31
109813.31
109813.31
109813.31
109813.31
109813.31
109813.31
109813.31
109813.31
109813.31
109813.31
109813.31
109813.31
109813.31
109813.31
109813.31
109813.31
109813.31
109813.32
109813.32
109813.32
109813.32
109813.32
109813.32
109813.32
109813.32
109813.32
109813.32
109813.32
109813.32
109813.32
109813.32
109813.32
109813.32
109813.32
109813.32
109813.32
109813.32
109813.32
109813.32
109813.32
109813.32
109813.32
109813.32
109813.32
109813.32
109813.32
109813.32
109813.32
109813.32
109813.32
109813.32
109813.32
109813.32
109813.32
109813.32
109813.32
109813.32
109813.32
109813.32
109813.32
109813.32
109813.32
109813.32
109813.32
109813.32
109813.32
109813.32
109813.32
109813.32
109813.32
109813.32
109813.32
109813.32
109813.32
109813.32
109813.32
109813.32
109813.32
109813.32
109813.32
109813.32
109813.32
109813.32
109813.32
109813.32
109813.32
109813.33
109813.33
109813.33
109813.33
109813.33
109813.33
109813.33
109813.33
109813.33
109813.33
109813.33
109813.33
109813.33
109813.33
109813.33
109813.33
109813.33
109813.33
109813.33
109813.33
109813.33
109813.33
109813.33
109813.33
109813.33
109813.33
109813.33
109813.33
109813.33
109813.33
109813.33
109813.33
109813.33
109813.33
109813.33
109813.33
109813.33
109813.33
109813.33
109813.33
109813.33
109813.33
109813.33
109813.33
109813.33
109813.33
109813.33
109813.33
109813.33
109813.33
109813.33
109813.33
109813.33
109813.33
109813.33
109813.33
109813.33
109813.33
109813.33
109813.33
109813.33
109813.33
109813.33
109813.33
109813.33
109813.33
109813.33
109813.33
109813.33
109813.33
109813.33
109813.33
109813.33
109813.34
109813.34
109813.34
109813.34
109813.34
109813.34
109813.34
109813.34
109813.34
109813.34
109813.34
109813.34
109813.34
109813.34
109813.34
109813.34
109813.34
109813.34
109813.34
109813.34
109813.34
109813.34
109813.34
109813.34
109813.34
109813.34
109813.34
109813.34
109813.34
109813.34
109813.34
109813.34
109813.34
109813.34
109813.34
109813.34
109813.34
109813.34
109813.34
109813.34
109813.34
109813.34
109813.34
109813.34
109813.34
109813.34
109813.34
109813.34
109813.34
109813.34
109813.34
109813.34
109813.34
109813.34
109813.34
109813.34
109813.34
109813.34
109813.34
109813.34
109813.34
109813.34
109813.34
109813.34
109813.34
109813.34
109813.34
109813.34
109813.34
109813.34
109813.34
109813.34
109813.34
109813.34
109813.34
109813.34
109813.34
109813.34
109813.34
109813.34
109813.35
109813.35
109813.35
109813.35
109813.35
109813.35
109813.35
109813.35
109813.35
109813.35
109813.35
109813.35
109813.35
109813.35
109813.35
109813.35
109813.35
109813.35
109813.35
109813.35
109813.35
109813.35
109813.35
109813.35
109813.35
109813.35
109813.35
109813.35
109813.35
109813.35
109813.35
109813.35
109813.35
109813.35
109813.35
109813.35
109813.35
109813.35
109813.35
109813.35
109813.35
109813.35
109813.35
109813.35
109813.35
109813.35
109813.35
109813.35
109813.35
109813.35
109813.35
109813.35
109813.35
109813.35
109813.35
109813.35
109813.35
109813.35
109813.35
109813.35
109813.35
109813.35
109813.35
109813.35
109813.35
109813.35
109813.35
109813.35
109813.35
109813.35
109813.35
109813.35
109813.35
109813.36
109813.36
109813.36
109813.36
109813.36
109813.36
109813.36
109813.36
109813.36
109813.36
109813.36
109813.36
109813.36
109813.36
109813.36
109813.36
109813.36
109813.36
109813.36
109813.36
109813.36
109813.36
109813.36
109813.36
109813.36
109813.36
109813.36
109813.36
109813.36
109813.36
109813.36
109813.36
109813.36
109813.36
109813.36
109813.36
109813.36
109813.36
109813.36
109813.36
109813.36
109813.36
109813.36
109813.36
109813.36
109813.36
109813.36
109813.36
109813.36
109813.36
109813.36
109813.36
109813.36
109813.36
109813.36
109813.36
109813.36
109813.36
109813.36
109813.36
109813.36
109813.36
109813.36
109813.36
109813.36
109813.36
109813.36
109813.36
109813.36
109813.36
109813.37
109813.37
109813.37
109813.37
109813.37
109813.37
109813.37
109813.37
109813.37
109813.37
109813.37
109813.37
109813.37
109813.37
109813.37
109813.37
109813.37
109813.37
109813.37
109813.37
109813.37
109813.37
109813.37
109813.37
109813.37
109813.37
109813.37
109813.37
109813.37
109813.37
109813.37
109813.37
109813.37
109813.37
109813.37
109813.37
109813.37
109813.37
109813.37
109813.37
109813.37
109813.37
109813.37
109813.37
109813.37
109813.37
109813.37
109813.37
109813.37
109813.37
109813.37
109813.37
109813.37
109813.37
109813.37
109813.37
109813.37
109813.37
109813.37
109813.37
109813.37
109813.37
109813.37
109813.37
109813.37
109813.37
109813.37
109813.37
109813.37
109813.37
109813.37
109813.37
109813.37
109813.37
109813.37
109813.37
109813.37
109813.37
109813.37
109813.37
109813.37
109813.37
109813.37
109813.37
109813.37
109813.37
109813.37
109813.37
109813.37
109813.37
109813.37
109813.37
109813.37
109813.37
109813.37
109813.37
109813.37
109813.37
109813.37
109813.37
109813.37
109813.37
109813.37
109813.37
109813.38
109813.38
109813.38
109813.38
109813.38
109813.38
109813.38
109813.38
109813.38
109813.38
109813.38
109813.38
109813.38
109813.38
109813.38
109813.38
109813.38
109813.38
109813.38
109813.38
109813.38
109813.38
109813.38
109813.38
109813.38
109813.38
109813.38
109813.38
109813.38
109813.38
109813.38
109813.38
109813.38
109813.38
109813.38
109813.38
109813.38
109813.38
109813.38
109813.38
109813.38
109813.38
109813.38
109813.38
109813.38
109813.38
109813.38
109813.38
109813.38
109813.38
109813.38
109813.38
109813.38
109813.38
109813.38
109813.38
109813.38
109813.38
109813.38
109813.38
109813.38
109813.38
109813.38
109813.38
109813.38
109813.38
109813.38
109813.38
109813.38
109813.38
109813.38
109813.38
109813.38
109813.38
109813.38
109813.38
109813.38
109813.38
109813.38
109813.38
109813.38
109813.38
109813.38
109813.38
109813.38
109813.38
109813.38
109813.38
109813.38
109813.38
109813.38
109813.38
109813.38
109813.38
109813.38
109813.38
109813.38
109813.38
109813.38
109813.38
109813.38
109813.38
109813.38
109813.38
109813.38
109813.38
109813.38
109813.38
109813.38
109813.38
109813.38
109813.38
109813.37
109813.37
109813.37
109813.37
109813.37
109813.37
109813.37
109813.37
109813.37
109813.37
109813.37
109813.37
109813.37
109813.37
109813.37
109813.37
109813.37
109813.37
109813.37
109813.37
109813.37
109813.37
109813.37
109813.37
109813.37
109813.37
109813.37
109813.37
109813.37
109813.37
109813.37
109813.37
109813.37
109813.37
109813.37
109813.37
109813.37
109813.37
109813.37
109813.37
109813.37
109813.37
109813.37
109813.37
109813.37
109813.37
109813.37
109813.37
109813.37
109813.37
109813.37
109813.37
109813.37
109813.37
109813.37
109813.37
109813.37
109813.37
109813.37
109813.37
109813.37
109813.37
109813.37
109813.37
109813.37
109813.37
109813.37
109813.37
109813.37
109813.37
109813.37
109813.37
109813.37
109813.37
109813.37
109813.37
109813.37
109813.37
109813.37
109813.37
109813.37
109813.37
109813.37
109813.37
109813.37
109813.37
109813.37
109813.37
109813.36
109813.36
109813.36
109813.36
109813.36
109813.36
109813.36
109813.36
109813.36
109813.36
109813.36
109813.36
109813.36
109813.36
109813.36
109813.36
109813.36
109813.36
109813.36
109813.36
109813.36
109813.36
109813.36
109813.36
109813.36
109813.36
109813.36
109813.36
109813.36
109813.36
109813.35
109813.35
109813.35
109813.35
109813.35
109813.35
109813.35
109813.35
109813.35
109813.35
109813.35
109813.35
109813.35
109813.35
109813.35
109813.35
109813.35
109813.34
109813.34
109813.34
109813.34
109813.34
109813.34
109813.34
109813.34
109813.34
109813.34
109813.34
109813.33
109813.33
109813.33
109813.33
109813.33
109813.33
109813.33
109813.33
109813.32
109813.32
109813.32
109813.32
109813.32
109813.32
109813.32
109813.31
109813.31
109813.31
109813.31
109813.31
109813.3
109813.3
109813.3
109813.3
109813.3
109813.29
109813.29
109813.29
109813.28
109813.28
109813.28
109813.28
109813.27
109813.27
109813.27
109813.26
109813.26
109813.26
109813.25
109813.25
109813.25
109813.24
109813.24
109813.23
109813.23
109813.22
109813.22
109813.21
109813.21
109813.2
109813.2
109813.19
109813.19
109813.18
109813.18
109813.17
109813.16
109813.16
109813.15
109813.14
109813.14
109813.13
109813.12
109813.11
109813.1
109813.1
109813.09
109813.08
109813.07
109813.06
109813.05
109813.04
109813.03
109813.02
109813.01
109813
109812.98
109812.97
109812.96
109812.95
109812.93
109812.92
109812.91
109812.89
109812.88
109812.86
109812.85
109812.83
109812.82
109812.8
109812.78
109812.76
109812.74
109812.73
109812.71
109812.69
109812.67
109812.64
109812.62
109812.6
109812.58
109812.55
109812.53
109812.51
109812.48
109812.45
109812.43
109812.4
109812.37
109812.34
109812.31
109812.28
109812.25
109812.22
109812.18
109812.15
109812.12
109812.08
109812.04
109812.01
109811.97
109811.93
109811.89
109811.85
109811.8
109811.76
109811.72
109811.67
109811.62
109811.58
109811.53
109811.48
109811.43
109811.37
109811.32
109811.26
109811.21
109811.15
109811.09
109811.03
109810.97
109810.91
109810.84
109810.78
109810.71
109810.64
109810.57
109810.5
109810.42
109810.35
109810.27
109810.19
109810.11
109810.03
109809.94
109809.86
109809.77
109809.68
109809.59
109809.5
109809.4
109809.31
109809.21
109809.11
109809
109808.9
109808.79
109808.68
109808.57
109808.46
109808.34
109808.22
109808.1
109807.98
109807.85
109807.73
109807.6
109807.46
109807.33
109807.19
109807.05
109806.91
109806.77
109806.62
109806.47
109806.31
109806.16
109806
109805.84
109805.67
109805.51
109805.34
109805.16
109804.99
109804.81
109804.63
109804.44
109804.26
109804.06
109803.87
109803.67
109803.47
109803.27
109803.06
109802.85
109802.64
109802.42
109802.2
109801.98
109801.75
109801.52
109801.28
109801.05
109800.81
109800.56
109800.31
109800.06
109799.8
109799.54
109799.28
109799.01
109798.74
109798.47
109798.19
109797.91
109797.62
109797.33
109797.03
109796.74
109796.43
109796.13
109795.82
109795.5
109795.18
109794.86
109794.53
109794.2
109793.87
109793.53
109793.18
109792.83
109792.48
109792.12
109791.76
109791.4
109791.03
109790.65
109790.27
109789.89
109789.5
109789.11
109788.71
109788.31
109787.91
109787.5
109787.08
109786.66
109786.24
109785.81
109785.38
109784.94
109784.5
109784.05
109783.6
109783.14
109782.68
109782.22
109781.75
109781.27
109780.79
109780.31
109779.82
109779.32
109778.83
109778.32
109777.81
109777.3
109776.78
109776.26
109775.73
109775.2
109774.67
109774.12
109773.58
109773.03
109772.47
109771.91
109771.35
109770.78
109770.2
109769.62
109769.04
109768.45
109767.86
109767.26
109766.66
109766.05
109765.44
109764.82
109764.2
109763.58
109762.95
109762.31
109761.67
109761.03
109760.38
109759.73
109759.07
109758.41
109757.74
109757.07
109756.39
109755.71
109755.03
109754.34
109753.65
109752.95
109752.25
109751.54
109750.83
109750.12
109749.4
109748.67
109747.95
109747.22
109746.48
109745.74
109745
109744.25
109743.5
109742.74
109741.98
109741.22
109740.45
109739.68
109738.91
109738.13
109737.35
109736.56
109735.77
109734.98
109734.18
109733.38
109732.57
109731.77
109730.96
109730.14
109729.32
109728.5
109727.68
109726.85
109726.02
109725.19
109724.35
109723.51
109722.66
109721.82
109720.97
109720.12
109719.26
109718.4
109717.54
109716.68
109715.81
109714.94
109714.07
109713.2
109712.32
109711.44
109710.56
109709.68
109708.79
109707.9
109707.01
109706.12
109705.22
109704.32
109703.43
109702.52
109701.62
109700.72
109699.81
109698.9
109697.99
109697.08
109696.16
109695.25
109694.33
109693.41
109692.49
109691.57
109690.65
109689.72
109688.8
109687.87
109686.94
109686.01
109685.08
109684.15
109683.22
109682.29
109681.35
109680.42
109679.48
109678.55
109677.61
109676.67
109675.74
109674.8
109673.86
109672.92
109671.98
109671.04
109670.1
109669.16
109668.22
109667.28
109666.34
109665.4
109664.46
109663.51
109662.57
109661.63
109660.69
109659.75
109658.82
109657.88
109656.94
109656
109655.06
109654.12
109653.19
109652.25
109651.32
109650.38
109649.45
109648.52
109647.59
109646.65
109645.72
109644.8
109643.87
109642.94
109642.02
109641.09
109640.17
109639.25
109638.33
109637.41
109636.49
109635.57
109634.66
109633.75
109632.83
109631.92
109631.02
109630.11
109629.2
109628.3
109627.4
109626.5
109625.6
109624.71
109623.81
109622.92
109622.03
109621.14
109620.26
109619.37
109618.49
109617.61
109616.74
109615.86
109614.99
109614.12
109613.25
109612.39
109611.52
109610.66
109609.8
109608.95
109608.1
109607.24
109606.4
109605.55
109604.71
109603.87
109603.03
109602.2
109601.36
109600.53
109599.71
109598.88
109598.06
109597.25
109596.43
109595.62
109594.81
109594
109593.2
109592.4
109591.6
109590.81
109590.01
109589.22
109588.44
109587.66
109586.88
109586.1
109585.33
109584.56
109583.79
109583.03
109582.27
109581.51
109580.75
109580
109579.25
109578.51
109577.77
109577.03
109576.29
109575.56
109574.83
109574.11
109573.39
109572.67
109571.95
109571.24
109570.53
109569.82
109569.12
109568.42
109567.73
109567.04
109566.35
109565.66
109564.98
109564.3
109563.62
109562.95
109562.28
109561.62
109560.95
109560.29
109559.64
109558.99
109558.34
109557.69
109557.05
109556.41
109555.78
109555.14
109554.51
109553.89
109553.27
109552.65
109552.03
109551.42
109550.81
109550.21
109549.6
109549
109548.41
109547.82
109547.23
109546.64
109546.06
109545.48
109544.9
109544.33
109543.76
109543.19
109542.63
109542.07
109541.52
109540.96
109540.41
109539.87
109539.32
109538.78
109538.24
109537.71
109537.18
109536.65
109536.13
109535.61
109535.09
109534.57
109534.06
109533.55
109533.05
109532.54
109532.04
109531.55
109531.05
109530.56
109530.08
109529.59
109529.11
109528.63
109528.16
109527.69
109527.22
109526.75
109526.29
109525.83
109525.37
109524.92
109524.46
109524.02
109523.57
109523.13
109522.69
109522.25
109521.82
109521.39
109520.96
109520.54
109520.11
109519.69
109519.28
109518.86
109518.45
109518.05
109517.64
109517.24
109516.84
109516.44
109516.05
109515.66
109515.27
109514.88
109514.5
109514.12
109513.74
109513.36
109512.99
109512.62
109512.26
109511.89
109511.53
109511.17
109510.82
109510.46
109510.11
109509.76
109509.42
109509.07
109508.73
109508.39
109508.06
109507.73
109507.4
109507.07
109506.74
109506.42
109506.1
109505.78
109505.47
109505.15
109504.84
109504.54
109504.23
109503.93
109503.63
109503.33
109503.03
109502.74
109502.45
109502.16
109501.88
109501.59
109501.31
109501.03
109500.76
109500.48
109500.21
109499.94
109499.67
109499.41
109499.15
109498.89
109498.63
109498.37
109498.12
109497.87
109497.62
109497.37
109497.13
109496.89
109496.65
109496.41
109496.17
109495.94
109495.71
109495.48
109495.25
109495.03
109494.81
109494.59
109494.37
109494.15
109493.94
109493.73
109493.52
109493.31
109493.1
109492.9
109492.7
109492.5
109492.3
109492.11
109491.91
109491.72
109491.53
109491.35
109491.16
109490.98
109490.8
109490.62
109490.44
109490.26
109490.09
109489.92
109489.75
109489.58
109489.41
109489.25
109489.09
109488.92
109488.77
109488.61
109488.45
109488.3
109488.15
109488
109487.85
109487.7
109487.56
109487.41
109487.27
109487.13
109487
109486.86
109486.72
109486.59
109486.46
109486.33
109486.2
109486.08
109485.95
109485.83
109485.71
109485.59
109485.47
109485.35
109485.23
109485.12
109485.01
109484.9
109484.79
109484.68
109484.57
109484.47
109484.36
109484.26
109484.16
109484.06
109483.96
109483.86
109483.77
109483.67
109483.58
109483.49
109483.4
109483.31
109483.22
109483.14
109483.05
109482.97
109482.88
109482.8
109482.72
109482.64
109482.57
109482.49
109482.41
109482.34
109482.27
109482.19
109482.12
109482.05
109481.98
109481.92
109481.85
109481.78
109481.72
109481.65
109481.59
109481.53
109481.47
109481.41
109481.35
109481.29
109481.24
109481.18
109481.13
109481.07
109481.02
109480.97
109480.92
109480.87
109480.82
109480.77
109480.72
109480.67
109480.63
109480.58
109480.54
109480.49
109480.45
109480.41
109480.37
109480.33
109480.29
109480.25
109480.21
109480.17
109480.13
109480.1
109480.06
109480.02
109479.99
109479.96
109479.92
109479.89
109479.86
109479.83
109479.8
109479.77
109479.74
109479.71
109479.68
109479.65
109479.62
109479.6
109479.57
109479.55
109479.52
109479.5
109479.47
109479.45
109479.43
109479.4
109479.38
109479.36
109479.34
109479.32
109479.3
109479.28
109479.26
109479.24
109479.22
109479.2
109479.18
109479.16
109479.15
109479.13
109479.11
109479.1
109479.08
109479.07
109479.05
109479.04
109479.02
109479.01
109478.99
109478.98
109478.97
109478.96
109478.94
109478.93
109478.92
109478.91
109478.9
109478.88
109478.87
109478.86
109478.85
109478.84
109478.83
109478.82
109478.81
109478.8
109478.8
109478.79
109478.78
109478.77
109478.76
109478.75
109478.75
109478.74
109478.73
109478.72
109478.72
109478.71
109478.7
109478.7
109478.69
109478.69
109478.68
109478.67
109478.67
109478.66
109478.66
109478.65
109478.65
109478.64
109478.64
109478.63
109478.63
109478.62
109478.62
109478.62
109478.61
109478.61
109478.6
109478.6
109478.6
109478.59
109478.59
109478.59
109478.58
109478.58
109478.58
109478.57
109478.57
109478.57
109478.57
109478.56
109478.56
109478.56
109478.56
109478.55
109478.55
109478.55
109478.55
109478.54
109478.54
109478.54
109478.54
109478.54
109478.54
109478.53
109478.53
109478.53
109478.53
109478.53
109478.53
109478.53
109478.52
109478.52
109478.52
109478.52
109478.52
109478.52
109478.52
109478.52
109478.51
109478.51
109478.51
109478.51
109478.51
109478.51
109478.51
109478.51
109478.51
109478.51
109478.51
109478.51
109478.5
109478.5
109478.5
109478.5
109478.5
109478.5
109478.5
109478.5
109478.5
109478.5
109478.5
109478.5
109478.5
109478.5
109478.5
109478.5
109478.5
109478.5
109478.5
109478.5
109478.5
109478.5
109478.5
109478.5
109478.49
109478.49
109478.49
109478.49
109478.49
109478.49
109478.49
109478.49
109478.49
109478.49
109478.49
109478.49
109478.49
109478.49
109478.49
109478.49
109478.49
109478.49
109478.49
109478.49
109478.49
109478.49
109478.49
109478.49
109478.49
109478.49
109478.49
109478.49
109478.49
109478.49
109478.49
109478.49
109478.49
109478.49
109478.49
109478.49
109478.49
109478.49
109478.49
109478.49
109478.49
109478.49
109478.49
109478.49
109478.49
109478.49
109478.49
109478.49
109478.49
109478.49
109478.49
109478.49
109478.49
109478.49
109478.49
109478.49
109478.49
109478.49
109478.49
109478.49
109478.49
109478.49
109478.49
109478.49
109478.49
109478.49
109478.49
109478.49
109478.49
109478.49
109478.49
109478.49
109478.49
109478.49
109478.49
109478.49
109478.49
109478.49
109478.49
109478.49
109478.49
109478.49
109478.49
109478.49
109478.49
109478.49
109478.49
109478.49
109478.49
109478.49
109478.49
109478.49
109478.49
109478.49
109478.49
109478.49
109478.49
109478.49
109478.49
109478.48
109478.48
109478.48
109478.48
109478.48
109478.48
109478.48
109478.48
109478.48
109478.48
109478.48
109478.48
109478.48
109478.48
109478.48
109478.48
109478.48
109478.48
109478.48
109478.48
109478.48
109478.48
109478.48
109478.48
109478.48
109478.48
109478.48
109478.48
109478.48
109478.48
109478.48
109478.48
109478.48
109478.48
109478.48
109478.48
109478.48
109478.48
109478.48
109478.48
109478.48
109478.48
109478.48
109478.48
109478.48
109478.48
109478.48
109478.48
109478.48
109478.48
109478.48
109478.48
109478.48
109478.48
109478.48
109478.48
109478.48
109478.48
109478.48
109478.48
109478.48
109478.48
109478.48
109478.48
109478.48
109478.48
109478.48
109478.48
109478.48
109478.48
109478.48
109478.48
109478.48
109478.48
109478.48
109478.48
109478.48
109478.48
109478.48
109478.48
109478.48
109478.48
109478.48
109478.48
109478.48
109478.48
109478.48
109478.48
109478.48
109478.48
109478.48
109478.48
109478.48
109478.48
109478.48
109478.48
109478.48
109478.48
109478.48
109478.48
109478.48
109478.48
109478.48
109478.49
109478.49
109478.49
109478.49
109478.49
109478.49
109478.49
109478.49
109478.49
109478.49
109478.49
109478.49
109478.49
109478.49
109478.49
109478.49
109478.49
109478.49
109478.49
109478.49
109478.49
109478.49
109478.49
109478.49
109478.49
109478.49
109478.49
109478.49
109478.49
109478.49
109478.49
109478.49
109478.49
109478.49
109478.49
109478.49
109478.49
109478.49
109478.49
109478.49
109478.49
109478.49
109478.49
109478.49
109478.49
109478.49
109478.49
109478.49
109478.49
109478.49
109478.49
109478.49
109478.49
109478.49
109478.49
109478.49
109478.49
109478.49
109478.49
109478.49
109478.49
109478.49
109478.49
109478.49
109478.49
109478.49
109478.49
109478.49
109478.49
109478.49
109478.49
109478.49
109478.49
109478.49
109478.49
109478.49
109478.49
109478.49
109478.49
109478.49
109478.49
109478.49
109478.49
109478.49
109478.49
109478.49
109478.49
109478.49
109478.49
109478.49
109478.49
109478.49
109478.49
109478.49
109478.49
109478.49
109478.49
109478.49
109478.49
109478.49
109478.49
109478.49
109478.49
109478.49
109478.49
109478.49
109478.49
109478.49
109478.49
109478.49
109478.49
109478.49
109478.49
109478.49
109478.49
109478.49
109478.49
109478.49
109478.49
109478.49
109478.49
109478.49
109478.49
109478.49
109478.49
109478.49
109478.49
109478.49
109478.49
109478.49
109478.49
109478.49
109478.49
109478.49
109478.49
109478.49
109478.49
109478.49
109478.49
109478.49
109478.49
109478.49
109478.49
109478.49
109478.49
109478.49
109478.49
109478.49
109478.49
109478.49
109478.49
109478.49
109478.49
109478.49
109478.49
109478.49
109478.49
109478.49
109478.49
109478.49
109478.49
109478.49
109478.49
109478.49
109478.49
109478.49
109478.49
109478.49
109478.49
109478.49
109478.49
109478.49
109478.49
109478.49
109478.49
109478.49
109478.49
109478.49
109478.49
109478.49
109478.49
109478.49
109478.49
109478.49
109478.49
109478.49
109478.49
109478.49
109478.49
109478.49
109478.49
109478.49
109478.49
109478.49
109478.49
109478.49
109478.49
109478.49
109478.49
109478.49
109478.49
109478.49
109478.49
109478.49
109478.49
109478.49
109478.49
109478.49
109478.49
109478.49
109478.49
109478.49
109478.49
109478.49
109478.49
109478.49
109478.49
109478.49
109478.49
109478.49
109478.49
109478.49
109478.49
109478.49
109478.49
109478.49
109478.49
109478.49
109478.49
109478.49
109478.49
109478.49
109478.49
109478.49
109478.49
109478.48
109478.48
109478.48
109478.48
109478.48
109478.48
109478.48
109478.49
109478.5
109478.51
109478.51
109478.53
109478.44
109478.47
109478.48
109478.48
109478.48
109478.49
109478.49
109478.49
109478.49
109478.49
109478.49
109478.49
109478.49
109478.49
109478.49
109478.49
109478.49
109478.49
109478.49
109478.49
109478.49
109478.49
109478.49
109478.49
109478.49
109478.49
109478.49
109478.49
109478.49
109478.49
109478.49
109478.49
109478.49
109478.49
109478.49
109478.49
109478.49
109478.49
109478.49
109478.49
109478.49
109478.49
109478.49
109478.49
109478.49
109478.49
109478.49
109478.49
109478.49
109478.49
109478.49
109478.48
109478.48
109478.48
109478.48
109478.48
109478.48
109478.48
109478.48
109478.48
109478.48
109478.48
109478.48
109478.48
109478.48
109478.48
109478.48
109478.48
109478.48
109478.48
109478.48
109478.48
109478.48
109478.48
109478.48
109478.48
109478.48
109478.48
109478.48
109478.48
109478.48
109478.48
109478.48
109478.48
109478.48
109478.48
109478.48
109478.48
109478.48
109478.47
109478.47
109478.47
109478.47
109478.47
109478.47
109478.47
109478.47
109478.47
109478.47
109478.47
109478.47
109478.46
109478.46
109478.46
109478.46
109478.46
109478.46
109478.46
109478.46
109478.46
109478.45
109478.45
109478.45
109478.45
109478.45
109478.45
109478.44
109478.44
109478.44
109478.44
109478.43
109478.43
109478.43
109478.43
109478.42
109478.42
109478.42
109478.42
109478.41
109478.41
109478.41
109478.4
109478.4
109478.4
109478.39
109478.39
109478.38
109478.38
109478.37
109478.37
109478.36
109478.36
109478.35
109478.35
109478.34
109478.34
109478.33
109478.32
109478.32
109478.31
109478.3
109478.29
109478.29
109478.28
109478.27
109478.26
109478.25
109478.24
109478.23
109478.22
109478.21
109478.2
109478.19
109478.18
109478.16
109478.15
109478.14
109478.12
109478.11
109478.1
109478.08
109478.06
109478.05
109478.03
109478.01
109477.99
109477.97
109477.96
109477.93
109477.91
109477.89
109477.87
109477.85
109477.82
109477.8