/*--------------------------------*- C++ -*----------------------------------*\
  =========                 |
  \\      /  F ield         | OpenFOAM: The Open Source CFD Toolbox
   \\    /   O peration     | Website:  https://openfoam.org
    \\  /    A nd           | Version:  7
     \\/     M anipulation  |
\*---------------------------------------------------------------------------*/
FoamFile
{
    version     2.0;
    format      ascii;
    class       volScalarField;
    location    "0.00315";
    object      T;
}
// * * * * * * * * * * * * * * * * * * * * * * * * * * * * * * * * * * * * * //

dimensions      [0 0 0 1 0 0 0];

internalField   nonuniform List<scalar> 
5000
(
285.26402
285.26402
285.26402
285.26402
285.26402
285.26402
285.26402
285.26402
285.26402
285.26402
285.26402
285.26402
285.26402
285.26402
285.26402
285.26402
285.26402
285.26402
285.26402
285.26402
285.26402
285.26402
285.26402
285.26402
285.26402
285.26402
285.26402
285.26402
285.26402
285.26402
285.26402
285.26402
285.26402
285.26402
285.26402
285.26402
285.26402
285.26402
285.26402
285.26402
285.26402
285.26402
285.26402
285.26402
285.26402
285.26402
285.26402
285.26402
285.26402
285.26402
285.26402
285.26402
285.26402
285.26402
285.26402
285.26402
285.26402
285.26402
285.26402
285.26402
285.26402
285.26402
285.26402
285.26402
285.26402
285.26402
285.26402
285.26402
285.26402
285.26402
285.26402
285.26402
285.26402
285.26402
285.26402
285.26402
285.26402
285.26402
285.26402
285.26402
285.26402
285.26402
285.26402
285.26402
285.26402
285.26402
285.26402
285.26402
285.26402
285.26402
285.26402
285.26402
285.26402
285.26402
285.26402
285.26402
285.26402
285.26402
285.26402
285.26402
285.26402
285.26402
285.26401
285.26401
285.26401
285.26401
285.26401
285.26401
285.26401
285.26401
285.26401
285.26401
285.26401
285.26401
285.26401
285.26401
285.26401
285.26401
285.26401
285.26401
285.26401
285.26401
285.26401
285.26401
285.26401
285.26401
285.26401
285.26401
285.26401
285.26401
285.264
285.264
285.264
285.264
285.264
285.264
285.264
285.264
285.264
285.264
285.264
285.264
285.264
285.264
285.264
285.264
285.26401
285.26401
285.26401
285.26401
285.26401
285.26401
285.26401
285.26401
285.26402
285.26402
285.26404
285.26408
285.26416
285.26435
285.26469
285.2652
285.26593
285.26694
285.26832
285.27017
285.27261
285.27577
285.2798
285.28485
285.29104
285.29849
285.30728
285.31745
285.32898
285.34181
285.35581
285.3708
285.38658
285.40289
285.41949
285.43609
285.45245
285.46833
285.48351
285.49784
285.51116
285.5234
285.5345
285.54445
285.55326
285.56098
285.56766
285.5734
285.57826
285.58236
285.58577
285.58858
285.59089
285.59276
285.59426
285.59547
285.59643
285.59718
285.59777
285.59823
285.59859
285.59887
285.59908
285.59924
285.59936
285.59945
285.59952
285.59957
285.59961
285.59964
285.59966
285.59968
285.59969
285.5997
285.59971
285.59971
285.59972
285.59972
285.59973
285.59973
285.59973
285.59973
285.59973
285.59974
285.59974
285.59974
285.59974
285.59974
285.59974
285.59974
285.59975
285.59975
285.59975
285.59975
285.59975
285.59975
285.59975
285.59976
285.59976
285.59976
285.59976
285.59976
285.59976
285.59976
285.59977
285.59977
285.59977
285.59977
285.59977
285.59977
285.59977
285.59977
285.59978
285.59978
285.59978
285.59978
285.59978
285.59978
285.59978
285.59979
285.59979
285.59979
285.59979
285.59979
285.59979
285.59979
285.59979
285.5998
285.5998
285.5998
285.5998
285.5998
285.5998
285.5998
285.5998
285.59981
285.59981
285.59981
285.59981
285.59981
285.59981
285.59981
285.59981
285.59982
285.59982
285.59982
285.59982
285.59982
285.59982
285.59982
285.59982
285.59983
285.59983
285.59983
285.59983
285.59983
285.59983
285.59983
285.59983
285.59983
285.59984
285.59984
285.59984
285.59984
285.59984
285.59984
285.59984
285.59984
285.59984
285.59985
285.59985
285.59985
285.59985
285.59985
285.59985
285.59985
285.59985
285.59985
285.59986
285.59986
285.59986
285.59986
285.59986
285.59986
285.59986
285.59986
285.59986
285.59986
285.59987
285.59987
285.59987
285.59987
285.59987
285.59987
285.59987
285.59987
285.59987
285.59987
285.59987
285.59988
285.59988
285.59988
285.59988
285.59988
285.59988
285.59988
285.59988
285.59988
285.59988
285.59988
285.59988
285.59989
285.59989
285.59989
285.59989
285.59989
285.59989
285.59989
285.59989
285.59989
285.59989
285.59989
285.59989
285.59989
285.5999
285.5999
285.5999
285.5999
285.5999
285.5999
285.5999
285.5999
285.5999
285.5999
285.5999
285.5999
285.5999
285.5999
285.5999
285.59991
285.59991
285.59991
285.59991
285.59991
285.59991
285.59991
285.59991
285.59991
285.59991
285.59991
285.59991
285.59991
285.59991
285.59991
285.59991
285.59991
285.59991
285.59991
285.59991
285.59991
285.59991
285.59992
285.59992
285.59992
285.59992
285.59992
285.59992
285.59992
285.59992
285.59992
285.59992
285.59992
285.59992
285.59992
285.59992
285.59992
285.59992
285.59992
285.59992
285.59992
285.59992
285.59992
285.59992
285.59992
285.59992
285.59992
285.59992
285.59992
285.59992
285.59992
285.59992
285.59992
285.59992
285.59992
285.59992
285.59992
285.59992
285.59992
285.59992
285.59992
285.59992
285.59992
285.59992
285.59992
285.59992
285.59992
285.59992
285.59992
285.59992
285.59992
285.59993
285.59993
285.59993
285.59993
285.59993
285.59993
285.59993
285.59993
285.59993
285.59993
285.59993
285.59993
285.59993
285.59993
285.59993
285.59993
285.59993
285.59993
285.59993
285.59993
285.59993
285.59993
285.59993
285.59993
285.59993
285.59993
285.59993
285.59993
285.59993
285.59993
285.59993
285.59993
285.59993
285.59993
285.59993
285.59993
285.59993
285.59993
285.59993
285.59993
285.59993
285.59993
285.59993
285.59993
285.59993
285.59993
285.59993
285.59993
285.59993
285.59993
285.59993
285.59993
285.59993
285.59993
285.59993
285.59993
285.59993
285.59993
285.59993
285.59994
285.59994
285.59994
285.59994
285.59994
285.59994
285.59994
285.59994
285.59994
285.59994
285.59994
285.59994
285.59994
285.59994
285.59994
285.59994
285.59994
285.59994
285.59994
285.59994
285.59994
285.59994
285.59994
285.59994
285.59994
285.59995
285.59995
285.59995
285.59995
285.59995
285.59995
285.59995
285.59995
285.59995
285.59995
285.59995
285.59995
285.59995
285.59995
285.59995
285.59995
285.59996
285.59996
285.59996
285.59996
285.59996
285.59996
285.59996
285.59996
285.59996
285.59996
285.59996
285.59996
285.59996
285.59996
285.59996
285.59996
285.59996
285.59997
285.59997
285.59997
285.59997
285.59997
285.59997
285.59997
285.59997
285.59997
285.59997
285.59997
285.59998
285.59998
285.59998
285.59998
285.59998
285.59998
285.59998
285.59998
285.59998
285.59998
285.59998
285.59998
285.59998
285.59998
285.59998
285.59999
285.59999
285.59999
285.59999
285.59999
285.59999
285.59999
285.59999
285.59999
285.6
285.6
285.6
285.6
285.6
285.6
285.6
285.6
285.6
285.6
285.6
285.60001
285.60001
285.60001
285.60001
285.60001
285.60001
285.60001
285.60001
285.60001
285.60001
285.60001
285.60001
285.60002
285.60002
285.60002
285.60002
285.60002
285.60002
285.60002
285.60002
285.60002
285.60002
285.60003
285.60003
285.60003
285.60003
285.60003
285.60003
285.60003
285.60003
285.60003
285.60003
285.60003
285.60004
285.60004
285.60004
285.60004
285.60004
285.60004
285.60004
285.60004
285.60004
285.60004
285.60005
285.60005
285.60005
285.60005
285.60005
285.60005
285.60005
285.60005
285.60005
285.60005
285.60005
285.60006
285.60006
285.60006
285.60006
285.60006
285.60006
285.60006
285.60006
285.60006
285.60006
285.60007
285.60007
285.60007
285.60007
285.60007
285.60007
285.60007
285.60007
285.60007
285.60007
285.60008
285.60008
285.60008
285.60008
285.60008
285.60008
285.60008
285.60008
285.60008
285.60008
285.60009
285.60009
285.60009
285.60009
285.60009
285.60009
285.60009
285.60009
285.60009
285.60009
285.6001
285.6001
285.6001
285.6001
285.6001
285.6001
285.6001
285.6001
285.6001
285.6001
285.60011
285.60011
285.60011
285.60011
285.60011
285.60011
285.60011
285.60011
285.60011
285.60012
285.60012
285.60012
285.60012
285.60012
285.60012
285.60012
285.60012
285.60012
285.60012
285.60013
285.60013
285.60013
285.60013
285.60013
285.60013
285.60013
285.60013
285.60013
285.60013
285.60014
285.60014
285.60014
285.60014
285.60014
285.60014
285.60014
285.60014
285.60014
285.60015
285.60015
285.60015
285.60015
285.60015
285.60015
285.60015
285.60015
285.60015
285.60015
285.60016
285.60016
285.60016
285.60016
285.60016
285.60016
285.60016
285.60016
285.60016
285.60017
285.60017
285.60017
285.60017
285.60017
285.60017
285.60017
285.60017
285.60017
285.60017
285.60018
285.60018
285.60018
285.60018
285.60018
285.60018
285.60018
285.60018
285.60018
285.60019
285.60019
285.60019
285.60019
285.60019
285.60019
285.60019
285.60019
285.60019
285.60019
285.6002
285.6002
285.6002
285.6002
285.6002
285.6002
285.6002
285.6002
285.6002
285.60021
285.60021
285.60021
285.60021
285.60021
285.60021
285.60021
285.60021
285.60021
285.60022
285.60022
285.60022
285.60022
285.60022
285.60022
285.60022
285.60022
285.60022
285.60023
285.60023
285.60023
285.60023
285.60023
285.60023
285.60023
285.60023
285.60023
285.60024
285.60024
285.60024
285.60024
285.60024
285.60024
285.60024
285.60024
285.60024
285.60025
285.60025
285.60025
285.60025
285.60025
285.60025
285.60025
285.60025
285.60025
285.60026
285.60026
285.60026
285.60026
285.60026
285.60026
285.60026
285.60026
285.60026
285.60027
285.60027
285.60027
285.60027
285.60027
285.60027
285.60027
285.60027
285.60027
285.60028
285.60028
285.60028
285.60028
285.60028
285.60028
285.60028
285.60028
285.60029
285.60029
285.60029
285.60029
285.60029
285.60029
285.60029
285.60029
285.60029
285.6003
285.6003
285.6003
285.6003
285.6003
285.6003
285.6003
285.6003
285.6003
285.60031
285.60031
285.60031
285.60031
285.60031
285.60031
285.60031
285.60031
285.60032
285.60032
285.60032
285.60032
285.60032
285.60032
285.60032
285.60032
285.60032
285.60033
285.60033
285.60033
285.60033
285.60033
285.60033
285.60033
285.60033
285.60033
285.60034
285.60034
285.60034
285.60034
285.60034
285.60034
285.60034
285.60034
285.60035
285.60035
285.60035
285.60035
285.60035
285.60035
285.60035
285.60035
285.60036
285.60036
285.60036
285.60036
285.60036
285.60036
285.60036
285.60036
285.60037
285.60037
285.60037
285.60037
285.60037
285.60037
285.60037
285.60037
285.60037
285.60038
285.60038
285.60038
285.60038
285.60038
285.60038
285.60038
285.60038
285.60039
285.60039
285.60039
285.60039
285.60039
285.60039
285.60039
285.60039
285.6004
285.6004
285.6004
285.6004
285.6004
285.6004
285.6004
285.6004
285.60041
285.60041
285.60041
285.60041
285.60041
285.60041
285.60041
285.60041
285.60042
285.60042
285.60042
285.60042
285.60042
285.60042
285.60042
285.60042
285.60043
285.60043
285.60043
285.60043
285.60043
285.60043
285.60043
285.60043
285.60044
285.60044
285.60044
285.60044
285.60044
285.60044
285.60044
285.60044
285.60045
285.60045
285.60045
285.60045
285.60045
285.60045
285.60045
285.60045
285.60046
285.60046
285.60046
285.60046
285.60046
285.60046
285.60046
285.60046
285.60047
285.60047
285.60047
285.60047
285.60047
285.60047
285.60047
285.60047
285.60048
285.60048
285.60048
285.60048
285.60048
285.60048
285.60048
285.60049
285.60049
285.60049
285.60049
285.60049
285.60049
285.60049
285.60049
285.6005
285.6005
285.6005
285.6005
285.6005
285.6005
285.6005
285.60051
285.60051
285.60051
285.60051
285.60051
285.60051
285.60051
285.60051
285.60052
285.60052
285.60052
285.60052
285.60052
285.60052
285.60052
285.60052
285.60053
285.60053
285.60053
285.60053
285.60053
285.60053
285.60053
285.60054
285.60054
285.60054
285.60054
285.60054
285.60054
285.60054
285.60055
285.60055
285.60055
285.60055
285.60055
285.60055
285.60055
285.60056
285.60056
285.60056
285.60056
285.60056
285.60056
285.60056
285.60056
285.60057
285.60057
285.60057
285.60057
285.60057
285.60057
285.60057
285.60057
285.60058
285.60058
285.60058
285.60058
285.60058
285.60058
285.60058
285.60059
285.60059
285.60059
285.60059
285.60059
285.60059
285.60059
285.6006
285.6006
285.6006
285.6006
285.6006
285.6006
285.6006
285.60061
285.60061
285.60061
285.60061
285.60061
285.60061
285.60061
285.60062
285.60062
285.60062
285.60062
285.60062
285.60062
285.60062
285.60063
285.60063
285.60063
285.60063
285.60063
285.60063
285.60063
285.60064
285.60064
285.60064
285.60064
285.60064
285.60064
285.60064
285.60065
285.60065
285.60065
285.60065
285.60065
285.60065
285.60065
285.60066
285.60066
285.60066
285.60066
285.60066
285.60066
285.60066
285.60067
285.60067
285.60067
285.60067
285.60067
285.60067
285.60067
285.60068
285.60068
285.60068
285.60068
285.60068
285.60068
285.60068
285.60069
285.60069
285.60069
285.60069
285.60069
285.60069
285.6007
285.6007
285.6007
285.6007
285.6007
285.6007
285.6007
285.60071
285.60071
285.60071
285.60071
285.60071
285.60071
285.60071
285.60072
285.60072
285.60072
285.60072
285.60072
285.60072
285.60073
285.60073
285.60073
285.60073
285.60073
285.60073
285.60073
285.60074
285.60074
285.60074
285.60074
285.60074
285.60074
285.60074
285.60075
285.60075
285.60075
285.60075
285.60075
285.60075
285.60075
285.60076
285.60076
285.60076
285.60076
285.60076
285.60076
285.60077
285.60077
285.60077
285.60077
285.60077
285.60077
285.60078
285.60078
285.60078
285.60078
285.60078
285.60078
285.60079
285.60079
285.60079
285.60079
285.60079
285.60079
285.60079
285.6008
285.6008
285.6008
285.6008
285.6008
285.6008
285.60081
285.60081
285.60081
285.60081
285.60081
285.60081
285.60081
285.60082
285.60082
285.60082
285.60082
285.60082
285.60082
285.60083
285.60083
285.60083
285.60083
285.60083
285.60083
285.60084
285.60084
285.60084
285.60084
285.60084
285.60084
285.60085
285.60085
285.60085
285.60085
285.60085
285.60085
285.60086
285.60086
285.60086
285.60086
285.60086
285.60086
285.60087
285.60087
285.60087
285.60087
285.60087
285.60087
285.60088
285.60088
285.60088
285.60088
285.60088
285.60088
285.60089
285.60089
285.60089
285.60089
285.60089
285.60089
285.6009
285.6009
285.6009
285.6009
285.6009
285.6009
285.60091
285.60091
285.60091
285.60091
285.60091
285.60091
285.60091
285.60092
285.60092
285.60092
285.60092
285.60092
285.60093
285.60093
285.60093
285.60093
285.60093
285.60093
285.60094
285.60094
285.60094
285.60094
285.60094
285.60094
285.60095
285.60095
285.60095
285.60095
285.60095
285.60095
285.60096
285.60096
285.60096
285.60096
285.60096
285.60097
285.60097
285.60097
285.60097
285.60097
285.60097
285.60098
285.60098
285.60098
285.60098
285.60098
285.60099
285.60099
285.60099
285.60099
285.60099
285.60099
285.601
285.601
285.601
285.601
285.601
285.601
285.60101
285.60101
285.60101
285.60101
285.60101
285.60102
285.60102
285.60102
285.60102
285.60102
285.60102
285.60103
285.60103
285.60103
285.60103
285.60103
285.60104
285.60104
285.60104
285.60104
285.60104
285.60104
285.60105
285.60105
285.60105
285.60105
285.60105
285.60106
285.60106
285.60106
285.60106
285.60106
285.60106
285.60107
285.60107
285.60107
285.60107
285.60107
285.60108
285.60108
285.60108
285.60108
285.60108
285.60109
285.60109
285.60109
285.60109
285.60109
285.60109
285.6011
285.6011
285.6011
285.6011
285.6011
285.60111
285.60111
285.60111
285.60111
285.60111
285.60111
285.60112
285.60112
285.60112
285.60112
285.60112
285.60113
285.60113
285.60113
285.60113
285.60113
285.60114
285.60114
285.60114
285.60114
285.60115
285.60115
285.60115
285.60115
285.60115
285.60115
285.60116
285.60116
285.60116
285.60116
285.60116
285.60117
285.60117
285.60117
285.60117
285.60117
285.60118
285.60118
285.60118
285.60118
285.60118
285.60119
285.60119
285.60119
285.60119
285.60119
285.6012
285.6012
285.6012
285.6012
285.6012
285.60121
285.60121
285.60121
285.60121
285.60121
285.60121
285.60122
285.60122
285.60122
285.60122
285.60123
285.60123
285.60123
285.60123
285.60123
285.60124
285.60124
285.60124
285.60124
285.60124
285.60125
285.60125
285.60125
285.60125
285.60125
285.60126
285.60126
285.60126
285.60126
285.60126
285.60127
285.60127
285.60127
285.60127
285.60127
285.60128
285.60128
285.60128
285.60128
285.60129
285.60129
285.60129
285.60129
285.60129
285.6013
285.6013
285.6013
285.6013
285.6013
285.60131
285.60131
285.60131
285.60131
285.60132
285.60132
285.60132
285.60132
285.60132
285.60133
285.60133
285.60133
285.60133
285.60133
285.60134
285.60134
285.60134
285.60134
285.60135
285.60135
285.60135
285.60135
285.60135
285.60136
285.60136
285.60136
285.60136
285.60137
285.60137
285.60137
285.60137
285.60137
285.60138
285.60138
285.60138
285.60138
285.60138
285.60139
285.60139
285.60139
285.60139
285.60139
285.6014
285.6014
285.6014
285.6014
285.60141
285.60141
285.60141
285.60141
285.60142
285.60142
285.60142
285.60142
285.60142
285.60143
285.60143
285.60143
285.60143
285.60144
285.60144
285.60144
285.60144
285.60145
285.60145
285.60145
285.60145
285.60145
285.60146
285.60146
285.60146
285.60146
285.60146
285.60147
285.60147
285.60147
285.60147
285.60148
285.60148
285.60148
285.60148
285.60149
285.60149
285.60149
285.60149
285.6015
285.6015
285.6015
285.6015
285.60151
285.60151
285.60151
285.60151
285.60152
285.60152
285.60152
285.60152
285.60152
285.60153
285.60153
285.60153
285.60153
285.60154
285.60154
285.60154
285.60154
285.60155
285.60155
285.60155
285.60155
285.60156
285.60156
285.60156
285.60156
285.60157
285.60157
285.60157
285.60157
285.60158
285.60158
285.60158
285.60158
285.60158
285.60159
285.60159
285.60159
285.60159
285.6016
285.6016
285.6016
285.6016
285.60161
285.60161
285.60161
285.60161
285.60162
285.60162
285.60162
285.60162
285.60163
285.60163
285.60163
285.60163
285.60164
285.60164
285.60164
285.60164
285.60165
285.60165
285.60165
285.60165
285.60166
285.60166
285.60166
285.60166
285.60167
285.60167
285.60167
285.60167
285.60168
285.60168
285.60168
285.60168
285.60169
285.60169
285.60169
285.60169
285.6017
285.6017
285.6017
285.6017
285.60171
285.60171
285.60171
285.60172
285.60172
285.60172
285.60172
285.60173
285.60173
285.60173
285.60173
285.60174
285.60174
285.60174
285.60174
285.60175
285.60175
285.60175
285.60176
285.60176
285.60176
285.60176
285.60177
285.60177
285.60177
285.60177
285.60178
285.60178
285.60178
285.60178
285.60179
285.60179
285.60179
285.60179
285.6018
285.6018
285.6018
285.6018
285.60181
285.60181
285.60181
285.60182
285.60182
285.60182
285.60182
285.60183
285.60183
285.60183
285.60183
285.60184
285.60184
285.60184
285.60184
285.60185
285.60185
285.60185
285.60185
285.60186
285.60186
285.60186
285.60187
285.60187
285.60187
285.60187
285.60188
285.60188
285.60188
285.60188
285.60189
285.60189
285.60189
285.60189
285.6019
285.6019
285.6019
285.6019
285.60191
285.60191
285.60191
285.60191
285.60192
285.60192
285.60192
285.60192
285.60193
285.60193
285.60193
285.60193
285.60194
285.60194
285.60194
285.60194
285.60195
285.60195
285.60195
285.60195
285.60196
285.60196
285.60196
285.60196
285.60196
285.60197
285.60197
285.60197
285.60197
285.60198
285.60198
285.60198
285.60198
285.60198
285.60199
285.60199
285.60199
285.60199
285.60199
285.602
285.602
285.602
285.602
285.602
285.60201
285.60201
285.60201
285.60201
285.60201
285.60202
285.60202
285.60202
285.60202
285.60202
285.60202
285.60202
285.60203
285.60203
285.60203
285.60203
285.60203
285.60203
285.60203
285.60203
285.60203
285.60204
285.60204
285.60204
285.60204
285.60204
285.60204
285.60204
285.60204
285.60204
285.60204
285.60204
285.60204
285.60204
285.60204
285.60204
285.60204
285.60204
285.60204
285.60204
285.60204
285.60204
285.60204
285.60204
285.60204
285.60204
285.60204
285.60204
285.60204
285.60204
285.60203
285.60203
285.60203
285.60203
285.60203
285.60203
285.60202
285.60202
285.60202
285.60202
285.60201
285.60201
285.60201
285.60201
285.602
285.602
285.602
285.60199
285.60199
285.60199
285.60198
285.60198
285.60198
285.60197
285.60197
285.60196
285.60196
285.60195
285.60195
285.60194
285.60194
285.60193
285.60193
285.60192
285.60191
285.60191
285.6019
285.60189
285.60189
285.60188
285.60187
285.60186
285.60186
285.60185
285.60184
285.60183
285.60182
285.60181
285.6018
285.60179
285.60178
285.60177
285.60176
285.60175
285.60174
285.60173
285.60172
285.60171
285.6017
285.60168
285.60167
285.60166
285.60165
285.60163
285.60162
285.6016
285.60159
285.60158
285.60156
285.60155
285.60153
285.60151
285.6015
285.60148
285.60146
285.60145
285.60143
285.60141
285.60139
285.60137
285.60136
285.60134
285.60132
285.6013
285.60128
285.60125
285.60123
285.60121
285.60119
285.60117
285.60114
285.60112
285.60109
285.60107
285.60105
285.60102
285.601
285.60097
285.60094
285.60092
285.60089
285.60086
285.60083
285.60081
285.60078
285.60075
285.60072
285.60069
285.60065
285.60062
285.60059
285.60056
285.60052
285.60049
285.60046
285.60042
285.60039
285.60035
285.60031
285.60028
285.60024
285.6002
285.60016
285.60012
285.60009
285.60005
285.6
285.59996
285.59992
285.59988
285.59984
285.59979
285.59975
285.59971
285.59966
285.59962
285.59957
285.59952
285.59948
285.59943
285.59938
285.59933
285.59928
285.59923
285.59918
285.59913
285.59908
285.59903
285.59897
285.59892
285.59886
285.59881
285.59876
285.5987
285.59864
285.59859
285.59853
285.59847
285.59841
285.59835
285.59829
285.59823
285.59817
285.59811
285.59805
285.59799
285.59792
285.59786
285.59779
285.59773
285.59766
285.5976
285.59753
285.59746
285.5974
285.59733
285.59726
285.59719
285.59712
285.59705
285.59698
285.5969
285.59683
285.59676
285.59669
285.59661
285.59654
285.59646
285.59639
285.59631
285.59624
285.59616
285.59608
285.59601
285.59593
285.59585
285.59577
285.59569
285.59561
285.59553
285.59545
285.59537
285.59529
285.5952
285.59512
285.59504
285.59495
285.59487
285.59479
285.5947
285.59462
285.59453
285.59445
285.59436
285.59427
285.59419
285.5941
285.59401
285.59393
285.59384
285.59375
285.59366
285.59357
285.59348
285.59339
285.5933
285.59321
285.59312
285.59303
285.59294
285.59285
285.59276
285.59267
285.59258
285.59249
285.5924
285.59231
285.59221
285.59212
285.59203
285.59194
285.59184
285.59175
285.59166
285.59157
285.59147
285.59138
285.59129
285.5912
285.5911
285.59101
285.59092
285.59082
285.59073
285.59064
285.59055
285.59045
285.59036
285.59027
285.59018
285.59008
285.58999
285.5899
285.58981
285.58972
285.58962
285.58953
285.58944
285.58935
285.58926
285.58917
285.58908
285.58898
285.58889
285.5888
285.58871
285.58862
285.58853
285.58845
285.58836
285.58827
285.58818
285.58809
285.588
285.58792
285.58783
285.58774
285.58766
285.58757
285.58748
285.5874
285.58731
285.58723
285.58715
285.58706
285.58698
285.58689
285.58681
285.58673
285.58665
285.58657
285.58649
285.58641
285.58633
285.58625
285.58617
285.58609
285.58601
285.58593
285.58585
285.58578
285.5857
285.58563
285.58555
285.58548
285.5854
285.58533
285.58526
285.58518
285.58511
285.58504
285.58497
285.5849
285.58483
285.58476
285.58469
285.58463
285.58456
285.58449
285.58443
285.58436
285.58429
285.58423
285.58417
285.5841
285.58404
285.58398
285.58392
285.58385
285.58379
285.58373
285.58367
285.58361
285.58356
285.5835
285.58344
285.58339
285.58333
285.58328
285.58322
285.58317
285.58311
285.58306
285.58301
285.58296
285.58291
285.58286
285.58281
285.58276
285.58271
285.58266
285.58262
285.58257
285.58253
285.58248
285.58244
285.58239
285.58235
285.58231
285.58226
285.58222
285.58218
285.58214
285.5821
285.58206
285.58202
285.58198
285.58194
285.58191
285.58187
285.58183
285.5818
285.58176
285.58173
285.58169
285.58166
285.58163
285.58159
285.58156
285.58153
285.5815
285.58147
285.58144
285.58141
285.58139
285.58136
285.58133
285.5813
285.58128
285.58125
285.58123
285.5812
285.58118
285.58115
285.58113
285.5811
285.58108
285.58106
285.58104
285.58102
285.58099
285.58097
285.58095
285.58093
285.58091
285.58089
285.58088
285.58086
285.58084
285.58082
285.58081
285.58079
285.58077
285.58076
285.58074
285.58073
285.58071
285.5807
285.58069
285.58067
285.58066
285.58065
285.58064
285.58063
285.58061
285.5806
285.58059
285.58058
285.58057
285.58056
285.58055
285.58054
285.58053
285.58052
285.58052
285.58051
285.5805
285.58049
285.58049
285.58048
285.58047
285.58047
285.58046
285.58045
285.58045
285.58044
285.58044
285.58043
285.58043
285.58042
285.58042
285.58042
285.58041
285.58041
285.58041
285.5804
285.5804
285.5804
285.5804
285.58039
285.58039
285.58039
285.58039
285.58039
285.58039
285.58039
285.58039
285.58039
285.58039
285.58039
285.58039
285.58039
285.58039
285.58039
285.58039
285.58039
285.58039
285.58039
285.5804
285.5804
285.5804
285.5804
285.5804
285.5804
285.58041
285.58041
285.58041
285.58041
285.58042
285.58042
285.58042
285.58042
285.58043
285.58043
285.58043
285.58044
285.58044
285.58044
285.58045
285.58045
285.58045
285.58046
285.58046
285.58047
285.58047
285.58048
285.58048
285.58049
285.58049
285.58049
285.5805
285.5805
285.58051
285.58051
285.58052
285.58052
285.58053
285.58054
285.58054
285.58055
285.58055
285.58056
285.58056
285.58057
285.58057
285.58058
285.58058
285.58059
285.5806
285.5806
285.58061
285.58061
285.58062
285.58063
285.58063
285.58064
285.58064
285.58065
285.58066
285.58066
285.58067
285.58067
285.58068
285.58068
285.58069
285.58069
285.5807
285.5807
285.58071
285.58071
285.58072
285.58072
285.58073
285.58073
285.58074
285.58075
285.58075
285.58076
285.58076
285.58077
285.58077
285.58078
285.58078
285.58079
285.58079
285.5808
285.5808
285.58081
285.58081
285.58082
285.58082
285.58082
285.58083
285.58083
285.58084
285.58084
285.58084
285.58085
285.58085
285.58085
285.58086
285.58086
285.58086
285.58086
285.58087
285.58087
285.58087
285.58087
285.58087
285.58087
285.58088
285.58088
285.58088
285.58088
285.58088
285.58088
285.58088
285.58088
285.58088
285.58088
285.58088
285.58088
285.58088
285.58088
285.58088
285.58087
285.58087
285.58087
285.58087
285.58086
285.58086
285.58086
285.58085
285.58085
285.58084
285.58084
285.58083
285.58083
285.58082
285.58082
285.58081
285.58081
285.5808
285.58079
285.58078
285.58078
285.58077
285.58076
285.58075
285.58074
285.58073
285.58072
285.58071
285.5807
285.58069
285.58068
285.58067
285.58065
285.58064
285.58063
285.58061
285.5806
285.58058
285.58057
285.58055
285.58054
285.58052
285.5805
285.58048
285.58046
285.58044
285.58042
285.5804
285.58038
285.58036
285.58034
285.58032
285.58029
285.58027
285.58025
285.58022
285.5802
285.58017
285.58014
285.58012
285.58009
285.58006
285.58003
285.58
285.57997
285.57994
285.57991
285.57987
285.57984
285.57981
285.57977
285.57973
285.5797
285.57966
285.57962
285.57958
285.57954
285.5795
285.57946
285.57942
285.57938
285.57933
285.57929
285.57924
285.5792
285.57915
285.5791
285.57905
285.579
285.57895
285.5789
285.57884
285.57879
285.57873
285.57868
285.57862
285.57856
285.5785
285.57845
285.57838
285.57832
285.57826
285.5782
285.57813
285.57807
285.578
285.57793
285.57786
285.57779
285.57772
285.57765
285.57757
285.5775
285.57742
285.57735
285.57727
285.57719
285.57711
285.57703
285.57694
285.57686
285.57677
285.57669
285.5766
285.57651
285.57642
285.57633
285.57624
285.57614
285.57605
285.57595
285.57585
285.57575
285.57565
285.57555
285.57545
285.57534
285.57524
285.57513
285.57502
285.57491
285.5748
285.57469
285.57458
285.57446
285.57434
285.57423
285.57411
285.57398
285.57386
285.57374
285.57361
285.57348
285.57336
285.57323
285.57309
285.57296
285.57283
285.57269
285.57255
285.57242
285.57228
285.57214
285.57199
285.57185
285.5717
285.57156
285.57141
285.57126
285.57111
285.57095
285.5708
285.57064
285.57049
285.57033
285.57016
285.57
285.56984
285.56967
285.56951
285.56934
285.56917
285.569
285.56882
285.56865
285.56847
285.56829
285.56811
285.56793
285.56775
285.56757
285.56738
285.56719
285.567
285.56681
285.56662
285.56643
285.56623
285.56604
285.56584
285.56564
285.56544
285.56524
285.56503
285.56483
285.56462
285.56441
285.5642
285.56399
285.56378
285.56357
285.56335
285.56314
285.56292
285.5627
285.56248
285.56225
285.56203
285.5618
285.56158
285.56135
285.56112
285.56089
285.56066
285.56042
285.56019
285.55995
285.55972
285.55948
285.55924
285.559
285.55875
285.55851
285.55827
285.55802
285.55777
285.55752
285.55727
285.55702
285.55677
285.55652
285.55626
285.55601
285.55575
285.5555
285.55524
285.55498
285.55472
285.55447
285.55421
285.55395
285.5537
285.55344
285.55318
285.55293
285.55268
285.55242
285.55217
285.55192
285.55167
285.55142
285.55118
285.55094
285.55069
285.55045
285.55022
285.54998
285.54975
285.54952
285.54929
285.54906
285.54884
285.54862
285.5484
285.54819
285.54798
285.54777
285.54757
285.54737
285.54717
285.54698
285.54679
285.5466
285.54642
285.54625
285.54608
285.54591
285.54575
285.5456
285.54545
285.5453
285.54516
285.54502
285.54489
285.54476
285.54463
285.54451
285.54438
285.54426
285.54414
285.54402
285.54389
285.54376
285.54362
285.54347
285.5433
285.54311
285.5429
285.54266
285.5424
285.54211
285.54179
285.54144
285.54104
285.54061
285.54015
285.53967
285.53917
285.53865
285.53811
285.53756
285.53708
285.53677
285.53666
285.53668
285.53684
285.53745
285.53928
285.54415
285.5565
285.58623
285.65779
285.7886
285.96764
286.1997
286.48869
286.83693
287.24493
287.71141
288.23324
288.80559
289.42217
290.07539
290.75679
291.45727
292.1675
292.87826
293.58069
294.26665
294.92885
295.56107
296.15826
296.71654
297.23325
297.70686
298.13686
298.52371
298.86861
299.17342
299.4405
299.67256
299.87251
300.04339
300.18824
300.31003
300.41161
300.49564
300.56458
300.62065
300.66586
300.70196
300.7305
300.75281
300.77004
300.78315
300.79298
300.80018
300.8053
300.80876
300.81093
300.81212
300.81264
300.81276
300.8127
300.8124
300.81154
300.81035
300.80912
300.80787
300.80662
300.8054
300.80419
300.80302
300.80189
300.80078
300.79971
300.79868
300.79767
300.79669
300.79573
300.7948
300.79389
300.79301
300.79214
300.79129
300.79045
300.78963
300.78882
300.78803
300.78725
300.78648
300.78572
300.78496
300.78422
300.78349
300.78276
300.78205
300.78134
300.78063
300.77994
300.77924
300.77856
300.77788
300.7772
300.77653
300.77587
300.7752
300.77455
300.77389
300.77324
300.77259
300.77195
300.77131
300.77067
300.77003
300.7694
300.76877
300.76814
300.76751
300.76689
300.76627
300.76565
300.76504
300.76443
300.76382
300.76321
300.76261
300.76201
300.76141
300.76081
300.76022
300.75963
300.75905
300.75846
300.75788
300.75731
300.75674
300.75617
300.7556
300.75504
300.75448
300.75392