/*--------------------------------*- C++ -*----------------------------------*\
| =========                 |                                                 |
| \\      /  F ield         | OpenFOAM: The Open Source CFD Toolbox           |
|  \\    /   O peration     | Version:  4.x                                   |
|   \\  /    A nd           | Web:      www.OpenFOAM.org                      |
|    \\/     M anipulation  |                                                 |
\*---------------------------------------------------------------------------*/
FoamFile
{
    version     2.0;
    format      ascii;
    class       surfaceScalarField;
    location    "0.1";
    object      phi;
}
// * * * * * * * * * * * * * * * * * * * * * * * * * * * * * * * * * * * * * //

dimensions      [1 0 -1 0 0 0 0];

internalField   nonuniform List<scalar> 
17723
(
-6.813479997e-08
3.77583756e-08
2.001099916e-07
7.991878847e-08
-5.650855218e-08
3.977165125e-08
2.247746491e-07
-4.417275763e-08
4.20145728e-08
2.481146782e-07
-3.062229654e-08
4.417294939e-08
2.689135243e-07
-1.57284979e-08
4.591385592e-08
2.84993289e-07
2.781406351e-13
4.693627953e-08
2.938859152e-07
1.57291162e-08
4.693640373e-08
2.938842455e-07
3.062303539e-08
4.591495787e-08
2.849912839e-07
4.417373822e-08
4.417404295e-08
2.689091882e-07
5.651043144e-08
4.201434099e-08
2.481117165e-07
6.81367745e-08
3.977106999e-08
2.247700036e-07
3.77608339e-08
2.001116442e-07
7.992197709e-08
-6.599922428e-08
4.980302913e-08
1.882816093e-07
7.803578782e-08
-5.42873621e-08
5.201238672e-08
2.100403779e-07
-4.201335006e-08
5.428504095e-08
2.301704032e-07
-2.888062019e-08
5.650566133e-08
2.481135386e-07
-1.474756199e-08
5.826467108e-08
2.618486428e-07
6.481727151e-13
5.929056804e-08
2.694484146e-07
1.474920056e-08
5.929052531e-08
2.694477471e-07
2.888263289e-08
5.826691875e-08
2.618499044e-07
4.201473098e-08
5.651090726e-08
2.481122726e-07
5.428734029e-08
5.428945265e-08
2.301698616e-07
6.59993774e-08
5.201176697e-08
2.100384874e-07
4.980319114e-08
1.882844398e-07
7.804089999e-08
-6.38029075e-08
6.136614027e-08
1.755760508e-07
7.618261846e-08
-5.200937904e-08
6.380585858e-08
1.937696618e-07
-3.977034803e-08
6.600376015e-08
2.100383173e-07
-2.706820521e-08
6.813908058e-08
2.247718552e-07
-1.373625249e-08
6.982824876e-08
2.359571129e-07
4.384009252e-13
7.076993597e-08
2.421454471e-07
1.373712439e-08
7.077110825e-08
2.421449058e-07
2.706871935e-08
6.983213226e-08
2.359590064e-07
3.977089375e-08
6.814269129e-08
2.247726272e-07
5.200998316e-08
6.600429125e-08
2.100402295e-07
6.380363383e-08
6.380540537e-08
1.937693903e-07
6.136780937e-08
1.755767348e-07
7.618732159e-08
-6.136745565e-08
1.601729006e-07
7.402700731e-08
7.402553478e-08
-4.980480184e-08
1.755789324e-07
7.618748704e-08
-3.775852298e-08
1.882801164e-07
7.80447067e-08
-2.55150248e-08
2.001050246e-07
7.992804824e-08
-1.288755061e-08
2.087909238e-07
8.1628075e-08
5.259237126e-13
2.136060638e-07
8.249840716e-08
1.288963869e-08
2.136065927e-07
8.249966922e-08
2.551874805e-08
2.087957935e-07
8.16314975e-08
3.776208462e-08
2.00111395e-07
7.993196667e-08
4.980453608e-08
1.882857226e-07
7.804808974e-08
6.136791827e-08
1.75578603e-07
7.618961734e-08
1.601737883e-07
7.402802147e-08
7.403025704e-08
-6.544793637e-08
3.589475879e-08
1.796512465e-07
7.444885452e-08
-5.493407228e-08
3.827443625e-08
2.02187472e-07
-4.311113129e-08
4.078466317e-08
2.236232729e-07
-2.988534213e-08
4.311108948e-08
2.424627069e-07
-1.532840372e-08
4.491023888e-08
2.568136674e-07
-7.093473691e-13
4.595755344e-08
2.646909948e-07
1.532697638e-08
4.595739816e-08
2.64689155e-07
2.988363227e-08
4.491100513e-08
2.56811002e-07
4.310903581e-08
4.311122751e-08
2.4245774e-07
5.493172782e-08
4.078319142e-08
2.236206361e-07
6.544632744e-08
3.827268876e-08
2.021835263e-07
3.589412459e-08
1.796499866e-07
7.445131585e-08
-6.268334663e-08
4.698959605e-08
1.684243483e-07
7.144579131e-08
-5.235484646e-08
4.971672947e-08
1.882696128e-07
-4.078351643e-08
5.235469361e-08
2.070289646e-07
-2.81142442e-08
5.493354595e-08
2.2362164e-07
-1.436998029e-08
5.687968027e-08
2.3613478e-07
-7.632183125e-13
5.80257473e-08
2.43010747e-07
1.436877732e-08
5.80257408e-08
2.430095469e-07
2.811333831e-08
5.688159202e-08
2.361346053e-07
4.078191928e-08
5.493520751e-08
2.23619655e-07
5.235168105e-08
5.235401702e-08
2.070292985e-07
6.268145006e-08
4.97145482e-08
1.882668602e-07
4.698886592e-08
1.684220798e-07
7.144906028e-08
-6.014958648e-08
5.698051371e-08
1.561982172e-07
6.953656691e-08
-4.971594792e-08
6.015069123e-08
1.729021262e-07
-3.827367375e-08
6.268448594e-08
1.882661913e-07
-2.620136399e-08
6.544980232e-08
2.021831583e-07
-1.33304548e-08
6.735074479e-08
2.126150974e-07
-1.470705119e-12
6.85091846e-08
2.183329804e-07
1.332740554e-08
6.851000443e-08
2.183317004e-07
2.619881836e-08
6.735334027e-08
2.126158959e-07
3.827163723e-08
6.545147254e-08
2.021835966e-07
4.971361247e-08
6.268428185e-08
1.882680533e-07
6.014901457e-08
6.014983362e-08
1.728987709e-07
5.698109428e-08
1.561940975e-07
6.953947466e-08
-5.698211757e-08
1.41699111e-07
6.621871108e-08
6.621774206e-08
-4.699085629e-08
1.561995725e-07
6.953882338e-08
-3.589535195e-08
1.684221256e-07
7.144699028e-08
-2.443790581e-08
1.796472172e-07
7.445017084e-08
-1.237221025e-08
1.87854201e-07
7.622181924e-08
-1.053480438e-12
1.922888104e-07
7.745530684e-08
1.23703431e-08
1.922887502e-07
7.745649403e-08
2.443715122e-08
1.878571928e-07
7.622524854e-08
3.589523964e-08
1.796506721e-07
7.44541687e-08
4.699031055e-08
1.684247332e-07
7.145028311e-08
5.698223684e-08
1.561963125e-07
6.954027602e-08
1.416971959e-07
6.621879508e-08
6.622121418e-08
-6.310973143e-08
3.520462509e-08
1.617780019e-07
7.002947545e-08
-5.382558996e-08
3.696626102e-08
1.814932509e-07
-4.287582584e-08
3.9948993e-08
2.005451957e-07
-3.000089045e-08
4.287591189e-08
2.167139905e-07
-1.545024303e-08
4.500861286e-08
2.288240129e-07
-5.647016854e-13
4.615461754e-08
2.354778813e-07
1.544864257e-08
4.615403553e-08
2.354764921e-07
2.999828224e-08
4.500798654e-08
2.288219716e-07
4.28723168e-08
4.287390562e-08
2.167095139e-07
5.382207417e-08
3.994678783e-08
2.005423603e-07
6.310666389e-08
3.696366057e-08
1.814895752e-07
3.520148908e-08
1.617749903e-07
7.002902025e-08
-5.978925487e-08
4.529520121e-08
1.507178892e-07
6.740528137e-08
-5.054072655e-08
4.738588244e-08
1.686016297e-07
-3.994757187e-08
5.053884765e-08
1.858460243e-07
-2.781761931e-08
5.382349271e-08
2.005440212e-07
-1.428573775e-08
5.620917173e-08
2.114021723e-07
-1.551381042e-13
5.753210748e-08
2.17347456e-07
1.428506391e-08
5.753163107e-08
2.173464959e-07
2.781647252e-08
5.620925503e-08
2.114017617e-07
3.994582748e-08
5.382269624e-08
2.00541446e-07
5.053866735e-08
5.0538126e-08
1.858451561e-07
5.978675256e-08
4.73838969e-08
1.685986058e-07
4.529179076e-08
1.507142106e-07
6.740436117e-08
-5.674211763e-08
5.391803427e-08
1.390570473e-07
6.52605796e-08
-4.738650537e-08
5.67388827e-08
1.541936463e-07
-3.696528886e-08
5.978500052e-08
1.685988972e-07
-2.55553234e-08
6.310660593e-08
1.814900654e-07
-1.307805085e-08
6.555987842e-08
1.907871006e-07
-1.309273163e-12
6.684886648e-08
1.959394821e-07
1.307482584e-08
6.684877514e-08
1.959384318e-07
2.555239053e-08
6.55605543e-08
1.907870867e-07
3.696326919e-08
6.310662608e-08
1.814888432e-07
4.738546831e-08
5.978501133e-08
1.685991041e-07
5.674038069e-08
5.673741909e-08
1.541905209e-07
5.39156211e-08
1.390524726e-07
6.525833604e-08
-5.392106114e-08
1.245320743e-07
6.250401428e-08
6.250221619e-08
-4.529623883e-08
1.390578349e-07
6.525589244e-08
-3.520478007e-08
1.507161716e-07
6.739960676e-08
-2.425173942e-08
1.617757729e-07
7.002510803e-08
-1.236176714e-08
1.690262666e-07
7.249790796e-08
-1.446607099e-12
1.731968706e-07
7.358053609e-08
1.235864089e-08
1.731964871e-07
7.358103653e-08
2.424935279e-08
1.690272622e-07
7.249988531e-08
3.520324612e-08
1.61776163e-07
7.002730704e-08
4.529519293e-08
1.507165041e-07
6.740141404e-08
5.391946737e-08
1.390546442e-07
6.525499769e-08
1.245294734e-07
6.250071809e-08
6.250230808e-08
-6.17868053e-08
3.291792721e-08
1.438552471e-07
6.969521945e-08
-5.218640768e-08
3.51634539e-08
1.61130549e-07
-4.123986356e-08
3.852536669e-08
1.778014079e-07
-2.860252367e-08
4.123859353e-08
1.914399729e-07
-1.469564856e-08
4.322884563e-08
2.017661739e-07
-8.923587409e-13
4.449011962e-08
2.073158727e-07
1.46934069e-08
4.448943641e-08
2.073149579e-07
2.859950971e-08
4.322792201e-08
2.017649093e-07
4.123566677e-08
4.123604725e-08
1.914371835e-07
5.218181159e-08
3.852288496e-08
1.777997158e-07
6.178232476e-08
3.516032588e-08
1.611280142e-07
3.291336759e-08
1.438526253e-07
6.969193216e-08
-5.739086002e-08
4.242799908e-08
1.343490075e-07
6.424979877e-08
-4.882517677e-08
4.519173756e-08
1.500077858e-07
-3.852539775e-08
4.882302192e-08
1.652486511e-07
-2.672718956e-08
5.218359809e-08
1.778007558e-07
-1.373424548e-08
5.440259994e-08
1.872353229e-07
-6.622669205e-13
5.58001198e-08
1.923036993e-07
1.373252208e-08
5.579952157e-08
1.923030532e-07
2.67250032e-08
5.44019687e-08
1.872350604e-07
3.852189923e-08
5.218139378e-08
1.777990954e-07
4.882100659e-08
4.882095742e-08
1.652479775e-07
5.738582741e-08
4.518866436e-08
1.500054807e-07
4.24225867e-08
1.34345667e-07
6.424515454e-08
-5.387564712e-08
4.925494218e-08
1.231696594e-07
6.293623723e-08
-4.519276329e-08
5.3872859e-08
1.368297913e-07
-3.516347465e-08
5.738651805e-08
1.500062086e-07
-2.440128039e-08
6.178280971e-08
1.61128655e-07
-1.248571375e-08
6.39433514e-08
1.693307401e-07
-1.662627732e-12
6.552387788e-08
1.737316498e-07
1.248192191e-08
6.552341062e-08
1.737309679e-07
2.439775238e-08
6.394254548e-08
1.693306844e-07
3.515951994e-08
6.178096754e-08
1.611275195e-07
4.518924207e-08
5.738463048e-08
1.500058032e-07
5.387093375e-08
5.386967883e-08
1.36827939e-07
4.924964e-08
1.231661424e-07
6.293031158e-08
-4.925829608e-08
1.102238151e-07
5.64130867e-08
5.640851781e-08
-4.242949905e-08
1.231694266e-07
6.293261304e-08
-3.291876394e-08
1.34347935e-07
6.424418922e-08
-2.290460744e-08
1.438539065e-07
6.969061558e-08
-1.161412636e-08
1.504855164e-07
7.119366731e-08
-1.695077546e-12
1.541378619e-07
7.297049595e-08
1.161036309e-08
1.54137572e-07
7.297035319e-08
2.290078067e-08
1.504858799e-07
7.119358402e-08
3.291463544e-08
1.438533749e-07
6.968994455e-08
4.242540818e-08
1.343473275e-07
6.424313256e-08
4.925320855e-08
1.231670474e-07
6.292962136e-08
1.102206827e-07
5.640401728e-08
5.640777742e-08
-6.391358819e-08
3.59501072e-08
1.27943024e-07
6.936077285e-08
-5.709412705e-08
3.820716665e-08
1.4312773e-07
-4.623634322e-08
4.204615405e-08
1.546517727e-07
-3.279209677e-08
4.623532655e-08
1.64551749e-07
-1.705801225e-08
4.944210525e-08
1.716867758e-07
-7.138778499e-13
5.098437214e-08
1.752888583e-07
1.705616487e-08
5.098396196e-08
1.752883607e-07
3.27897637e-08
4.944159296e-08
1.716861064e-07
4.623328532e-08
4.623358389e-08
1.645502361e-07
5.709107182e-08
4.204448576e-08
1.546507772e-07
6.391076569e-08
3.820512833e-08
1.431255673e-07
3.59464958e-08
1.279412211e-07
6.935823256e-08
-5.873832678e-08
4.485814759e-08
1.198102833e-07
6.436908497e-08
-5.220698769e-08
4.77141836e-08
1.339695017e-07
-4.20459948e-08
5.220573806e-08
1.449281123e-07
-2.975357862e-08
5.709214839e-08
1.546514763e-07
-1.542253515e-08
6.072005104e-08
1.616262193e-07
-2.977594667e-13
6.260221787e-08
1.652634881e-07
1.54215391e-08
6.260191095e-08
1.652631431e-07
2.975226387e-08
6.071969827e-08
1.616261004e-07
4.204372519e-08
5.709055893e-08
1.546505555e-07
5.220446323e-08
5.220418874e-08
1.449274924e-07
5.87356214e-08
4.771247602e-08
1.33966972e-07
4.485391385e-08
1.198082942e-07
6.436556326e-08
-5.408710135e-08
4.9846831e-08
1.115771555e-07
6.069101041e-08
-4.771511628e-08
5.408371275e-08
1.240883628e-07
-3.820712152e-08
5.873495455e-08
1.339690565e-07
-2.702358476e-08
6.391021872e-08
1.431270284e-07
-1.400174627e-08
6.757247171e-08
1.494564137e-07
-1.059077731e-12
6.958033695e-08
1.527527861e-07
1.399937567e-08
6.958016319e-08
1.527522737e-07
2.702158101e-08
6.757204618e-08
1.49456115e-07
3.820481253e-08
6.390886884e-08
1.431259634e-07
4.77132413e-08
5.873388244e-08
1.339677166e-07
5.40844991e-08
5.408228042e-08
1.240869439e-07
4.98431678e-08
1.115749606e-07
6.06864835e-08
-4.984881136e-08
9.790615015e-08
5.600784477e-08
5.600554589e-08
-4.485849528e-08
1.115766975e-07
6.068622012e-08
-3.595048388e-08
1.198099218e-07
6.436505246e-08
-2.54856775e-08
1.279424423e-07
6.935692154e-08
-1.317825141e-08
1.32724435e-07
7.302611931e-08
-1.385129403e-12
1.35454528e-07
7.508680108e-08
1.317526609e-08
1.354543445e-07
7.508679219e-08
2.548283343e-08
1.327246156e-07
7.302578652e-08
3.594737334e-08
1.279418297e-07
6.935589747e-08
4.4855491e-08
1.198091951e-07
6.436395445e-08
4.98453903e-08
1.115753146e-07
6.068419829e-08
9.790460687e-08
5.600212728e-08
5.60025947e-08
-7.233991711e-08
3.640523312e-08
1.07599319e-07
8.170551988e-08
-5.988019951e-08
3.909472413e-08
1.187178177e-07
-4.643229504e-08
4.353364028e-08
1.277322806e-07
-3.169150973e-08
4.643185192e-08
1.350704362e-07
-1.611231401e-08
4.793804459e-08
1.406076412e-07
-2.179090727e-13
4.879496591e-08
1.437783548e-07
1.611163782e-08
4.879473947e-08
1.437780339e-07
3.169080081e-08
4.793799477e-08
1.406070827e-07
4.64314762e-08
4.64311501e-08
1.350693419e-07
5.98796093e-08
4.353312968e-08
1.277313494e-07
7.233825766e-08
3.909395908e-08
1.187170935e-07
3.640371082e-08
1.075984198e-07
8.170375463e-08
-6.681511357e-08
4.767761332e-08
1.010004126e-07
7.435266086e-08
-5.598084935e-08
5.093154939e-08
1.112984517e-07
-4.35334809e-08
5.598030169e-08
1.200340866e-07
-3.006144718e-08
5.987914795e-08
1.277321019e-07
-1.541892794e-08
6.195769525e-08
1.329639716e-07
2.124968981e-13
6.306687594e-08
1.355723519e-07
1.541904073e-08
6.306679201e-08
1.355721738e-07
3.006138613e-08
6.195789132e-08
1.329637662e-07
4.35331671e-08
5.987850511e-08
1.27731341e-07
5.598056775e-08
5.59798254e-08
1.200333465e-07
6.681313487e-08
5.09304653e-08
1.112978749e-07
4.767552558e-08
1.00999515e-07
7.43500753e-08
-6.166352221e-08
5.429899394e-08
9.35427586e-08
7.307659595e-08
-5.093223105e-08
6.166126581e-08
1.026274026e-07
-3.909480187e-08
6.681364096e-08
1.112983077e-07
-2.714420146e-08
7.233800823e-08
1.187175352e-07
-1.383388333e-08
7.443326182e-08
1.23670465e-07
-5.196416109e-14
7.584251157e-08
1.261432569e-07
1.383351565e-08
7.584228951e-08
1.261431621e-07
2.714380546e-08
7.443314207e-08
1.236705282e-07
3.909419212e-08
7.233689505e-08
1.187171469e-07
5.093144923e-08
6.681227635e-08
1.112979946e-07
6.166176504e-08
6.166006839e-08
1.026270358e-07
5.429648474e-08
9.354207138e-08
7.307370283e-08
-5.430067362e-08
8.430867727e-08
6.109976706e-08
6.109743188e-08
-4.76783867e-08
9.354253679e-08
7.307319702e-08
-3.640591324e-08
1.010003343e-07
7.435080095e-08
-2.542737826e-08
1.075990573e-07
8.17028526e-08
-1.274189707e-08
1.11504295e-07
8.296788756e-08
-5.126896818e-13
1.136503642e-07
8.49052629e-08
1.274069194e-08
1.136502804e-07
8.490514899e-08
2.54262618e-08
1.115043497e-07
8.296783148e-08
3.640437207e-08
1.075986149e-07
8.170199262e-08
4.767666337e-08
1.009998388e-07
7.434935803e-08
5.429808761e-08
9.354212538e-08
7.307186592e-08
8.430804068e-08
6.109502071e-08
6.109614857e-08
7.422112901e-08
-3.961489377e-08
1.323204176e-07
-8.530520398e-08
6.170992094e-08
-4.283490526e-08
1.459701634e-07
4.683185892e-08
-4.755991994e-08
1.582543903e-07
3.079003654e-08
-4.683180414e-08
1.671542989e-07
1.491728103e-08
-4.490069127e-08
1.728855893e-07
1.523249286e-13
-4.376723741e-08
1.752675958e-07
-1.491707316e-08
-4.376733284e-08
1.752674126e-07
-3.078977604e-08
-4.490091566e-08
1.728851934e-07
-4.683174094e-08
-4.683228016e-08
1.671535516e-07
-6.17100571e-08
-4.756035982e-08
1.582538909e-07
-7.422150457e-08
-4.283542945e-08
1.459700388e-07
-3.961596544e-08
1.323197972e-07
-8.530539898e-08
7.421423022e-08
-5.200193053e-08
1.233573691e-07
-8.418411802e-08
6.215352764e-08
-5.605625715e-08
1.365805371e-07
4.756004138e-08
-6.215410471e-08
1.492217854e-07
3.19166559e-08
-6.171048679e-08
1.582541484e-07
1.606707824e-08
-6.065231472e-08
1.645651171e-07
5.381666622e-13
-5.979828438e-08
1.676698752e-07
-1.606620557e-08
-5.979833637e-08
1.676698616e-07
-3.191590922e-08
-6.06526407e-08
1.645651452e-07
-4.755973111e-08
-6.171101254e-08
1.582538568e-07
-6.215385209e-08
-6.215484096e-08
1.492219228e-07
-7.42149931e-08
-5.605702973e-08
1.365805963e-07
-5.200334486e-08
1.233567056e-07
-8.418482517e-08
6.766213179e-08
-6.480526974e-08
1.132967113e-07
-7.461272074e-08
5.605488238e-08
-6.766449203e-08
1.258429103e-07
4.283435313e-08
-7.421561739e-08
1.365803668e-07
2.809429386e-08
-7.422277822e-08
1.459698648e-07
1.397705297e-08
-7.507210275e-08
1.52207441e-07
5.988753959e-13
-7.502833746e-08
1.553497095e-07
-1.397607036e-08
-7.502834963e-08
1.553498042e-07
-2.80935668e-08
-7.507242719e-08
1.5220778e-07
-4.28343529e-08
-7.422308653e-08
1.45969985e-07
-5.60555365e-08
-7.421624725e-08
1.365805776e-07
-6.766328206e-08
-6.766507771e-08
1.258428273e-07
-6.48065454e-08
1.13295998e-07
-7.461400574e-08
6.480359477e-08
1.006146517e-07
-7.295661479e-08
-7.295820687e-08
5.200053378e-08
1.132967243e-07
-7.461560042e-08
3.961384256e-08
1.23357043e-07
-8.418562341e-08
2.597750051e-08
1.32320094e-07
-8.530749367e-08
1.305555788e-08
1.380502167e-07
-8.869613953e-08
-2.103329073e-13
1.410691171e-07
-8.939137719e-08
-1.30560982e-08
1.410691063e-07
-8.939131299e-08
-2.597809701e-08
1.380503234e-07
-8.869642166e-08
-3.961488816e-08
1.323198128e-07
-8.530750437e-08
-5.200203932e-08
1.233567515e-07
-8.418600418e-08
-6.480543692e-08
1.132961746e-07
-7.461572268e-08
1.006135845e-07
-7.295890999e-08
-7.295860596e-08
1.132042737e-07
-6.80739853e-08
1.602531976e-07
-1.19744555e-07
1.012896975e-07
-7.048080398e-08
1.787574109e-07
8.412742314e-08
-7.516565843e-08
1.985274322e-07
5.99038248e-08
-8.412823437e-08
2.156022272e-07
3.115137631e-08
-8.993904136e-08
2.265188122e-07
3.388410472e-13
-9.177254485e-08
2.317718461e-07
-3.115084778e-08
-9.177260113e-08
2.317717346e-07
-5.990347052e-08
-8.993912919e-08
2.265185476e-07
-8.412724844e-08
-8.412849692e-08
2.156015816e-07
-1.012895059e-07
-7.516618106e-08
1.985268758e-07
-1.132039421e-07
-7.048223352e-08
1.78757106e-07
-6.80756889e-08
1.602526579e-07
-1.197442552e-07
1.050271564e-07
-8.365360423e-08
1.469069502e-07
-1.129971057e-07
9.172715949e-08
-8.550507195e-08
1.64904823e-07
7.516436581e-08
-9.172927758e-08
1.823482119e-07
5.205456977e-08
-1.012913945e-07
1.985270889e-07
2.629066083e-08
-1.082589961e-07
2.086489274e-07
2.441013103e-13
-1.110821883e-07
2.132698697e-07
-2.629030657e-08
-1.110821448e-07
2.132699043e-07
-5.205446656e-08
-1.08258829e-07
2.086489734e-07
-7.516472756e-08
-1.012911994e-07
1.985268021e-07
-9.172782756e-08
-9.172943752e-08
1.82348262e-07
-1.050279335e-07
-8.550610965e-08
1.649045708e-07
-8.36551433e-08
1.469060512e-07
-1.129978246e-07
9.680129884e-08
-9.586067344e-08
1.290024271e-07
-1.002999295e-07
8.550271439e-08
-9.680360839e-08
1.484400312e-07
7.04786095e-08
-1.050296145e-07
1.649047993e-07
4.960638381e-08
-1.132064861e-07
1.787571368e-07
2.553305318e-08
-1.201015908e-07
1.881232953e-07
-9.411781276e-13
-1.229885649e-07
1.927900103e-07
-2.553503134e-08
-1.22988438e-07
1.927901376e-07
-4.960852843e-08
-1.201011644e-07
1.88123583e-07
-7.048092666e-08
-1.132059863e-07
1.787571572e-07
-8.550486113e-08
-1.050295705e-07
1.649046427e-07
-9.680320542e-08
-9.68043384e-08
1.484394034e-07
-9.586189172e-08
1.290011767e-07
-1.003016206e-07
9.585820622e-08
1.071285934e-07
-9.911511779e-08
-9.911769614e-08
8.365079625e-08
1.290025903e-07
-1.003020692e-07
6.80709385e-08
1.46907201e-07
-1.1299993e-07
4.66782563e-08
1.602532908e-07
-1.197470484e-07
2.372884776e-08
1.678169679e-07
-1.269189998e-07
-1.840224799e-12
1.714472301e-07
-1.296360534e-07
-2.373255581e-08
1.714473068e-07
-1.296359667e-07
-4.668198617e-08
1.678170993e-07
-1.269185373e-07
-6.80744294e-08
1.602530585e-07
-1.197467972e-07
-8.365383508e-08
1.469065102e-07
-1.129999109e-07
-9.586076262e-08
1.290015158e-07
-1.003027372e-07
1.071270877e-07
-9.911864636e-08
-9.911749348e-08
1.459415683e-07
-7.804057751e-08
1.971524631e-07
-1.567329626e-07
1.191718678e-07
-8.751026108e-08
2.354556523e-07
8.545951174e-08
-9.02400648e-08
2.618902822e-07
5.354891651e-08
-8.546166311e-08
2.794243633e-07
2.543366605e-08
-8.399468547e-08
2.888591793e-07
2.042728163e-14
-8.302509587e-08
2.917246965e-07
-2.543373729e-08
-8.30250272e-08
2.917246687e-07
-5.354922373e-08
-8.399465071e-08
2.888590241e-07
-8.546014451e-08
-8.54621107e-08
2.794238542e-07
-1.191726784e-07
-9.024152615e-08
2.618898608e-07
-1.459421444e-07
-8.751185989e-08
2.354553121e-07
-7.804161052e-08
1.971518178e-07
-1.567332338e-07
1.458324045e-07
-1.028062034e-07
1.781328653e-07
-1.522926801e-07
1.212248453e-07
-1.166293783e-07
2.186315079e-07
9.023731413e-08
-1.212270928e-07
2.443227639e-07
6.058717378e-08
-1.191744551e-07
2.618899964e-07
3.07775033e-08
-1.198691103e-07
2.743329689e-07
-8.07225584e-13
-1.196174009e-07
2.806404207e-07
-3.077925129e-08
-1.196172553e-07
2.806405275e-07
-6.058927105e-08
-1.19868855e-07
2.743331696e-07
-9.023984111e-08
-1.191746371e-07
2.61889889e-07
-1.212272412e-07
-1.212283222e-07
2.44322459e-07
-1.458343246e-07
-1.166309509e-07
2.186307551e-07
-1.028073738e-07
1.781317904e-07
-1.522942711e-07
1.387121634e-07
-1.286105738e-07
1.510561456e-07
-1.349615042e-07
1.166271653e-07
-1.387141002e-07
1.926097431e-07
8.750739158e-08
-1.458342964e-07
2.186317534e-07
5.757806944e-08
-1.459437525e-07
2.354557061e-07
2.850253859e-08
-1.483966841e-07
2.457263238e-07
-1.884617577e-12
-1.49161863e-07
2.508388211e-07
-2.850630971e-08
-1.491617421e-07
2.50838995e-07
-5.758173168e-08
-1.483965314e-07
2.457266429e-07
-8.751082329e-08
-1.459440764e-07
2.354556831e-07
-1.166300976e-07
-1.458354739e-07
2.186310763e-07
-1.387146317e-07
-1.387157147e-07
1.926087194e-07
-1.286118477e-07
1.510547845e-07
-1.349637366e-07
1.286075278e-07
1.121760399e-07
-1.311311918e-07
-1.311343531e-07
1.02803446e-07
1.510560914e-07
-1.34963528e-07
7.803787946e-08
1.781331878e-07
-1.522947294e-07
5.192940268e-08
1.97152708e-07
-1.56734738e-07
2.614310028e-08
2.082814085e-07
-1.63074892e-07
-1.985839951e-12
2.137620145e-07
-1.65331626e-07
-2.614696986e-08
2.137621391e-07
-1.653316329e-07
-5.193275046e-08
2.082814138e-07
-1.630750881e-07
-7.804065657e-08
1.97152353e-07
-1.567354631e-07
-1.028057788e-07
1.781322578e-07
-1.522960814e-07
-1.286097325e-07
1.510550037e-07
-1.349652255e-07
1.121746249e-07
-1.311357446e-07
-1.311333454e-07
2.433605505e-07
-1.316771237e-07
2.599511324e-07
-2.612818608e-07
2.12450748e-07
-1.262542691e-07
3.104446435e-07
1.703218846e-07
-1.471296539e-07
3.564450121e-07
1.171559745e-07
-1.703235948e-07
3.857558257e-07
5.954437089e-08
-1.770201312e-07
3.989505116e-07
-4.637107537e-13
-1.775440688e-07
4.048206372e-07
-5.954544956e-08
-1.775440136e-07
4.048205832e-07
-1.17157182e-07
-1.770202389e-07
3.989502293e-07
-1.703230846e-07
-1.703243026e-07
3.857552369e-07
-2.124515178e-07
-1.471309285e-07
3.564443938e-07
-2.433607907e-07
-1.262558102e-07
3.104440518e-07
-1.316781016e-07
2.599503504e-07
-2.612820462e-07
2.282167993e-07
-1.677329118e-07
2.317309571e-07
-2.457590895e-07
1.931116312e-07
-1.659697123e-07
2.934521172e-07
1.471284536e-07
-1.931126713e-07
3.362889519e-07
9.470164897e-08
-2.124518125e-07
3.564449778e-07
4.540166564e-08
-2.209128014e-07
3.675255588e-07
-1.087088257e-12
-2.242327209e-07
3.7273176e-07
-4.540394775e-08
-2.242325949e-07
3.727319233e-07
-9.470395939e-08
-2.209128475e-07
3.675257758e-07
-1.47130594e-07
-2.124524254e-07
3.564446493e-07
-1.931133498e-07
-1.931139518e-07
3.362882504e-07
-2.282182488e-07
-1.659711692e-07
2.934510475e-07
-1.677339797e-07
2.317297448e-07
-2.457602783e-07
1.982197908e-07
-1.944515617e-07
1.875788707e-07
-2.080238542e-07
1.659678119e-07
-1.982223384e-07
2.57114341e-07
1.262527904e-07
-2.282183553e-07
2.93452445e-07
8.217299739e-08
-2.433614393e-07
3.104450709e-07
4.039293113e-08
-2.518704966e-07
3.184640112e-07
-2.138497552e-12
-2.554178571e-07
3.22418965e-07
-4.039699969e-08
-2.554179379e-07
3.224191613e-07
-8.21762679e-08
-2.518710479e-07
3.184641016e-07
-1.262552207e-07
-2.433623605e-07
3.104445749e-07
-1.659696145e-07
-2.2821983e-07
2.934513556e-07
-1.982213826e-07
-1.982237364e-07
2.571130799e-07
-1.944526134e-07
1.875774636e-07
-2.080253752e-07
1.944483325e-07
1.160659745e-07
-1.963933088e-07
-1.963965007e-07
1.677302527e-07
1.875787022e-07
-2.080268592e-07
1.316749984e-07
2.317311725e-07
-2.4576107e-07
8.679820437e-08
2.599515067e-07
-2.612834485e-07
4.279706568e-08
2.732328608e-07
-2.72820837e-07
-1.683203455e-12
2.786186585e-07
-2.774757877e-07
-4.280029446e-08
2.786187325e-07
-2.774759581e-07
-8.680080998e-08
2.732326019e-07
-2.728217384e-07
-1.316769771e-07
2.599507656e-07
-2.612846107e-07
-1.677317551e-07
2.317298732e-07
-2.45762662e-07
-1.944495925e-07
1.87577433e-07
-2.080283087e-07
1.160646829e-07
-1.963975131e-07
-1.963947188e-07
3.64547684e-07
-9.523928025e-08
3.60343393e-07
2.319053584e-07
-1.137302241e-07
5.08641364e-07
1.428378058e-07
-1.051671136e-07
5.079648947e-07
9.327183337e-08
-9.126961218e-08
4.946188306e-07
4.707637877e-08
-9.327298408e-08
5.058733995e-07
2.564697092e-13
-9.48102267e-08
5.117731376e-07
-4.707601318e-08
-9.481032179e-08
5.117730074e-07
-9.32716666e-08
-9.32732576e-08
5.058728031e-07
-1.428376418e-07
-9.127079847e-08
4.946181174e-07
-2.319047689e-07
-1.051691462e-07
5.07964305e-07
-3.645476675e-07
-1.13731137e-07
5.086408795e-07
-9.523854551e-08
3.60342588e-07
3.508988541e-07
-1.462997849e-07
3.508144661e-07
-3.907017259e-07
2.258407878e-07
-1.746672066e-07
4.96439715e-07
1.410864945e-07
-1.576210298e-07
4.936532347e-07
9.12678186e-08
-1.410880034e-07
4.8539288e-07
4.516585709e-08
-1.428389364e-07
4.9461838e-07
-7.669039186e-13
-1.465016088e-07
5.016785851e-07
-4.516759748e-08
-1.46501538e-07
5.016785847e-07
-9.126968973e-08
-1.428391183e-07
4.946181609e-07
-1.410883459e-07
-1.410893637e-07
4.853924541e-07
-2.258423127e-07
-1.576233392e-07
4.936525709e-07
-3.508998525e-07
-1.74668367e-07
4.964388497e-07
-1.462994081e-07
3.508136434e-07
-3.90702288e-07
3.377608075e-07
-2.042368288e-07
3.289738345e-07
-3.770666438e-07
2.29322909e-07
-2.382278624e-07
4.654506722e-07
1.576190305e-07
-2.293254996e-07
4.796972968e-07
1.051649662e-07
-2.258425635e-07
4.936535707e-07
5.379210251e-08
-2.319053897e-07
5.079648079e-07
-2.253818722e-12
-2.35421178e-07
5.154456161e-07
-5.379646876e-08
-2.354213951e-07
5.154459597e-07
-1.051685989e-07
-2.319063076e-07
5.079650863e-07
-1.576221669e-07
-2.25844338e-07
4.936531918e-07
-2.293255306e-07
-2.293278712e-07
4.796961611e-07
-3.377628019e-07
-2.382292624e-07
4.654492513e-07
-2.042369797e-07
3.289725542e-07
-3.770680331e-07
3.175828917e-07
-2.781367678e-07
2.907746194e-07
-3.468786894e-07
2.382238829e-07
-3.175866194e-07
4.158321189e-07
1.746636401e-07
-3.377638499e-07
4.654510425e-07
1.137269881e-07
-3.509012691e-07
4.964404204e-07
5.619221388e-08
-3.645487593e-07
5.086420931e-07
-2.193629399e-12
-3.695989723e-07
5.127911052e-07
-5.619627103e-08
-3.695994404e-07
5.127912377e-07
-1.137301118e-07
-3.645502821e-07
5.086418762e-07
-1.7466612e-07
-3.509032791e-07
4.964395147e-07
-2.382260595e-07
-3.377661001e-07
4.654495291e-07
-3.175847184e-07
-3.175881386e-07
4.158306444e-07
-2.781374015e-07
2.907734061e-07
-3.468802043e-07
2.781342912e-07
1.961238344e-07
-3.18163346e-07
-3.181655532e-07
2.042344955e-07
2.907743242e-07
-3.468824221e-07
1.462980132e-07
3.289735627e-07
-3.770697354e-07
9.523799234e-08
3.50814647e-07
-3.907044015e-07
4.735769484e-08
3.603435123e-07
-4.037791729e-07
2.413204586e-13
3.647668487e-07
-4.083897805e-07
-4.735732174e-08
3.647669053e-07
-4.083901491e-07
-9.523791359e-08
3.603431872e-07
-4.037803775e-07
-1.462983838e-07
3.508138033e-07
-3.907059009e-07
-2.042353071e-07
3.289722099e-07
-3.770715264e-07
-2.781352682e-07
2.907731743e-07
-3.468839122e-07
1.961230437e-07
-3.181665025e-07
-3.181645011e-07
6.160792374e-07
-1.007863094e-07
6.107013751e-07
4.435185542e-07
-1.28144653e-07
7.49224603e-07
2.959301098e-07
-1.679983431e-07
7.489935137e-07
1.716680054e-07
-1.753976648e-07
7.134803074e-07
8.001171751e-08
-1.716696682e-07
6.891861656e-07
-3.292755947e-13
-1.693607101e-07
6.82338156e-07
-8.001256114e-08
-1.693609148e-07
6.823380363e-07
-1.716688663e-07
-1.716706796e-07
6.891854851e-07
-2.959306309e-07
-1.75399669e-07
7.134795267e-07
-4.435187284e-07
-1.679994151e-07
7.489928352e-07
-6.160799019e-07
-1.28143535e-07
7.492241948e-07
-1.007847903e-07
6.107008134e-07
6.03584461e-07
-1.672760068e-07
-7.992418628e-07
6.129614824e-07
4.390291354e-07
-2.219272563e-07
7.547776151e-07
2.984736225e-07
-2.944974519e-07
7.60707867e-07
1.753956155e-07
-2.984752987e-07
7.315485168e-07
8.079545354e-08
-2.959311468e-07
7.134799761e-07
-1.621886106e-12
-2.953470747e-07
7.084619598e-07
-8.079872108e-08
-2.953474261e-07
7.084621663e-07
-1.753985773e-07
-2.959326361e-07
7.134799777e-07
-2.984761306e-07
-2.984777702e-07
7.315481223e-07
-4.390306485e-07
-2.944993927e-07
7.607070812e-07
-6.035851709e-07
-2.21926943e-07
7.547767747e-07
-1.672748289e-07
-7.992421704e-07
6.129606558e-07
5.879745897e-07
-2.693030447e-07
-7.737331927e-07
6.167594071e-07
4.410513893e-07
-3.643171424e-07
7.547637306e-07
2.944950943e-07
-4.410538207e-07
7.728099488e-07
1.679959828e-07
-4.390311539e-07
7.607085177e-07
7.455532862e-08
-4.435196909e-07
7.489939434e-07
-1.620283696e-12
-4.496626228e-07
7.443180391e-07
-7.45583505e-08
-4.496631815e-07
7.443183952e-07
-1.679985779e-07
-4.435214375e-07
7.489940828e-07
-2.944976505e-07
-4.390334992e-07
7.607079835e-07
-4.4105355e-07
-4.410560484e-07
7.728087304e-07
-5.879758642e-07
-3.643178981e-07
7.547625358e-07
-2.693026162e-07
-7.73733852e-07
6.167583168e-07
5.219315201e-07
-4.041331998e-07
-7.078062969e-07
6.114795023e-07
3.643160306e-07
-5.219327526e-07
7.310632207e-07
2.219259415e-07
-5.879770252e-07
7.547643351e-07
1.281434188e-07
-6.035870208e-07
7.54778789e-07
6.012166802e-08
-6.160817739e-07
7.492258897e-07
3.629668348e-13
-6.229661743e-07
7.462158924e-07
-6.012095021e-08
-6.229665709e-07
7.462158508e-07
-1.281429444e-07
-6.160830182e-07