/*--------------------------------*- C++ -*----------------------------------*\
  =========                 |
  \\      /  F ield         | OpenFOAM: The Open Source CFD Toolbox
   \\    /   O peration     | Website:  https://openfoam.org
    \\  /    A nd           | Version:  7
     \\/     M anipulation  |
\*---------------------------------------------------------------------------*/
FoamFile
{
    version     2.0;
    format      ascii;
    class       volScalarField;
    location    "0.00035";
    object      Ux;
}
// * * * * * * * * * * * * * * * * * * * * * * * * * * * * * * * * * * * * * //

dimensions      [0 1 -1 0 0 0 0];

internalField   nonuniform List<scalar> 
5000
(
-6.0657849e-13
-5.396306e-13
-4.3151989e-13
-4.7994724e-13
-4.5824007e-13
-5.9379502e-13
-6.6800927e-13
-5.2992936e-13
-4.230402e-13
-4.7562918e-13
-2.6157349e-13
-3.3568868e-13
-4.8710988e-13
-6.4066305e-13
-8.9084328e-13
-8.1996282e-13
-9.6369185e-13
-9.4083109e-13
-6.7989801e-13
-9.1928776e-13
-8.9752871e-13
-1.0061214e-12
-9.5238023e-13
-6.3602737e-13
-9.8228672e-13
-1.2356307e-12
-1.1077283e-12
-8.0066307e-13
-9.019909e-13
-1.0147969e-12
-9.2618731e-13
-8.2255678e-13
-4.2670816e-13
-3.9571914e-13
-6.3476188e-13
-5.0687043e-13
-4.1490005e-13
-4.7311988e-13
-5.7881871e-13
-7.6157065e-13
-6.5519306e-13
-5.9360921e-13
-6.3437856e-13
-6.235824e-13
-7.0657737e-13
-6.4633151e-13
-4.9650922e-13
-5.6976213e-13
-6.8927464e-13
-5.4389611e-13
-4.881091e-13
-2.8146115e-13
-4.1611151e-13
-4.7759618e-13
-4.221714e-13
-3.0668901e-13
-1.6309911e-14
-7.9086711e-14
-2.8788245e-13
-2.4389992e-13
-1.8284908e-13
-3.4302907e-13
-2.5387117e-13
-1.8420195e-13
-2.8132137e-13
-3.5647187e-13
-3.970067e-13
-4.4117791e-13
-3.391253e-13
-2.0513357e-13
-3.8936545e-13
-2.4062166e-13
6.4577536e-14
-3.8362022e-15
-1.6786743e-13
-1.8780502e-13
-3.2695818e-14
-2.0321795e-13
-1.3829733e-13
-3.998083e-14
-1.0057972e-13
-1.7269495e-13
-3.3050942e-13
-6.8282853e-13
-8.9896806e-13
-5.5669477e-13
-6.5778998e-13
-4.3401106e-13
-4.9168717e-13
-5.1733383e-13
-2.3627064e-13
-3.4621628e-13
-3.6164078e-13
-3.6714957e-13
-4.6563602e-13
-5.7659895e-13
-3.5099893e-13
-2.8221122e-13
-3.0981814e-13
-3.4363421e-13
-4.1282573e-13
-4.4515727e-13
-4.8127812e-13
-3.4540354e-13
-3.3802217e-13
-2.4029397e-13
-3.6158753e-13
-2.1506162e-13
-2.8301254e-13
-4.2488147e-13
-2.944313e-13
-2.8482956e-13
-2.1390911e-13
-1.7382648e-13
-9.2054047e-14
-4.2899332e-13
-3.8100384e-13
-4.3397157e-13
-4.7360918e-13
-2.7652764e-13
-3.1926611e-13
-3.3322632e-13
-3.1239914e-13
-2.7576412e-13
-3.4431399e-13
-4.3614512e-13
-6.4345786e-13
-6.1673946e-13
-5.5339085e-13
-5.7178445e-13
-6.660639e-13
-8.5547313e-13
-8.771373e-13
-8.9418388e-13
-1.0144328e-12
-1.1323525e-12
-9.028565e-13
-1.0562299e-12
-1.0446153e-12
-1.0453999e-12
-1.0503573e-12
-1.1537097e-12
-1.195859e-12
-1.0921128e-12
-1.0626749e-12
-1.0704196e-12
-1.396184e-12
-1.2569136e-12
-1.2687264e-12
-1.1232686e-12
-1.071659e-12
-1.1822028e-12
-1.2798341e-12
-1.307545e-12
-1.0891036e-12
-1.2692859e-12
-1.3290126e-12
-1.2662637e-12
-1.2173623e-12
-1.1815314e-12
-9.5924227e-13
-1.0520214e-12
-1.3399831e-12
-1.3642971e-12
-1.397157e-12
-1.1242805e-12
-1.0072214e-12
-1.0586369e-12
-1.0821304e-12
-9.4673739e-13
-1.2906488e-12
-1.4855256e-12
-1.6436257e-12
-1.6958471e-12
-1.6066098e-12
-1.5171191e-12
-1.3474325e-12
-1.522979e-12
-1.7425062e-12
-1.5007963e-12
-1.5519869e-12
-1.6808885e-12
-1.5929901e-12
-1.4354366e-12
-1.4368752e-12
-1.6478372e-12
-1.7150011e-12
-1.5306547e-12
-1.6035076e-12
-1.4787885e-12
-1.1501521e-12
-1.3259385e-12
-1.4351361e-12
-1.3123332e-12
-1.5311505e-12
-1.6070444e-12
-1.6300514e-12
-1.885229e-12
-1.8280795e-12
-1.753837e-12
-1.6803886e-12
-1.7770489e-12
-1.5605675e-12
-1.522731e-12
-1.5783594e-12
-1.905293e-12
-1.7328113e-12
-1.8247653e-12
-1.7768528e-12
-1.8285091e-12
-1.947781e-12
-1.4018361e-12
-1.6759847e-12
-2.0649786e-12
-1.6238627e-12
-1.6673447e-12
-1.7199463e-12
-1.6442438e-12
-1.6063871e-12
-1.6029691e-12
-1.4330428e-12
-1.2477942e-12
-1.4226865e-12
-1.3363317e-12
-1.3151854e-12
-1.276255e-12
-1.2231069e-12
-1.4787255e-12
-1.2304882e-12
-9.2318318e-13
-1.0035382e-12
-1.0450846e-12
-8.0478756e-13
-8.4554851e-13
-1.0291647e-12
-7.9171388e-13
-6.9821075e-13
-8.4198017e-13
-7.5346284e-13
-5.0474475e-13
-8.3678328e-13
-8.1788709e-13
-7.7931719e-13
-9.0173143e-13
-6.8361301e-13
-7.6086673e-13
-9.7693558e-13
-7.8202737e-13
-7.5675955e-13
-8.4130766e-13
-5.3466753e-13
-8.7424346e-13
-6.0598752e-13
-5.2677587e-13
-6.3460183e-13
-8.1972356e-13
-9.9542803e-13
-5.7895717e-13
-6.9772949e-13
-7.6455604e-13
-8.3406913e-13
-8.6559856e-13
-1.0531039e-12
-6.6012736e-13
-5.8265061e-13
-6.4680377e-13
-7.3248599e-13
-5.2600352e-13
-2.0180815e-13
-2.4192705e-13
-4.3732485e-13
-3.4888163e-13
-1.8999759e-13
-1.4629314e-13
-2.0087948e-14
-3.253214e-13
-3.5349545e-13
-4.6132466e-13
-5.9325928e-13
-3.4138969e-13
-3.2516238e-13
-4.6443269e-13
-4.2721313e-13
-2.4030181e-13
-3.9351673e-13
-2.0402655e-13
-2.0777483e-13
-4.8525477e-13
-3.1332343e-13
-3.5001685e-13
-6.0959259e-13
-6.462414e-13
-3.2566809e-13
-4.7926304e-13
-6.1503483e-13
-4.2009401e-13
-3.1781389e-13
-3.3000522e-13
-1.2558488e-13
-1.4828095e-13
-3.0655997e-13
-3.5160227e-13
-3.2209057e-13
-3.1885885e-13
-2.4504232e-13
-1.5931568e-13
-1.470456e-13
-7.5174263e-14
8.1291238e-14
1.7964304e-14
-9.3703468e-14
-1.5653549e-13
-3.2420084e-13
-2.9155298e-13
-3.1090659e-13
-4.139795e-13
-4.8025971e-13
-3.4788576e-13
-4.1604645e-13
-5.0517783e-13
-4.0789694e-13
-5.1023315e-13
-3.6149489e-13
-3.2637295e-13
-5.7687594e-13
-4.3418043e-13
-5.5607832e-13
-5.9522831e-13
-7.2184917e-13
-6.9894551e-13
-7.098274e-13
-6.5344304e-13
-8.801133e-13
-9.1777549e-13
-7.4672909e-13
-5.7362043e-13
-7.497048e-13
-8.5998886e-13
-6.9330542e-13
-6.900126e-13
-6.2236011e-13
-5.5602278e-13
-7.3165958e-13
-8.8561618e-13
-9.4812106e-13
-1.0039238e-12
-9.9543704e-13
-9.9825673e-13
-8.5781542e-13
-8.7578977e-13
-9.3052835e-13
-1.0969715e-12
-1.0452939e-12
-1.5273528e-12
-1.3649335e-12
-1.2421547e-12
-1.0782023e-12
-7.9562417e-13
-8.7375348e-13
-9.400106e-13
-9.4406402e-13
-9.8394757e-13
-1.0877627e-12
-9.1206213e-13
-8.4483936e-13
-8.5807308e-13
-1.0619957e-12
-1.0261352e-12
-1.0164193e-12
-1.0448434e-12
-7.9101388e-13
-7.720398e-13
-7.72008e-13
-7.1963215e-13
-1.0119812e-12
-1.1754433e-12
-1.0539066e-12
-8.6337542e-13
-1.0783384e-12
-1.1391992e-12
-1.0743537e-12
-1.3566483e-12
-1.30706e-12
-1.329782e-12
-1.156419e-12
-1.1368732e-12
-1.1633091e-12
-1.1716015e-12
-1.2298684e-12
-1.080093e-12
-1.0504891e-12
-1.0557253e-12
-1.1545586e-12
-1.2072885e-12
-1.2997309e-12
-1.3469284e-12
-1.0643552e-12
-1.0781886e-12
-1.1150855e-12
-1.0842965e-12
-1.066743e-12
-8.2080816e-13
-9.6768417e-13
-8.4440415e-13
-7.3534154e-13
-8.239976e-13
-7.7286562e-13
-7.2963756e-13
-8.8365386e-13
-7.2896244e-13
-4.6535328e-13
-3.6506354e-13
-3.3315507e-13
-5.9479283e-13
-6.994575e-13
-5.1451198e-13
-4.7746346e-13
-3.2217553e-13
-3.9757219e-13
-4.1553779e-13
-1.5527945e-13
-1.2172157e-13
-2.54477e-13
-3.0821748e-13
-2.0577195e-13
-1.831974e-13
-1.531654e-13
-2.4194643e-13
-3.6567027e-13
-2.2252483e-13
-1.9679465e-13
-1.4672473e-13
-2.5658701e-13
-2.677596e-13
-1.8143807e-13
-7.9627001e-15
6.0345121e-14
5.9971295e-14
7.687071e-14
1.8987973e-14
9.0233292e-14
3.8033686e-14
2.5372947e-14
5.3767209e-14
-3.373788e-14
3.2056424e-14
6.9043797e-14
1.2876454e-13
1.9674715e-13
1.3435455e-13
-1.65429e-14
-1.8147254e-13
-2.0716306e-13
-1.9357559e-13
1.4956768e-14
-2.0945956e-13
-2.1387489e-13
-1.1376801e-13
-2.8930807e-13
-1.929759e-13
-2.998401e-13
-9.1646048e-14
-3.2349878e-13
-6.9117819e-13
-4.7573129e-13
-5.2512346e-13
-4.0209183e-13
-3.5625605e-13
-4.8216847e-13
-4.6891115e-13
-6.2187268e-13
-4.4955616e-13
-4.5042869e-13
-7.8716663e-13
-7.9074187e-13
-9.2802789e-13
-5.1988435e-13
-6.6717833e-13
-6.3977865e-13
-4.9515224e-13
-5.9156356e-13
-3.6579275e-13
-3.5916146e-13
-3.5757097e-13
-4.5813746e-13
-5.1809814e-13
-4.433406e-13
-5.3069289e-13
-5.6200434e-13
-4.9118612e-13
-3.0452262e-13
-1.5401707e-13
-7.4539899e-14
-1.2908407e-13
-1.2775321e-13
4.1743342e-14
5.5495954e-16
2.1588152e-15
-3.6984371e-14
1.1766204e-13
9.1757235e-14
5.9999396e-15
-1.3167731e-13
-1.1947798e-13
-5.0280183e-14
-1.4705439e-13
-1.242589e-13
-3.6529286e-13
-4.9916328e-13
-5.0203971e-13
-4.4572481e-13
-5.8485954e-13
-4.8640661e-13
-3.507814e-13
-2.5610789e-13
1.6181626e-14
-1.3725524e-13
-1.3933106e-13
-3.6402672e-15
-2.2372391e-14
-8.8727951e-14
-8.0007725e-14
4.1571649e-14
-8.6149481e-14
-8.0956928e-14
-1.1694886e-14
-1.662269e-13
-2.4092932e-13
-1.5732242e-14
1.6469253e-14
-1.2993226e-13
-1.5935277e-13
-2.4174848e-13
-3.3018249e-13
-7.4363552e-14
-8.6816296e-14
-1.4797914e-13
-6.0681009e-14
1.0754202e-13
1.7322582e-13
1.8262161e-13
3.3840185e-13
2.052638e-13
1.2679688e-13
3.8991053e-14
-6.1209455e-14
-1.8919049e-14
-1.9528609e-13
-2.2932979e-13
-3.1369635e-13
-2.3194654e-13
-2.286616e-13
-2.0066055e-13
2.9453539e-14
4.9844601e-14
-2.0462256e-13
-4.4943495e-13
-5.4457352e-13
-5.4278792e-13
-5.5471473e-13
-6.2858171e-13
-5.2689109e-13
-3.6108688e-13
-3.1294964e-13
-3.2741148e-13
-2.2920944e-13
-2.3350613e-13
-3.5942158e-13
-3.2311245e-13
-3.0225846e-14
-3.5008276e-14
-8.626915e-14
-2.6280926e-13
-3.3035189e-13
-6.0647086e-13
-4.7431535e-13
-3.691402e-13
-4.6572923e-13
-3.5119294e-13
-5.2599586e-13
-3.8821421e-13
-5.1945572e-13
-6.4334449e-13
-5.7594438e-13
-7.0676139e-13
-5.1967233e-13
-4.0692274e-13
-2.8383958e-13
-1.6778794e-13
-2.9572309e-13
-3.0077023e-13
-1.8901045e-13
-2.103318e-13
-3.3580226e-13
-5.1967923e-13
-5.3634164e-13
-5.445102e-13
-1.6799216e-13
-1.9179742e-13
-2.3272821e-13
-2.7715509e-13
-4.1345742e-13
-5.4463958e-13
-6.0538196e-13
-4.4486873e-13
-6.5383605e-13
-6.4987851e-13
-5.494907e-13
-3.9766856e-13
-5.0758335e-13
-4.0798153e-13
-4.9900418e-13
-5.8308587e-13
-6.6795929e-13
-5.2357281e-13
-3.9563973e-13
-6.5029007e-13
-6.5579374e-13
-9.2472498e-13
-9.9018922e-13
-9.1187283e-13
-8.7046548e-13
-7.0970939e-13
-7.583079e-13
-7.2296306e-13
-6.3328875e-13
-7.2981907e-13
-7.7998784e-13
-7.0340996e-13
-7.9109921e-13
-8.4833666e-13
-7.5931343e-13
-7.014559e-13
-1.0289777e-12
-9.2835074e-13
-9.1114259e-13
-8.1893342e-13
-7.7544736e-13
-7.1077916e-13
-6.670185e-13
-8.3760971e-13
-7.3291208e-13
-7.6539715e-13
-6.7095146e-13
-5.6706235e-13
-4.884682e-13
-4.3809116e-13
-3.7129491e-13
-3.1287987e-13
-3.4263285e-13
-6.665848e-13
-5.9519503e-13
-5.6361489e-13
-4.9934013e-13
-7.4478836e-13
-7.2438857e-13
-6.2524813e-13
-6.8031001e-13
-9.6483699e-13
-1.1283722e-12
-9.0929018e-13
-9.5342065e-13
-8.0981927e-13
-7.6805397e-13
-8.3492396e-13
-8.3104501e-13
-7.389772e-13
-7.2270579e-13
-8.5945596e-13
-8.5700046e-13
-7.7952299e-13
-5.3493563e-13
-4.8374889e-13
-6.3071392e-13
-6.5803393e-13
-4.4574799e-13
-6.3540998e-13
-7.3524751e-13
-5.4052359e-13
-4.2121132e-13
-4.3567696e-13
-4.6386667e-13
-5.4669658e-13
-3.6955477e-13
-4.5222286e-13
-4.3842562e-13
-5.4880613e-13
-6.5833629e-13
-3.7758172e-13
-4.8440606e-13
-3.2709974e-13
-3.3329287e-13
-3.4804313e-13
-3.5925606e-13
-2.4532803e-13
4.3647907e-14
-2.1539848e-13
-1.8262111e-13
-1.163269e-13
-1.2115379e-13
7.6857004e-14
1.720688e-14
1.1349172e-13
-8.6663506e-14
2.9723353e-14
1.012477e-13
1.3732452e-14
-9.7647046e-14
-2.6747536e-13
-1.7797905e-13
-6.5632653e-14
-1.5615856e-13
-8.0522281e-14
-5.8455083e-14
-2.2720509e-14
-1.5112533e-13
-1.1054638e-13
-4.7971878e-14
-7.2357587e-14
1.1455348e-13
-6.9488042e-14
-2.0376148e-13
-1.1754895e-13
-1.45784e-13
-1.6403786e-13
-1.5996914e-13
-2.2380453e-13
-1.8099529e-13
-2.5432033e-13
-2.6440492e-13
-1.6595233e-13
-1.0429137e-13
-7.1469171e-15
-7.699898e-15
-6.0828076e-14
-2.3827385e-13
-3.971853e-13
-2.7563354e-13
-2.7497621e-13
-4.2678461e-14
9.558369e-14
1.8317275e-13
1.58907e-13
6.8118311e-14
1.1369161e-13
4.4634458e-14
-1.4046699e-14
-5.2275649e-14
3.263851e-14
1.3377493e-13
1.5386683e-13
1.1113641e-13
8.501881e-15
-3.713309e-14
1.6958986e-14
1.6305819e-13
1.1130829e-14
-1.4889164e-13
-3.9182773e-14
-1.2256746e-13
-1.1678861e-13
-8.5444614e-14
1.1588133e-14
-8.4819351e-14
-1.9314858e-13
-3.7587447e-13
-3.5443087e-13
-2.6073676e-13
-6.0844106e-13
-5.6056015e-13
-5.5937179e-13
-7.2148281e-13
-7.1616648e-13
-7.3953011e-13
-5.9431035e-13
-4.4481894e-13
-4.9743491e-13
-4.4501945e-13
-4.960988e-13
-5.3188103e-13
-3.5431375e-13
-1.7867529e-14
5.0674809e-14
-8.7913285e-15
-2.8325153e-14
-6.1717184e-14
-1.8863804e-14
-1.7681129e-13
-9.061126e-14
-2.0272355e-13
-3.943719e-13
-3.3371289e-13
-2.7066937e-13
-3.7379355e-13
-1.5542755e-13
-9.0812711e-14
-6.2670724e-14
-2.4216619e-13
-4.3444202e-13
-5.7534705e-13
-6.4055192e-13
-4.4677969e-13
-4.0606032e-13
-1.4618874e-13
-2.631753e-13
3.036698e-14
9.6900828e-14
5.9484642e-14
-1.4838851e-13
-1.6351416e-13
-1.2356621e-13
-2.3927609e-13
-1.5123773e-13
-1.4451969e-13
-1.8631148e-13
-1.4300643e-13
-1.9459253e-14
-1.9628675e-13
-2.3601115e-13
-4.3040422e-13
-2.171918e-13
-3.5185128e-13
-3.7337406e-13
-2.7728543e-13
-4.4620447e-13
-2.7658605e-13
-2.1197161e-13
-5.2320261e-13
-5.6094367e-13
-6.4652976e-13
-6.3627124e-13
-6.6807675e-13
-6.0322642e-13
-6.3239689e-13
-7.0365442e-13
-6.0816333e-13
-5.8978016e-13
-5.7496278e-13
-5.208019e-13
-5.9225168e-13
-5.2945807e-13
-6.0340375e-13
-8.2937969e-13
-6.799463e-13
-4.987877e-13
-4.2741121e-13
-3.2508393e-13
-3.8665287e-13
-4.2769884e-13
-3.0103222e-13
-5.0804581e-13
-5.4313101e-13
-5.6210806e-13
-5.2396355e-13
-3.8365639e-13
-3.6073263e-13
-2.8689547e-13
-3.5061675e-13
-3.0092231e-13
-4.0869107e-13
-5.384506e-13
-3.7313964e-13
-3.1060761e-13
-2.9350189e-13
-2.4122003e-13
-2.8435564e-13
-1.1609331e-13
-1.9340137e-14
-8.2008561e-14
1.1337964e-13
7.9785716e-14
3.8252031e-14
1.1579601e-13
1.0226407e-13
-4.9721664e-14
-4.6951155e-14
-9.2081e-14
-1.5404506e-14
2.1735549e-13
2.7364613e-13
2.7289184e-13
4.7118464e-13
2.4146783e-13
1.3551585e-13
-2.5951337e-14
3.9232996e-14
2.2358455e-13
6.7357636e-14
6.7528584e-14
8.1429661e-14
8.6878228e-14
2.0837325e-13
2.5569821e-13
1.9109271e-13
3.8679239e-13
1.2649439e-13
2.945321e-13
2.3541221e-13
2.2988177e-13
1.9623449e-13
9.6587457e-14
9.1694943e-14
7.6065826e-14
-4.1616107e-14
2.0469638e-14
-5.1322812e-14
1.6530299e-14
-1.2569002e-13
-6.6810167e-14
6.7531621e-14
-7.8617547e-14
1.3118536e-13
1.5624935e-13
2.4105153e-13
5.5118325e-14
3.0307403e-13
2.5112184e-13
4.2075914e-13
2.634058e-13
1.6344021e-13
1.3355932e-13
6.8459714e-15
1.0322738e-14
5.33558e-14
7.8249363e-14
1.6248462e-13
1.5952315e-13
9.6166278e-14
9.3603906e-14
1.550281e-13
9.4905442e-14
-6.8652483e-14
1.8624457e-15
4.276864e-14
1.2657183e-13
1.6757222e-13
5.7808831e-14
1.1159281e-13
-2.4431329e-14
7.3129827e-14
1.5658409e-13
1.4161036e-13
2.6284397e-13
4.0735215e-14
-1.0100845e-13
-8.2041176e-14
-1.8369919e-13
-1.059575e-13
-1.3150501e-13
-3.3642264e-13
-1.4909999e-13
-2.7449394e-13
-3.2582015e-13
-3.466648e-13
-2.8087241e-13
-1.3786714e-13
-2.314106e-13
-3.4900908e-13
-2.5918224e-13
-2.971431e-13
-3.9245783e-13
-3.6658267e-13
-4.2014707e-13
-3.5521444e-13
-2.1157107e-13
-2.8088777e-13
-1.4498732e-13
-1.5920309e-13
-1.7945119e-13
-2.3799765e-14
-1.1468095e-13
-2.0696653e-13
-4.0781636e-13
-4.2844739e-13
-4.6319105e-13
-2.4831775e-13
-2.3863638e-13
-2.0569984e-13
-2.2152616e-13
-2.0454495e-13
-3.8124165e-14
3.8616103e-15
-1.7618482e-14
-1.7006584e-13
1.1644466e-13
-8.7856909e-15
3.8230862e-14
1.6504351e-13
1.9741044e-13
1.3461963e-14
1.4376329e-14
1.4369713e-13
1.2876502e-13
7.7217259e-14
1.2144099e-13
8.9813138e-14
3.4454533e-14
6.7984864e-14
9.0722949e-14
1.7272893e-13
1.4398642e-13
1.7725286e-13
2.4265367e-13
4.3677218e-13
3.3753533e-13
2.8870235e-13
2.9387e-13
4.7855823e-13
3.9501827e-13
3.7103252e-13
3.2832406e-13
4.3162025e-13
4.416493e-14
6.248278e-14
1.1278431e-13
3.0318e-14
1.4319494e-13
2.1568347e-13
3.1042129e-13
1.9727375e-13
5.4948106e-14
5.5572165e-15
8.1898691e-14
-4.7527192e-14
4.2685021e-14
3.9006824e-15
2.0817802e-13
-2.7257888e-14
-7.8427938e-14
-8.8914526e-15
-6.9237763e-14
-3.1331946e-14
-1.1933513e-14
2.0794413e-13
3.4709446e-13
2.5638236e-13
2.6070557e-13
3.073156e-13
3.0927227e-13
3.29625e-13
4.3111347e-13
5.9769396e-13
5.9548279e-13
5.941446e-13
7.0717746e-13
6.7633563e-13
9.156089e-13
8.42588e-13
5.1184372e-13
5.7440836e-13
6.7316901e-13
6.7719081e-13
8.3332274e-13
7.2062059e-13
4.8371506e-13
4.6138689e-13
4.1951905e-13
6.5907219e-13
4.5929541e-13
6.7631381e-13
5.2284056e-13
3.406044e-13
4.2140218e-13
4.2756668e-13
5.398807e-13
5.9502519e-13
5.3558671e-13
6.2472476e-13
7.6705008e-13
5.2479024e-13
3.0242886e-13
3.4643146e-13
2.9069371e-13
3.5059792e-13
3.7727607e-13
1.9657404e-13
3.3391775e-13
1.9679284e-13
3.9019267e-13
2.6830386e-13
5.7801155e-13
5.8691646e-13
5.5780138e-13
5.2123391e-13
3.3455805e-13
2.3564165e-13
1.4368696e-13
4.4147587e-13
1.6655247e-13
1.5026769e-13
2.8163226e-13
4.1520941e-13
5.2463638e-13
2.895117e-13
4.2398832e-13
3.7069871e-13
4.823399e-13
4.030503e-13
4.192256e-13
3.935498e-13
2.183478e-13
1.0954114e-13
4.4505981e-14
2.8299761e-13
2.3673294e-13
9.8132861e-14
2.4606852e-13
1.1393237e-13
7.3788129e-15
2.6891881e-13
3.2229133e-13
4.6947414e-13
4.9919129e-13
3.1384633e-13
1.5244631e-13
1.2414966e-13
1.1353899e-13
2.1843589e-13
3.9156068e-13
8.0706304e-13
8.1734042e-13
7.2942456e-13
9.715743e-13
9.6615346e-13
9.5035249e-13
9.4415891e-13
1.2771634e-12
1.0939444e-12
1.036686e-12
1.1365242e-12
1.200426e-12
1.0826536e-12
1.1980565e-12
1.2931872e-12
1.1088365e-12
1.3456832e-12
1.2129004e-12
1.0183338e-12
1.0471364e-12
1.014812e-12
1.0122574e-12
1.2187547e-12
1.3231681e-12
1.1719603e-12
1.0775731e-12
1.3172711e-12
1.2016772e-12
1.2046344e-12
1.2520239e-12
1.0336772e-12
1.0782997e-12
1.1601619e-12
8.4871758e-13
1.1616441e-12
1.0929765e-12
1.0355162e-12
1.1029071e-12
1.1260511e-12
1.3622292e-12
1.2367635e-12
1.3306676e-12
1.2837039e-12
1.3255301e-12
1.3745267e-12
1.418206e-12
1.3427293e-12
9.5488779e-13
1.0048446e-12
1.0817531e-12
1.0652663e-12
1.4098554e-12
1.4047551e-12
1.3930574e-12
1.277979e-12
1.345281e-12
1.5164902e-12
1.2439851e-12
1.4265576e-12
1.4016325e-12
1.3943413e-12
1.5796336e-12
1.5307686e-12
1.2756117e-12
1.4190352e-12
1.3747635e-12
1.313688e-12
1.2906551e-12
1.4860518e-12
1.4193549e-12
1.2062718e-12
1.3638953e-12
1.3994337e-12
1.3339276e-12
1.1064561e-12
1.1314214e-12
1.0762536e-12
1.2872177e-12
1.1987973e-12
1.091453e-12
1.0527566e-12
1.1644849e-12
9.2208278e-13
9.1473982e-13
1.0062393e-12
1.025632e-12
1.0964171e-12
1.163228e-12
1.0479542e-12
1.0679925e-12
1.0195601e-12
1.0082405e-12
1.2217424e-12
1.0952618e-12
8.9430479e-13
8.0057353e-13
8.3371145e-13
6.8891123e-13
5.8114309e-13
5.4058539e-13
7.2308409e-13
7.7384175e-13
7.0314033e-13
4.9611504e-13
3.9835466e-13
3.2212671e-13
3.9403991e-13
4.562694e-13
5.0029149e-13
5.7760845e-13
8.0431343e-13
4.2661042e-13
3.4357979e-13
2.8738341e-13
1.6104089e-13
8.7057905e-14
-2.4650368e-14
4.2887998e-13
4.509133e-13
3.9630679e-13
6.9536798e-13
9.0467609e-13
8.2722238e-13
6.1118774e-13
4.5148681e-13
4.6641111e-13
6.2523126e-13
6.1018546e-13
8.2536635e-13
9.6975346e-13
1.0326857e-12
1.0176139e-12
9.9546606e-13
1.0972262e-12
1.3830207e-12
1.4145689e-12
1.1771519e-12
1.2053054e-12
1.1021228e-12
1.0287193e-12
1.2074184e-12
1.3551778e-12
1.3596231e-12
1.2610529e-12
1.1829068e-12
1.0941483e-12
1.2683685e-12
1.3480988e-12
1.1708682e-12
1.2908315e-12
1.3332098e-12
1.2773907e-12
1.3885906e-12
1.324493e-12
1.4117624e-12
1.2914508e-12
1.3260436e-12
1.2078993e-12
1.2698983e-12
1.2215625e-12
1.2772067e-12
1.2119567e-12
1.0275379e-12
1.268215e-12
1.3369748e-12
1.3218153e-12
1.003421e-12
1.2241382e-12
1.027938e-12
1.2717895e-12
1.3348804e-12
1.1598784e-12
1.1359352e-12
1.1744596e-12
1.1094868e-12
9.7749198e-13
9.6821882e-13
9.8190913e-13
9.7243082e-13
8.5787871e-13
9.0446699e-13
8.5070059e-13
8.4552043e-13
8.8878639e-13
1.1796058e-12
1.2844685e-12
1.1105518e-12
1.0338257e-12
9.9989044e-13
9.0671954e-13
8.8437451e-13
1.0421833e-12
1.1157413e-12
1.104703e-12
1.059063e-12
1.1986658e-12
1.1538092e-12
1.0245131e-12
9.4182702e-13
9.4310237e-13
9.4701963e-13
9.2180758e-13
9.3438115e-13
9.16424e-13
7.4429429e-13
8.4718374e-13
9.2573225e-13
8.68652e-13
7.3815423e-13
5.7390781e-13
7.0298254e-13
4.9071869e-13
3.8765212e-13
4.5101352e-13
2.5791581e-13
3.5464116e-13
2.8136857e-13
4.1403755e-13
3.7394311e-13
2.7233213e-13
2.1040527e-13
2.078507e-13
2.0479488e-13
1.4518786e-13
5.2594134e-14
-8.3397108e-14
8.8455495e-14
2.6544199e-14
3.4637674e-13
1.8603735e-13
1.7825814e-13
8.5104913e-14
-7.380091e-14
-1.2250732e-13
5.0764415e-14
-1.0801399e-15
-2.303938e-13
-1.0258551e-13
4.3547245e-16
1.5882418e-13
2.5418821e-13
2.3738994e-13
7.0240607e-14
1.836838e-13
1.5941685e-13
1.0978206e-13
1.1074903e-13
2.3549606e-13
3.340678e-13
1.947763e-13
1.2798139e-13
-1.2908559e-14
1.112418e-13
5.8148536e-14
1.5722272e-13
1.4172106e-13
2.2883502e-13
1.8845426e-13
1.2627157e-13
3.4773698e-13
4.2842719e-13
5.0145732e-13
3.32045e-13
4.7381924e-13
5.995925e-13
6.0178728e-13
7.0536589e-13
6.6135576e-13
4.115563e-13
4.5430828e-13
4.86903e-13
4.7688044e-13
4.8014126e-13
2.0149592e-13
3.8325075e-14
1.7493384e-14
2.6074151e-13
4.9249805e-13
4.7841286e-13
4.8622127e-13
4.1844394e-13
1.2735749e-13
-3.8319324e-14
-6.3957913e-14
-4.1258286e-15
2.1385254e-14
1.4567606e-13
2.308472e-13
1.992005e-13
4.7720657e-13
5.2166404e-13
2.8302344e-13
3.1660968e-13
2.7454549e-13
2.3748782e-13
3.7071718e-13
4.7947012e-13
3.794232e-13
4.4209709e-13
4.4203047e-13
3.9732921e-13
6.1771208e-13
6.5356134e-13
7.5805001e-13
3.7258347e-13
3.8361654e-13
4.0465841e-13
2.1993897e-13
1.5625774e-13
1.8228641e-13
1.5778911e-13
2.9250481e-13
3.538079e-13
2.2350086e-13
1.6788363e-13
1.1564394e-13
1.9746779e-13
1.6834273e-13
4.2129586e-13
3.5859687e-13
3.916281e-13
4.3032433e-13
3.8138285e-13
4.0360125e-13
4.4956265e-13
5.0693779e-13
4.3189468e-13
5.2455321e-13
5.0877122e-13
3.3943124e-13
4.7671159e-13
4.1943297e-13
4.3702271e-13
3.8629274e-13
4.5863771e-13
3.9627124e-13
1.6850357e-13
2.2894331e-13
3.666573e-13
5.6315063e-13
5.929581e-13
4.4198833e-13
4.2685934e-13
4.4695346e-13
3.1325686e-13
1.4540177e-13
-8.7809487e-14
-1.5019656e-13
6.3272892e-14
2.3210391e-13
2.8386519e-13
4.0075565e-13
5.2706625e-13
3.8361126e-13
5.0266041e-14
3.0129654e-13
2.6797881e-13
1.8651913e-13
1.6383088e-13
2.1762669e-13
2.89181e-13
2.0514494e-13
2.9483332e-13
1.7007953e-13
1.2273773e-13
1.1001238e-13
-4.2047192e-14
-2.6369143e-14
-1.0572873e-13
-1.7361421e-13
-1.7284765e-13
-5.29205e-14
-3.6624318e-14
-4.0498005e-14
1.7661945e-13
3.0063912e-13
2.3339809e-13
1.8854643e-13
1.3211834e-13
3.5042989e-14
-2.4629142e-14
2.2559337e-13
2.7736204e-13
2.2735613e-13
1.7319711e-13
1.263757e-13
2.2896639e-13
2.2292243e-13
2.2067516e-13
2.7666193e-13
1.0399422e-13
6.6733629e-14
2.8335105e-14
-4.9702203e-14
-6.9391502e-14
-4.1091154e-14
-8.4214104e-14
-1.6786662e-13
8.114374e-14
1.3992012e-13
3.5455182e-13
5.0614038e-13
4.4982415e-13
5.3748863e-13
4.9827199e-13
4.2460709e-13
4.8846446e-13
4.9716515e-13
7.9987192e-13
9.6888548e-13
1.1878993e-12
1.5778862e-12
1.838913e-12
1.712993e-12
1.9392983e-12
2.3420962e-12
2.7638841e-12
2.7487899e-12
3.0147674e-12
3.7185546e-12
4.2518559e-12
4.7565726e-12
5.3778447e-12
5.8764694e-12
6.5484797e-12
7.4528315e-12
8.1780851e-12
9.3113174e-12
1.0197024e-11
1.1522118e-11
1.3341795e-11
1.5050559e-11
1.677832e-11
1.8736054e-11
2.1046804e-11
2.3938618e-11
2.7134781e-11
3.0528118e-11
3.4304499e-11
3.8681305e-11
4.3624807e-11
4.9415397e-11
5.580461e-11
6.2876299e-11
7.1149851e-11
8.0607618e-11
9.0744075e-11
1.0230802e-10
1.1567425e-10
1.3041334e-10
1.4747763e-10
1.6633854e-10
1.8726457e-10
2.1158359e-10
2.3901489e-10
2.694273e-10
3.0421693e-10
3.4316312e-10
3.8649128e-10
4.3550889e-10
4.9097828e-10
5.5409878e-10
6.2429094e-10
7.027947e-10
7.9129016e-10
8.9104683e-10
1.0030799e-09
1.1287319e-09
1.2699302e-09
1.4285938e-09
1.6062022e-09
1.8057355e-09
2.0297615e-09
2.2809304e-09
2.562667e-09
2.8784592e-09
3.2323051e-09
3.6291194e-09
4.0737946e-09
4.5717885e-09
5.1291214e-09
5.7531327e-09
6.4516728e-09
7.232336e-09
8.1061855e-09
9.0835166e-09
1.0175768e-08
1.1396826e-08
1.2761826e-08
1.4285766e-08
1.5987751e-08
1.7888385e-08
2.0010197e-08
2.2377824e-08
2.5018658e-08
2.7965586e-08
3.125152e-08
3.4914561e-08
3.899719e-08
4.3546333e-08
4.861335e-08
5.4255961e-08
6.0539459e-08
6.7533221e-08
7.5314953e-08
8.3971991e-08
9.360067e-08
1.0430695e-07
1.1620747e-07
1.2943281e-07
1.4412556e-07
1.6044465e-07
1.7856564e-07
1.9868171e-07
2.2100654e-07
2.4577565e-07
2.7324993e-07
3.0371583e-07
3.374897e-07
3.7492102e-07
4.1639404e-07
4.623322e-07
5.1320358e-07
5.695214e-07
6.3185079e-07
7.0081573e-07
7.771007e-07
8.6145879e-07
9.5471864e-07
1.0577912e-06
1.1716766e-06
1.2974718e-06
1.4363849e-06
1.5897408e-06
1.7589921e-06
1.9457333e-06
2.1517135e-06
2.3788494e-06
2.6292418e-06
2.9051919e-06
3.2092217e-06
3.544092e-06
3.9128238e-06
4.3187239e-06
4.7654076e-06
5.2568308e-06
5.7973155e-06
6.3915853e-06
7.0448001e-06
7.7625954e-06
8.5511239e-06
9.4170985e-06
1.0367842e-05
1.1411343e-05
1.2556311e-05
1.3812233e-05
1.5189449e-05
1.6699219e-05
1.8353804e-05
2.0166545e-05
2.2151956e-05
2.4325826e-05
2.6705318e-05
2.9309086e-05
3.2157398e-05
3.5272263e-05
3.8677578e-05
4.2399279e-05
4.6465501e-05
5.090676e-05
5.5756138e-05
6.1049486e-05
6.6825646e-05
7.312668e-05
7.9998122e-05
8.7489248e-05
9.5653365e-05
0.00010454811
0.0001142358
0.00012478375
0.00013626471
0.00014875718
0.00016234592
0.00017712239
0.00019318521
0.00021064072
0.0002296035
0.00025019701
0.00027255419
0.00029681814
0.00032314286
0.00035169398
0.00038264957
0.00041620104
0.00045255402
0.00049192932
0.00053456402
0.00058071247
0.00063064753
0.00068466172
0.00074306857
0.00080620397
0.00087442759
0.00094812446
0.0010277065
0.0011136144
0.0012063191
0.0013063239
0.0014141667
0.0015304214
0.0016557008
0.0017906585
0.0019359915
0.0020924427
0.0022608037
0.0024419174
0.0026366811
0.0028460493
0.0030710376
0.0033127252
0.0035722591
0.0038508572
0.0041498128
0.0044704981
0.0048143682
0.0051829661
0.0055779267
0.0060009813
0.0064539631
0.0069388117
0.0074575783
0.0080124316
0.0086056627
0.0092396915
0.0099170721
0.010640499
0.011412815
0.012237015
0.013116253
0.014053853
0.01505331
0.016118303
0.017252698
0.018460557
0.019746148
0.021113949
0.022568658
0.024115203
0.025758746
0.027504695
0.029358711
0.031326717
0.033414908
0.035629755
0.037978021
0.040466763
0.043103346
0.045895448
0.048851072
0.051978552
0.055286564
0.058784133
0.062480642
0.066385842
0.070509857
0.074863193
0.079456749
0.08430182
0.089410105
0.094793718
0.10046519
0.10643748
0.11272396
0.11933847
0.12629526
0.13360904
0.14129497
0.14936866
0.15784616
0.16674399
0.17607914
0.18586902
0.19613154
0.20688503
0.2181483
0.2299406
0.24228164
0.25519155
0.26869092
0.28280075
0.2975425
0.31293801
0.32900955
0.34577976
0.36327169
0.38150875
0.40051472
0.42031371
0.44093016
0.46238883
0.48471476
0.50793328
0.53206997
0.55715063
0.58320129
0.61024817
0.63831764
0.66743622
0.69763054
0.72892732
0.76135335
0.79493544
0.8297004
0.86567502
0.90288605
0.94136012
0.98112376
1.0222034
1.0646251
1.1084149
1.1535986
1.2002016
1.248249
1.2977655
1.3487757
1.4013033
1.4553721
1.5110049
1.5682244
1.6270524
1.6875103
1.749619
1.8133985
1.8788681
1.9460468
2.0149523
2.0856019
2.158012
2.2321981
2.308175
2.3859564
2.4655552
2.5469835
2.6302521
2.7153712
2.8023497
2.8911957
2.981916
3.0745165
3.169002
3.2653763
3.3636419
3.4638002
3.5658516
3.6697952
3.775629
3.8833498
3.9929533
4.1044339
4.2177849
4.3329983
4.4500649
4.5689744
4.6897153
4.8122747
4.9366386
5.0627919
5.1907182
5.3203998
5.4518179
5.5849526
5.7197826
5.8562855
5.9944378
6.1342149
6.2755907
6.4185384
6.5630297
6.7090353
6.8565248
7.0054668
7.1558286
7.3075765
7.4606759
7.6150908
7.7707846
7.9277193
8.0858562
8.2451554
8.4055761
8.5670766
8.7296142
8.8931453
9.0576255
9.2230094
9.3892509
9.5563028
9.7241174
9.8926461
10.061839
10.231647
10.402019
10.572903
10.744247
10.915997
11.088102
11.260506
11.433156
11.605995
11.778969
11.952021
12.125095
12.298133
12.471078
12.643874
12.816461
12.988781
13.160777
13.332389
13.503558
13.674229
13.844338
14.013828
14.182643
14.350721
14.518003
14.684435
14.849954
15.014504
15.178029
15.34047
15.501769
15.661875
15.820728
15.978273
16.134459
16.289231
16.442534
16.594321
16.744538
16.893135
17.040066
17.185281
17.328733
17.470381
17.610178
17.748081
17.884053
18.018051
18.150038
18.27998
18.407841
18.533589
18.657193
18.778625
18.897856
19.014864
19.129624
19.242116
19.352322
19.460224
19.565809
19.669065
19.76998
19.868548
19.964765
20.058624
20.150127
20.239277
20.326074
20.410525
20.492642
20.572429
20.649903
20.72508
20.797973
20.868603
20.936993
21.003162
21.067137
21.128947
21.188618
21.246179
21.301667
21.355111
21.406547
21.456014
21.503546
21.549184
21.592969
21.63494
21.675139
21.713611
21.750397
21.785542
21.819093
21.851091
21.881583
21.910616
21.938233
21.964482
21.989409
22.013056
22.035472
22.056701
22.076786
22.095772
22.113704
22.130622
22.14657
22.161591
22.175722
22.189004
22.201479
22.21318
22.224148
22.234419
22.244024
22.253
22.261382
22.269196
22.276477
22.283256
22.289556
22.295408
22.30084
22.305873
22.310533
22.314845
22.318828
22.322504
22.325895
22.329016
22.331888
22.334528
22.336951
22.339172
22.341208
22.343069
22.344769
22.346323
22.347738
22.349026
22.350199
22.351263
22.352228
22.353104
22.353895
22.354611
22.355257
22.355838
22.356361
22.356833
22.357254
22.357631
22.357971
22.358271
22.35854
22.358781
22.358992
22.359179
22.359347
22.359492
22.359621
22.359735
22.359833
22.359918
22.359994
22.360057
22.360112
22.36016
22.360199
22.360232
22.360262
22.360285
22.360304
22.360329
22.360367
22.360389
22.36041
22.360461
22.360521
22.36055
22.360564
22.360589
22.36065
22.360711
22.360738
22.360747
22.360793
22.360851
22.360887
22.360905
22.36094
22.360988
22.361018
22.361028
22.361049
22.361095
22.361136
22.361148
22.361159
22.361193
22.361231
22.361247
22.36126
22.361288
22.361324
22.361343
22.36136
22.361385
22.361422
22.361453
22.361483
22.361527
22.36155
22.361567
22.361574
22.361572
22.361576
22.361587
22.361601
22.361627
22.361651
22.361667
22.361669
22.361669
22.361676
22.361703
22.361731
22.361743
22.36175
22.361769
22.361795
22.361822
22.361845