/*--------------------------------*- C++ -*----------------------------------*\
  =========                 |
  \\      /  F ield         | OpenFOAM: The Open Source CFD Toolbox
   \\    /   O peration     | Website:  https://openfoam.org
    \\  /    A nd           | Version:  7
     \\/     M anipulation  |
\*---------------------------------------------------------------------------*/
FoamFile
{
    version     2.0;
    format      ascii;
    class       volScalarField;
    location    "0.00163";
    object      Uy;
}
// * * * * * * * * * * * * * * * * * * * * * * * * * * * * * * * * * * * * * //

dimensions      [0 1 -1 0 0 0 0];

internalField   nonuniform List<scalar> 
5000
(
2.1421182e-18
9.081156e-18
0
0
-1.0928264e-17
1.4957222e-32
1.535451e-17
0
0
-2.1935653e-17
-4.8244859e-17
2.6304942e-17
2.8482926e-17
-3.0655956e-17
0
-3.4985769e-17
1.6595838e-45
3.9291602e-17
0
4.3570695e-17
-4.569937e-17
-4.7820353e-17
9.9866637e-17
-5.2037943e-17
-5.413391e-17
-4.6338934e-31
5.8298626e-17
6.0366763e-17
-1.2485005e-16
1.117786e-30
-1.1625647e-30
6.8537643e-17
1.4110705e-16
-1.4511626e-16
1.292512e-30
-6.6560596e-30
-2.7220043e-30
1.6091711e-16
-1.6480586e-16
-1.6866907e-16
1.725063e-16
-6.0635926e-30
-1.8010107e-16
9.1928888e-17
2.8138024e-16
-9.5643924e-17
-9.7480234e-17
-6.8018325e-30
-2.0221906e-16
0
1.0467997e-16
1.5126422e-32
-1.0819032e-16
2.198452e-16
-3.9027704e-30
-2.2668148e-16
1.1502636e-16
-4.0297968e-30
-1.1835013e-16
0
1.2160998e-16
4.2024015e-30
3.5471776e-32
1.2637841e-16
-1.2793524e-16
4.5263009e-30
1.3099959e-16
-1.32507e-16
-1.3399786e-16
1.3547213e-16
1.3692978e-16
-1.3837079e-16
-1.3979515e-16
2.8240568e-16
1.4259386e-16
-1.4396822e-16
0
1.4666695e-16
-2.1030837e-32
-1.4929915e-16
1.5059038e-16
-4.3162642e-32
4.352022e-32
1.5436479e-16
1.5559001e-16
5.4592014e-30
-1.5799132e-16
0
-1.6032748e-16
-1.6750909e-29
-5.6842505e-30
1.637107e-16
1.6480644e-16
-3.3177261e-16
-1.1554111e-29
1.6799872e-16
0
0
-1.7105033e-16
-1.1930567e-29
3.4601555e-16
-1.7396368e-16
-3.4980904e-16
0
1.7674135e-16
1.7763756e-16
-1.7851909e-16
-1.7938607e-16
0
0
1.819007e-16
1.8271053e-16
0
-1.8428803e-16
6.4693215e-30
1.8581052e-16
-1.865513e-16
5.3227783e-32
-6.5719767e-30
3.4956591e-47
3.7876184e-16
-8.1025537e-32
-1.907172e-16
0
-1.9200231e-16
1.9262596e-16
1.9323716e-16
-3.8767202e-16
-1.9442262e-16
3.8999422e-16
1.9555957e-16
-1.9611014e-16
-1.9664888e-16
-1.9717593e-16
0
1.9819536e-16
1.9868799e-16
-1.9916941e-16
-6.922397e-30
2.0009839e-16
-2.0054643e-16
-2.009837e-16
0
2.0182579e-16
2.0223085e-16
-2.0262544e-16
2.0300962e-16
-1.1561011e-31
-2.0374706e-16
2.041005e-16
-2.0444389e-16
1.4259296e-29
2.051008e-16
-2.054145e-16
2.0571845e-16
2.0601276e-16
-2.0629748e-16
0
0
-2.0709492e-16
-2.0734207e-16
2.0758019e-16
2.0780904e-16
-2.0802853e-16
-1.4441169e-29
2.0844104e-16
-2.0863405e-16
-2.088181e-16
0
2.0915997e-16
2.0931798e-16
0
-2.0960825e-16
-2.0974065e-16
0
2.0998023e-16
4.3708064e-29
-2.1018653e-16
2.1027735e-16
2.1035997e-16
-2.1043442e-16
-1.4538193e-29
1.4482379e-29
8.9788273e-32
2.1065219e-16
-2.1068658e-16
-2.9225413e-29
1.4494181e-29
-1.4494899e-29
2.1074397e-16
0
0
-2.1070566e-16
-2.1067756e-16
0
0
2.1054773e-16
1.094932e-48
-2.1042352e-16
0
2.1026944e-16
-2.1018127e-16
-5.82172e-29
4.1996558e-16
-2.0987253e-16
-4.354945e-29
-2.9790235e-32
-2.0949805e-16
2.0935864e-16
-2.973081e-32
-2.8936517e-29
1.4457119e-29
-2.0872905e-16
0
2.0837132e-16
1.4407608e-29
5.7723789e-29
2.077815e-16
0
-2.0735301e-16
-2.0712823e-16
0
0
0
2.0615929e-16
1.4249672e-29
-2.0563318e-16
0
0
2.0479234e-16
2.0449823e-16
-2.0419729e-16
-2.0388959e-16
0
2.0325373e-16
2.0292557e-16
-2.0259063e-16
-2.0224893e-16
0
2.0154527e-16
-5.5864605e-29
-1.3926289e-29
2.0043926e-16
-2.0005717e-16
-1.9966838e-16
0
1.9887078e-16
-2.7582675e-29
1.9804655e-16
2.741011e-29
-3.9439155e-16
1.9676038e-16
-2.7228956e-29
-6.8000366e-29
-1.3524041e-29
-1.9495303e-16
1.9448474e-16
1.9400991e-16
0
-1.9304064e-16
-1.9254623e-16
0
1.9153792e-16
1.9102406e-16
-3.8100746e-16
-1.8997696e-16
1.8944377e-16
1.8890418e-16
5.2249787e-29
-1.8780585e-16
1.8724715e-16
-1.2946209e-29
-1.8611064e-16
1.8553296e-16
-1.2852307e-29
1.2837492e-29
-5.2228404e-32
-1.2649879e-29
1.8255082e-16
0
0
-1.8068732e-16
-1.8005392e-16
0
0
0
0
1.7679638e-16
1.2139136e-29
-3.5090328e-16
7.4509122e-32
1.7408337e-16
1.7339046e-16
-2.3976539e-29
-2.382986e-29
-2.433997e-32
-1.705615e-16
-1.6984005e-16
-1.6911299e-16
3.3676074e-16
5.0292663e-16
-1.6689856e-16
-3.322989e-16
0
1.6463505e-16
1.6386984e-16
-1.6309936e-16
4.6135152e-32
-6.886981e-32
4.5689802e-32
1.5996556e-16
1.5916937e-16
-1.583682e-16
-3.1512423e-16
1.5675115e-16
3.8369097e-47
1.5511479e-16
4.2755424e-29
-3.0691917e-16
0
0
3.0188499e-16
-8.3356549e-29
-2.9848459e-16
0
1.47525e-16
1.466601e-16
-1.4579113e-16
2.059411e-32
-1.9998694e-29
2.0344325e-32
1.4227589e-16
-1.4138762e-16
-1.4049571e-16
0
1.3870125e-16
-1.9132001e-29
-1.3689315e-16
2.7196839e-16
-3.7468435e-29
-1.3415685e-16
-3.6997718e-29
-2.6463501e-16
2.6278708e-16
1.3046683e-16
-1.2953747e-16
-1.8275947e-32
-1.2767114e-16
0
0
1.2485395e-16
-1.718614e-29
-2.459303e-16
1.7339776e-32
3.6320605e-16
-1.2011782e-16
-1.1916534e-16
2.3642267e-16
-1.1725591e-16
1.1629916e-16
2.3068241e-16
-1.1438213e-16
-1.1342205e-16
-1.1246106e-16
1.1149927e-16
9.1691131e-47
-1.0957371e-16
1.0861016e-16
-1.0764624e-16
1.0668206e-16
2.9295613e-29
2.9772687e-32
1.0378901e-16
-2.0564972e-16
1.01861e-16
2.8017238e-29
-2.772144e-29
-9.8972235e-17
-1.9602125e-16
2.9114957e-16
2.6654982e-29
-5.2778058e-29
2.6096637e-29
-1.8643488e-16
1.8452512e-16
-2.5328796e-29
-1.8071493e-16
0
0
8.7513135e-17
-1.2006945e-29
-8.5627097e-17
-8.4687465e-17
8.375024e-17
2.4844659e-16
-8.1883445e-17
-8.0954095e-17
-2.2745208e-32
-7.9104027e-17
0
1.5453238e-16
1.5270424e-16
-7.5441429e-17
-1.4906843e-16
-7.3630585e-17
1.4546128e-16
1.4366896e-16
-1.4188441e-16
-1.4010784e-16
0
1.365794e-16
-6.7413956e-17
-1.3308517e-16
6.5675675e-17
6.4813318e-17
-9.0886376e-33
8.7611699e-30
6.2254434e-17
-6.1411152e-17
-6.0572855e-17
5.9739634e-17
-8.1709155e-30
-8.2549147e-33
-7.9434193e-30
-5.6459337e-17
5.5652826e-17
-2.2846917e-29
-7.5052148e-30
-1.478358e-29
-5.2482956e-17
5.1704961e-17
-7.071529e-30
-1.3908928e-29
-7.0210945e-33
-9.7304871e-17
-4.7904553e-17
4.7162926e-17
9.2854963e-17
-6.3447457e-30
-8.9950721e-17
-4.4258985e-17
8.7098182e-17
4.2845599e-17
-4.2148531e-17
-4.1458031e-17
-1.1316394e-29
4.009707e-17
0
0
3.8105467e-17
0
-3.6811632e-17
3.6174874e-17
5.0512382e-33
-9.6921429e-30
0
-3.3696318e-17
3.3093874e-17
3.2498393e-17
-6.3819711e-17
-3.1328185e-17
3.0753361e-17
0
0
-2.9070663e-17
7.9244944e-30
2.7983385e-17
0
0
-2.6404321e-17
1.0788103e-29
2.5385871e-17
0
0
0
0
0
0
0
0
4.2278079e-17
1.1490421e-29
-2.0268849e-17
1.9843676e-17
-1.9425006e-17
1.9012744e-17
-5.1720492e-30
-1.820747e-17
-4.9467303e-30
-1.7427831e-17
0
0
1.6305053e-17
4.4271141e-30
-1.5587453e-17
0
0
0
0
0
0
0
2.5907318e-17
-1.0531008e-29
-2.470487e-17
1.2060046e-17
1.6730593e-33
1.1491586e-17
-6.2190187e-30
-2.1888877e-17
-1.0678688e-17
-1.2418251e-47
3.0487851e-17
0
-1.933317e-17
0
0
1.7918369e-17
-2.4224578e-30
-2.5533471e-17
8.29406e-18
8.0814987e-18
-7.873389e-18
7.6696688e-18
-7.4702878e-18
-2.0181052e-30
7.0842758e-18
-6.8975175e-18
0
-6.5361915e-18
6.3614766e-18
1.2381333e-17
-6.0237105e-18
-5.8605271e-18
-5.7010284e-18
-5.5451731e-18
1.0785856e-17
5.2441937e-18
-5.0988664e-18
0
4.818327e-18
-4.6830531e-18
-4.5510092e-18
1.3266368e-17
1.2210932e-33
-8.3472369e-18
4.0538972e-18
5.4662842e-31
3.8232065e-18
-1.055056e-33
-7.2077937e-18
3.4984093e-18
0
-9.1510223e-31
-4.5446889e-34
-3.103004e-18
3.0103451e-18
-8.1086615e-31
-3.9283844e-31
-3.9032782e-34
-2.6631706e-18
2.5818769e-18
3.7534993e-48
-6.7362262e-31
-3.3410146e-34
-4.5563665e-18
-3.0615093e-31
2.138406e-18
0
0
-1.9429361e-18
-7.8285137e-31
1.821732e-18
-1.7637887e-18
2.370794e-31
1.0346995e-47
-2.2213794e-31
1.5481668e-18
1.4977979e-18
2.0096983e-31
-1.4016124e-18
0
0
1.2675662e-18
-1.2255405e-18
9.8630758e-31
1.1453193e-18
-1.1070683e-18
0
1.0337375e-18
9.9866081e-19
-9.6470366e-19
-9.3184064e-19
0
8.6927609e-19
8.3953477e-19
-1.6213773e-18
-7.8261129e-19
7.5532572e-19
7.2891771e-19
9.7560355e-32
6.7872904e-19
1.8184022e-31
-1.2635393e-18
0
0
0
5.4706749e-19
5.2737099e-19
0
-4.899914e-19
-6.5452016e-32
4.5531317e-19
0
0
-4.0748033e-19
-5.4454871e-32
5.2389518e-32
-3.6409109e-19
3.5071282e-19
-1.4060543e-31
-3.2545512e-19
0
-3.0140386e-19
-4.0271695e-32
2.7916797e-19
-2.6870447e-19
2.5869025e-19
2.4903506e-19
-2.3958684e-19
0
2.2149301e-19
2.1311847e-19
-2.0515465e-19
-1.9738037e-19
0
-1.8219949e-19
1.7504066e-19
1.683138e-19
-1.6195201e-19
-3.1156404e-19
8.3154624e-32
4.3149858e-19
2.6994277e-49
-1.326259e-19
-2.5468483e-19
6.783659e-32
2.3483582e-19
-1.127735e-19
1.0833339e-19
-1.0407309e-19
-9.9965664e-20
1.9197253e-19
0
0
-1.6959777e-19
-1.2750712e-48
1.5626492e-19
0
0
-1.3769788e-19
-1.0280181e-48
1.2692087e-19
0
0
-1.117176e-19
-5.347718e-20
1.0247735e-19
4.9133711e-20
0
-9.03405e-20
2.4030681e-32
8.2810985e-20
-3.95853e-20
0
3.6227528e-20
-3.4673997e-20
4.7135066e-36
3.1719853e-20
-3.0334652e-20
2.8983372e-20
2.7647059e-20
-2.6366349e-20
-2.5186813e-20
6.6889338e-33
2.3013439e-20
-2.1836149e-20
-5.732641e-33
1.9694975e-20
-1.8876767e-20
1.8033381e-20
1.7174862e-20
-1.6197331e-20
-1.5352433e-20
4.0785947e-33
1.4002538e-20
-1.3325239e-20
1.7451637e-36
1.1448254e-20
-1.1148834e-20
1.076756e-20
9.5040022e-21
-8.6700463e-21
-1.7661248e-20
4.672148e-33
1.4771682e-20
-6.9923043e-21
1.0012997e-36
1.3907218e-20
1.8944497e-36
-6.1853476e-21
0
5.6160343e-21
0
-5.098379e-21
0
0
0
-4.243782e-21
-9.6685122e-51
3.7937894e-21
0
3.4755661e-21
-9.0618878e-34
-3.1027705e-21
0
0
0
-2.7733866e-21
7.2543102e-34
2.5089272e-21
0
2.4771426e-21
6.8005837e-34
-2.3577006e-21
0
2.2170212e-21
-2.2428177e-21
1.2738823e-33
2.3049388e-21
-2.2564765e-21
0
-2.2266489e-21
-6.406562e-34
2.3994331e-21
0
2.4897045e-21
-2.5364611e-21
-1.4620828e-33
2.7557412e-21
-1.5933979e-33
-4.2161518e-37
8.5277693e-34
-4.5404757e-37
-3.3407352e-21
0
3.5764026e-21
-1.032104e-33
-1.0872196e-33
-7.8405722e-51
-1.1914072e-33
0
-9.0566042e-21
-1.2989017e-33
4.8898417e-21
-5.1286394e-21
1.4780001e-33
5.4737804e-21
5.6078901e-21
1.5895342e-33
-1.6136019e-33
5.9600462e-21
-6.1473336e-21
-6.2924695e-21
0
-6.2631952e-21
1.7283375e-33
6.4950922e-21
0
0
0
-1.2676702e-20
7.1972303e-33
1.3433103e-20
0
0
0
0
0
0
0
-1.2470167e-20
3.1576933e-33
1.1332032e-20
5.8517975e-21
-6.1312584e-21
-6.2648394e-21
1.7341726e-33
3.358256e-33
5.6590803e-21
-5.4475879e-21
5.5449093e-21
5.610422e-21
-5.4940096e-21
-4.8081167e-21
2.3880984e-33
4.3572414e-21
4.5504577e-21
-1.301628e-33
-4.7007355e-21
-4.6456379e-21
4.5495619e-21
4.4101358e-21
-4.2388215e-21
4.0766793e-21
0
-3.915739e-21
-3.8559357e-21
1.044479e-33
3.6284777e-21
-3.526525e-21
3.5031692e-21
3.468529e-21
-3.3631557e-21
3.2252002e-21
8.5355696e-34
-3.0112517e-21
-3.0511341e-21
-4.3646099e-37
6.0046513e-21
1.6031982e-33
-2.8082166e-21
-2.7869827e-21
0
2.7807357e-21
0
0
0
2.5007345e-21
2.5367174e-21
-2.5321597e-21
-2.4643474e-21
0
2.2765413e-21
-6.2647336e-34
-2.2983146e-21
0
0
2.2560572e-21
-1.2086613e-33
-2.1324711e-21
0
0
2.1933349e-21
-1.2173368e-33
-2.1635544e-21
0
2.1247316e-21
-5.9446538e-34
6.0740911e-34
-6.1654272e-34
-2.2136177e-21
0
-2.1546114e-21
1.2195824e-33
2.3053356e-21
0
2.4547549e-21
-2.4613371e-21
-2.4697833e-21
5.0122924e-21
7.1336613e-34
-5.2920349e-21
7.5476365e-34
2.7780414e-21
0
0
2.960255e-21
-8.3110776e-34
-3.0325043e-21
0
3.1724265e-21
-3.2543649e-21
-3.3005305e-21
3.3134976e-21
0
-3.400138e-21
3.4925248e-21
1.9800395e-33
-1.9931327e-33
3.5845116e-21
-2.9853566e-33
3.5801755e-21
-3.5947553e-21
1.01192e-33
-2.0638488e-33
-7.4935248e-21
1.0327601e-33
3.6816502e-21
0
0
0
-7.3151807e-21
-3.6559464e-21
7.1879865e-21
3.4483694e-21
0
0
3.436635e-21
3.9577513e-51
-3.3876986e-21
0
-6.3430112e-21
-3.1326017e-21
6.3045359e-21
3.1418098e-21
0
-5.9212816e-21
-8.0909084e-37
8.3372221e-21
-7.7235361e-34
-5.5600152e-21
2.733267e-21
1.5036579e-36
-2.5389911e-21
6.8497939e-34
1.3570882e-33
2.4546863e-21
0
2.3647338e-21
-1.2649994e-33
-4.4182495e-21
2.1787104e-21
-3.6496479e-33
-2.1921567e-21
4.314694e-21
-2.9893848e-37
-2.0532217e-21
0
0
0
-2.045625e-21
2.0223365e-21
4.0076554e-21
-2.0050145e-21
-5.6046719e-34
-5.6277249e-34
-2.0271768e-21
0
2.0335892e-21
-2.929287e-37
-4.1796486e-21
2.0985642e-21
1.1639461e-33
-2.1120917e-21
-2.1453839e-21
1.2140718e-33
4.4023443e-21
0
2.2141471e-21
2.2442457e-21
0
-2.3262201e-21
-2.3237506e-21
2.2995401e-21
0
-2.3600338e-21
0
0
2.4828837e-21
-2.0346222e-33
-2.3856412e-21
0
0
2.5701203e-21
2.6325284e-21
-2.637605e-21
-2.5945413e-21
2.5552582e-21
2.5169689e-21
-5.038755e-21
-2.5875309e-21
7.3869911e-34
2.6851398e-21
-1.4764194e-33
-1.456276e-33
2.586373e-21
-2.5725901e-21
2.6049974e-21
-2.6420268e-21
-2.2639566e-36
2.6360274e-21
-5.1924921e-21
-2.5706264e-21
-2.5806101e-21
5.2294927e-21
5.263644e-21
-2.6032116e-21
2.5585001e-21
-2.5171807e-21
1.3911225e-33
5.0799823e-21
-2.5721611e-21
7.1337633e-34
-7.0597442e-34
-2.5122376e-21
0
0
2.4768174e-21
2.4888328e-21
0
-2.4748207e-21
-2.4493311e-21
0
-2.4134341e-21
6.7010182e-34
2.4128739e-21
-2.4016902e-21
6.5926382e-34
2.3617501e-21
0
2.3726773e-21
1.3028727e-33
-2.3009231e-21
2.266193e-21
-6.2815156e-34
-2.3012657e-21
-2.3170573e-21
-6.3480126e-34
2.2419884e-21
0
-2.1830693e-21
2.2157644e-21
-6.3851709e-37
1.2459581e-33
2.2034648e-21
-2.1558609e-21
0
-4.2465354e-21
4.7857031e-33
2.1737728e-21
1.2004068e-33
4.2623756e-21
-4.1903722e-21
-4.1529359e-21
4.1690157e-21
4.2117406e-21
2.114014e-21
0
-2.0650978e-21
-4.0910385e-21
2.9047846e-37
-2.0643272e-21
2.0802919e-21
2.0701739e-21
-2.0500134e-21
4.074011e-21
-4.0705197e-21
-3.4130201e-33
4.1329731e-21
-4.1456623e-21
1.1495158e-33
-2.0689607e-21
2.067013e-21
2.0609548e-21
-2.0535575e-21
-5.6913793e-34
-4.1291558e-21
4.1902333e-21
4.2470537e-21
-4.2677745e-21
-5.9234343e-34
-2.1379747e-21
1.1928074e-33
2.1596476e-21
6.0181058e-34
-6.3005299e-51
2.2146227e-21
4.4784434e-21
-2.2492163e-21
-1.0737905e-50
-2.2147745e-21
-3.6894339e-33
2.2698175e-21
-4.6997537e-21
1.3298535e-33
4.7959198e-21
1.6069613e-51
-2.3354959e-21
0
0
-2.4778848e-21
2.5427877e-21
5.1334304e-21
0
0
0
-2.5204003e-21
-2.5816029e-21
0
2.696255e-21
-2.6955406e-21
-4.4646334e-33
5.3292727e-21
0
0
0
-2.757357e-21
-2.7776047e-21
2.7803291e-21
-2.7705377e-21
-1.5332232e-33
5.4773147e-21
0
0
-5.5186652e-21
7.833361e-37
2.7378575e-21
-2.6902256e-21
2.6549352e-21
-2.6727771e-21
1.4942458e-33
5.3691618e-21
0
0
-2.5440378e-21
-2.5528443e-21
0
0
2.5363822e-21
2.4688676e-21
0
-2.3568156e-21
-2.3797886e-21
2.4018386e-21
-2.3896582e-21
-2.3365547e-21
2.2745903e-21
2.2092431e-21
-1.2002496e-33
-2.1536732e-21
2.1585335e-21
5.9417332e-34
-2.0962152e-21
0
-1.9833326e-21
1.0758917e-33
1.9186222e-21
-1.9089371e-21
1.0483634e-33
1.8443598e-21
0
-1.7445907e-21
4.7545494e-34
2.4075505e-37
-1.674576e-21
1.6391834e-21
1.5945849e-21
0
-3.0616936e-21
1.6748378e-33
1.4783257e-21
2.0475953e-37
2.8015389e-21
-2.7434293e-21
-2.7135504e-21
2.6807848e-21
1.3113286e-21
0
-2.4725739e-21
2.017021e-33
2.3960524e-21
0
-2.2849553e-21
-6.0971478e-34
1.069918e-21
2.95489e-34
2.1414994e-21
-2.1252874e-21
-2.5704814e-33
1.9609415e-21
-1.8779358e-21
5.1244005e-34
1.8575788e-21
9.3677746e-22
-1.8511497e-21
-8.8987288e-22
1.6961132e-21
-1.6389105e-21
-2.0288079e-33
1.6393146e-21
-1.6525054e-21
2.2700714e-34
-7.8913351e-22
8.3455375e-34
2.1740142e-21
-3.9821998e-34
-1.4523053e-21
7.3800488e-22
1.4742301e-21
-7.1762923e-22
3.8188045e-34
-6.6696276e-22
-7.428003e-34
6.8711659e-22
-1.413732e-21
5.9003152e-34
-7.6085629e-34
3.6201522e-34
6.3635688e-22
0
6.8607579e-22
7.1837693e-22
0
0
0
0
0
-7.3277907e-22
-7.6374158e-22
0
8.210198e-22
-8.4104875e-22
-1.4170423e-33
1.7022194e-21
0
0
0
-9.5171871e-22
-9.9489421e-22
1.0292617e-21
1.0533922e-21
-2.1452567e-21
-1.8229956e-33
2.242582e-21
0
-2.3813027e-21
-2.0532745e-33
1.2709218e-21
-1.2998525e-21
1.3230503e-21
-1.3485213e-21
-7.6735813e-34
2.8517879e-21
0
0
-1.5618822e-21
-1.589998e-21
0
-1.6320703e-21
-4.6927201e-37
-1.6652999e-21
1.6904878e-21
5.2231337e-21
0
3.7074353e-21
3.749936e-21
0
-5.6309893e-21
-3.7554548e-21
3.7862858e-21
-1.9411912e-21
-1.9904268e-21
6.0727841e-21
2.0389289e-21
2.8995821e-37
2.0411525e-21
-2.0416567e-21
-2.0413223e-21
-2.0490614e-21
5.5369099e-52
-2.0845613e-21
-2.0899294e-21
2.0829767e-21
0
4.1009016e-21
4.0862548e-21
0
-2.0571372e-21
-4.0884906e-21
-1.119127e-33
-1.9861927e-21
-3.9348254e-21
3.9423857e-21
3.9413115e-21
1.9492908e-21
1.9175938e-21
0
-1.846768e-21
-5.522154e-21
1.8343381e-21
2.126607e-49
-5.3433719e-21
3.4750267e-21
1.7025705e-21
1.6874913e-21
3.3613454e-21
-3.3315458e-21
-1.6333896e-21
1.5926127e-21
1.5573391e-21
1.5350691e-21
-4.5795372e-21
-1.513376e-21
4.4628858e-21
1.4556897e-21
-1.4240352e-21
-2.8012653e-21
1.3874705e-21
-1.3778292e-21
2.2701425e-33
-2.2390107e-33
-3.9808063e-21
1.3139549e-21
1.302617e-21
2.5727641e-21
1.2682342e-21
-2.5116998e-21
-3.5592443e-37
-1.2560596e-21
1.2577799e-21
3.7484315e-21
-3.7165634e-21
-1.234218e-21
3.7114448e-21
0
-3.761191e-21
-1.2532413e-21
3.7527738e-21
-1.2557357e-21
-2.5393056e-21
-7.1618301e-34
1.4519912e-33
1.3163497e-21
0
2.6669717e-21
2.700027e-21
-1.3675051e-21
-1.3813382e-21
-2.7866937e-21
1.4049629e-21
1.4231188e-21
-2.9043871e-21
0
3.0016959e-21
3.0141758e-21
-1.5121705e-21
-3.0465567e-21
8.5798709e-34
1.5827068e-21
-3.2376984e-21
1.6397151e-21
-5.4817525e-33
-3.3044703e-21
1.6609666e-21
0
3.4057471e-21
0
-3.9014928e-33
-1.765222e-21
-3.5398508e-21
5.3241825e-21
-5.0701936e-37
-3.6096072e-21
0
3.6692528e-21
1.8322484e-21
-3.6561304e-21
2.0339851e-33
1.8551715e-21
-3.7443095e-21
1.8688091e-21
-3.0925567e-33
-3.6714501e-21
1.8238856e-21
-1.8416541e-21
3.7374717e-21
5.6395399e-21
0
-5.5255082e-21
-3.6288157e-21
5.3912682e-21
3.6184625e-21
-1.8257337e-21
-3.6513321e-21
1.8036897e-21
1.7740565e-21
-3.4856603e-21
1.7245076e-21
3.461734e-21
-1.7371903e-21
2.4541937e-37
-3.395449e-21
-3.3222903e-21
4.8809029e-21
-1.6085874e-21
-2.6829571e-33
4.8281719e-21
0
-4.6897422e-21
-3.0555054e-21
1.497545e-21
1.4799248e-21
1.4736959e-21
0
1.4369269e-21
-7.8081418e-34
-2.7509709e-21
7.4961341e-34
1.3374579e-21
0
1.3043041e-21
-2.5562174e-21
-3.7488739e-21
2.4543272e-21
3.6399788e-21
1.2003304e-21
-1.1786565e-21
-2.3044349e-21
1.1287075e-21
-1.1137523e-21
-1.1080311e-21
2.1938185e-21
-2.1460629e-21
-1.0453966e-21
3.0658363e-21
2.0225115e-21
-1.0141664e-21
-3.0541749e-21
2.2413353e-33
-2.1868994e-33
-9.6014563e-22
-1.0491709e-33
-9.4254681e-22
9.518146e-22
9.6038509e-22
9.5892769e-22
-9.4685673e-22
-9.3419069e-22
2.7838226e-21
-9.2813538e-22
-1.8676381e-21
2.8252111e-21
2.6967796e-37
-9.5135002e-22
1.8971402e-21
9.4622678e-22
0
-9.5523314e-22
-9.6847613e-22
-1.9644208e-21
9.9035269e-22
-3.3010333e-33
-2.9755985e-21
9.9899695e-22
1.0135423e-21
1.0332521e-21
-1.047973e-21
-1.0510034e-21
3.1556411e-21
-1.0581151e-21
-2.1430754e-21
-1.8216518e-33
-1.1126414e-21
2.2419793e-21
3.3726091e-21
6.2640541e-34
-6.3255334e-34
-1.6449311e-37
-1.1754859e-21
-2.3738255e-21
-1.1935399e-21
3.5995427e-21
-1.3428883e-33
-2.4390291e-21
0
0
1.232146e-21
-6.8666845e-34
6.9475354e-34
1.2718988e-21
-2.566255e-21
-1.2777754e-21
-1.4083826e-33
1.2629384e-21
3.7991373e-21
1.2861853e-21
0
0
0
-3.8768122e-21
-2.5697388e-21
3.8553047e-21
-1.4413181e-33
-2.6194597e-21
0
0
2.5863192e-21
-2.8552407e-33
-1.4265871e-33
2.5829732e-21
-1.2954482e-21
-2.5785043e-21
-2.5566346e-21
1.2690117e-21
3.7944515e-21
1.2682685e-21
0
0
0
-3.7136753e-21
-2.4663995e-21
3.7165895e-21
-2.7553726e-33
-1.2325565e-21
1.7306788e-37
-1.2018882e-21
2.3860066e-21
-1.3264332e-33
-1.2022333e-21
2.4154029e-21
0
-6.6242033e-34
-2.3602516e-21
-2.337519e-21
3.480233e-21
2.3150625e-21
-1.162846e-21
-6.4812981e-34
1.1656312e-21
-3.4625295e-21
-2.2821745e-21
1.132706e-21
1.1325773e-21
-1.1414875e-21
-1.1462407e-21
1.141163e-21
1.1315995e-21
-6.2294798e-34
6.2126563e-34
1.1256556e-21
0
1.133291e-21
-2.2543181e-21
-3.3573564e-21
2.2330362e-21
2.2431829e-21
1.1309702e-21
-1.2620509e-33
-2.269945e-21
1.1307365e-21
-1.1297296e-21
-1.13273e-21
2.2762738e-21
-2.2811923e-21
-1.1408226e-21
1.1404183e-21
2.2889752e-21
1.1568577e-21
-2.3305794e-21
6.4592686e-34
-1.1580144e-21
-1.1503467e-21
3.4568364e-21
-1.1688336e-21
-1.1927783e-21
3.6243281e-21
-1.7184128e-37
-3.6157267e-21
-1.2033628e-21
3.6239799e-21
-1.2221034e-21
5.8684067e-50
-2.0867564e-33
-2.5179197e-21
2.5243565e-21
2.5357212e-21
-1.2783728e-21
1.4393816e-33
2.6239307e-21
-1.3186634e-21
-3.9637298e-21
-1.3236472e-21
1.3294234e-21
0
1.3650088e-21
2.7751469e-21
-1.9912804e-37
-4.2140396e-21
-1.4068284e-21
2.8214894e-21
-2.0135116e-37
-2.8610302e-21
2.9037437e-21
-2.4515065e-33
-2.9656099e-21
4.4660797e-21
2.992579e-21
0
0
-1.5241045e-21
-4.5980288e-21
-1.5368474e-21
4.6198587e-21
-1.7223544e-33
-3.1257532e-21
3.1357708e-21
3.1370231e-21
-1.5603651e-21
-3.105912e-21
1.5601967e-21
1.5770737e-21
-4.7706454e-21
-1.5907403e-21
-2.6390314e-33
8.7347508e-34
1.5652345e-21
-1.5686478e-21
3.1524732e-21
4.7273624e-21
0
-4.6752686e-21
-3.0974177e-21
4.6139327e-21
-4.3297116e-37
-1.5054875e-21
2.9829254e-21
-1.4817374e-21
-1.4722513e-21
-1.6161817e-33
1.4305707e-21
2.8064811e-21
-1.3818485e-21
-2.7358707e-21
-2.7081467e-21
1.4784507e-33
1.3000936e-21
-1.2679727e-21
2.4817158e-21
3.6564007e-21
0
-3.4831249e-21
-2.247702e-21
3.2707466e-21
-1.1802424e-33
-1.0345664e-21
9.9603926e-22
9.5119218e-22
-5.0401437e-34
-1.745658e-21
4.6875945e-34
1.6285156e-21
-8.6240737e-34
-8.1371597e-34
-1.3746472e-21
-1.9353301e-21
1.213566e-21
-6.3144343e-34
-1.7540215e-33
4.8329338e-22
4.4402518e-22
8.1710611e-22
-1.1115055e-21
-3.2532347e-22
5.487482e-22
-4.5345007e-22
-1.0795005e-37
4.8216211e-22
1.3091391e-22
-9.4175306e-23
-1.4668157e-22
4.3260301e-37
-8.426696e-23
-7.3756345e-23
1.9936114e-22
3.810208e-22
-4.7784961e-22
-1.9708371e-22
-2.6365579e-34
-2.7336963e-22
6.0022797e-22
-1.7805238e-34
3.4110306e-22
-3.6409609e-22
1.3007331e-33
1.2542427e-21
-1.326048e-21
-1.3827669e-21
0
0
0
5.2176162e-22
1.585811e-21
5.3433351e-22
6.0108309e-34
5.5209463e-22
-1.6928731e-21
-5.697792e-22
5.6571221e-22
5.5751381e-22
5.5074097e-22
-1.0982839e-21
5.5165764e-22
-5.5033806e-22
1.7954642e-33
1.0414973e-21
-1.5062498e-21
-9.7591231e-22
0
9.3428452e-22
4.9682296e-34
-4.2073085e-22
1.1788109e-21
3.6851899e-22
-3.5001891e-22
0
0
-2.7338265e-22
-4.6938553e-22
4.3963978e-34
3.331477e-22
1.3925229e-22
-1.0972071e-22
7.445086e-23
-3.5921157e-23
-1.8195604e-49
-5.9134577e-35
2.1542789e-22
0
0
-4.1187982e-22
-4.9283345e-22
-2.7633216e-22
3.3727241e-34
1.0233529e-21
-4.3383299e-34
-8.9299287e-22
0
1.0841511e-21
5.6665271e-22
-1.1735574e-21
6.1684881e-22
6.6240739e-22
-2.1570628e-21
7.756985e-22
-2.7427491e-33
-1.7135023e-21
2.6305035e-21
1.7941281e-21
0
0
0
-3.1778213e-21
-2.2053369e-21
3.4003861e-21
2.3016599e-21
0
-2.3630614e-21
1.3361087e-33
1.2383568e-21
-2.5619386e-21
1.3212306e-21
-1.3468039e-21
-1.3551006e-21
4.0802581e-21
-2.7250246e-21
-2.7390482e-21
1.3953294e-21
-1.4321926e-21
2.9294073e-21
4.4385535e-21
0
-4.4286464e-21
-2.934549e-21
1.4626906e-21
1.4818476e-21
-1.6779807e-33
1.5294507e-21
-5.0954337e-33
-1.5219368e-21
-8.3715488e-34
1.5814513e-51
1.4878034e-21
0
1.5203096e-21
-3.0472294e-21
-4.537199e-21
4.4933174e-21
4.4203574e-21
0
-2.9163902e-21
-2.9403413e-21
2.9440926e-21
-1.4575569e-21
-1.4378574e-21
4.2324065e-21
-2.7749902e-21
-2.771661e-21
1.3904343e-21
2.7756199e-21
1.3725693e-21
-4.051767e-21
-1.325377e-21
-2.1738176e-33
2.6011252e-21
7.3655312e-37
-3.8524833e-21
2.5332115e-21
3.7237558e-21
1.2175655e-21
-3.6155768e-21
-2.4029254e-21
3.5856188e-21
-2.6145876e-33
-2.3091233e-21
-1.1299906e-21
6.1604932e-34
2.2054411e-21
-1.2206788e-33
1.0910799e-21
1.0737312e-21
-3.160661e-21
-1.0350089e-21
-1.1307623e-33
2.0112001e-21
-3.3105202e-33
-2.947958e-21
1.944741e-21
-1.0664181e-33
-1.0505361e-33
-2.0638661e-33
-9.1089586e-22
2.6863466e-21
-8.8730942e-22
-1.471217e-33
-2.9197991e-33
-2.5819414e-21
8.4168138e-22
1.6498539e-21
-9.0399602e-34
8.127224e-22
8.1006373e-22
-1.6004158e-21
-1.5667667e-21
8.4905945e-34
2.2560056e-21
-8.2980368e-34
-7.4933689e-22
1.492113e-21
-7.3436717e-22
-7.1869643e-22
3.9026403e-34
-3.8556964e-34
6.9370397e-22
-1.3919406e-21
6.9285665e-22
-2.2681094e-33
-2.2204173e-33
1.9659853e-21
-1.2987706e-21
1.8461216e-37
1.2987386e-21
-6.4417195e-22
-1.9016046e-21
-6.229627e-22
1.8509059e-21
-6.8468483e-34
-6.1957457e-22
1.2358872e-21
-1.2152119e-21
-2.9761167e-33
5.8780395e-22
-5.8638397e-22
5.9158542e-22
-1.1945779e-21
5.9608816e-22
1.7572072e-21
0
0
-1.1373981e-21
-1.6350173e-37
1.1651878e-21
-5.8403673e-22
-1.7320218e-21
-5.6947475e-22
1.6972307e-21
1.6121012e-37
6.3686435e-34
1.1610292e-21
-1.747839e-21
-2.8902852e-33
5.7407399e-22
-5.7374335e-22
-5.7829333e-22
6.5207919e-34
5.9285743e-22
-1.1842162e-21
1.1779645e-21
-1.958043e-33
-1.1853387e-21
1.8103258e-21
1.2282716e-21
-6.1746176e-22
-1.8342941e-21
-6.0504274e-22
6.0590862e-22
0
-6.3439061e-22
6.5019038e-22
1.9640223e-21
3.5876122e-34
-1.2751678e-21
6.354325e-22
6.4321264e-22
-1.3224774e-21
6.8014383e-22
-6.9125897e-22
-1.3816913e-21
2.0517013e-21
-2.2633559e-33
1.5115703e-33
1.378019e-21
-1.4084389e-21
-7.1951837e-22
-7.2660509e-22
-8.0415281e-34
7.1805057e-22
-1.428995e-21
1.4338842e-21
2.1810726e-21
0
-7.5022964e-22
4.1639096e-34
2.1128585e-37
-2.2105655e-21
-7.3534311e-22
2.2235141e-21
-7.529163e-22
2.0776083e-51
2.2832521e-21
-7.528804e-22
-2.2330161e-21
-7.3979859e-22
1.4830771e-21
-7.4957454e-22
7.558233e-22
-2.5112302e-33
-1.4885538e-21
2.2018597e-21
8.0712788e-34
-3.2170593e-33
1.4561748e-21
-1.4616025e-21
-8.0662286e-34
7.1512757e-22
-1.4056252e-21
-6.9354492e-22
0
0
1.3779087e-21
-1.5136549e-33
-3.7962408e-37
-7.2545004e-34
-6.4235943e-22
-6.3574996e-22
6.33479e-22
6.3056423e-22
-1.2458847e-21
1.220541e-21
-6.6245889e-34
-1.1701441e-21
1.150226e-21
1.8870981e-33
-6.202897e-34
5.5083694e-22
-1.085291e-21
5.3271016e-22
-1.1558408e-33
-1.014428e-21
0
9.7103858e-22
4.8013385e-22
-9.5222318e-22
-4.6880651e-22
4.5646277e-22
-7.3651302e-34
-4.3031877e-22
0
0
8.3404336e-22
8.2145409e-22
0
-7.7958689e-22
-3.8319525e-22
3.8044158e-22
-3.8001644e-22
3.7915762e-22
0
-7.3542054e-22
0
0
3.4751343e-22
-3.8102232e-34
-3.4372236e-22
0
3.5864256e-22
2.0356887e-34
-3.7047692e-22
0
7.2276577e-22
7.1640322e-22
-3.5976634e-22
-4.0408887e-34
3.6846354e-22
-7.4639234e-22
-7.6288898e-22
7.8817527e-22
1.1626725e-37
9.3930176e-34
1.2177339e-37
-8.4417335e-22
4.1460099e-22
-4.6229564e-34
4.3137053e-22
-4.5573348e-22
-1.4396034e-21
1.4931786e-21
5.0606086e-22
-5.068553e-22
-5.6233536e-34
-5.1080572e-22
1.0423152e-21
1.076687e-21
-1.1216316e-21
-1.941511e-33
-5.9905152e-22
-6.052717e-22
1.2103953e-21
-6.0774197e-22
6.8435925e-34
-3.5154538e-34
6.5595479e-22
1.3564486e-21
-1.3842616e-21
-1.3908991e-21
0
6.9850627e-22
7.8455786e-34
-1.4427812e-21
-8.2159478e-34
2.2695805e-21
1.5310697e-21
0
-1.5362255e-21
-1.7116684e-33
-7.7631086e-22
-7.8572672e-22
2.3871421e-21
-4.448441e-34
-1.6045396e-21
8.0114066e-22
1.6014626e-21
-8.0253056e-22
-1.616192e-21
-8.107476e-22
0
1.599231e-21
-7.9171216e-22
-2.3592746e-21
7.8682279e-22
7.9037657e-22
1.5771656e-21
7.7816177e-22
-1.5285589e-21
-7.5048411e-22
-7.3956714e-22
8.1433271e-34
7.3020804e-22
7.2471108e-22
1.4259055e-21
6.9606248e-22
0
0
0
-1.2685976e-21
-1.2466024e-21
1.221929e-21
6.5985327e-34
6.361873e-34
-6.1136775e-34
-1.177747e-33
1.0258823e-21
0
-9.6707425e-22
-4.651988e-22
4.4332408e-22
-4.2067125e-22
-3.9964641e-22
0
0
6.8036637e-22
-1.0627486e-33
-6.6588752e-34
5.6480259e-22
-5.2725892e-22
-4.8281683e-22
0
3.8724885e-22
-1.9553824e-34
-3.254364e-22
2.9824204e-22
1.4560073e-34
-2.1508583e-22
0
1.2567637e-22
5.0078085e-23
-8.0872395e-23
2.9299927e-23
2.9710282e-35
1.3761518e-23
-5.2450304e-23
-8.0090352e-23
0
0
0
1.6278493e-22
1.9184649e-22
-2.1152688e-22
0
2.2637704e-22
0
1.2743279e-22
-2.8072403e-22
-1.4972983e-22
1.5081965e-22
-2.9283665e-22
-1.4225483e-22
2.8345572e-22
1.4671154e-22
1.7278235e-34
-1.6132782e-22
3.5205519e-34
-8.4963841e-38
-2.7979454e-22
0
1.3182891e-22
2.6505164e-22
1.2956742e-22
0
0
0
8.9776826e-23
-1.7353459e-22
-8.2067031e-23
7.0079363e-23
5.1718158e-23
-3.2046058e-23
-1.5627575e-23
1.3617145e-23
0
-9.6855557e-24
1.5750431e-23
0
0
-1.6770385e-22
-1.1287289e-34
-1.1203111e-22
-1.1558182e-22
1.1963319e-22
-1.3261968e-22
1.5605719e-22
3.6964041e-22
2.1248053e-22
0
-5.0398317e-22
-2.8715407e-34
2.6144672e-22
-2.7042263e-22
-2.9161624e-22
-6.4365373e-22
7.0629259e-22
3.8009535e-22
-1.1319038e-37
4.0517946e-22
-8.1467747e-22
4.1428853e-22
-4.3158177e-22
7.0520335e-50
4.8991991e-22
-1.0332615e-21
1.0730501e-21
1.0962663e-21
0
-5.6175156e-22
-1.1464651e-21
3.2746712e-34
6.1361127e-22
6.3840333e-22
-1.3192473e-21
-1.3491587e-21
6.8381035e-22
1.3820314e-21
1.4002447e-21
-7.1019025e-22
-1.4449456e-21
7.4002372e-22
-7.5952528e-22
1.2919954e-33
7.8573932e-22
-1.5812545e-21
1.5923925e-21
8.8962537e-34
-4.4895483e-33
1.6454817e-21
-1.6788347e-21
-3.77898e-33
8.543842e-22
-1.7115045e-21
8.5668944e-22
-2.4419244e-37
3.8566609e-33
8.8162928e-22
-1.781953e-21
1.9810648e-33
-4.9428095e-34
8.8861478e-22
-2.5229959e-37
-1.7859533e-21
1.8004116e-21
5.1401397e-37
-4.0128066e-33
1.8002644e-21
-1.7933479e-21
-1.988698e-33
1.793049e-21
-8.9583813e-22
-8.9244287e-22
-8.8567865e-22
8.7927336e-22
-9.7441563e-34
-1.7524682e-21
0
0
1.7025159e-21
2.3903727e-37
-1.6748025e-21
8.3729414e-22
-9.2533188e-34
8.2222367e-22
1.7927489e-33
-1.5857063e-21
0
-7.7912376e-22
1.5519555e-21
7.6737268e-22
-1.6711275e-33
7.3518704e-22
-1.4399037e-21
7.0989943e-22
-7.8247078e-34
-1.3955288e-21
0
0
6.4980644e-22
-3.5239537e-34
6.2494821e-22
-6.1794285e-22
-1.8235232e-21
1.7749637e-21
5.7337694e-22
-1.1123956e-21
5.4235099e-22
8.8704623e-34
5.2268756e-22
-2.8921046e-37
-1.6352226e-33
4.7262217e-22
-9.1566305e-22
-4.4703014e-22
0
-4.2572456e-22
4.0816098e-22
3.8943312e-22
3.7412777e-22
-8.0617515e-34
3.937851e-34
-3.8164514e-34
-6.555858e-22
3.0930338e-22
4.8828346e-34
-5.6585996e-22
3.9324714e-38
2.6988828e-22
5.1455449e-22
4.7566277e-22
-4.3779974e-22
-2.3011802e-34
-2.0268272e-22
-2.0088312e-22
3.9109068e-22
-3.6462152e-22