/*--------------------------------*- C++ -*----------------------------------*\
  =========                 |
  \\      /  F ield         | OpenFOAM: The Open Source CFD Toolbox
   \\    /   O peration     | Website:  https://openfoam.org
    \\  /    A nd           | Version:  7
     \\/     M anipulation  |
\*---------------------------------------------------------------------------*/
FoamFile
{
    version     2.0;
    format      ascii;
    class       surfaceScalarField;
    location    "0.00272";
    object      phi;
}
// * * * * * * * * * * * * * * * * * * * * * * * * * * * * * * * * * * * * * //

dimensions      [1 0 -1 0 0 0 0];

internalField   nonuniform List<scalar> 
4999
(
1.235838
1.235838
1.235838
1.2358379
1.2358379
1.2358379
1.2358379
1.2358379
1.2358379
1.2358378
1.2358378
1.2358378
1.2358378
1.2358378
1.2358378
1.2358377
1.2358377
1.2358377
1.2358377
1.2358377
1.2358377
1.2358376
1.2358376
1.2358376
1.2358376
1.2358376
1.2358376
1.2358375
1.2358375
1.2358375
1.2358375
1.2358375
1.2358375
1.2358375
1.2358374
1.2358374
1.2358374
1.2358374
1.2358374
1.2358374
1.2358373
1.2358373
1.2358373
1.2358373
1.2358373
1.2358373
1.2358372
1.2358372
1.2358372
1.2358372
1.2358372
1.2358372
1.2358372
1.2358371
1.2358371
1.2358371
1.2358371
1.2358371
1.2358371
1.235837
1.235837
1.235837
1.235837
1.235837
1.235837
1.235837
1.2358369
1.2358369
1.2358369
1.2358369
1.2358369
1.2358369
1.2358369
1.2358368
1.2358368
1.2358368
1.2358368
1.2358368
1.2358368
1.2358368
1.2358367
1.2358367
1.2358367
1.2358367
1.2358367
1.2358367
1.2358367
1.2358366
1.2358366
1.2358366
1.2358366
1.2358366
1.2358366
1.2358365
1.2358365
1.2358365
1.2358365
1.2358365
1.2358364
1.2358364
1.2358364
1.2358364
1.2358363
1.2358363
1.2358363
1.2358362
1.2358362
1.2358362
1.2358361
1.2358361
1.235836
1.235836
1.2358358
1.2358355
1.2358347
1.235833
1.2358294
1.2358242
1.235817
1.2358072
1.2357942
1.2357772
1.2357554
1.2357279
1.2356942
1.2356538
1.2356068
1.2355535
1.2354945
1.235431
1.2353642
1.2352958
1.2352272
1.2351599
1.2350954
1.2350348
1.2349788
1.2349282
1.2348832
1.2348438
1.23481
1.2347813
1.2347574
1.2347377
1.2347217
1.2347089
1.2346987
1.2346908
1.2346846
1.2346799
1.2346763
1.2346736
1.2346715
1.23467
1.2346689
1.2346681
1.2346675
1.2346671
1.2346668
1.2346665
1.2346664
1.2346662
1.2346661
1.2346661
1.234666
1.234666
1.234666
1.2346659
1.2346659
1.2346659
1.2346659
1.2346658
1.2346658
1.2346658
1.2346658
1.2346658
1.2346657
1.2346657
1.2346657
1.2346657
1.2346657
1.2346657
1.2346657
1.2346656
1.2346656
1.2346656
1.2346656
1.2346656
1.2346656
1.2346655
1.2346655
1.2346655
1.2346655
1.2346655
1.2346655
1.2346654
1.2346654
1.2346654
1.2346654
1.2346654
1.2346654
1.2346653
1.2346653
1.2346653
1.2346653
1.2346653
1.2346653
1.2346652
1.2346652
1.2346652
1.2346652
1.2346652
1.2346652
1.2346651
1.2346651
1.2346651
1.2346651
1.2346651
1.2346651
1.2346651
1.234665
1.234665
1.234665
1.234665
1.234665
1.234665
1.2346649
1.2346649
1.2346649
1.2346649
1.2346649
1.2346649
1.2346648
1.2346648
1.2346648
1.2346648
1.2346648
1.2346648
1.2346648
1.2346647
1.2346647
1.2346647
1.2346647
1.2346647
1.2346647
1.2346646
1.2346646
1.2346646
1.2346646
1.2346646
1.2346646
1.2346646
1.2346645
1.2346645
1.2346645
1.2346645
1.2346645
1.2346645
1.2346644
1.2346644
1.2346644
1.2346644
1.2346644
1.2346644
1.2346644
1.2346643
1.2346643
1.2346643
1.2346643
1.2346643
1.2346643
1.2346642
1.2346642
1.2346642
1.2346642
1.2346642
1.2346642
1.2346642
1.2346641
1.2346641
1.2346641
1.2346641
1.2346641
1.2346641
1.2346641
1.234664
1.234664
1.234664
1.234664
1.234664
1.234664
1.2346639
1.2346639
1.2346639
1.2346639
1.2346639
1.2346639
1.2346639
1.2346638
1.2346638
1.2346638
1.2346638
1.2346638
1.2346638
1.2346638
1.2346637
1.2346637
1.2346637
1.2346637
1.2346637
1.2346637
1.2346636
1.2346636
1.2346636
1.2346636
1.2346636
1.2346636
1.2346636
1.2346635
1.2346635
1.2346635
1.2346635
1.2346635
1.2346635
1.2346635
1.2346634
1.2346634
1.2346634
1.2346634
1.2346634
1.2346634
1.2346634
1.2346633
1.2346633
1.2346633
1.2346633
1.2346633
1.2346633
1.2346633
1.2346632
1.2346632
1.2346632
1.2346632
1.2346632
1.2346632
1.2346632
1.2346631
1.2346631
1.2346631
1.2346631
1.2346631
1.2346631
1.2346631
1.234663
1.234663
1.234663
1.234663
1.234663
1.234663
1.234663
1.2346629
1.2346629
1.2346629
1.2346629
1.2346629
1.2346629
1.2346629
1.2346628
1.2346628
1.2346628
1.2346628
1.2346628
1.2346628
1.2346628
1.2346627
1.2346627
1.2346627
1.2346627
1.2346627
1.2346627
1.2346627
1.2346626
1.2346626
1.2346626
1.2346626
1.2346626
1.2346626
1.2346626
1.2346626
1.2346625
1.2346625
1.2346625
1.2346625
1.2346625
1.2346625
1.2346625
1.2346624
1.2346624
1.2346624
1.2346624
1.2346624
1.2346624
1.2346624
1.2346623
1.2346623
1.2346623
1.2346623
1.2346623
1.2346623
1.2346623
1.2346622
1.2346622
1.2346622
1.2346622
1.2346622
1.2346622
1.2346622
1.2346622
1.2346621
1.2346621
1.2346621
1.2346621
1.2346621
1.2346621
1.2346621
1.234662
1.234662
1.234662
1.234662
1.234662
1.234662
1.234662
1.234662
1.2346619
1.2346619
1.2346619
1.2346619
1.2346619
1.2346619
1.2346619
1.2346618
1.2346618
1.2346618
1.2346618
1.2346618
1.2346618
1.2346618
1.2346618
1.2346617
1.2346617
1.2346617
1.2346617
1.2346617
1.2346617
1.2346617
1.2346616
1.2346616
1.2346616
1.2346616
1.2346616
1.2346616
1.2346616
1.2346616
1.2346615
1.2346615
1.2346615
1.2346615
1.2346615
1.2346615
1.2346615
1.2346614
1.2346614
1.2346614
1.2346614
1.2346614
1.2346614
1.2346614
1.2346614
1.2346613
1.2346613
1.2346613
1.2346613
1.2346613
1.2346613
1.2346613
1.2346612
1.2346612
1.2346612
1.2346612
1.2346612
1.2346612
1.2346612
1.2346611
1.2346611
1.2346611
1.2346611
1.2346611
1.2346611
1.2346611
1.234661
1.234661
1.234661
1.234661
1.234661
1.234661
1.234661
1.234661
1.2346609
1.2346609
1.2346609
1.2346609
1.2346609
1.2346609
1.2346609
1.2346609
1.2346608
1.2346608
1.2346608
1.2346608
1.2346608
1.2346608
1.2346608
1.2346607
1.2346607
1.2346607
1.2346607
1.2346607
1.2346607
1.2346607
1.2346606
1.2346606
1.2346606
1.2346606
1.2346606
1.2346606
1.2346605
1.2346605
1.2346605
1.2346605
1.2346605
1.2346605
1.2346605
1.2346604
1.2346604
1.2346604
1.2346604
1.2346604
1.2346604
1.2346604
1.2346604
1.2346603
1.2346603
1.2346603
1.2346603
1.2346603
1.2346603
1.2346603
1.2346602
1.2346602
1.2346602
1.2346602
1.2346602
1.2346602
1.2346602
1.2346601
1.2346601
1.2346601
1.2346601
1.2346601
1.2346601
1.2346601
1.23466
1.23466
1.23466
1.23466
1.23466
1.23466
1.23466
1.2346599
1.2346599
1.2346599
1.2346599
1.2346599
1.2346599
1.2346599
1.2346599
1.2346598
1.2346598
1.2346598
1.2346598
1.2346598
1.2346598
1.2346597
1.2346597
1.2346597
1.2346597
1.2346597
1.2346597
1.2346597
1.2346597
1.2346596
1.2346596
1.2346596
1.2346596
1.2346596
1.2346596
1.2346596
1.2346596
1.2346595
1.2346595
1.2346595
1.2346595
1.2346595
1.2346595
1.2346594
1.2346594
1.2346594
1.2346594
1.2346594
1.2346594
1.2346594
1.2346594
1.2346593
1.2346593
1.2346593
1.2346593
1.2346593
1.2346593
1.2346593
1.2346592
1.2346592
1.2346592
1.2346592
1.2346592
1.2346592
1.2346592
1.2346592
1.2346591
1.2346591
1.2346591
1.2346591
1.2346591
1.2346591
1.2346591
1.2346591
1.234659
1.234659
1.234659
1.234659
1.234659
1.234659
1.234659
1.234659
1.2346589
1.2346589
1.2346589
1.2346589
1.2346589
1.2346589
1.2346589
1.2346589
1.2346588
1.2346588
1.2346588
1.2346588
1.2346588
1.2346588
1.2346588
1.2346588
1.2346587
1.2346587
1.2346587
1.2346587
1.2346587
1.2346587
1.2346587
1.2346587
1.2346586
1.2346586
1.2346586
1.2346586
1.2346586
1.2346586
1.2346586
1.2346586
1.2346586
1.2346585
1.2346585
1.2346585
1.2346585
1.2346585
1.2346585
1.2346585
1.2346585
1.2346584
1.2346584
1.2346584
1.2346584
1.2346584
1.2346584
1.2346584
1.2346584
1.2346584
1.2346583
1.2346583
1.2346583
1.2346583
1.2346583
1.2346583
1.2346583
1.2346583
1.2346582
1.2346582
1.2346582
1.2346582
1.2346582
1.2346582
1.2346582
1.2346582
1.2346582
1.2346581
1.2346581
1.2346581
1.2346581
1.2346581
1.2346581
1.2346581
1.2346581
1.2346581
1.234658
1.234658
1.234658
1.234658
1.234658
1.234658
1.234658
1.234658
1.2346579
1.2346579
1.2346579
1.2346579
1.2346579
1.2346579
1.2346579
1.2346579
1.2346579
1.2346578
1.2346578
1.2346578
1.2346578
1.2346578
1.2346578
1.2346578
1.2346578
1.2346578
1.2346577
1.2346577
1.2346577
1.2346577
1.2346577
1.2346577
1.2346577
1.2346577
1.2346577
1.2346576
1.2346576
1.2346576
1.2346576
1.2346576
1.2346576
1.2346576
1.2346576
1.2346576
1.2346575
1.2346575
1.2346575
1.2346575
1.2346575
1.2346575
1.2346575
1.2346575
1.2346575
1.2346574
1.2346574
1.2346574
1.2346574
1.2346574
1.2346574
1.2346574
1.2346574
1.2346574
1.2346573
1.2346573
1.2346573
1.2346573
1.2346573
1.2346573
1.2346573
1.2346573
1.2346573
1.2346572
1.2346572
1.2346572
1.2346572
1.2346572
1.2346572
1.2346572
1.2346572
1.2346571
1.2346571
1.2346571
1.2346571
1.2346571
1.2346571
1.2346571
1.2346571
1.2346571
1.234657
1.234657
1.234657
1.234657
1.234657
1.234657
1.234657
1.234657
1.234657
1.2346569
1.2346569
1.2346569
1.2346569
1.2346569
1.2346569
1.2346569
1.2346569
1.2346569
1.2346568
1.2346568
1.2346568
1.2346568
1.2346568
1.2346568
1.2346568
1.2346568
1.2346568
1.2346567
1.2346567
1.2346567
1.2346567
1.2346567
1.2346567
1.2346567
1.2346567
1.2346567
1.2346566
1.2346566
1.2346566
1.2346566
1.2346566
1.2346566
1.2346566
1.2346566
1.2346566
1.2346565
1.2346565
1.2346565
1.2346565
1.2346565
1.2346565
1.2346565
1.2346565
1.2346565
1.2346564
1.2346564
1.2346564
1.2346564
1.2346564
1.2346564
1.2346564
1.2346564
1.2346564
1.2346563
1.2346563
1.2346563
1.2346563
1.2346563
1.2346563
1.2346563
1.2346563
1.2346563
1.2346562
1.2346562
1.2346562
1.2346562
1.2346562
1.2346562
1.2346562
1.2346562
1.2346562
1.2346561
1.2346561
1.2346561
1.2346561
1.2346561
1.2346561
1.2346561
1.2346561
1.2346561
1.234656
1.234656
1.234656
1.234656
1.234656
1.234656
1.234656
1.234656
1.234656
1.2346559
1.2346559
1.2346559
1.2346559
1.2346559
1.2346559
1.2346559
1.2346559
1.2346559
1.2346558
1.2346558
1.2346558
1.2346558
1.2346558
1.2346558
1.2346558
1.2346558
1.2346558
1.2346557
1.2346557
1.2346557
1.2346557
1.2346557
1.2346557
1.2346557
1.2346557
1.2346557
1.2346556
1.2346556
1.2346556
1.2346556
1.2346556
1.2346556
1.2346556
1.2346556
1.2346556
1.2346556
1.2346555
1.2346555
1.2346555
1.2346555
1.2346555
1.2346555
1.2346555
1.2346555
1.2346555
1.2346554
1.2346554
1.2346554
1.2346554
1.2346554
1.2346554
1.2346554
1.2346554
1.2346554
1.2346553
1.2346553
1.2346553
1.2346553
1.2346553
1.2346553
1.2346553
1.2346553
1.2346553
1.2346553
1.2346552
1.2346552
1.2346552
1.2346552
1.2346552
1.2346552
1.2346552
1.2346552
1.2346552
1.2346551
1.2346551
1.2346551
1.2346551
1.2346551
1.2346551
1.2346551
1.2346551
1.2346551
1.2346551
1.234655
1.234655
1.234655
1.234655
1.234655
1.234655
1.234655
1.234655
1.234655
1.2346549
1.2346549
1.2346549
1.2346549
1.2346549
1.2346549
1.2346549
1.2346549
1.2346549
1.2346549
1.2346549
1.2346548
1.2346548
1.2346548
1.2346548
1.2346548
1.2346548
1.2346548
1.2346548
1.2346547
1.2346547
1.2346547
1.2346547
1.2346547
1.2346547
1.2346547
1.2346547
1.2346547
1.2346547
1.2346546
1.2346546
1.2346546
1.2346546
1.2346546
1.2346546
1.2346546
1.2346546
1.2346546
1.2346546
1.2346545
1.2346545
1.2346545
1.2346545
1.2346545
1.2346545
1.2346545
1.2346545
1.2346545
1.2346544
1.2346544
1.2346544
1.2346544
1.2346544
1.2346544
1.2346544
1.2346544
1.2346544
1.2346543
1.2346543
1.2346543
1.2346543
1.2346543
1.2346543
1.2346543
1.2346543
1.2346543
1.2346543
1.2346542
1.2346542
1.2346542
1.2346542
1.2346542
1.2346542
1.2346542
1.2346542
1.2346542
1.2346541
1.2346541
1.2346541
1.2346541
1.2346541
1.2346541
1.2346541
1.2346541
1.2346541
1.2346541
1.234654
1.234654
1.234654
1.234654
1.234654
1.234654
1.234654
1.234654
1.234654
1.2346539
1.2346539
1.2346539
1.2346539
1.2346539
1.2346539
1.2346539
1.2346539
1.2346539
1.2346538
1.2346538
1.2346538
1.2346538
1.2346538
1.2346538
1.2346538
1.2346538
1.2346538
1.2346537
1.2346537
1.2346537
1.2346537
1.2346537
1.2346537
1.2346537
1.2346537
1.2346537
1.2346536
1.2346536
1.2346536
1.2346536
1.2346536
1.2346536
1.2346536
1.2346536
1.2346536
1.2346536
1.2346535
1.2346535
1.2346535
1.2346535
1.2346535
1.2346535
1.2346535
1.2346535
1.2346535
1.2346534
1.2346534
1.2346534
1.2346534
1.2346534
1.2346534
1.2346534
1.2346534
1.2346533
1.2346533
1.2346533
1.2346533
1.2346533
1.2346533
1.2346533
1.2346533
1.2346533
1.2346533
1.2346532
1.2346532
1.2346532
1.2346532
1.2346532
1.2346532
1.2346532
1.2346532
1.2346532
1.2346532
1.2346531
1.2346531
1.2346531
1.2346531
1.2346531
1.2346531
1.2346531
1.2346531
1.2346531
1.2346531
1.234653
1.234653
1.234653
1.234653
1.234653
1.234653
1.234653
1.234653
1.234653
1.234653
1.2346529
1.2346529
1.2346529
1.2346529
1.2346529
1.2346529
1.2346529
1.2346529
1.2346529
1.2346529
1.2346529
1.2346528
1.2346528
1.2346528
1.2346528
1.2346528
1.2346528
1.2346528
1.2346528
1.2346528
1.2346528
1.2346528
1.2346527
1.2346527
1.2346527
1.2346527
1.2346527
1.2346527
1.2346527
1.2346527
1.2346527
1.2346527
1.2346526
1.2346526
1.2346526
1.2346526
1.2346526
1.2346526
1.2346526
1.2346526
1.2346526
1.2346526
1.2346525
1.2346525
1.2346525
1.2346525
1.2346525
1.2346525
1.2346525
1.2346525
1.2346525
1.2346525
1.2346525
1.2346525
1.2346524
1.2346524
1.2346524
1.2346524
1.2346524
1.2346524
1.2346524
1.2346524
1.2346524
1.2346524
1.2346524
1.2346523
1.2346523
1.2346523
1.2346523
1.2346523
1.2346523
1.2346523
1.2346523
1.2346523
1.2346523
1.2346523
1.2346522
1.2346522
1.2346522
1.2346522
1.2346522
1.2346522
1.2346522
1.2346522
1.2346522
1.2346522
1.2346522
1.2346521
1.2346521
1.2346521
1.2346521
1.2346521
1.2346521
1.2346521
1.2346521
1.2346521
1.2346521
1.2346521
1.2346521
1.234652
1.234652
1.234652
1.234652
1.234652
1.234652
1.234652
1.234652
1.234652
1.234652
1.2346519
1.2346519
1.2346519
1.2346519
1.2346519
1.2346519
1.2346519
1.2346519
1.2346519
1.2346519
1.2346519
1.2346518
1.2346518
1.2346518
1.2346518
1.2346518
1.2346518
1.2346518
1.2346518
1.2346518
1.2346518
1.2346517
1.2346517
1.2346517
1.2346517
1.2346517
1.2346517
1.2346517
1.2346517
1.2346517
1.2346517
1.2346516
1.2346516
1.2346516
1.2346516
1.2346516
1.2346516
1.2346516
1.2346516
1.2346516
1.2346515
1.2346515
1.2346515
1.2346515
1.2346515
1.2346515
1.2346515
1.2346515
1.2346515
1.2346514
1.2346514
1.2346514
1.2346514
1.2346514
1.2346514
1.2346514
1.2346514
1.2346514
1.2346513
1.2346513
1.2346513
1.2346513
1.2346513
1.2346513
1.2346513
1.2346513
1.2346512
1.2346512
1.2346512
1.2346512
1.2346512
1.2346512
1.2346512
1.2346512
1.2346511
1.2346511
1.2346511
1.2346511
1.2346511
1.2346511
1.2346511
1.2346511
1.234651
1.234651
1.234651
1.234651
1.234651
1.234651
1.234651
1.234651
1.2346509
1.2346509
1.2346509
1.2346509
1.2346509
1.2346509
1.2346509
1.2346508
1.2346508
1.2346508
1.2346508
1.2346508
1.2346508
1.2346508
1.2346507
1.2346507
1.2346507
1.2346507
1.2346507
1.2346507
1.2346507
1.2346506
1.2346506
1.2346506
1.2346506
1.2346506
1.2346506
1.2346506
1.2346505
1.2346505
1.2346505
1.2346505
1.2346505
1.2346505
1.2346504
1.2346504
1.2346504
1.2346504
1.2346504
1.2346504
1.2346503
1.2346503
1.2346503
1.2346503
1.2346503
1.2346503
1.2346502
1.2346502
1.2346502
1.2346502
1.2346502
1.2346502
1.2346501
1.2346501
1.2346501
1.2346501
1.2346501
1.23465
1.23465
1.23465
1.23465
1.23465
1.23465
1.2346499
1.2346499
1.2346499
1.2346499
1.2346499
1.2346498
1.2346498
1.2346498
1.2346498
1.2346498
1.2346497
1.2346497
1.2346497
1.2346497
1.2346497
1.2346496
1.2346496
1.2346496
1.2346496
1.2346496
1.2346495
1.2346495
1.2346495
1.2346495
1.2346495
1.2346494
1.2346494
1.2346494
1.2346494
1.2346493
1.2346493
1.2346493
1.2346493
1.2346493
1.2346492
1.2346492
1.2346492
1.2346492
1.2346491
1.2346491
1.2346491
1.2346491
1.234649
1.234649
1.234649
1.234649
1.2346489
1.2346489
1.2346489
1.2346489
1.2346488
1.2346488
1.2346488
1.2346488
1.2346487
1.2346487
1.2346487
1.2346487
1.2346486
1.2346486
1.2346486
1.2346486
1.2346485
1.2346485
1.2346485
1.2346485
1.2346484
1.2346484
1.2346484
1.2346484
1.2346483
1.2346483
1.2346483
1.2346482
1.2346482
1.2346482
1.2346482
1.2346481
1.2346481
1.2346481
1.234648
1.234648
1.234648
1.234648
1.2346479
1.2346479
1.2346479
1.2346478
1.2346478
1.2346478
1.2346477
1.2346477
1.2346477
1.2346477
1.2346476
1.2346476
1.2346476
1.2346475
1.2346475
1.2346475
1.2346474
1.2346474
1.2346474
1.2346473
1.2346473
1.2346473
1.2346472
1.2346472
1.2346472
1.2346471
1.2346471
1.2346471
1.234647
1.234647
1.234647
1.2346469
1.2346469
1.2346469
1.2346468
1.2346468
1.2346468
1.2346467
1.2346467
1.2346467
1.2346466
1.2346466
1.2346466
1.2346465
1.2346465
1.2346465
1.2346464
1.2346464
1.2346463
1.2346463
1.2346463
1.2346462
1.2346462
1.2346462
1.2346461
1.2346461
1.234646
1.234646
1.234646
1.2346459
1.2346459
1.2346458
1.2346458
1.2346458
1.2346457
1.2346457
1.2346456
1.2346456
1.2346456
1.2346455
1.2346455
1.2346454
1.2346454
1.2346453
1.2346453
1.2346452
1.2346452
1.2346452
1.2346451
1.2346451
1.234645
1.234645
1.2346449
1.2346449
1.2346448
1.2346448
1.2346447
1.2346447
1.2346446
1.2346446
1.2346445
1.2346445
1.2346444
1.2346444
1.2346443
1.2346443
1.2346442
1.2346442
1.2346441
1.234644
1.234644
1.2346439
1.2346439
1.2346438
1.2346437
1.2346437
1.2346436
1.2346436
1.2346435
1.2346434
1.2346434
1.2346433
1.2346432
1.2346432
1.2346431
1.234643
1.2346429
1.2346429
1.2346428
1.2346427
1.2346426
1.2346426
1.2346425
1.2346424
1.2346423
1.2346422
1.2346421
1.234642
1.234642
1.2346419
1.2346418
1.2346417
1.2346416
1.2346415
1.2346414
1.2346413
1.2346411
1.234641
1.2346409
1.2346408
1.2346407
1.2346406
1.2346404
1.2346403
1.2346402
1.23464
1.2346399
1.2346398
1.2346396
1.2346395
1.2346393
1.2346392
1.234639
1.2346388
1.2346387
1.2346385
1.2346383
1.2346381
1.2346379
1.2346377
1.2346376
1.2346373
1.2346371
1.2346369
1.2346367
1.2346365
1.2346362
1.234636
1.2346358
1.2346355
1.2346352
1.234635
1.2346347
1.2346344
1.2346341
1.2346338
1.2346335
1.2346332
1.2346329
1.2346325
1.2346322
1.2346318
1.2346315
1.2346311
1.2346307
1.2346303
1.2346299
1.2346295
1.234629
1.2346286
1.2346281
1.2346277
1.2346272
1.2346267
1.2346262
1.2346256
1.2346251
1.2346245
1.2346239
1.2346234
1.2346227
1.2346221
1.2346215
1.2346208
1.2346201
1.2346194
1.2346187
1.2346179
1.2346172
1.2346164
1.2346155
1.2346147
1.2346138
1.234613
1.234612
1.2346111
1.2346101
1.2346091
1.2346081
1.2346071
1.234606
1.2346049
1.2346037
1.2346026
1.2346014
1.2346001
1.2345988
1.2345975
1.2345962
1.2345948
1.2345934
1.2345919
1.2345904
1.2345889
1.2345873
1.2345856
1.234584
1.2345822
1.2345805
1.2345787
1.2345768
1.2345749
1.2345729
1.2345709
1.2345688
1.2345667
1.2345645
1.2345623
1.23456
1.2345576
1.2345552
1.2345527
1.2345502
1.2345476
1.2345449
1.2345421
1.2345393
1.2345364
1.2345334
1.2345304
1.2345273
1.2345241
1.2345208
1.2345174
1.234514
1.2345105
1.2345068
1.2345031
1.2344993
1.2344955
1.2344915
1.2344874
1.2344832
1.2344789
1.2344745
1.2344701
1.2344655
1.2344607
1.2344559
1.234451
1.234446
1.2344408
1.2344355
1.2344301
1.2344246
1.2344189
1.2344131
1.2344072
1.2344012
1.234395
1.2343887
1.2343822
1.2343756
1.2343688
1.2343619
1.2343548
1.2343476
1.2343403
1.2343327
1.234325
1.2343172
1.2343092
1.234301
1.2342926
1.234284
1.2342753
1.2342664
1.2342573
1.234248
1.2342385
1.2342289
1.234219
1.2342089
1.2341987
1.2341882
1.2341775
1.2341666
1.2341555
1.2341441
1.2341326
1.2341208
1.2341088
1.2340965
1.2340841
1.2340713
1.2340584
1.2340452
1.2340317
1.234018
1.234004
1.2339898
1.2339753
1.2339606
1.2339456
1.2339303
1.2339147
1.2338988
1.2338827
1.2338663
1.2338496
1.2338326
1.2338153
1.2337977
1.2337797
1.2337615
1.233743
1.2337241
1.233705
1.2336855
1.2336657
1.2336455
1.2336251
1.2336042
1.2335831
1.2335616
1.2335397
1.2335175
1.233495
1.2334721
1.2334488
1.2334251
1.2334011
1.2333767
1.233352
1.2333268
1.2333013
1.2332754
1.2332491
1.2332224
1.2331953
1.2331678
1.2331399
1.2331116
1.2330828
1.2330537
1.2330241
1.2329942
1.2329637
1.2329329
1.2329016
1.2328699
1.2328378
1.2328052
1.2327722
1.2327387
1.2327048
1.2326704
1.2326355
1.2326002
1.2325644
1.2325282
1.2324915
1.2324543
1.2324167
1.2323785
1.2323399
1.2323008
1.2322612
1.2322211
1.2321806
1.2321395
1.2320979
1.2320558
1.2320133
1.2319702
1.2319266
1.2318825
1.2318379
1.2317928
1.2317471
1.231701
1.2316543
1.2316071
1.2315593
1.2315111
1.2314623
1.2314129
1.2313631
1.2313127
1.2312617
1.2312102
1.2311582
1.2311057
1.2310525
1.2309989
1.2309447
1.2308899
1.2308346
1.2307788
1.2307224
1.2306654
1.2306079
1.2305499
1.2304912
1.2304321
1.2303723
1.230312
1.2302512
1.2301898
1.2301278
1.2300652
1.2300021
1.2299385
1.2298743
1.2298095
1.2297441
1.2296782
1.2296117
1.2295447
1.2294771
1.2294089
1.2293402
1.2292709
1.2292011
1.2291307
1.2290597
1.2289882
1.2289161
1.2288435
1.2287703
1.2286965
1.2286222
1.2285473
1.2284719
1.2283959
1.2283194
1.2282424
1.2281648
1.2280866
1.2280079
1.2279286
1.2278489
1.2277685
1.2276877
1.2276063
1.2275243
1.2274419
1.2273589
1.2272753
1.2271913
1.2271067
1.2270216
1.226936
1.2268499
1.2267632
1.2266761
1.2265884
1.2265003
1.2264116
1.2263225
1.2262328
1.2261427
1.226052
1.2259609
1.2258693
1.2257772
1.2256846
1.2255916
1.2254981
1.2254041
1.2253097
1.2252148
1.2251195
1.2250237
1.2249274
1.2248308
1.2247336
1.2246361
1.2245381
1.2244397
1.2243409
1.2242416
1.2241419
1.2240419
1.2239414
1.2238405
1.2237392
1.2236375
1.2235355
1.2234331
1.2233302
1.2232271
1.2231235
1.2230196
1.2229153
1.2228107
1.2227057
1.2226004
1.2224947
1.2223887
1.2222824
1.2221758
1.2220688
1.2219616
1.221854
1.2217461
1.2216379
1.2215295
1.2214207
1.2213117
1.2212024
1.2210928
1.220983
1.2208729
1.2207626
1.220652
1.2205411
1.2204301
1.2203188
1.2202073
1.2200955
1.2199836
1.2198714
1.2197591
1.2196465
1.2195338
1.2194208
1.2193077
1.2191945
1.219081
1.2189674
1.2188537
1.2187398
1.2186257
1.2185115
1.2183972
1.2182828
1.2181683
1.2180536
1.2179388
1.2178239
1.217709
1.2175939
1.2174788
1.2173635
1.2172483
1.2171329
1.2170175
1.216902
1.2167865
1.2166709
1.2165553
1.2164397
1.2163241
1.2162084
1.2160927
1.215977
1.2158613
1.2157456
1.2156299
1.2155143
1.2153986
1.215283
1.2151674
1.2150519
1.2149364
1.214821
1.2147056
1.2145902
1.214475
1.2143598
1.2142446
1.2141296
1.2140146
1.2138998
1.213785
1.2136704
1.2135558
1.2134414
1.2133271
1.2132129
1.2130988
1.2129849
1.2128711
1.2127575
1.212644
1.2125307
1.2124175
1.2123045
1.2121916
1.212079
1.2119665
1.2118542
1.2117421
1.2116301
1.2115184
1.2114069
1.2112956
1.2111845
1.2110736
1.2109629
1.2108524
1.2107422
1.2106322
1.2105225
1.210413
1.2103037
1.2101947
1.2100859
1.2099774
1.2098692
1.2097612
1.2096535
1.209546
1.2094388
1.2093319
1.2092253
1.209119
1.209013
1.2089072
1.2088018
1.2086966
1.2085918
1.2084873
1.208383
1.2082791
1.2081755
1.2080722
1.2079692
1.2078666
1.2077643
1.2076623
1.2075606
1.2074593
1.2073583
1.2072577
1.2071574
1.2070574
1.2069578
1.2068586
1.2067597
1.2066611
1.2065629
1.2064651
1.2063676
1.2062705
1.2061737
1.2060773
1.2059813
1.2058857
1.2057904
1.2056955
1.205601
1.2055068
1.205413
1.2053196
1.2052266
1.205134
1.2050417
1.2049499
1.2048584
1.2047673
1.2046766
1.2045863
1.2044964
1.2044069
1.2043178
1.204229
1.2041407
1.2040527
1.2039652
1.203878
1.2037913
1.2037049
1.203619
1.2035334
1.2034483
1.2033635
1.2032792
1.2031952
1.2031117
1.2030285
1.2029458
1.2028635
1.2027815
1.2027
1.2026189
1.2025382
1.2024579
1.202378
1.2022985
1.2022194
1.2021407
1.2020624
1.2019845
1.201907
1.20183
1.2017533
1.201677
1.2016012
1.2015257
1.2014507
1.201376
1.2013018
1.2012279
1.2011545
1.2010814
1.2010088
1.2009366
1.2008647
1.2007933
1.2007222
1.2006516
1.2005814
1.2005115
1.2004421
1.200373
1.2003043
1.2002361
1.2001682
1.2001007
1.2000337
1.199967
1.1999007
1.1998348
1.1997692
1.1997041
1.1996394
1.199575
1.1995111
1.1994475
1.1993843
1.1993215
1.199259
1.199197
1.1991353
1.199074
1.1990131
1.1989526
1.1988925
1.1988327
1.1987733
1.1987143
1.1986556
1.1985973
1.1985394
1.1984819
1.1984247
1.1983679
1.1983115
1.1982554
1.1981997
1.1981444
1.1980894
1.1980348
1.1979806
1.1979267
1.1978732
1.19782
1.1977672
1.1977147
1.1976626
1.1976109
1.1975595
1.1975084
1.1974577
1.1974074
1.1973574
1.1973077
1.1972584
1.1972095
1.1971609
1.1971126
1.1970647
1.1970171
1.1969698
1.1969229
1.1968763
1.1968301
1.1967842
1.1967386
1.1966934
1.1966485
1.1966039
1.1965596
1.1965157
1.1964721
1.1964288
1.1963859
1.1963433
1.196301
1.196259
1.1962174
1.196176
1.196135
1.1960943
1.1960539
1.1960138
1.1959741
1.1959346
1.1958955
1.1958567
1.1958181
1.1957799
1.195742
1.1957044
1.1956671
1.1956302
1.1955935
1.1955571
1.195521
1.1954852
1.1954497
1.1954145
1.1953796
1.195345
1.1953107
1.1952767
1.1952429
1.1952095
1.1951763
1.1951434
1.1951109
1.1950786
1.1950465
1.1950148
1.1949833
1.1949522
1.1949213
1.1948906
1.1948603
1.1948302
1.1948004
1.1947709
1.1947416
1.1947127
1.1946839
1.1946555
1.1946273
1.1945994
1.1945717
1.1945443
1.1945172
1.1944903
1.1944637
1.1944374
1.1944113
1.1943854
1.1943598
1.1943345
1.1943094
1.1942845
1.19426
1.1942356
1.1942115
1.1941877
1.194164
1.1941407
1.1941175
1.1940946
1.194072
1.1940496
1.1940274
1.1940055
1.1939837
1.1939623
1.193941
1.19392
1.1938992
1.1938786
1.1938583
1.1938381
1.1938182
1.1937986
1.1937791
1.1937598
1.1937408
1.193722
1.1937034
1.193685
1.1936668
1.1936489
1.1936311
1.1936136
1.1935962
1.1935791
1.1935621
1.1935454
1.1935288
1.1935125
1.1934964
1.1934804
1.1934647
1.1934491
1.1934337
1.1934185
1.1934036
1.1933887
1.1933741
1.1933597
1.1933454
1.1933314
1.1933175
1.1933038
1.1932902
1.1932769
1.1932637
1.1932507
1.1932379
1.1932252
1.1932127
1.1932004
1.1931882
1.1931762
1.1931644
1.1931527
1.1931412
1.1931299
1.1931187
1.1931077
1.1930968
1.1930861
1.1930755
1.1930651
1.1930549
1.1930447
1.1930348
1.193025
1.1930153
1.1930058
1.1929964
1.1929872
1.1929781
1.1929691
1.1929603
1.1929517
1.1929431
1.1929347
1.1929265
1.1929183
1.1929103
1.1929025
1.1928947
1.1928871
1.1928796
1.1928723
1.1928651
1.192858
1.192851
1.1928441
1.1928374
1.1928308
1.1928243
1.1928179
1.1928117
1.1928056
1.1927996
1.1927937
1.1927879
1.1927823
1.1927767
1.1927713
1.192766
1.1927608
1.1927557
1.1927508
1.1927459
1.1927411
1.1927365
1.192732
1.1927276
1.1927233
1.1927191
1.192715
1.192711
1.1927072
1.1927034
1.1926998
1.1926962
1.1926928
1.1926895
1.1926863
1.1926832
1.1926802
1.1926773
1.1926746
1.1926719
1.1926694
1.1926669
1.1926646
1.1926624
1.1926603
1.1926583
1.1926565
1.1926547
1.1926531
1.1926516
1.1926502
1.1926489
1.1926478
1.1926467
1.1926458
1.192645
1.1926444
1.1926438
1.1926434
1.1926431
1.192643
1.192643
1.1926431
1.1926434
1.1926438
1.1926443
1.192645
1.1926459
1.1926469
1.192648
1.1926493
1.1926508
1.1926524
1.1926541
1.1926561
1.1926582
1.1926604
1.1926629
1.1926655
1.1926683
1.1926713
1.1926745
1.1926778
1.1926814
1.1926852
1.1926891
1.1926933
1.1926977
1.1927023
1.1927071
1.1927122
1.1927175
1.192723
1.1927288
1.1927348
1.1927411
1.1927476
1.1927544
1.1927615
1.1927688
1.1927764
1.1927843
1.1927925
1.192801
1.1928098
1.192819
1.1928284
1.1928382
1.1928483
1.1928588
1.1928696
1.1928808
1.1928923
1.1929043
1.1929166
1.1929293
1.1929424
1.1929559
1.1929698
1.1929842
1.192999
1.1930142
1.1930299
1.1930461
1.1930627
1.1930799
1.1930975
1.1931157
1.1931343
1.1931535
1.1931733
1.1931935
1.1932144
1.1932358
1.1932579
1.1932805
1.1933037
1.1933276
1.1933521
1.1933772
1.193403
1.1934295
1.1934567
1.1934846
1.1935132
1.1935425
1.1935726
1.1936034
1.193635
1.1936674
1.1937005
1.1937345
1.1937693
1.193805
1.1938415
1.1938789
1.1939172
1.1939564
1.1939965
1.1940376
1.1940796
1.1941225
1.1941665
1.1942114
1.1942574
1.1943044
1.1943524
1.1944016
1.1944517
1.194503
1.1945554
1.194609
1.1946637
1.1947195
1.1947765
1.1948348
1.1948942
1.1949549
1.1950168
1.19508
1.1951445
1.1952103
1.1952774
1.1953458
1.1954156
1.1954868
1.1955594
1.1956333
1.1957087
1.1957855
1.1958638
1.1959435
1.1960248
1.1961075
1.1961918
1.1962776
1.196365
1.196454
1.1965445
1.1966367
1.1967305
1.196826
1.1969231
1.1970219
1.1971224
1.1972246
1.1973285
1.1974342
1.1975417
1.1976509
1.1977619
1.1978747
1.1979893
1.1981058
1.1982241
1.1983442
1.1984662
1.19859
1.1987157
1.1988432
1.1989727
1.199104
1.1992372
1.1993723
1.1995093
1.1996482
1.199789
1.1999318
1.2000764
1.2002229
1.2003713
1.2005216
1.2006737
1.2008276
1.2009834
1.2011411
1.2013007
1.2014621
1.2016255
1.2017907
1.2019579
1.2021269
1.2022979
1.2024708
1.2026456
1.2028224
1.2030011
1.2031817
1.2033643
1.2035488
1.2037353
1.2039237
1.2041142
1.2043065
1.204501
1.2046974
1.2048959
1.2050963
1.2052988
1.2055031
1.2057093
1.2059171
1.2061257
1.2063341
1.2065419
1.2067493
1.2069491
1.2071238
1.2072323
1.2071793
1.2067249
1.2057186
1.20438
1.2026928
1.2006693
1.1983377
1.1957381
1.1929206
1.189942
1.1868624
1.1837424
1.1806398
1.177608
1.1746935
1.1719353
1.1693639
1.1670013
1.1648615
1.1629507
1.1612689
1.1598102
1.1585648
1.157519
1.1566572
1.1559625
1.1554171
1.1550036
1.1547052
1.1545059
1.1543911
1.1543477
1.1543637
1.1544289
1.1545345
1.1546728
1.1548372
1.1550228
1.1552253
1.1554404
1.1556651
1.1558983
1.1561385
1.156383
1.1566292
1.1568771
1.1571285
1.1573815
1.1576353
1.1578898
1.1581448
1.1584001
1.1586555
1.1589109
1.1591663
1.1594215
1.1596765
1.1599312
1.1601857
1.1604399
1.1606938
1.1609473
1.1612004
1.1614531
1.1617054
1.1619572
1.1622085
1.1624592
1.1627094
1.1629589
1.1632078
1.1634559
1.1637033
1.1639499
1.1641957
1.1644406
1.1646846
1.1649276
1.1651697
1.1654107
1.1656506
1.1658894
1.1661271
1.1663635
1.1665988
1.1668328
1.1670656
1.167297
1.1675271
1.1677559
1.1679833
1.1682093
1.1684338
1.1686569
1.1688786
1.1690987
1.1693173
1.1695344
1.1697499
1.1699638
1.1701761
1.1703868
1.1705959
1.1708033
1.171009
1.1712131
1.1714154
1.171616
1.1718148
1.1720119
1.1722072
1.1724007
1.1725924
1.1727823
1.1729703
1.1731566
1.1733409
1.1735234
1.173704
1.1738827
1.1740596
1.1742345
1.1744075
1.1745786
1.1747477
1.1749149
1.1750802
1.1752435
1.1754049
1.1755644
1.1757218
1.1758773
1.1760309
1.1761825
1.1763321
1.1764798
1.1766255
1.1767693
1.176911
1.1770509
1.1771888
1.1773247
1.1774587
1.1775907
1.1777208
1.177849
1.1779752
1.1780996
1.178222
1.1783425
1.1784611
1.1785779
1.1786927
1.1788057
1.1789169
1.1790261
1.1791336
1.1792392
1.179343
1.1794451
1.1795453
1.1796437
1.1797404
1.1798354
1.1799286
1.1800201
1.1801099
1.180198
1.1802844
1.1803692
1.1804523
1.1805338