/*--------------------------------*- C++ -*----------------------------------*\
  =========                 |
  \\      /  F ield         | OpenFOAM: The Open Source CFD Toolbox
   \\    /   O peration     | Website:  https://openfoam.org
    \\  /    A nd           | Version:  7
     \\/     M anipulation  |
\*---------------------------------------------------------------------------*/
FoamFile
{
    version     2.0;
    format      ascii;
    class       volScalarField;
    location    "0.00272";
    object      Uy;
}
// * * * * * * * * * * * * * * * * * * * * * * * * * * * * * * * * * * * * * //

dimensions      [0 1 -1 0 0 0 0];

internalField   nonuniform List<scalar> 
5000
(
3.7260685e-17
3.7871202e-17
0
0
-2.0106322e-17
2.2862167e-32
2.0113275e-17
0
0
-2.0116471e-17
-4.023385e-17
2.0117438e-17
2.0117221e-17
-2.0116997e-17
0
-2.0115011e-17
1.8565411e-49
2.0111594e-17
0
2.0107007e-17
-2.0104196e-17
-2.0101537e-17
4.0196751e-17
-2.009544e-17
-2.0092018e-17
-1.6557832e-31
2.0085238e-17
2.0081899e-17
-4.0156235e-17
3.4803886e-31
-3.5082336e-31
2.0067143e-17
4.0126289e-17
-4.0118954e-17
3.4770551e-31
-1.7439037e-30
-6.9513912e-31
4.0087601e-17
-4.0079294e-17
-4.0071694e-17
4.0063329e-17
-1.3775255e-30
-4.0047263e-17
2.0019783e-17
6.0046665e-17
-2.0011687e-17
-2.0007442e-17
-1.3701701e-30
-3.9998595e-17
0
1.9991122e-17
2.8403528e-33
-1.9982911e-17
3.9957951e-17
-6.9828815e-31
-3.9941398e-17
1.9966356e-17
-6.893481e-31
-1.9958001e-17
0
1.9949594e-17
6.8026419e-31
5.6676122e-33
1.9937076e-17
-1.9932632e-17
6.9667608e-31
1.9924073e-17
-1.9919957e-17
-1.9915453e-17
1.9911302e-17
1.9906762e-17
-1.9902571e-17
-1.9897989e-17
3.9787512e-17
1.988913e-17
-1.9884852e-17
0
1.9875857e-17
-2.8238586e-33
-1.9866768e-17
1.9862002e-17
-5.6438641e-33
5.6424947e-33
1.9848289e-17
1.9843414e-17
6.9072223e-31
-1.9833941e-17
0
-1.9824333e-17
-2.0560764e-30
-6.9269184e-31
1.9809823e-17
1.9804657e-17
-3.959964e-17
-1.3699198e-30
1.9789638e-17
0
0
-1.9773824e-17
-1.3709393e-30
3.9526325e-17
-1.9757943e-17
-3.9504599e-17
0
1.9741227e-17
1.9735794e-17
-1.9729931e-17
-1.9724381e-17
0
0
1.9706609e-17
1.9700804e-17
0
-1.9688615e-17
6.8806514e-31
1.9676139e-17
-1.9669601e-17
5.588662e-33
-6.8717116e-31
-2.4174405e-49
3.9286738e-17
-8.3716626e-33
-1.9629724e-17
0
-1.9615705e-17
1.9608739e-17
1.9601302e-17
-3.9188284e-17
-1.9586494e-17
3.9158255e-17
1.9571272e-17
-1.9563683e-17
-1.9555605e-17
-1.9547789e-17
0
1.9531423e-17
1.9522871e-17
-1.9514573e-17
-6.7635258e-31
1.9497218e-17
-1.9488157e-17
-1.9479337e-17
0
1.9460902e-17
1.9451281e-17
-1.9441888e-17
1.9431967e-17
-1.1040281e-32
-1.9412037e-17
1.9402022e-17
-1.9391468e-17
1.3495695e-30
1.9370237e-17
-1.9359555e-17
1.9348322e-17
1.9337287e-17
-1.9325697e-17
0
0
-1.9290569e-17
-1.927823e-17
1.9266071e-17
1.9253338e-17
-1.9240778e-17
-1.3334168e-30
1.9214661e-17
-1.9201096e-17
-1.9187688e-17
0
1.9159833e-17
1.914538e-17
0
-1.9116153e-17
-1.9101374e-17
0
1.9070721e-17
3.9643004e-30
-1.903908e-17
1.9022695e-17
1.9006426e-17
-1.8989524e-17
-1.3103471e-30
1.3037559e-30
8.0737451e-33
1.8920008e-17
-1.890214e-17
-2.6191198e-30
1.2975586e-30
-1.2962464e-30
1.882713e-17
0
0
-1.8767653e-17
-1.8747479e-17
0
0
1.8684387e-17
9.7750091e-49
-1.8640897e-17
0
1.8596146e-17
-1.8573477e-17
-5.1404544e-30
3.7053613e-17
-1.8502801e-17
-3.8365867e-30
-2.6224956e-33
-1.8429543e-17
1.8404209e-17
-2.6117988e-33
-2.5402905e-30
1.2683454e-30
-1.8300141e-17
0
1.824594e-17
1.2608415e-30
5.0484703e-30
1.8161908e-17
0
-1.810372e-17
-1.8073812e-17
0
0
0
1.7950714e-17
1.2401264e-30
-1.7886818e-17
0
0
1.7788752e-17
1.7755309e-17
-1.7722019e-17
-1.7688195e-17
0
1.762046e-17
1.7586575e-17
-1.755221e-17
-1.751807e-17
0
1.7448983e-17
-4.8355182e-30
-1.2052245e-30
1.7343653e-17
-1.7308237e-17
-1.7272137e-17
0
1.7199152e-17
-2.38524e-30
1.712445e-17
2.3698724e-30
-3.409575e-17
1.7009085e-17
-2.3535559e-30
-5.8772808e-30
-1.1687966e-30
-1.684752e-17
1.6806243e-17
1.6764652e-17
0
-1.6679512e-17
-1.6636303e-17
0
1.6548881e-17
1.6504788e-17
-3.2920105e-17
-1.6415278e-17
1.6369835e-17
1.6324417e-17
4.5155531e-30
-1.6232329e-17
1.6185674e-17
-1.1192266e-30
-1.6091831e-17
1.604465e-17
-1.1116411e-30
1.1105918e-30
-4.5193056e-33
-1.0948603e-30
1.5803875e-17
0
0
-1.565667e-17
-1.5606941e-17
0
0
0
0
1.5355917e-17
1.0548579e-30
-3.0508177e-17
6.4813273e-33
1.5151495e-17
1.509976e-17
-2.089291e-30
-2.0778086e-30
-2.1237025e-33
-1.4891852e-17
-1.4839695e-17
-1.4787146e-17
2.946928e-17
4.4045205e-17
-1.4629013e-17
-2.9151812e-17
0
1.4469637e-17
1.4416501e-17
-1.4363024e-17
4.0670734e-33
-6.0777613e-33
4.036654e-33
1.4148953e-17
1.4095364e-17
-1.4041468e-17
-2.7975446e-17
1.3933675e-17
2.5596132e-48
1.3825922e-17
3.81642e-30
-2.7436144e-17
0
0
2.7113426e-17
-7.4986729e-30
-2.689711e-17
0
1.3340872e-17
1.3286139e-17
-1.3232952e-17
1.8730646e-33
-1.822481e-30
1.8575733e-33
1.3017831e-17
-1.2964515e-17
-1.2911708e-17
0
1.280524e-17
-1.7704819e-30
-1.2698954e-17
2.5291975e-17
-3.4933051e-30
-1.2540484e-17
-3.4676513e-30
-2.4870942e-17
2.4766323e-17
1.2330952e-17
-1.2278887e-17
-1.7375538e-33
-1.2175156e-17
0
0
1.2020689e-17
-1.6601474e-30
-2.3837047e-17
1.6865007e-33
3.5451151e-17
-1.1766578e-17
-1.1716302e-17
2.3332414e-17
-1.1616321e-17
1.1566629e-17
2.3034319e-17
-1.1467898e-17
-1.1418874e-17
-1.1370073e-17
1.1321526e-17
4.5825945e-48
-1.1225182e-17
1.1177404e-17
-1.1129919e-17
1.1082711e-17
3.0581533e-30
3.1233237e-33
1.0942951e-17
-2.1793999e-17
1.0851393e-17
3.0006433e-30
-2.9851107e-30
-1.0716607e-17
-2.1344758e-17
3.1885465e-17
2.9362222e-30
-5.8484752e-30
2.9093644e-30
-2.0912702e-17
2.0828283e-17
-2.8772173e-30
-2.0661306e-17
0
0
1.0207634e-17
-1.4101677e-30
-1.0127004e-17
-1.0087082e-17
1.0047414e-17
3.0023978e-17
-9.9688167e-18
-9.9298783e-18
-2.8112423e-33
-9.8527128e-18
0
1.9552973e-17
1.9477459e-17
-9.7012084e-18
-1.9327867e-17
-9.6269024e-18
1.9180252e-17
1.9107202e-17
-1.903468e-17
-1.8962678e-17
0
1.8820291e-17
-9.3749598e-18
-1.8680094e-17
9.3054178e-18
9.2710671e-18
-1.3126574e-33
1.2777766e-30
9.1697443e-18
-9.1365493e-18
-9.1036522e-18
9.0710469e-18
-1.2536549e-30
-1.2799333e-33
-1.2448166e-30
-8.9436004e-18
8.9124825e-18
-3.6993891e-30
-1.2288914e-30
-2.4481337e-30
-8.7909586e-18
8.7613111e-18
-1.2123457e-30
-2.412911e-30
-1.2326677e-33
-1.7291291e-17
-8.6174549e-18
8.589548e-18
1.7123861e-17
-1.1849436e-30
-1.7015093e-17
-8.4807768e-18
1.6908583e-17
8.4280825e-18
-8.4021547e-18
-8.3764998e-18
-2.3177539e-30
8.3260163e-18
0
0
8.2523235e-18
0
-8.2045242e-18
8.1810157e-18
1.1592889e-33
-2.2577103e-30
0
-8.0895696e-18
8.0673482e-18
8.0453758e-18
-1.6047314e-17
-8.0021833e-18
7.9809585e-18
0
0
-7.9187287e-18
2.1943687e-30
7.878431e-18
0
0
-7.8197284e-18
3.2502221e-30
7.7817311e-18
0
0
0
0
0
0
0
0
1.5243118e-17
4.2212482e-30
-7.5882613e-18
7.5719124e-18
-7.5557563e-18
7.5397969e-18
-2.0914107e-30
-7.5084471e-18
-2.0806716e-30
-7.4778463e-18
0
0
7.4333133e-18
2.0600611e-30
-7.4045163e-18
0
0
0
0
0
0
0
1.4591998e-17
-6.0630097e-30
-1.4540856e-17
7.2578659e-18
1.0296398e-33
7.2331722e-18
-4.0041195e-30
-1.4418088e-17
-7.1971861e-18
-5.5014762e-49
2.1521644e-17
0
-1.4302231e-17
0
0
1.4235961e-17
-1.9715097e-30
-2.1289719e-17
7.0860757e-18
7.0757224e-18
-7.0655075e-18
7.0554394e-18
-7.0455125e-18
-1.9516842e-30
7.0261044e-18
-7.0166268e-18
0
-6.9981256e-18
6.9891046e-18
1.3960484e-17
-6.9715313e-18
-6.9629778e-18
-6.9545742e-18
-6.9463234e-18
1.3876435e-17
6.9302568e-18
-6.9224332e-18
0
6.9071858e-18
-6.8997513e-18
-6.8924338e-18
2.0655689e-17
1.9548821e-33
-1.3742259e-17
6.8642184e-18
9.5208042e-31
6.8506359e-18
-1.9451671e-33
-1.3674638e-17
6.8307419e-18
0
-1.8931455e-30
-9.6793936e-34
-6.8048471e-18
6.7984555e-18
-1.8860283e-30
-9.411693e-31
-9.6341457e-34
-6.7731257e-18
6.7668418e-18
2.9147714e-49
-1.875541e-30
-9.589609e-34
-1.3483738e-17
-9.3422288e-31
6.7294735e-18
0
0
-6.7109923e-18
-2.789853e-30
6.698756e-18
-6.6926658e-18
9.283673e-31
1.1237385e-48
-9.266911e-31
6.6685229e-18
6.6625489e-18
9.2325698e-31
-6.6506828e-18
0
0
6.6330978e-18
-6.6272938e-18
5.5122278e-30
6.6157711e-18
-6.6100519e-18
0
6.5986968e-18
6.5930608e-18
-6.5874523e-18
-6.581871e-18
0
6.5707879e-18
6.5652847e-18
-1.3119612e-17
-6.5543514e-18
6.5489198e-18
6.543511e-18
9.0682443e-31
6.5327604e-18
1.8125341e-30
-1.3044195e-17
0
0
0
6.5010213e-18
6.4957996e-18
0
-6.4854078e-18
-8.9787464e-31
6.4750829e-18
0
0
-6.4597184e-18
-8.9524363e-31
8.9362305e-31
-6.4444894e-18
6.4394393e-18
-2.6773147e-30
-6.4293753e-18
0
-6.4193582e-18
-8.9057109e-31
6.4093883e-18
-6.4044208e-18
6.3994644e-18
6.3945184e-18
-6.3895821e-18
0
6.3797349e-18
6.3748224e-18
-6.3699166e-18
-6.3650171e-18
0
-6.3552375e-18
6.3503577e-18
6.3454847e-18
-6.3406187e-18
-1.2671519e-17
3.5159333e-30
1.8978177e-17
2.24363e-49
-6.3163798e-18
-1.2623094e-17
3.498915e-30
1.2603782e-17
-6.297067e-18
6.2922441e-18
-6.2874222e-18
-6.2826007e-18
1.2555559e-17
0
0
-1.2526649e-17
-1.7856642e-48
1.2507403e-17
0
0
-1.2478601e-17
-1.7764885e-48
1.2459455e-17
0
0
-1.2430847e-17
-6.2106736e-18
1.241187e-17
6.2012096e-18
0
-1.2383604e-17
3.436082e-30
1.2364926e-17
-6.1778224e-18
0
6.1686085e-18
-6.1640385e-18
8.7531694e-34
6.1549808e-18
-6.1504961e-18
6.1460422e-18
6.1416202e-18
-6.1372308e-18
-6.1328746e-18
1.7017769e-30
6.1242632e-18
-6.1200077e-18
-1.6982318e-30
6.1115943e-18
-6.1074343e-18
6.1033038e-18
6.0992013e-18
-6.0951251e-18
-6.0910732e-18
1.6902508e-30
6.0830325e-18
-6.0790379e-18
8.6331743e-34
6.0710847e-18
-6.06712e-18
6.0631595e-18
6.0592003e-18
-6.0552394e-18
-1.2102548e-17
3.3601488e-30
1.2086633e-17
-6.0393196e-18
8.5766871e-34
1.2062554e-17
1.7130411e-33
-6.0231568e-18
0
6.0149447e-18
0
-6.00663e-18
0
0
0
-5.9896693e-18
-2.0048112e-49
5.9810198e-18
0
5.9722653e-18
-1.6571534e-30
-5.9634114e-18
0
0
0
-5.9454183e-18
1.649661e-30
5.936301e-18
0
5.9271104e-18
1.6437159e-30
-5.9178557e-18
0
5.9085618e-18
-5.9039031e-18
3.2778762e-30
5.8945506e-18
-5.8898543e-18
0
-5.8804394e-18
-1.6315734e-30
5.8710212e-18
0
5.8615827e-18
-5.8568459e-18
-3.2500238e-30
5.8473555e-18
-3.243927e-30
-8.2961379e-34
1.6205815e-30
-8.2826879e-34
-5.8236699e-18
0
5.814127e-18
-1.6123188e-30
-1.6110014e-30
2.203379e-49
-1.6091983e-30
0
-1.1571261e-17
-1.6052242e-30
5.7760502e-18
-5.7712821e-18
1.6004352e-30
5.7618279e-18
5.7571078e-18
1.5973155e-30
-1.5959857e-30
5.7427538e-18
-5.7379416e-18
-5.7331637e-18
0
-5.7237296e-18
1.5880583e-30
5.7142707e-18
0
0
0
-1.138997e-17
6.3202779e-30
1.1371129e-17
0
0
0
0
0
0
0
-1.1294662e-17
3.1353214e-30
1.1275986e-17
5.6332346e-18
-5.6283897e-18
-5.6234915e-18
1.5609714e-30
3.1144706e-30
5.6090164e-18
-5.604336e-18
5.5996753e-18
5.594978e-18
-5.590207e-18
-5.5853599e-18
3.0975836e-30
5.5755763e-18
5.5707244e-18
-1.543966e-30
-5.5611874e-18
-5.5564781e-18
5.551778e-18
5.5470653e-18
-5.5423245e-18
5.5375461e-18
0
-5.5278518e-18
-5.5229425e-18
1.5306806e-30
5.513202e-18
-5.5084964e-18
5.5039192e-18
5.4994108e-18
-5.4948879e-18
5.4902776e-18
1.5232233e-30
-5.4806454e-18
-5.4756571e-18
-7.7742766e-34
1.0931562e-17
3.0321172e-30
-5.4567455e-18
-5.4525731e-18
0
5.4441314e-18
0
0
0
5.4253637e-18
5.4205822e-18
-5.4158959e-18
-5.4113658e-18
0
5.4029739e-18
-1.4999946e-30
-5.3953922e-18
0
0
5.3834139e-18
-2.9856572e-30
-5.3739899e-18
0
0
5.3597199e-18
-2.9727648e-30
-5.3518818e-18
0
5.3450781e-18
-1.4832667e-30
1.4814979e-30
-1.4811792e-30
-5.3300126e-18
0
-5.3212234e-18
2.9503794e-30
5.3119952e-18
0
5.3028666e-18
-5.2984815e-18
-5.2942449e-18
1.0580301e-17
1.4693705e-30
-1.0564623e-17
1.4657285e-30
5.2746584e-18
0
0
5.2632179e-18
-1.4596687e-30
-5.2553782e-18
0
5.2469455e-18
-5.2424664e-18
-5.2378643e-18
5.233214e-18
0
-5.2240458e-18
5.2195763e-18
2.8947975e-30
-2.8923106e-30
5.2060688e-18
-4.3314472e-30
5.1964851e-18
-5.1915656e-18
1.4394962e-30
-2.8777938e-30
-1.0354319e-17
1.4348484e-30
5.1680024e-18
0
0
0
-1.0298191e-17
-5.1443451e-18
1.027941e-17
5.1351738e-18
0
0
5.1215663e-18
2.269397e-49
-5.1119211e-18
0
-1.0204381e-17
-5.0975473e-18
1.0186227e-17
5.0888464e-18
0
-1.0160639e-17
-1.4426543e-33
1.5214027e-17
-1.4054853e-30
-1.0124099e-17
5.0573928e-18
2.8721617e-33
-5.0481388e-18
1.4011942e-30
2.7954739e-30
5.0339775e-18
0
5.0241157e-18
-2.786705e-30
-1.0028288e-17
5.0092639e-18
-8.3322921e-30
-5.000038e-18
9.9914373e-18
-7.0933288e-34
-4.9871644e-18
0
0
0
-4.9674766e-18
4.9623538e-18
9.9150313e-18
-4.9530705e-18
-1.3742404e-30
-1.3717594e-30
-4.9411368e-18
0
4.9320548e-18
-7.001619e-34
-9.843324e-18
4.9164366e-18
2.7248677e-30
-4.9070211e-18
-4.9029416e-18
2.7221538e-30
9.7903736e-18
0
4.8864767e-18
4.8816025e-18
0
-4.8713335e-18
-4.8662944e-18
4.8615027e-18
0
-4.8525467e-18
0
0
4.8384836e-18
-4.0249658e-30
-4.8280585e-18
0
0
4.8142265e-18
4.8105847e-18
-4.8070518e-18
-4.8032049e-18
4.7987744e-18
4.7937513e-18
-9.5766371e-18
-4.7827796e-18
1.3272934e-30
4.7727291e-18
-2.6455662e-30
-2.643486e-30
4.7610727e-18
-4.7569963e-18
4.7525032e-18
-4.7476855e-18
-4.0438909e-33
4.7378256e-18
-9.466295e-18
-4.7287484e-18
-4.7245745e-18
9.4410172e-18
9.4328519e-18
-4.7122445e-18
4.7079389e-18
-4.7035131e-18
2.6096307e-30
9.3888094e-18
-4.6898327e-18
1.3003668e-30
-1.3005135e-30
-4.6770962e-18
0
0
4.6655664e-18
4.6612923e-18
0
-4.6519656e-18
-4.6472792e-18
0
-4.6390674e-18
1.287256e-30
4.6326976e-18
-4.6294658e-18
1.2831763e-30
4.6216709e-18
0
4.612752e-18
2.5586657e-30
-4.6042704e-18
4.6003242e-18
-1.2743824e-30
-4.5925545e-18
-4.5886298e-18
-1.2724308e-30
4.5808289e-18
0
-4.5731453e-18
4.569232e-18
-1.2975146e-33
2.5330849e-30
4.5571096e-18
-4.5531475e-18
0
-9.0907873e-18
1.0083314e-29
4.5372458e-18
2.5161079e-30
9.0570131e-18
-9.0484297e-18
-9.0403715e-18
9.0329926e-18
9.0261108e-18
4.5096303e-18
0
-4.5020837e-18
-8.9955792e-18
6.385182e-34
-4.488334e-18
4.4834342e-18
4.478662e-18
-4.4741834e-18
8.9401703e-18
-8.9327233e-18
-7.4329863e-30
8.918831e-18
-8.91145e-18
2.4710131e-30
-4.4472453e-18
4.4425612e-18
4.4377385e-18
-4.4329026e-18
-1.2283496e-30
-8.8470579e-18
8.838184e-18
8.8297374e-18
-8.8217563e-18
-1.2231351e-30
-4.4033984e-18
2.4433927e-30
4.395727e-18
1.2188189e-30
8.6334574e-49
4.3824509e-18
8.7556309e-18
-4.3733901e-18
-1.6284366e-48
-4.3656903e-18
-7.2666586e-30
4.3587276e-18
-8.7095784e-18
2.414765e-30
8.690679e-18
2.6367443e-49
-4.3343718e-18
0
0
-4.3198999e-18
4.3163234e-18
8.6262278e-18
0
0
0
-4.2977279e-18
-4.292958e-18
0
4.283446e-18
-4.2791657e-18
-7.1207583e-30
8.5442808e-18
0
0
0
-4.257407e-18
-4.2524168e-18
4.2471012e-18
-4.2417543e-18
-2.3528652e-30
8.463852e-18
0
0
-8.4392668e-18
1.1982451e-33
4.2124673e-18
-4.2090971e-18
4.2056516e-18
-4.2019373e-18
2.331316e-30
8.3867546e-18
0
0
-4.1791687e-18
-4.1747172e-18
0
0
4.1623378e-18
4.1583798e-18
0
-4.1509598e-18
-4.1474597e-18
4.1439049e-18
-4.1401611e-18
-4.1361701e-18
4.1319499e-18
4.1275499e-18
-2.2897625e-30
-4.1184242e-18
4.1138176e-18
1.1404787e-30
-4.1048481e-18
0
-4.0964832e-18
2.272206e-30
4.0883966e-18
-4.0842022e-18
2.2652064e-30
4.0754225e-18
0
-4.066963e-18
1.1282504e-30
5.7688284e-34
-4.0557056e-18
4.0517761e-18
4.0476769e-18
0
-8.0786512e-18
4.4820669e-30
4.0313736e-18
5.7235016e-34
8.0475369e-18
-8.0400279e-18
-8.0326479e-18
8.0254266e-18
4.0091162e-18
0
-8.0028956e-18
6.6552386e-30
7.9859487e-18
0
-7.9695009e-18
-2.2109431e-30
3.9777038e-18
1.1036063e-30
7.9419864e-18
-7.935061e-18
-9.900869e-30
7.9208049e-18
-7.9134805e-18
2.1936124e-30
7.8977687e-18
3.9446248e-18
-7.8805593e-18
-3.936078e-18
7.8645144e-18
-7.8579282e-18
-9.8062134e-30
7.8466486e-18
-7.8408253e-18
1.0877574e-30
-3.9140213e-18
4.3391908e-30
1.1721511e-17
-2.1667347e-30
-7.7990723e-18
3.8952859e-18
7.7816788e-18
-3.8864163e-18
2.1555213e-30
-3.8787063e-18
-4.3048566e-30
3.8731711e-18
-7.7410267e-18
3.2205714e-30
-4.2898148e-30
2.1412967e-30
3.8555388e-18
0
3.8477071e-18
3.8438396e-18
0
0
0
0
0
-3.8214479e-18
-3.8190679e-18
0
3.8128455e-18
-3.8085808e-18
-6.3362066e-30
7.5972476e-18
0
0
0
-3.7822379e-18
-3.7789781e-18
3.7756625e-18
3.772228e-18
-7.5374059e-18
-6.2730319e-30
7.5229328e-18
0
-7.506412e-18
-6.2443628e-30
3.7438115e-18
-3.739191e-18
3.7349559e-18
-3.7312225e-18
-2.0692431e-30
7.4489179e-18
0
0
-3.7124777e-18
-3.7083154e-18
0
-3.7005618e-18
-1.0506989e-33
-3.6928402e-18
3.6885366e-18
1.1052014e-17
0
7.350183e-18
7.3421101e-18
0
-1.0990679e-17
-7.3193126e-18
7.3111119e-18
-3.6513681e-18
-3.6472151e-18
1.0929567e-17
3.6393031e-18
5.1662855e-34
3.6314635e-18
-3.627269e-18
-3.6229062e-18
-3.6184968e-18
-1.9945225e-49
-3.6101572e-18
-3.6063602e-18
3.6026734e-18
0
7.1897922e-18
7.1814216e-18
0
-3.5819808e-18
-7.155208e-18
-1.9829464e-30
-3.5690914e-18
-7.1299132e-18
7.121736e-18
7.1135907e-18
3.5527166e-18
3.5486204e-18
0
-3.5403806e-18
-1.0608765e-17
3.5321384e-18
2.1041224e-47
-1.0571796e-17
7.0396637e-18
3.5157338e-18
3.5116493e-18
7.0151804e-18
-7.0071099e-18
-3.4995201e-18
3.4954468e-18
3.4912984e-18
3.4870603e-18
-1.0448242e-17
-3.4783989e-18
1.0422199e-17
3.4697964e-18
-3.4656175e-18
-6.9230698e-18
3.4575311e-18
-3.4535828e-18
5.743507e-30
-5.7389744e-30
-1.0325565e-17
3.4378847e-18
3.433842e-18
6.8594516e-18
3.4255516e-18
-6.8427013e-18
-9.7121539e-34
-3.4130107e-18
3.4089139e-18
1.0214588e-17
-1.0202512e-17
-3.3968196e-18
1.0178404e-17
0
-1.0154361e-17
-3.3808147e-18
1.0130638e-17
-3.37298e-18
-6.7382024e-18
-1.8679546e-30
3.7311177e-30
3.3574424e-18
0
6.6992808e-18
6.6914852e-18
-3.3418472e-18
-3.3379511e-18
-6.6681051e-18
3.330155e-18
3.326267e-18
-6.6447965e-18
0
6.6294673e-18
6.6218496e-18
-3.3071129e-18
-6.6065735e-18
1.831444e-30
3.2956088e-18
-6.5835791e-18
3.2880017e-18
-1.0938045e-29
-6.5610546e-18
3.2768239e-18
0
6.5387189e-18
0
-7.2429911e-30
-3.2579102e-18
-6.5081728e-18
9.7508573e-18
-9.2271295e-34
-6.4854797e-18
0
6.4703573e-18
3.2313752e-18
-6.4551348e-18
3.5793293e-30
3.219977e-18
-6.4323889e-18
3.2124174e-18
-5.342209e-30
-6.4097261e-18
3.2010752e-18
-3.1972743e-18
6.3868951e-18
9.5687308e-18
0
-9.5449765e-18
-6.3552323e-18
9.5206258e-18
6.3389298e-18
-3.1654115e-18
-6.3227948e-18
3.1574236e-18
3.153476e-18
-6.2990663e-18
3.1455745e-18
6.2831791e-18
-3.1375818e-18
4.453062e-34
-6.2590988e-18
-6.2510846e-18
9.3646045e-18
-3.1175121e-18
-5.1855097e-30
9.328156e-18
0
-9.3035365e-18
-6.1941264e-18
3.0929416e-18
3.0888175e-18
3.0847e-18
0
3.0765174e-18
-1.7054365e-30
-6.1366758e-18
1.7004299e-30
3.060038e-18
0
3.0517191e-18
-6.0951947e-18
-9.1304544e-18
6.0786975e-18
9.1055018e-18
3.0309466e-18
-3.0267206e-18
-6.0450533e-18
3.0183796e-18
-3.0142594e-18
-3.0101231e-18
6.0118782e-18
-6.0034322e-18
-2.9975103e-18
8.9801509e-18
5.9787175e-18
-2.9853584e-18
-8.9437851e-18
6.6099448e-30
-6.6004346e-30
-2.9684785e-18
-3.2907648e-30
-2.9600724e-18
2.9559122e-18
2.9517035e-18
2.947407e-18
-2.9430348e-18
-2.9386492e-18
8.802967e-18
-2.9300944e-18
-5.8519059e-18
8.7655205e-18
8.2925798e-34
-2.913484e-18
5.8184484e-18
2.9049432e-18
0
-2.8964913e-18
-2.8923646e-18
-5.7765284e-18
2.8841306e-18
-9.5915471e-30
-8.6272373e-18
2.8715469e-18
2.8673766e-18
2.8632323e-18
-2.8590785e-18
-2.8548591e-18
8.5516246e-18
-2.8461666e-18
-5.6837056e-18
-4.7262646e-30
-2.8338237e-18
5.6600173e-18
8.4781405e-18
1.5659383e-30
-1.5638901e-30
-3.9973459e-34
-2.8083144e-18
-5.6077277e-18
-2.7996157e-18
8.386735e-18
-3.0991985e-30
-5.5757664e-18
0
0
2.7761012e-18
-1.5385642e-30
1.5357212e-30
2.7629568e-18
-5.5171504e-18
-2.7542827e-18
-3.0522098e-30
2.7458906e-18
8.225157e-18
2.7375238e-18
0
0
0
-8.1629373e-18
-5.4343548e-18
8.1403151e-18
-3.0088278e-30
-5.4110438e-18
0
0
5.3847238e-18
-5.9681082e-30
-2.9785588e-30
5.3592038e-18
-2.6756389e-18
-5.3434782e-18
-5.3356271e-18
2.6638393e-18
7.9795005e-18
2.6558145e-18
0
0
0
-7.9199841e-18
-5.2722451e-18
7.8966503e-18
-5.8354335e-30
-2.6240893e-18
3.7230597e-34
-2.6156225e-18
5.2228353e-18
-2.8944986e-30
-2.6032778e-18
5.1986863e-18
0
-1.4388994e-30
-5.1753965e-18
-5.1675707e-18
7.7395993e-18
5.1519122e-18
-2.5720613e-18
-1.4251617e-30
2.5642288e-18
-7.680655e-18
-5.1122515e-18
2.5519704e-18
2.5477883e-18
-2.5436206e-18
-2.5394972e-18
2.5354218e-18
2.5313744e-18
-1.4028616e-30
1.4002518e-30
2.5191897e-18
0
2.510929e-18
-5.0135642e-18
-7.5078919e-18
4.9969445e-18
4.9886091e-18
2.4901142e-18
-2.7593451e-30
-4.9631265e-18
2.477179e-18
-2.4727395e-18
-2.4682722e-18
4.9275981e-18
-4.9186501e-18
-2.4548407e-18
2.4503378e-18
4.891639e-18
2.441291e-18
-4.8734999e-18
1.349355e-30
-2.4275594e-18
-2.4228538e-18
7.2542159e-18
-2.4132445e-18
-2.4083986e-18
7.2106017e-18
-3.408645e-34
-7.1808743e-18
-2.3885409e-18
7.1502143e-18
-2.378269e-18
-2.6374954e-47
-3.9426635e-30
-4.7257177e-18
4.7150806e-18
4.7041937e-18
-2.3466038e-18
2.5990305e-30
4.6715056e-18
-2.330366e-18
-6.9746833e-18
-2.3192475e-18
2.3134203e-18
0
2.3016085e-18
4.5915809e-18
-3.2543159e-34
-6.8526531e-18
-2.2782893e-18
4.5444081e-18
-3.2201809e-34
-4.5194805e-18
4.5069129e-18
-3.742644e-30
-4.4815615e-18
6.7031185e-18
4.4558919e-18
0
0
-2.2084526e-18
-6.6050237e-18
-2.1947053e-18
6.5628961e-18
-2.4207817e-30
-4.3473071e-18
4.3336495e-18
4.3200671e-18
-2.1531762e-18
-4.2922486e-18
2.1388292e-18
2.1313413e-18
-6.371233e-18
-2.1161102e-18
-3.5116877e-30
1.1655251e-30
2.0931752e-18
-2.0854783e-18
4.1554419e-18
6.2096411e-18
0
-6.1616944e-18
-4.0915619e-18
6.1129069e-18
-5.7682258e-34
-2.0214423e-18
4.0267938e-18
-2.0053065e-18
-1.9970819e-18
-2.2077128e-30
1.9800238e-18
3.9424502e-18
-1.9623447e-18
-3.90693e-18
-3.8892616e-18
2.1496172e-30
1.9270129e-18
-1.9181139e-18
3.8182044e-18
5.6999693e-18
0
-5.6449662e-18
-3.7450281e-18
5.5901457e-18
-2.0589723e-30
-1.8449031e-18
1.8354423e-18
1.8258206e-18
-1.0075482e-30
-3.6125946e-18
9.9720449e-31
3.5735398e-18
-1.9725176e-30
-1.9616502e-30
-3.5146942e-18
-5.242013e-18
3.4744573e-18
-1.9177966e-30
-5.7175606e-30
1.7067458e-18
1.6966056e-18
3.3728773e-18
-5.0285898e-18
-1.6658474e-18
3.3107848e-18
-3.2897263e-18
-9.289939e-34
4.8712436e-18
1.6132088e-18
-1.6026697e-18
-4.7762749e-18
5.2673408e-30
3.1413439e-18
1.5598241e-18
-3.0978581e-18
-4.61409e-18
4.5814586e-18
1.5162965e-18
1.670831e-30
1.4945177e-18
-2.9670343e-18
8.1730866e-31
-1.4612766e-18
1.4501124e-18
-4.7932406e-30
-4.2835719e-18
4.2502932e-18
4.2169744e-18
0
0
0
-1.3605968e-18
-4.047795e-18
-1.3379795e-18
-1.4728851e-30
-1.3155275e-18
3.9128795e-18
1.2929945e-18
-1.2816144e-18
-1.2701819e-18
-1.2587576e-18
2.4947859e-18
-1.2361025e-18
1.2248651e-18
-4.0419747e-30
-2.4047587e-18
3.57314e-18
2.3592914e-18
0
-2.3137504e-18
-1.2718128e-30
1.1344561e-18
-3.3700177e-18
-1.1122173e-18
1.1010402e-18
0
0
1.0672279e-18
2.1121938e-18
-2.3204403e-30
-2.0683719e-18
-1.0232888e-18
1.0123563e-18
-1.0013514e-18
9.9027862e-19
5.7340824e-47
-1.6126755e-30
2.8725539e-18
0
0
-1.8514141e-18
-1.8300735e-18
-9.042908e-19
9.9180717e-31
2.6484748e-18
-9.6869244e-31
-1.7241871e-18
0
1.6834427e-18
8.3144719e-19
-1.6421995e-18
8.1070286e-19
8.0034723e-19
-2.3705805e-18
7.8033365e-19
-2.5666132e-30
-1.5218801e-18
2.2533876e-18
1.4824627e-18
0
0
0
-2.1063447e-18
-1.3858442e-18
2.0513248e-18
1.3490041e-18
0
-1.3112408e-18
7.1733342e-31
6.3682729e-19
-1.2555384e-18
6.1905351e-19
-6.1051135e-19
-6.01856e-19
1.7789945e-18
-1.1680252e-18
-1.150026e-18
5.6614129e-19
-5.5754712e-19
1.0986781e-18
1.6241934e-18
0
-1.5753643e-18
-1.0332977e-18
5.0813522e-19
4.9975748e-19
-5.4582306e-31
4.8395756e-19
-1.5875335e-30
-4.6925115e-19
-2.5629734e-31
-1.5425259e-48
4.4570043e-19
0
4.3025607e-19
-8.4608025e-19
-1.2485659e-18
1.2283593e-18
1.207438e-18
0
-7.7572383e-19
-7.6105716e-19
7.4675741e-19
-3.6656071e-19
-3.6018676e-19
1.0623434e-18
-6.9583069e-19
-6.8262737e-19
3.3441067e-19
6.5500268e-19
3.2089275e-19
-9.4429893e-19
-3.0908007e-19
-5.0542485e-31
5.9539444e-19
1.6572438e-34
-8.558077e-19
5.5824794e-19
8.1975017e-19
2.6761675e-19
-7.8658422e-19
-5.1401827e-19
7.5556473e-19
-5.4723656e-31
-4.8155551e-19
-2.3509226e-19
1.2744695e-31
4.4893872e-19
-2.4389711e-31
2.1514354e-19
2.1051358e-19
-6.1665889e-19
-2.0034759e-19
-2.166734e-31
3.8051968e-19
-6.183635e-31
-5.4387803e-19
3.5409105e-19
-1.9202599e-31
-1.8740766e-31
-3.6496219e-31
-1.5992362e-19
4.6645924e-19
-1.5116023e-19
-2.4481968e-31
-4.768816e-31
-4.1864774e-19
1.3590424e-19
2.6404344e-19
-1.4206527e-31
1.2399938e-19
1.2031409e-19
-2.3391868e-19
-2.2763414e-19
1.22814e-31
3.2161914e-19
-1.149249e-31
-9.99192e-20
1.9312314e-19
-9.3544015e-20
-9.072664e-20
4.8803459e-32
-4.7271648e-32
8.2210663e-20
-1.5832517e-19
7.6165753e-20
-2.4425406e-31
-2.3533517e-31
2.0441473e-19
-1.3156431e-19
1.8069467e-35
1.2269906e-19
-5.8939078e-20
-1.6924676e-19
-5.400259e-20
1.5562279e-19
-5.557216e-32
-4.8429366e-20
9.3494408e-20
-8.9635365e-20
-2.1334412e-31
4.0648137e-20
-3.8930201e-20
3.760955e-20
-7.2976542e-20
3.5348936e-20
1.0222788e-19
0
0
-5.9665896e-20
-8.190421e-36
5.600873e-20
-2.7290158e-20
-8.0018997e-20
-2.6139684e-20
7.681708e-20
7.1027772e-36
2.7006635e-32
4.7602408e-20
-7.0754524e-20
-1.1822656e-31
2.3894599e-20
-2.4091954e-20
-2.411341e-20
2.6658165e-32
2.3983891e-20
-4.8626413e-20
5.0105967e-20
-8.655763e-32
-5.3736857e-20
8.2775914e-20
5.6358372e-20
-2.8786072e-20
-8.8929626e-20
-3.0862211e-20
3.2316051e-20
0
-3.5372904e-20
3.6971429e-20
1.1576799e-19
2.2324788e-32
-8.3757952e-20
4.3702767e-20
4.5815774e-20
-9.6376826e-20
5.0668427e-20
-5.3112393e-20
-1.1090895e-19
1.7320632e-19
-2.0031179e-31
1.3965572e-31
1.3192533e-19
-1.3824278e-19
-7.2222741e-20
-7.5281944e-20
-8.7023401e-32
8.144363e-20
-1.6942071e-19
1.763304e-19
2.7544726e-19
0
-9.9642839e-20
5.7523367e-32
3.0570693e-35
-3.3437113e-19
-1.1541899e-19
3.5883619e-19
-1.2408914e-19
2.4113044e-47
4.000512e-19
-1.3801585e-19
-4.2808985e-19
-1.4736224e-19
3.0402565e-19
-1.5672464e-19
1.616591e-19
-5.5588732e-31
-3.4468318e-19
5.332217e-19
2.0333914e-31
-8.3661399e-31
3.8741236e-19
-3.9827856e-19
-2.2726729e-31
2.1037789e-19
-4.3210238e-19
-2.2178384e-19
0
0
4.7991237e-19
-5.4632173e-31
-1.4330961e-34
-2.8660452e-31
-2.6425754e-19
-2.704517e-19
2.7679148e-19
2.8324834e-19
-5.7957228e-19
5.9281292e-19
-3.364602e-31
-6.1950752e-19
6.3288087e-19
1.0761554e-30
-3.6614694e-31
3.3656412e-19
-6.8683617e-19
3.5036711e-19
-7.9336298e-31
-7.2845057e-19
0
7.5591695e-19
3.8489837e-19
-7.8397753e-19
-3.9918507e-19
4.0636938e-19
-6.8872439e-31
-4.2067263e-19
0
0
8.8440056e-19
8.989889e-19
0
-9.2835611e-19
-4.7144714e-19
4.7869583e-19
-4.8599542e-19
4.9341076e-19
0
-1.0165817e-18
0
0
5.3002777e-19
-5.9641499e-31
-5.4457986e-19
0
5.595508e-19
3.1464516e-31
-5.73996e-19
0
1.1761889e-18
1.1903745e-18
-6.0240942e-19
-6.7678437e-31
6.1693934e-19
-1.2480455e-18
-1.2619833e-18
1.2757975e-18
1.8326014e-34
1.4471554e-30
1.8719702e-34
-1.3312222e-18
6.7258866e-19
-7.5435344e-31
6.8630757e-19
-6.9303049e-19
-2.0991546e-18
2.1191021e-18
7.1295373e-19
-7.1950253e-19
-8.0596251e-31
-7.3265348e-19
1.4781022e-18
1.4905193e-18
-1.5027541e-18
-2.522574e-30
-7.6361893e-19
-7.696742e-19
1.5511903e-18
-7.8142291e-19
8.7379873e-31
-4.4035735e-31
7.9857558e-19
1.6083208e-18
-1.6193599e-18
-1.6302343e-18
0
8.2580392e-19
9.2264357e-31
-1.6725712e-18
-9.3401484e-31
2.5388783e-18
1.7023438e-18
0
-1.7215779e-18
-1.9215005e-30
-8.7017876e-19
-8.7470162e-19
2.6373348e-18
-4.902372e-31
-1.7752354e-18
8.9173191e-19
1.7915298e-18
-8.9969233e-19
-1.8069752e-18
-9.0716188e-19
0
1.8285423e-18
-9.1771841e-19
-2.7631953e-18
9.243209e-19
9.2749941e-19
1.8611525e-18
9.335378e-19
-1.8727944e-18
-9.3915812e-19
-9.4182275e-19
1.0484394e-30
9.4693922e-19
9.493944e-19
1.9035218e-18
9.5405068e-19
0
0
0
-1.9249953e-18
-1.9288564e-18
1.9324291e-18
1.0744435e-30
1.0760919e-30
-1.0773578e-30
-2.1584243e-30
1.9463795e-18
0
-1.9505528e-18
-9.7621087e-19
9.7709107e-19
-9.7790597e-19
-9.7861812e-19
0
0
1.9605752e-18
-3.2661115e-30
-2.178105e-30
1.9624149e-18
-1.9626374e-18
-1.9626888e-18
0
1.9621781e-18
-1.0885589e-30
-1.9609206e-18
1.9602689e-18
1.0881065e-30
-1.9596057e-18
0
1.9597262e-18
9.7955165e-19
-1.9574586e-18
9.7750925e-19
2.1680867e-30
-1.9502583e-18
1.9482652e-18
1.9461799e-18
0
0
0
-1.9382527e-18
-1.9351832e-18
1.9321646e-18
0
-1.9264304e-18
0
-9.608402e-19
1.9185101e-18
9.5718742e-19
-9.5482418e-19
1.904885e-18
9.5021844e-19
-1.8963586e-18
-9.4625971e-19
-1.0485331e-30
9.424596e-19
-2.0881598e-30
5.3344031e-34
1.8726525e-18
0
-9.3193437e-19
-1.8593359e-18
-9.2736114e-19
0
0
0
-9.1781805e-19
1.83076e-18
9.1292901e-19
-9.1046244e-19
-9.0797163e-19
9.0544353e-19
9.0286403e-19
-1.8004448e-18
0
1.7894911e-18
1.7838532e-18
0
0
-1.7666652e-18
-9.7745238e-31
-8.7761231e-19
-8.747672e-19
8.71928e-19
-8.6908946e-19
8.6624642e-19
1.7267894e-18
8.6053159e-19
0
-1.7095358e-18
-9.4546139e-31
8.4895927e-19
-8.4604149e-19
-8.4311576e-19
-1.6803632e-18
1.6744747e-18
8.3428049e-19
-2.3627194e-34
8.2831716e-19
-1.6506122e-18
8.2227425e-19
-8.1922269e-19
-7.1029092e-48
8.1307208e-19
-1.6199629e-18
1.613774e-18
1.6075859e-18
0
-7.9761916e-19
-1.5890866e-18
4.3932921e-31
7.8841642e-19
7.8536452e-19
-1.5646383e-18
-1.5585585e-18
7.7624386e-19
1.5464238e-18
1.5403648e-18
-7.6715397e-19
-1.5282502e-18
7.6109378e-19
-7.5805775e-19
1.2570568e-30
7.5196214e-19
-1.4977973e-18
1.4916459e-18
8.2433756e-31
-4.1057469e-30
1.4730498e-18
-1.466813e-18
-3.2428996e-30
7.2715694e-19
-1.4480644e-18
7.2091151e-19
-2.0401026e-34
3.1736633e-30
7.1159411e-19
-1.417013e-18
1.5662649e-30
-3.8976262e-31
6.9929702e-19
-1.9788382e-34
-1.3863822e-18
1.3802856e-18
3.905681e-34
-3.0375739e-30
1.3619814e-18
-1.355862e-18
-1.4984025e-30
1.3435737e-18
-6.6869885e-19
-6.6559879e-19
-6.6248621e-19
6.5936148e-19
-7.2850988e-31
-1.3061583e-18
0
0
1.2871888e-18
1.8201914e-34
-1.2744982e-18
6.3407454e-19
-7.0021574e-31
6.2772644e-19
1.3866982e-30
-1.2427603e-18
0
-6.1503038e-19
1.2237034e-18
6.0866899e-19
-1.3445239e-30
6.0228606e-19
-1.1981651e-18
5.9586888e-19
-6.5775623e-31
-1.1788127e-18
0
0
5.7961576e-19
-3.1990427e-31
5.7302082e-19
-5.6970289e-19
-1.6991159e-18
1.6890865e-18
5.5967422e-19
-1.1126178e-18
5.5293346e-19
9.1504527e-31
5.4615421e-19
-3.0851837e-34
-1.7964009e-30
5.3591996e-19
-1.0649827e-18
-5.2905348e-19
0
-5.2214763e-19
5.1867838e-19
5.1519731e-19
5.1170362e-19
-1.1283505e-30
5.6012227e-31
-5.5619712e-31
-9.9517266e-19
4.9401922e-19
8.1661985e-31
-9.7368049e-19
6.8670983e-35
4.796041e-19
9.5193211e-19
9.4463198e-19
-9.3731025e-19
-5.1646802e-31
-4.6130586e-19
-4.5761946e-19
9.0785244e-19
-9.0045362e-19