/*--------------------------------*- C++ -*----------------------------------*\
  =========                 |
  \\      /  F ield         | OpenFOAM: The Open Source CFD Toolbox
   \\    /   O peration     | Website:  https://openfoam.org
    \\  /    A nd           | Version:  7
     \\/     M anipulation  |
\*---------------------------------------------------------------------------*/
FoamFile
{
    version     2.0;
    format      ascii;
    class       volScalarField;
    location    "0.0025";
    object      rho;
}
// * * * * * * * * * * * * * * * * * * * * * * * * * * * * * * * * * * * * * //

dimensions      [1 -3 0 0 0 0 0];

internalField   nonuniform List<scalar> 
5000
(
0.98763092
0.98769396
0.98779193
0.98787121
0.98796916
0.98804892
0.98814691
0.98822672
0.98832475
0.98840457
0.98850264
0.98858248
0.98868057
0.98876042
0.98885853
0.98893837
0.98903649
0.98911632
0.98921444
0.98929425
0.98939237
0.98947217
0.98957028
0.98965005
0.98974816
0.9898279
0.989926
0.99000571
0.99010379
0.99018348
0.99028155
0.9903612
0.99045926
0.99053888
0.99063693
0.99071651
0.99081456
0.9908941
0.99099214
0.99107164
0.99116966
0.99124914
0.99134715
0.99142659
0.99152458
0.99160399
0.99170197
0.99178134
0.99187931
0.99195865
0.9920566
0.99213591
0.99223385
0.99231312
0.99241105
0.99249029
0.9925882
0.99266741
0.99276531
0.99284448
0.99294236
0.9930215
0.99311938
0.99319848
0.99329634
0.99337541
0.99347326
0.9935523
0.99365013
0.99372914
0.99382695
0.99390593
0.99400373
0.99408267
0.99418046
0.99425936
0.99435715
0.99443601
0.99453379
0.99461261
0.99471038
0.99478917
0.99488692
0.99496568
0.99506342
0.99514214
0.99523987
0.99531856
0.99541627
0.99549493
0.99559263
0.99567125
0.99576894
0.99584752
0.9959452
0.99602375
0.99612141
0.99619992
0.99629756
0.99637603
0.99647365
0.99655209
0.99664969
0.99672809
0.99682567
0.99690403
0.9970016
0.99707993
0.9971775
0.9972558
0.99735337
0.99743166
0.99752925
0.99760751
0.99770512
0.99778338
0.997881
0.99795925
0.99805689
0.99813513
0.99823278
0.998311
0.99840866
0.99848686
0.99858451
0.99866269
0.99876034
0.99883848
0.99893612
0.99901424
0.99911187
0.99918996
0.99928758
0.99936563
0.99946324
0.99954126
0.99963885
0.99971684
0.99981443
0.99989238
0.99998996
1.0000679
1.0001654
1.0002433
1.0003409
1.0004187
1.0005163
1.0005941
1.0006916
1.0007694
1.0008669
1.0009447
1.0010422
1.0011199
1.0012174
1.0012951
1.0013926
1.0014702
1.0015677
1.0016453
1.0017428
1.0018204
1.0019178
1.0019954
1.0020928
1.0021703
1.0022678
1.0023452
1.0024427
1.0025201
1.0026176
1.0026949
1.0027924
1.0028697
1.0029672
1.0030445
1.0031419
1.0032192
1.0033166
1.0033938
1.0034912
1.0035684
1.0036658
1.003743
1.0038404
1.0039175
1.0040149
1.004092
1.0041894
1.0042664
1.0043638
1.0044408
1.0045382
1.0046152
1.0047125
1.0047895
1.0048868
1.0049637
1.0050611
1.005138
1.0052353
1.0053121
1.0054095
1.0054863
1.0055836
1.0056604
1.0057577
1.0058344
1.0059317
1.0060084
1.0061057
1.0061824
1.0062797
1.0063563
1.0064536
1.0065302
1.0066274
1.006704
1.0068013
1.0068778
1.006975
1.0070515
1.0071488
1.0072252
1.0073225
1.0073989
1.0074961
1.0075725
1.0076697
1.007746
1.0078433
1.0079195
1.0080169
1.0080931
1.0081903
1.0082666
1.0083637
1.00844
1.008537
1.0086134
1.0087104
1.0087866
1.0088839
1.0089597
1.0090573
1.0091328
1.0092306
1.009306
1.0094035
1.0094794
1.0095762
1.0096531
1.0097485
1.0098269
1.0099207
1.0100008
1.0100928
1.0101746
1.0102649
1.0103483
1.0104371
1.0105218
1.0106095
1.0106951
1.0107821
1.0108683
1.0109547
1.0110413
1.0111274
1.0112142
1.0113002
1.0113871
1.011473
1.0115599
1.0116458
1.0117327
1.0118186
1.0119055
1.0119914
1.0120783
1.0121642
1.012251
1.0123369
1.0124238
1.0125096
1.0125964
1.0126823
1.0127691
1.0128549
1.0129417
1.0130275
1.0131143
1.0132
1.0132868
1.0133725
1.0134593
1.013545
1.0136318
1.0137174
1.0138042
1.0138898
1.0139765
1.0140622
1.0141488
1.0142346
1.014321
1.0144069
1.0144932
1.0145792
1.0146654
1.0147514
1.0148375
1.0149236
1.0150096
1.0150957
1.0151817
1.0152678
1.0153537
1.0154398
1.0155257
1.0156118
1.0156976
1.0157838
1.0158696
1.0159557
1.0160414
1.0161276
1.0162133
1.0162994
1.0163851
1.0164712
1.0165568
1.0166429
1.0167286
1.0168146
1.0169002
1.0169863
1.0170719
1.0171579
1.0172435
1.0173295
1.017415
1.017501
1.0175866
1.0176725
1.017758
1.017844
1.0179295
1.0180154
1.0181009
1.0181868
1.0182722
1.0183581
1.0184435
1.0185294
1.0186148
1.0187006
1.0187861
1.0188719
1.0189573
1.019043
1.0191284
1.0192142
1.0192995
1.0193853
1.0194706
1.0195563
1.0196416
1.0197274
1.0198126
1.0198983
1.0199836
1.0200693
1.0201545
1.0202402
1.0203254
1.020411
1.0204962
1.0205818
1.020667
1.0207526
1.0208378
1.0209233
1.0210085
1.021094
1.0211792
1.0212647
1.0213498
1.0214353
1.0215204
1.0216059
1.0216909
1.0217764
1.0218614
1.0219469
1.0220319
1.0221173
1.0222024
1.0222878
1.0223727
1.0224581
1.0225431
1.0226285
1.0227134
1.0227988
1.0228837
1.0229691
1.023054
1.0231394
1.0232243
1.0233096
1.0233945
1.0234798
1.0235647
1.02365
1.0237349
1.0238202
1.0239051
1.0239904
1.0240753
1.0241605
1.0242454
1.0243307
1.0244155
1.0245008
1.0245856
1.0246709
1.0247557
1.0248409
1.0249257
1.025011
1.0250958
1.025181
1.0252658
1.025351
1.0254357
1.0255209
1.0256057
1.0256908
1.0257756
1.0258607
1.0259454
1.0260306
1.0261153
1.0262004
1.026285
1.0263702
1.0264548
1.0265399
1.0266245
1.0267096
1.0267942
1.0268793
1.0269638
1.0270489
1.0271334
1.0272185
1.027303
1.027388
1.0274726
1.0275575
1.0276421
1.027727
1.0278115
1.0278964
1.0279809
1.0280658
1.0281503
1.0282351
1.0283197
1.0284044
1.028489
1.0285736
1.0286582
1.0287429
1.0288274
1.0289121
1.0289966
1.0290812
1.0291658
1.0292503
1.0293348
1.0294194
1.0295039
1.0295884
1.0296729
1.0297574
1.0298419
1.0299263
1.0300108
1.0300952
1.0301797
1.0302641
1.0303485
1.0304329
1.0305173
1.0306017
1.030686
1.0307704
1.0308547
1.0309391
1.0310234
1.0311077
1.031192
1.0312763
1.0313606
1.0314448
1.0315291
1.0316133
1.0316976
1.0317818
1.031866
1.0319502
1.0320344
1.0321185
1.0322027
1.0322868
1.0323709
1.032455
1.0325391
1.0326232
1.0327073
1.0327914
1.0328754
1.0329594
1.0330434
1.0331274
1.0332114
1.0332954
1.0333793
1.0334633
1.0335472
1.0336311
1.033715
1.0337988
1.0338827
1.0339665
1.0340503
1.0341341
1.0342179
1.0343017
1.0343854
1.0344691
1.0345528
1.0346365
1.0347202
1.0348038
1.0348875
1.0349711
1.0350546
1.0351382
1.0352217
1.0353053
1.0353888
1.0354723
1.0355557
1.0356391
1.0357226
1.0358059
1.0358893
1.0359727
1.036056
1.0361393
1.0362226
1.0363058
1.036389
1.0364722
1.0365554
1.0366385
1.0367216
1.0368047
1.0368878
1.0369708
1.0370538
1.0371368
1.0372197
1.0373026
1.0373855
1.0374683
1.0375511
1.0376339
1.0377166
1.0377993
1.0378819
1.0379645
1.0380471
1.0381296
1.0382121
1.0382945
1.0383769
1.0384592
1.0385415
1.0386238
1.038706
1.0387881
1.0388702
1.0389522
1.0390342
1.0391161
1.039198
1.0392798
1.0393615
1.0394432
1.0395248
1.0396064
1.0396879
1.0397693
1.0398506
1.0399319
1.0400131
1.0400943
1.0401753
1.0402563
1.0403373
1.0404181
1.0404989
1.0405796
1.0406602
1.0407407
1.0408211
1.0409015
1.0409817
1.0410619
1.041142
1.041222
1.0413018
1.0413816
1.0414613
1.0415409
1.0416204
1.0416998
1.0417791
1.0418583
1.0419374
1.0420164
1.0420952
1.042174
1.0422526
1.0423311
1.0424095
1.0424878
1.042566
1.042644
1.0427219
1.0427997
1.0428773
1.0429548
1.0430322
1.0431095
1.0431866
1.0432636
1.0433404
1.0434171
1.0434936
1.0435701
1.0436463
1.0437224
1.0437984
1.0438741
1.0439498
1.0440253
1.0441006
1.0441757
1.0442507
1.0443256
1.0444002
1.0444747
1.044549
1.0446232
1.0446971
1.0447709
1.0448445
1.0449179
1.0449912
1.0450642
1.0451371
1.0452098
1.0452823
1.0453546
1.0454266
1.0454985
1.0455702
1.0456417
1.045713
1.0457841
1.045855
1.0459257
1.0459961
1.0460664
1.0461364
1.0462062
1.0462758
1.0463452
1.0464144
1.0464833
1.046552
1.0466205
1.0466888
1.0467568
1.0468246
1.0468922
1.0469596
1.0470267
1.0470935
1.0471602
1.0472266
1.0472927
1.0473586
1.0474243
1.0474897
1.0475549
1.0476199
1.0476846
1.047749
1.0478132
1.0478772
1.0479409
1.0480043
1.0480675
1.0481305
1.0481932
1.0482556
1.0483178
1.0483797
1.0484414
1.0485028
1.0485639
1.0486248
1.0486854
1.0487458
1.0488059
1.0488657
1.0489253
1.0489846
1.0490437
1.0491025
1.049161
1.0492192
1.0492772
1.0493349
1.0493924
1.0494496
1.0495065
1.0495631
1.0496195
1.0496756
1.0497315
1.0497871
1.0498424
1.0498974
1.0499522
1.0500067
1.0500609
1.0501148
1.0501685
1.050222
1.0502751
1.050328
1.0503806
1.050433
1.050485
1.0505368
1.0505884
1.0506397
1.0506907
1.0507414
1.0507919
1.0508421
1.0508921
1.0509418
1.0509912
1.0510404
1.0510893
1.0511379
1.0511863
1.0512344
1.0512823
1.0513299
1.0513773
1.0514244
1.0514712
1.0515178
1.0515642
1.0516103
1.0516561
1.0517017
1.0517471
1.0517922
1.051837
1.0518816
1.051926
1.0519701
1.052014
1.0520577
1.0521011
1.0521443
1.0521872
1.0522299
1.0522724
1.0523146
1.0523567
1.0523984
1.05244
1.0524813
1.0525224
1.0525633
1.052604
1.0526444
1.0526847
1.0527247
1.0527645
1.0528041
1.0528434
1.0528826
1.0529216
1.0529603
1.0529988
1.0530372
1.0530753
1.0531133
1.053151
1.0531885
1.0532259
1.053263
1.0533
1.0533367
1.0533733
1.0534097
1.0534459
1.0534819
1.0535177
1.0535534
1.0535889
1.0536241
1.0536593
1.0536942
1.053729
1.0537636
1.053798
1.0538323
1.0538663
1.0539003
1.053934
1.0539676
1.0540011
1.0540344
1.0540675
1.0541005
1.0541333
1.0541659
1.0541985
1.0542308
1.0542631
1.0542952
1.0543271
1.0543589
1.0543905
1.054422
1.0544534
1.0544846
1.0545157
1.0545467
1.0545776
1.0546083
1.0546389
1.0546694
1.0546997
1.0547299
1.05476
1.05479
1.0548198
1.0548496
1.0548792
1.0549087
1.0549381
1.0549674
1.0549966
1.0550257
1.0550546
1.0550835
1.0551123
1.055141
1.0551695
1.055198
1.0552264
1.0552547
1.0552828
1.0553109
1.0553389
1.0553668
1.0553947
1.0554224
1.05545
1.0554776
1.055505
1.0555324
1.0555597
1.0555869
1.0556141
1.0556411
1.0556681
1.055695
1.0557218
1.0557486
1.0557753
1.0558019
1.0558284
1.0558548
1.0558812
1.0559075
1.0559338
1.05596
1.0559861
1.0560121
1.0560381
1.056064
1.0560899
1.0561157
1.0561414
1.056167
1.0561926
1.0562182
1.0562437
1.0562691
1.0562945
1.0563198
1.0563451
1.0563703
1.0563954
1.0564205
1.0564456
1.0564706
1.0564955
1.0565204
1.0565452
1.05657
1.0565948
1.0566194
1.0566441
1.0566687
1.0566932
1.0567177
1.0567422
1.0567666
1.056791
1.0568153
1.0568396
1.0568638
1.056888
1.0569121
1.0569362
1.0569603
1.0569844
1.0570084
1.0570323
1.0570562
1.0570801
1.057104
1.0571278
1.0571515
1.0571752
1.0571989
1.0572226
1.0572462
1.0572698
1.0572934
1.0573169
1.0573404
1.0573639
1.0573873
1.0574107
1.057434
1.0574573
1.0574806
1.0575039
1.0575271
1.0575503
1.0575735
1.0575966
1.0576198
1.0576428
1.0576659
1.0576889
1.0577119
1.0577349
1.0577578
1.0577808
1.0578036
1.0578265
1.0578493
1.0578721
1.0578949
1.0579176
1.0579404
1.0579631
1.0579858
1.0580084
1.058031
1.0580536
1.0580762
1.0580987
1.0581212
1.0581438
1.0581662
1.0581887
1.0582111
1.0582335
1.0582559
1.0582783
1.0583006
1.0583229
1.0583452
1.0583675
1.0583897
1.0584119
1.0584341
1.0584563
1.0584785
1.0585006
1.0585227
1.0585448
1.0585669
1.0585889
1.058611
1.058633
1.058655
1.058677
1.0586989
1.0587208
1.0587428
1.0587646
1.0587865
1.0588084
1.0588302
1.058852
1.0588738
1.0588956
1.0589174
1.0589391
1.0589609
1.0589826
1.0590043
1.0590259
1.0590476
1.0590692
1.0590908
1.0591124
1.059134
1.0591556
1.0591771
1.0591987
1.0592202
1.0592417
1.0592631
1.0592846
1.059306
1.0593275
1.0593489
1.0593703
1.0593916
1.059413
1.0594343
1.0594556
1.0594769
1.0594982
1.0595194
1.0595407
1.0595619
1.0595831
1.0596043
1.0596255
1.0596466
1.0596677
1.0596888
1.0597099
1.059731
1.059752
1.0597731
1.0597941
1.0598151
1.0598361
1.059857
1.059878
1.0598989
1.0599198
1.0599407
1.0599616
1.0599824
1.0600032
1.0600241
1.0600448
1.0600656
1.0600864
1.0601071
1.0601278
1.0601484
1.0601691
1.0601897
1.0602104
1.060231
1.0602516
1.0602722
1.0602927
1.0603133
1.0603338
1.0603543
1.0603747
1.0603952
1.0604156
1.0604361
1.0604565
1.0604769
1.0604972
1.0605175
1.0605379
1.0605581
1.0605784
1.0605986
1.0606189
1.0606391
1.0606593
1.0606795
1.0606996
1.0607198
1.0607399
1.06076
1.0607801
1.0608001
1.0608202
1.0608402
1.0608602
1.0608802
1.0609001
1.06092
1.06094
1.0609599
1.0609798
1.0609996
1.0610195
1.0610393
1.0610591
1.0610789
1.0610987
1.0611184
1.0611381
1.0611578
1.0611775
1.0611972
1.0612168
1.0612364
1.061256
1.0612756
1.0612951
1.0613147
1.0613342
1.0613537
1.0613731
1.0613926
1.061412
1.0614314
1.0614508
1.0614702
1.0614896
1.0615089
1.0615282
1.0615475
1.0615668
1.061586
1.0616053
1.0616245
1.0616437
1.0616629
1.0616821
1.0617012
1.0617203
1.0617394
1.0617585
1.0617775
1.0617966
1.0618156
1.0618346
1.0618536
1.0618725
1.0618915
1.0619104
1.0619293
1.0619482
1.061967
1.0619859
1.0620047
1.0620235
1.0620423
1.062061
1.0620798
1.0620985
1.0621172
1.0621359
1.0621546
1.0621732
1.0621919
1.0622105
1.0622291
1.0622476
1.0622662
1.0622847
1.0623032
1.0623217
1.0623402
1.0623587
1.0623771
1.0623955
1.0624139
1.0624323
1.0624507
1.062469
1.0624873
1.0625056
1.0625239
1.0625422
1.0625604
1.0625786
1.0625968
1.062615
1.0626332
1.0626514
1.0626695
1.0626876
1.0627057
1.0627237
1.0627418
1.0627598
1.0627778
1.0627957
1.0628137
1.0628316
1.0628496
1.0628675
1.0628854
1.0629032
1.062921
1.0629388
1.0629566
1.0629743
1.0629921
1.0630098
1.0630274
1.0630451
1.0630627
1.0630803
1.0630979
1.0631155
1.063133
1.0631505
1.063168
1.0631855
1.0632029
1.0632203
1.0632377
1.063255
1.0632723
1.0632896
1.0633069
1.0633241
1.0633413
1.0633584
1.0633756
1.0633927
1.0634098
1.0634268
1.0634439
1.0634608
1.0634778
1.0634947
1.0635116
1.0635285
1.0635453
1.0635621
1.0635788
1.0635955
1.0636122
1.0636289
1.0636455
1.0636621
1.0636786
1.0636952
1.0637116
1.0637281
1.0637444
1.0637608
1.0637771
1.0637934
1.0638097
1.0638259
1.063842
1.0638582
1.0638743
1.0638903
1.0639063
1.0639223
1.0639382
1.0639541
1.0639699
1.0639857
1.0640015
1.0640172
1.0640328
1.0640485
1.064064
1.0640796
1.0640951
1.0641105
1.0641259
1.0641412
1.0641565
1.0641718
1.064187
1.0642022
1.0642173
1.0642324
1.0642474
1.0642624
1.0642773
1.0642921
1.064307
1.0643217
1.0643364
1.0643511
1.0643657
1.0643803
1.0643948
1.0644093
1.0644237
1.064438
1.0644523
1.0644666
1.0644808
1.0644949
1.064509
1.0645231
1.064537
1.064551
1.0645648
1.0645787
1.0645924
1.0646061
1.0646198
1.0646334
1.0646469
1.0646604
1.0646738
1.0646872
1.0647005
1.0647138
1.0647269
1.0647401
1.0647532
1.0647662
1.0647792
1.064792
1.0648049
1.0648177
1.0648304
1.0648431
1.0648557
1.0648683
1.0648808
1.0648932
1.0649056
1.0649179
1.0649302
1.0649424
1.0649545
1.0649666
1.0649786
1.0649906
1.0650025
1.0650144
1.0650261
1.0650379
1.0650495
1.0650612
1.0650727
1.0650842
1.0650956
1.065107
1.0651183
1.0651296
1.0651408
1.0651519
1.065163
1.065174
1.065185
1.0651959
1.0652068
1.0652176
1.0652283
1.065239
1.0652496
1.0652602
1.0652707
1.0652812
1.0652916
1.0653019
1.0653123
1.0653225
1.0653327
1.0653428
1.0653529
1.0653629
1.0653729
1.0653828
1.0653927
1.0654025
1.0654122
1.0654219
1.0654316
1.0654412
1.0654508
1.0654603
1.0654697
1.0654791
1.0654885
1.0654978
1.065507
1.0655162
1.0655254
1.0655345
1.0655436
1.0655526
1.0655615
1.0655705
1.0655794
1.0655882
1.065597
1.0656057
1.0656144
1.0656231
1.0656317
1.0656402
1.0656487
1.0656572
1.0656656
1.065674
1.0656824
1.0656907
1.0656989
1.0657072
1.0657153
1.0657235
1.0657316
1.0657397
1.0657477
1.0657557
1.0657636
1.0657715
1.0657794
1.0657872
1.065795
1.0658028
1.0658105
1.0658182
1.0658259
1.0658335
1.0658411
1.0658486
1.0658561
1.0658636
1.0658711
1.0658785
1.0658859
1.0658932
1.0659005
1.0659078
1.0659151
1.0659223
1.0659295
1.0659367
1.0659438
1.0659509
1.065958
1.0659651
1.0659721
1.0659791
1.0659861
1.065993
1.0659999
1.0660068
1.0660137
1.0660205
1.0660273
1.0660341
1.0660409
1.0660476
1.0660544
1.0660611
1.0660677
1.0660744
1.066081
1.0660876
1.0660942
1.0661008
1.0661073
1.0661138
1.0661203
1.0661268
1.0661332
1.0661397
1.0661461
1.0661525
1.0661589
1.0661653
1.0661716
1.0661779
1.0661843
1.0661906
1.0661968
1.0662031
1.0662094
1.0662156
1.0662218
1.066228
1.0662342
1.0662404
1.0662466
1.0662527
1.0662589
1.066265
1.0662711
1.0662772
1.0662833
1.0662894
1.0662955
1.0663016
1.0663076
1.0663137
1.0663197
1.0663258
1.0663318
1.0663378
1.0663438
1.0663498
1.0663558
1.0663618
1.0663678
1.0663738
1.0663798
1.0663858
1.0663918
1.0663977
1.0664037
1.0664097
1.0664157
1.0664217
1.0664277
1.0664336
1.0664396
1.0664456
1.0664516
1.0664576
1.0664636
1.0664696
1.0664756
1.0664816
1.0664877
1.0664937
1.0664997
1.0665058
1.0665118
1.0665179
1.066524
1.0665301
1.0665362
1.0665423
1.0665484
1.0665545
1.0665607
1.0665669
1.066573
1.0665792
1.0665855
1.0665917
1.0665979
1.0666042
1.0666105
1.0666168
1.0666231
1.0666295
1.0666358
1.0666422
1.0666487
1.0666551
1.0666616
1.066668
1.0666746
1.0666811
1.0666877
1.0666943
1.0667009
1.0667075
1.0667142
1.0667209
1.0667276
1.0667343
1.0667411
1.0667479
1.0667548
1.0667616
1.0667685
1.0667755
1.0667824
1.0667895
1.0667965
1.0668036
1.0668107
1.0668178
1.066825
1.0668322
1.0668394
1.0668467
1.066854
1.0668614
1.0668687
1.0668762
1.0668836
1.0668911
1.0668987
1.0669062
1.0669138
1.0669215
1.0669292
1.0669369
1.0669447
1.0669525
1.0669603
1.0669682
1.0669761
1.0669841
1.0669921
1.0670001
1.0670082
1.0670163
1.0670245
1.0670327
1.0670409
1.0670492
1.0670575
1.0670659
1.0670743
1.0670828
1.0670913
1.0670998
1.0671084
1.067117
1.0671257
1.0671344
1.0671431
1.0671519
1.0671607
1.0671696
1.0671785
1.0671874
1.0671964
1.0672055
1.0672145
1.0672237
1.0672328
1.067242
1.0672512
1.0672605
1.0672698
1.0672792
1.0672886
1.067298
1.0673075
1.067317
1.0673265
1.0673361
1.0673457
1.0673554
1.0673651
1.0673749
1.0673846
1.0673944
1.0674043
1.0674142
1.0674241
1.0674341
1.0674441
1.0674541
1.0674642
1.0674743
1.0674844
1.0674945
1.0675047
1.067515
1.0675252
1.0675355
1.0675459
1.0675562
1.0675666
1.067577
1.0675875
1.0675979
1.0676084
1.067619
1.0676295
1.0676401
1.0676507
1.0676613
1.067672
1.0676827
1.0676934
1.0677042
1.0677149
1.0677257
1.0677365
1.0677473
1.0677582
1.067769
1.0677799
1.0677908
1.0678018
1.0678127
1.0678237
1.0678346
1.0678457
1.0678567
1.0678677
1.0678788
1.0678898
1.0679009
1.067912
1.0679231
1.0679342
1.0679453
1.0679565
1.0679676
1.0679788
1.06799
1.0680012
1.0680124
1.0680236
1.0680348
1.068046
1.0680572
1.0680685
1.0680797
1.068091
1.0681022
1.0681135
1.0681248
1.068136
1.0681473
1.0681586
1.0681699
1.0681812
1.0681924
1.0682037
1.068215
1.0682263
1.0682376
1.0682489
1.0682602
1.0682715
1.0682828
1.0682941
1.0683054
1.0683166
1.0683279
1.0683392
1.0683505
1.0683618
1.068373
1.0683843
1.0683956
1.0684068
1.0684181
1.0684293
1.0684406
1.0684518
1.068463
1.0684742
1.0684854
1.0684967
1.0685079
1.068519
1.0685302
1.0685414
1.0685525
1.0685637
1.0685749
1.068586
1.0685971
1.0686082
1.0686193
1.0686304
1.0686415
1.0686526
1.0686637
1.0686747
1.0686858
1.0686968
1.0687078
1.0687188
1.0687298
1.0687408
1.0687517
1.0687627
1.0687736
1.0687846
1.0687955
1.0688064
1.0688173
1.0688281
1.068839
1.0688498
1.0688607
1.0688715
1.0688823
1.0688931
1.0689039
1.0689146
1.0689254
1.0689361
1.0689468
1.0689575
1.0689682
1.0689789
1.0689895
1.0690001
1.0690108
1.0690214
1.069032
1.0690425
1.0690531
1.0690636
1.0690742
1.0690847
1.0690952
1.0691056
1.0691161
1.0691265
1.069137
1.0691474
1.0691578
1.0691682
1.0691785
1.0691889
1.0691992
1.0692095
1.0692198
1.0692301
1.0692403
1.0692506
1.0692608
1.069271
1.0692812
1.0692914
1.0693016
1.0693117
1.0693218
1.0693319
1.069342
1.0693521
1.0693621
1.0693722
1.0693822
1.0693922
1.0694022
1.0694121
1.0694221
1.069432
1.0694419
1.0694518
1.0694617
1.0694716
1.0694814
1.0694912
1.069501
1.0695108
1.0695206
1.0695303
1.0695401
1.0695498
1.0695595
1.0695692
1.0695788
1.0695885
1.0695981
1.0696077
1.0696173
1.0696269
1.0696364
1.069646
1.0696555
1.069665
1.0696745
1.069684
1.0696934
1.0697028
1.0697122
1.0697216
1.069731
1.0697404
1.0697497
1.069759
1.0697684
1.0697776
1.0697869
1.0697962
1.0698054
1.0698146
1.0698238
1.069833
1.0698422
1.0698513
1.0698604
1.0698695
1.0698786
1.0698877
1.0698967
1.0699058
1.0699148
1.0699238
1.0699328
1.0699417
1.0699507
1.0699596
1.0699685
1.0699774
1.0699862
1.0699951
1.0700039
1.0700127
1.0700215
1.0700303
1.070039
1.0700477
1.0700565
1.0700652
1.0700738
1.0700825
1.0700911
1.0700998
1.0701084
1.070117
1.0701255
1.0701341
1.0701426
1.0701511
1.0701596
1.0701681
1.0701765
1.0701849
1.0701934
1.0702018
1.0702101
1.0702185
1.0702268
1.0702352
1.0702435
1.0702517
1.07026
1.0702683
1.0702765
1.0702847
1.0702929
1.070301
1.0703092
1.0703173
1.0703255
1.0703336
1.0703416
1.0703497
1.0703577
1.0703658
1.0703738
1.0703817
1.0703897
1.0703977
1.0704056
1.0704135
1.0704214
1.0704293
1.0704371
1.0704449
1.0704528
1.0704606
1.0704684
1.0704761
1.0704839
1.0704916
1.0704993
1.070507
1.0705147
1.0705223
1.07053
1.0705376
1.0705452
1.0705528
1.0705603
1.0705679
1.0705754
1.0705829
1.0705904
1.0705979
1.0706054
1.0706128
1.0706202
1.0706276
1.070635
1.0706424
1.0706497
1.0706571
1.0706644
1.0706717
1.070679
1.0706862
1.0706935
1.0707007
1.0707079
1.0707151
1.0707222
1.0707294
1.0707365
1.0707436
1.0707507
1.0707578
1.0707649
1.0707719
1.0707789
1.0707859
1.0707929
1.0707999
1.0708069
1.0708138
1.0708207
1.0708276
1.0708345
1.0708414
1.0708482
1.0708551
1.0708619
1.0708687
1.0708754
1.0708822
1.0708889
1.0708957
1.0709024
1.0709091
1.0709157
1.0709224
1.070929
1.0709356
1.0709422
1.0709488
1.0709554
1.0709619
1.0709684
1.0709749
1.0709814
1.0709879
1.0709943
1.0710008
1.0710072
1.0710136
1.07102
1.0710264
1.0710327
1.0710391
1.0710454
1.0710517
1.0710579
1.0710642
1.0710705
1.0710767
1.0710829
1.0710891
1.0710953
1.0711014
1.0711076
1.0711137
1.0711198
1.0711259
1.0711319
1.071138
1.071144
1.07115
1.071156
1.071162
1.071168
1.0711739
1.0711799
1.0711858
1.0711917
1.0711976
1.0712035
1.0712093
1.0712151
1.071221
1.0712268
1.0712325
1.0712383
1.071244
1.0712498
1.0712555
1.0712612
1.0712669
1.0712725
1.0712782
1.0712838
1.0712894
1.071295
1.0713006
1.0713062
1.0713117
1.0713172
1.0713227
1.0713282
1.0713337
1.0713392
1.0713446
1.0713501
1.0713555
1.0713609
1.0713662
1.0713716
1.071377
1.0713823
1.0713876
1.0713929
1.0713982
1.0714035
1.0714087
1.071414
1.0714192
1.0714244
1.0714296
1.0714347
1.0714399
1.071445
1.0714502
1.0714553
1.0714604
1.0714654
1.0714705
1.0714755
1.0714806
1.0714856
1.0714906
1.0714956
1.0715005
1.0715055
1.0715104
1.0715153
1.0715203
1.0715251
1.07153
1.0715349
1.0715397
1.0715446
1.0715494
1.0715542
1.071559
1.0715637
1.0715685
1.0715732
1.0715779
1.0715826
1.0715873
1.071592
1.0715967
1.0716013
1.071606
1.0716106
1.0716152
1.0716198
1.0716244
1.0716289
1.0716335
1.071638
1.0716425
1.071647
1.0716515
1.0716559
1.0716604
1.0716648
1.0716692
1.0716736
1.071678
1.0716824
1.0716868
1.0716911
1.0716954
1.0716998
1.0717041
1.0717083
1.0717126
1.0717169
1.0717211
1.0717253
1.0717295
1.0717337
1.0717379
1.071742
1.0717462
1.0717503
1.0717545
1.0717586
1.0717626
1.0717667
1.0717708
1.0717748
1.0717789
1.0717829
1.0717869
1.0717908
1.0717948
1.0717988
1.0718027
1.0718066
1.0718105
1.0718144
1.0718182
1.0718221
1.0718259
1.0718297
1.0718335
1.0718373
1.0718411
1.0718448
1.0718486
1.0718523
1.071856
1.0718597
1.0718634
1.071867
1.0718707
1.0718743
1.0718779
1.0718815
1.0718851
1.0718887
1.0718922
1.0718957
1.0718992
1.0719027
1.0719062
1.0719097
1.0719131
1.0719165
1.0719199
1.0719233
1.0719267
1.07193
1.0719334
1.0719367
1.07194
1.0719433
1.0719466
1.0719498
1.0719531
1.0719563
1.0719595
1.0719627
1.0719658
1.071969
1.0719721
1.0719752
1.0719783
1.0719814
1.0719845
1.0719875
1.0719905
1.0719935
1.0719965
1.0719995
1.0720024
1.0720054
1.0720083
1.0720112
1.0720141
1.0720169
1.0720198
1.0720226
1.0720254
1.0720282
1.072031
1.0720337
1.0720365
1.0720392
1.0720419
1.0720445
1.0720472
1.0720499
1.0720525
1.0720551
1.0720577
1.0720603
1.0720628
1.0720654
1.0720679
1.0720704
1.0720729
1.0720753
1.0720778
1.0720802
1.0720826
1.072085
1.0720874
1.0720897
1.0720921
1.0720944
1.0720967
1.072099
1.0721012
1.0721035
1.0721057
1.0721079
1.0721101
1.0721123
1.0721145
1.0721166
1.0721187
1.0721209
1.072123
1.072125
1.0721271
1.0721291
1.0721311
1.0721331
1.0721351
1.0721371
1.072139
1.0721409
1.0721428
1.0721447
1.0721466
1.0721485
1.0721503
1.0721521
1.0721539
1.0721557
1.0721575
1.0721593
1.072161
1.0721627
1.0721645
1.0721661
1.0721678
1.0721695
1.0721711
1.0721727
1.0721743
1.0721759
1.0721775
1.072179
1.0721805
1.072182
1.0721835
1.072185
1.0721865
1.0721879
1.0721894
1.0721908
1.0721922
1.0721935
1.0721949
1.0721962
1.0721976
1.0721989
1.0722001
1.0722014
1.0722027
1.0722039
1.0722051
1.0722063
1.0722075
1.0722087
1.0722099
1.072211
1.0722121
1.0722132
1.0722143
1.0722154
1.0722164
1.0722175
1.0722185
1.0722195
1.0722205
1.0722214
1.0722224
1.0722233
1.0722242
1.0722251
1.072226
1.0722269
1.0722277
1.0722285
1.0722294
1.0722302
1.0722309
1.0722317
1.0722324
1.0722332
1.0722339
1.0722346
1.0722353
1.0722359
1.0722366
1.0722372
1.0722378
1.0722384
1.072239
1.0722396
1.0722401
1.0722406
1.0722411
1.0722416
1.0722421
1.0722426
1.072243
1.0722434
1.0722439
1.0722443
1.0722446
1.072245
1.0722453
1.0722457
1.072246
1.0722463
1.0722465
1.0722468
1.072247
1.0722473
1.0722475
1.0722477
1.0722478
1.072248
1.0722481
1.0722483
1.0722484
1.0722485
1.0722485
1.0722486
1.0722486
1.0722486
1.0722486
1.0722486
1.0722486
1.0722485
1.0722484
1.0722484
1.0722483
1.0722481
1.072248
1.0722479
1.0722477
1.0722475
1.0722473
1.0722471
1.0722468
1.0722466
1.0722463
1.072246
1.0722457
1.0722453
1.072245
1.0722446
1.0722442
1.0722438
1.0722434
1.072243
1.0722425
1.072242
1.0722415
1.072241
1.0722405
1.0722399
1.0722394
1.0722388
1.0722382
1.0722376
1.072237
1.0722363
1.0722356
1.0722349
1.0722342
1.0722335
1.0722327
1.072232
1.0722312
1.0722304
1.0722296
1.0722287
1.0722278
1.072227
1.0722261
1.0722251
1.0722242
1.0722232
1.0722222
1.0722212
1.0722202
1.0722192
1.0722181
1.072217
1.0722159
1.0722148
1.0722137
1.0722125
1.0722113
1.0722101
1.0722089
1.0722077
1.0722065
1.0722052
1.0722039
1.0722026
1.0722013
1.0722
1.0721986
1.0721972
1.0721958
1.0721944
1.072193
1.0721915
1.07219
1.0721885
1.072187
1.0721855
1.0721839
1.0721823
1.0721807
1.0721791
1.0721775
1.0721759
1.0721742
1.0721725
1.0721708
1.072169
1.0721673
1.0721655
1.0721637
1.0721619
1.0721601
1.0721582
1.0721564
1.0721545
1.0721526
1.0721507
1.0721487
1.0721468
1.0721448
1.0721428
1.0721408
1.0721387
1.0721367
1.0721346
1.0721326
1.0721304
1.0721283
1.0721262
1.072124
1.0721218
1.0721196
1.0721174
1.0721152
1.0721129
1.0721106
1.0721083
1.072106
1.0721036
1.0721013
1.0720989
1.0720965
1.0720941
1.0720916
1.0720892
1.0720867
1.0720843
1.0720818
1.0720792
1.0720767
1.0720741
1.0720716
1.072069
1.0720663
1.0720637
1.072061
1.0720583
1.0720556
1.0720529
1.0720502
1.0720475
1.0720447
1.0720419
1.0720391
1.0720363
1.0720334
1.0720305
1.0720277
1.0720248
1.0720218
1.0720189
1.072016
1.072013
1.07201
1.072007
1.072004
1.0720009
1.0719979
1.0719948
1.0719917
1.0719885
1.0719854
1.0719822
1.071979
1.0719758
1.0719726
1.0719693
1.0719661
1.0719628
1.0719595
1.0719562
1.0719528
1.0719495
1.0719461
1.0719427
1.0719393
1.0719358
1.0719324
1.0719289
1.0719254
1.0719219
1.0719183
1.0719148
1.0719112
1.0719076
1.0719039
1.0719003
1.0718966
1.071893
1.0718893
1.0718855
1.0718818
1.071878
1.0718743
1.0718705
1.0718667
1.0718628
1.071859
1.0718551
1.0718512
1.0718473
1.0718434
1.0718394
1.0718355
1.0718315
1.0718275
1.0718235
1.0718195
1.0718154
1.0718113
1.0718072
1.0718031
1.0717989
1.0717947
1.0717905
1.0717863
1.071782
1.0717777
1.0717735
1.0717691
1.0717647
1.0717604
1.071756
1.0717516
1.0717471
1.0717426
1.0717381
1.0717336
1.0717291
1.0717245
1.0717199
1.0717153
1.0717107
1.0717061
1.0717014
1.0716967
1.071692
1.0716872
1.0716825
1.0716777
1.0716729
1.0716681
1.0716632
1.0716584
1.0716535
1.0716487
1.0716437
1.0716388
1.0716338
1.0716289
1.071624
1.071619
1.071614
1.0716089
1.0716039
1.0715989
1.071594
1.071589
1.071584
1.0715789
1.0715739
1.0715688
1.0715638
1.0715588
1.0715538
1.0715487
1.0715436
1.0715385
1.0715336
1.0715286
1.0715237
1.0715187
1.0715136
1.0715084
1.0715034
1.0714984
1.0714934
1.0714884
1.0714834
1.0714782
1.071473
1.0714679
1.0714629
1.0714579
1.0714529
1.0714479
1.0714426
1.0714372
1.0714317
1.0714262
1.0714208
1.0714153
1.0714099
1.0714043
1.0713984
1.0713924
1.0713863
1.0713802
1.0713742
1.0713682
1.0713623
1.0713562
1.07135
1.0713436
1.071337
1.0713303
1.0713235
1.0713169
1.0713104
1.0713042
1.071298
1.0712917
1.0712854
1.0712789
1.0712722
1.0712654
1.0712585
1.0712516
1.0712449
1.0712384
1.0712322
1.0712262
1.0712204
1.0712148
1.0712092
1.0712035
1.0711978
1.0711919
1.0711858
1.0711795
1.071173
1.0711662
1.071159
1.0711513
1.0711431
1.0711345
1.0711253
1.0711158
1.071105
1.071091
1.071067
1.0710151
1.0708832
1.0705218
1.0695011
1.06715
1.0643506
1.0613646
1.0582468
1.0550543
1.0518409
1.0486566
1.0455461
1.0425474
1.0396918
1.0370035
1.0345001
1.0321927
1.0300866
1.0281822
1.0264757
1.0249597
1.0236242
1.0224572
1.0214456
1.0205753
1.019832
1.0192016
1.0186708
1.0182265
1.0178571
1.0175518
1.0173008
1.0170957
1.016929
1.0167942
1.0166857
1.0165988
1.0165296
1.0164745
1.0164308
1.0163961
1.0163686
1.0163467
1.016329
1.0163146
1.0163025
1.016292
1.0162826
1.0162736
1.016265
1.0162576
1.0162528
1.0162489
1.0162446
1.0162402
1.0162356
1.0162308
1.0162258
1.0162207
1.0162155
1.0162103
1.0162049
1.0161994
1.0161939
1.0161883
1.0161827
1.016177
1.0161712
1.0161655
1.0161597
1.0161539
1.0161481
1.0161423
1.0161365
1.0161307
1.016125
1.0161192
1.0161135
1.0161079
1.0161022
1.0160966
1.016091
1.0160854
1.0160798
1.0160742
1.0160686
1.0160631
1.0160575
1.0160519
1.0160463
1.0160406
1.016035
1.0160292
1.0160235
1.0160177
1.0160119
1.016006
1.016
1.0159941
1.015988
1.0159819
1.0159758
1.0159696
1.0159633
1.015957
1.0159506
1.0159442
1.0159378
1.0159312
1.0159247
1.0159181
1.0159114
1.0159048
1.0158981
1.0158913
1.0158845
1.0158777
1.0158708
1.015864
1.015857
1.0158501
1.0158431
1.0158361
1.0158291
1.0158221
1.015815
1.0158079
1.0158008
1.0157936
1.0157864
1.0157793
1.015772
1.0157648
1.0157575
1.0157502
1.0157429
1.0157356
1.0157283
1.0157209
1.0157135
1.0157061
1.0156987
1.0156913
1.0156838
1.0156763
1.0156688
1.0156613
1.0156537
1.0156462
1.0156386
1.015631
1.0156234
1.0156158
1.0156081
1.0156004