/*--------------------------------*- C++ -*----------------------------------*\
  =========                 |
  \\      /  F ield         | OpenFOAM: The Open Source CFD Toolbox
   \\    /   O peration     | Website:  https://openfoam.org
    \\  /    A nd           | Version:  7
     \\/     M anipulation  |
\*---------------------------------------------------------------------------*/
FoamFile
{
    version     2.0;
    format      ascii;
    class       volScalarField;
    location    "0.00047";
    object      Ux;
}
// * * * * * * * * * * * * * * * * * * * * * * * * * * * * * * * * * * * * * //

dimensions      [0 1 -1 0 0 0 0];

internalField   nonuniform List<scalar> 
5000
(
-1.4150883e-13
-2.7720435e-13
-3.1609316e-13
-2.6581314e-13
-1.2449778e-13
-6.5381929e-14
-2.081344e-13
-2.8846141e-13
-3.9827543e-13
-1.7937909e-13
-8.0826414e-14
-4.1677525e-13
-4.428514e-13
-4.107993e-13
-3.4203245e-13
-2.1877621e-13
-2.2652025e-13
-4.3122148e-13
-6.5310644e-13
-5.9987062e-13
-4.7036377e-13
-4.3672689e-13
-3.0704658e-13
-1.3854698e-13
-4.54661e-13
-6.4080061e-13
-6.029742e-13
-9.0761404e-13
-8.1162156e-13
-9.1272655e-13
-8.1255637e-13
-8.7408384e-13
-1.0796945e-12
-1.098192e-12
-9.3696293e-13
-9.6454661e-13
-1.1680552e-12
-1.2126247e-12
-1.1559794e-12
-1.0421353e-12
-9.0778389e-13
-7.6618349e-13
-6.7678525e-13
-7.0461294e-13
-7.8030162e-13
-5.829513e-13
-5.625069e-13
-5.7545677e-13
-4.9191325e-13
-6.5063245e-13
-8.5215604e-13
-6.0196091e-13
-6.1168324e-13
-7.7613256e-13
-8.8131266e-13
-6.246427e-13
-5.6363944e-13
-8.04931e-13
-8.255338e-13
-6.8971107e-13
-5.6793963e-13
-5.4997743e-13
-5.0084819e-13
-3.5418882e-13
-5.6623039e-13
-7.5508899e-13
-5.6623335e-13
-5.1558581e-13
-5.5508773e-13
-7.8174546e-13
-6.1315628e-13
-5.840569e-13
-7.6381161e-13
-7.0781222e-13
-8.0543164e-13
-8.7392374e-13
-7.5906491e-13
-6.7083508e-13
-9.5207981e-13
-1.0908938e-12
-8.5784363e-13
-9.4607603e-13
-7.898751e-13
-8.8609677e-13
-1.2290179e-12
-1.0382189e-12
-6.7311495e-13
-8.7028831e-13
-7.1733595e-13
-8.1986344e-13
-6.5669616e-13
-6.0034502e-13
-7.5327095e-13
-4.5843615e-13
-5.4734184e-13
-4.4262771e-13
-6.7431373e-13
-1.935021e-13
-3.6559585e-14
5.2032134e-14
-1.4657816e-13
1.4665972e-13
4.4573858e-13
1.8838085e-13
3.7767101e-13
2.635616e-13
4.495989e-13
4.6807946e-13
6.0896496e-13
5.8643807e-13
4.2183941e-13
1.3558235e-13
4.5916948e-13
4.8563843e-13
4.4170547e-13
4.3450208e-13
3.4445241e-13
2.7524372e-13
2.2863036e-13
3.1767722e-13
2.9615837e-13
5.0880586e-13
2.0180044e-13
-6.0809901e-14
5.802194e-14
7.1204582e-14
-2.8163583e-15
-1.9613132e-13
-1.2944553e-13
3.9972118e-14
-3.0123948e-13
-3.5250509e-13
-3.9501938e-13
-1.3061972e-13
-9.4940905e-14
-3.1363371e-13
-1.8092285e-13
-1.0293063e-13
-5.5432108e-14
-1.7965377e-13
-3.9062225e-13
-3.9784774e-13
-4.5642948e-13
-6.4836975e-13
-6.7837367e-13
-8.1838285e-13
-6.7066642e-13
-6.323326e-13
-6.6980246e-13
-6.1510261e-13
-7.1663502e-13
-8.3389024e-13
-9.6649614e-13
-1.0007927e-12
-1.1340618e-12
-9.9558457e-13
-9.8633869e-13
-9.1760937e-13
-9.2886839e-13
-1.1214503e-12
-1.1545659e-12
-9.8407741e-13
-8.8900941e-13
-5.8403326e-13
-6.2997016e-13
-7.8130818e-13
-9.9001527e-13
-1.025746e-12
-8.0622532e-13
-8.4416067e-13
-8.1062837e-13
-8.1105532e-13
-9.378813e-13
-1.0305963e-12
-7.927823e-13
-7.7243335e-13
-8.846622e-13
-8.3887944e-13
-9.0946418e-13
-1.1335081e-12
-9.3346541e-13
-6.7766923e-13
-5.1837132e-13
-4.1240147e-13
-2.3661164e-13
-2.9403143e-13
-5.6071099e-13
-4.4195555e-13
-6.2749484e-13
-4.031688e-13
-4.1943894e-13
-4.220594e-13
-1.6640376e-13
-3.9572031e-13
-3.2141835e-13
-3.540821e-13
-2.1275315e-13
-3.064692e-13
-4.5372109e-14
1.9172977e-13
8.4563927e-14
-1.6824114e-13
-2.5686752e-13
-4.6131648e-14
-1.6273671e-13
-2.0376116e-13
-2.6966676e-13
-2.0520645e-13
-3.6922171e-13
-4.8170564e-13
-4.07216e-13
-3.3184751e-13
-3.9758306e-13
-3.7324636e-13
-2.3025345e-13
-1.5976029e-13
-2.9686926e-13
-3.1040088e-13
-2.8421481e-13
-4.2554134e-13
-6.6909282e-13
-3.267007e-13
-2.7299561e-13
-3.8952763e-13
-2.7010466e-13
-5.1934666e-13
-2.2743447e-13
-3.7368651e-13
-3.8379401e-13
-3.0447753e-13
-5.2491425e-14
-2.8921163e-13
-7.1798247e-14
3.2941277e-13
-4.6498317e-14
-3.1972318e-13
-9.4311267e-14
-3.9131961e-13
-4.487095e-13
-4.8196539e-13
-6.42383e-13
-5.4778399e-13
-4.3774058e-13
-3.9010715e-13
-4.1083368e-13
-1.9492967e-13
-6.2467796e-13
-2.6291884e-13
-3.7784852e-14
-3.1923009e-13
-4.1090982e-13
-7.8864719e-14
3.5528687e-14
-6.7071618e-14
-1.0006056e-13
1.3372333e-13
4.8896803e-13
6.4698065e-13
1.01304e-12
7.1672231e-13
5.4449838e-13
2.142599e-13
5.7605385e-13
6.5492455e-13
5.5697373e-13
9.1513263e-13
6.7779599e-13
5.6700872e-13
5.0112974e-13
7.0649761e-13
6.8002821e-13
6.0526222e-13
6.0315219e-13
6.8104809e-13
5.0589086e-13
2.5858773e-13
1.4760153e-13
3.4352807e-13
4.6666649e-13
3.4770805e-13
2.4729116e-13
2.1982615e-13
3.2383175e-13
3.533329e-13
3.6346675e-13
2.1401857e-13
1.2986334e-14
7.9895784e-14
4.1590348e-13
5.7812734e-13
3.5400338e-13
1.7568301e-13
3.2907165e-13
3.2388672e-13
3.1525076e-13
3.9356048e-13
5.7022493e-13
6.3660165e-13
6.3053986e-13
5.5549845e-13
8.2052673e-13
9.9483126e-13
9.0225921e-13
8.4401979e-13
7.2455064e-13
9.0555037e-13
8.5034488e-13
8.1226127e-13
1.0427056e-12
9.6983677e-13
1.0082802e-12
1.2216077e-12
1.2367101e-12
1.1482389e-12
1.0893178e-12
1.0605956e-12
1.0923304e-12
1.2431727e-12
1.1319204e-12
1.2649941e-12
1.1402464e-12
8.5556249e-13
6.3140405e-13
6.2147926e-13
8.887989e-13
7.3801743e-13
7.8572927e-13
8.5546485e-13
8.7519948e-13
6.7291688e-13
5.0909688e-13
3.3506335e-13
1.8150213e-13
4.9778687e-13
4.054334e-13
3.1019193e-13
1.529001e-13
3.3461851e-13
-1.5776065e-13
-1.6456975e-13
6.0649676e-14
3.2347611e-13
5.590855e-13
3.6236205e-13
7.3498466e-14
5.8277721e-14
1.9899919e-13
1.8623036e-13
3.9713751e-13
4.9790162e-13
3.5773494e-13
2.6014426e-14
8.3090576e-14
-1.9757276e-13
1.1730068e-13
9.837093e-14
-1.8735985e-14
5.1625822e-14
-6.1849658e-14
-1.846308e-13
-1.3930336e-13
-2.5150802e-13
-3.5683794e-13
-3.052492e-13
-1.9417257e-13
-1.6594439e-14
-2.4523408e-13
-2.9352765e-13
-4.2966908e-13
-1.5050735e-13
6.9850545e-14
-1.2053192e-14
-8.4631819e-15
6.9309012e-14
1.9839367e-13
5.405821e-13
3.6850183e-13
3.0149734e-13
2.3745976e-13
5.3962015e-14
2.8007406e-13
3.0210672e-13
4.0975111e-13
4.383143e-13
3.2195675e-13
1.0876322e-13
2.3840904e-13
2.4925659e-13
4.5926448e-13
5.7957219e-13
6.2060026e-13
5.6057581e-13
6.3362519e-13
5.8454892e-13
1.0900616e-12
1.1933336e-12
6.8690363e-13
5.9995082e-13
7.47472e-13
6.8499676e-13
8.6896326e-13
1.0593147e-12
7.9805119e-13
8.6442849e-13
1.0968901e-12
1.0193865e-12
1.0627931e-12
9.9646939e-13
7.6649024e-13
6.3316857e-13
6.0281436e-13
7.6242684e-13
6.8975516e-13
6.2460822e-13
4.1240258e-13
7.1751111e-13
8.5322963e-13
7.4981155e-13
3.6376431e-13
5.1590275e-13
7.8994309e-13
8.1571524e-13
7.2578832e-13
5.9153031e-13
6.4044035e-13
5.8349175e-13
3.3189562e-13
3.493466e-13
5.6331324e-13
7.1891229e-13
6.6692392e-13
4.4369357e-13
2.7544231e-13
1.353104e-13
8.3488364e-14
3.9400047e-13
3.4575308e-13
2.4118795e-13
-8.1377721e-14
-6.0651095e-14
4.3743026e-13
2.7938666e-13
1.2893631e-13
1.957009e-13
7.9634525e-14
5.1160589e-14
-4.9361219e-14
-3.0015742e-13
-2.4103137e-13
-6.0701151e-14
-1.4632404e-13
-2.4781674e-13
-2.7208907e-13
-3.8399977e-13
-1.9265933e-13
-7.0955255e-14
-3.6276172e-13
-3.4653768e-13
-8.5289953e-14
-1.0888746e-13
-2.0703149e-13
-3.163014e-13
-1.7298357e-13
-9.8757495e-14
-1.0105097e-13
-1.1882719e-13
-4.799177e-13
-4.6625002e-13
-5.6185586e-13
-5.5999259e-13
-3.9627274e-13
-3.01716e-13
5.2314667e-15
7.7069795e-14
4.527753e-14
1.4528542e-13
2.2569533e-13
2.6453175e-13
1.4740777e-13
-4.3929043e-14
-6.2245829e-14
-8.1163597e-14
-1.613861e-14
-4.5079066e-14
-2.8964623e-14
-1.8375518e-13
-3.2571664e-13
-2.4150648e-13
-1.770446e-13
-2.1734291e-13
-2.3578261e-13
-3.0051858e-13
-3.4878377e-13
-5.0597951e-13
-8.7638972e-13
-1.0213276e-12
-8.4044121e-13
-9.9854216e-13
-9.0485444e-13
-1.043683e-12
-1.041573e-12
-9.8875496e-13
-1.2193887e-12
-1.525987e-12
-8.9217477e-13
-8.8172631e-13
-6.8122075e-13
-5.9672513e-13
-9.4761966e-13
-9.3248728e-13
-8.0741678e-13
-7.3689496e-13
-9.5238222e-13
-5.1631409e-13
-6.1580619e-13
-5.3046945e-13
-5.4299083e-13
-4.1186708e-13
-5.4267595e-13
-6.8474397e-13
-4.8291617e-13
-3.133569e-13
-6.3515192e-13
-5.3867638e-13
-4.4518144e-13
-3.8689859e-13
-8.217505e-15
-2.6412555e-13
-5.0855897e-13
-5.410156e-13
-5.1719111e-13
-4.766572e-13
-3.7562314e-13
-2.538458e-13
-9.8071601e-14
-4.0941189e-14
5.6961355e-14
1.2342758e-13
-1.0737818e-13
-5.1603149e-14
-3.5562215e-14
-1.9730709e-13
-2.2290003e-13
-1.9549041e-13
-1.7360554e-14
-1.8763803e-13
4.5952079e-14
-1.2873317e-13
-2.8976726e-13
-2.5213767e-13
9.0355559e-15
1.7734815e-13
-8.078571e-15
2.8307755e-13
1.2439077e-13
2.4478716e-13
4.6050866e-13
5.9690164e-13
7.3583125e-13
9.3902634e-13
6.4046132e-13
7.4301588e-13
7.953022e-13
7.5878014e-13
6.8271494e-13
8.355028e-13
1.145374e-12
1.0368708e-12
9.4123566e-13
1.2030002e-12
1.6930802e-12
1.4539793e-12
1.2982031e-12
1.2586047e-12
1.4586161e-12
1.0947169e-12
1.0187586e-12
7.5504849e-13
7.8585853e-13
7.1958373e-13
8.1141625e-13
5.4470929e-13
3.7469957e-13
4.5533014e-13
5.0643646e-13
6.3594184e-13
3.6817757e-13
3.4648754e-13
6.9509967e-15
-3.229798e-13
-5.0306675e-13
-4.5407115e-13
-5.4771656e-13
-6.8394079e-13
-6.5769655e-13
-8.4986856e-13
-8.0225618e-13
-9.8690501e-13
-1.0826706e-12
-1.1584567e-12
-1.0926951e-12
-9.2088453e-13
-1.1832526e-12
-1.3823185e-12
-1.5034735e-12
-1.282569e-12
-1.6180815e-12
-1.5400018e-12
-1.4217564e-12
-1.4508988e-12
-1.5189078e-12
-1.3081496e-12
-1.2577488e-12
-1.3388729e-12
-1.1561416e-12
-1.1634095e-12
-1.1007038e-12
-1.5522248e-12
-1.4692875e-12
-1.1583679e-12
-1.1680918e-12
-1.0893097e-12
-7.7057546e-13
-8.2769807e-13
-1.1800287e-12
-1.1858534e-12
-1.1648756e-12
-1.2929216e-12
-1.2100575e-12
-1.0710546e-12
-1.0799873e-12
-1.0716187e-12
-9.6396054e-13
-9.417665e-13
-1.2958808e-12
-1.1831697e-12
-9.7128593e-13
-1.0123874e-12
-1.3105911e-12
-1.1259522e-12
-9.6586309e-13
-1.1474248e-12
-1.0144616e-12
-8.3300791e-13
-6.217761e-13
-6.6345487e-13
-7.9715963e-13
-8.6405757e-13
-1.1824119e-12
-1.1368299e-12
-1.126941e-12
-1.3939126e-12
-9.346317e-13
-1.0625509e-12
-8.1373509e-13
-6.2190766e-13
-1.1035173e-12
-6.0604307e-13
-5.3966097e-13
-5.8706849e-13
-4.4612651e-13
-4.6250744e-13
-1.070918e-12
-9.553664e-13
-7.0643108e-13
-3.7609534e-13
-7.8630235e-14
1.8361921e-13
4.3967147e-13
1.852662e-13
3.0349482e-13
1.7689697e-14
-2.1812807e-14
4.4547878e-14
1.9984189e-13
9.259759e-14
3.2357689e-13
2.947323e-13
1.7123637e-13
-3.8557533e-14
-2.3276569e-13
-1.9929593e-13
-3.4953511e-13
-3.6892453e-13
-6.9477954e-14
2.5036138e-13
4.7805282e-14
-2.8673695e-13
-1.8474929e-13
2.1446914e-13
-8.4138009e-14
1.1074393e-14
2.3339131e-13
1.794086e-13
4.8946971e-13
4.9161476e-13
3.4346486e-13
3.3244206e-13
2.9102693e-14
-1.7308373e-13
-3.393463e-13
1.2374794e-13
-5.2174723e-14
-1.319504e-13
-3.0102908e-13
-2.543528e-13
7.6127523e-14
2.7102985e-13
1.0901428e-13
3.7197909e-13
-9.5619348e-14
-3.0614765e-13
2.9838011e-14
-1.0416678e-13
1.5182092e-13
1.9223459e-13
2.5829525e-13
-6.2715059e-14
1.0276061e-13
3.182129e-13
2.638169e-13
1.7286024e-13
3.4824735e-13
3.690127e-13
2.898367e-13
1.7697689e-13
2.1723355e-13
1.7675452e-13
1.5691544e-14
9.5364951e-14
1.055064e-13
1.3973691e-13
8.9514235e-14
-4.2034278e-14
-2.2447737e-13
-2.3436109e-13
-2.5798655e-13
-4.0696834e-13
-2.8072486e-13
-8.6468976e-14
3.6621084e-13
4.82214e-13
3.0887701e-13
1.8306896e-13
-2.0713768e-13
-3.6171357e-13
-2.3064825e-13
-5.1413724e-14
-1.7703522e-13
-2.3948587e-13
-7.0143907e-14
-1.0852466e-13
-1.1927767e-13
-1.2214742e-13
-1.3622753e-13
-1.3455867e-13
-5.0815303e-13
-6.0627506e-13
-6.6451459e-13
-4.0713242e-13
-2.348512e-13
-1.2389166e-13
1.054336e-13
-2.1983351e-14
8.0461405e-14
1.2161866e-13
2.708025e-13
4.249707e-13
1.9199663e-13
1.2069194e-13
5.3412751e-13
4.8454698e-13
2.5820877e-13
1.4723005e-13
4.2464865e-13
2.7204421e-13
2.480864e-13
4.5258181e-13
6.6999201e-13
7.9357177e-13
7.8670097e-13
8.212889e-13
8.9998762e-13
1.0675979e-12
1.0539217e-12
9.0805582e-13
8.7754762e-13
1.0832911e-12
9.9880103e-13
8.1195509e-13
5.4335208e-13
7.1788404e-13
1.0694242e-12
1.1791533e-12
9.4218688e-13
9.0245685e-13
7.1276859e-13
8.5289768e-13
5.5022939e-13
1.9949524e-13
2.7948161e-13
1.7627399e-13
-7.3357333e-14
-2.8140791e-14
1.8157623e-13
2.03573e-13
2.1616328e-13
-2.4633674e-13
-1.669226e-13
-1.0957175e-13
4.6070847e-14
-4.7387995e-14
-2.0991423e-13
-1.3015213e-13
-2.5637713e-14
1.4673146e-13
2.1884978e-14
-7.3949281e-14
2.6839195e-13
1.5387926e-13
9.8416277e-14
-3.2570877e-13
-4.1240691e-13
4.3736911e-14
-1.5711115e-13
-4.9101366e-13
-7.4888339e-13
-6.1515215e-13
-7.0751472e-13
-4.4325849e-13
-4.2734615e-13
-5.4143061e-13
-3.2549436e-13
-3.8750975e-13
-4.921668e-13
-6.1486277e-13
-4.0198581e-13
-2.7455302e-13
-5.6892302e-13
-8.0385981e-13
-4.8808119e-13
-3.1407632e-13
-4.0276419e-13
-3.2889566e-13
-7.6046126e-14
-4.9736074e-14
9.4930203e-14
-8.0820451e-14
-4.4697034e-13
-4.6902328e-13
-1.9304912e-13
-3.6300092e-13
-4.5322458e-13
-5.6968035e-13
-4.1333766e-13
-1.0536544e-13
-3.0766707e-13
-2.1619334e-13
-2.1655503e-13
3.1307892e-14
-2.1872846e-13
-1.952055e-13
-5.1766778e-14
9.3485987e-14
1.7382755e-13
-1.7245494e-13
-4.3859529e-13
-8.4713148e-13
-1.1404948e-12
-9.5055011e-13
-6.8308631e-13
-5.4159629e-13
-4.3495725e-13
-5.9796018e-13
-5.6017294e-13
-9.7852597e-13
-7.4469438e-13
-8.5779522e-13
-5.3751254e-13
-7.1339601e-13
-6.8144109e-13
-4.3597575e-13
-2.494845e-13
4.4266829e-16
-3.011521e-15
-1.1623812e-13
-1.8769522e-13
-3.5640282e-13
-6.7864457e-13
-4.8827922e-13
-5.4335774e-13
1.8327197e-14
1.5109607e-13
-2.5271923e-13
-4.5519402e-13
-4.3217718e-13
-3.0519475e-13
-2.3382064e-13
-2.6018682e-13
-4.0653422e-13
-1.6730038e-13
-2.3836965e-14
-3.3043815e-13
-3.0385743e-13
-3.1854358e-13
-1.7152232e-13
-1.4021237e-13
-7.4345628e-14
-1.6605575e-13
5.668277e-14
-1.1729464e-14
-1.3901103e-15
5.1405251e-14
-2.8652875e-13
-6.7043247e-13
-5.1881216e-13
-1.9567974e-13
-8.6517824e-14
-1.4652849e-13
-7.8363064e-14
-7.3244606e-14
9.7535621e-14
1.042578e-13
3.1855433e-13
6.0949855e-13
2.0850527e-13
1.9363064e-13
1.8769002e-13
1.0292958e-13
2.1985128e-13
-1.4333674e-13
-3.207263e-13
-2.9027658e-13
3.0367211e-14
-1.7764996e-14
-2.1822978e-13
9.9482698e-14
2.5540766e-13
4.4036011e-13
3.4572814e-13
2.82837e-13
1.8084812e-13
1.8033845e-13
3.0101165e-13
3.9734065e-13
9.4678885e-14
3.7661225e-14
1.7549981e-13
9.3898775e-14
1.6640498e-13
1.4143382e-13
1.6898101e-13
3.5820252e-13
3.4648e-13
6.7230809e-13
6.2796016e-13
6.0386324e-13
8.7200349e-13
8.7768227e-13
8.9156578e-13
7.0552221e-13
6.1883666e-13
6.9330062e-13
5.8937078e-13
7.1407471e-13
7.8145882e-13
7.2420405e-13
8.3405432e-13
8.8125729e-13
7.5074612e-13
9.0171824e-13
7.8983963e-13
9.3469606e-13
9.5585311e-13
6.3584292e-13
6.0792826e-13
5.9787686e-13
3.5262468e-13
-8.9155339e-14
1.4283471e-13
3.8778255e-13
1.6882261e-13
1.5968688e-13
2.0223539e-13
-3.518396e-13
-4.830901e-13
-1.2525069e-13
-4.8013828e-14
-1.5017146e-13
-2.2007074e-13
-4.9071574e-13
-4.345162e-13
-4.2119948e-13
-3.4486419e-13
-2.1262992e-13
6.2732693e-14
8.4730205e-14
1.069055e-13
3.0828643e-14
-2.1895326e-13
3.3151898e-14
1.3208507e-13
3.2280437e-13
3.4903153e-13
6.0679429e-14
1.9520252e-14
1.2066157e-13
2.4702472e-13
1.9631502e-13
-4.4455834e-15
-1.2020771e-13
-2.5148095e-13
-2.6074786e-13
-1.291914e-13
1.3513571e-15
8.5737418e-14
2.1128496e-13
-9.1299014e-14
-2.3764999e-13
-2.4957892e-13
-2.2456061e-13
-2.631007e-13
-1.0996415e-13
-1.7154017e-14
-2.779918e-13
-2.88819e-13
-1.9540152e-13
-9.4739763e-14
-2.7124701e-13
-3.9449504e-13
-1.8991899e-13
3.1444807e-14
2.4397571e-13
2.3288722e-13
2.6540017e-13
1.3454514e-13
2.1446509e-13
8.1888743e-14
1.421005e-13
3.3066071e-13
1.7397216e-13
3.8613145e-13
1.7314107e-13
2.007065e-13
1.863611e-13
2.1022674e-13
4.6434908e-13
2.4861259e-13
9.3317571e-14
7.289606e-14
2.6843548e-15
2.6293436e-14
1.7202603e-13
-1.4179369e-13
1.1051584e-13
1.3500857e-13
-8.086335e-14
-1.4283547e-13
-1.3590524e-13
-4.1503595e-13
-2.6467881e-13
-3.1239399e-13
-4.8040193e-13
-5.7849161e-13
-7.2984379e-13
-6.4130845e-13
-6.3099271e-13
-2.9811473e-13
-5.154973e-13
-8.9352583e-13
-1.0279537e-12
-9.9710572e-13
-1.1364553e-12
-7.9829613e-13
-7.6039192e-13
-8.9552626e-13
-8.3980134e-13
-9.6066112e-13
-8.7652428e-13
-9.4139648e-13
-1.1009762e-12
-1.136517e-12
-1.2049061e-12
-1.1806027e-12
-1.3268261e-12
-1.2876914e-12
-1.2912437e-12
-1.3768968e-12
-1.668765e-12
-1.5764709e-12
-1.2832609e-12
-1.4565323e-12
-1.4490051e-12
-1.6511192e-12
-1.6004416e-12
-1.6646366e-12
-1.8419245e-12
-1.8419178e-12
-2.0206551e-12
-1.8678049e-12
-1.7228687e-12
-2.0301256e-12
-1.735874e-12
-1.6116847e-12
-1.618643e-12
-1.6541748e-12
-1.5365504e-12
-1.7129517e-12
-2.0048114e-12
-1.6303082e-12
-1.4108709e-12
-1.1543472e-12
-1.3538878e-12
-1.8649202e-12
-1.8494478e-12
-1.6596398e-12
-1.6590991e-12
-1.5126005e-12
-1.3816921e-12
-1.4466135e-12
-1.5890794e-12
-1.3272075e-12
-1.2133145e-12
-1.1698394e-12
-1.18596e-12
-1.0338514e-12
-1.1748507e-12
-1.002579e-12
-9.2100181e-13
-8.8792718e-13
-7.920181e-13
-7.9195099e-13
-6.1934201e-13
-3.7598477e-13
-2.115888e-13
-4.3429892e-13
-2.6236229e-13
-1.8809033e-13
-2.1548749e-13
-4.6016448e-13
-3.5381225e-13
-3.6167446e-13
-1.6955524e-13
1.1736865e-13
-2.5595864e-14
2.7377806e-16
-2.8811852e-13
-1.5964521e-13
-4.3575463e-13
-2.4925834e-13
-1.4932425e-13
-4.2317549e-13
-8.4832316e-13
-5.1316235e-13
-3.4593623e-13
-5.3654668e-13
-4.0948739e-13
-1.0317504e-13
-6.5135796e-14
-2.2073101e-13
-1.1632591e-13
-2.6050316e-13
-6.7767125e-14
6.6109426e-14
-1.1764844e-14
-5.7737172e-14
3.0603012e-14
1.3381852e-13
-1.3594764e-14
-9.4272505e-15
-1.9109699e-13
-1.6979066e-13
-9.7956966e-15
-2.7571612e-14
2.8978189e-13
3.5035077e-13
2.8491533e-13
2.671868e-13
1.0877903e-13
-1.7253704e-14
-1.3182319e-13
-3.5233123e-13
-1.1391779e-13
1.697884e-14
1.2158495e-13
2.1974735e-13
9.3970981e-14
1.3856417e-13
6.6552424e-14
1.9643777e-13
3.1509007e-13
2.7856498e-13
3.5800433e-14
-1.975859e-13
7.9850035e-14
-2.3401453e-13
-3.1749982e-13
-1.726463e-13
-7.5650848e-14
-1.9002883e-13
-3.2195732e-13
-3.2854849e-13
-3.2836948e-13
-7.2467418e-14
1.1063767e-13
-7.8363549e-14
-7.1550966e-14
-2.60074e-13
-3.8385607e-13
1.2646539e-14
-2.2255089e-13
-5.0330468e-13
-5.2407809e-13
-4.4293623e-13
-3.8072856e-13
-4.2825876e-13
-4.81806e-13
-4.6513848e-13
-3.782862e-13
-1.5023208e-13
-9.5261692e-14
-2.1893535e-13
-4.3306338e-13
-1.4316824e-13
-3.5704065e-13
-6.9639542e-13
-5.2436823e-13
-6.8618148e-13
-9.4565253e-13
-6.5062163e-13
-5.1739908e-13
-6.4254904e-13
-3.5435692e-13
-2.8074324e-13
-3.4272481e-14
-4.1514433e-13
-3.9690466e-13
-4.2178386e-13
-7.0594575e-13
-8.7950293e-13
-7.8497352e-13
-6.989839e-13
-6.9334203e-13
-6.0164111e-13
-2.9349931e-13
-6.3920801e-14
-2.0861349e-13
-2.9853881e-14
-6.0530127e-14
-2.7198293e-13
-4.9542685e-13
-2.911648e-14
-5.5950452e-14
-3.3771987e-13
-3.5985702e-13
-1.8507713e-13
-2.0236166e-13
-2.7003146e-13
-1.258015e-13
-8.1320152e-14
-3.1760324e-13
-3.9586682e-13
-3.8051157e-13
-4.5056783e-13
-4.7117777e-13
-1.1477897e-13
-2.0539266e-13
-1.780042e-13
1.1862015e-13
9.942776e-14
3.0683097e-13
1.4169148e-13
4.1054213e-14
-1.1898475e-13
-1.9176931e-13
-4.0543314e-13
-3.3913194e-13
-6.2579886e-13
-5.1366164e-13
-2.2993446e-13
-4.4178793e-13
-4.9473685e-13
-6.6389019e-13
-6.4096597e-13
-6.4313227e-13
-5.2516524e-13
-2.9041035e-13
-1.7161277e-13
-1.7941513e-14
6.5736194e-14
3.1971249e-14
2.1247619e-13
2.7492583e-13
1.9628314e-13
1.1697967e-14
8.1702007e-14
4.7645671e-14
-5.0154285e-14
3.3019967e-14
4.1396676e-14
3.1880942e-14
-1.9955823e-13
-7.5797498e-14
-1.3863101e-13
5.8801463e-14
2.5250161e-13
1.5708875e-13
2.1601997e-13
3.4093054e-13
4.6492197e-13
4.6910559e-13
3.7037189e-13
3.372543e-13
3.347035e-13
3.0452171e-13
4.4561276e-13
3.991903e-13
4.8768118e-13
4.6099623e-13
5.7912478e-13
5.9042852e-13
5.3656199e-13
7.6230412e-13
6.9993741e-13
1.2765796e-12
1.5292075e-12
1.6907062e-12
1.5561285e-12
1.663702e-12
2.204709e-12
2.5402325e-12
3.2955055e-12
3.5986333e-12
3.8447038e-12
4.1440449e-12
4.3315145e-12
4.8802752e-12
5.449794e-12
5.9008645e-12
6.7621307e-12
7.9497037e-12
9.3494421e-12
1.0828198e-11
1.2428877e-11
1.3809001e-11
1.5588357e-11
1.7303657e-11
1.9588773e-11
2.2141253e-11
2.5089896e-11
2.8802637e-11
3.3095112e-11
3.8196088e-11
4.3818786e-11
4.960258e-11
5.6298241e-11
6.4062136e-11
7.2629128e-11
8.243534e-11
9.3331941e-11
1.0589355e-10
1.2014837e-10
1.3617522e-10
1.5434741e-10
1.751313e-10
1.9840633e-10
2.2453415e-10
2.5412406e-10
2.8798592e-10
3.2631734e-10
3.6934483e-10
4.1760885e-10
4.7279529e-10
5.3476605e-10
6.0394117e-10
6.8217063e-10
7.7044849e-10
8.6960017e-10
9.8174845e-10
1.1079812e-09
1.2498321e-09
1.4095779e-09
1.5891358e-09
1.7913088e-09
2.0189314e-09
2.2742515e-09
2.5611803e-09
2.8841166e-09
3.2463279e-09
3.6531981e-09
4.1103076e-09
4.6226568e-09
5.1980234e-09
5.843475e-09
6.5666094e-09
7.3780745e-09
8.2871782e-09
9.3054556e-09
1.0446195e-08
1.1723224e-08
1.3153922e-08
1.4754625e-08
1.6544687e-08
1.8547992e-08
2.0788002e-08
2.3291533e-08
2.6088714e-08
2.9214141e-08
3.2704862e-08
3.660297e-08
4.095441e-08
4.5810635e-08
5.1227186e-08
5.7268825e-08
6.4006102e-08
7.1514835e-08
7.9881541e-08
8.9202723e-08
9.9583693e-08
1.1114048e-07
1.240042e-07
1.3831748e-07
1.5423879e-07
1.7194342e-07
1.9162658e-07
2.1350292e-07
2.3780746e-07
2.6480299e-07
2.9477901e-07
3.2805421e-07
3.6498085e-07
4.0594637e-07
4.5137915e-07
5.0175274e-07
5.5758619e-07
6.1945277e-07
6.8798403e-07
7.6387411e-07
8.4788847e-07
9.408685e-07
1.0437389e-06
1.1575175e-06
1.2833225e-06
1.4223812e-06
1.5760439e-06
1.7457928e-06
1.9332522e-06
2.1402061e-06
2.3686127e-06
2.6206147e-06
2.8985642e-06
3.2050382e-06
3.5428568e-06
3.9151101e-06
4.32518e-06
4.776766e-06
5.2739137e-06
5.8210465e-06
6.4229994e-06
7.0850578e-06
7.8129903e-06
8.6130944e-06
9.4922473e-06
1.0457951e-05
1.1518385e-05
1.2682467e-05
1.3959917e-05
1.5361324e-05
1.6898219e-05
1.8583156e-05
2.0429796e-05
2.2452998e-05
2.4668922e-05
2.7095134e-05
2.975072e-05
3.2656411e-05
3.5834718e-05
3.9310075e-05
4.3108989e-05
4.7260209e-05
5.1794904e-05
5.6746852e-05
6.2152647e-05
6.8051916e-05
7.4487551e-05
8.150597e-05
8.9157373e-05
9.7496043e-05
0.00010658065
0.00011647457
0.00012724625
0.00013896959
0.00015172432
0.00016559644
0.0001806787
0.00019707104
0.00021488115
0.00023422497
0.00025522736
0.00027802262
0.00030275525
0.00032958059
0.00035866557
0.00039018954
0.0004243451
0.00046133895
0.00050139289
0.00054474478
0.00059164962
0.00064238065
0.00069723055
0.00075651266
0.00082056232
0.00088973827
0.00096442407
0.0010450297
0.001131993
0.0012257818
0.0013268953
0.001435866
0.0015532619
0.0016796884
0.0018157907
0.0019622557
0.0021198148
0.002289246
0.0024713769
0.0026670873
0.002877312
0.0031030436
0.0033453362
0.0036053078
0.0038841444
0.0041831033
0.0045035162
0.0048467939
0.0052144296
0.0056080029
0.0060291846
0.0064797402
0.0069615353
0.0074765396
0.0080268318
0.008614605
0.009242171
0.0099119662
0.010626557
0.011388644
0.012201071
0.013066825
0.013989049
0.014971043
0.016016272
0.017128373
0.018311159
0.019568629
0.02090497
0.02232457
0.023832018
0.025432116
0.027129882
0.028930561
0.030839628
0.032862797
0.03500603
0.037275538
0.039677795
0.042219541
0.044907787
0.047749827
0.050753241
0.053925903
0.057275987
0.060811971
0.064542648
0.068477128
0.072624844
0.076995558
0.081599368
0.086446709
0.09154836
0.096915447
0.10255945
0.10849219
0.11472588
0.12127304
0.1281466
0.13535983
0.14292636
0.1508602
0.15917571
0.16788763
0.17701103
0.18656137
0.19655445
0.20700644
0.21793383
0.22935349
0.24128259
0.25373865
0.26673953
0.28030338
0.29444866
0.30919415
0.32455889
0.34056222
0.35722372
0.37456323
0.39260085
0.41135687
0.43085182
0.45110638
0.47214146
0.49397808
0.51663744
0.54014083
0.56450966
0.58976543
0.61592967
0.643024
0.67107001
0.70008932
0.73010352
0.76113414
0.79320266
0.82633043
0.86053872
0.89584863
0.9322811
0.96985689
1.0085965
1.0485203
1.0896483
1.1320001
1.1755953
1.2204529
1.2665917
1.3140299
1.3627854
1.4128759
1.4643182
1.5171291
1.5713244
1.6269197
1.6839301
1.7423699
1.802253
1.8635926
1.9264013
1.9906911
2.0564733
2.1237585
2.1925568
2.2628774
2.3347288
2.4081188
2.4830545
2.5595423
2.6375877
2.7171954
2.7983696
2.8811133
2.9654292
3.0513187
3.1387827
3.2278212
3.3184335
3.4106179
3.5043719
3.5996924
3.6965753
3.7950156
3.8950077
3.996545
4.0996203
4.2042253
4.3103512
4.4179881
4.5271255
4.6377522
4.7498559
4.8634237
4.9784421
5.0948965
5.2127717
5.3320518
5.4527202
5.5747593
5.6981512
5.8228768
5.9489167
6.0762506
6.2048576
6.334716
6.4658036
6.5980975
6.7315742
6.8662093
7.0019782
7.1388553
7.2768147
7.4158297
7.5558732
7.6969174
7.838934
7.981894
8.1257683
8.2705267
8.4161389
8.562574
8.7098006
8.8577867
9.0065
9.1559076
9.3059764
9.4566726
9.607962
9.7598101
9.9121821
10.065042
10.218355
10.372085
10.526195
10.680648
10.835408
10.990436
11.145695
11.301148
11.456755
11.612477
11.768277
11.924115
12.079952
12.235746
12.391461
12.547054
12.702485
12.857715
13.012702
13.167408
13.321789
13.475807
13.62942
13.782586
13.935266
14.087417
14.239
14.389973
14.540296
14.689927
14.838826
14.986953
15.134266
15.280727
15.426295
15.570929
15.714592
15.857242
15.998844
16.139355
16.278741
16.416961
16.55398
16.689762
16.824268
16.957466
17.089318
17.219791
17.348852
17.476467
17.602606
17.727235
17.850326
17.971847
18.091772
18.210072
18.32672
18.441693
18.554963
18.666509
18.776308
18.884338
18.990582
19.095019
19.197633
19.298407
19.397328
19.494382
19.589556
19.682843
19.77423
19.863714
19.951285
20.036942
20.120681
20.202499
20.282399
20.36038
20.436448
20.510606
20.58286
20.65322
20.721693
20.788292
20.853027
20.915913
20.976966
21.036201
21.093638
21.149293
21.20319
21.255348
21.305791
21.354544
21.40163
21.447079
21.490914
21.533166
21.573862
21.613033
21.650711
21.686924
21.721708
21.755091
21.787109
21.817794
21.847181
21.875304
21.902195
21.927891
21.952425
21.975833
21.99815
22.019407
22.039644
22.058889
22.077181
22.09455
22.111032
22.126659
22.141463
22.155477
22.16873
22.181257
22.193085
22.204244
22.214765
22.224674
22.234002
22.242772
22.251012
22.258749
22.266005
22.272806
22.279174
22.285132
22.290702
22.295903
22.300758
22.305283
22.3095
22.313424
22.317073
22.320463
22.32361
22.326529
22.329233
22.331737
22.334052
22.336192
22.338168
22.33999
22.34167
22.343215
22.344638
22.345945
22.347145
22.348246
22.349253
22.350178
22.351021
22.351793
22.352497
22.353138
22.353724
22.354255
22.354739
22.355178
22.355576
22.355937
22.356262
22.356558
22.356823
22.357064
22.357279
22.357473
22.357648
22.357803
22.357944
22.358068
22.35818
22.35828
22.358368
22.358447
22.358516
22.358578
22.358633
22.358681
22.358724
22.35876
22.358794
22.358822
22.358851
22.358883
22.35891
22.358929
22.358955
22.359002
22.359042
22.359063
22.359083
22.359127
22.359179
22.35921
22.359228
22.359258
22.359307
22.359347
22.35936
22.359373
22.359417
22.359466
22.359489
22.3595
22.359538
22.35959
22.359623
22.359637
22.359669
22.359719
22.359751
22.359766
22.359785
22.35983
22.359874
22.359897
22.359912
22.359946
22.359988
22.360019
22.360041
22.36007
22.360107
22.360136
22.360152
22.360172
22.360208
22.36024
22.360255
22.360267
22.360298
22.360331
22.360347
22.360356
22.360381
22.360416
22.360437
22.360446
22.360465
22.3605
22.360524
22.360533
22.360547
22.36058
22.360612
22.360627
22.360638
22.360666
22.360698
22.360718
22.360734
22.360759
22.360789
22.360807
22.360816
22.360838
22.360865
22.360877
22.360885
22.360901
22.360921
22.36093
22.360932
22.360943
22.360965
22.360981
22.360988
22.360993
22.361008
22.361035
22.361057
22.361069
22.361082
22.361103
22.361125
22.361143
22.361159
22.361177
22.361195
22.361213
22.361229
22.361245
22.361265
22.361286
22.361304
22.361311
22.361312
22.361317
22.361323
22.361334
22.361353
22.361372
22.361387
22.361401
22.361415
22.361436
22.361463
22.361472
22.361468
22.36147
22.361472
22.361469
22.361471
22.361475
22.361462
22.361441
22.361439
22.361442
22.361444
22.361447
22.36145
22.361449
22.361455
22.361469
22.361479
22.361489
22.361496
22.361506
22.361517
22.361528
22.361538
22.361549
22.361561
22.361573
22.361583
22.361594
22.361605
22.361616
22.361627
22.361639
22.361651
22.361662
22.361665
22.361665
22.361669
22.361669
22.361664
22.361663
22.361664
22.361664
22.361667
22.361672
22.361676
22.361677
22.361676
22.361673
22.361672
22.361672
22.361675
22.36168
22.361687
22.361685
22.361675
22.361673
22.361678
22.361679
22.361676
22.361679
22.361676
22.361665
22.361659
22.361665
22.361664
22.361656
22.361655
22.361658
22.361654
22.361642
22.361624
22.361619
22.36162
22.361621
22.361622
22.361619
22.36161
22.361594
22.361588
22.361589
22.361583
22.361571
22.36156
22.361561
22.361557
22.36155
22.361539
22.361528
22.361516
22.361508
22.361505
22.361503
22.361499
22.361492
22.361484
22.361478
22.361472
22.361466
22.361462
22.361458
22.361452
22.361446
22.361439
22.361432
22.361429
22.361425
22.361419
22.361412
22.361409
22.361406
22.361401
22.361394
22.361384
22.36138
22.36138
22.36138
22.361379
22.361377
22.361374
22.361369
22.361363
22.361359
22.361359
22.361359
22.361356
22.361351
22.361345
22.361345
22.361345
22.361342
22.361338
22.361332
22.361325
22.361324
22.361324
22.361322
22.361316
22.361308
22.361302
22.361303
22.361301
22.361297
22.361291
22.361286
22.361282
22.361277
22.361271
22.361267
22.361262
22.361256
22.36125
22.361245
22.36124
22.361234
22.361231
22.361228
22.361224
22.361216
22.361207
22.361201
22.361199
22.361197
22.361192
22.361186
22.361179
22.361172
22.361166
22.361163
22.36116
22.361156
22.36115
22.361143
22.361139
22.361136
22.361133
22.361128
22.361122
22.361115
22.361113
22.361111
22.361108
22.361104
22.361101
22.361098
22.361094
22.361089
22.361087
22.361086
22.361082
22.361078
22.361071
22.361068
22.361068
22.361067
22.361064
22.361059
22.361054
22.361048
22.361044
22.361043
22.361041
22.361039
22.361034
22.361028
22.361024
22.361021
22.361017
22.361013
22.361008
22.361004
22.360999
22.360994
22.360987
22.360984
22.360981
22.360978
22.360973
22.360967
22.360961