/*--------------------------------*- C++ -*----------------------------------*\
  =========                 |
  \\      /  F ield         | OpenFOAM: The Open Source CFD Toolbox
   \\    /   O peration     | Website:  https://openfoam.org
    \\  /    A nd           | Version:  7
     \\/     M anipulation  |
\*---------------------------------------------------------------------------*/
FoamFile
{
    version     2.0;
    format      ascii;
    class       volScalarField;
    location    "0.00336";
    object      T;
}
// * * * * * * * * * * * * * * * * * * * * * * * * * * * * * * * * * * * * * //

dimensions      [0 0 0 1 0 0 0];

internalField   nonuniform List<scalar> 
5000
(
239.4253
239.43014
239.43531
239.4378
239.44289
239.4454
239.45044
239.45296
239.45799
239.4605
239.46552
239.46803
239.47305
239.47556
239.48058
239.48308
239.48809
239.4906
239.49561
239.49811
239.50311
239.50562
239.51062
239.51312
239.51811
239.52061
239.5256
239.52809
239.53308
239.53557
239.54056
239.54305
239.54802
239.55051
239.55548
239.55797
239.56293
239.56542
239.57038
239.57286
239.57782
239.58029
239.58524
239.58772
239.59267
239.59514
239.60008
239.60255
239.60749
239.60995
239.61488
239.61735
239.62227
239.62473
239.62965
239.63211
239.63703
239.63949
239.6444
239.64685
239.65175
239.6542
239.6591
239.66155
239.66645
239.66889
239.67378
239.67622
239.68111
239.68355
239.68843
239.69086
239.69574
239.69817
239.70304
239.70547
239.71033
239.71276
239.71762
239.72005
239.7249
239.72732
239.73217
239.73459
239.73943
239.74185
239.74669
239.74911
239.75394
239.75635
239.76118
239.76359
239.76841
239.77082
239.77563
239.77804
239.78285
239.78525
239.79005
239.79246
239.79725
239.79965
239.80445
239.80684
239.81163
239.81402
239.81881
239.8212
239.82598
239.82836
239.83314
239.83552
239.84029
239.84267
239.84743
239.84981
239.85457
239.85695
239.8617
239.86407
239.86882
239.87119
239.87593
239.8783
239.88304
239.8854
239.89013
239.8925
239.89722
239.89958
239.9043
239.90666
239.91138
239.91373
239.91844
239.9208
239.9255
239.92785
239.93255
239.9349
239.93959
239.94194
239.94663
239.94897
239.95365
239.95599
239.96067
239.96301
239.96768
239.97002
239.97468
239.97702
239.98168
239.98401
239.98866
239.99099
239.99564
239.99797
240.00261
240.00494
240.00958
240.0119
240.01653
240.01885
240.02348
240.02579
240.03042
240.03273
240.03735
240.03966
240.04427
240.04658
240.05119
240.05349
240.05809
240.06042
240.06497
240.06735
240.07182
240.07428
240.07866
240.08121
240.08548
240.08815
240.09228
240.09508
240.09908
240.10201
240.10585
240.10894
240.11261
240.11587
240.11935
240.12281
240.12608
240.12974
240.13279
240.13667
240.1395
240.14358
240.14621
240.15047
240.15293
240.15733
240.15967
240.16416
240.16643
240.17095
240.1732
240.17772
240.17997
240.18448
240.18673
240.19123
240.19348
240.19798
240.20023
240.20472
240.20697
240.21145
240.21369
240.21818
240.22042
240.22489
240.22713
240.2316
240.23383
240.2383
240.24053
240.24499
240.24722
240.25168
240.2539
240.25835
240.26058
240.26502
240.26724
240.27168
240.2739
240.27834
240.28055
240.28498
240.2872
240.29162
240.29383
240.29825
240.30046
240.30487
240.30708
240.31148
240.31369
240.31809
240.32029
240.32469
240.32689
240.33128
240.33348
240.33786
240.34006
240.34444
240.34663
240.35101
240.35319
240.35757
240.35975
240.36412
240.3663
240.37066
240.37284
240.3772
240.37937
240.38373
240.3859
240.39025
240.39242
240.39676
240.39893
240.40326
240.40543
240.40976
240.41192
240.41625
240.41841
240.42273
240.42489
240.42921
240.43136
240.43567
240.43783
240.44213
240.44428
240.44858
240.45073
240.45502
240.45717
240.46146
240.4636
240.46788
240.47003
240.4743
240.47644
240.48072
240.48285
240.48712
240.48925
240.49352
240.49565
240.4999
240.50203
240.50628
240.50841
240.51266
240.51478
240.51902
240.52114
240.52538
240.5275
240.53173
240.53384
240.53807
240.54018
240.5444
240.54651
240.55073
240.55284
240.55705
240.55915
240.56336
240.56546
240.56966
240.57176
240.57596
240.57805
240.58224
240.58434
240.58852
240.59062
240.5948
240.59688
240.60106
240.60315
240.60732
240.6094
240.61356
240.61565
240.61981
240.62188
240.62604
240.62811
240.63226
240.63434
240.63848
240.64055
240.64469
240.64676
240.65089
240.65296
240.65709
240.65915
240.66327
240.66534
240.66945
240.67151
240.67563
240.67768
240.68179
240.68384
240.68794
240.69
240.69409
240.69614
240.70023
240.70228
240.70637
240.70841
240.71249
240.71453
240.71861
240.72065
240.72472
240.72675
240.73082
240.73285
240.73692
240.73895
240.743
240.74503
240.74908
240.75111
240.75515
240.75718
240.76122
240.76324
240.76727
240.76929
240.77332
240.77534
240.77936
240.78138
240.7854
240.78741
240.79143
240.79343
240.79744
240.79945
240.80346
240.80546
240.80946
240.81146
240.81546
240.81745
240.82144
240.82344
240.82743
240.82942
240.8334
240.83539
240.83937
240.84136
240.84533
240.84731
240.85128
240.85326
240.85722
240.8592
240.86316
240.86514
240.86909
240.87107
240.87501
240.87699
240.88093
240.8829
240.88684
240.88881
240.89274
240.89471
240.89864
240.9006
240.90452
240.90649
240.91041
240.91236
240.91628
240.91824
240.92215
240.9241
240.92801
240.92996
240.93386
240.93581
240.93971
240.94166
240.94555
240.9475
240.95138
240.95333
240.95721
240.95915
240.96303
240.96497
240.96885
240.97079
240.97466
240.97659
240.98046
240.98239
240.98626
240.98819
240.99205
240.99398
240.99783
240.99976
241.00361
241.00554
241.00938
241.01131
241.01515
241.01707
241.02092
241.02283
241.02667
241.02859
241.03242
241.03434
241.03817
241.04008
241.04391
241.04582
241.04965
241.05156
241.05538
241.05729
241.06111
241.06302
241.06683
241.06874
241.07255
241.07445
241.07826
241.08017
241.08397
241.08588
241.08968
241.09158
241.09538
241.09728
241.10108
241.10298
241.10677
241.10867
241.11247
241.11436
241.11815
241.12005
241.12384
241.12573
241.12952
241.13141
241.1352
241.13709
241.14087
241.14277
241.14655
241.14844
241.15222
241.15411
241.15789
241.15977
241.16355
241.16544
241.16922
241.1711
241.17488
241.17676
241.18054
241.18242
241.1862
241.18808
241.19185
241.19374
241.19751
241.19939
241.20316
241.20504
241.20881
241.2107
241.21446
241.21635
241.22011
241.222
241.22576
241.22764
241.23141
241.23329
241.23706
241.23894
241.24269
241.24462
241.24828
241.25033
241.25385
241.25606
241.25941
241.26178
241.26498
241.2675
241.27056
241.2732
241.27614
241.27889
241.28175
241.28457
241.28736
241.29023
241.29298
241.29589
241.29861
241.30153
241.30424
241.30718
241.30987
241.31282
241.31551
241.31846
241.32114
241.3241
241.32678
241.32974
241.33241
241.33537
241.33805
241.341
241.34369
241.34663
241.34933
241.35225
241.35497
241.35787
241.36061
241.36349
241.36625
241.36911
241.37188
241.37472
241.37752
241.38034
241.38315
241.38595
241.38878
241.39157
241.3944
241.39718
241.40002
241.40279
241.40564
241.4084
241.41126
241.41401
241.41687
241.41962
241.42248
241.42523
241.42808
241.43083
241.43368
241.43643
241.43928
241.44202
241.44488
241.44762
241.45047
241.45321
241.45606
241.45879
241.46164
241.46437
241.46722
241.46995
241.47279
241.47552
241.47837
241.48109
241.48393
241.48666
241.48949
241.49222
241.49505
241.49777
241.5006
241.50332
241.50615
241.50887
241.51169
241.51441
241.51723
241.51994
241.52276
241.52547
241.52829
241.53099
241.53381
241.53651
241.53932
241.54202
241.54483
241.54753
241.55033
241.55303
241.55583
241.55852
241.56132
241.56401
241.5668
241.56949
241.57228
241.57496
241.57775
241.58043
241.58321
241.58589
241.58867
241.59134
241.59412
241.59679
241.59956
241.60223
241.605
241.60766
241.61043
241.61308
241.61585
241.6185
241.62127
241.62391
241.62667
241.62932
241.63207
241.63471
241.63747
241.6401
241.64285
241.64548
241.64823
241.65086
241.6536
241.65622
241.65897
241.66158
241.66432
241.66694
241.66967
241.67228
241.67501
241.67761
241.68034
241.68294
241.68567
241.68826
241.69099
241.69358
241.6963
241.69888
241.7016
241.70418
241.70689
241.70947
241.71218
241.71476
241.71745
241.72004
241.72272
241.7253
241.72798
241.73057
241.73323
241.73582
241.73847
241.74107
241.74371
241.7463
241.74893
241.75153
241.75415
241.75675
241.75937
241.76196
241.76457
241.76717
241.76977
241.77236
241.77496
241.77755
241.78014
241.78273
241.78532
241.7879
241.79048
241.79306
241.79564
241.79821
241.80079
241.80336
241.80593
241.8085
241.81106
241.81363
241.81619
241.81875
241.8213
241.82386
241.82641
241.82896
241.83151
241.83406
241.8366
241.83915
241.84169
241.84422
241.84676
241.8493
241.85183
241.85436
241.85689
241.85941
241.86193
241.86446
241.86698
241.86949
241.87201
241.87452
241.87703
241.87954
241.88205
241.88455
241.88706
241.88956
241.89206
241.89455
241.89705
241.89954
241.90203
241.90452
241.907
241.90949
241.91197
241.91445
241.91692
241.9194
241.92187
241.92434
241.92681
241.92928
241.93174
241.9342
241.93666
241.93912
241.94158
241.94403
241.94648
241.94893
241.95138
241.95383
241.95627
241.95871
241.96115
241.96359
241.96602
241.96845
241.97088
241.97331
241.97574
241.97816
241.98058
241.983
241.98542
241.98784
241.99025
241.99266
241.99507
241.99748
241.99988
242.00228
242.00469
242.00708
242.00948
242.01187
242.01427
242.01666
242.01904
242.02143
242.02381
242.0262
242.02857
242.03095
242.03333
242.0357
242.03807
242.04044
242.04281
242.04517
242.04754
242.0499
242.05226
242.05461
242.05697
242.05932
242.06167
242.06402
242.06636
242.06871
242.07105
242.07339
242.07573
242.07806
242.0804
242.08273
242.08506
242.08739
242.08971
242.09204
242.09436
242.09668
242.099
242.10131
242.10363
242.10594
242.10825
242.11056
242.11286
242.11517
242.11747
242.11977
242.12206
242.12436
242.12665
242.12894
242.13123
242.13352
242.13581
242.13809
242.14037
242.14265
242.14493
242.1472
242.14947
242.15174
242.15401
242.15628
242.15854
242.16081
242.16307
242.16533
242.16759
242.16984
242.1721
242.17435
242.1766
242.17884
242.18109
242.18333
242.18558
242.18782
242.19006
242.19229
242.19453
242.19676
242.19899
242.20122
242.20344
242.20567
242.20789
242.21011
242.21233
242.21455
242.21676
242.21897
242.22119
242.22339
242.2256
242.22781
242.23001
242.23221
242.23441
242.23661
242.23881
242.241
242.24319
242.24538
242.24757
242.24976
242.25194
242.25412
242.2563
242.25848
242.26066
242.26284
242.26501
242.26718
242.26935
242.27152
242.27369
242.27585
242.27801
242.28017
242.28233
242.28449
242.28664
242.28879
242.29094
242.29309
242.29524
242.29739
242.29953
242.30167
242.30381
242.30595
242.30808
242.31022
242.31235
242.31448
242.31661
242.31873
242.32086
242.32298
242.3251
242.32722
242.32934
242.33145
242.33356
242.33568
242.33779
242.33989
242.342
242.3441
242.3462
242.3483
242.3504
242.3525
242.35459
242.35669
242.35878
242.36086
242.36295
242.36503
242.36712
242.3692
242.37128
242.37335
242.37543
242.3775
242.37957
242.38164
242.38371
242.38577
242.38784
242.3899
242.39196
242.39402
242.39607
242.39813
242.40018
242.40223
242.40428
242.40632
242.40837
242.41041
242.41245
242.41449
242.41653
242.41856
242.4206
242.42263
242.42466
242.42668
242.42871
242.43073
242.43275
242.43477
242.43679
242.43881
242.44082
242.44283
242.44485
242.44686
242.44886
242.45087
242.45287
242.45487
242.45687
242.45887
242.46087
242.46286
242.46486
242.46685
242.46884
242.47083
242.47281
242.4748
242.47678
242.47876
242.48074
242.48272
242.4847
242.48667
242.48864
242.49061
242.49258
242.49455
242.49652
242.49848
242.50044
242.5024
242.50436
242.50632
242.50828
242.51023
242.51219
242.51414
242.51609
242.51803
242.51998
242.52192
242.52386
242.52581
242.52774
242.52968
242.53162
242.53355
242.53548
242.53741
242.53933
242.54126
242.54318
242.54511
242.54702
242.54894
242.55086
242.55278
242.55469
242.5566
242.55851
242.56042
242.56232
242.56423
242.56613
242.56803
242.56993
242.57182
242.57372
242.57561
242.5775
242.57939
242.58128
242.58316
242.58505
242.58693
242.58881
242.59069
242.59256
242.59444
242.59631
242.59818
242.60005
242.60191
242.60378
242.60564
242.6075
242.60936
242.61122
242.61308
242.61493
242.61678
242.61863
242.62048
242.62233
242.62418
242.62602
242.62786
242.6297
242.63154
242.63338
242.63521
242.63704
242.63887
242.6407
242.64253
242.64435
242.64618
242.648
242.64982
242.65164
242.65345
242.65526
242.65708
242.65889
242.6607
242.6625
242.66431
242.66611
242.66791
242.66971
242.67151
242.67331
242.6751
242.6769
242.67869
242.68048
242.68226
242.68405
242.68583
242.68762
242.6894
242.69118
242.69295
242.69473
242.6965
242.69828
242.70005
242.70181
242.70358
242.70534
242.70711
242.70887
242.71063
242.71238
242.71414
242.71589
242.71765
242.7194
242.72115
242.7229
242.72464
242.72639
242.72813
242.72987
242.73161
242.73334
242.73508
242.73681
242.73854
242.74027
242.742
242.74373
242.74545
242.74718
242.7489
242.75062
242.75234
242.75405
242.75577
242.75748
242.75919
242.7609
242.76261
242.76432
242.76602
242.76773
242.76943
242.77113
242.77283
242.77452
242.77622
242.77791
242.7796
242.78129
242.78298
242.78467
242.78635
242.78804
242.78972
242.7914
242.79308
242.79476
242.79643
242.7981
242.79978
242.80145
242.80311
242.80478
242.80645
242.80811
242.80977
242.81143
242.81309
242.81474
242.8164
242.81805
242.8197
242.82135
242.823
242.82465
242.82629
242.82793
242.82957
242.83121
242.83285
242.83448
242.83611
242.83775
242.83938
242.841
242.84263
242.84425
242.84587
242.84749
242.84911
242.85073
242.85234
242.85396
242.85557
242.85718
242.85878
242.86039
242.86199
242.86359
242.86519
242.86679
242.86838
242.86998
242.87157
242.87316
242.87475
242.87633
242.87791
242.8795
242.88108
242.88266
242.88423
242.88581
242.88738
242.88895
242.89052
242.89208
242.89365
242.89521
242.89677
242.89833
242.89989
242.90144
242.903
242.90454
242.9061
242.90764
242.90919
242.91073
242.91228
242.91381
242.91535
242.91688
242.91842
242.91995
242.92148
242.92301
242.92454
242.92606
242.92758
242.92911
242.93062
242.93214
242.93365
242.93517
242.93668
242.93819
242.93969
242.94121
242.9427
242.94421
242.94571
242.94721
242.9487
242.9502
242.95169
242.95318
242.95467
242.95616
242.95764
242.95912
242.96061
242.96208
242.96357
242.96504
242.96652
242.96798
242.96946
242.97092
242.97239
242.97385
242.97532
242.97678
242.97824
242.9797
242.98115
242.98261
242.98406
242.98551
242.98696
242.98841
242.98985
242.9913
242.99273
242.99418
242.99561
242.99705
242.99848
242.99992
243.00135
243.00278
243.00421
243.00563
243.00706
243.00848
243.0099
243.01132
243.01274
243.01415
243.01557
243.01698
243.01839
243.0198
243.02121
243.02262
243.02402
243.02543
243.02683
243.02823
243.02962
243.03102
243.03242
243.03381
243.0352
243.03659
243.03798
243.03937
243.04075
243.04214
243.04352
243.0449
243.04628
243.04766
243.04904
243.05041
243.05179
243.05316
243.05453
243.0559
243.05727
243.05863
243.06
243.06136
243.06272
243.06408
243.06544
243.0668
243.06816
243.06951
243.07086
243.07221
243.07356
243.07491
243.07626
243.07761
243.07895
243.08029
243.08163
243.08297
243.08431
243.08565
243.08698
243.08832
243.08965
243.09098
243.09231
243.09364
243.09496
243.09629
243.09761
243.09893
243.10025
243.10157
243.10289
243.1042
243.10551
243.10683
243.10814
243.10944
243.11075
243.11205
243.11336
243.11466
243.11596
243.11726
243.11856
243.11985
243.12114
243.12244
243.12373
243.12502
243.1263
243.12759
243.12887
243.13016
243.13144
243.13271
243.13399
243.13527
243.13654
243.13781
243.13908
243.14035
243.14162
243.14288
243.14415
243.14541
243.14667
243.14793
243.14919
243.15044
243.1517
243.15295
243.1542
243.15545
243.1567
243.15794
243.15918
243.16042
243.16167
243.1629
243.16414
243.16537
243.16661
243.16784
243.16907
243.1703
243.17152
243.17275
243.17397
243.17519
243.17641
243.17763
243.17885
243.18006
243.18128
243.18248
243.1837
243.18491
243.18612
243.18732
243.18853
243.18973
243.19093
243.19212
243.19332
243.19451
243.19571
243.19689
243.19809
243.19927
243.20047
243.20164
243.20283
243.20401
243.20519
243.20637
243.20755
243.20872
243.20989
243.21107
243.21224
243.21341
243.21457
243.21574
243.2169
243.21806
243.21922
243.22038
243.22154
243.2227
243.22385
243.225
243.22616
243.22731
243.22845
243.2296
243.23074
243.23189
243.23303
243.23417
243.23531
243.23645
243.23758
243.23872
243.23985
243.24098
243.24211
243.24324
243.24436
243.24549
243.24661
243.24773
243.24885
243.24997
243.25108
243.2522
243.25331
243.25443
243.25554
243.25665
243.25776
243.25887
243.25997
243.26108
243.26218
243.26328
243.26438
243.26548
243.26658
243.26768
243.26877
243.26986
243.27095
243.27204
243.27313
243.27422
243.2753
243.27639
243.27747
243.27855
243.27963
243.28071
243.28179
243.28287
243.28394
243.28502
243.28609
243.28716
243.28823
243.28929
243.29036
243.29142
243.29249
243.29355
243.29461
243.29567
243.29673
243.29778
243.29884
243.29989
243.30094
243.30199
243.30304
243.30409
243.30514
243.30618
243.30722
243.30827
243.30931
243.31034
243.31138
243.31242
243.31345
243.31448
243.31551
243.31654
243.31757
243.3186
243.31962
243.32065
243.32167
243.32269
243.32371
243.32473
243.32574
243.32676
243.32777
243.32878
243.32979
243.3308
243.3318
243.33281
243.33381
243.33482
243.33582
243.33682
243.33782
243.33881
243.33981
243.3408
243.34179
243.34278
243.34377
243.34476
243.34574
243.34672
243.3477
243.34868
243.34966
243.35064
243.35162
243.35259
243.35356
243.35454
243.35551
243.35647
243.35744
243.35841
243.35937
243.36033
243.36129
243.36225
243.3632
243.36416
243.36511
243.36606
243.36701
243.36796
243.36891
243.36985
243.3708
243.37174
243.37268
243.37362
243.37456
243.37549
243.37643
243.37736
243.37829
243.37922
243.38015
243.38108
243.382
243.38293
243.38385
243.38477
243.38569
243.3866
243.38752
243.38843
243.38934
243.39026
243.39116
243.39207
243.39298
243.39388
243.39478
243.39569
243.39658
243.39748
243.39838
243.39927
243.40017
243.40106
243.40195
243.40284
243.40372
243.40461
243.40549
243.40637
243.40725
243.40813
243.40901
243.40989
243.41076
243.41164
243.41251
243.41338
243.41425
243.41512
243.41598
243.41684
243.41771
243.41857
243.41943
243.42028
243.42114
243.422
243.42285
243.4237
243.42455
243.4254
243.42625
243.42709
243.42794
243.42878
243.42962
243.43046
243.4313
243.43214
243.43297
243.43381
243.43464
243.43547
243.4363
243.43713
243.43796
243.43878
243.43961
243.44043
243.44125
243.44207
243.44289
243.44371
243.44453
243.44534
243.44615
243.44696
243.44777
243.44858
243.44939
243.4502
243.451
243.4518
243.45261
243.45341
243.45421
243.455
243.4558
243.4566
243.45739
243.45818
243.45897
243.45976
243.46055
243.46134
243.46212
243.46291
243.46369
243.46447
243.46525
243.46603
243.46681
243.46758
243.46835
243.46913
243.4699
243.47066
243.47143
243.4722
243.47296
243.47373
243.47449
243.47525
243.47601
243.47677
243.47752
243.47828
243.47903
243.47979
243.48054
243.48129
243.48203
243.48278
243.48352
243.48427
243.48501
243.48575
243.48649
243.48723
243.48796
243.4887
243.48943
243.49016
243.49089
243.49162
243.49234
243.49307
243.49379
243.49451
243.49523
243.49595
243.49667
243.49739
243.4981
243.49882
243.49953
243.50024
243.50095
243.50166
243.50236
243.50307
243.50377
243.50447
243.50517
243.50587
243.50657
243.50726
243.50796
243.50865
243.50934
243.51003
243.51072
243.5114
243.51209
243.51277
243.51345
243.51413
243.51481
243.51549
243.51616
243.51684
243.51751
243.51818
243.51885
243.51952
243.52018
243.52085
243.52151
243.52217
243.52283
243.52349
243.52415
243.5248
243.52546
243.52611
243.52676
243.52741
243.52806
243.5287
243.52935
243.52999
243.53063
243.53127
243.53191
243.53255
243.53318
243.53382
243.53445
243.53508
243.53571
243.53634
243.53697
243.53759
243.53822
243.53884
243.53946
243.54008
243.5407
243.54131
243.54193
243.54254
243.54315
243.54376
243.54437
243.54498
243.54558
243.54619
243.54679
243.54739
243.54799
243.54859
243.54918
243.54978
243.55037
243.55096
243.55155
243.55214
243.55273
243.55332
243.5539
243.55449
243.55507
243.55565
243.55623
243.5568
243.55738
243.55795
243.55852
243.55909
243.55966
243.56023
243.5608
243.56136
243.56193
243.56249
243.56305
243.56361
243.56417
243.56473
243.56528
243.56584
243.56639
243.56694
243.56749
243.56803
243.56858
243.56913
243.56967
243.57021
243.57075
243.57129
243.57183
243.57237
243.5729
243.57344
243.57397
243.5745
243.57503
243.57556
243.57608
243.57661
243.57713
243.57765
243.57817
243.57869
243.57921
243.57973
243.58024
243.58076
243.58127
243.58178
243.58229
243.5828
243.5833
243.58381
243.58431
243.58481
243.58532
243.58581
243.58631
243.58681
243.5873
243.5878
243.58829
243.58878
243.58926
243.58975
243.59024
243.59072
243.59121
243.59169
243.59217
243.59264
243.59312
243.5936
243.59407
243.59454
243.59501
243.59548
243.59595
243.59642
243.59688
243.59734
243.59781
243.59827
243.59873
243.59918
243.59964
243.60009
243.60055
243.601
243.60145
243.6019
243.60234
243.60279
243.60323
243.60368
243.60412
243.60456
243.60499
243.60543
243.60586
243.6063
243.60673
243.60716
243.60758
243.60801
243.60843
243.60886
243.60928
243.6097
243.61012
243.61053
243.61095
243.61136
243.61177
243.61218
243.61259
243.613
243.6134
243.6138
243.61421
243.61461
243.615
243.6154
243.6158
243.61619
243.61658
243.61697
243.61736
243.61775
243.61814
243.61852
243.6189
243.61928
243.61966
243.62003
243.62041
243.62078
243.62115
243.62151
243.62188
243.62224
243.62261
243.62297
243.62332
243.62368
243.62403
243.62438
243.62473
243.62508
243.62543
243.62577
243.62611
243.62645
243.62679
243.62712
243.62746
243.62779
243.62812
243.62844
243.62877
243.62909
243.6294
243.62972
243.63003
243.63034
243.63065
243.63095
243.63125
243.63155
243.63185
243.63214
243.63243
243.63272
243.633
243.63328
243.63356
243.63383
243.6341
243.63437
243.63464
243.6349
243.63515
243.63541
243.63566
243.6359
243.63614
243.63638
243.63661
243.63684
243.63707
243.63729
243.63751
243.63772
243.63793
243.63813
243.63833
243.63852
243.63871
243.63889
243.63906
243.63924
243.6394
243.63956
243.63971
243.63986
243.64
243.64014
243.64027
243.64039
243.64051
243.64062
243.64072
243.64081
243.6409
243.64098
243.64105
243.64112
243.64117
243.64122
243.64126
243.64129
243.64131
243.64132
243.64133
243.64132
243.64131
243.64128
243.64125
243.64121
243.64115
243.64109
243.64101
243.64092
243.64082
243.64071
243.64059
243.64046
243.64032
243.64016
243.63999
243.6398
243.63961
243.6394
243.63918
243.63894
243.63869
243.63842
243.63814
243.63785
243.63754
243.63722
243.63688
243.63653
243.63616
243.63577
243.63537
243.63495
243.63452
243.63406
243.6336
243.63311
243.63261
243.63209
243.63155
243.63099
243.63042
243.62982
243.62921
243.62858
243.62793
243.62726
243.62658
243.62587
243.62514
243.6244
243.62363
243.62284
243.62204
243.62121
243.62036
243.6195
243.61861
243.6177
243.61678
243.61583
243.61486
243.61387
243.61286
243.61183
243.61078
243.6097
243.60861
243.6075
243.60636
243.60521
243.60403
243.60284
243.60162
243.60038
243.59912
243.59784
243.59655
243.59523
243.59389
243.59253
243.59115
243.58975
243.58833
243.5869
243.58544
243.58397
243.58248
243.58097
243.57944
243.5779
243.57634
243.57476
243.57316
243.57155
243.56992
243.56828
243.56662
243.56495
243.56326
243.56156
243.55984
243.55811
243.55636
243.5546
243.55283
243.55105
243.54925
243.54744
243.54562
243.5438
243.54196
243.54011
243.53825
243.53638
243.53451
243.53263
243.53074
243.52885
243.52694
243.52504
243.52312
243.52121
243.51929
243.51736
243.51543
243.5135
243.51157
243.50963
243.5077
243.50576
243.50382
243.50189
243.49995
243.49801
243.49608
243.49415
243.49222
243.49029
243.48837
243.48645
243.48454
243.48263
243.48072
243.47882
243.47693
243.47505
243.47317
243.4713
243.46944
243.46759
243.46574
243.46391
243.46208
243.46027
243.45846
243.45667
243.45488
243.45311
243.45135
243.44961
243.44787
243.44615
243.44444
243.44274
243.44106
243.43938
243.43773
243.43608
243.43446
243.43284
243.43124
243.42966
243.42809
243.42653
243.425
243.42347
243.42196
243.42047
243.419
243.41753
243.41609
243.41466
243.41325
243.41185
243.41047
243.4091
243.40776
243.40642
243.40511
243.40381
243.40252
243.40125
243.4
243.39876
243.39754
243.39634
243.39515
243.39397
243.39281
243.39167
243.39054
243.38943
243.38833
243.38725
243.38618
243.38512
243.38408
243.38306
243.38205
243.38105
243.38007
243.37909
243.37814
243.37719
243.37626
243.37534
243.37443
243.37354
243.37265
243.37178
243.37092
243.37008
243.36924
243.36842
243.3676
243.3668
243.36601
243.36523
243.36445
243.36369
243.36294
243.3622
243.36146
243.36074
243.36002
243.35931
243.35861
243.35792
243.35723
243.35655
243.35588
243.35522
243.35456
243.35391
243.35327
243.35264
243.35201
243.35138
243.35077
243.35015
243.34955
243.34895
243.34835
243.34776
243.34718
243.3466
243.34602
243.34545
243.34488
243.34432
243.34375
243.3432
243.34265
243.3421
243.34155
243.34101
243.34047
243.33994
243.3394
243.33887
243.33834
243.33782
243.33729
243.33677
243.33625
243.33574
243.33522
243.33471
243.33419
243.33368
243.33317
243.33266
243.33216
243.33165
243.33115
243.33065
243.33014
243.32964
243.32914
243.32864
243.32814
243.32764
243.32714
243.32664
243.32614
243.32564
243.32515
243.32465
243.32415
243.32365
243.32316
243.32266
243.32216
243.32166
243.32117
243.32067
243.32017
243.31967
243.31917
243.31867
243.31817
243.31767
243.31716
243.31666
243.31616
243.31565
243.31515
243.31464
243.31413
243.31363
243.31312
243.31261
243.3121
243.31158
243.31107
243.31056
243.31004
243.30953
243.30901
243.30849
243.30797
243.30746
243.30693
243.30641
243.30588
243.30537
243.30483
243.30431
243.30378
243.30325
243.30272
243.30218
243.30165
243.30111
243.30058
243.30003
243.2995
243.29895
243.29841
243.29787
243.29732
243.29678
243.29623
243.29567
243.29513
243.29457
243.29402
243.29346
243.2929
243.29235
243.29178
243.29122
243.29066
243.29009
243.28953
243.28896
243.28839
243.28783
243.28725
243.28668
243.2861
243.28552
243.28494
243.28436
243.28378
243.2832
243.28261
243.28202
243.28144
243.28084
243.28025
243.27966
243.27906
243.27847
243.27787
243.27727
243.27667
243.27607
243.27546
243.27486
243.27425
243.27364
243.27303
243.27242
243.2718
243.27119
243.27057
243.26995
243.26933
243.26871
243.26809
243.26746
243.26683
243.2662
243.26557
243.26494
243.2643
243.26366
243.26303
243.26239
243.26175
243.2611
243.26046
243.25981
243.25917
243.25852
243.25787
243.25721
243.25656
243.2559
243.25524
243.25459
243.25392
243.25326
243.2526
243.25193
243.25126
243.25059
243.24992
243.24925
243.24857
243.24789
243.24721
243.24653
243.24585
243.24517
243.24448
243.2438
243.24311
243.24242
243.24173
243.24103
243.24033
243.23963
243.23893
243.23822
243.23752
243.23681
243.2361
243.23538
243.23467
243.23395
243.23323
243.23251
243.23179
243.23107
243.23034
243.22961
243.22888
243.22815
243.22742
243.22668
243.22594
243.2252
243.22445
243.22371
243.22296
243.22221
243.22146
243.2207
243.21994
243.21918
243.21842
243.21766
243.21689
243.21612
243.21535
243.21458
243.21381
243.21303
243.21225
243.21147
243.21068
243.20989
243.2091
243.20831
243.20751
243.20672
243.20591
243.20511
243.2043
243.20349
243.20268
243.20186
243.20105
243.20023
243.19941
243.19858
243.19775
243.19692
243.19609
243.19525
243.19441
243.19357
243.19273
243.19188
243.19103
243.19018
243.18932
243.18846
243.1876
243.18674
243.18587
243.185
243.18412
243.18325
243.18236
243.18148
243.18059
243.1797
243.17881
243.17791
243.17701
243.17611
243.1752
243.17429
243.17337
243.17246
243.17154
243.17061
243.16969
243.16875
243.16782
243.16688
243.16594
243.165
243.16405
243.1631
243.16214
243.16118
243.16022
243.15926
243.15829
243.15731
243.15634
243.15536
243.15437
243.15338
243.15239
243.1514
243.1504
243.14939
243.14839
243.14738
243.14636
243.14534
243.14432
243.1433
243.14227
243.14124
243.1402
243.13916
243.13812
243.13708
243.13603
243.13497
243.13392
243.13286
243.13179
243.13072
243.12965
243.12858
243.1275
243.12641
243.12533
243.12423
243.12314
243.12204
243.12094
243.11984
243.11873
243.11761
243.1165
243.11538
243.11426
243.11313
243.112
243.11086
243.10972
243.10858
243.10744
243.10629
243.10514
243.10398
243.10282
243.10166
243.1005
243.09933
243.09815
243.09697
243.0958
243.09461
243.09343
243.09224
243.09104
243.08984
243.08864
243.08744
243.08624
243.08503
243.08381
243.08259
243.08137
243.08015
243.07892
243.07769
243.07645
243.07521
243.07397
243.07272
243.07148
243.07022
243.06897
243.06771
243.06645
243.06519
243.06392
243.06265
243.06138
243.06011
243.05883
243.05755
243.05626
243.05498
243.05368
243.05239
243.0511
243.04981
243.04851
243.0472
243.04589
243.04459
243.04327
243.04196
243.04065
243.03933
243.03801
243.03668
243.03535
243.03401
243.03267
243.03134
243.03
243.02866
243.02731
243.02597
243.02461
243.02325
243.0219
243.02054
243.01918
243.01782
243.01645
243.01507
243.0137
243.01231
243.01093
243.00955
243.00816
243.00678
243.00539
243.00399
243.00259
243.00117
242.99976
242.99833
242.99692
242.9955
242.99406
242.99264
242.9912
242.98975
242.9883
242.98683
242.98538
242.98391
242.98245
242.98099
242.97951
242.97802
242.97653
242.97501
242.97349
242.97198
242.97045
242.96892
242.96742
242.9659
242.96436
242.96284
242.9613
242.95972
242.95815
242.95659
242.95501
242.95342
242.95186
242.9503
242.9487
242.94711
242.94555
242.94394
242.94231
242.94071
242.93912
242.93751
242.9359
242.93433
242.93279
242.93123
242.92966
242.92811
242.92658
242.92504
242.92347
242.92188
242.92034
242.91883
242.9173
242.91574
242.91421
242.91276
242.91134
242.90987
242.90834
242.90685
242.90542
242.90401
242.9025
242.90091
242.89934
242.89786
242.89644
242.89499
242.89345
242.89187
242.89036
242.88896
242.88761
242.88622
242.88472
242.88314
242.88155
242.88002
242.87856
242.87708
242.8755
242.87379
242.87196
242.87011
242.86831
242.86661
242.865
242.86345
242.8619
242.86031
242.85866
242.85697
242.8553
242.8537
242.8522
242.85079
242.84945
242.84818
242.84705
242.84616
242.84561
242.84539
242.84541
242.8457
242.84705
242.85169
242.86591
242.90773
243.02843
243.34647
243.79085
244.27404
244.79064
245.33426
245.89813
246.47552
247.06002
247.64561
248.22674
248.79837
249.35602
249.89576
250.41424
250.9087
251.37704
251.81771
252.22975
252.61265
252.96635
253.29117
253.58776
253.85708
254.10036
254.31898
254.51447
254.6884
254.84238
254.97801
255.09686
255.2005
255.29046
255.36818