/*--------------------------------*- C++ -*----------------------------------*\
  =========                 |
  \\      /  F ield         | OpenFOAM: The Open Source CFD Toolbox
   \\    /   O peration     | Website:  https://openfoam.org
    \\  /    A nd           | Version:  7
     \\/     M anipulation  |
\*---------------------------------------------------------------------------*/
FoamFile
{
    version     2.0;
    format      ascii;
    class       volVectorField;
    location    "0.00043";
    object      U;
}
// * * * * * * * * * * * * * * * * * * * * * * * * * * * * * * * * * * * * * //

dimensions      [0 1 -1 0 0 0 0];

internalField   nonuniform List<vector> 
5000
(
(-1.1717032e-13 -1.3510587e-28 0)
(5.1365519e-14 -2.3150495e-43 0)
(-9.7046579e-14 0 0)
(-2.6581314e-13 0 0)
(-1.9751331e-13 -1.519941e-28 0)
(-2.8874165e-14 -3.646298e-58 3.2073177e-43)
(4.7419945e-14 5.06647e-29 -1.079983e-43)
(3.6007023e-15 0 1.519941e-28)
(3.9817738e-14 0 5.06647e-29)
(3.1597276e-15 -5.06647e-29 -1.013294e-28)
(6.520464e-14 -1.013294e-28 -1.013294e-28)
(-8.8205381e-14 5.06647e-29 5.06647e-29)
(6.8257294e-14 -1.013294e-28 8.6398642e-43)
(6.3801627e-14 2.026588e-28 1.7855719e-42)
(-1.3462574e-14 0 -2.026588e-28)
(2.5582472e-13 5.06647e-29 1.013294e-28)
(1.0204963e-13 2.3418399e-55 1.1709199e-55)
(3.7194932e-13 2.026588e-28 -1.7855719e-42)
(4.0561871e-13 0 -2.533235e-28)
(3.4933123e-13 1.519941e-28 3.039882e-28)
(6.2486914e-13 5.45244e-43 -5.45244e-43)
(4.759672e-13 5.06647e-29 0)
(6.4215528e-13 -1.013294e-28 0)
(6.2811606e-13 -1.519941e-28 -1.519941e-28)
(5.6755638e-13 -4.559823e-28 3.8879389e-42)
(4.5443229e-13 -2.5055606e-42 -2.5055606e-42)
(6.7479752e-13 -1.519941e-28 1.519941e-28)
(6.9872757e-13 -1.013294e-28 -1.013294e-28)
(4.6615017e-13 -2.026588e-28 1.013294e-28)
(4.380607e-13 2.6351586e-42 -1.519941e-28)
(5.0172312e-13 -3.5423443e-42 3.5423443e-42)
(4.7670342e-13 5.06647e-29 -4.3199321e-43)
(4.5363154e-13 -1.013294e-28 5.06647e-29)
(2.5259525e-13 -1.013294e-28 5.06647e-29)
(3.0430103e-13 8.783862e-43 5.06647e-29)
(3.8624065e-13 8.8126615e-42 0)
(3.6527088e-13 3.5135448e-42 0)
(6.1276347e-13 -1.013294e-28 5.06647e-29)
(5.9639325e-13 3.9813881e-42 1.9847959e-42)
(7.1023738e-13 1.480531e-42 -7.5206179e-43)
(7.7157324e-13 -3.039882e-28 2.54876e-42)
(6.2111153e-13 1.3938981e-41 2.026588e-28)
(5.2797095e-13 4.053176e-28 -2.026588e-28)
(3.9061997e-13 -1.519941e-28 2.5703596e-42)
(2.0540799e-13 -3.039882e-28 1.013294e-28)
(2.9323502e-13 1.013294e-28 -1.013294e-28)
(3.8669496e-13 1.013294e-28 3.4847452e-42)
(4.1025285e-13 1.3881382e-41 -6.9406909e-42)
(5.3030414e-13 3.039882e-28 5.2271179e-42)
(6.2713928e-13 0 8.6398642e-43)
(7.1767779e-13 -3.3031759e-43 -3.3621574e-43)
(6.3930306e-13 -2.1599661e-44 0)
(3.7402638e-13 2.533235e-28 0)
(5.0163916e-13 -8.106352e-28 0)
(3.599513e-13 1.9482894e-41 0)
(2.1503587e-13 1.013294e-27 0)
(2.030236e-13 -3.039882e-28 0)
(1.8077862e-13 5.2487175e-42 0)
(1.6017582e-13 2.533235e-28 0)
(1.1345973e-13 0 0)
(-2.032318e-14 -3.039882e-28 0)
(-2.2140756e-13 -6.9118914e-42 0)
(-4.2783266e-13 -2.8799547e-44 0)
(-2.4466553e-13 -5.06647e-29 5.06647e-29)
(-1.2813723e-13 -5.06647e-29 -5.06647e-29)
(-1.3445701e-13 3.5423443e-42 1.013294e-28)
(-9.1632424e-14 -5.06647e-29 8.7118631e-43)
(-1.5050817e-13 2.533235e-28 -4.8788331e-57)
(-1.1699456e-13 1.519941e-28 -1.519941e-28)
(-3.0714453e-13 1.7105694e-43 0)
(-1.7506311e-13 -1.013294e-28 0)
(-2.9199479e-13 2.533235e-28 2.533235e-28)
(-2.8921068e-13 2.533235e-28 2.533235e-28)
(-2.6971906e-13 -5.06647e-28 0)
(-2.5781519e-13 -2.026588e-28 -2.026588e-28)
(-3.9932282e-13 5.06647e-29 -1.7495725e-42)
(-5.0351056e-13 0 -5.06647e-29)
(-3.7877298e-13 5.06647e-29 -5.06647e-29)
(-4.4097112e-13 -7.1998869e-45 5.06647e-29)
(-4.7026179e-13 -1.519941e-28 3.039882e-28)
(-4.5625823e-13 2.533235e-28 -5.06647e-28)
(-4.3496734e-13 -1.0079842e-43 2.0159683e-43)
(-3.5178194e-13 7.1998869e-44 7.599705e-28)
(-2.2895702e-13 1.013294e-28 -2.026588e-28)
(-2.4330829e-13 2.533235e-28 -2.6351586e-41)
(-4.5409469e-13 1.4111778e-41 8.106352e-28)
(-3.8105284e-13 -2.533235e-28 -7.599705e-28)
(-5.782262e-13 0 1.519941e-28)
(-3.5225832e-13 4.4476284e-42 -4.4358321e-42)
(-4.547858e-13 2.102367e-41 2.026588e-28)
(-5.106651e-13 -1.3639476e-55 3.3357583e-42)
(-4.5431397e-13 1.013294e-28 1.013294e-28)
(-6.8025542e-13 -5.06647e-29 -1.7639723e-42)
(-6.0446721e-13 -1.013294e-28 -1.013294e-28)
(-7.6638842e-13 -2.4544414e-41 -2.4544414e-41)
(-7.7119758e-13 3.546529e-28 -3.546529e-28)
(-9.2986808e-13 0 -5.06647e-29)
(-4.1254868e-13 0 8.8918603e-42)
(-5.4766828e-13 4.559823e-28 -3.1751501e-41)
(-5.6859985e-13 1.7567724e-41 -5.06647e-28)
(-8.0371791e-13 6.079764e-28 3.039882e-28)
(-9.1206543e-13 -4.559823e-28 -4.559823e-28)
(-6.860021e-13 -5.06647e-28 3.5999434e-44)
(-9.4335982e-13 0 2.026588e-28)
(-1.0826395e-12 2.533235e-28 0)
(-1.0142101e-12 2.026588e-28 -2.026588e-28)
(-7.551573e-13 -5.06647e-29 -1.7639723e-42)
(-6.6366122e-13 -5.06647e-29 5.06647e-29)
(-4.8626795e-13 0 1.5817981e-42)
(-6.548259e-13 0 4.1805653e-43)
(-4.9085468e-13 1.519941e-28 3.039882e-28)
(-4.8504963e-13 3.546529e-28 3.546529e-28)
(-3.8050908e-13 0 -7.599705e-28)
(-5.7308672e-13 -2.026588e-28 -2.026588e-28)
(-6.5352744e-13 1.0627033e-41 9.119646e-28)
(-6.9723859e-13 -6.7644204e-42 6.7762167e-42)
(-4.5871839e-13 2.533235e-28 2.533235e-28)
(-3.8189603e-13 -2.8799547e-44 5.7599095e-44)
(-7.9358702e-13 -3.5423443e-42 -1.013294e-28)
(-5.5850911e-13 -2.4394166e-56 -4.559823e-28)
(-8.355823e-13 -5.06647e-28 1.7711722e-41)
(-1.0245202e-12 -2.1599661e-44 -1.013294e-28)
(-1.1124791e-12 -1.519941e-28 3.039882e-28)
(-1.0465195e-12 0 1.519941e-28)
(-9.2768768e-13 -5.06647e-29 -5.06647e-29)
(-1.0970439e-12 5.06647e-29 5.06647e-29)
(-9.1551045e-13 5.06647e-29 -5.06647e-29)
(-8.8977883e-13 -2.026588e-28 -2.026588e-28)
(-1.2246784e-12 -2.533235e-28 2.533235e-28)
(-1.0917686e-12 5.06647e-28 8.7478626e-42)
(-9.2187147e-13 2.026588e-28 2.026588e-28)
(-9.7313707e-13 -7.1150148e-42 1.423003e-41)
(-9.4263583e-13 1.013294e-28 1.013294e-28)
(-9.7029828e-13 1.519941e-28 1.519941e-28)
(-1.1171583e-12 0 5.06647e-29)
(-1.2628356e-12 2.026588e-28 -7.0558891e-42)
(-1.3491713e-12 3.039882e-28 -1.0540634e-41)
(-1.4537179e-12 -4.053176e-28 1.4111778e-41)
(-1.2601883e-12 -1.2297407e-41 7.093058e-28)
(-1.3113944e-12 2.026588e-28 2.026588e-28)
(-1.5223629e-12 -2.533235e-28 -2.533235e-28)
(-1.6391117e-12 -1.519941e-28 -3.039882e-28)
(-1.5516624e-12 0 5.06647e-29)
(-1.3055095e-12 -1.013294e-28 1.013294e-28)
(-1.4450367e-12 2.7075682e-42 1.9785872e-55)
(-1.4025071e-12 4.5492262e-43 -9.0984524e-43)
(-1.1452673e-12 -1.013294e-28 2.8799547e-44)
(-1.3989956e-12 -7.8076201e-56 1.5612621e-55)
(-1.3269422e-12 -1.519941e-28 -4.3909498e-56)
(-1.1627191e-12 1.013294e-28 1.013294e-28)
(-1.2642515e-12 -1.013294e-28 -7.0270896e-42)
(-1.0164291e-12 7.0558891e-42 1.4111778e-41)
(-1.0760194e-12 4.0626024e-43 4.0626024e-43)
(-1.0738082e-12 -5.06647e-29 -5.06647e-29)
(-1.097554e-12 5.06647e-29 5.06647e-29)
(-8.1304576e-13 -5.06647e-29 -1.7567724e-42)
(-8.4030764e-13 1.013294e-28 1.013294e-28)
(-7.3507055e-13 0 -2.533235e-28)
(-7.4632958e-13 0 4.3199321e-44)
(-1.0484347e-12 3.039882e-28 3.039882e-28)
(-7.8948829e-13 3.546529e-28 0)
(-8.3804635e-13 -2.026588e-28 -2.026588e-28)
(-8.5250165e-13 -1.519941e-28 -1.0519035e-41)
(-5.8403326e-13 3.039882e-28 6.079764e-28)
(-5.2044687e-13 2.1081269e-41 -3.039882e-28)
(-4.527383e-13 -2.026588e-28 5.7599095e-44)
(-1.8684447e-13 5.06647e-29 5.06647e-29)
(-2.5908301e-13 1.013294e-28 -1.013294e-28)
(-3.6813215e-13 0 1.519941e-28)
(3.2025662e-14 -1.013294e-28 -1.013294e-28)
(-4.3965335e-14 -2.026588e-28 8.4440273e-41)
(-1.9042334e-13 0 4.2162538e-41)
(-1.347105e-13 -5.06647e-29 5.06647e-29)
(-2.2742549e-13 -2.533235e-28 -5.06647e-28)
(-2.4516584e-13 0 0)
(-2.248169e-13 1.013294e-28 -7.0270896e-42)
(-3.3704574e-13 -4.0036352e-56 4.0036352e-56)
(-2.9126299e-13 1.519941e-28 -1.519941e-28)
(-2.1581667e-13 -1.519941e-28 -1.519941e-28)
(-5.1287607e-13 5.06647e-29 3.4919451e-42)
(-3.8584895e-13 -5.06647e-29 -5.06647e-29)
(-4.9513041e-13 -3.499145e-42 5.06647e-29)
(-4.4535579e-13 6.9694905e-42 6.9694905e-42)
(-4.85417e-13 1.5119762e-43 1.5119762e-43)
(-6.0168928e-13 4.053176e-28 5.6159118e-41)
(-3.6704696e-13 -5.06647e-29 -1.013294e-28)
(-2.6864888e-13 7.0270896e-42 -5.06647e-29)
(-7.6877917e-14 -1.4706735e-57 -2.1382118e-44)
(-6.862853e-15 -7.3533677e-58 -7.3533677e-58)
(2.1746318e-13 -1.013294e-28 -6.9838903e-42)
(2.377008e-13 0 2.1066869e-41)
(3.4460364e-13 0 3.499145e-42)
(4.5422822e-13 -2.026588e-28 -2.026588e-28)
(2.6141944e-13 -2.533235e-28 0)
(5.1826022e-13 0 0)
(4.1258094e-13 0 0)
(3.7137107e-13 5.06647e-29 0)
(3.5067055e-13 -1.1324627e-71 -5.8800824e-43)
(3.1970553e-13 1.519941e-28 -3.1686702e-41)
(4.1077635e-13 0 -3.546529e-28)
(3.4011827e-13 -3.039882e-28 -3.039882e-28)
(2.6985202e-13 2.533235e-28 2.533235e-28)
(1.4471788e-13 4.2119338e-41 1.519941e-28)
(9.9899407e-14 2.026588e-28 2.026588e-28)
(9.2817638e-14 -4.559823e-28 3.1557104e-41)
(1.9782424e-13 -1.1570938e-40 -1.1570938e-40)
(5.8903116e-14 -5.0399208e-44 -3.546529e-28)
(-9.5683163e-14 -2.026588e-28 -2.026588e-28)
(-1.8668289e-13 3.039882e-28 3.039882e-28)
(-1.5313576e-13 -5.0399208e-44 0)
(-2.9769271e-13 -2.8050759e-41 2.026588e-28)
(-3.3184751e-13 2.1038069e-41 2.1038069e-41)
(-2.8805977e-13 -2.026588e-28 -2.026588e-28)
(-2.6372307e-13 0 5.06647e-29)
(-1.5723792e-13 -1.013294e-28 -1.4111778e-41)
(-8.6744763e-14 -1.0519035e-41 -1.519941e-28)
(-1.1433044e-13 -2.8122758e-41 2.026588e-28)
(5.4676755e-14 2.4892061e-60 0)
(7.8472967e-15 0 5.06647e-29)
(8.5567352e-14 -1.013294e-28 -1.013294e-28)
(9.7570218e-14 -5.06647e-29 5.06647e-29)
(3.837694e-14 0 0)
(9.2082022e-14 0 0)
(-9.7465519e-14 0 0)
(-1.4550318e-14 1.519941e-28 1.519941e-28)
(-1.1776125e-13 7.0126898e-42 -1.013294e-28)
(1.3764317e-13 -1.519941e-28 -3.039882e-28)
(-8.6088685e-15 0 3.039882e-28)
(-9.1731897e-14 0 -2.1124468e-41)
(-1.2193871e-13 1.519941e-28 1.519941e-28)
(-1.6201472e-13 2.026588e-28 2.026588e-28)
(-2.161961e-13 -2.026588e-28 -4.053176e-28)
(-2.9084483e-13 -2.026588e-28 5.7599095e-44)
(-3.2772698e-13 0 -5.7599095e-44)
(-1.5602161e-13 2.026588e-28 2.026588e-28)
(-3.1972318e-13 2.533235e-28 2.533235e-28)
(-2.4034232e-13 -1.519941e-28 -3.039882e-28)
(-2.0878079e-13 -1.519941e-28 2.1599661e-44)
(-3.3918621e-13 0 -2.1110068e-41)
(-1.8990328e-13 -1.519941e-28 -1.519941e-28)
(1.475675e-14 9.8480053e-41 1.9696011e-40)
(1.8237129e-13 3.5135448e-41 7.0270896e-41)
(1.4638364e-13 -4.559823e-28 -4.559823e-28)
(2.670326e-13 3.546529e-28 3.546529e-28)
(2.097983e-13 1.519941e-28 0)
(1.7014796e-13 0 -1.013294e-28)
(2.150006e-13 1.013294e-28 1.013294e-28)
(5.037442e-13 -2.1124468e-41 1.519941e-28)
(5.8284713e-13 5.06647e-29 -5.06647e-29)
(6.6647953e-13 -1.4054179e-41 0)
(7.2083085e-13 4.053176e-28 2.026588e-28)
(9.068449e-13 -4.053176e-28 -4.053176e-28)
(8.0219172e-13 7.0270896e-41 -5.06647e-28)
(6.9959142e-13 1.5830391e-40 1.5830391e-40)
(9.2215682e-13 2.4544414e-41 7.093058e-28)
(8.638786e-13 1.519941e-28 3.039882e-28)
(8.9055343e-13 5.06647e-29 1.519941e-28)
(1.0485661e-12 -5.06647e-29 -1.013294e-28)
(1.0495478e-12 0 0)
(8.9926112e-13 5.06647e-29 1.013294e-28)
(9.8259155e-13 2.533235e-28 2.533235e-28)
(7.253686e-13 0 -2.533235e-28)
(7.2208491e-13 -2.533235e-28 -2.533235e-28)
(5.4540126e-13 -1.013294e-28 -1.013294e-28)
(6.6649702e-13 1.013294e-28 1.013294e-28)
(8.0560934e-13 2.533235e-28 5.06647e-28)
(6.4128822e-13 -1.519941e-28 -1.519941e-28)
(4.9399319e-13 2.026588e-28 4.053176e-28)
(1.7255987e-13 4.2162538e-41 4.2162538e-41)
(2.6840445e-13 -4.4902447e-43 -8.9804894e-43)
(2.7844281e-13 5.06647e-29 5.06647e-29)
(2.4018458e-13 3.5135448e-42 7.0270896e-42)
(-9.0495325e-14 -5.06647e-29 -5.06647e-29)
(2.3908342e-14 3.546529e-28 7.093058e-28)
(1.7732099e-13 -1.4082979e-41 -2.026588e-28)
(2.5858773e-13 -1.4111778e-41 -2.8223557e-41)
(1.1109377e-13 5.7599095e-44 -2.026588e-28)
(1.9749701e-13 3.499145e-42 5.06647e-29)
(2.1111214e-13 -5.06647e-29 -5.06647e-29)
(2.7469253e-13 0 2.026588e-28)
(3.9332221e-13 0 -1.0569434e-40)
(2.9284168e-13 2.533235e-28 -5.06647e-28)
(4.3335504e-13 2.026588e-28 4.053176e-28)
(3.1682514e-13 0 7.0126898e-42)
(2.174357e-13 0 4.2764235e-44)
(2.1401857e-13 0 0)
(2.3203292e-13 0 0)
(2.2592684e-13 -1.013294e-28 -1.013294e-28)
(2.6987243e-13 -1.3263409e-56 1.9243906e-43)
(6.7018651e-14 -1.013294e-28 -1.013294e-28)
(-4.7582021e-14 2.1599661e-44 5.06647e-29)
(2.9651956e-14 -5.06647e-29 1.4399774e-44)
(-3.6005985e-14 5.06647e-29 5.06647e-29)
(-1.1420644e-13 2.0821414e-54 -1.3730866e-41)
(-8.633464e-14 7.0198897e-42 5.06647e-29)
(-1.9056374e-13 -2.1599661e-44 0)
(-1.2342257e-13 -1.013294e-28 -1.013294e-28)
(-5.7045859e-14 5.06647e-29 5.06647e-29)
(-9.9615414e-14 5.06647e-29 0)
(-2.1116459e-13 4.053176e-28 4.053176e-28)
(-2.0169065e-13 6.079764e-28 2.026588e-28)
(-1.7341718e-13 -5.06647e-29 -1.013294e-28)
(-3.3900476e-13 -2.026588e-28 7.0126898e-42)
(-3.2422865e-13 0 5.6894496e-59)
(-2.2465122e-13 -2.026588e-28 -2.026588e-28)
(-2.261903e-13 -2.533235e-28 -2.533235e-28)
(-1.3536473e-13 1.519941e-28 1.519941e-28)
(-2.741729e-14 -1.4399774e-44 -5.06647e-29)
(-1.6019506e-14 -6.4798982e-44 -1.519941e-28)
(5.7142679e-14 8.6398642e-44 1.7279728e-43)
(2.7812493e-13 2.026588e-28 4.053176e-28)
(2.7240586e-13 5.06647e-29 -5.06647e-29)
(3.6052382e-13 1.81748e-43 1.81748e-43)
(3.8157582e-13 2.026588e-28 1.013294e-28)
(3.5916257e-13 -1.519941e-28 2.1081269e-41)
(6.2250244e-13 9.7576662e-57 -2.026588e-28)
(3.6217511e-13 -5.06647e-29 0)
(3.3047864e-13 5.6159118e-41 0)
(2.1922633e-13 -2.026588e-28 -1.013294e-28)
(2.7928451e-13 0 -1.4068579e-41)
(4.8310663e-13 0 5.6245516e-41)
(7.0953144e-13 -5.06647e-28 3.5207447e-41)
(6.3140405e-13 1.4068579e-40 -2.533235e-28)
(4.7544821e-13 4.053176e-28 2.026588e-28)
(5.9673679e-13 0 -7.1998869e-45)
(2.634165e-13 2.533235e-28 2.533235e-28)
(4.2065163e-13 4.053176e-28 0)
(3.8086392e-13 -3.039882e-28 0)
(6.561529e-13 1.4399774e-44 0)
(7.0942465e-13 -7.0342895e-42 0)
(6.5512793e-13 -1.2893008e-58 0)
(7.7315651e-13 -1.013294e-28 0)
(7.2911858e-13 2.026588e-28 0)
(6.8032569e-13 1.519941e-28 1.519941e-28)
(4.4194116e-13 0 0)
(6.7526957e-13 -3.039882e-28 -3.039882e-28)
(4.4496221e-13 4.2205737e-41 0)
(5.5366509e-13 1.4746435e-43 1.4746435e-43)
(5.7239463e-13 6.079764e-28 -8.4325075e-41)
(6.3860105e-13 -1.6865015e-40 6.079764e-28)
(6.4477389e-13 -6.586411e-28 0)
(9.0760033e-13 -1.2661721e-40 0)
(7.7813208e-13 -8.106352e-28 -4.053176e-28)
(6.9093192e-13 6.079764e-28 -4.2205737e-41)
(6.9413045e-13 2.026588e-28 2.026588e-28)
(6.789097e-13 -1.519941e-28 0)
(7.4661564e-13 -7.1998869e-45 0)
(5.8781576e-13 1.519941e-28 1.519941e-28)
(6.8919962e-13 0 3.546529e-28)
(6.0742491e-13 0 -4.053176e-28)
(5.7678152e-13 -4.053176e-28 -4.053176e-28)
(3.1807654e-13 5.6216717e-41 0)
(3.7515269e-13 9.119646e-28 4.559823e-28)
(2.7702817e-13 -3.5999434e-44 -3.5999434e-44)
(1.9031621e-13 -1.519941e-28 -5.06647e-29)
(9.837093e-14 -8.5528471e-44 -9.1426618e-44)
(2.003106e-13 -1.013294e-28 -1.013294e-28)
(8.8133586e-14 4.053176e-28 2.026588e-28)
(1.2068916e-13 -5.06647e-29 5.06647e-29)
(2.8997013e-13 -1.013294e-28 0)
(2.2577428e-13 2.026588e-28 -1.013294e-28)
(2.230929e-13 -1.013294e-28 -1.013294e-28)
(2.2728628e-13 1.519941e-28 -1.519941e-28)
(3.8839831e-13 2.026588e-28 -2.026588e-28)
(2.439206e-13 5.06647e-29 0)
(2.3895991e-13 1.9515332e-56 -1.013294e-28)
(3.3889014e-13 1.013294e-28 1.013294e-28)
(3.6361209e-13 -1.013294e-28 -1.013294e-28)
(1.5445514e-13 5.06647e-29 -5.06647e-29)
(2.1457028e-13 -5.06647e-29 0)
(3.3342781e-14 1.7775703e-56 0)
(-1.2053192e-14 2.8799547e-44 0)
(6.4552345e-14 2.026588e-28 0)
(3.2801249e-14 -5.06647e-28 0)
(1.5854856e-14 1.519941e-28 0)
(1.7550447e-13 -1.4068579e-41 0)
(1.4945525e-13 4.2162538e-41 0)
(1.1895852e-13 1.013294e-28 1.013294e-28)
(2.3745976e-13 -1.013294e-28 7.806133e-56)
(5.3962015e-14 6.3893195e-41 2.12938e-41)
(3.1658183e-13 -1.4054179e-41 0)
(3.7512224e-13 -2.8108358e-41 0)
(3.7324335e-13 4.2119338e-41 0)
(4.7482206e-13 2.8169552e-41 1.4084776e-41)
(6.8703439e-13 -2.026588e-28 1.4054179e-41)
(5.1034862e-13 -1.4054179e-41 5.06647e-29)
(3.1142457e-13 -2.026588e-28 -1.013294e-28)
(2.1274883e-13 0 4.2205737e-41)
(3.4974119e-13 0 -5.7599095e-44)
(3.6052561e-13 1.519941e-28 -2.1102868e-41)
(3.6504592e-13 -1.7793934e-56 1.2829271e-43)
(4.5105252e-13 -1.519941e-28 -1.519941e-28)
(4.5108637e-13 -5.06647e-29 5.06647e-29)
(3.2899458e-13 -1.519941e-28 8.4454673e-41)
(3.9641407e-13 -2.3299282e-43 7.9630323e-44)
(4.266706e-13 -5.06647e-29 5.06647e-29)
(4.3134928e-13 5.06647e-29 0)
(1.9836542e-13 1.4399774e-44 0)
(3.458866e-13 2.026588e-28 2.026588e-28)
(2.469036e-13 0 4.9240026e-41)
(1.7531575e-13 -6.079764e-28 -3.039882e-28)
(7.3605074e-14 -6.079764e-28 3.039882e-28)
(-1.8765843e-13 1.013294e-28 1.013294e-28)
(-1.9429665e-13 -1.013294e-28 0)
(-1.8088159e-13 -5.06647e-29 5.06647e-29)
(-7.5846438e-14 2.026588e-28 1.013294e-28)
(-1.0545534e-13 -1.013294e-28 5.06647e-29)
(-6.2255759e-14 3.039882e-28 4.2184137e-41)
(7.2842726e-14 3.039882e-28 1.9515332e-56)
(-6.0478935e-14 0 2.1102868e-41)
(-2.0035644e-13 -1.013294e-28 -5.06647e-29)
(-1.8677502e-13 1.013294e-28 1.013294e-28)
(-3.6896999e-13 6.079764e-28 -1.5612266e-55)
(-2.5157811e-13 -2.026588e-28 2.8137158e-41)
(-5.0029151e-13 -1.519941e-28 1.519941e-28)
(-5.6026062e-13 3.5999434e-44 0)
(-6.0708092e-13 -3.5171447e-41 0)
(-4.9145241e-13 -1.519941e-28 -1.519941e-28)
(-8.0448412e-13 -1.519941e-28 2.1599661e-44)
(-6.1583793e-13 -1.013294e-28 -4.2162538e-41)
(-6.3385969e-13 1.013294e-28 1.013294e-28)
(-8.2713413e-13 -4.9189627e-41 0)
(-7.3452223e-13 -3.5999434e-44 0)
(-7.2274918e-13 9.1762799e-55 6.5376977e-42)
(-6.0082362e-13 1.519941e-28 -4.2140938e-41)
(-5.8475669e-13 -2.026588e-28 -2.026588e-28)
(-6.1730624e-13 4.2205737e-41 0)
(-6.7287078e-13 5.7889539e-56 0)
(-5.3191967e-13 2.8122758e-41 0)
(-5.2235168e-13 2.533235e-28 2.533235e-28)
(-5.7434005e-13 -2.533235e-28 -3.5999434e-44)
(-4.6900052e-13 1.4068579e-41 -1.013294e-28)
(-3.8169744e-13 1.4046979e-41 5.06647e-29)
(-3.0278277e-13 1.4399774e-44 -1.013294e-28)
(-2.8158927e-13 1.013294e-28 1.4082979e-41)
(-2.2663151e-13 -1.013294e-28 -2.026588e-28)
(-2.0186338e-13 1.519941e-28 1.519941e-28)
(-2.3341297e-13 4.1979314e-41 8.7467013e-54)
(-3.7343983e-13 2.1102868e-41 -2.1102868e-41)
(-3.1620544e-13 4.053176e-28 2.8137158e-41)
(-4.3875607e-13 2.533235e-28 2.533235e-28)
(-3.4124532e-13 -5.06647e-28 0)
(-1.9963356e-13 -1.013294e-28 0)
(-2.4239227e-13 -5.06647e-29 5.06647e-29)
(-1.7591982e-13 5.06647e-29 -7.0342895e-42)
(-1.6788599e-13 2.8122758e-41 2.8122758e-41)
(-1.2237675e-13 -5.3455294e-44 5.1475576e-72)
(-1.9063412e-13 0 -5.06647e-29)
(-2.7753913e-13 0 1.519941e-28)
(-1.7022444e-13 1.013294e-28 1.013294e-28)
(-3.6800752e-14 0 0)
(-6.5277922e-14 -5.06647e-29 -5.06647e-29)
(5.64808e-14 2.026588e-28 -2.8137158e-41)
(-1.8922137e-14 3.5999434e-44 2.533235e-28)
(9.9402781e-14 -2.8122758e-41 0)
(1.4809133e-13 0 0)
(-1.0720738e-13 -5.06647e-29 -5.06647e-29)
(-1.274911e-13 1.2829271e-43 3.646298e-59)
(-1.2274426e-14 5.06647e-29 -4.8788331e-57)
(-7.2379694e-14 1.7105694e-43 8.5528471e-44)
(-2.4492676e-14 -5.06647e-29 5.06647e-29)
(1.2268473e-14 3.039882e-28 -4.2119338e-41)
(-1.3647581e-13 0 7.0342895e-41)
(-9.8757495e-14 0 -1.2655241e-40)
(8.4723238e-15 -2.026588e-28 -2.026588e-28)
(1.7323492e-13 2.8151558e-41 1.013294e-28)
(3.1190996e-14 2.026588e-28 -5.6274316e-41)
(8.136643e-14 0 9.8530452e-41)
(2.0480717e-13 0 -8.4454673e-41)
(3.1619374e-13 -1.013294e-28 -1.013294e-28)
(3.703903e-13 -5.3454729e-56 -1.2829271e-43)
(3.1891598e-13 -2.5658541e-43 7.1248663e-56)
(4.0681687e-13 0 -2.3798172e-56)
(6.2468625e-13 0 0)
(7.0241728e-13 0 -2.026588e-28)
(5.4687082e-13 0 3.039882e-28)
(5.1775744e-13 0 -4.2205737e-41)
(5.5659386e-13 0 3.5999434e-44)
(8.0454752e-13 0 -7.0342895e-42)
(7.5924176e-13 0 -2.1124468e-41)
(5.9489392e-13 -1.013294e-28 -5.06647e-29)
(4.6645286e-13 2.967175e-55 -5.3455294e-43)
(6.4100114e-13 5.06647e-29 5.06647e-29)
(7.2158397e-13 -1.519941e-28 -1.519941e-28)
(4.456363e-13 5.06647e-29 -5.06647e-29)
(3.6386128e-13 -5.6894163e-42 0)
(5.8697745e-13 -2.1666583e-54 -7.7159246e-42)
(4.8864879e-13 -5.06647e-29 -5.06647e-29)
(5.1660291e-13 1.4068579e-41 0)
(6.9535118e-13 -5.06647e-29 5.06647e-29)
(6.7691149e-13 0 -2.1102868e-41)
(8.3122209e-13 0 1.4399774e-44)
(8.1946467e-13 1.519941e-28 2.1081269e-41)
(8.0829998e-13 2.8137158e-41 -1.013294e-28)
(8.7598293e-13 5.06647e-29 -5.06647e-29)
(9.5009167e-13 0 -1.4054179e-41)
(9.8494697e-13 0 5.6274316e-41)
(8.2684602e-13 0 1.013294e-28)
(7.3799492e-13 0 -1.013294e-28)
(5.2615086e-13 0 2.026588e-28)
(7.107997e-13 0 7.1998869e-45)
(5.8107888e-13 0 -3.5135448e-41)
(6.4250723e-13 -7.093058e-28 -3.546529e-28)
(5.1844779e-13 2.5306162e-40 3.039882e-28)
(4.9512025e-13 3.039882e-28 -2.1102868e-41)
(4.3255318e-13 -1.519941e-28 -1.519941e-28)
(7.4258203e-13 -3.5999434e-44 0)
(8.2707766e-13 -2.026588e-28 0)
(7.3173746e-13 -2.8093959e-41 0)
(8.1988538e-13 2.8122366e-41 1.407298e-41)
(6.16386e-13 1.519941e-28 1.519941e-28)
(5.7738454e-13 1.4636499e-56 5.06647e-29)
(3.9840504e-13 6.079764e-28 2.026588e-28)
(3.9638e-13 0 0)
(2.6038014e-13 -2.026588e-28 -1.013294e-28)
(6.3777898e-13 0 -5.06647e-29)
(4.4271879e-13 0 -1.013294e-28)
(3.9130372e-13 -2.026588e-28 -1.013294e-28)
(3.7001814e-13 0 0)
(3.0096565e-13 0 0)
(3.5676239e-13 5.06647e-29 -5.06647e-29)
(1.9775179e-13 1.013294e-28 1.013294e-28)
(1.6801888e-13 5.06647e-29 -1.4068579e-41)
(8.1955601e-14 -5.06647e-29 5.06647e-29)
(-1.1661157e-13 -2.026588e-28 0)
(-5.8328714e-14 -8.4325075e-41 0)
(-1.9075632e-13 1.013294e-28 0)
(-2.6412555e-13 1.013294e-28 0)
(7.5565253e-14 0 -4.053176e-28)
(6.6008501e-15 7.093058e-28 1.9675851e-40)
(-2.25129e-13 -5.06647e-28 5.06647e-28)
(-1.845951e-13 -6.079764e-28 -3.039882e-28)
(-4.121309e-13 2.533235e-28 -3.5171447e-41)
(-3.9987685e-13 3.039882e-28 4.2248936e-41)
(-3.5362595e-13 2.026588e-28 -1.9515332e-56)
(-5.8855764e-13 -3.8487812e-43 3.8487812e-43)
(-7.0970168e-13 3.039882e-28 1.519941e-28)
(-4.6069664e-13 2.026588e-28 -4.053176e-28)
(-3.6293253e-13 -1.519941e-28 -2.1102868e-41)
(-4.5318855e-13 0 1.4054179e-41)
(-3.2762432e-13 0 0)
(-4.893692e-13 1.2829271e-43 0)
(-2.9591556e-13 -1.013294e-28 1.013294e-28)
(-2.3199817e-13 1.519941e-28 5.06647e-29)
(1.914721e-14 -1.9479968e-56 -1.2239456e-43)
(1.7743961e-13 -2.8122366e-41 -3.9347388e-54)
(1.1896761e-13 -7.2919699e-42 -7.2978681e-42)
(1.7297886e-14 1.4068579e-41 0)
(1.1181814e-13 2.026588e-28 0)
(3.9924435e-14 -4.3199321e-44 -1.519941e-28)
(1.5506661e-13 0 0)
(2.1385592e-13 -5.06647e-29 -5.06647e-29)
(2.8429193e-14 0 0)
(2.1006202e-13 2.8137158e-41 1.013294e-28)
(1.6089853e-13 3.5999434e-44 -3.5999434e-44)
(2.082794e-13 1.519941e-28 4.2205737e-41)
(-5.060003e-14 1.013294e-28 -1.4054179e-41)
(-1.3325364e-13 -1.1254863e-40 4.053176e-28)
(-1.7686284e-13 -6.3243806e-41 -4.559823e-28)
(-3.3874539e-13 -5.7599095e-44 5.7599095e-44)
(-3.0874054e-13 -2.533235e-28 -7.0342895e-41)
(-6.0154918e-14 -3.8487812e-43 3.8487812e-43)
(-2.9993071e-13 9.7576662e-57 -1.013294e-28)
(-1.1740619e-13 5.6274316e-41 -5.6274316e-41)
(-1.5696363e-13 -7.8082856e-56 7.8082856e-56)
(-2.5973011e-13 -4.053176e-28 -2.8137158e-41)
(-2.4192101e-13 -4.2162538e-41 -3.039882e-28)
(-3.8693198e-13 3.546529e-28 3.546529e-28)
(-2.6352054e-13 0 0)
(-3.3032586e-13 0 5.6259916e-41)
(-2.0532355e-13 1.519941e-28 2.1081269e-41)
(-2.9839336e-13 4.2162538e-41 4.2162538e-41)
(-3.0813852e-13 1.013294e-28 -1.4399774e-44)
(-4.2075248e-13 -2.026588e-28 -2.026588e-28)
(-3.3026429e-13 7.0342895e-42 5.06647e-29)
(-5.1162468e-13 -1.9515332e-56 -1.9515332e-56)
(-2.2250541e-13 7.0342895e-42 7.0342895e-42)
(-3.0367666e-13 -1.013294e-28 -2.8137158e-41)
(-3.8238991e-13 5.06647e-29 -7.0342895e-42)
(-4.4866471e-13 -7.0270896e-42 -1.013294e-28)
(-3.5683219e-13 1.519941e-28 1.519941e-28)
(-3.679848e-13 0 1.013294e-28)
(-3.9196346e-13 0 -9.1827594e-55)
(-2.7482514e-13 1.013294e-28 1.4068579e-41)
(-1.5070328e-13 5.06647e-29 -1.013294e-28)
(-2.4024449e-13 -1.2653081e-40 1.519941e-28)
(-3.2546994e-13 -1.519941e-28 1.519941e-28)
(-9.1605629e-14 2.533235e-28 4.8788331e-57)
(-1.0257229e-13 0 0)
(4.2097832e-14 -3.039882e-28 2.0348184e-69)
(-2.1100464e-13 -2.026588e-28 2.026588e-28)
(-8.899351e-14 1.013294e-28 -1.013294e-28)
(-2.1914669e-13 -5.06647e-29 -1.4636499e-56)
(-3.1886315e-13 0 -1.4054179e-41)
(-5.5680099e-16 5.06647e-29 -7.1998869e-45)
(-8.3205524e-14 2.533235e-28 -2.533235e-28)
(2.1996121e-13 -5.06647e-28 5.06647e-28)
(2.9086672e-13 -6.4318923e-42 1.9607114e-54)
(4.1414772e-13 -5.06647e-29 5.06647e-29)
(5.2090043e-13 3.2073177e-44 4.4484836e-57)
(5.8666201e-13 -1.4054179e-41 1.4054179e-41)
(8.3148813e-13 -1.013294e-28 -1.013294e-28)
(7.1515113e-13 5.6274316e-41 -2.026588e-28)
(6.256085e-13 -4.053176e-28 -7.806133e-56)
(7.9651562e-13 0 -2.1110068e-41)
(9.0789685e-13 0 2.8151558e-41)
(6.0889207e-13 0 -1.4061379e-41)
(7.2347951e-13 1.519941e-28 -4.2205737e-41)
(4.766473e-13 4.053176e-28 -9.7576662e-57)
(5.9353594e-13 0 0)
(4.8901919e-13 -1.013294e-28 1.013294e-28)
(4.4422306e-13 -7.0198897e-42 0)
(4.5811613e-13 1.013294e-28 0)
(3.4048419e-13 0 1.519941e-28)
(2.3115344e-13 0 8.4411474e-41)
(3.3340882e-13 1.013294e-28 -1.013294e-28)
(3.5960676e-13 2.8108358e-41 0)
(1.7608993e-14 -5.6159118e-41 0)
(2.4657738e-13 3.546529e-28 7.093058e-28)
(8.2896085e-14 -1.519941e-28 1.2653081e-40)
(1.4618773e-13 -4.2162538e-41 2.026588e-28)
(-3.0584577e-14 -1.013294e-28 -1.013294e-28)
(-3.9124202e-15 0 -7.1998869e-45)
(4.8488263e-14 -5.06647e-29 -7.0342895e-42)
(-1.1780247e-14 -7.0342895e-42 -5.06647e-29)
(-1.7604968e-14 -1.013294e-28 0)
(-6.9642685e-14 5.06647e-29 0)
(2.135792e-14 -5.06647e-29 0)
(-5.3013433e-15 -1.519941e-28 1.519941e-28)
(1.3370157e-13 2.026588e-28 5.6216717e-41)
(-2.0380098e-13 0 -5.06647e-29)
(-4.1447897e-13 1.519941e-28 0)
(-3.0682079e-13 -2.8551114e-41 0)
(-2.8462676e-13 3.546529e-28 3.546529e-28)
(-3.4667889e-13 3.546529e-28 -5.0399208e-44)
(-5.9904549e-13 0 5.3344771e-43)
(-6.7922382e-13 -1.013294e-28 0)
(-5.3778649e-13 -1.519941e-28 0)
(-6.1694362e-13 -2.026588e-28 2.026588e-28)
(-4.6881245e-13 1.6219672e-41 4.5072631e-54)
(-5.6427769e-13 3.0723609e-41 4.3072574e-54)
(-5.9980839e-13 5.6274316e-41 2.8137158e-41)
(-3.9382957e-13 6.079764e-28 2.026588e-28)
(-3.9491474e-13 1.4636499e-56 5.06647e-29)
(-3.2971399e-13 1.519941e-28 -4.2184137e-41)
(-3.7139276e-13 2.026588e-28 2.8122758e-41)
(-6.1462081e-13 -2.8108358e-41 -1.4054179e-41)
(-4.6247217e-13 4.2764235e-43 2.1382118e-43)
(-3.0622555e-13 5.06647e-29 0)
(-2.2413579e-13 5.06647e-29 0)
(-2.8726243e-13 -2.533235e-28 -2.533235e-28)
(-4.812185e-13 -1.519941e-28 -3.6591248e-55)
(-2.7749195e-13 2.026588e-28 1.013294e-28)
(-4.4191894e-13 0 0)
(-2.2961088e-13 0 0)
(-2.5683002e-13 -4.053176e-28 -2.026588e-28)
(-4.0986975e-13 -3.9030665e-56 -7.806133e-56)
(-3.5048872e-13 1.013294e-28 5.06647e-29)
(-3.9362992e-13 0 0)
(-4.4103743e-13 0 0)
(-7.0168085e-13 -5.06647e-28 -2.533235e-28)
(-5.3552297e-13 -3.9030665e-56 -7.806133e-56)
(-7.7885593e-13 4.053176e-28 2.026588e-28)
(-8.0933534e-13 0 0)
(-1.1080165e-12 0 0)
(-1.0697428e-12 -1.013294e-28 -5.06647e-29)
(-1.1008476e-12 1.013294e-28 -1.4399774e-44)
(-1.167168e-12 5.7912538e-41 2.8968065e-41)
(-1.1301624e-12 1.013294e-28 -1.013294e-28)
(-1.0925055e-12 0 2.8151558e-41)
(-7.9173808e-13 -2.026588e-28 -2.8151558e-41)
(-9.3151216e-13 -1.4962219e-54 -7.4811096e-55)
(-7.8847584e-13 3.039882e-28 1.519941e-28)
(-1.1237006e-12 -1.519941e-28 0)
(-9.3189879e-13 0 0)
(-8.5660427e-13 1.013294e-28 0)
(-1.0637181e-12 -1.519941e-28 0)
(-1.4211326e-12 2.1599661e-44 0)
(-1.3620897e-12 5.06647e-29 -5.06647e-29)
(-1.4988681e-12 -1.519941e-28 4.2184137e-41)
(-1.8025995e-12 2.026588e-28 2.026588e-28)
(-1.6961142e-12 3.546529e-28 0)
(-1.6638146e-12 -4.559823e-28 0)
(-1.6101885e-12 -4.053176e-28 0)
(-1.602804e-12 8.4411474e-41 0)
(-1.5750268e-12 1.5136187e-41 0)
(-1.6680596e-12 1.013294e-28 0)
(-1.6010164e-12 4.2205737e-41 0)
(-1.6450598e-12 -1.519941e-28 1.519941e-28)
(-1.7204423e-12 5.06647e-29 -2.8122758e-41)
(-1.7269874e-12 4.9178871e-43 4.9178871e-43)
(-1.5587594e-12 0 0)
(-1.263427e-12 -5.06647e-29 0)
(-1.1713787e-12 -5.06647e-29 0)
(-1.2263952e-12 4.2205737e-41 0)
(-1.0782191e-12 2.533235e-28 0)
(-1.0073224e-12 -1.013294e-28 0)
(-8.3580638e-13 -1.1394681e-58 0)
(-8.835914e-13 -1.4242242e-55 1.4242242e-55)
(-7.9371571e-13 1.519941e-28 -4.2184137e-41)
(-9.5997828e-13 -1.519941e-28 -1.519941e-28)
(-6.7942286e-13 -5.06647e-29 0)
(-7.0931447e-13 5.06647e-29 0)
(-5.335358e-13 -1.013294e-28 -5.06647e-29)
(-4.835679e-13 1.4075779e-40 7.0378894e-41)
(-6.9244596e-13 6.079764e-28 3.039882e-28)
(-6.1751999e-13 -1.013294e-28 0)
(-4.5912542e-13 7.1998869e-45 0)
(-7.3066429e-13 2.026588e-28 0)
(-5.0420724e-13 -2.8799547e-44 1.013294e-28)
(-4.9720475e-13 2.026588e-28 5.6303115e-41)
(-4.5217871e-13 0 -2.026588e-28)
(-1.8920857e-13 -5.06647e-29 0)
(-2.5019784e-13 0 0)
(-2.4976448e-13 -5.06647e-29 0)
(-6.1093621e-13 0 0)
(-2.893212e-13 0 0)
(-5.0080822e-13 0 0)
(-3.7184032e-13 -2.026588e-28 0)
(-2.6591132e-13 -9.7576662e-57 -1.013294e-28)
(-1.377685e-13 -1.519941e-28 -2.1599661e-44)
(-2.6523293e-13 0 -3.039882e-28)
(-2.7238463e-13 -1.519941e-28 0)
(-6.908046e-14 4.2205737e-41 0)
(-3.8733168e-14 2.026588e-28 0)
(1.4046913e-13 0 0)
(1.4421802e-13 0 0)
(1.7675452e-13 0 0)
(1.617226e-13 -1.519941e-28 0)
(2.7790377e-13 2.8137158e-41 -1.013294e-28)
(2.5153746e-13 5.06647e-29 -7.1998869e-45)
(1.7624467e-13 0 5.06647e-29)
(1.6252976e-13 -1.1796295e-44 0)
(2.5002783e-13 -7.0306895e-41 0)
(2.8663132e-13 4.053176e-28 0)
(1.6722431e-13 0 2.026588e-28)
(1.0709108e-13 5.06647e-29 2.8129958e-41)
(-5.3829364e-15 -1.013294e-28 1.013294e-28)
(8.4352774e-14 -2.8151558e-41 0)
(2.0559313e-13 -2.026588e-28 2.026588e-28)
(1.1065649e-13 3.039882e-28 8.4454673e-41)
(1.5364413e-13 0 -4.559823e-28)
(5.3322661e-14 3.546529e-28 0)
(-1.8200868e-13 2.8137158e-41 0)
(-1.7062992e-13 -5.06647e-29 5.06647e-29)
(-1.0615922e-13 0 5.06647e-29)
(1.7093716e-13 0 0)
(2.7715615e-13 1.013294e-28 -1.013294e-28)
(1.8804241e-13 1.1254863e-40 0)
(2.7162282e-13 -1.519941e-28 0)
(2.5842597e-13 1.4064979e-40 0)