/*--------------------------------*- C++ -*----------------------------------*\
  =========                 |
  \\      /  F ield         | OpenFOAM: The Open Source CFD Toolbox
   \\    /   O peration     | Website:  https://openfoam.org
    \\  /    A nd           | Version:  7
     \\/     M anipulation  |
\*---------------------------------------------------------------------------*/
FoamFile
{
    version     2.0;
    format      ascii;
    class       volVectorField;
    location    "0.0014";
    object      U;
}
// * * * * * * * * * * * * * * * * * * * * * * * * * * * * * * * * * * * * * //

dimensions      [0 1 -1 0 0 0 0];

internalField   nonuniform List<vector> 
5000
(
(0.027976398 -3.130211e-18 0)
(0.09720307 -1.0573765e-17 0)
(0.13313289 0 0)
(0.17628528 0 0)
(0.21907625 1.1497409e-17 0)
(0.26183232 -1.5580313e-32 1.3704589e-17)
(0.30462703 -1.5911701e-17 3.3917831e-32)
(0.34745475 0 -5.4350865e-17)
(0.39031911 0 -2.0320045e-17)
(0.43322456 2.2520722e-17 4.5041444e-17)
(0.47617537 4.943743e-17 4.943743e-17)
(0.5191758 -2.6913756e-17 -2.6913756e-17)
(0.56223008 -2.9105579e-17 2.4816909e-31)
(0.60534245 3.1293919e-17 2.7572226e-31)
(0.6485171 0 -6.6957025e-17)
(0.6917582 3.56591e-17 7.13182e-17)
(0.73506991 -1.6739769e-45 -8.3698845e-46)
(0.77845635 -4.000722e-17 3.5249281e-31)
(0.82192163 0 4.2174242e-17)
(0.86546981 -4.4336235e-17 -8.8672469e-17)
(0.90910493 4.6492947e-17 -4.6492947e-17)
(0.95283101 4.8644134e-17 0)
(0.99665201 -1.015791e-16 0)
(1.0405719 5.2928951e-17 5.2928951e-17)
(1.0845945 5.5062101e-17 -4.6948771e-31)
(1.1287238 4.7136669e-31 4.7136669e-31)
(1.1729636 -5.9308704e-17 5.9308704e-17)
(1.2173176 -6.1421694e-17 -6.1421694e-17)
(1.2617896 1.2705502e-16 -6.3527508e-17)
(1.3063833 -1.1377725e-30 6.5625922e-17)
(1.3511024 1.1836443e-30 -1.1836443e-30)
(1.3959505 -6.9799673e-17 5.951478e-31)
(1.4409312 -1.4374916e-16 7.1874581e-17)
(1.4860479 1.4788246e-16 -7.3941232e-17)
(1.5313042 -1.3176204e-30 -7.599942e-17)
(1.5767036 6.7879503e-30 0)
(1.6222492 2.7770658e-30 0)
(1.6679446 -1.6424242e-16 8.212121e-17)
(1.7137929 1.6828714e-16 8.4143568e-17)
(1.7597975 1.7231299e-16 -8.6156495e-17)
(1.8059614 -1.7631961e-16 1.4783349e-30)
(1.8522877 6.2007942e-30 9.0153327e-17)
(1.8987796 1.8427376e-16 -9.2136881e-17)
(1.9454399 -9.41103e-17 1.5914915e-30)
(1.9922718 -2.8822025e-16 9.6073417e-17)
(2.0392779 9.8026072e-17 -9.8026072e-17)
(2.0864613 9.9968107e-17 3.43793e-30)
(2.1338245 6.9797317e-30 -3.4898658e-30)
(2.1813704 2.0763941e-16 3.5703876e-30)
(2.2291015 0 -1.802999e-30)
(2.2770205 -1.0762705e-16 -1.0762705e-16)
(2.3251299 -1.5562842e-32 0)
(2.373432 1.1138901e-16 0)
(2.4219294 -2.2650531e-16 0)
(2.4706243 4.0239065e-30 0)
(2.519519 2.3388928e-16 0)
(2.5686157 -1.1877275e-16 0)
(2.6179166 4.1642172e-30 0)
(2.6674236 1.2239263e-16 0)
(2.7171388 0 0)
(2.7670642 -1.2596339e-16 0)
(2.8172016 -4.3563691e-30 0)
(2.8675528 -3.6801632e-32 0)
(2.9181195 -1.3122571e-16 1.3122571e-16)
(2.9689035 1.3295446e-16 1.3295446e-16)
(3.0199062 -4.7079018e-30 -1.3467038e-16)
(3.0711294 -1.3637341e-16 2.3449591e-30)
(3.1225744 1.3806348e-16 -8.028981e-47)
(3.1742426 1.3974051e-16 -1.3974051e-16)
(3.2261354 -1.4140444e-16 0)
(3.278254 -1.4305521e-16 0)
(3.3305997 1.4469276e-16 1.4469276e-16)
(3.3831736 1.4631705e-16 1.4631705e-16)
(3.4359767 -2.9585602e-16 0)
(3.4890101 -1.495256e-16 -1.495256e-16)
(3.5422747 1.5110978e-16 -5.21818e-30)
(3.5957714 0 1.5268051e-16)
(3.649501 -1.5423775e-16 1.5423775e-16)
(3.7034641 2.2137878e-32 -1.5578147e-16)
(3.7576616 1.5731163e-16 -3.1462326e-16)
(3.8120939 -1.5882821e-16 3.1765641e-16)
(3.8667617 4.556886e-32 -9.113772e-32)
(3.9216655 -4.5992155e-32 -4.8546153e-16)
(3.9768056 -1.6329619e-16 3.2659239e-16)
(4.0321824 -1.6475821e-16 1.7138719e-29)
(4.0877962 -5.7867458e-30 -3.3241309e-16)
(4.1436472 1.6764119e-16 5.0292356e-16)
(4.1997356 0 -1.6906212e-16)
(4.2560615 1.7046934e-16 -1.7046934e-16)
(4.312625 1.7828922e-29 1.7186285e-16)
(4.369426 6.056338e-30 -1.7324264e-16)
(4.4264644 -1.7460871e-16 -1.7460871e-16)
(4.4837401 -1.7596107e-16 -6.1263651e-30)
(4.541253 3.5459942e-16 3.5459942e-16)
(4.5990027 1.2362051e-29 1.2362051e-29)
(4.656989 -1.7993588e-16 1.7993588e-16)
(4.7152114 0 1.8123342e-16)
(4.7736696 0 6.4065049e-30)
(4.8323631 1.8378749e-16 -1.2797709e-29)
(4.8912912 1.2832614e-29 -3.7008807e-16)
(4.9504536 -3.725739e-16 -1.8628695e-16)
(5.0098494 1.8751624e-16 1.8751624e-16)
(5.069478 3.7746388e-16 -2.6820422e-32)
(5.1293386 0 -1.8993406e-16)
(5.1894305 -1.9112262e-16 0)
(5.2497527 -1.9229764e-16 1.9229764e-16)
(5.3103044 1.9345916e-16 6.735589e-30)
(5.3710845 1.9460719e-16 -1.9460719e-16)
(5.4320922 0 1.9574175e-16)
(5.4933263 0 1.9686289e-16)
(5.5547857 -1.9797062e-16 -3.9594124e-16)
(5.6164693 -1.9906497e-16 -1.9906497e-16)
(5.6783758 0 6.0043793e-16)
(5.7405041 2.0121367e-16 2.0121367e-16)
(5.8028528 -7.0710292e-30 -6.068042e-16)
(5.8654206 -2.0330921e-16 2.0330921e-16)
(5.9282061 2.0433713e-16 2.0433713e-16)
(5.9912078 -5.8364509e-32 1.1672902e-31)
(6.0544244 7.2138481e-30 2.0635343e-16)
(6.1178543 -4.5500651e-47 -6.2202562e-16)
(6.1814959 -4.1663445e-16 1.4565e-29)
(6.2453477 8.9221223e-32 4.1855903e-16)
(6.309408 2.1022878e-16 -4.2045756e-16)
(6.3736752 0 -2.1116506e-16)
(6.4381475 2.1208838e-16 2.1208838e-16)
(6.5028232 -2.1299877e-16 -2.1299877e-16)
(6.5677006 -2.1389628e-16 2.1389628e-16)
(6.6327777 4.2956187e-16 4.2956187e-16)
(6.6980527 2.1565277e-16 -2.1565277e-16)
(6.7635238 -4.3302364e-16 -7.4766678e-30)
(6.829189 -2.1735812e-16 -2.1735812e-16)
(6.8950464 2.181917e-16 -4.363834e-16)
(6.9610939 2.190126e-16 2.190126e-16)
(7.0273296 2.1982085e-16 2.1982085e-16)
(7.0937513 0 2.2061649e-16)
(7.160357 -2.2139954e-16 7.7083779e-30)
(7.2271445 -2.2217004e-16 7.703632e-30)
(7.2941118 2.2292803e-16 -7.7615948e-30)
(7.3612565 7.7557647e-30 -4.4734707e-16)
(7.4285766 -2.2440658e-16 -2.2440658e-16)
(7.4960698 2.2512721e-16 2.2512721e-16)
(7.5637337 2.2583545e-16 4.5167089e-16)
(7.6315662 0 2.2653132e-16)
(7.6995648 -2.2721487e-16 2.2721487e-16)
(7.7677273 -2.2788611e-16 -1.5803668e-29)
(7.8360512 2.2854509e-16 -4.5709018e-16)
(7.9045342 -2.2919182e-16 6.5140233e-32)
(7.9731739 1.3064115e-31 -6.5320573e-32)
(8.0419677 2.3044866e-16 2.4710433e-46)
(8.1109132 -2.3105883e-16 -2.3105883e-16)
(8.180008 2.3165686e-16 1.6065165e-29)
(8.2492494 -1.6171805e-29 -3.234361e-29)
(8.318635 -2.3281661e-16 -2.3281661e-16)
(8.3881622 2.3337838e-16 2.3337838e-16)
(8.4578284 -2.3392811e-16 -2.3392811e-16)
(8.527631 -2.3446583e-16 -8.1299821e-30)
(8.5975673 2.3499156e-16 2.3499156e-16)
(8.6676348 0 -2.3550531e-16)
(8.7378307 0 3.3538627e-32)
(8.8081524 2.3649697e-16 2.3649697e-16)
(8.8785972 2.3697493e-16 0)
(8.9491622 -2.3744098e-16 -2.3744098e-16)
(9.0198449 -2.3789516e-16 -1.6463978e-29)
(9.0906424 2.3833748e-16 4.7667496e-16)
(9.1615519 1.6558312e-29 -2.3876795e-16)
(9.2325706 -2.391866e-16 6.798092e-32)
(9.3036958 2.3959342e-16 2.3959342e-16)
(9.3749246 2.3998845e-16 -2.3998845e-16)
(9.4462541 0 2.4037168e-16)
(9.5176814 -2.4074314e-16 -2.4074314e-16)
(9.5892038 -2.4110283e-16 1.0045845e-28)
(9.6608183 0 6.6977448e-29)
(9.7325219 2.4178695e-16 -2.4178695e-16)
(9.8043118 2.421114e-16 4.842228e-16)
(9.876185 0 0)
(9.9481385 -2.4272511e-16 1.6832737e-29)
(10.020169 -5.0558393e-29 5.0558393e-29)
(10.092275 2.4329195e-16 -2.4329195e-16)
(10.164451 -2.4355781e-16 -2.4355781e-16)
(10.236696 -2.4381196e-16 -1.6804166e-29)
(10.309007 2.4405442e-16 2.4405442e-16)
(10.381379 1.6871495e-29 -2.4428517e-16)
(10.453811 -1.6817132e-29 -1.6817132e-29)
(10.526299 -1.0432683e-31 -1.0432683e-31)
(10.59884 -2.4490726e-16 -3.393333e-29)
(10.671431 2.4509123e-16 4.9018246e-16)
(10.744069 3.4017543e-29 -2.452635e-16)
(10.81675 -1.6880399e-29 -2.4542407e-16)
(10.889472 1.6890638e-29 1.6890638e-29)
(10.962232 -2.4571009e-16 -1.693499e-29)
(11.035026 0 5.1110389e-29)
(11.10785 0 -1.6986425e-29)
(11.180703 2.4605126e-16 2.4605126e-16)
(11.253581 2.4614153e-16 0)
(11.32648 0 0)
(11.399397 0 0)
(11.472329 -2.4634186e-16 0)
(11.545273 -7.7542892e-49 2.4638512e-16)
(11.618225 2.4641661e-16 -5.1371268e-29)
(11.691183 0 -2.4643628e-16)
(11.764143 -2.4644391e-16 -2.4644391e-16)
(11.837101 2.4643923e-16 2.4643923e-16)
(11.910055 6.8286534e-29 2.4642244e-16)
(11.983 -4.9278761e-16 -4.9278761e-16)
(12.055934 2.4635329e-16 -1.7049338e-29)
(12.128854 5.1137136e-29 5.1137136e-29)
(12.201755 3.4992325e-32 2.462366e-16)
(12.274636 2.4616039e-16 2.4616039e-16)
(12.347491 -2.4607225e-16 -2.4607225e-16)
(12.420318 3.4954747e-32 0)
(12.493114 3.4030415e-29 -2.4586012e-16)
(12.565874 -1.7006624e-29 -1.7006624e-29)
(12.638596 2.4560006e-16 2.4560006e-16)
(12.711277 0 2.4545201e-16)
(12.783912 -2.4529193e-16 -3.4160918e-29)
(12.856498 -1.6963972e-29 -2.4511979e-16)
(12.929032 -6.7978929e-29 4.8987116e-16)
(13.001511 -2.4473927e-16 -2.4473927e-16)
(13.07393 0 -2.4453085e-16)
(13.146287 2.443103e-16 2.443103e-16)
(13.218577 2.4407758e-16 -2.4407758e-16)
(13.290798 0 0)
(13.362945 0 0)
(13.435016 0 0)
(13.507007 -2.4302476e-16 -2.4302476e-16)
(13.578913 -1.6798648e-29 2.4273096e-16)
(13.650732 2.4242487e-16 4.8484974e-16)
(13.722461 0 -2.4210648e-16)
(13.794094 0 1.6801258e-29)
(13.865629 -2.4143269e-16 -2.4143269e-16)
(13.937063 -2.4107726e-16 -2.4107726e-16)
(14.008391 2.4070943e-16 4.8141887e-16)
(14.07961 2.403292e-16 -6.8305667e-32)
(14.150716 0 6.8194064e-32)
(14.221706 -2.3953141e-16 -2.3953141e-16)
(14.292576 -2.3911382e-16 -2.3911382e-16)
(14.363323 2.3868373e-16 4.7736747e-16)
(14.433942 2.3824113e-16 -3.3856102e-32)
(14.504429 0 4.9538227e-29)
(14.574783 -2.3731832e-16 -2.3731832e-16)
(14.644998 6.5765218e-29 1.3153044e-28)
(14.71507 1.6390298e-29 3.2780596e-29)
(14.784997 -2.3583978e-16 -2.3583978e-16)
(14.854774 2.353217e-16 2.353217e-16)
(14.924399 2.3479099e-16 0)
(14.993866 0 2.3424763e-16)
(15.063172 -2.336916e-16 -2.336916e-16)
(15.132314 3.2399921e-29 -2.3312288e-16)
(15.201288 -2.3254146e-16 2.3254146e-16)
(15.270089 -3.2170619e-29 0)
(15.338715 4.6268099e-16 2.313405e-16)
(15.407161 -2.3072092e-16 -2.3072092e-16)
(15.475424 3.1912817e-29 -2.3008861e-16)
(15.543501 7.9656188e-29 7.9656188e-29)
(15.611386 1.5833543e-29 4.5757147e-16)
(15.679076 2.2811516e-16 4.5623032e-16)
(15.746568 -2.2743182e-16 -6.8229545e-16)
(15.813858 -2.2673571e-16 -4.5347142e-16)
(15.880942 0 0)
(15.947816 2.2530519e-16 4.5061037e-16)
(16.014477 2.2457077e-16 2.2457077e-16)
(16.08092 0 -2.238236e-16)
(16.147142 -2.2306366e-16 -2.2306366e-16)
(16.213139 -2.2229097e-16 -2.2229097e-16)
(16.278907 4.4301106e-16 4.4301106e-16)
(16.344443 2.2070736e-16 4.4141472e-16)
(16.409743 -2.1989647e-16 -2.1989647e-16)
(16.474802 -2.1907287e-16 -4.3814574e-16)
(16.539617 -6.0537928e-29 -6.0537928e-29)
(16.604185 2.1738761e-16 4.3477522e-16)
(16.668501 -2.1652599e-16 -2.1652599e-16)
(16.732562 1.4955227e-29 2.9910453e-29)
(16.796365 2.147649e-16 2.147649e-16)
(16.859904 -2.1386547e-16 -4.2773093e-16)
(16.923177 1.4798368e-29 2.1295349e-16)
(16.98618 -1.4764256e-29 -2.9528511e-29)
(17.048908 5.9995966e-32 -2.1109204e-16)
(17.111359 1.4513449e-29 2.1014263e-16)
(17.173529 -2.0918083e-16 -2.0918083e-16)
(17.235414 0 4.1641335e-16)
(17.29701 0 -8.6458632e-29)
(17.358313 2.0622149e-16 -4.1244297e-16)
(17.419321 2.0521056e-16 4.1042112e-16)
(17.480029 0 1.4131175e-29)
(17.540433 0 -2.0315232e-16)
(17.600531 0 0)
(17.660318 0 0)
(17.719791 -1.9997494e-16 -1.9997494e-16)
(17.778946 -1.3708168e-29 1.9889208e-16)
(17.83778 3.9559496e-16 3.9559496e-16)
(17.89629 -8.3854512e-32 -1.9669122e-16)
(17.954471 -1.9557339e-16 5.55853e-32)
(18.012321 -1.9444406e-16 -1.9444406e-16)
(18.069836 2.6838246e-29 -1.9330334e-16)
(18.127013 2.6623686e-29 1.9215132e-16)
(18.183848 2.714104e-32 0)
(18.240337 1.8981377e-16 1.8981377e-16)
(18.296478 1.8862846e-16 1.8862846e-16)
(18.352268 1.8743227e-16 0)
(18.407703 -3.7245062e-16 -3.7245062e-16)
(18.462779 -5.5502314e-16 -1.8500771e-16)
(18.517494 1.837796e-16 3.675592e-16)
(18.571845 3.6508219e-16 -1.2633096e-29)
(18.625828 0 5.1526381e-32)
(18.679441 -1.8003346e-16 -1.8003346e-16)
(18.73268 -1.787646e-16 -1.787646e-16)
(18.785542 1.7748592e-16 1.7748592e-16)
(18.838025 -5.0078359e-32 -1.7619756e-16)
(18.890126 7.4564218e-32 1.7489968e-16)
(18.941841 -4.9337937e-32 -9.8675875e-32)
(18.993168 -1.7227599e-16 -3.4455199e-16)
(19.044105 -1.7095053e-16 1.7095053e-16)
(19.094648 1.6961621e-16 1.6961621e-16)
(19.144795 3.3654643e-16 1.6827321e-16)
(19.194543 -1.6692173e-16 2.31517e-29)
(19.243891 -6.683277e-47 -1.6556195e-16)
(19.292834 -1.6419405e-16 0)
(19.341372 -4.5118836e-29 0)
(19.389501 3.2286947e-16 1.6143473e-16)
(19.437219 0 -2.2220478e-29)
(19.484525 0 4.403013e-29)
(19.531415 -3.1448008e-16 2.185356e-29)
(19.577889 8.6540562e-29 -1.5582781e-16)
(19.623943 3.088179e-16 1.5440895e-16)
(19.669575 0 -2.174029e-32)
(19.714785 -1.5155227e-16 -1.5155227e-16)
(19.75957 -1.5011493e-16 0)
(19.803928 1.486719e-16 0)
(19.847858 -2.092171e-32 0)
(19.891358 2.0238686e-29 0)
(19.934426 -2.0507859e-32 0)
(19.977062 -1.4284799e-16 0)
(20.019263 1.4138035e-16 0)
(20.061029 1.3990857e-16 1.3990857e-16)
(20.102357 0 0)
(20.143248 -1.369537e-16 -1.369537e-16)
(20.1837 1.8808823e-29 0)
(20.223712 1.3398559e-16 1.3398559e-16)
(20.263282 -2.6499456e-16 3.67542e-29)
(20.302412 3.6340668e-29 -1.3100651e-16)
(20.341099 1.2951359e-16 0)
(20.379342 3.5548271e-29 0)
(20.417143 2.5304486e-16 1.2652243e-16)
(20.454499 -2.5004959e-16 1.7358449e-29)
(20.491411 -1.235262e-16 -1.235262e-16)
(20.527878 1.2202694e-16 0)
(20.563901 1.7127963e-32 0)
(20.599478 1.1902767e-16 1.1902767e-16)
(20.634611 0 1.1752828e-16)
(20.669299 0 -1.1602947e-16)
(20.703543 -1.1453156e-16 -1.1453156e-16)
(20.737342 1.5677703e-29 0)
(20.770697 2.2307938e-16 1.1153969e-16)
(20.803609 -1.5638529e-32 -1.5638529e-32)
(20.836078 -3.256656e-16 -1.085552e-16)
(20.868105 1.0706652e-16 1.0706652e-16)
(20.89969 1.0558065e-16 1.0558065e-16)
(20.930835 -2.0819578e-16 -1.0409789e-16)
(20.96154 1.0261858e-16 -1.0261858e-16)
(20.991807 -1.0114303e-16 0)
(21.021636 -1.9934311e-16 9.9671557e-17)
(21.051029 9.8204481e-17 9.8204481e-17)
(21.079988 9.6742118e-17 -9.6742118e-17)
(21.108513 9.5284782e-17 -9.5284782e-17)
(21.136606 -9.3832789e-17 0)
(21.164268 -1.3972986e-46 9.238645e-17)
(21.191502 9.0946074e-17 9.0946074e-17)
(21.21831 -8.9511971e-17 -8.9511971e-17)
(21.244693 8.8084444e-17 -8.8084444e-17)
(21.270652 -8.6663797e-17 0)
(21.296191 -2.3623861e-29 0)
(21.321311 -2.3829994e-32 0)
(21.346015 -8.2446118e-17 0)
(21.370305 1.6211191e-16 0)
(21.394183 -7.9674141e-17 0)
(21.417652 -2.1742617e-29 0)
(21.440715 2.1341916e-29 0)
(21.463374 7.5581568e-17 7.5581568e-17)
(21.485631 1.4847182e-16 1.0367559e-45)
(21.507491 -2.186999e-16 -7.2899967e-17)
(21.528955 -1.9854331e-29 0)
(21.550026 3.8978693e-29 0)
(21.570709 -1.9107669e-29 0)
(21.591005 1.3531678e-16 6.7658389e-17)
(21.610918 -1.3274954e-16 9.206044e-30)
(21.630451 1.8059118e-29 -6.5102329e-17)
(21.649609 1.2768258e-16 6.3841292e-17)
(21.668393 0 -8.6902591e-30)
(21.686808 0 8.718969e-33)
(21.704857 -6.012874e-17 8.3482774e-30)
(21.722544 8.171448e-30 -5.8915424e-17)
(21.739872 5.7714531e-17 5.7714531e-17)
(21.756845 5.6526244e-17 -5.6526244e-17)
(21.773467 -5.535074e-17 3.075533e-29)
(21.789742 -1.6256456e-16 5.4188186e-17)
(21.805673 5.3038745e-17 -5.3038745e-17)
(21.821264 5.1902569e-17 0)
(21.83652 1.4432488e-32 0)
(21.851445 4.9670588e-17 4.9670588e-17)
(21.866042 0 6.7441624e-30)
(21.880315 -9.498663e-17 -4.7493315e-17)
(21.894269 -9.2850989e-17 4.6425495e-17)
(21.907908 4.5371697e-17 4.5371697e-17)
(21.921236 8.8664036e-17 0)
(21.934256 4.330655e-17 -4.330655e-17)
(21.946975 -8.4590749e-17 -4.2295374e-17)
(21.959395 -8.2597129e-17 4.1298565e-17)
(21.97152 8.0632374e-17 1.1189274e-29)
(21.983357 7.8696599e-17 -1.8527889e-46)
(21.994907 0 5.330757e-30)
(22.006177 -7.4912371e-17 -3.7456185e-17)
(22.017169 3.6532033e-17 3.6532033e-17)
(22.02789 7.1245047e-17 6.958967e-46)
(22.038342 -3.4727672e-17 4.8215918e-30)
(22.04853 -3.384749e-17 3.384749e-17)
(22.058459 4.6870211e-33 0)
(22.068133 -4.4610882e-30 0)
(22.077556 -3.1294942e-17 -3.1294942e-17)
(22.086733 3.0473383e-17 -4.3305281e-33)
(22.095668 2.966643e-17 1.2344018e-29)
(22.104366 -2.8874047e-17 -2.8874047e-17)
(22.11283 3.8968839e-30 0)
(22.121065 3.8842267e-33 0)
(22.129075 3.687127e-30 2.6583863e-17)
(22.136865 2.5849271e-17 -7.166808e-30)
(22.144438 -2.512897e-17 -2.512897e-17)
(22.1518 1.0172624e-29 0)
(22.158954 3.2948042e-30 0)
(22.165904 6.3980917e-30 0)
(22.172655 2.2389077e-17 2.2389077e-17)
(22.179211 -2.1738976e-17 -3.0892943e-33)
(22.185576 2.9298893e-30 -2.1102623e-17)
(22.191753 5.6781312e-30 2.0479906e-17)
(22.197748 2.8237977e-33 -1.987071e-17)
(22.203563 3.8549827e-17 5.3577382e-30)
(22.209203 1.8692391e-17 3.7384782e-17)
(22.214673 -1.8123013e-17 -1.8123013e-17)
(22.219974 -3.5133285e-17 -7.3168606e-30)
(22.225113 2.3634941e-30 -2.3634941e-30)
(22.230092 3.2984742e-17 2.2898016e-30)
(22.234915 1.5974178e-17 1.5974178e-17)
(22.239585 -3.0936832e-17 0)
(22.244108 -1.4974929e-17 0)
(22.248485 1.449356e-17 -1.449356e-17)
(22.252722 1.4024149e-17 -1.9471136e-30)
(22.25682 3.7652287e-30 3.7652287e-30)
(22.260784 -1.3120549e-17 -2.1203062e-47)
(22.264618 0 1.2686025e-17)
(22.268323 0 -1.2262791e-17)
(22.271905 -1.1850676e-17 -1.1850676e-17)
(22.275366 0 0)
(22.27871 1.1059103e-17 1.1059103e-17)
(22.281939 -1.0679292e-17 1.4827134e-30)
(22.285056 -1.465124e-33 -1.0309893e-17)
(22.288066 2.7617048e-30 0)
(22.29097 0 0)
(22.293772 9.2623677e-18 9.2623677e-18)
(22.296474 -8.9328122e-18 -2.5388579e-33)
(22.29908 -8.6127618e-18 -1.5186561e-47)
(22.301592 1.6604069e-17 8.3020346e-18)
(22.304014 8.0004491e-18 -8.0004491e-18)
(22.306346 -7.7078208e-18 1.0679635e-30)
(22.308594 0 -1.0307441e-30)
(22.310758 0 1.9840382e-30)
(22.312842 6.8818617e-18 6.8818617e-18)
(22.314848 -1.8400848e-30 -6.6232457e-18)
(22.316778 -6.3726807e-18 1.7695666e-30)
(22.318634 0 -1.703047e-30)
(22.32042 0 1.6377593e-30)
(22.322137 5.6675097e-18 5.6675097e-18)
(22.323788 -2.2697135e-30 -5.4473701e-18)
(22.325374 -5.2343988e-18 1.4534884e-30)
(22.326898 0 -6.9957561e-31)
(22.328362 0 0)
(22.329767 0 4.6367731e-18)
(22.331117 0 -4.4507628e-18)
(22.332412 0 5.9299624e-31)
(22.333655 0 -5.8229605e-34)
(22.334847 0 5.4564282e-31)
(22.33599 0 -5.2372838e-31)
(22.337085 -7.2245928e-18 -3.6122964e-18)
(22.338136 -1.9215645e-30 3.4618043e-18)
(22.339142 3.3166834e-18 3.3166834e-18)
(22.340106 -3.1767843e-18 -3.1767843e-18)
(22.34103 3.0419584e-18 -3.0419584e-18)
(22.341913 -2.9120598e-18 0)
(22.342759 7.7467172e-31 2.7869466e-18)
(22.343569 2.6664769e-18 2.6664769e-18)
(22.344343 7.0822691e-31 0)
(22.345084 2.4389201e-18 -2.4389201e-18)
(22.345792 0 3.2371452e-31)
(22.346469 0 -3.1666274e-34)
(22.347116 -2.129046e-18 -2.952943e-31)
(22.347734 -5.6469893e-31 2.0336312e-18)
(22.348324 1.941948e-18 -1.941948e-18)
(22.348887 0 -2.5712895e-31)
(22.349425 0 4.9129947e-31)
(22.349938 0 1.6881037e-18)
(22.350428 0 1.610176e-18)
(22.350894 0 -3.0708118e-18)
(22.351339 0 2.0800268e-34)
(22.351764 0 -1.9347244e-31)
(22.352168 -2.6579927e-18 -1.3289964e-18)
(22.352553 1.0537593e-30 1.2658198e-18)
(22.352919 2.4105869e-18 -1.67343e-31)
(22.353268 -1.1473244e-18 -1.1473244e-18)
(22.353601 -1.5515681e-34 0)
(22.353917 -1.0386895e-18 0)
(22.354217 5.4776939e-31 0)
(22.354503 1.8784227e-18 9.3921137e-19)
(22.354775 8.9269577e-19 8.9269577e-19)
(22.355033 2.0931461e-48 -8.4822132e-19)
(22.355278 -2.417136e-18 -8.0571199e-19)
(22.355511 0 0)
(22.355732 1.4525689e-18 7.2628446e-19)
(22.355942 0 6.8922238e-19)
(22.356141 0 -6.5383511e-19)
(22.35633 -1.2401117e-18 -6.2005584e-19)
(22.356509 1.6305841e-31 0)
(22.356679 1.6711849e-18 5.5706164e-19)
(22.35684 -5.2772292e-19 5.2772292e-19)
(22.356992 -4.9974393e-19 -4.9974393e-19)
(22.357136 4.7306698e-19 -1.3136129e-31)
(22.357272 -4.4763635e-19 4.4763635e-19)
(22.357402 4.2339957e-19 0)
(22.357524 1.1104248e-31 0)
(22.357639 -3.7829935e-19 0)
(22.357748 3.5733876e-19 0)
(22.357851 0 -3.3737577e-19)
(22.357948 3.183658e-19 8.8313363e-32)
(22.358039 -3.0026542e-19 3.0026542e-19)
(22.358125 -5.6607125e-19 -2.8303562e-19)
(22.358207 2.6663576e-19 -3.7019723e-32)
(22.358283 2.5102985e-19 3.488867e-32)
(22.358355 2.3618242e-19 -6.9709499e-49)
(22.358423 2.2206028e-19 -2.2206028e-19)
(22.358487 -4.1726405e-19 -2.0863202e-19)
(22.358547 -1.9586677e-19 3.9173353e-19)
(22.358603 1.837391e-19 2.5510346e-32)
(22.358655 0 -2.3886812e-32)
(22.358704 -1.6129148e-19 1.6129148e-19)
(22.35875 1.5092656e-19 0)
(22.358793 1.4110693e-19 -1.4110693e-19)
(22.358834 -3.954444e-19 -1.318148e-19)
(22.358871 -3.4967838e-35 1.2303214e-19)
(22.358906 2.2949351e-19 3.1830278e-32)
(22.358939 -1.0694486e-19 -1.0694486e-19)
(22.358969 -1.3830551e-32 0)
(22.358997 -9.2748049e-20 0)
(22.359024 2.4537901e-35 8.6335065e-20)
(22.359048 1.6073931e-19 -1.1147106e-32)
(22.359071 -7.4843579e-20 -7.4843579e-20)
(22.359092 0 0)
(22.359112 1.8074973e-32 6.5092793e-20)
(22.35913 8.6483766e-36 -8.6483766e-36)
(22.359147 5.7044775e-20 1.5840199e-32)
(22.359164 -5.3666842e-20 7.4434805e-33)
(22.359179 1.4237842e-32 -5.1274259e-20)
(22.359195 7.0438073e-33 5.0785233e-20)
(22.359211 7.2840589e-36 -7.2840589e-36)
(22.359226 5.0554178e-20 1.4037889e-32)
(22.35924 -5.0714487e-20 5.0714487e-20)
(22.359259 4.2501121e-49 -5.5400541e-20)
(22.359282 1.6936267e-32 -1.6936267e-32)
(22.359301 8.7028474e-36 -8.7028474e-36)
(22.359316 1.2033195e-19 8.3534468e-33)
(22.359334 8.9540398e-33 6.4557842e-20)
(22.35936 -7.0046824e-20 -7.0046824e-20)
(22.359384 0 0)
(22.359402 0 3.7116904e-32)
(22.35942 6.9078376e-20 9.5810286e-33)
(22.359446 3.0428322e-32 3.0428322e-32)
(22.359472 -7.2951585e-20 1.0367044e-35)
(22.359492 6.9717741e-20 6.9717741e-20)
(22.35951 -9.659245e-33 -6.9571028e-20)
(22.359533 6.3403101e-49 6.3403101e-49)
(22.359558 9.9643336e-33 9.9643336e-33)
(22.35958 -6.8113721e-20 -1.8913825e-32)
(22.359598 -6.5718968e-20 9.1244248e-33)
(22.359617 -9.1407292e-33 -1.3180771e-19)
(22.359638 6.4993922e-20 6.4993922e-20)
(22.359658 0 6.1642057e-20)
(22.359676 0 8.0266335e-33)
(22.359692 -5.5132738e-20 -7.6546322e-33)
(22.359708 5.2650091e-20 -1.0530018e-19)
(22.359724 -4.1198137e-32 4.9488924e-20)
(22.359739 -4.5611431e-20 4.5611431e-20)
(22.359752 4.1411087e-20 -2.0586144e-49)
(22.359763 0 0)
(22.359772 -3.2431616e-20 -2.2461965e-49)
(22.359782 -2.9280097e-20 2.9280097e-20)
(22.359793 2.7906211e-20 -2.7906211e-20)
(22.359801 2.4562816e-20 -2.9411882e-49)
(22.359807 0 2.9785666e-33)
(22.359819 -2.5547067e-20 3.6304566e-36)
(22.359835 -3.0593988e-20 3.0593988e-20)
(22.359842 5.1212793e-20 -5.1212793e-20)
(22.359844 2.3876197e-20 -6.6299447e-33)
(22.35986 -3.5801531e-20 3.5801531e-20)
(22.359882 -4.3481602e-20 -6.0308087e-33)
(22.359893 -4.9795969e-33 4.9795969e-33)
(22.359898 -3.4584708e-20 -3.4584708e-20)
(22.359918 -1.2676182e-32 4.5650307e-20)
(22.359943 1.026835e-19 8.7670526e-49)
(22.359959 0 1.9302467e-32)
(22.359967 0 -1.2886939e-32)
(22.359985 0 1.5300855e-32)
(22.360008 -5.8852108e-20 1.6342059e-32)
(22.360026 -5.285754e-20 -4.9479957e-49)
(22.360035 0 0)
(22.360048 5.3972359e-20 -5.3972359e-20)
(22.36007 8.1224348e-33 0)
(22.36009 -5.6153744e-20 0)
(22.360106 0 5.0802995e-20)
(22.36012 0 1.4094749e-32)
(22.360138 5.4122216e-20 -5.4122216e-20)
(22.360157 7.6470108e-33 0)
(22.360175 -7.3121402e-33 0)
(22.360189 5.1265762e-20 1.0253152e-19)
(22.360204 -5.258354e-20 4.3774318e-32)
(22.360221 2.216939e-32 -1.0655957e-19)
(22.360238 5.1149616e-20 5.1149616e-20)
(22.360251 0 -6.8350022e-36)
(22.360263 4.7246806e-20 6.559749e-33)
(22.360277 6.5932244e-33 4.7487914e-20)
(22.360292 -4.629147e-20 0)
(22.360306 4.3488289e-20 0)
(22.360318 -4.1009481e-20 0)
(22.360329 -3.9341956e-20 3.9341956e-20)
(22.360341 3.7444913e-20 1.0387065e-32)
(22.360352 0 -3.5138867e-20)
(22.360363 -3.2640319e-20 0)
(22.360373 -3.0068813e-20 0)
(22.360381 2.7372313e-20 2.7372313e-20)
(22.360389 2.4534874e-20 -3.4866153e-36)
(22.360397 0 -2.1521872e-20)
(22.360405 1.9624275e-20 0)
(22.360413 -1.9049171e-20 0)
(22.360417 -1.6602271e-20 1.6602271e-20)
(22.360423 1.6060621e-20 4.45515e-33)
(22.360435 4.3186287e-20 5.9990548e-33)
(22.360445 -1.3055662e-32 -6.5278312e-33)
(22.360449 -5.9396395e-20 -1.9798798e-20)
(22.360456 6.5607554e-49 2.4036598e-20)
(22.360472 3.2304789e-20 -8.9658063e-33)
(22.360484 5.9698592e-20 8.2843136e-33)
(22.360488 -1.3410741e-32 -6.7053705e-33)
(22.360496 -5.9071608e-20 -2.9535804e-20)
(22.360514 3.9235663e-20 0)
(22.360528 -3.8498796e-20 0)
(22.360533 3.0268937e-20 3.0268937e-20)
(22.360537 2.9303569e-20 -8.0583084e-48)
(22.360552 -7.1485355e-20 -3.5742678e-20)
(22.36057 0 0)
(22.360581 0 0)
(22.360586 5.8895009e-20 2.9447505e-20)
(22.360596 -3.2859069e-48 -6.5718139e-48)
(22.360612 -7.6764512e-20 -3.8382256e-20)
(22.360626 0 0)
(22.360635 0 0)
(22.360642 6.2444307e-20 3.1222153e-20)
(22.360654 -1.0871002e-48 -2.1742003e-48)
(22.360667 -6.5580573e-20 -3.2790287e-20)
(22.360677 0 0)
(22.360686 0 0)
(22.360695 6.0440929e-20 3.0220465e-20)
(22.360707 3.1849946e-20 -4.5261495e-36)
(22.360717 -5.6820196e-20 -2.8410098e-20)
(22.360722 -2.4507966e-20 2.4507966e-20)
(22.360727 0 -7.3111193e-33)
(22.360739 6.0314961e-20 8.3784179e-33)
(22.360749 -1.5992632e-32 -7.9963159e-33)
(22.360754 -4.5761177e-20 -2.2880589e-20)
(22.360758 2.1369378e-20 0)
(22.360768 0 0)
(22.36078 -2.6886581e-20 0)
(22.360787 2.2140764e-20 0)
(22.360791 -2.6859929e-36 0)
(22.360798 -2.1582169e-20 2.1582169e-20)
(22.360811 2.4224833e-20 -6.7233116e-33)
(22.36082 -2.1803485e-20 -2.1803485e-20)
(22.360824 -1.9158804e-20 0)
(22.360831 2.1809425e-20 0)
(22.360844 2.5409727e-20 0)
(22.360854 -6.6699727e-33 0)
(22.36086 -2.0890644e-20 0)
(22.360866 2.2404417e-20 0)
(22.360877 7.2129119e-33 0)
(22.360888 -2.5439763e-20 2.5439763e-20)
(22.360895 2.2015597e-20 -1.2220329e-32)
(22.360899 -2.2663894e-20 -2.2663894e-20)
(22.360909 -2.6528094e-20 0)
(22.36092 2.6917824e-20 0)
(22.360926 2.3191147e-20 0)
(22.36093 -6.2064494e-33 0)
(22.360939 -2.5617617e-20 0)
(22.36095 2.6572111e-20 0)
(22.360956 -3.1887915e-36 0)
(22.360959 -2.0360979e-20 2.0360979e-20)
(22.360966 2.4936506e-20 -6.9208279e-33)
(22.360976 -2.9300819e-20 -2.9300819e-20)
(22.360984 -2.604309e-20 0)
(22.360987 1.9082674e-20 0)
(22.360989 3.5585897e-20 1.7792949e-20)
(22.360998 -1.2262092e-32 -6.131046e-33)
(22.361008 -4.8497407e-20 -2.4248703e-20)
(22.361014 2.0368117e-20 0)
(22.361017 -2.324738e-36 0)
(22.361022 -3.4669297e-20 0)
(22.361032 -5.6660062e-36 1.9935487e-20)
(22.36104 1.9384992e-20 5.3855813e-33)
(22.361046 0 -1.6364333e-20)
(22.361051 -1.5713881e-20 0)
(22.361059 0 0)
(22.361067 1.7267149e-20 0)
(22.361073 0 0)
(22.361077 0 0)
(22.361083 0 0)
(22.361092 1.7410145e-20 0)
(22.361098 1.9263869e-49 1.5513099e-20)
(22.361101 -1.3474738e-20 -1.9148755e-36)
(22.361106 0 -1.4917934e-20)
(22.361114 -1.7148489e-20 0)
(22.361121 4.4776644e-33 0)
(22.361125 1.3146243e-20 0)
(22.361129 0 0)
(22.361136 0 0)
(22.361144 0 0)
(22.36115 1.4131591e-20 0)
(22.361155 -3.6537434e-33 1.3158103e-20)
(22.361163 -1.376713e-20 1.9564269e-36)
(22.361171 0 -1.4049958e-20)
(22.361178 -1.3493744e-20 0)
(22.361185 -3.7564376e-33 0)
(22.361193 1.3970267e-20 0)
(22.361202 0 1.3588692e-20)
(22.36121 -1.2929253e-20 -7.1785552e-33)
(22.361218 1.2816668e-20 -1.2816668e-20)
(22.361227 -7.1203935e-33 0)
(22.361233 -1.2675714e-20 1.2675714e-20)
(22.361239 1.2772852e-20 3.5485819e-33)
(22.361245 0 -1.3417666e-20)
(22.361251 1.4439524e-20 0)
(22.361257 4.3061907e-33 0)
(22.361264 -1.6709138e-20 1.6709138e-20)
(22.361272 0 1.791052e-20)
(22.361281 -1.8435227e-20 -1.8435227e-20)
(22.361285 1.8421707e-20 -1.8421707e-20)
(22.361289 1.0714801e-32 0)
(22.361293 -2.0696988e-20 0)
(22.361294 1.1763077e-32 0)
(22.361295 3.1272791e-36 0)
(22.361297 -6.6131727e-33 -2.3803614e-20)
(22.361297 3.3302437e-36 3.3302437e-36)
(22.36129 2.1567609e-20 4.3135218e-20)
(22.361286 0 2.1353498e-20)
(22.361289 -2.1495505e-20 -4.299101e-20)
(22.361288 5.5342662e-33 -3.9881143e-20)
(22.361286 4.8230339e-33 1.7377923e-20)
(22.361289 -1.9029182e-49 1.5253716e-20)
(22.361293 3.3697541e-33 0)
(22.361296 0 0)
(22.3613 1.8341903e-20 0)
(22.361306 2.2828337e-33 0)
(22.361312 -6.5607377e-21 6.5607377e-21)
(22.361319 5.1490107e-21 1.4305095e-33)
(22.361327 -1.2161746e-33 -4.3820114e-21)
(22.361336 -4.1541787e-21 0)
(22.361345 -4.4608339e-21 0)
(22.361354 -1.3891073e-33 0)
(22.361363 1.4679414e-33 0)
(22.36137 -5.6407683e-21 0)
(22.361376 6.2173108e-21 0)
(22.361384 6.3597722e-21 0)
(22.361388 0 0)
(22.361392 6.6113496e-21 0)
(22.361396 -2.049428e-33 0)
(22.361399 -8.3450288e-21 0)
(22.361403 0 0)
(22.361407 0 0)
(22.36141 0 0)
(22.361413 2.1942055e-20 1.0971027e-20)
(22.361417 -1.2715434e-32 -6.3577172e-33)
(22.36142 -2.3261439e-20 -1.163072e-20)
(22.361423 0 0)
(22.361426 0 0)
(22.361427 0 -1.0981068e-20)
(22.361428 0 3.093841e-33)
(22.36143 0 -1.6390063e-36)
(22.36143 0 1.1757069e-20)
(22.36143 0 1.1468346e-20)
(22.36143 2.2254333e-20 6.1780041e-33)
(22.361431 -5.572831e-33 -2.7864155e-33)
(22.36143 -1.8602559e-20 -9.3012794e-21)
(22.36143 -8.5808511e-21 0)
(22.361431 8.3880163e-21 0)
(22.361432 8.5319161e-21 0)
(22.361431 -2.0924496e-33 0)
(22.361429 -3.5992863e-33 0)
(22.361429 -5.930167e-21 5.930167e-21)
(22.361431 5.5947231e-21 -3.1062915e-33)
(22.361432 -4.1810976e-21 -4.1810976e-21)
(22.361434 -2.425186e-21 0)
(22.361436 1.9570744e-21 0)
(22.36144 2.0569611e-21 0)
(22.361446 -1.0143973e-33 0)
(22.36145 -1.688964e-21 0)
(22.361449 -2.1721807e-21 0)
(22.361446 7.6898919e-34 0)
(22.361446 2.8067508e-21 2.8067508e-21)
(22.361448 2.4014619e-21 -1.3329938e-33)
(22.36145 -1.8027132e-21 -1.8027132e-21)
(22.361453 -8.8538872e-22 0)
(22.361455 3.706739e-22 0)
(22.361456 -1.3244078e-21 0)
(22.361458 0 0)
(22.361461 3.6821056e-21 0)
(22.36146 4.0218751e-21 0)
(22.361456 -1.2005351e-33 0)
(22.361449 -5.245177e-21 5.245177e-21)
(22.36145 6.5493764e-21 -5.454033e-33)
(22.361452 -7.2884126e-21 -7.2884126e-21)
(22.36145 -7.0709116e-21 0)
(22.361447 7.0172723e-21 0)
(22.361447 -7.2614604e-21 0)
(22.361448 -2.1798997e-33 0)
(22.361449 7.9715153e-21 0)
(22.361449 6.9453501e-21 0)
(22.361444 7.5790385e-37 0)