/*--------------------------------*- C++ -*----------------------------------*\
  =========                 |
  \\      /  F ield         | OpenFOAM: The Open Source CFD Toolbox
   \\    /   O peration     | Website:  https://openfoam.org
    \\  /    A nd           | Version:  7
     \\/     M anipulation  |
\*---------------------------------------------------------------------------*/
FoamFile
{
    version     2.0;
    format      ascii;
    class       volScalarField;
    location    "0.00265";
    object      T;
}
// * * * * * * * * * * * * * * * * * * * * * * * * * * * * * * * * * * * * * //

dimensions      [0 0 0 1 0 0 0];

internalField   nonuniform List<scalar> 
5000
(
285.40715
285.40715
285.40715
285.40715
285.40715
285.40715
285.40715
285.40715
285.40715
285.40715
285.40715
285.40715
285.40715
285.40715
285.40715
285.40715
285.40715
285.40715
285.40715
285.40715
285.40715
285.40715
285.40715
285.40715
285.40715
285.40715
285.40715
285.40715
285.40715
285.40715
285.40715
285.40715
285.40715
285.40715
285.40715
285.40715
285.40715
285.40715
285.40715
285.40715
285.40715
285.40715
285.40715
285.40715
285.40715
285.40715
285.40715
285.40715
285.40715
285.40715
285.40715
285.40715
285.40715
285.40715
285.40715
285.40715
285.40715
285.40715
285.40715
285.40714
285.40714
285.40714
285.40714
285.40714
285.40714
285.40714
285.40714
285.40714
285.40714
285.40714
285.40714
285.40714
285.40714
285.40714
285.40714
285.40714
285.40714
285.40714
285.40714
285.40714
285.40714
285.40714
285.40714
285.40714
285.40714
285.40714
285.40714
285.40714
285.40714
285.40714
285.40714
285.40714
285.40715
285.40715
285.40715
285.40715
285.40715
285.40716
285.40716
285.40717
285.40718
285.4072
285.40723
285.4073
285.40745
285.40775
285.40824
285.40898
285.41004
285.4115
285.41343
285.41592
285.41909
285.42306
285.42797
285.43396
285.44115
285.44963
285.45944
285.47057
285.48292
285.49633
285.51057
285.52537
285.54043
285.55543
285.57008
285.5841
285.59727
285.60943
285.62046
285.6303
285.63894
285.64642
285.6528
285.65817
285.66264
285.66631
285.66929
285.67169
285.6736
285.67511
285.6763
285.67722
285.67793
285.67848
285.6789
285.67922
285.67946
285.67964
285.67977
285.67988
285.67995
285.68001
285.68005
285.68009
285.68011
285.68013
285.68014
285.68015
285.68016
285.68017
285.68017
285.68018
285.68018
285.68018
285.68019
285.68019
285.68019
285.68019
285.6802
285.6802
285.6802
285.6802
285.6802
285.68021
285.68021
285.68021
285.68021
285.68022
285.68022
285.68022
285.68022
285.68023
285.68023
285.68023
285.68023
285.68023
285.68024
285.68024
285.68024
285.68024
285.68024
285.68025
285.68025
285.68025
285.68025
285.68026
285.68026
285.68026
285.68026
285.68026
285.68027
285.68027
285.68027
285.68027
285.68028
285.68028
285.68028
285.68028
285.68028
285.68029
285.68029
285.68029
285.68029
285.68029
285.6803
285.6803
285.6803
285.6803
285.6803
285.68031
285.68031
285.68031
285.68031
285.68032
285.68032
285.68032
285.68032
285.68032
285.68033
285.68033
285.68033
285.68033
285.68033
285.68034
285.68034
285.68034
285.68034
285.68034
285.68034
285.68035
285.68035
285.68035
285.68035
285.68035
285.68036
285.68036
285.68036
285.68036
285.68036
285.68037
285.68037
285.68037
285.68037
285.68037
285.68038
285.68038
285.68038
285.68038
285.68038
285.68038
285.68039
285.68039
285.68039
285.68039
285.68039
285.6804
285.6804
285.6804
285.6804
285.6804
285.6804
285.68041
285.68041
285.68041
285.68041
285.68041
285.68041
285.68042
285.68042
285.68042
285.68042
285.68042
285.68043
285.68043
285.68043
285.68043
285.68043
285.68043
285.68043
285.68044
285.68044
285.68044
285.68044
285.68044
285.68044
285.68045
285.68045
285.68045
285.68045
285.68045
285.68045
285.68045
285.68046
285.68046
285.68046
285.68046
285.68046
285.68046
285.68046
285.68047
285.68047
285.68047
285.68047
285.68047
285.68047
285.68047
285.68047
285.68048
285.68048
285.68048
285.68048
285.68048
285.68048
285.68048
285.68048
285.68049
285.68049
285.68049
285.68049
285.68049
285.68049
285.68049
285.68049
285.68049
285.6805
285.6805
285.6805
285.6805
285.6805
285.6805
285.6805
285.6805
285.6805
285.68051
285.68051
285.68051
285.68051
285.68051
285.68051
285.68051
285.68051
285.68051
285.68051
285.68051
285.68051
285.68052
285.68052
285.68052
285.68052
285.68052
285.68052
285.68052
285.68052
285.68052
285.68052
285.68052
285.68052
285.68052
285.68052
285.68053
285.68053
285.68053
285.68053
285.68053
285.68053
285.68053
285.68053
285.68053
285.68053
285.68053
285.68053
285.68053
285.68053
285.68053
285.68053
285.68053
285.68053
285.68053
285.68053
285.68053
285.68053
285.68053
285.68053
285.68054
285.68054
285.68054
285.68054
285.68054
285.68054
285.68054
285.68054
285.68054
285.68054
285.68054
285.68054
285.68054
285.68054
285.68054
285.68054
285.68054
285.68054
285.68054
285.68054
285.68054
285.68054
285.68054
285.68054
285.68054
285.68054
285.68054
285.68054
285.68054
285.68054
285.68054
285.68054
285.68054
285.68054
285.68054
285.68054
285.68054
285.68054
285.68054
285.68054
285.68053
285.68053
285.68053
285.68053
285.68053
285.68053
285.68053
285.68053
285.68053
285.68053
285.68053
285.68053
285.68053
285.68053
285.68053
285.68053
285.68053
285.68053
285.68053
285.68053
285.68053
285.68053
285.68053
285.68053
285.68053
285.68053
285.68053
285.68053
285.68053
285.68053
285.68053
285.68053
285.68052
285.68052
285.68052
285.68052
285.68052
285.68052
285.68052
285.68052
285.68052
285.68052
285.68052
285.68052
285.68052
285.68052
285.68052
285.68052
285.68052
285.68052
285.68052
285.68052
285.68052
285.68052
285.68052
285.68052
285.68052
285.68052
285.68052
285.68052
285.68052
285.68051
285.68051
285.68051
285.68051
285.68051
285.68051
285.68051
285.68051
285.68051
285.68051
285.68051
285.68051
285.68051
285.68051
285.68051
285.68051
285.68051
285.68051
285.68051
285.68051
285.68051
285.68051
285.68051
285.68051
285.68051
285.68051
285.68051
285.68051
285.68051
285.68051
285.68051
285.68051
285.68051
285.68051
285.68051
285.68051
285.68051
285.68052
285.68052
285.68052
285.68052
285.68052
285.68052
285.68052
285.68052
285.68052
285.68052
285.68052
285.68052
285.68052
285.68052
285.68052
285.68052
285.68052
285.68052
285.68052
285.68052
285.68052
285.68052
285.68052
285.68052
285.68052
285.68052
285.68052
285.68052
285.68052
285.68052
285.68052
285.68052
285.68052
285.68052
285.68053
285.68053
285.68053
285.68053
285.68053
285.68053
285.68053
285.68053
285.68053
285.68053
285.68053
285.68053
285.68054
285.68054
285.68054
285.68054
285.68054
285.68054
285.68054
285.68054
285.68054
285.68054
285.68054
285.68054
285.68054
285.68054
285.68055
285.68055
285.68055
285.68055
285.68055
285.68055
285.68055
285.68055
285.68055
285.68055
285.68055
285.68055
285.68056
285.68056
285.68056
285.68056
285.68056
285.68056
285.68056
285.68056
285.68056
285.68056
285.68056
285.68056
285.68057
285.68057
285.68057
285.68057
285.68057
285.68057
285.68057
285.68057
285.68057
285.68057
285.68058
285.68058
285.68058
285.68058
285.68058
285.68058
285.68058
285.68058
285.68058
285.68058
285.68058
285.68059
285.68059
285.68059
285.68059
285.68059
285.68059
285.68059
285.68059
285.68059
285.6806
285.6806
285.6806
285.6806
285.6806
285.6806
285.6806
285.6806
285.6806
285.6806
285.68061
285.68061
285.68061
285.68061
285.68061
285.68061
285.68061
285.68061
285.68061
285.68062
285.68062
285.68062
285.68062
285.68062
285.68062
285.68062
285.68062
285.68062
285.68062
285.68063
285.68063
285.68063
285.68063
285.68063
285.68063
285.68063
285.68063
285.68063
285.68064
285.68064
285.68064
285.68064
285.68064
285.68064
285.68064
285.68064
285.68064
285.68064
285.68065
285.68065
285.68065
285.68065
285.68065
285.68065
285.68065
285.68065
285.68065
285.68065
285.68066
285.68066
285.68066
285.68066
285.68066
285.68066
285.68066
285.68066
285.68066
285.68067
285.68067
285.68067
285.68067
285.68067
285.68067
285.68067
285.68067
285.68068
285.68068
285.68068
285.68068
285.68068
285.68068
285.68068
285.68068
285.68068
285.68068
285.68069
285.68069
285.68069
285.68069
285.68069
285.68069
285.68069
285.68069
285.6807
285.6807
285.6807
285.6807
285.6807
285.6807
285.6807
285.6807
285.6807
285.6807
285.68071
285.68071
285.68071
285.68071
285.68071
285.68071
285.68071
285.68071
285.68072
285.68072
285.68072
285.68072
285.68072
285.68072
285.68072
285.68072
285.68072
285.68073
285.68073
285.68073
285.68073
285.68073
285.68073
285.68073
285.68073
285.68073
285.68074
285.68074
285.68074
285.68074
285.68074
285.68074
285.68074
285.68074
285.68074
285.68075
285.68075
285.68075
285.68075
285.68075
285.68075
285.68075
285.68075
285.68075
285.68076
285.68076
285.68076
285.68076
285.68076
285.68076
285.68076
285.68076
285.68077
285.68077
285.68077
285.68077
285.68077
285.68077
285.68077
285.68077
285.68077
285.68078
285.68078
285.68078
285.68078
285.68078
285.68078
285.68078
285.68078
285.68078
285.68079
285.68079
285.68079
285.68079
285.68079
285.68079
285.68079
285.68079
285.6808
285.6808
285.6808
285.6808
285.6808
285.6808
285.6808
285.6808
285.6808
285.68081
285.68081
285.68081
285.68081
285.68081
285.68081
285.68081
285.68081
285.68082
285.68082
285.68082
285.68082
285.68082
285.68082
285.68082
285.68082
285.68083
285.68083
285.68083
285.68083
285.68083
285.68083
285.68083
285.68083
285.68084
285.68084
285.68084
285.68084
285.68084
285.68084
285.68084
285.68084
285.68084
285.68085
285.68085
285.68085
285.68085
285.68085
285.68085
285.68085
285.68085
285.68086
285.68086
285.68086
285.68086
285.68086
285.68086
285.68086
285.68086
285.68086
285.68087
285.68087
285.68087
285.68087
285.68087
285.68087
285.68087
285.68088
285.68088
285.68088
285.68088
285.68088
285.68088
285.68088
285.68088
285.68089
285.68089
285.68089
285.68089
285.68089
285.68089
285.68089
285.68089
285.6809
285.6809
285.6809
285.6809
285.6809
285.6809
285.6809
285.6809
285.68091
285.68091
285.68091
285.68091
285.68091
285.68091
285.68091
285.68091
285.68092
285.68092
285.68092
285.68092
285.68092
285.68092
285.68092
285.68092
285.68093
285.68093
285.68093
285.68093
285.68093
285.68093
285.68093
285.68093
285.68094
285.68094
285.68094
285.68094
285.68094
285.68094
285.68094
285.68094
285.68095
285.68095
285.68095
285.68095
285.68095
285.68095
285.68095
285.68096
285.68096
285.68096
285.68096
285.68096
285.68096
285.68096
285.68096
285.68097
285.68097
285.68097
285.68097
285.68097
285.68097
285.68097
285.68098
285.68098
285.68098
285.68098
285.68098
285.68098
285.68098
285.68098
285.68099
285.68099
285.68099
285.68099
285.68099
285.68099
285.68099
285.68099
285.681
285.681
285.681
285.681
285.681
285.681
285.681
285.68101
285.68101
285.68101
285.68101
285.68101
285.68101
285.68101
285.68101
285.68102
285.68102
285.68102
285.68102
285.68102
285.68102
285.68102
285.68103
285.68103
285.68103
285.68103
285.68103
285.68103
285.68103
285.68104
285.68104
285.68104
285.68104
285.68104
285.68104
285.68104
285.68105
285.68105
285.68105
285.68105
285.68105
285.68105
285.68105
285.68105
285.68106
285.68106
285.68106
285.68106
285.68106
285.68106
285.68106
285.68107
285.68107
285.68107
285.68107
285.68107
285.68107
285.68107
285.68108
285.68108
285.68108
285.68108
285.68108
285.68108
285.68108
285.68109
285.68109
285.68109
285.68109
285.68109
285.68109
285.68109
285.6811
285.6811
285.6811
285.6811
285.6811
285.6811
285.6811
285.68111
285.68111
285.68111
285.68111
285.68111
285.68111
285.68111
285.68112
285.68112
285.68112
285.68112
285.68112
285.68112
285.68112
285.68113
285.68113
285.68113
285.68113
285.68113
285.68113
285.68113
285.68114
285.68114
285.68114
285.68114
285.68114
285.68114
285.68114
285.68115
285.68115
285.68115
285.68115
285.68115
285.68115
285.68115
285.68116
285.68116
285.68116
285.68116
285.68116
285.68116
285.68116
285.68117
285.68117
285.68117
285.68117
285.68117
285.68117
285.68118
285.68118
285.68118
285.68118
285.68118
285.68118
285.68118
285.68119
285.68119
285.68119
285.68119
285.68119
285.68119
285.68119
285.6812
285.6812
285.6812
285.6812
285.6812
285.6812
285.6812
285.68121
285.68121
285.68121
285.68121
285.68121
285.68121
285.68122
285.68122
285.68122
285.68122
285.68122
285.68122
285.68122
285.68123
285.68123
285.68123
285.68123
285.68123
285.68123
285.68124
285.68124
285.68124
285.68124
285.68124
285.68124
285.68125
285.68125
285.68125
285.68125
285.68125
285.68125
285.68125
285.68126
285.68126
285.68126
285.68126
285.68126
285.68126
285.68127
285.68127
285.68127
285.68127
285.68127
285.68127
285.68127
285.68128
285.68128
285.68128
285.68128
285.68128
285.68128
285.68129
285.68129
285.68129
285.68129
285.68129
285.68129
285.6813
285.6813
285.6813
285.6813
285.6813
285.6813
285.6813
285.68131
285.68131
285.68131
285.68131
285.68131
285.68131
285.68132
285.68132
285.68132
285.68132
285.68132
285.68132
285.68133
285.68133
285.68133
285.68133
285.68133
285.68133
285.68134
285.68134
285.68134
285.68134
285.68134
285.68134
285.68135
285.68135
285.68135
285.68135
285.68135
285.68135
285.68136
285.68136
285.68136
285.68136
285.68136
285.68136
285.68137
285.68137
285.68137
285.68137
285.68137
285.68137
285.68138
285.68138
285.68138
285.68138
285.68138
285.68138
285.68139
285.68139
285.68139
285.68139
285.68139
285.68139
285.6814
285.6814
285.6814
285.6814
285.6814
285.6814
285.68141
285.68141
285.68141
285.68141
285.68141
285.68141
285.68142
285.68142
285.68142
285.68142
285.68142
285.68142
285.68143
285.68143
285.68143
285.68143
285.68143
285.68143
285.68144
285.68144
285.68144
285.68144
285.68144
285.68145
285.68145
285.68145
285.68145
285.68145
285.68145
285.68146
285.68146
285.68146
285.68146
285.68146
285.68146
285.68147
285.68147
285.68147
285.68147
285.68147
285.68147
285.68148
285.68148
285.68148
285.68148
285.68148
285.68148
285.68149
285.68149
285.68149
285.68149
285.68149
285.6815
285.6815
285.6815
285.6815
285.6815
285.6815
285.68151
285.68151
285.68151
285.68151
285.68151
285.68151
285.68152
285.68152
285.68152
285.68152
285.68152
285.68153
285.68153
285.68153
285.68153
285.68153
285.68153
285.68154
285.68154
285.68154
285.68154
285.68154
285.68155
285.68155
285.68155
285.68155
285.68155
285.68155
285.68156
285.68156
285.68156
285.68156
285.68156
285.68157
285.68157
285.68157
285.68157
285.68157
285.68157
285.68158
285.68158
285.68158
285.68158
285.68158
285.68158
285.68159
285.68159
285.68159
285.68159
285.68159
285.6816
285.6816
285.6816
285.6816
285.6816
285.68161
285.68161
285.68161
285.68161
285.68161
285.68162
285.68162
285.68162
285.68162
285.68162
285.68162
285.68163
285.68163
285.68163
285.68163
285.68163
285.68164
285.68164
285.68164
285.68164
285.68164
285.68164
285.68165
285.68165
285.68165
285.68165
285.68165
285.68166
285.68166
285.68166
285.68166
285.68166
285.68166
285.68167
285.68167
285.68167
285.68167
285.68167
285.68168
285.68168
285.68168
285.68168
285.68168
285.68168
285.68169
285.68169
285.68169
285.68169
285.68169
285.6817
285.6817
285.6817
285.6817
285.6817
285.68171
285.68171
285.68171
285.68171
285.68171
285.68172
285.68172
285.68172
285.68172
285.68172
285.68173
285.68173
285.68173
285.68173
285.68173
285.68173
285.68174
285.68174
285.68174
285.68174
285.68174
285.68175
285.68175
285.68175
285.68175
285.68175
285.68176
285.68176
285.68176
285.68176
285.68176
285.68176
285.68177
285.68177
285.68177
285.68177
285.68177
285.68178
285.68178
285.68178
285.68178
285.68178
285.68179
285.68179
285.68179
285.68179
285.68179
285.6818
285.6818
285.6818
285.6818
285.6818
285.6818
285.68181
285.68181
285.68181
285.68181
285.68181
285.68182
285.68182
285.68182
285.68182
285.68182
285.68183
285.68183
285.68183
285.68183
285.68183
285.68183
285.68184
285.68184
285.68184
285.68184
285.68184
285.68184
285.68185
285.68185
285.68185
285.68185
285.68185
285.68185
285.68186
285.68186
285.68186
285.68186
285.68186
285.68186
285.68187
285.68187
285.68187
285.68187
285.68187
285.68187
285.68188
285.68188
285.68188
285.68188
285.68188
285.68188
285.68189
285.68189
285.68189
285.68189
285.68189
285.68189
285.68189
285.6819
285.6819
285.6819
285.6819
285.6819
285.6819
285.6819
285.6819
285.6819
285.6819
285.68191
285.68191
285.68191
285.68191
285.68191
285.68191
285.68191
285.68191
285.68191
285.68191
285.68191
285.68191
285.68192
285.68192
285.68192
285.68192
285.68192
285.68192
285.68192
285.68192
285.68192
285.68192
285.68192
285.68192
285.68192
285.68192
285.68192
285.68192
285.68192
285.68192
285.68192
285.68192
285.68192
285.68191
285.68191
285.68191
285.68191
285.68191
285.68191
285.68191
285.68191
285.68191
285.6819
285.6819
285.6819
285.6819
285.6819
285.6819
285.68189
285.68189
285.68189
285.68189
285.68188
285.68188
285.68188
285.68187
285.68187
285.68187
285.68186
285.68186
285.68186
285.68185
285.68185
285.68184
285.68184
285.68183
285.68183
285.68182
285.68182
285.68181
285.6818
285.6818
285.68179
285.68179
285.68178
285.68177
285.68177
285.68176
285.68175
285.68174
285.68174
285.68173
285.68172
285.68171
285.6817
285.68169
285.68168
285.68167
285.68166
285.68165
285.68164
285.68163
285.68162
285.6816
285.68159
285.68158
285.68157
285.68155
285.68154
285.68152
285.68151
285.68149
285.68148
285.68146
285.68145
285.68143
285.68141
285.68139
285.68138
285.68136
285.68134
285.68132
285.6813
285.68128
285.68126
285.68124
285.68121
285.68119
285.68117
285.68114
285.68112
285.68109
285.68107
285.68104
285.68101
285.68099
285.68096
285.68093
285.6809
285.68087
285.68084
285.68081
285.68077
285.68074
285.68071
285.68067
285.68064
285.6806
285.68056
285.68052
285.68049
285.68045
285.68041
285.68037
285.68032
285.68028
285.68024
285.68019
285.68015
285.6801
285.68005
285.68
285.67995
285.6799
285.67985
285.6798
285.67974
285.67969
285.67963
285.67957
285.67952
285.67946
285.6794
285.67933
285.67927
285.67921
285.67914
285.67908
285.67901
285.67894
285.67887
285.6788
285.67872
285.67865
285.67857
285.6785
285.67842
285.67834
285.67826
285.67817
285.67809
285.678
285.67792
285.67783
285.67774
285.67764
285.67755
285.67746
285.67736
285.67726
285.67716
285.67706
285.67696
285.67685
285.67674
285.67664
285.67653
285.67641
285.6763
285.67618
285.67607
285.67595
285.67583
285.6757
285.67558
285.67545
285.67532
285.67519
285.67506
285.67493
285.67479
285.67465
285.67451
285.67437
285.67422
285.67407
285.67393
285.67377
285.67362
285.67346
285.67331
285.67315
285.67298
285.67282
285.67265
285.67248
285.67231
285.67214
285.67196
285.67178
285.6716
285.67142
285.67123
285.67105
285.67086
285.67066
285.67047
285.67027
285.67007
285.66987
285.66966
285.66945
285.66924
285.66903
285.66881
285.66859
285.66837
285.66815
285.66792
285.66769
285.66746
285.66723
285.66699
285.66675
285.66651
285.66626
285.66601
285.66576
285.66551
285.66525
285.66499
285.66473
285.66446
285.6642
285.66393
285.66365
285.66337
285.66309
285.66281
285.66253
285.66224
285.66194
285.66165
285.66135
285.66105
285.66075
285.66044
285.66013
285.65982
285.6595
285.65918
285.65886
285.65854
285.65821
285.65788
285.65755
285.65721
285.65687
285.65653
285.65618
285.65583
285.65548
285.65512
285.65476
285.6544
285.65404
285.65367
285.6533
285.65292
285.65254
285.65216
285.65178
285.65139
285.651
285.65061
285.65021
285.64981
285.64941
285.64901
285.6486
285.64819
285.64777
285.64735
285.64693
285.64651
285.64608
285.64565
285.64522
285.64478
285.64434
285.64389
285.64345
285.643
285.64254
285.64209
285.64163
285.64117
285.6407
285.64024
285.63976
285.63929
285.63881
285.63833
285.63785
285.63736
285.63688
285.63638
285.63589
285.63539
285.63489
285.63439
285.63388
285.63337
285.63286
285.63234
285.63183
285.6313
285.63078
285.63025
285.62972
285.62919
285.62866
285.62812
285.62758
285.62703
285.62649
285.62594
285.62539
285.62483
285.62428
285.62372
285.62316
285.62259
285.62202
285.62145
285.62088
285.62031
285.61973
285.61915
285.61857
285.61798
285.61739
285.6168
285.61621
285.61562
285.61502
285.61442
285.61382
285.61322
285.61261
285.612
285.61139
285.61078
285.61017
285.60955
285.60893
285.60831
285.60769
285.60706
285.60644
285.60581
285.60518
285.60455
285.60391
285.60328
285.60264
285.602
285.60135
285.60071
285.60007
285.59942
285.59877
285.59812
285.59747
285.59681
285.59616
285.5955
285.59484
285.59419
285.59352
285.59286
285.5922
285.59153
285.59087
285.5902
285.58953
285.58886
285.58819
285.58752
285.58684
285.58617
285.58549
285.58481
285.58413
285.58345
285.58277
285.58209
285.58141
285.58073
285.58005
285.57936
285.57868
285.57799
285.5773
285.57662
285.57593
285.57524
285.57455
285.57386
285.57317
285.57248
285.57179
285.57109
285.5704
285.56971
285.56902
285.56832
285.56763
285.56693
285.56624
285.56555
285.56485
285.56416
285.56346
285.56277
285.56207
285.56138
285.56068
285.55999
285.55929
285.5586
285.5579
285.55721
285.55651
285.55582
285.55513
285.55443
285.55374
285.55305
285.55235
285.55166
285.55097
285.55028
285.54959
285.5489
285.54821
285.54752
285.54683
285.54614
285.54545
285.54477
285.54408
285.5434
285.54271
285.54203
285.54134
285.54066
285.53998
285.5393
285.53862
285.53794
285.53727
285.53659
285.53591
285.53524
285.53457
285.53389
285.53322
285.53255
285.53188
285.53122
285.53055
285.52988
285.52922
285.52856
285.5279
285.52724
285.52658
285.52592
285.52526
285.52461
285.52396
285.52331
285.52266
285.52201
285.52136
285.52072
285.52007
285.51943
285.51879
285.51815
285.51751
285.51687
285.51624
285.51561
285.51498
285.51435
285.51372
285.51309
285.51247
285.51185
285.51123
285.51061
285.50999
285.50938
285.50877
285.50816
285.50755
285.50694
285.50634
285.50573
285.50513
285.50453
285.50393
285.50334
285.50275
285.50215
285.50157
285.50098
285.50039
285.49981
285.49923
285.49865
285.49807
285.4975
285.49693
285.49636
285.49579
285.49522
285.49466
285.4941
285.49354
285.49298
285.49242
285.49187
285.49132
285.49077
285.49022
285.48968
285.48914
285.4886
285.48806
285.48753
285.48699
285.48646
285.48594
285.48541
285.48489
285.48437
285.48385
285.48333
285.48281
285.4823
285.48179
285.48129
285.48078
285.48028
285.47978
285.47928
285.47878
285.47829
285.4778
285.47731
285.47682
285.47634
285.47585
285.47538
285.4749
285.47442
285.47395
285.47348
285.47301
285.47255
285.47208
285.47162
285.47116
285.47071
285.47025
285.4698
285.46935
285.4689
285.46846
285.46802
285.46758
285.46714
285.4667
285.46627
285.46584
285.46541
285.46498
285.46456
285.46414
285.46372
285.4633
285.46288
285.46247
285.46206
285.46165
285.46125
285.46084
285.46044
285.46004
285.45965
285.45925
285.45886
285.45847
285.45808
285.45769
285.45731
285.45693
285.45655
285.45617
285.4558
285.45542
285.45505
285.45469
285.45432
285.45395
285.45359
285.45323
285.45287
285.45252
285.45217
285.45181
285.45147
285.45112
285.45077
285.45043
285.45009
285.44975
285.44942
285.44908
285.44875
285.44842
285.44809
285.44777
285.44744
285.44712
285.4468
285.44648
285.44616
285.44585
285.44554
285.44523
285.44492
285.44461
285.44431
285.444
285.4437
285.4434
285.44311
285.44281
285.44252
285.44223
285.44194
285.44166
285.44137
285.44109
285.44081
285.44053
285.44025
285.43997
285.4397
285.43943
285.43916
285.43889
285.43862
285.43836
285.4381
285.43784
285.43758
285.43732
285.43707
285.43681
285.43656
285.43631
285.43606
285.43582
285.43557
285.43533
285.43509
285.43485
285.43461
285.43438
285.43414
285.43391
285.43368
285.43345
285.43322
285.433
285.43278
285.43255
285.43233
285.43211
285.4319
285.43168
285.43147
285.43126
285.43105
285.43084
285.43063
285.43043
285.43022
285.43002
285.42982
285.42962
285.42942
285.42923
285.42903
285.42884
285.42865
285.42846
285.42827
285.42809
285.4279
285.42772
285.42754
285.42736
285.42718
285.427
285.42683
285.42665
285.42648
285.42631
285.42614
285.42597
285.42581
285.42564
285.42548
285.42532
285.42516
285.425
285.42484
285.42469
285.42453
285.42438
285.42423
285.42408
285.42393
285.42378
285.42364
285.42349
285.42335
285.42321
285.42307
285.42293
285.42279
285.42266
285.42252
285.42239
285.42226
285.42213
285.422
285.42187
285.42174
285.42162
285.42149
285.42137
285.42125
285.42113
285.42101
285.4209
285.42078
285.42067
285.42055
285.42044
285.42033
285.42022
285.42011
285.42
285.4199
285.41979
285.41969
285.41959
285.41949
285.41939
285.41929
285.41919
285.41909
285.419
285.41891
285.41881
285.41872
285.41863
285.41854
285.41845
285.41837
285.41828
285.4182
285.41811
285.41803
285.41795
285.41787
285.41779
285.41771
285.41764
285.41756
285.41749
285.41741
285.41734
285.41727
285.4172
285.41713
285.41706
285.41699
285.41693
285.41686
285.41679
285.41673
285.41667
285.41661
285.41654
285.41648
285.41643
285.41637
285.41631
285.41625
285.4162
285.41614
285.41609
285.41604
285.41599
285.41594
285.41589
285.41584
285.41579
285.41574
285.4157
285.41565
285.41561
285.41556
285.41552
285.41548
285.41544
285.4154
285.41536
285.41532
285.41528
285.41524
285.41521
285.41517
285.41513
285.4151
285.41507
285.41503
285.415
285.41497
285.41494
285.41491
285.41488
285.41485
285.41482
285.4148
285.41477
285.41474
285.41472
285.41469
285.41467
285.41465
285.41463
285.4146
285.41458
285.41456
285.41454
285.41452
285.4145
285.41449
285.41447
285.41445
285.41443
285.41442
285.4144
285.41439
285.41437
285.41436
285.41435
285.41433
285.41432
285.41431
285.4143
285.41429
285.41428
285.41427
285.41426
285.41425
285.41424
285.41423
285.41423
285.41422
285.41422
285.41421
285.41421
285.4142
285.4142
285.41419
285.41419
285.41419
285.41419
285.41418
285.41418
285.41418
285.41418
285.41418
285.41418
285.41418
285.41419
285.41419
285.41419
285.41419
285.41419
285.4142
285.4142
285.4142
285.41421
285.41421
285.41422
285.41422
285.41423
285.41423
285.41424
285.41425
285.41425
285.41426
285.41427
285.41428
285.41428
285.41429
285.4143
285.41431
285.41432
285.41433
285.41434
285.41435
285.41436
285.41437
285.41438
285.4144
285.41441
285.41442
285.41443
285.41445
285.41446
285.41448
285.41449
285.41451
285.41452
285.41454
285.41455
285.41457
285.41458
285.4146
285.41462
285.41463
285.41465
285.41467
285.41469
285.4147
285.41472
285.41474
285.41476
285.41478
285.4148
285.41482
285.41484
285.41486
285.41488
285.4149
285.41492
285.41494
285.41496
285.41498
285.41501
285.41503
285.41505
285.41507
285.41509
285.41512
285.41514
285.41516
285.41519
285.41521
285.41524
285.41526
285.41528
285.41531
285.41534
285.41536
285.41539
285.41541
285.41544
285.41547
285.4155
285.41552
285.41555
285.41558
285.41561
285.41564
285.41566
285.41569
285.41572
285.41575
285.41578
285.41581
285.41584
285.41587
285.4159
285.41593
285.41596
285.41599
285.41602
285.41605
285.41609
285.41612
285.41615
285.41618
285.41622
285.41625
285.41629
285.41632
285.41635
285.41639
285.41643
285.41646
285.4165
285.41653
285.41657
285.41661
285.41664
285.41668
285.41672
285.41675
285.41679
285.41683
285.41687
285.41691
285.41695
285.41698
285.41702
285.41706
285.41711
285.41715
285.41719
285.41723
285.41727
285.41731
285.41735
285.4174
285.41744
285.41748
285.41753
285.41757
285.41761
285.41766
285.4177
285.41775
285.41779
285.41784
285.41788
285.41793
285.41798
285.41802
285.41807
285.41812
285.41816
285.41821
285.41826
285.41831
285.41836
285.41841
285.41846
285.4185
285.41855
285.4186
285.41865
285.4187
285.41876
285.41881
285.41886
285.41891
285.41896
285.41902
285.41907
285.41912
285.41918
285.41923
285.41929
285.41934
285.41939
285.41945
285.4195
285.41956
285.41962
285.41967
285.41973
285.41978
285.41984
285.4199
285.41995
285.42001
285.42007
285.42013
285.42018
285.42024
285.4203
285.42036
285.42042
285.42048
285.42054
285.42059
285.42065
285.42071
285.42077
285.42083
285.42089
285.42095
285.42101
285.42107
285.42113
285.42118
285.42124
285.42131
285.42137
285.42143
285.42149
285.42155
285.42162
285.42168
285.42175
285.42182
285.42188
285.42195
285.42203
285.4221
285.42218
285.42225
285.42233
285.42241
285.4225
285.42258
285.42267
285.42276
285.42285
285.42295
285.42304
285.42314
285.42325
285.42335
285.42346
285.42357
285.42368
285.4238
285.42392
285.42404
285.42416
285.42429
285.42442
285.42455
285.42469
285.42482
285.42497
285.42512
285.42527
285.42542
285.42558
285.42574
285.42591
285.42608
285.42625
285.42643
285.42661
285.42679
285.42698
285.42716
285.42734
285.42753
285.42771
285.42789
285.42806
285.42822
285.42838
285.42853
285.42865
285.42877
285.42887
285.42892
285.42897
285.42895
285.42891
285.42881
285.42867
285.42851
285.42832
285.42808
285.42778
285.42742
285.42703
285.42665
285.42629
285.42596
285.42567
285.42543
285.42529
285.4253
285.42555
285.42661
285.42977
285.43799
285.45846
285.50743
285.62422
285.82179
286.08515
286.41876
286.82466
287.30225
287.84831
288.45716
289.12092
289.82993
290.57318
291.33886
292.11491
292.88944
293.65129
294.39034
295.09781
295.76651
296.39088
296.96702
297.49263
297.9669
298.39028
298.76433
299.09145
299.37473
299.61766
299.82402
299.99766
300.14241
300.26194
300.35974
300.43897
300.50254
300.55301
300.59264
300.62339
300.64693
300.66466
300.67778
300.68725
300.69386
300.6983
300.70108
300.70247
300.70279
300.70273
300.70246
300.70179
300.70043
300.69881
300.69708
300.69532
300.69356
300.69183
300.69013
300.68846
300.68684
300.68524
300.68368
300.68215
300.68065
300.67917
300.6777
300.67626
300.67483
300.67341
300.672
300.6706
300.6692
300.66781
300.66642
300.66503
300.66365
300.66226
300.66087
300.65947
300.65808
300.65668
300.65527
300.65386
300.65244
300.65102
300.64959
300.64815
300.64671
300.64526
300.6438
300.64233
300.64085
300.63936
300.63786
300.63635
300.63483
300.6333
300.63177
300.63022
300.62865
300.62708
300.6255
300.6239
300.62229
300.62068
300.61905
300.6174
300.61575
300.61409
300.61241
300.61072
300.60903
300.60732
300.6056
300.60387
300.60212
300.60037
300.59861
300.59684
300.59505
300.59326
300.59146
300.58965
300.58782
300.58599
300.58415
300.5823
300.58045
300.57858
300.57671
300.57482
300.57293
300.57103
300.56912
300.5672
300.56528
300.56335
300.56141
300.55946
300.55751
300.55555
300.55358
300.5516
300.54962
300.54763
300.54564
300.54363
300.54163
300.53961
300.53759
300.53556
300.53353
300.5315
300.52945
300.52741
300.52535
300.5233
300.52123
300.51917
300.5171
300.51502
300.51295
300.51087
300.50878
300.5067
300.50461
300.50251
300.50042
300.49832
300.49623
300.49413
300.49202
300.48992
300.48782
300.48572
300.48361
300.48151
300.4794
300.4773
300.4752