/*--------------------------------*- C++ -*----------------------------------*\
  =========                 |
  \\      /  F ield         | OpenFOAM: The Open Source CFD Toolbox
   \\    /   O peration     | Website:  https://openfoam.org
    \\  /    A nd           | Version:  7
     \\/     M anipulation  |
\*---------------------------------------------------------------------------*/
FoamFile
{
    version     2.0;
    format      ascii;
    class       volScalarField;
    location    "0.00338";
    object      Uz;
}
// * * * * * * * * * * * * * * * * * * * * * * * * * * * * * * * * * * * * * //

dimensions      [0 1 -1 0 0 0 0];

internalField   nonuniform List<scalar> 
5000
(
0
0
0
0
0
-8.2117958e-18
-1.7492306e-32
2.4601905e-17
8.1957789e-18
-1.6382667e-17
-1.6374873e-17
8.1838469e-18
-6.9752414e-32
-7.2050434e-32
1.634943e-17
-1.6343629e-17
-1.0432138e-48
-7.1948617e-32
-8.1630544e-18
1.631979e-17
8.1567065e-18
0
0
-8.146323e-18
6.9429098e-32
-6.7083866e-32
-8.1352457e-18
8.1313721e-18
8.1275285e-18
-8.1235491e-18
1.4192545e-31
-6.9197206e-32
-8.1115057e-18
8.1073558e-18
8.1032564e-18
0
0
-8.0906227e-18
-8.0864218e-18
8.0821189e-18
-1.3545649e-31
-8.0735513e-18
8.0692902e-18
-1.3638546e-31
-8.0606551e-18
8.0562838e-18
-2.7691006e-31
2.7561567e-31
-2.7661124e-31
1.3708769e-31
8.0345933e-18
0
0
0
0
0
0
0
0
0
0
0
0
-7.9777933e-18
-7.9734648e-18
7.9690549e-18
-1.3695454e-31
-1.8912941e-49
7.9559893e-18
0
0
-7.9428491e-18
-7.9385252e-18
0
7.9298007e-18
2.7368291e-31
-7.9210819e-18
-7.9166844e-18
7.9123682e-18
1.5815946e-17
-1.5807317e-17
4.4902124e-33
2.3684856e-17
-1.5781118e-17
-8.2035455e-31
1.5763706e-17
-2.3632616e-17
7.8731445e-18
7.8688287e-18
-7.8644326e-18
7.8601147e-18
7.8557169e-18
2.733589e-31
-1.5693996e-17
-5.4276706e-31
-7.8382772e-18
-7.8339562e-18
-2.7482381e-31
5.448962e-31
1.5641679e-17
7.8165216e-18
-7.8121267e-18
1.1095567e-33
7.8034198e-18
0
-7.7947195e-18
-2.7123557e-31
7.7860262e-18
-7.7817208e-18
-7.7773394e-18
1.5546074e-17
7.7686581e-18
-2.3293073e-17
-7.759981e-18
2.3267046e-17
-7.7513065e-18
-7.747008e-18
-4.4011772e-33
-7.7383342e-18
2.3201877e-17
-5.4043776e-31
-1.5450568e-17
1.5441969e-17
7.7166089e-18
-7.7123094e-18
7.7079342e-18
-7.7036354e-18
-1.5398523e-17
7.6949644e-18
2.6557445e-31
7.6862979e-18
1.5363858e-17
-7.677637e-18
-7.6732711e-18
-7.6689817e-18
-2.668559e-31
-2.6561802e-31
2.6655474e-31
1.5303362e-17
7.6473191e-18
-7.6430318e-18
-1.527734e-17
-7.6343832e-18
-7.6300224e-18
5.2883699e-31
1.5242756e-17
-2.1649083e-33
2.16367e-33
1.8091483e-48
7.6040985e-18
-5.2703946e-31
1.0577923e-30
7.5911798e-18
-7.5868262e-18
7.5825473e-18
2.6277008e-31
-7.5739227e-18
7.5695776e-18
-1.0750947e-33
-7.5609636e-18
0
7.5523531e-18
5.2237888e-31
-1.5087468e-17
7.5394652e-18
-2.1416097e-33
-7.5308406e-18
7.5265011e-18
-7.5222444e-18
7.5179011e-18
-3.130642e-30
-2.0830461e-30
7.5050385e-18
-1.5001359e-17
0
-5.1956603e-31
-1.5578088e-30
7.4834177e-18
7.4791417e-18
5.1518921e-31
-7.470598e-18
7.4661413e-18
5.132346e-31
3.1793815e-33
1.0327087e-30
-1.4898053e-17
7.444759e-18
7.4404311e-18
-5.1146361e-31
5.122221e-31
-1.5442282e-30
5.1268502e-31
-7.4189829e-18
0
0
0
0
-7.3975049e-18
1.5412903e-30
7.3889297e-18
7.3846488e-18
-7.3803559e-18
-7.3760699e-18
1.4743568e-17
5.0988095e-31
-1.5287544e-30
-7.3589152e-18
-7.3546456e-18
7.3503414e-18
0
7.3417757e-18
5.0780689e-31
-7.3332077e-18
-7.3289609e-18
1.020078e-30
7.3204165e-18
-1.4632206e-17
7.3118429e-18
7.3075208e-18
-7.3032771e-18
7.2989662e-18
0
0
0
7.2818609e-18
-7.2776203e-18
-1.4546626e-17
7.2690739e-18
-5.0483659e-31
7.2605311e-18
7.2562275e-18
-1.4503984e-17
2.0599174e-33
-2.0587139e-33
7.2391549e-18
7.2349213e-18
-1.4461242e-17
1.0269315e-33
-1.5045857e-30
7.2178547e-18
-4.0061215e-30
-9.9991816e-31
7.2050234e-18
-7.2007913e-18
0
-7.1922628e-18
7.1879668e-18
7.1837377e-18
-7.1794437e-18
0
-7.1709244e-18
7.166699e-18
7.1624089e-18
-2.4851157e-30
-1.4307795e-17
-1.4299352e-17
2.1436171e-17
1.4282343e-17
0
-1.4265346e-17
-7.1283934e-18
7.1241802e-18
7.1199033e-18
7.1156922e-18
-1.4222834e-17
-1.4214415e-17
7.1029332e-18
1.4197447e-17
1.9679712e-30
-1.4180481e-17
7.085967e-18
-9.8222526e-31
-7.0774854e-18
1.4146555e-17
-7.0690068e-18
9.8388922e-31
7.0605326e-18
-7.0563291e-18
7.0520634e-18
-1.4095724e-17
2.9388056e-30
1.4078798e-17
-1.4070274e-17
-4.865892e-31
7.0266773e-18
0
0
7.0140222e-18
-7.0097631e-18
-1.4011135e-17
7.0013106e-18
-1.9887003e-33
6.9928628e-18
6.988672e-18
-6.9844201e-18
0
-6.9759824e-18
-6.9717961e-18
0
1.3926728e-17
6.959118e-18
-1.3909869e-17
4.8103543e-31
-1.974316e-33
6.9422632e-18
6.9380813e-18
-6.9338385e-18
6.9296577e-18
-6.9254162e-18
3.9342676e-33
1.3833995e-17
-6.9128199e-18
-6.9085829e-18
-6.9044081e-18
-9.5703994e-31
6.8960021e-18
0
0
-6.8833726e-18
9.5510915e-31
-1.9080674e-30
-9.5492004e-31
6.8665829e-18
-6.8624154e-18
9.7460705e-34
6.8540188e-18
0
0
0
0
0
0
0
-6.8204204e-18
0
6.812025e-18
0
-6.8036339e-18
-1.8861285e-30
6.7952473e-18
0
0
-6.7826452e-18
-9.4112521e-31
6.7742669e-18
0
0
-6.7617328e-18
-6.7575172e-18
6.7533608e-18
6.7491471e-18
0
-6.7407811e-18
9.573325e-34
6.7324192e-18
-6.7282683e-18
-6.7240603e-18
6.7199104e-18
6.7157033e-18
0
-6.7073474e-18
-6.7031985e-18
6.6989928e-18
6.6948449e-18
0
-6.6864942e-18
-6.6822919e-18
6.6781475e-18
6.6739474e-18
0
0
0
0
0
0
0
0
-6.6364626e-18
-2.9578314e-48
6.6281326e-18
0
0
0
-6.6114828e-18
-9.164182e-31
6.6031636e-18
-6.5989777e-18
9.1562909e-31
-9.3658981e-34
-9.1447524e-31
6.5823568e-18
-6.5782325e-18
6.5740546e-18
-3.6505469e-30
-6.5657594e-18
6.561642e-18
0
0
-6.5491922e-18
-9.087196e-31
6.5409205e-18
-6.5368148e-18
-6.5326567e-18
0
6.5244006e-18
6.5203025e-18
-6.5161523e-18
-1.8073435e-30
7.3229569e-49
-9.0299102e-31
6.499681e-18
-6.4955961e-18
-2.9222814e-48
-9.0070829e-31
-6.4832512e-18
0
0
6.4709906e-18
9.1899833e-34
-2.6891389e-30
6.4587122e-18
0
0
-6.4465255e-18
1.78619e-30
6.4384063e-18
0
0
0
-6.4222297e-18
9.1207734e-34
6.4141764e-18
-6.4101333e-18
6.4061492e-18
-1.7795609e-30
-1.2796299e-17
6.3941343e-18
2.661638e-30
8.866572e-31
-8.8610996e-31
-6.3782499e-18
0
0
6.3664406e-18
8.8336777e-31
-1.7647501e-30
1.7360982e-49
-6.3507707e-18
6.3468484e-18
6.3429862e-18
0
-6.3352375e-18
-8.7904516e-31
6.3275259e-18
0
0
-6.3160053e-18
1.7940405e-33
1.6834945e-49
-6.3046256e-18
6.3008199e-18
-8.724966e-31
8.7376116e-31
-1.7455956e-30
-6.285816e-18
6.2821223e-18
-1.7433846e-30
1.7432584e-30
-1.7422302e-30
-6.2673897e-18
6.2637191e-18
-1.7383091e-30
8.7042748e-31
0
-6.2492945e-18
6.2457542e-18
-8.6666479e-31
8.8656917e-34
-8.6568697e-31
8.6609088e-31
6.2281699e-18
-6.2247392e-18
-6.2212789e-18
6.2178883e-18
6.2144692e-18
0
-6.2077432e-18
-6.2044379e-18
0
6.1978475e-18
-8.6005337e-31
8.7984385e-34
8.5827884e-31
-6.1849535e-18
6.1817685e-18
8.5696717e-31
-1.7148204e-30
-6.1724657e-18
-6.1693849e-18
1.2332763e-17
-8.7586581e-34
8.5443612e-31
6.1574429e-18
-6.1545573e-18
8.5409596e-31
6.148829e-18
0
0
0
-6.1377484e-18
-6.1350285e-18
6.1323856e-18
6.1297215e-18
0
-6.1245503e-18
-6.122035e-18
6.119506e-18
6.1170627e-18
0
-6.1122264e-18
-6.1098423e-18
6.1075371e-18
1.6952969e-30
-6.1029788e-18
0
0
0
0
6.0921568e-18
-1.6893771e-30
-6.0880933e-18
6.0861416e-18
8.4472841e-31
-8.453326e-31
7.4664724e-50
6.0786334e-18
6.0768244e-18
-1.2150204e-17
-8.4322683e-31
8.4213456e-31
-6.0700561e-18
0
6.0668979e-18
6.0654014e-18
-6.0639012e-18
-1.6817105e-30
6.0610703e-18
0
0
-6.0571317e-18
8.3993261e-31
6.0546412e-18
0
-6.0523281e-18
8.5991826e-34
-1.6799843e-30
-8.389921e-31
6.0480881e-18
-6.0470975e-18
8.5921937e-34
-1.6786843e-30
-6.0445268e-18
6.0435655e-18
1.6779584e-30
8.5861855e-34
-8.3878013e-31
-6.0406665e-18
6.0400243e-18
0
-3.3528116e-30
-8.3747628e-31
-2.5122087e-30
-8.5791926e-34
-6.0365791e-18
6.0360899e-18
5.4502398e-50
-8.3792845e-31
1.6757457e-30
-8.3781938e-31
1.2068119e-17
-6.0337149e-18
-6.0333891e-18
-8.3763354e-31
8.3759303e-31
1.2065037e-17
-6.0322556e-18
-6.0320107e-18
2.0315866e-51
0
1.0352106e-51
-6.0311314e-18
6.0309295e-18
1.6160455e-51
-8.3642479e-31
-8.56967e-34
-6.0301843e-18
1.2060017e-17
1.6743625e-30
-6.029649e-18
8.3627418e-31
-8.3624907e-31
6.0290904e-18
-6.0289001e-18
-3.7031295e-51
-2.5118456e-30
1.6747887e-30
-1.6730136e-30
-1.6738043e-30
4.1489218e-51
0
6.0270356e-18
0
0
-6.0261205e-18
-1.6732398e-30
6.0254247e-18
0
0
-1.2048464e-17
-5.0146367e-30
1.2046651e-17
-6.0228372e-18
8.5582332e-34
-8.3606429e-31
-6.0212097e-18
0
0
0
-6.0186349e-18
-1.6693447e-30
6.0171587e-18
0
0
-6.0146946e-18
8.5461265e-34
6.0128759e-18
0
0
-6.0098702e-18
-1.6668146e-30
-1.6690655e-30
1.6678907e-30
6.0053189e-18
-6.0040806e-18
1.6660044e-30
-1.6656373e-30
1.6644049e-30
5.9986982e-18
0
0
-5.9942047e-18
-1.7377111e-48
5.9909897e-18
0
0
-5.985836e-18
-1.2734721e-48
5.982177e-18
0
0
-5.9763606e-18
-1.4514148e-48
5.9722638e-18
0
0
-5.9657576e-18
8.4746351e-34
5.9611875e-18
-5.9588316e-18
1.6548292e-30
-1.6541491e-30
1.6526114e-30
5.9489552e-18
0
0
0
0
0
-5.932808e-18
1.6457917e-30
5.9270856e-18
0
0
0
0
0
0
0
-5.9026029e-18
3.2746001e-30
5.8961031e-18
0
0
0
0
0
0
0
-5.8687105e-18
1.6277991e-30
5.8615346e-18
0
0
-5.8505454e-18
1.6243771e-30
5.8430737e-18
0
0
0
-5.827797e-18
-1.6180119e-30
5.8200037e-18
0
0
0
0
0
0
0
-5.7878914e-18
8.2192427e-34
5.779648e-18
0
0
0
0
0
0
0
-5.7459233e-18
-8.1593474e-34
5.737326e-18
0
0
0
-5.7199537e-18
3.1733892e-30
5.7111804e-18
0
-5.7023582e-18
-1.5830116e-30
5.6934947e-18
0
0
-5.6801186e-18
-5.6756366e-18
5.6711413e-18
5.6666361e-18
0
0
0
0
5.6439981e-18
-8.0141412e-34
-1.1269786e-17
-5.6303248e-18
1.1251493e-17
1.124232e-17
-5.6165676e-18
-5.6119729e-18
0
0
0
0
-5.588969e-18
-1.5514559e-30
5.579717e-18
0
0
0
0
0
0
0
0
0
0
0
0
0
0
-5.5099274e-18
3.0574076e-30
5.5006231e-18
0
0
5.4867007e-18
-1.5222537e-30
7.7838024e-34
-5.4726721e-18
-5.4679728e-18
-3.0333101e-30
1.5165189e-30
5.4539356e-18
0
0
0
0
0
-5.4261764e-18
3.0101087e-30
5.4167812e-18
0
0
0
0
0
0
0
-5.3798305e-18
2.9836709e-30
5.3706217e-18
0
0
0
0
0
0
0
-5.3334993e-18
4.4377896e-30
5.3245818e-18
0
0
0
0
0
0
0
0
-5.2830304e-18
7.5012137e-34
5.2740476e-18
0
0
0
0
-5.2520574e-18
5.2475952e-18
5.243081e-18
-1.0477028e-17
-1.4533501e-30
5.2292581e-18
0
0
0
0
-5.2064416e-18
1.4437757e-30
1.0395582e-17
-5.1935448e-18
-5.1893185e-18
5.1850861e-18
0
0
0
-5.1677238e-18
-1.4322609e-30
5.1587012e-18
5.1541281e-18
-5.1495364e-18
-5.1449465e-18
5.1403796e-18
0
0
-5.1269887e-18
-5.1226599e-18
5.1183977e-18
5.1141924e-18
5.1100306e-18
2.8356125e-30
-5.1017817e-18
0
0
0
-5.0853429e-18
-5.0812309e-18
5.0771152e-18
5.0729891e-18
5.0688424e-18
1.4056364e-30
-5.0604405e-18
0
0
0
-5.0431464e-18
1.3984521e-30
5.0344138e-18
0
0
0
0
0
0
0
-4.9995193e-18
1.3863605e-30
9.9818767e-18
1.3847058e-30
-4.9824566e-18
0
0
-4.9695472e-18
7.0559183e-34
-1.3775072e-30
1.3755938e-30
4.9521366e-18
4.9479554e-18
-1.3728151e-30
-4.9398661e-18
0
0
-4.9279035e-18
4.1003496e-30
1.3654053e-30
-6.98542e-34
4.9113985e-18
-4.907268e-18
-4.9031694e-18
9.7981866e-18
-2.7157143e-30
-4.890907e-18
4.8867452e-18
0
-4.8782547e-18
-1.3540952e-30
4.8696769e-18
0
-4.861188e-18
4.8569821e-18
-5.3887042e-30
-4.8485701e-18
4.844341e-18
0
-4.8358635e-18
0
4.8274769e-18
0
-4.8192568e-18
4.8151801e-18
-2.6691506e-30
-4.8069383e-18
4.8027164e-18
0
-4.7940869e-18
-1.3300228e-30
4.7855179e-18
0
-4.7773639e-18
4.7734394e-18
-1.3555905e-33
-4.7656717e-18
4.7617279e-18
0
-4.7535739e-18
-4.7493652e-18
4.7450966e-18
4.7407969e-18
-4.7364895e-18
4.7321876e-18
4.7278926e-18
-4.7235992e-18
0
0
0
0
0
0
-4.6937759e-18
-1.9377329e-49
9.3710154e-18
-4.6813659e-18
-4.6771907e-18
4.6729715e-18
0
0
-4.6601362e-18
-4.6558685e-18
4.6516382e-18
4.6474493e-18
0
-4.6391455e-18
-1.2877019e-30
4.6307905e-18
0
0
-4.617942e-18
-4.6136142e-18
4.6093042e-18
4.6050339e-18
0
-4.5966414e-18
1.2752452e-30
4.5883564e-18
-4.5841905e-18
-2.5435387e-30
-6.5024855e-34
-4.5714073e-18
4.5670637e-18
4.5627036e-18
0
0
-4.5496427e-18
1.2614951e-30
4.5409749e-18
0
-4.5323409e-18
-4.5280599e-18
4.5238231e-18
4.5196402e-18
0
0
0
0
0
0
-4.4902408e-18
1.2449857e-30
4.4813992e-18
0
0
0
0
0
0
-4.4519197e-18
-1.9805885e-49
4.4434773e-18
4.4391013e-18
1.2301469e-30
-4.4300822e-18
0
0
0
0
-4.4082218e-18
-1.222349e-30
4.400362e-18
-4.3964205e-18
-4.3923566e-18
4.3881468e-18
-2.4333395e-30
-3.646913e-30
-3.6418991e-30
1.2141627e-30
-2.4246319e-30
1.210519e-30
4.3575875e-18
0
-4.349761e-18
3.6183467e-30
-6.1698506e-34
-4.3373973e-18
4.3330538e-18
4.3286794e-18
-4.3243542e-18
1.1990072e-30
-3.5924407e-30
-2.3942388e-30
-2.390281e-30
1.1940656e-30
-2.3871355e-30
-4.2964045e-18
4.2921067e-18
4.2877202e-18
-4.2833377e-18
1.1869954e-30
-4.7459016e-30
-1.1854195e-30
1.1850392e-30
1.1828897e-30
1.1825815e-30
-4.2576595e-18
0
4.2507029e-18
-1.1787156e-30
-7.1201114e-49
4.2394974e-18
0
-4.2319721e-18
4.2283174e-18
4.2247433e-18
-4.2212191e-18
0
0
0
0
-4.2026739e-18
1.165301e-30
-2.3290128e-30
4.1909425e-18
4.187284e-18
-4.1838245e-18
0
0
0
0
-4.1683394e-18
-5.9190718e-34
4.161871e-18
0
0
0
0
0
0
0
-4.1310721e-18
-4.1273853e-18
4.1238465e-18
4.120422e-18
0
0
0
0
0
0
-4.0950766e-18
-4.0911006e-18
4.0871351e-18
4.0832167e-18
0
0
0
0
0
0
-4.0571798e-18
-4.0535902e-18
4.0499907e-18
4.0463604e-18
0
0
0
0
0
0
-4.0194183e-18
2.2293731e-30
4.0111751e-18
0
0
0
0
0
0
-3.9832276e-18
1.1049315e-30
3.9750206e-18
0
0
0
0
-3.9547954e-18
-5.6146056e-34
3.9471056e-18
-3.9433256e-18
-1.7555013e-49
3.9358755e-18
-3.9321502e-18
2.181645e-30
3.9243935e-18
-3.9202807e-18
-2.1742525e-30
-2.1718656e-30
-3.170743e-48
-2.1666978e-30
-1.0817241e-30
3.8959064e-18
-3.8923483e-18
-3.8887722e-18
7.7702026e-18
-2.1533156e-30
-7.7547641e-18
0
3.8691989e-18
-1.073215e-30
-1.0725482e-30
-3.2100998e-30
-3.2069454e-30
-2.1344594e-30
3.1998781e-30
-2.1305456e-30
1.0656258e-30
3.8321752e-18
0
-3.8251669e-18
-5.4305425e-34
-3.1778987e-30
-3.1749598e-30
5.412765e-34
2.1117521e-30
-1.0551728e-30
-3.7955565e-18
0
3.7873214e-18
-2.1001588e-30
-5.371644e-34
3.7764111e-18
0
-3.7688452e-18
3.7646679e-18
3.7602519e-18
-3.7556799e-18
0
0
-3.7422256e-18
4.1504177e-30
-2.071722e-30
2.0712336e-30
-1.0353885e-30
3.7231041e-18
3.7193304e-18
-3.7154459e-18
0
0
0
0
-3.6944787e-18
-1.0247102e-30
-4.09217e-30
3.6821408e-18
3.6782646e-18
-3.6744745e-18
0
0
0
0
-3.6554914e-18
-3.6515923e-18
3.6476648e-18
3.6437091e-18
0
0
0
0
0
0
-3.6164221e-18
-3.6127659e-18
3.60916e-18
3.6055624e-18
0
0
0
0
0
0
-3.5792745e-18
2.9775319e-30
7.1436067e-18
-3.5681353e-18
-1.0693496e-17
-3.5608759e-18
0
7.1072063e-18
-3.941969e-30
-1.1809536e-29
-3.5424988e-18
-7.0775312e-18
7.0700824e-18
-3.5313393e-18
-3.5276675e-18
3.5240259e-18
-3.520407e-18
4.9976735e-34
3.5131932e-18
3.5095732e-18
-3.5059281e-18
-3.5022507e-18
3.4985389e-18
-3.4947959e-18
-4.9610508e-34
3.4872473e-18
0
0
0
6.9441745e-18
-3.4682906e-18
-6.9289559e-18
3.4606406e-18
-3.4567756e-18
-3.4528893e-18
6.8979918e-18
1.47114e-48
-3.4412568e-18
3.4374387e-18
6.8673256e-18
3.4299236e-18
-1.027862e-17
3.4224915e-18
1.9193853e-47
-1.0244965e-17
6.8223462e-18
3.4073091e-18
3.4034005e-18
6.7989151e-18
-6.7909902e-18
-3.3915293e-18
-3.3875756e-18
3.3836459e-18
3.3797477e-18
-1.0127648e-17
3.3720482e-18
3.3682376e-18
-3.3644428e-18
-3.3606563e-18
-4.7704017e-34
1.0059256e-17
-3.3492934e-18
5.5700596e-30
-5.5656165e-30
-1.0013587e-17
3.3340238e-18
3.3301693e-18
6.6526008e-18
-3.3224229e-18
-6.6370886e-18
6.6293471e-18
-3.3108174e-18
3.3069803e-18
3.3031626e-18
-9.8980862e-18
3.2955747e-18
3.2917961e-18
-6.5760457e-18
-3.2842525e-18
3.2804847e-18
9.8301592e-18
-3.2729592e-18
-1.3076815e-17
1.8125752e-30
6.5234165e-18
3.2579639e-18
0
6.5009282e-18
7.2077432e-30
-9.7287928e-18
3.2391515e-18
-7.1835009e-30
3.2315871e-18
3.2278139e-18
-6.4481055e-18
0
0
0
-3.2091137e-18
1.7796898e-30
6.4033259e-18
-3.1979373e-18
-6.3884297e-18
9.5714971e-18
-1.0613474e-29
-6.3661941e-18
3.1794063e-18
0
0
0
6.3290772e-18
-3.1607837e-18
-6.3140531e-18
9.4598344e-18
-8.9515515e-34
-6.2916778e-18
0
0
-3.1348377e-18
1.7384977e-30
6.255126e-18
-3.1239275e-18
-6.2405678e-18
9.3498742e-18
-5.1828767e-30
-6.218479e-18
3.1055129e-18
-3.1017691e-18
6.1960274e-18
3.0942508e-18
-1.0291838e-29
-3.0867104e-18
-6.165873e-18
9.2374973e-18
-1.7481657e-33
-3.0716631e-18
1.7029407e-30
-3.0642391e-18
-3.0605481e-18
1.696789e-30
9.1594925e-18
-8.6670915e-34
-9.1372673e-18
6.0841077e-18
8.4162956e-48
-6.0693656e-18
3.0310102e-18
-3.0273369e-18
6.0473132e-18
3.0199691e-18
-6.697917e-30
-3.0126011e-18
-6.0178771e-18
-3.0052957e-18
-3.0016689e-18
8.994154e-18
0
-2.9908273e-18
-1.658136e-30
1.6561415e-30
-1.6537299e-30
2.9764738e-18
-3.3003695e-30
2.9693181e-18
-9.8772384e-30
-8.8864357e-18
5.9171376e-18
8.8650327e-18
2.9514754e-18
-8.8438819e-18
-5.888927e-18
8.8229498e-18
-2.9375218e-18
-8.8022444e-18
0
0
2.9239092e-18
2.920544e-18
0
-2.9137328e-18
-2.9102694e-18
5.8135584e-18
-6.4461718e-30
-8.6994158e-18
3.2154009e-30
2.8929547e-18
2.8895751e-18
2.8861968e-18
-2.8827886e-18
-2.8793253e-18
2.8758026e-18
8.6167327e-18
-2.8686941e-18
-1.146079e-17
2.861785e-18
5.7169378e-18
2.8552358e-18
0
-2.8487603e-18
0
-2.8418936e-18
2.8383049e-18
-6.2938488e-30
2.8310896e-18
-9.4171953e-30
-8.472702e-18
2.8209772e-18
2.8177653e-18
-2.8145163e-18
-2.8111855e-18
2.8077613e-18
8.4127636e-18
-2.8006966e-18
-1.1188482e-17
4.6526898e-30
2.7899909e-18
5.5728864e-18
2.7828991e-18
-5.5587096e-18
-1.5407895e-30
-3.9396847e-34
2.7688488e-18
-6.1401755e-30
-2.7621511e-18
8.2765731e-18
-3.0590581e-30
-5.5042441e-18
0
0
-2.7412143e-18
1.5194761e-30
5.4672633e-18
-2.7299056e-18
-5.4525547e-18
-2.7227531e-18
3.018071e-30
8.1476726e-18
2.7124607e-18
-2.7089989e-18
5.4110168e-18
-1.5359082e-33
-8.9879301e-30
-2.6949524e-18
-5.3828321e-18
8.0635776e-18
-2.980711e-30
-5.3612864e-18
0
0
5.3392424e-18
-5.9192844e-30
-2.9549034e-30
-7.5569528e-34
-7.966186e-18
-5.3039237e-18
4.4111889e-30
7.9354094e-18
2.6417161e-18
-2.6382854e-18
5.269682e-18
2.9204769e-30
-8.7512643e-30
-2.6243272e-18
-5.2414781e-18
7.8513508e-18
-2.6134783e-18
-2.6098437e-18
2.6062326e-18
-2.6026614e-18
5.1982833e-18
-2.8815946e-30
-2.5922522e-18
-3.6789794e-34
-5.1709091e-18
5.1640967e-18
-4.293265e-30
-5.1503645e-18
2.5717247e-18
0
-2.5647874e-18
-1.4213576e-30
7.6734589e-18
-2.5543118e-18
-5.1015736e-18
-2.5472535e-18
-2.5437259e-18
2.5402172e-18
2.536734e-18
2.5332744e-18
-2.5298314e-18
1.4023435e-30
-1.4000854e-30
2.519568e-18
-2.7940511e-30
2.5127909e-18
-8.3574602e-30
-7.5179931e-18
5.0051189e-18
1.3305737e-48
-2.4955995e-18
-2.766266e-30
1.3817362e-30
7.4555727e-18
-2.48177e-18
-7.4350943e-18
0
0
2.4681549e-18
2.4647499e-18
4.9227061e-18
-2.4579702e-18
-4.9092058e-18
4.9024951e-18
-2.4478963e-18
-7.3336165e-18
2.4411653e-18
2.4377693e-18
2.4343525e-18
2.4309258e-18
-4.8550176e-18
-2.4241224e-18
2.420779e-18
7.2524241e-18
-2.4141891e-18
-1.7049225e-47
-4.0084603e-30
-4.8083947e-18
4.8016113e-18
4.7948407e-18
-2.3940753e-18
-4.7815873e-18
4.7751491e-18
2.3843869e-18
-7.1435637e-18
-7.1338483e-18
2.3746623e-18
4.7426745e-18
2.3680033e-18
-1.3125859e-30
-4.7228905e-18
-2.3582655e-18
2.3551494e-18
4.7041344e-18
-3.3380988e-34
-4.6916972e-18
4.6853179e-18
-3.8963139e-30
-4.6722444e-18
2.33284e-18
4.6592037e-18
4.6528598e-18
0
-2.3202628e-18
-6.9516397e-18
-2.3141425e-18
2.3110407e-18
0
0
0
0
-2.2955133e-18
1.2724859e-30
6.868108e-18
-2.2862332e-18
-6.8490997e-18
-2.2797809e-18
3.7915522e-30
4.5465086e-18
2.2700477e-18
-2.2668962e-18
4.5275757e-18
2.2607009e-18
-7.5195349e-30
-2.254528e-18
-4.5028724e-18
6.7450358e-18
-6.3814037e-34
-2.2421677e-18
3.181901e-34
-2.2359235e-18
-2.2327296e-18
2.4750599e-30
6.678553e-18
-6.3177926e-34
-6.6587493e-18
-4.4326532e-18
1.2278147e-30
4.4198367e-18
2.2067361e-18
-2.2035462e-18
4.4006825e-18
2.1971227e-18
-7.3060555e-30
-2.1906719e-18
-4.3748923e-18
6.5526395e-18
-2.4218179e-30
-2.1776782e-18
-2.1743602e-18
-2.171012e-18
-1.2025927e-30
1.2010327e-30
4.3218505e-18
1.1973161e-30
-4.3084955e-18
4.301812e-18
-1.0729073e-29
-6.4324932e-18
4.2815302e-18
-2.3734028e-30
-4.2679295e-18
2.1305848e-18
2.1272191e-18
4.2477134e-18
-2.1204828e-18
-6.3512584e-18
0
0
0
6.3100857e-18
6.2998668e-18
-6.2896911e-18
-6.2795169e-18
4.1795308e-18
-5.9297153e-34
2.0828767e-18
-6.9265617e-30
-6.2278448e-18
6.2175288e-18
-1.0338315e-29
-4.1313959e-18
-1.1444379e-30
1.1431229e-30
4.1108362e-18
-2.0519414e-18
2.048461e-18
-6.8119412e-30
-6.1247051e-18
6.1144995e-18
2.0347761e-18
-4.5102678e-30
4.0558846e-18
-4.0489528e-18
-2.0209893e-18
-2.0175074e-18
-6.0421738e-18
2.2321295e-30
2.0072765e-18
6.0117044e-18
-1.3325157e-29
-5.9911793e-18
0
1.9900918e-18
3.9732432e-18
-1.9832e-18
1.9798298e-18
-6.5825902e-30
-3.9462415e-18
5.9091483e-18
-4.3651421e-30
-2.1800948e-30
-2.1751084e-30
-2.171283e-30
1.9524622e-18
-5.8474131e-18
-5.8374671e-18
1.9424629e-18
3.8780816e-18
0
-1.9320726e-18
2.1404954e-30
-4.2745348e-30
2.1335812e-30
1.918604e-18
-1.9152988e-18
-1.9119263e-18
5.7254471e-18
1.8145024e-47
-3.1669742e-30
1.8980741e-18
-2.1023736e-30
3.7829774e-18
-3.7764952e-18
-3.7698814e-18
-1.8815444e-18
2.0846833e-30
1.8745801e-18
0
0
0
3.7226846e-18
-1.8581196e-18
-3.70959e-18
5.5540999e-18
-1.8478748e-18
-5.5331879e-18
5.523032e-18
-6.1206109e-30
-3.6692989e-18
5.4945993e-18
3.6566118e-18
0
-3.6429442e-18
-6.0541901e-30
-1.8145774e-18
-3.6226767e-18
1.8082639e-18
0
3.6042381e-18
5.1126238e-34
1.993216e-30
-1.791988e-18
-5.3657419e-18
5.3559501e-18
-2.969351e-30
-5.3378387e-18
5.3288897e-18
-8.8597406e-30
-3.5397804e-18
1.7664787e-18
-1.7630502e-18
3.5194776e-18
1.7566413e-18
-7.7877385e-30
-1.7509213e-18
-3.4958799e-18
-1.7447449e-18
-1.7413848e-18
3.4759534e-18
1.734676e-18
0
-1.7287194e-18
9.5826278e-31
5.7600544e-49
1.719914e-18
-4.8790729e-34
1.7133616e-18
7.3864594e-48
-5.1209651e-18
5.1121972e-18
5.1037761e-18
-3.3968087e-18
-3.3907943e-18
0
3.3779394e-18
-1.6857221e-18
-5.0477881e-18
5.0389677e-18
-2.7928185e-30
-3.3480452e-18
1.6710411e-18
0
-1.6646707e-18
-1.6614495e-18
1.6583275e-18
-2.7565344e-30
3.3049638e-18
9.3769865e-34
-4.9399874e-18
0
4.9212041e-18
3.2743072e-18
-4.9017683e-18
-3.2615804e-18
4.8834423e-18
1.6249678e-18
-6.4884555e-18
-1.6191214e-18
3.2319145e-18
3.2253342e-18
-1.786626e-30
-1.6061247e-18
-1.60304e-18
-1.600071e-18
1.5971015e-18
-1.7696034e-30
3.1816371e-18
-5.2873196e-30
-4.7530294e-18
0
0
3.1502537e-18
-3.4907959e-30
-1.5687931e-18
4.6964703e-18
-1.5621548e-18
-2.5954001e-30
-5.1809608e-30
-4.6575424e-18
1.5494649e-18
-8.5814744e-31
1.7132226e-30
1.539947e-18
-1.5365619e-18
2.1787398e-34
-8.4916118e-31
1.6945449e-30
1.5235258e-18
0
-1.5172852e-18
3.0278996e-18
1.5105148e-18
-3.0141503e-18
0
1.5005251e-18
-1.4974004e-18
-2.988433e-18
4.4726966e-18
-4.9547818e-30
-4.94236e-30
1.4805723e-18
-4.4318432e-18
2.0948363e-34
1.4709731e-18
1.467767e-18
-1.4644554e-18
-1.4610509e-18
1.457589e-18
0
-1.4507328e-18
2.8948948e-18
-2.4054611e-30
-1.4411383e-18
-3.1930035e-30
-3.1846911e-30
-4.0672347e-34
-2.8549689e-18
4.2720232e-18
4.2620372e-18
0
-2.8286251e-18
-4.233025e-18
-2.0002511e-34
1.4040101e-18
1.4004856e-18
-1.3970794e-18
-1.3938323e-18
1.3906608e-18
0
2.7680985e-18
2.7611593e-18
-4.1311908e-18
-1.3735704e-18
1.3701544e-18
-3.8847888e-34
-1.363603e-18
-2.7207749e-18
-1.3571086e-18
2.2546099e-30
5.4007199e-18
-4.4848096e-30
-4.0292257e-18
1.3396698e-18
1.3364018e-18
1.3331767e-18
-1.3298625e-18
-1.326422e-18
-1.3228979e-18
-3.7498491e-34
1.3158852e-18
-1.312512e-18
3.9276815e-18
2.6119147e-18
-3.907879e-18
1.2992097e-18
2.5914391e-18
-2.5843898e-18
1.2887008e-18
-1.2852988e-18
-2.5640267e-18
3.836359e-18
-1.2755074e-18
4.2374661e-30
3.8059108e-18
-2.5301985e-18
-1.2615715e-18
-1.2581072e-18
-2.5094602e-18
1.2514318e-18
5.6931155e-75
2.489751e-18
1.2414899e-18
-1.3743796e-30
-1.2344869e-18
-2.4620107e-18
2.4552866e-18
-1.2244186e-18
-3.663731e-18
3.6539803e-18
1.2146351e-18
-1.7930998e-47
1.2077537e-18
-3.6129812e-18
-1.2009413e-18
1.1975887e-18
2.3885273e-18
-1.1909757e-18
1.1877325e-18
-3.9449791e-30
-2.3625742e-18
3.5340292e-18
1.3047316e-30
-5.2018933e-30
2.592753e-30
-2.329095e-18
2.3225492e-18
-1.1580803e-18
-4.6197018e-18
1.1517648e-18
2.2971644e-18
0
2.2841938e-18
-2.52845e-30
-6.4543025e-34
-1.2568449e-30
-1.1288793e-18
-1.1257018e-18
1.1225789e-18
1.1194425e-18
-2.2325128e-18
2.2260655e-18
-1.2320502e-30
-2.2132039e-18
2.2069035e-18
3.6646271e-30
-1.2180727e-30
-1.0940409e-18
-2.1816329e-18
1.0875564e-18
-1.084298e-18
6.0008039e-31
1.0779125e-18
2.1495574e-18
-1.0716268e-18
-2.1368651e-18
1.0652099e-18
-1.0619902e-18
1.7634456e-30
-1.055649e-18
-2.3374804e-30
2.0986378e-18
2.0921336e-18
2.3149639e-30
-3.4621948e-30
3.4513806e-30
-1.0330541e-18
-1.0299222e-18
-1.0267269e-18
1.0234167e-18
0
0
-1.0131077e-18
5.6049955e-31
1.4303635e-34
1.1138199e-30
9.9999774e-19
0
-9.9307449e-19
-1.9790465e-18
9.85983e-19
1.9649879e-18
1.9581253e-18
1.951291e-18
-2.9165201e-18
-3.2259335e-30
2.8949474e-18
-1.9225915e-18
-1.9151675e-18
0
-9.501401e-19
1.8928388e-18
9.4271186e-19
-1.8779783e-18
-9.3518714e-19
1.033862e-30
2.7818971e-18
-9.2329894e-19
-2.7579562e-18
2.7460654e-18
9.1135412e-19
-2.7217964e-18
1.0024473e-30
8.9888279e-19
1.7892678e-18
9.8816807e-31
-1.7720297e-18
1.7632545e-18
-8.7718618e-19
-2.6180969e-18
0
8.6358621e-19
1.7178909e-18
-4.7440456e-31
8.4943447e-19
1.6891536e-18
-1.6793453e-18
-1.6694637e-18
0
-8.2461634e-19
-9.0963551e-31
-9.0380984e-31
-8.9764733e-31
2.4091644e-18
1.5949127e-18
0
-1.5720623e-18
-1.7319751e-30
-7.7417416e-19
-2.3042294e-18
7.6187812e-19
-4.1929997e-31
1.064661e-34
7.4266403e-19
1.4720033e-18
-7.2920519e-19
-1.4445506e-18
7.1520999e-19
0
1.4013288e-18
-6.9318013e-19
-2.0566579e-18
6.7777148e-19
6.6981971e-19
1.3233735e-18
-6.5337177e-19
-1.934632e-18
6.3620468e-19
-6.963687e-31
-1.2366447e-18
6.0910074e-19
5.9966877e-19
1.1800205e-18
1.7403692e-18
-1.1400299e-18
-1.1193986e-18
1.0983507e-18
5.9756403e-31
-1.0547544e-18
1.0321651e-18
5.6011296e-31
-9.8549e-19
0
9.3673272e-19
9.1148479e-19
0
-1.2888763e-18
-4.1613069e-19
-1.1434863e-34
-3.8820778e-19
-3.7376666e-19
-3.9844416e-31
6.8781444e-19
6.5695926e-19
-1.0414597e-30
-5.9315709e-19
5.6017711e-19
8.7671083e-31
-4.9205525e-19
0
0
0
0
3.0842363e-19
1.4953406e-31
-2.2940389e-19
-9.4328842e-20
1.4706861e-19
-1.7423891e-31
-6.1225035e-20
1.6974653e-20
-1.5586106e-32
3.7018905e-20
-1.2093343e-19
2.8103806e-31
2.1746998e-19
-2.6712107e-19
-3.1770045e-19
3.6921543e-19
4.2166069e-19
0
0
0
0
3.4890808e-19
-3.7798816e-19
-4.0755605e-19
4.8580113e-31
1.1645294e-73
4.991134e-19
1.0611732e-18
5.6253666e-19
-1.1899257e-18
-1.8835913e-18
6.6123734e-19
1.3901611e-18
-2.1881683e-18
-1.5283181e-18
2.3981516e-18
1.6701155e-18
8.7117424e-19
1.0077146e-30
-1.8894163e-18
0
1.0199295e-18
-1.0581542e-18
2.435179e-30
3.2281099e-34
3.9135633e-30
1.2149479e-18
1.2550726e-18
-3.6821655e-34
-2.6727184e-18
-2.7549955e-18
4.7253471e-30
2.9214058e-18
0
0
0
1.630443e-18
1.6734862e-18
-1.7167417e-18
-1.7601929e-18
1.803823e-18
-3.6952292e-18
-5.67465e-18
0
3.9595579e-18
2.2464112e-30
2.06836e-18
6.3382024e-18
-2.1571374e-18
3.6660813e-30
-4.4918979e-18
1.5256892e-29
4.6692552e-18
1.3204501e-30
3.443293e-34
-2.4670205e-18
2.5108967e-18
-5.1092164e-18
-2.5981323e-18
5.2828924e-18
-5.3690538e-18
-7.7515986e-34
3.075793e-30
2.8121383e-18
8.5621631e-18
-5.7912419e-18
3.9443753e-48
-2.9776115e-18
5.0264963e-30
6.1158429e-18
-3.0973872e-18
-6.2727244e-18
3.5236341e-30
9.6382436e-18
-9.2373779e-34
-3.2868981e-18
3.323081e-18
-6.7172832e-18
-3.3935598e-18
6.8556321e-18
-6.9227816e-18
-3.8781715e-30
1.9575298e-29
-7.9004737e-30
7.1769607e-18
-7.2367003e-18
3.6474186e-18
7.3513314e-18
-3.7030723e-18
3.7296195e-18
-7.5105795e-18
6.2957463e-30
1.14118e-17
0
0
-1.1609816e-17
-3.8900327e-18
7.818307e-18
-7.854581e-18
-2.2421511e-33
1.7587359e-29
4.4136357e-30
7.9796284e-18
-8.0057953e-18
-8.029895e-18
4.0259577e-18
1.2107769e-17
4.044839e-18
-4.0527023e-18
0
0
4.06995e-18
-2.2611429e-30
-1.2228391e-17
-1.158931e-33
8.1561342e-18
4.0774572e-18
-4.5236002e-30
-1.2219312e-17
-9.0352426e-30
8.1292238e-18
0
4.0520401e-18
-8.0884933e-18
-4.0354617e-18
8.9394131e-30
4.0149615e-18
8.0065402e-18
-3.990635e-18
0
0
0
0
3.9138121e-18
-2.1624804e-30
-1.1631026e-17
3.8573734e-18
1.151082e-17
-1.1447183e-17
-3.7937563e-18
7.5420911e-18
3.747616e-18
6.199928e-30
-1.1096053e-17
2.0879868e-33
1.2147655e-29
3.6204325e-18
7.1862885e-18
3.5652923e-18
3.9254913e-30
-3.5079911e-18
-3.4785896e-18
-3.4487202e-18
-3.4184079e-18
7.5216746e-30
6.7131077e-18
0
0
3.2610347e-18
5.3758298e-30
4.5415277e-34
-4.494649e-34
-3.1296169e-18
-6.1924046e-18
-6.1252154e-18
6.0577186e-18
3.3265879e-30
2.9609992e-18
8.7807962e-18
0
0
-2.824451e-18
-2.7902713e-18
0
2.7220111e-18
-1.4920288e-30
-2.6540209e-18
2.6201767e-18
-5.1729173e-18
8.5022726e-30
7.5584262e-18
-2.486246e-18
-2.4532146e-18
-4.8407953e-18
2.3878111e-18
7.0664113e-18
-2.3233905e-18
1.2723299e-30
-4.5201398e-18
-2.2288564e-18
4.3959153e-18
-4.3347715e-18
-4.6350973e-47
4.2145346e-18
0
0
-4.0396157e-18
2.2085113e-30
6.5402012e-30
-4.2230816e-47
5.7259213e-18
2.0894291e-30
-1.8555204e-18
-3.659194e-18
-3.608209e-18
3.558094e-18
3.8953636e-30
1.7302507e-18
5.6844519e-30
-1.6832311e-18
3.3207856e-18
0
1.6160661e-18
-1.7697717e-30
-1.5735425e-18
-3.1059127e-18
-1.7012274e-30
3.026264e-18
0
0
1.4567441e-18
-7.9866159e-31
-4.264079e-18
-1.5590102e-30
2.7754298e-18
0
-1.3557834e-18
1.3404507e-18
1.3255345e-18
1.3110304e-18
1.2969338e-18
-2.5664803e-18
-3.8098339e-18
1.2570424e-18
2.4890565e-18
-3.6971909e-18
-4.4579618e-48
2.4185226e-18
0
0
0
0
-2.3154762e-18
-2.2969417e-18
1.1395359e-18
3.3927823e-18
1.2469387e-30
-1.1146667e-18
2.2140056e-18
2.1992841e-18
-1.0925786e-18
-4.3432265e-18
-2.1586405e-18
3.2193414e-18
2.1343632e-18
-3.1845542e-18
-2.3446018e-30
2.101949e-18
0
0
0
-2.0657326e-18
-1.142267e-30
2.2765821e-30
-1.0217232e-18
3.0553362e-18
-1.0153774e-18
-1.0125144e-18
3.0295548e-18
2.0147685e-18
-1.0051077e-18
-2.0060344e-18
-2.0022163e-18
3.3289454e-30
-1.108011e-30
2.8320076e-34
1.9903921e-18
0
9.9321515e-19
9.9245418e-19
-9.9184072e-19
-9.9137074e-19
9.9104022e-19
9.9084535e-19
-1.9815647e-18
-9.9084765e-19
9.9103761e-19
-9.9134875e-19
9.9177748e-19
1.9846406e-18
0
0
-2.9837988e-18
-9.9556576e-19
1.993261e-18
9.9779142e-19
9.9904647e-19
-2.0007885e-18
1.1127569e-30
2.006727e-18
0
-1.0066922e-18
-3.025461e-18
-2.2430255e-30
5.6196792e-30