/*--------------------------------*- C++ -*----------------------------------*\
  =========                 |
  \\      /  F ield         | OpenFOAM: The Open Source CFD Toolbox
   \\    /   O peration     | Website:  https://openfoam.org
    \\  /    A nd           | Version:  7
     \\/     M anipulation  |
\*---------------------------------------------------------------------------*/
FoamFile
{
    version     2.0;
    format      ascii;
    class       volScalarField;
    location    "0.00089";
    object      T;
}
// * * * * * * * * * * * * * * * * * * * * * * * * * * * * * * * * * * * * * //

dimensions      [0 0 0 1 0 0 0];

internalField   nonuniform List<scalar> 
5000
(
280.12424
280.13901
280.1453
280.15768
280.16414
280.17651
280.18301
280.19537
280.20189
280.21427
280.22079
280.23319
280.23969
280.2521
280.2586
280.27102
280.2775
280.28993
280.2964
280.30882
280.3153
280.32771
280.33418
280.34659
280.35306
280.36547
280.37192
280.38434
280.39078
280.40321
280.40963
280.42207
280.42847
280.44091
280.44732
280.45973
280.46616
280.47856
280.48499
280.49738
280.5038
280.5162
280.5226
280.53501
280.54139
280.55382
280.56019
280.57261
280.57897
280.59139
280.59774
280.61016
280.61651
280.62892
280.63525
280.64766
280.65398
280.66638
280.6727
280.68508
280.6914
280.70376
280.71007
280.72245
280.72873
280.74111
280.74739
280.75975
280.76605
280.7784
280.78468
280.79708
280.8033
280.81575
280.82197
280.83435
280.84076
280.85284
280.85968
280.87126
280.87867
280.88965
280.89766
280.9081
280.91661
280.92661
280.93549
280.9452
280.95431
280.96385
280.97309
280.98254
280.99185
281.00124
281.01058
281.01995
281.02931
281.03867
281.04802
281.05738
281.06673
281.07609
281.08544
281.09479
281.10413
281.11348
281.12282
281.13217
281.14151
281.15085
281.16018
281.16952
281.17885
281.18818
281.19751
281.20684
281.21617
281.22549
281.23481
281.24413
281.25345
281.26277
281.27208
281.2814
281.29071
281.30002
281.30932
281.31863
281.32793
281.33723
281.34653
281.35583
281.36513
281.37442
281.38371
281.39301
281.40229
281.41158
281.42086
281.43015
281.43943
281.44871
281.45798
281.46726
281.47653
281.48581
281.49507
281.50434
281.51361
281.52287
281.53213
281.54139
281.55065
281.55991
281.56916
281.57842
281.58767
281.59692
281.60616
281.61541
281.62465
281.63389
281.64313
281.65237
281.6616
281.67083
281.68007
281.68929
281.69852
281.70775
281.71697
281.72619
281.73541
281.74462
281.75384
281.76305
281.77226
281.78147
281.79067
281.79987
281.80907
281.81827
281.82747
281.83666
281.84585
281.85504
281.86423
281.87341
281.8826
281.89178
281.90095
281.91013
281.9193
281.92847
281.93764
281.94681
281.95598
281.96514
281.9743
281.98346
281.99262
282.00178
282.01094
282.02009
282.02924
282.0384
282.04755
282.0567
282.06585
282.075
282.08415
282.0933
282.10245
282.1116
282.12074
282.12989
282.13904
282.14819
282.15734
282.16648
282.17563
282.18478
282.19393
282.20308
282.21223
282.22137
282.23052
282.23967
282.24882
282.25797
282.26712
282.27627
282.28542
282.29457
282.30371
282.31286
282.32201
282.33116
282.34031
282.34945
282.3586
282.36774
282.37689
282.38603
282.39517
282.40431
282.41346
282.42259
282.43173
282.44087
282.45001
282.45914
282.46828
282.47741
282.48654
282.49567
282.5048
282.51392
282.52305
282.53217
282.5413
282.55042
282.55954
282.56865
282.57777
282.58688
282.59599
282.60511
282.61422
282.62332
282.63243
282.64153
282.65064
282.65974
282.66883
282.67793
282.68703
282.69612
282.70521
282.7143
282.72339
282.73248
282.74157
282.75065
282.75973
282.76881
282.77789
282.78697
282.79604
282.80512
282.81419
282.82326
282.83233
282.8414
282.85046
282.85952
282.86859
282.87765
282.8867
282.89576
282.90482
282.91387
282.92292
282.93197
282.94102
282.95006
282.95911
282.96815
282.97719
282.98623
282.99526
283.0043
283.01333
283.02236
283.03139
283.04041
283.04943
283.05845
283.06747
283.07649
283.0855
283.09451
283.10352
283.11253
283.12153
283.13053
283.13953
283.14852
283.15751
283.1665
283.17549
283.18447
283.19345
283.20243
283.2114
283.22038
283.22935
283.23831
283.24727
283.25624
283.26519
283.27415
283.2831
283.29205
283.301
283.30994
283.31888
283.32782
283.33676
283.3457
283.35463
283.36356
283.37249
283.38142
283.39034
283.39927
283.40819
283.41711
283.42603
283.43495
283.44386
283.45278
283.4617
283.47061
283.47953
283.48844
283.49735
283.50626
283.51518
283.52409
283.533
283.54191
283.55082
283.55974
283.56865
283.57756
283.58647
283.59538
283.6043
283.61321
283.62212
283.63104
283.63995
283.64886
283.65778
283.66669
283.6756
283.68452
283.69343
283.70235
283.71126
283.72018
283.72909
283.73801
283.74693
283.75584
283.76476
283.77367
283.78259
283.7915
283.80041
283.80933
283.81824
283.82715
283.83607
283.84498
283.85389
283.8628
283.87171
283.88062
283.88953
283.89843
283.90734
283.91625
283.92515
283.93405
283.94296
283.95186
283.96076
283.96966
283.97856
283.98745
283.99635
284.00524
284.01414
284.02303
284.03192
284.04081
284.04969
284.05858
284.06746
284.07635
284.08523
284.09411
284.10299
284.11186
284.12074
284.12961
284.13848
284.14736
284.15622
284.16509
284.17396
284.18282
284.19169
284.20055
284.20941
284.21826
284.22712
284.23598
284.24483
284.25368
284.26253
284.27138
284.28022
284.28907
284.29791
284.30675
284.31559
284.32443
284.33327
284.3421
284.35094
284.35977
284.3686
284.37743
284.38625
284.39508
284.4039
284.41272
284.42154
284.43036
284.43918
284.448
284.45681
284.46562
284.47443
284.48324
284.49205
284.50085
284.50966
284.51846
284.52726
284.53606
284.54485
284.55365
284.56244
284.57124
284.58003
284.58882
284.5976
284.60639
284.61517
284.62395
284.63274
284.64151
284.65029
284.65907
284.66784
284.67661
284.68539
284.69416
284.70292
284.71169
284.72045
284.72922
284.73798
284.74674
284.7555
284.76425
284.77301
284.78176
284.79051
284.79926
284.80801
284.81676
284.8255
284.83424
284.84299
284.85173
284.86047
284.8692
284.87794
284.88667
284.8954
284.90413
284.91286
284.92159
284.93032
284.93904
284.94776
284.95648
284.9652
284.97392
284.98264
284.99135
285.00006
285.00878
285.01749
285.02619
285.0349
285.04361
285.05231
285.06101
285.06971
285.07841
285.08711
285.0958
285.1045
285.11319
285.12188
285.13057
285.13926
285.14794
285.15663
285.16531
285.17399
285.18267
285.19135
285.20002
285.2087
285.21737
285.22604
285.23471
285.24338
285.25205
285.26071
285.26938
285.27804
285.2867
285.29536
285.30402
285.31267
285.32133
285.32998
285.33863
285.34728
285.35593
285.36458
285.37322
285.38187
285.39051
285.39915
285.40779
285.41642
285.42506
285.43369
285.44233
285.45096
285.45959
285.46821
285.47684
285.48547
285.49409
285.50271
285.51133
285.51995
285.52857
285.53718
285.5458
285.55441
285.56302
285.57163
285.58024
285.58884
285.59745
285.60605
285.61465
285.62325
285.63185
285.64045
285.64904
285.65764
285.66623
285.67482
285.68341
285.692
285.70058
285.70917
285.71775
285.72633
285.73491
285.74349
285.75207
285.76064
285.76922
285.77779
285.78636
285.79493
285.8035
285.81206
285.82063
285.82919
285.83775
285.84631
285.85487
285.86343
285.87198
285.88054
285.88909
285.89764
285.90619
285.91474
285.92328
285.93183
285.94037
285.94891
285.95745
285.96599
285.97453
285.98307
285.9916
286.00013
286.00866
286.01719
286.02572
286.03425
286.04277
286.0513
286.05982
286.06834
286.07686
286.08538
286.09389
286.10241
286.11092
286.11943
286.12794
286.13645
286.14496
286.15346
286.16197
286.17047
286.17897
286.18747
286.19597
286.20446
286.21296
286.22145
286.22994
286.23843
286.24692
286.25541
286.26389
286.27238
286.28086
286.28934
286.29782
286.30629
286.31477
286.32324
286.33172
286.34019
286.34866
286.35713
286.36559
286.37406
286.38252
286.39098
286.39944
286.4079
286.41635
286.42481
286.43326
286.44171
286.45016
286.45861
286.46705
286.4755
286.48394
286.49238
286.50082
286.50925
286.51769
286.52612
286.53455
286.54298
286.5514
286.55983
286.56825
286.57667
286.58509
286.5935
286.60191
286.61033
286.61873
286.62714
286.63554
286.64394
286.65234
286.66074
286.66913
286.67752
286.68591
286.69429
286.70268
286.71105
286.71943
286.7278
286.73617
286.74454
286.7529
286.76126
286.76961
286.77796
286.78631
286.79465
286.80299
286.81132
286.81965
286.82797
286.83629
286.84461
286.85292
286.86122
286.86952
286.87781
286.8861
286.89438
286.90266
286.91092
286.91919
286.92744
286.93569
286.94392
286.95215
286.96038
286.96859
286.9768
286.98499
286.99318
287.00136
287.00952
287.01768
287.02582
287.03396
287.04208
287.05019
287.05828
287.06637
287.07444
287.08249
287.09053
287.09856
287.10657
287.11456
287.12254
287.1305
287.13844
287.14636
287.15426
287.16214
287.17
287.17784
287.18565
287.19345
287.20122
287.20896
287.21668
287.22437
287.23203
287.23966
287.24727
287.25484
287.26238
287.26989
287.27737
287.28481
287.29222
287.29958
287.30691
287.3142
287.32145
287.32866
287.33583
287.34294
287.35002
287.35704
287.36402
287.37095
287.37782
287.38464
287.39141
287.39812
287.40477
287.41137
287.4179
287.42437
287.43077
287.43711
287.44338
287.44958
287.4557
287.46176
287.46773
287.47363
287.47945
287.48519
287.49085
287.49642
287.5019
287.5073
287.5126
287.51781
287.52292
287.52793
287.53285
287.53766
287.54236
287.54696
287.55146
287.55583
287.5601
287.56425
287.56828
287.57219
287.57598
287.57964
287.58318
287.58659
287.58986
287.593
287.596
287.59886
287.60159
287.60416
287.60659
287.60888
287.61101
287.61299
287.61481
287.61647
287.61798
287.61932
287.6205
287.62151
287.62235
287.62302
287.62351
287.62383
287.62397
287.62393
287.62371
287.6233
287.62271
287.62192
287.62095
287.61978
287.61843
287.61687
287.61511
287.61316
287.611
287.60865
287.60608
287.60331
287.60033
287.59714
287.59374
287.59012
287.58629
287.58224
287.57798
287.57349
287.56879
287.56387
287.55872
287.55336
287.54776
287.54194
287.53589
287.52962
287.52312
287.51639
287.50943
287.50224
287.49482
287.48716
287.47928
287.47116
287.46282
287.45423
287.44541
287.43637
287.42708
287.41757
287.40781
287.39783
287.38761
287.37715
287.36647
287.35554
287.34439
287.33301
287.32139
287.30954
287.29745
287.28514
287.2726
287.25983
287.24682
287.2336
287.22014
287.20645
287.19255
287.17841
287.16406
287.14947
287.13468
287.11965
287.10441
287.08896
287.07328
287.05739
287.04129
287.02497
287.00845
286.99171
286.97477
286.95761
286.94026
286.9227
286.90494
286.88699
286.86883
286.85048
286.83193
286.81319
286.79426
286.77514
286.75584
286.73635
286.71668
286.69683
286.6768
286.6566
286.63622
286.61567
286.59495
286.57406
286.55301
286.5318
286.51043
286.48889
286.46721
286.44536
286.42338
286.40123
286.37895
286.35651
286.33395
286.31124
286.2884
286.26542
286.24231
286.21908
286.19572
286.17223
286.14863
286.12491
286.10108
286.07713
286.05307
286.02891
286.00465
285.98028
285.95581
285.93126
285.9066
285.88186
285.85703
285.83213
285.80713
285.78206
285.75691
285.7317
285.70641
285.68106
285.65564
285.63017
285.60463
285.57904
285.5534
285.52772
285.50198
285.47621
285.4504
285.42455
285.39867
285.37275
285.34682
285.32086
285.29488
285.26888
285.24287
285.21684
285.19081
285.16477
285.13874
285.11271
285.08668
285.06066
285.03466
285.00866
284.98269
284.95674
284.93081
284.90491
284.87905
284.85321
284.82742
284.80167
284.77597
284.75031
284.72471
284.69916
284.67366
284.64824
284.62287
284.59758
284.57235
284.54721
284.52214
284.49716
284.47225
284.44745
284.42273
284.39811
284.37358
284.34917
284.32486
284.30066
284.27657
284.2526
284.22875
284.20503
284.18143
284.15796
284.13463
284.11143
284.08838
284.06547
284.04271
284.0201
283.99764
283.97534
283.95321
283.93123
283.90943
283.8878
283.86634
283.84506
283.82397
283.80305
283.78232
283.76179
283.74145
283.7213
283.70136
283.68161
283.66208
283.64275
283.62364
283.60474
283.58606
283.5676
283.54936
283.53135
283.51357
283.49602
283.4787
283.46162
283.44478
283.42818
283.41182
283.39572
283.37985
283.36424
283.34888
283.33378
283.31893
283.30435
283.29002
283.27595
283.26215
283.24861
283.23534
283.22234
283.2096
283.19714
283.18495
283.17303
283.16139
283.15002
283.13892
283.1281
283.11756
283.10729
283.09731
283.08759
283.07816
283.06901
283.06013
283.05153
283.04321
283.03516
283.02739
283.0199
283.01268
283.00573
282.99906
282.99266
282.98654
282.98068
282.9751
282.96977
282.96472
282.95993
282.9554
282.95114
282.94713
282.94338
282.93988
282.93664
282.93365
282.93091
282.92841
282.92615
282.92414
282.92236
282.92082
282.91951
282.91843
282.91757
282.91694
282.91653
282.91634
282.91636
282.91658
282.91702
282.91766
282.91849
282.91953
282.92076
282.92218
282.9238
282.92558
282.92756
282.92971
282.93202
282.93452
282.93717
282.93998
282.94296
282.94609
282.94937
282.9528
282.95637
282.96008
282.96393
282.96791
282.97203
282.97626
282.98062
282.9851
282.9897
282.99441
282.99923
283.00415
283.00919
283.01431
283.01954
283.02486
283.03027
283.03577
283.04135
283.04702
283.05276
283.05858
283.06448
283.07045
283.07648
283.08258
283.08875
283.09497
283.10126
283.1076
283.114
283.12045
283.12694
283.13349
283.14008
283.14672
283.1534
283.16012
283.16688
283.17368
283.1805
283.18737
283.19427
283.20119
283.20815
283.21513
283.22215
283.22919
283.23624
283.24333
283.25043
283.25756
283.2647
283.27187
283.27904
283.28625
283.29345
283.30068
283.30792
283.31518
283.32245
283.32972
283.33702
283.34431
283.35163
283.35894
283.36627
283.3736
283.38094
283.3883
283.39564
283.40301
283.41037
283.41775
283.42512
283.4325
283.43989
283.44727
283.45468
283.46206
283.46947
283.47686
283.48427
283.49167
283.49908
283.50649
283.5139
283.52132
283.52872
283.53614
283.54355
283.55097
283.55838
283.5658
283.57321
283.58063
283.58805
283.59547
283.60288
283.6103
283.61771
283.62513
283.63254
283.63996
283.64737
283.65479
283.6622
283.66961
283.67702
283.68444
283.69184
283.69926
283.70665
283.71407
283.72147
283.72888
283.73628
283.74368
283.75109
283.75848
283.76589
283.77328
283.78068
283.78808
283.79546
283.80287
283.81025
283.81765
283.82504
283.83242
283.83982
283.8472
283.85458
283.86198
283.86936
283.87674
283.88412
283.8915
283.89888
283.90626
283.91363
283.921
283.92838
283.93575
283.94312
283.95049
283.95786
283.96522
283.97259
283.97996
283.98732
283.99468
284.00204
284.0094
284.01676
284.02411
284.03147
284.03882
284.04617
284.05352
284.06087
284.06822
284.07557
284.08291
284.09025
284.09759
284.10493
284.11227
284.1196
284.12694
284.13427
284.1416
284.14893
284.15625
284.16358
284.1709
284.17822
284.18554
284.19286
284.20017
284.20748
284.21479
284.2221
284.2294
284.23671
284.24401
284.2513
284.2586
284.26589
284.27318
284.28047
284.28775
284.29503
284.30231
284.30958
284.31685
284.32412
284.33139
284.33865
284.3459
284.35316
284.36041
284.36765
284.37489
284.38213
284.38936
284.39659
284.40381
284.41103
284.41824
284.42545
284.43266
284.43986
284.44705
284.45423
284.46142
284.46859
284.47576
284.48292
284.49008
284.49723
284.50437
284.51151
284.51863
284.52575
284.53287
284.53997
284.54707
284.55415
284.56123
284.5683
284.57537
284.58242
284.58946
284.59649
284.60351
284.61052
284.61752
284.62451
284.63149
284.63846
284.64541
284.65236
284.65928
284.6662
284.6731
284.67999
284.68687
284.69373
284.70058
284.70741
284.71423
284.72103
284.72781
284.73458
284.74133
284.74807
284.75479
284.76149
284.76817
284.77483
284.78147
284.7881
284.7947
284.80128
284.80784
284.81439
284.82091
284.8274
284.83388
284.84033
284.84676
284.85316
284.85954
284.8659
284.87223
284.87854
284.88482
284.89107
284.8973
284.90349
284.90967
284.91581
284.92192
284.92801
284.93406
284.94009
284.94608
284.95205
284.95798
284.96388
284.96975
284.97559
284.98139
284.98716
284.99289
284.99859
285.00426
285.00989
285.01548
285.02104
285.02656
285.03205
285.0375
285.04291
285.04828
285.05361
285.05891
285.06416
285.06938
285.07456
285.07969
285.08479
285.08984
285.09485
285.09982
285.10475
285.10964
285.11448
285.11929
285.12404
285.12876
285.13343
285.13806
285.14264
285.14718
285.15167
285.15612
285.16053
285.16489
285.1692
285.17347
285.17769
285.18187
285.186
285.19009
285.19413
285.19812
285.20207
285.20597
285.20982
285.21363
285.21739
285.2211
285.22477
285.22839
285.23197
285.23549
285.23898
285.24241
285.2458
285.24915
285.25244
285.25569
285.2589
285.26205
285.26517
285.26823
285.27125
285.27423
285.27716
285.28005
285.28289
285.28569
285.28844
285.29115
285.29381
285.29643
285.29901
285.30154
285.30403
285.30648
285.30889
285.31126
285.31358
285.31586
285.3181
285.3203
285.32246
285.32458
285.32666
285.3287
285.3307
285.33266
285.33459
285.33648
285.33833
285.34014
285.34192
285.34366
285.34536
285.34703
285.34867
285.35027
285.35183
285.35336
285.35486
285.35633
285.35776
285.35916
285.36053
285.36187
285.36318
285.36446
285.36571
285.36693
285.36812
285.36928
285.37042
285.37152
285.3726
285.37366
285.37468
285.37569
285.37667
285.37762
285.37855
285.37945
285.38033
285.38119
285.38203
285.38284
285.38363
285.3844
285.38515
285.38588
285.38658
285.38727
285.38794
285.38859
285.38923
285.38984
285.39044
285.39103
285.39159
285.39214
285.39267
285.39319
285.39369
285.39417
285.39464
285.3951
285.39554
285.39597
285.39638
285.39678
285.39717
285.39755
285.39792
285.39827
285.39861
285.39894
285.39926
285.39957
285.39987
285.40017
285.40045
285.40072
285.40098
285.40124
285.40148
285.40171
285.40194
285.40217
285.40238
285.40259
285.40279
285.40298
285.40316
285.40334
285.40351
285.40367
285.40383
285.40398
285.40413
285.40427
285.40441
285.40455
285.40468
285.4048
285.40492
285.40504
285.40515
285.40525
285.40535
285.40545
285.40554
285.40563
285.40572
285.40581
285.40589
285.40597
285.40604
285.40611
285.40618
285.40625
285.40631
285.40637
285.40643
285.40649
285.40654
285.40659
285.40664
285.40669
285.40673
285.40678
285.40683
285.40687
285.40691
285.40695
285.40698
285.40701
285.40705
285.40708
285.40711
285.40714
285.40717
285.4072
285.40722
285.40725
285.40727
285.4073
285.40732
285.40734
285.40736
285.40738
285.4074
285.40742
285.40744
285.40746
285.40748
285.40749
285.40751
285.40752
285.40753
285.40755
285.40756
285.40757
285.40759
285.4076
285.40762
285.40763
285.40764
285.40765
285.40766
285.40767
285.40768
285.40769
285.4077
285.40771
285.40772
285.40773
285.40773
285.40774
285.40775
285.40776
285.40777
285.40778
285.40779
285.40779
285.4078
285.40781
285.40781
285.40782
285.40783
285.40783
285.40784
285.40785
285.40785
285.40786
285.40786
285.40787
285.40788
285.40788
285.40789
285.40789
285.4079
285.4079
285.40791
285.40792
285.40792
285.40793
285.40794
285.40794
285.40795
285.40795
285.40796
285.40796
285.40797
285.40797
285.40798
285.40798
285.40799
285.40799
285.408
285.408
285.40801
285.40801
285.40802
285.40803
285.40803
285.40803
285.40804
285.40804
285.40805
285.40806
285.40806
285.40807
285.40807
285.40808
285.40808
285.40808
285.40809
285.40809
285.4081
285.4081
285.40811
285.40811
285.40812
285.40812
285.40813
285.40814
285.40814
285.40815
285.40815
285.40816
285.40816
285.40817
285.40817
285.40818
285.40818
285.40818
285.40818
285.40819
285.4082
285.4082
285.40821
285.40821
285.40822
285.40822
285.40823
285.40823
285.40824
285.40824
285.40825
285.40825
285.40826
285.40826
285.40826
285.40827
285.40827
285.40827
285.40828
285.40828
285.40828
285.40829
285.4083
285.4083
285.40831
285.40831
285.40832
285.40832
285.40833
285.40833
285.40834
285.40834
285.40834
285.40835
285.40835
285.40835
285.40836
285.40836
285.40837
285.40837
285.40838
285.40838
285.40839
285.40839
285.4084
285.4084
285.4084
285.4084
285.40841
285.40841
285.40841
285.40842
285.40842
285.40843
285.40843
285.40843
285.40844
285.40844
285.40845
285.40845
285.40845
285.40846
285.40846
285.40847
285.40847
285.40848
285.40848
285.40849
285.40849
285.40849
285.4085
285.4085
285.40851
285.40851
285.40852
285.40852
285.40852
285.40853
285.40853
285.40853
285.40854
285.40855
285.40855
285.40856
285.40856
285.40856
285.40857
285.40857
285.40857
285.40858
285.40858
285.40858
285.40859
285.40859
285.4086
285.4086
285.40861
285.40861
285.40861
285.40862
285.40862
285.40863
285.40863
285.40864
285.40864
285.40865
285.40865
285.40866
285.40866
285.40866
285.40867
285.40867
285.40868
285.40868
285.40869
285.40869
285.4087
285.4087
285.40871
285.40871
285.40872
285.40872
285.40873
285.40873
285.40874
285.40874
285.40874
285.40875
285.40875
285.40876
285.40876
285.40877
285.40877
285.40878
285.40878
285.40879
285.40879
285.4088
285.4088
285.40881
285.40881
285.40882
285.40882
285.40883
285.40884
285.40884
285.40885
285.40885
285.40886
285.40886
285.40887
285.40887
285.40888
285.40888
285.40889
285.40889
285.4089
285.4089
285.40891
285.40891
285.40892
285.40893
285.40893
285.40894
285.40894
285.40895
285.40895
285.40896
285.40897
285.40898
285.40899
285.40899
285.409
285.40901
285.40901
285.40902
285.40902
285.40903
285.40903
285.40904
285.40905
285.40905
285.40906
285.40907
285.40907
285.40908
285.40909
285.40909
285.4091
285.40911
285.40912
285.40913
285.40914
285.40914
285.40915
285.40915
285.40916
285.40917
285.40917
285.40918
285.40919
285.4092
285.4092
285.40921
285.40922
285.40922
285.40923
285.40924
285.40925
285.40925
285.40926
285.40927
285.40928
285.40928
285.40929
285.4093
285.40931
285.40932
285.40933
285.40933
285.40934
285.40935
285.40936
285.40936
285.40937
285.40938
285.40939
285.40939
285.4094
285.40941
285.40942
285.40942
285.40943
285.40944
285.40944
285.40945
285.40946
285.40947
285.40948
285.40949
285.4095
285.40951
285.40951
285.40952
285.40953
285.40954
285.40955
285.40956
285.40956
285.40957
285.40958
285.40959
285.4096
285.4096
285.40961
285.40962
285.40963
285.40964
285.40965
285.40966
285.40967
285.40967
285.40968
285.40969
285.4097
285.40971
285.40972
285.40973
285.40974
285.40974
285.40975
285.40976
285.40977
285.40978
285.40979
285.4098
285.40981
285.40982
285.40983
285.40984
285.40985
285.40985
285.40986
285.40987
285.40988
285.40989
285.4099
285.40991
285.40992
285.40992
285.40993
285.40994
285.40994
285.40995
285.40996
285.40997
285.40998
285.40999
285.41
285.41002
285.41003
285.41004
285.41005
285.41006
285.41007
285.41008
285.41008
285.41009
285.4101
285.41011
285.41011
285.41012
285.41013
285.41014
285.41015
285.41016
285.41017
285.41018
285.41019
285.4102
285.41021
285.41022
285.41023
285.41024
285.41025
285.41026
285.41027
285.41028
285.41029
285.4103
285.41031
285.41032
285.41033
285.41034
285.41035
285.41035
285.41037
285.41038
285.41039
285.4104
285.41041
285.41042
285.41044
285.41045
285.41046
285.41047
285.41048
285.41049
285.4105
285.41051
285.41052
285.41053
285.41054
285.41055
285.41057
285.41058
285.41059
285.4106
285.41061
285.41062
285.41064
285.41065
285.41066
285.41067
285.41068
285.41069
285.4107
285.41071
285.41073
285.41074
285.41075
285.41077
285.41078
285.41079
285.4108
285.41081
285.41082
285.41083
285.41085
285.41086
285.41087
285.41089
285.4109
285.41091
285.41092
285.41093
285.41094
285.41096
285.41097
285.41099
285.41101
285.41102
285.41104
285.41105
285.41106
285.41108
285.41109
285.4111
285.41111
285.41112
285.41113
285.41115
285.41116
285.41117
285.41119
285.4112
285.41122
285.41123
285.41125
285.41126
285.41128
285.41129
285.41131
285.41132
285.41133
285.41134
285.41136
285.41137
285.41139
285.41141
285.41143
285.41145
285.41146
285.41147
285.41149
285.4115
285.41151
285.41153
285.41154
285.41156
285.41157
285.41159
285.41161
285.41163
285.41164
285.41166
285.41167
285.41168
285.4117
285.41172
285.41173
285.41175
285.41177
285.41179
285.4118
285.41182
285.41184
285.41185
285.41187
285.41189
285.4119
285.41192
285.41193
285.41195
285.41197
285.41199
285.41201
285.41202
285.41204
285.41206
285.41208
285.41209
285.41211
285.41213
285.41215
285.41217
285.41218
285.4122
285.41222
285.41224
285.41226
285.41228
285.41229
285.41231
285.41233
285.41235
285.41237
285.41239
285.41242
285.41244
285.41246
285.41248
285.4125
285.41252
285.41254
285.41256
285.41258
285.4126
285.41262
285.41264
285.41266
285.41268
285.4127
285.41272
285.41274
285.41277
285.41279
285.41281
285.41284
285.41286
285.41288
285.41291
285.41293
285.41295
285.41297
285.41299
285.41301
285.41304
285.41306
285.41308
285.4131
285.41313
285.41315
285.41317
285.41319
285.41322
285.41324
285.41327
285.41329
285.41332
285.41335
285.41338
285.4134
285.41343
285.41345
285.41348
285.41351
285.41354
285.41357
285.4136
285.41363
285.41366
285.41368
285.41371
285.41374
285.41376
285.41379
285.41382
285.41384
285.41387
285.41389
285.41392
285.41395
285.41398
285.41401
285.41404
285.41407
285.4141
285.41413
285.41416
285.41419
285.41422
285.41425
285.41428
285.41431
285.41435
285.41438
285.41441
285.41445
285.41449
285.41452
285.41456
285.41459
285.41463
285.41466
285.41469
285.41473
285.41476
285.4148
285.41483
285.41486
285.4149
285.41494
285.41497
285.41501
285.41505
285.41509
285.41513
285.41517
285.41521
285.41524
285.41528
285.41532
285.41536
285.4154
285.41544
285.41548
285.41552
285.41557
285.41561
285.41565
285.4157
285.41575
285.41579
285.41584
285.41589
285.41593
285.41598
285.41603
285.41607
285.41612
285.41617
285.41622
285.41626
285.41631
285.41636
285.41641
285.41646
285.41651
285.41656
285.41661
285.41666
285.41671
285.41677
285.41682
285.41687
285.41693
285.41699
285.41705
285.41711
285.41717
285.41723
285.41729
285.41735
285.41741
285.41747
285.41753
285.41759
285.41765
285.41771
285.41778
285.41785
285.41792
285.41799
285.41806
285.41813
285.4182
285.41827
285.41834
285.41842
285.41849
285.41857
285.41865
285.41873
285.41881
285.41889
285.41897
285.41905
285.41913
285.41921
285.4193
285.41938
285.41947
285.41955
285.41964
285.41973
285.41982
285.41991
285.42
285.4201
285.4202
285.4203
285.4204
285.42051
285.42062
285.42073
285.42084
285.42095
285.42106
285.42117
285.42128
285.4214
285.42151
285.42162
285.42174
285.42185
285.42197
285.42209
285.4222
285.42232
285.42244
285.42255
285.42268
285.4228
285.42292
285.42303
285.42315
285.42325
285.42336
285.42345
285.42354
285.42362
285.4237
285.42378
285.42384
285.4239
285.42395
285.424
285.42403
285.42406
285.42407
285.42408
285.42408
285.42409
285.42408
285.42407
285.42405
285.424
285.42395
285.4239
285.42385
285.42381
285.42378
285.42375
285.42374
285.42373
285.42373
285.42373
285.42374
285.42376
285.42384
285.42399
285.42417
285.42438
285.42462
285.42486
285.42512
285.42538
285.42564
285.4259
285.42616
285.42643
285.42671
285.427
285.42729
285.42759
285.42789
285.42817
285.42844
285.42867
285.42887
285.42903
285.42917
285.42928
285.42938
285.42947
285.42954
285.4296
285.42965
285.42968
285.4297
285.42971
285.42975
285.42983
285.43003
285.43054
285.43184
285.43517
285.44383
285.46638
285.52546
285.68087
286.09056
287.02351
288.22995
289.5735
290.98906
292.41005
293.77723
295.04372
296.17729
297.1604
297.9885
298.66731
299.2097
299.63277
299.95529
300.19582
300.37146
300.4971
300.58515
300.64559
300.68619
300.7128
300.72975
300.74015
300.74619
300.74939
300.75081
300.7512
300.75117
300.75074
300.74941
300.74781
300.74639
300.74514
300.74403
300.74306
300.7422
300.74145
300.74078
300.74018
300.73964
300.73914
300.73867
300.73823
300.7378
300.7374
300.73701
300.73663
300.73627
300.73592
300.73559
300.73526
300.73494
300.73463
300.73431
300.73398
300.73365
300.73329
300.73291
300.73251
300.73208
300.73162
300.73114
300.73064
300.73012
300.72959
300.72905
300.7285
300.72796
300.72743
300.72691
300.72641
300.72592
300.72546
300.72501
300.72459
300.72419
300.7238
300.72344
300.7231
300.72278
300.72248
300.72219
300.72193
300.72167
300.72144
300.72121
300.721
300.72079
300.72059
300.7204
300.72022
300.72004
300.71987
300.7197
300.71953
300.71937
300.71921
300.71906
300.71891
300.71877
300.71863
300.71849
300.71836
300.71823
300.7181
300.71798
300.71785
300.71773
300.71762
300.7175
300.71738
300.71727
300.71715
300.71704
300.71693
300.71683
300.71672
300.71662
300.71651
300.71641
300.71632
300.71622
300.71613
300.71603
300.71595
300.71586
300.71577
300.71568
300.7156
300.71551
300.71543
300.71535
300.71527
300.71518
300.7151
300.71502
300.71494
300.71486
300.71478
300.7147
300.71463
300.71455
300.71448
300.71441
300.71434
300.71427
300.7142
300.71414
300.71407
300.714
300.71394
300.71387
300.71381
300.71375
300.71368
300.71362
300.71356
300.7135
300.71344
300.71338
300.71332
300.71326
300.7132
300.71315
300.71309
300.71303
300.71298
300.71292
300.71287
300.71281
300.71276
300.71271
300.71266
300.71261
300.71256
300.7125
300.71246
300.71241
300.71236
300.71231
300.71226
300.71221
300.71217
300.71212
300.71208
300.71203
300.71199
300.71194
300.71189
300.71185
300.7118
300.71176
300.71171
300.71167
300.71163
300.71159
300.71155
300.71151
300.71147
300.71143
300.71139
300.71135
300.71131
300.71127
300.71123
300.71119
300.71116
300.71112
300.71108
300.71105
300.71101
300.71097
300.71094
300.7109
300.71086
300.71083
300.71079
300.71076
300.71072
300.71069
300.71065
300.71062
300.71058
300.71055
300.71051
300.71048
300.71045
300.71041
300.71038
300.71035
300.71032
300.71029
300.71026
300.71023
300.7102
300.71017
300.71014
300.71011
300.71008
300.71005
300.71002
300.70999
300.70996
300.70992
300.7099
300.70987
300.70984
300.70981
300.70979
300.70976
300.70973
300.7097
300.70968
300.70965
300.70962
300.70959
300.70956
300.70954
300.70951
300.70949
300.70946
300.70944
300.70941
300.70939
300.70936
300.70934
300.70931
300.70929
300.70926
300.70924
300.70921
300.70919
300.70916
300.70914
300.70911
300.70909
300.70907
300.70904
300.70902
300.709
300.70898
300.70896
300.70894
300.70891
300.70889
300.70887
300.70884
300.70882
300.7088
300.70877
300.70875
300.70873
300.7087
300.70868
300.70866
300.70864
300.70863
300.70861
300.70859
300.70857
300.70855
300.70853
300.70851
300.70848
300.70846
300.70844
300.70842
300.70841
300.70839
300.70837
300.70835
300.70833
300.70831
300.70829
300.70827
300.70825
300.70823
300.70821
300.70819
300.70817
300.70815
300.70814
300.70812
300.7081
300.70808
300.70806
300.70805
300.70803
300.70801
300.70799
300.70798
300.70796
300.70794
300.70793
300.70791
300.70789
300.70787
300.70785
300.70784
300.70782
300.7078
300.70779
300.70777
300.70775
300.70774
300.70772
300.7077
300.70768
300.70766
300.70765
300.70763
300.70762
300.70761
300.70759
300.70758
300.70757
300.70755
300.70754
300.70752
300.70751
300.70749
300.70747
300.70745
300.70744
300.70742
300.7074
300.70739
300.70738