/*--------------------------------*- C++ -*----------------------------------*\
  =========                 |
  \\      /  F ield         | OpenFOAM: The Open Source CFD Toolbox
   \\    /   O peration     | Website:  https://openfoam.org
    \\  /    A nd           | Version:  7
     \\/     M anipulation  |
\*---------------------------------------------------------------------------*/
FoamFile
{
    version     2.0;
    format      ascii;
    class       volScalarField;
    location    "0.00295";
    object      p;
}
// * * * * * * * * * * * * * * * * * * * * * * * * * * * * * * * * * * * * * //

dimensions      [1 -1 -2 0 0 0 0];

internalField   nonuniform List<scalar> 
5000
(
109813.31
109813.31
109813.31
109813.32
109813.32
109813.32
109813.32
109813.32
109813.32
109813.32
109813.32
109813.32
109813.32
109813.32
109813.32
109813.32
109813.32
109813.32
109813.32
109813.32
109813.32
109813.32
109813.32
109813.32
109813.32
109813.32
109813.32
109813.32
109813.32
109813.32
109813.32
109813.32
109813.32
109813.32
109813.32
109813.32
109813.32
109813.32
109813.32
109813.32
109813.32
109813.32
109813.32
109813.32
109813.32
109813.32
109813.32
109813.32
109813.32
109813.32
109813.32
109813.32
109813.32
109813.32
109813.32
109813.32
109813.32
109813.32
109813.32
109813.32
109813.32
109813.32
109813.32
109813.32
109813.32
109813.32
109813.32
109813.32
109813.32
109813.32
109813.32
109813.32
109813.32
109813.32
109813.32
109813.32
109813.32
109813.32
109813.32
109813.32
109813.32
109813.32
109813.32
109813.32
109813.32
109813.32
109813.32
109813.32
109813.32
109813.32
109813.33
109813.33
109813.33
109813.33
109813.33
109813.33
109813.33
109813.33
109813.33
109813.33
109813.33
109813.33
109813.33
109813.33
109813.33
109813.33
109813.33
109813.33
109813.33
109813.33
109813.33
109813.33
109813.33
109813.33
109813.33
109813.33
109813.33
109813.33
109813.33
109813.33
109813.33
109813.33
109813.33
109813.33
109813.33
109813.33
109813.33
109813.33
109813.33
109813.33
109813.33
109813.33
109813.33
109813.33
109813.33
109813.33
109813.33
109813.33
109813.33
109813.33
109813.33
109813.33
109813.33
109813.33
109813.33
109813.33
109813.33
109813.33
109813.33
109813.33
109813.33
109813.33
109813.33
109813.33
109813.33
109813.33
109813.33
109813.33
109813.33
109813.33
109813.33
109813.33
109813.33
109813.33
109813.33
109813.33
109813.33
109813.33
109813.33
109813.33
109813.33
109813.33
109813.33
109813.33
109813.33
109813.33
109813.33
109813.34
109813.34
109813.34
109813.34
109813.34
109813.34
109813.34
109813.34
109813.34
109813.34
109813.34
109813.34
109813.34
109813.34
109813.34
109813.34
109813.34
109813.34
109813.34
109813.34
109813.34
109813.34
109813.34
109813.34
109813.34
109813.34
109813.34
109813.34
109813.34
109813.34
109813.34
109813.34
109813.34
109813.34
109813.34
109813.34
109813.34
109813.34
109813.34
109813.34
109813.34
109813.34
109813.34
109813.34
109813.34
109813.34
109813.34
109813.34
109813.34
109813.34
109813.34
109813.34
109813.34
109813.34
109813.34
109813.34
109813.34
109813.34
109813.34
109813.34
109813.34
109813.34
109813.34
109813.34
109813.34
109813.34
109813.34
109813.34
109813.34
109813.34
109813.34
109813.34
109813.34
109813.34
109813.34
109813.34
109813.34
109813.34
109813.34
109813.34
109813.34
109813.34
109813.34
109813.34
109813.34
109813.34
109813.35
109813.35
109813.35
109813.35
109813.35
109813.35
109813.35
109813.35
109813.35
109813.35
109813.35
109813.35
109813.35
109813.35
109813.35
109813.35
109813.35
109813.35
109813.35
109813.35
109813.35
109813.35
109813.35
109813.35
109813.35
109813.35
109813.35
109813.35
109813.35
109813.35
109813.35
109813.35
109813.35
109813.35
109813.35
109813.35
109813.35
109813.35
109813.35
109813.35
109813.35
109813.35
109813.35
109813.35
109813.35
109813.35
109813.35
109813.35
109813.35
109813.35
109813.35
109813.35
109813.35
109813.35
109813.35
109813.35
109813.35
109813.35
109813.35
109813.35
109813.35
109813.35
109813.35
109813.35
109813.35
109813.35
109813.35
109813.35
109813.35
109813.35
109813.35
109813.35
109813.35
109813.35
109813.35
109813.35
109813.35
109813.35
109813.35
109813.35
109813.35
109813.35
109813.35
109813.35
109813.35
109813.35
109813.35
109813.35
109813.35
109813.35
109813.35
109813.35
109813.35
109813.35
109813.35
109813.35
109813.35
109813.35
109813.36
109813.36
109813.36
109813.36
109813.36
109813.36
109813.36
109813.36
109813.36
109813.36
109813.36
109813.36
109813.36
109813.36
109813.36
109813.36
109813.36
109813.36
109813.36
109813.36
109813.36
109813.36
109813.36
109813.36
109813.36
109813.36
109813.36
109813.36
109813.36
109813.36
109813.36
109813.36
109813.36
109813.36
109813.36
109813.36
109813.36
109813.36
109813.36
109813.36
109813.36
109813.36
109813.36
109813.36
109813.36
109813.36
109813.36
109813.36
109813.36
109813.36
109813.36
109813.36
109813.36
109813.36
109813.36
109813.36
109813.36
109813.36
109813.36
109813.36
109813.36
109813.36
109813.36
109813.36
109813.36
109813.36
109813.36
109813.36
109813.36
109813.36
109813.36
109813.36
109813.36
109813.36
109813.36
109813.36
109813.36
109813.36
109813.36
109813.36
109813.36
109813.36
109813.36
109813.36
109813.36
109813.36
109813.36
109813.36
109813.36
109813.36
109813.36
109813.36
109813.36
109813.36
109813.36
109813.36
109813.36
109813.36
109813.36
109813.36
109813.36
109813.36
109813.36
109813.36
109813.36
109813.36
109813.36
109813.37
109813.37
109813.37
109813.37
109813.37
109813.37
109813.37
109813.37
109813.37
109813.37
109813.37
109813.37
109813.37
109813.37
109813.37
109813.37
109813.37
109813.37
109813.37
109813.37
109813.37
109813.37
109813.37
109813.37
109813.37
109813.37
109813.37
109813.37
109813.37
109813.37
109813.37
109813.37
109813.37
109813.37
109813.37
109813.37
109813.37
109813.37
109813.37
109813.37
109813.37
109813.37
109813.37
109813.37
109813.37
109813.37
109813.37
109813.37
109813.37
109813.37
109813.37
109813.37
109813.37
109813.37
109813.37
109813.37
109813.37
109813.37
109813.37
109813.37
109813.37
109813.37
109813.37
109813.37
109813.37
109813.37
109813.37
109813.37
109813.37
109813.37
109813.37
109813.37
109813.37
109813.37
109813.37
109813.37
109813.37
109813.37
109813.37
109813.37
109813.37
109813.37
109813.37
109813.37
109813.37
109813.37
109813.37
109813.37
109813.37
109813.37
109813.37
109813.37
109813.37
109813.37
109813.37
109813.37
109813.37
109813.37
109813.37
109813.37
109813.37
109813.37
109813.37
109813.37
109813.37
109813.37
109813.37
109813.37
109813.37
109813.37
109813.38
109813.38
109813.38
109813.38
109813.38
109813.38
109813.38
109813.38
109813.38
109813.38
109813.38
109813.38
109813.38
109813.38
109813.38
109813.38
109813.38
109813.38
109813.38
109813.38
109813.38
109813.38
109813.38
109813.38
109813.38
109813.38
109813.38
109813.38
109813.38
109813.38
109813.38
109813.38
109813.38
109813.38
109813.38
109813.38
109813.38
109813.38
109813.38
109813.38
109813.38
109813.38
109813.38
109813.38
109813.38
109813.38
109813.38
109813.38
109813.38
109813.38
109813.38
109813.38
109813.38
109813.38
109813.38
109813.38
109813.38
109813.38
109813.38
109813.38
109813.38
109813.38
109813.38
109813.38
109813.38
109813.38
109813.38
109813.38
109813.38
109813.38
109813.38
109813.38
109813.38
109813.38
109813.38
109813.38
109813.38
109813.38
109813.38
109813.38
109813.38
109813.38
109813.38
109813.38
109813.38
109813.38
109813.38
109813.38
109813.38
109813.38
109813.38
109813.38
109813.38
109813.38
109813.38
109813.38
109813.38
109813.38
109813.38
109813.38
109813.38
109813.38
109813.38
109813.38
109813.38
109813.38
109813.38
109813.38
109813.38
109813.38
109813.38
109813.38
109813.38
109813.38
109813.38
109813.38
109813.39
109813.39
109813.39
109813.39
109813.39
109813.39
109813.39
109813.39
109813.39
109813.39
109813.39
109813.39
109813.39
109813.39
109813.39
109813.39
109813.39
109813.39
109813.39
109813.39
109813.39
109813.39
109813.39
109813.39
109813.39
109813.39
109813.39
109813.39
109813.39
109813.39
109813.39
109813.39
109813.39
109813.39
109813.39
109813.39
109813.39
109813.39
109813.39
109813.39
109813.39
109813.39
109813.39
109813.39
109813.39
109813.39
109813.39
109813.39
109813.39
109813.39
109813.39
109813.39
109813.39
109813.39
109813.39
109813.39
109813.39
109813.39
109813.39
109813.39
109813.39
109813.39
109813.39
109813.39
109813.39
109813.39
109813.39
109813.39
109813.39
109813.39
109813.39
109813.39
109813.39
109813.39
109813.39
109813.39
109813.39
109813.39
109813.39
109813.39
109813.39
109813.39
109813.39
109813.39
109813.39
109813.39
109813.39
109813.39
109813.39
109813.39
109813.39
109813.39
109813.39
109813.39
109813.39
109813.39
109813.39
109813.39
109813.39
109813.39
109813.39
109813.39
109813.39
109813.39
109813.39
109813.39
109813.39
109813.39
109813.39
109813.39
109813.39
109813.39
109813.39
109813.39
109813.39
109813.39
109813.39
109813.39
109813.39
109813.39
109813.39
109813.39
109813.39
109813.4
109813.4
109813.4
109813.4
109813.4
109813.4
109813.4
109813.4
109813.4
109813.4
109813.4
109813.4
109813.4
109813.4
109813.4
109813.4
109813.4
109813.4
109813.4
109813.4
109813.4
109813.4
109813.4
109813.4
109813.4
109813.4
109813.4
109813.4
109813.4
109813.4
109813.4
109813.4
109813.4
109813.4
109813.4
109813.4
109813.4
109813.4
109813.4
109813.4
109813.4
109813.4
109813.4
109813.4
109813.4
109813.4
109813.4
109813.4
109813.4
109813.4
109813.4
109813.4
109813.4
109813.4
109813.4
109813.4
109813.4
109813.4
109813.4
109813.4
109813.4
109813.4
109813.4
109813.4
109813.4
109813.4
109813.4
109813.4
109813.4
109813.4
109813.4
109813.4
109813.4
109813.4
109813.4
109813.4
109813.4
109813.4
109813.4
109813.4
109813.4
109813.4
109813.4
109813.4
109813.4
109813.4
109813.4
109813.4
109813.4
109813.4
109813.4
109813.4
109813.4
109813.4
109813.4
109813.4
109813.4
109813.4
109813.4
109813.4
109813.4
109813.4
109813.4
109813.4
109813.4
109813.4
109813.4
109813.4
109813.4
109813.4
109813.4
109813.4
109813.4
109813.4
109813.4
109813.4
109813.4
109813.4
109813.4
109813.4
109813.4
109813.4
109813.4
109813.4
109813.4
109813.4
109813.4
109813.4
109813.4
109813.4
109813.4
109813.4
109813.4
109813.4
109813.4
109813.4
109813.4
109813.4
109813.4
109813.41
109813.41
109813.41
109813.41
109813.41
109813.41
109813.41
109813.41
109813.41
109813.41
109813.41
109813.41
109813.41
109813.41
109813.41
109813.41
109813.41
109813.41
109813.41
109813.41
109813.41
109813.41
109813.41
109813.41
109813.41
109813.41
109813.41
109813.41
109813.41
109813.41
109813.41
109813.41
109813.41
109813.41
109813.41
109813.41
109813.41
109813.41
109813.41
109813.41
109813.41
109813.41
109813.41
109813.41
109813.41
109813.41
109813.41
109813.41
109813.41
109813.41
109813.41
109813.41
109813.41
109813.41
109813.41
109813.41
109813.41
109813.41
109813.41
109813.41
109813.41
109813.41
109813.41
109813.41
109813.41
109813.41
109813.41
109813.41
109813.41
109813.41
109813.41
109813.41
109813.41
109813.41
109813.41
109813.41
109813.41
109813.41
109813.41
109813.41
109813.41
109813.41
109813.41
109813.41
109813.41
109813.41
109813.41
109813.41
109813.41
109813.41
109813.41
109813.41
109813.41
109813.41
109813.41
109813.41
109813.41
109813.41
109813.41
109813.41
109813.41
109813.41
109813.41
109813.41
109813.41
109813.41
109813.41
109813.41
109813.41
109813.41
109813.41
109813.41
109813.41
109813.41
109813.41
109813.41
109813.41
109813.41
109813.41
109813.41
109813.41
109813.41
109813.41
109813.41
109813.41
109813.41
109813.41
109813.41
109813.41
109813.41
109813.41
109813.41
109813.41
109813.41
109813.41
109813.41
109813.41
109813.42
109813.42
109813.42
109813.42
109813.42
109813.42
109813.42
109813.42
109813.42
109813.42
109813.42
109813.42
109813.42
109813.42
109813.42
109813.42
109813.42
109813.42
109813.42
109813.42
109813.42
109813.42
109813.42
109813.42
109813.42
109813.42
109813.42
109813.42
109813.42
109813.42
109813.42
109813.42
109813.42
109813.42
109813.42
109813.42
109813.42
109813.42
109813.42
109813.42
109813.42
109813.42
109813.42
109813.42
109813.42
109813.42
109813.42
109813.42
109813.42
109813.42
109813.42
109813.42
109813.42
109813.42
109813.42
109813.42
109813.42
109813.42
109813.42
109813.42
109813.42
109813.42
109813.42
109813.42
109813.42
109813.42
109813.42
109813.42
109813.42
109813.42
109813.42
109813.42
109813.42
109813.42
109813.42
109813.42
109813.42
109813.42
109813.42
109813.42
109813.42
109813.42
109813.42
109813.42
109813.42
109813.42
109813.42
109813.42
109813.42
109813.42
109813.42
109813.42
109813.42
109813.42
109813.42
109813.42
109813.42
109813.42
109813.42
109813.42
109813.42
109813.42
109813.42
109813.42
109813.42
109813.42
109813.42
109813.42
109813.42
109813.42
109813.42
109813.42
109813.42
109813.42
109813.42
109813.42
109813.42
109813.42
109813.42
109813.42
109813.42
109813.42
109813.42
109813.42
109813.42
109813.42
109813.42
109813.42
109813.42
109813.42
109813.42
109813.42
109813.42
109813.42
109813.42
109813.42
109813.42
109813.42
109813.42
109813.43
109813.43
109813.43
109813.43
109813.43
109813.43
109813.43
109813.43
109813.43
109813.43
109813.43
109813.43
109813.43
109813.43
109813.43
109813.43
109813.43
109813.43
109813.43
109813.43
109813.43
109813.43
109813.43
109813.43
109813.43
109813.43
109813.43
109813.43
109813.43
109813.43
109813.43
109813.43
109813.43
109813.43
109813.43
109813.43
109813.43
109813.43
109813.43
109813.43
109813.43
109813.43
109813.43
109813.43
109813.43
109813.43
109813.43
109813.43
109813.43
109813.43
109813.43
109813.43
109813.43
109813.43
109813.43
109813.43
109813.43
109813.43
109813.43
109813.43
109813.43
109813.43
109813.43
109813.43
109813.43
109813.43
109813.43
109813.43
109813.43
109813.43
109813.43
109813.43
109813.43
109813.43
109813.43
109813.43
109813.43
109813.43
109813.43
109813.43
109813.43
109813.43
109813.43
109813.43
109813.43
109813.43
109813.43
109813.43
109813.43
109813.43
109813.43
109813.43
109813.43
109813.43
109813.43
109813.43
109813.43
109813.43
109813.43
109813.43
109813.43
109813.43
109813.43
109813.43
109813.43
109813.43
109813.43
109813.43
109813.43
109813.43
109813.43
109813.43
109813.43
109813.43
109813.43
109813.43
109813.43
109813.43
109813.43
109813.43
109813.43
109813.43
109813.43
109813.43
109813.43
109813.43
109813.43
109813.43
109813.43
109813.43
109813.43
109813.43
109813.43
109813.44
109813.44
109813.44
109813.44
109813.44
109813.44
109813.44
109813.44
109813.44
109813.44
109813.44
109813.44
109813.44
109813.44
109813.44
109813.44
109813.44
109813.44
109813.44
109813.44
109813.44
109813.44
109813.44
109813.44
109813.44
109813.44
109813.44
109813.44
109813.44
109813.44
109813.44
109813.44
109813.44
109813.44
109813.44
109813.44
109813.44
109813.44
109813.44
109813.44
109813.44
109813.44
109813.44
109813.44
109813.44
109813.44
109813.44
109813.44
109813.44
109813.44
109813.44
109813.44
109813.44
109813.44
109813.44
109813.44
109813.44
109813.44
109813.44
109813.44
109813.44
109813.44
109813.44
109813.44
109813.44
109813.44
109813.44
109813.44
109813.44
109813.44
109813.44
109813.44
109813.44
109813.44
109813.44
109813.44
109813.44
109813.44
109813.44
109813.44
109813.44
109813.44
109813.44
109813.44
109813.44
109813.44
109813.44
109813.44
109813.44
109813.44
109813.44
109813.44
109813.44
109813.44
109813.44
109813.44
109813.44
109813.44
109813.44
109813.44
109813.44
109813.44
109813.44
109813.44
109813.44
109813.44
109813.44
109813.44
109813.44
109813.44
109813.44
109813.44
109813.44
109813.44
109813.44
109813.44
109813.44
109813.44
109813.44
109813.44
109813.44
109813.44
109813.44
109813.44
109813.44
109813.44
109813.44
109813.44
109813.44
109813.44
109813.44
109813.44
109813.44
109813.44
109813.44
109813.44
109813.44
109813.44
109813.44
109813.44
109813.44
109813.44
109813.44
109813.44
109813.44
109813.44
109813.44
109813.45
109813.45
109813.45
109813.45
109813.45
109813.45
109813.45
109813.45
109813.45
109813.45
109813.45
109813.45
109813.45
109813.45
109813.45
109813.45
109813.45
109813.45
109813.45
109813.45
109813.45
109813.45
109813.45
109813.45
109813.45
109813.45
109813.45
109813.45
109813.45
109813.45
109813.45
109813.45
109813.45
109813.45
109813.45
109813.45
109813.45
109813.45
109813.45
109813.45
109813.45
109813.45
109813.45
109813.45
109813.45
109813.45
109813.45
109813.45
109813.45
109813.45
109813.45
109813.45
109813.45
109813.45
109813.45
109813.45
109813.45
109813.45
109813.45
109813.45
109813.45
109813.45
109813.45
109813.45
109813.45
109813.45
109813.45
109813.45
109813.45
109813.45
109813.45
109813.45
109813.45
109813.45
109813.45
109813.45
109813.45
109813.45
109813.45
109813.45
109813.45
109813.45
109813.45
109813.45
109813.45
109813.45
109813.45
109813.45
109813.45
109813.45
109813.45
109813.45
109813.45
109813.45
109813.45
109813.45
109813.45
109813.45
109813.45
109813.45
109813.45
109813.45
109813.45
109813.45
109813.45
109813.45
109813.45
109813.45
109813.45
109813.45
109813.45
109813.45
109813.45
109813.45
109813.45
109813.45
109813.45
109813.45
109813.45
109813.45
109813.45
109813.45
109813.45
109813.45
109813.45
109813.45
109813.45
109813.45
109813.45
109813.45
109813.45
109813.45
109813.45
109813.45
109813.45
109813.45
109813.45
109813.45
109813.45
109813.45
109813.45
109813.45
109813.45
109813.45
109813.45
109813.45
109813.45
109813.45
109813.45
109813.45
109813.45
109813.45
109813.45
109813.46
109813.46
109813.46
109813.46
109813.46
109813.46
109813.46
109813.46
109813.46
109813.46
109813.46
109813.46
109813.46
109813.46
109813.46
109813.46
109813.46
109813.46
109813.46
109813.46
109813.46
109813.46
109813.46
109813.46
109813.46
109813.46
109813.46
109813.46
109813.46
109813.46
109813.46
109813.46
109813.46
109813.46
109813.46
109813.46
109813.46
109813.46
109813.46
109813.46
109813.46
109813.46
109813.46
109813.46
109813.46
109813.46
109813.46
109813.46
109813.46
109813.46
109813.46
109813.46
109813.46
109813.46
109813.46
109813.46
109813.46
109813.46
109813.46
109813.46
109813.46
109813.46
109813.46
109813.46
109813.46
109813.46
109813.46
109813.46
109813.46
109813.46
109813.46
109813.46
109813.46
109813.46
109813.46
109813.46
109813.46
109813.46
109813.46
109813.46
109813.46
109813.46
109813.46
109813.46
109813.46
109813.46
109813.46
109813.46
109813.46
109813.46
109813.46
109813.46
109813.46
109813.46
109813.46
109813.46
109813.46
109813.46
109813.46
109813.46
109813.46
109813.46
109813.46
109813.46
109813.46
109813.46
109813.46
109813.46
109813.46
109813.46
109813.46
109813.46
109813.46
109813.46
109813.46
109813.46
109813.46
109813.46
109813.46
109813.46
109813.46
109813.46
109813.46
109813.46
109813.46
109813.46
109813.46
109813.46
109813.46
109813.46
109813.46
109813.46
109813.46
109813.46
109813.46
109813.46
109813.46
109813.46
109813.46
109813.46
109813.46
109813.46
109813.46
109813.46
109813.46
109813.46
109813.46
109813.46
109813.46
109813.46
109813.46
109813.46
109813.46
109813.46
109813.46
109813.46
109813.46
109813.46
109813.46
109813.46
109813.46
109813.46
109813.46
109813.46
109813.47
109813.47
109813.47
109813.47
109813.47
109813.47
109813.47
109813.47
109813.47
109813.47
109813.47
109813.47
109813.47
109813.47
109813.47
109813.47
109813.47
109813.47
109813.47
109813.47
109813.47
109813.47
109813.47
109813.47
109813.47
109813.47
109813.47
109813.47
109813.47
109813.47
109813.47
109813.47
109813.47
109813.47
109813.47
109813.47
109813.47
109813.47
109813.47
109813.47
109813.47
109813.47
109813.47
109813.47
109813.47
109813.47
109813.47
109813.47
109813.47
109813.47
109813.47
109813.47
109813.47
109813.47
109813.47
109813.47
109813.47
109813.47
109813.47
109813.47
109813.47
109813.47
109813.47
109813.47
109813.47
109813.46
109813.46
109813.46
109813.46
109813.46
109813.46
109813.46
109813.46
109813.46
109813.46
109813.46
109813.46
109813.46
109813.46
109813.46
109813.46
109813.46
109813.46
109813.46
109813.46
109813.46
109813.46
109813.46
109813.46
109813.46
109813.46
109813.46
109813.46
109813.46
109813.46
109813.46
109813.46
109813.46
109813.46
109813.46
109813.46
109813.46
109813.46
109813.46
109813.46
109813.46
109813.46
109813.46
109813.46
109813.46
109813.46
109813.46
109813.46
109813.46
109813.46
109813.46
109813.46
109813.46
109813.46
109813.46
109813.46
109813.46
109813.46
109813.46
109813.46
109813.46
109813.46
109813.46
109813.46
109813.46
109813.46
109813.46
109813.46
109813.46
109813.46
109813.46
109813.46
109813.46
109813.46
109813.46
109813.46
109813.46
109813.46
109813.46
109813.46
109813.46
109813.46
109813.46
109813.46
109813.46
109813.46
109813.46
109813.46
109813.46
109813.46
109813.46
109813.46
109813.46
109813.46
109813.46
109813.46
109813.46
109813.46
109813.46
109813.46
109813.46
109813.46
109813.46
109813.46
109813.46
109813.46
109813.46
109813.46
109813.46
109813.46
109813.46
109813.46
109813.46
109813.46
109813.46
109813.46
109813.46
109813.46
109813.46
109813.46
109813.45
109813.45
109813.45
109813.45
109813.45
109813.45
109813.45
109813.45
109813.45
109813.45
109813.45
109813.45
109813.45
109813.45
109813.45
109813.45
109813.45
109813.45
109813.45
109813.45
109813.45
109813.45
109813.45
109813.45
109813.45
109813.45
109813.45
109813.45
109813.45
109813.45
109813.45
109813.45
109813.45
109813.45
109813.45
109813.45
109813.45
109813.45
109813.44
109813.44
109813.44
109813.44
109813.44
109813.44
109813.44
109813.44
109813.44
109813.44
109813.44
109813.44
109813.44
109813.44
109813.44
109813.44
109813.44
109813.44
109813.44
109813.43
109813.43
109813.43
109813.43
109813.43
109813.43
109813.43
109813.43
109813.43
109813.43
109813.43
109813.43
109813.42
109813.42
109813.42
109813.42
109813.42
109813.42
109813.42
109813.42
109813.42
109813.41
109813.41
109813.41
109813.41
109813.41
109813.41
109813.41
109813.4
109813.4
109813.4
109813.4
109813.4
109813.4
109813.39
109813.39
109813.39
109813.39
109813.39
109813.38
109813.38
109813.38
109813.38
109813.37
109813.37
109813.37
109813.37
109813.36
109813.36
109813.36
109813.35
109813.35
109813.35
109813.34
109813.34
109813.33
109813.33
109813.33
109813.32
109813.32
109813.31
109813.31
109813.3
109813.3
109813.29
109813.29
109813.28
109813.28
109813.27
109813.27
109813.26
109813.25
109813.25
109813.24
109813.23
109813.23
109813.22
109813.21
109813.2
109813.19
109813.19
109813.18
109813.17
109813.16
109813.15
109813.14
109813.13
109813.12
109813.11
109813.09
109813.08
109813.07
109813.06
109813.05
109813.03
109813.02
109813
109812.99
109812.97
109812.96
109812.94
109812.93
109812.91
109812.89
109812.87
109812.85
109812.84
109812.82
109812.8
109812.77
109812.75
109812.73
109812.71
109812.68
109812.66
109812.63
109812.61
109812.58
109812.55
109812.52
109812.5
109812.47
109812.43
109812.4
109812.37
109812.34
109812.3
109812.26
109812.23
109812.19
109812.15
109812.11
109812.07
109812.03
109811.98
109811.94
109811.89
109811.84
109811.79
109811.74
109811.69
109811.64
109811.58
109811.53
109811.47
109811.41
109811.35
109811.28
109811.22
109811.15
109811.08
109811.01
109810.94
109810.87
109810.79
109810.71
109810.63
109810.55
109810.46
109810.37
109810.29
109810.19
109810.1
109810
109809.9
109809.8
109809.7
109809.59
109809.48
109809.36
109809.25
109809.13
109809.01
109808.88
109808.75
109808.62
109808.48
109808.35
109808.2
109808.06
109807.91
109807.75
109807.6
109807.44
109807.27
109807.1
109806.93
109806.75
109806.57
109806.38
109806.19
109806
109805.8
109805.59
109805.38
109805.17
109804.95
109804.72
109804.49
109804.26
109804.02
109803.77
109803.52
109803.26
109802.99
109802.72
109802.45
109802.16
109801.88
109801.58
109801.28
109800.97
109800.65
109800.33
109800
109799.66
109799.32
109798.97
109798.61
109798.24
109797.87
109797.48
109797.09
109796.69
109796.29
109795.87
109795.45
109795.01
109794.57
109794.12
109793.66
109793.19
109792.71
109792.22
109791.72
109791.21
109790.69
109790.16
109789.62
109789.07
109788.51
109787.94
109787.35
109786.76
109786.15
109785.54
109784.91
109784.27
109783.62
109782.95
109782.28
109781.59
109780.89
109780.17
109779.45
109778.71
109777.95
109777.19
109776.41
109775.61
109774.81
109773.98
109773.15
109772.3
109771.44
109770.56
109769.66
109768.76
109767.83
109766.9
109765.94
109764.97
109763.99
109762.99
109761.97
109760.94
109759.89
109758.83
109757.75
109756.65
109755.54
109754.41
109753.26
109752.09
109750.91
109749.71
109748.5
109747.26
109746.01
109744.74
109743.45
109742.15
109740.82
109739.48
109738.12
109736.74
109735.34
109733.92
109732.49
109731.04
109729.56
109728.07
109726.56
109725.03
109723.48
109721.91
109720.32
109718.71
109717.09
109715.44
109713.77
109712.09
109710.38
109708.65
109706.91
109705.14
109703.36
109701.55
109699.73
109697.88
109696.02
109694.13
109692.23
109690.3
109688.36
109686.4
109684.41
109682.41
109680.38
109678.34
109676.28
109674.19
109672.09
109669.97
109667.83
109665.66
109663.48
109661.28
109659.06
109656.83
109654.57
109652.29
109650
109647.68
109645.35
109643
109640.63
109638.24
109635.83
109633.41
109630.97
109628.51
109626.03
109623.53
109621.02
109618.49
109615.95
109613.38
109610.8
109608.21
109605.59
109602.96
109600.32
109597.66
109594.99
109592.3
109589.59
109586.87
109584.14
109581.39
109578.62
109575.85
109573.06
109570.25
109567.44
109564.61
109561.77
109558.91
109556.05
109553.17
109550.28
109547.38
109544.47
109541.55
109538.62
109535.68
109532.73
109529.76
109526.8
109523.82
109520.83
109517.84
109514.83
109511.82
109508.81
109505.78
109502.75
109499.72
109496.68
109493.63
109490.58
109487.52
109484.46
109481.39
109478.32
109475.25
109472.17
109469.09
109466.01
109462.93
109459.84
109456.76
109453.67
109450.58
109447.49
109444.4
109441.32
109438.23
109435.14
109432.06
109428.97
109425.89
109422.81
109419.74
109416.67
109413.6
109410.53
109407.47
109404.41
109401.36
109398.31
109395.27
109392.23
109389.2
109386.18
109383.16
109380.15
109377.15
109374.15
109371.17
109368.19
109365.22
109362.26
109359.3
109356.36
109353.43
109350.5
109347.59
109344.68
109341.79
109338.91
109336.04
109333.18
109330.33
109327.5
109324.68
109321.87
109319.07
109316.29
109313.51
109310.76
109308.01
109305.28
109302.56
109299.86
109297.17
109294.5
109291.84
109289.2
109286.57
109283.95
109281.36
109278.77
109276.21
109273.66
109271.12
109268.6
109266.1
109263.61
109261.14
109258.69
109256.25
109253.84
109251.43
109249.05
109246.68
109244.33
109241.99
109239.68
109237.38
109235.1
109232.83
109230.58
109228.35
109226.14
109223.95
109221.77
109219.61
109217.47
109215.35
109213.24
109211.16
109209.09
109207.03
109205
109202.98
109200.98
109199
109197.04
109195.09
109193.16
109191.25
109189.36
109187.48
109185.63
109183.78
109181.96
109180.15
109178.36
109176.59
109174.84
109173.1
109171.38
109169.67
109167.98
109166.31
109164.65
109163.02
109161.39
109159.79
109158.2
109156.62
109155.06
109153.52
109151.99
109150.48
109148.99
109147.51
109146.04
109144.59
109143.15
109141.73
109140.33
109138.94
109137.56
109136.2
109134.85
109133.51
109132.19
109130.89
109129.59
109128.31
109127.05
109125.8
109124.56
109123.33
109122.12
109120.91
109119.73
109118.55
109117.39
109116.23
109115.09
109113.97
109112.85
109111.75
109110.65
109109.57
109108.5
109107.44
109106.39
109105.35
109104.33
109103.31
109102.3
109101.31
109100.32
109099.34
109098.38
109097.42
109096.47
109095.54
109094.61
109093.69
109092.78
109091.88
109090.99
109090.1
109089.23
109088.36
109087.5
109086.65
109085.81
109084.98
109084.15
109083.33
109082.52
109081.72
109080.93
109080.14
109079.36
109078.58
109077.82
109077.06
109076.3
109075.56
109074.82
109074.09
109073.36
109072.64
109071.93
109071.22
109070.52
109069.82
109069.13
109068.45
109067.77
109067.1
109066.44
109065.78
109065.12
109064.47
109063.83
109063.19
109062.55
109061.92
109061.3
109060.68
109060.07
109059.46
109058.85
109058.26
109057.66
109057.07
109056.48
109055.9
109055.33
109054.76
109054.19
109053.62
109053.06
109052.51
109051.96
109051.41
109050.87
109050.33
109049.8
109049.27
109048.74
109048.22
109047.7
109047.18
109046.67
109046.16
109045.66
109045.16
109044.66
109044.17
109043.68
109043.19
109042.71
109042.23
109041.75
109041.28
109040.81
109040.34
109039.88
109039.42
109038.97
109038.51
109038.06
109037.62
109037.17
109036.73
109036.3
109035.86
109035.43
109035
109034.58
109034.16
109033.74
109033.32
109032.91
109032.5
109032.09
109031.68
109031.28
109030.88
109030.49
109030.09
109029.7
109029.32
109028.93
109028.55
109028.17
109027.79
109027.42
109027.05
109026.68
109026.31
109025.95
109025.59
109025.23
109024.88
109024.52
109024.17
109023.82
109023.48
109023.14
109022.8
109022.46
109022.12
109021.79
109021.46
109021.13
109020.81
109020.49
109020.17
109019.85
109019.53
109019.22
109018.91
109018.6
109018.3
109017.99
109017.69
109017.39
109017.1
109016.8
109016.51
109016.22
109015.93
109015.65
109015.37
109015.08
109014.8
109014.53
109014.25
109013.98
109013.71
109013.44
109013.18
109012.92
109012.67
109012.41
109012.16
109011.92
109011.6
109011.37
109011.14
109010.89
109010.65
109010.42
109010.18
109009.95
109009.72
109009.49
109009.26
109009.04
109008.82
109008.6
109008.38
109008.17
109007.96
109007.75
109007.54
109007.34
109007.14
109006.94
109006.74
109006.54
109006.35
109006.16
109005.97
109005.78
109005.59
109005.41
109005.23
109005.05
109004.87
109004.69
109004.51
109004.34
109004.17
109004
109003.83
109003.66
109003.5
109003.34
109003.17
109003.01
109002.86
109002.7
109002.54
109002.39
109002.24
109002.09
109001.94
109001.79
109001.65
109001.5
109001.36
109001.22
109001.08
109000.94
109000.8
109000.67
109000.53
109000.4
109000.27
109000.14
109000.01
108999.89
108999.76
108999.64
108999.52
108999.4
108999.28
108999.16
108999.04
108998.93
108998.81
108998.7
108998.59
108998.48
108998.37
108998.26
108998.16
108998.05
108997.95
108997.85
108997.75
108997.65
108997.55
108997.45
108997.35
108997.26
108997.16
108997.07
108996.98
108996.89
108996.8
108996.71
108996.63
108996.54
108996.46
108996.37
108996.29
108996.21
108996.13
108996.05
108995.97
108995.89
108995.82
108995.74
108995.67
108995.6
108995.52
108995.45
108995.38
108995.31
108995.24
108995.18
108995.11
108995.05
108994.98
108994.92
108994.86
108994.79
108994.73
108994.67
108994.61
108994.56
108994.5
108994.44
108994.39
108994.33
108994.28
108994.23
108994.17
108994.12
108994.07
108994.02
108993.97