/*--------------------------------*- C++ -*----------------------------------*\
  =========                 |
  \\      /  F ield         | OpenFOAM: The Open Source CFD Toolbox
   \\    /   O peration     | Website:  https://openfoam.org
    \\  /    A nd           | Version:  7
     \\/     M anipulation  |
\*---------------------------------------------------------------------------*/
FoamFile
{
    version     2.0;
    format      ascii;
    class       volScalarField;
    location    "0.00295";
    object      rho;
}
// * * * * * * * * * * * * * * * * * * * * * * * * * * * * * * * * * * * * * //

dimensions      [1 -3 0 0 0 0 0];

internalField   nonuniform List<scalar> 
5000
(
1.3374796
1.3374796
1.3374796
1.3374796
1.3374796
1.3374796
1.3374796
1.3374796
1.3374796
1.3374797
1.3374797
1.3374797
1.3374797
1.3374797
1.3374797
1.3374797
1.3374797
1.3374797
1.3374797
1.3374797
1.3374797
1.3374797
1.3374797
1.3374797
1.3374797
1.3374797
1.3374797
1.3374797
1.3374797
1.3374797
1.3374797
1.3374797
1.3374797
1.3374797
1.3374797
1.3374797
1.3374797
1.3374797
1.3374797
1.3374797
1.3374797
1.3374797
1.3374797
1.3374797
1.3374797
1.3374797
1.3374797
1.3374797
1.3374797
1.3374797
1.3374797
1.3374797
1.3374797
1.3374797
1.3374797
1.3374797
1.3374797
1.3374797
1.3374797
1.3374797
1.3374797
1.3374797
1.3374797
1.3374797
1.3374797
1.3374797
1.3374797
1.3374797
1.3374797
1.3374798
1.3374798
1.3374798
1.3374798
1.3374798
1.3374798
1.3374798
1.3374798
1.3374798
1.3374798
1.3374798
1.3374798
1.3374798
1.3374798
1.3374798
1.3374798
1.3374798
1.3374798
1.3374798
1.3374798
1.3374798
1.3374798
1.3374798
1.3374798
1.3374798
1.3374798
1.3374798
1.3374798
1.3374798
1.3374798
1.3374798
1.3374798
1.3374798
1.3374798
1.3374798
1.3374798
1.3374798
1.3374798
1.3374798
1.3374798
1.3374798
1.3374798
1.3374798
1.3374799
1.3374799
1.3374799
1.3374799
1.3374799
1.3374799
1.3374799
1.3374799
1.3374799
1.3374799
1.3374798
1.3374798
1.3374798
1.3374798
1.3374798
1.3374798
1.3374798
1.3374798
1.3374798
1.3374798
1.3374797
1.3374797
1.3374797
1.3374797
1.3374797
1.3374796
1.3374796
1.3374794
1.3374789
1.3374779
1.3374755
1.3374713
1.3374653
1.337457
1.3374456
1.3374303
1.3374103
1.3373849
1.3373534
1.3373154
1.3372706
1.3372193
1.337162
1.3370995
1.3370329
1.3369635
1.3368927
1.336822
1.3367527
1.3366861
1.3366232
1.3365649
1.3365117
1.3364638
1.3364215
1.3363846
1.3363529
1.336326
1.3363034
1.3362848
1.3362695
1.3362572
1.3362474
1.3362396
1.3362334
1.3362287
1.336225
1.3362223
1.3362201
1.3362186
1.3362174
1.3362165
1.3362159
1.3362154
1.3362151
1.3362148
1.3362146
1.3362145
1.3362144
1.3362143
1.3362143
1.3362143
1.3362142
1.3362142
1.3362142
1.3362142
1.3362142
1.3362142
1.3362142
1.3362142
1.3362142
1.3362142
1.3362142
1.3362142
1.3362142
1.3362142
1.3362142
1.3362142
1.3362142
1.3362142
1.3362142
1.3362142
1.3362142
1.3362142
1.3362142
1.3362141
1.3362141
1.3362141
1.3362141
1.3362141
1.3362141
1.3362141
1.3362141
1.3362141
1.3362141
1.3362141
1.3362141
1.3362141
1.3362141
1.3362141
1.3362141
1.3362141
1.3362141
1.3362141
1.3362141
1.3362141
1.3362141
1.3362141
1.3362141
1.3362141
1.3362141
1.3362141
1.3362141
1.3362141
1.3362141
1.3362141
1.3362141
1.3362141
1.3362141
1.3362141
1.3362141
1.3362141
1.3362141
1.3362141
1.3362141
1.3362141
1.3362141
1.3362141
1.3362141
1.3362141
1.3362141
1.3362141
1.3362141
1.3362141
1.3362141
1.3362141
1.3362141
1.3362141
1.336214
1.336214
1.336214
1.336214
1.336214
1.336214
1.336214
1.336214
1.336214
1.336214
1.336214
1.336214
1.336214
1.336214
1.336214
1.336214
1.336214
1.336214
1.336214
1.336214
1.336214
1.336214
1.336214
1.336214
1.336214
1.336214
1.336214
1.336214
1.336214
1.336214
1.336214
1.336214
1.336214
1.336214
1.336214
1.336214
1.336214
1.336214
1.336214
1.336214
1.336214
1.336214
1.336214
1.336214
1.336214
1.336214
1.336214
1.336214
1.336214
1.3362139
1.3362139
1.3362139
1.3362139
1.3362139
1.3362139
1.3362139
1.3362139
1.3362139
1.3362139
1.3362139
1.3362139
1.3362139
1.3362139
1.3362139
1.3362139
1.3362139
1.3362139
1.3362139
1.3362139
1.3362139
1.3362139
1.3362139
1.3362139
1.3362139
1.3362139
1.3362139
1.3362139
1.3362139
1.3362139
1.3362139
1.3362139
1.3362139
1.3362139
1.3362139
1.3362139
1.3362139
1.3362139
1.3362139
1.3362139
1.3362139
1.3362139
1.3362139
1.3362139
1.3362139
1.3362138
1.3362138
1.3362138
1.3362138
1.3362138
1.3362138
1.3362138
1.3362138
1.3362138
1.3362138
1.3362138
1.3362138
1.3362138
1.3362138
1.3362138
1.3362138
1.3362138
1.3362138
1.3362138
1.3362138
1.3362138
1.3362138
1.3362138
1.3362138
1.3362138
1.3362138
1.3362138
1.3362138
1.3362138
1.3362138
1.3362138
1.3362138
1.3362138
1.3362138
1.3362138
1.3362138
1.3362138
1.3362138
1.3362138
1.3362138
1.3362138
1.3362138
1.3362137
1.3362137
1.3362137
1.3362137
1.3362137
1.3362137
1.3362137
1.3362137
1.3362137
1.3362137
1.3362137
1.3362137
1.3362137
1.3362137
1.3362137
1.3362137
1.3362137
1.3362137
1.3362137
1.3362137
1.3362137
1.3362137
1.3362137
1.3362137
1.3362137
1.3362137
1.3362137
1.3362137
1.3362137
1.3362137
1.3362137
1.3362137
1.3362137
1.3362137
1.3362137
1.3362137
1.3362137
1.3362137
1.3362137
1.3362137
1.3362137
1.3362137
1.3362136
1.3362136
1.3362136
1.3362136
1.3362136
1.3362136
1.3362136
1.3362136
1.3362136
1.3362136
1.3362136
1.3362136
1.3362136
1.3362136
1.3362136
1.3362136
1.3362136
1.3362136
1.3362136
1.3362136
1.3362136
1.3362136
1.3362136
1.3362136
1.3362136
1.3362136
1.3362136
1.3362136
1.3362136
1.3362136
1.3362136
1.3362136
1.3362136
1.3362136
1.3362136
1.3362136
1.3362136
1.3362136
1.3362136
1.3362136
1.3362135
1.3362135
1.3362135
1.3362135
1.3362135
1.3362135
1.3362135
1.3362135
1.3362135
1.3362135
1.3362135
1.3362135
1.3362135
1.3362135
1.3362135
1.3362135
1.3362135
1.3362135
1.3362135
1.3362135
1.3362135
1.3362135
1.3362135
1.3362135
1.3362135
1.3362135
1.3362135
1.3362135
1.3362135
1.3362135
1.3362135
1.3362135
1.3362135
1.3362135
1.3362135
1.3362135
1.3362134
1.3362134
1.3362134
1.3362134
1.3362134
1.3362134
1.3362134
1.3362134
1.3362134
1.3362134
1.3362134
1.3362134
1.3362134
1.3362134
1.3362134
1.3362134
1.3362134
1.3362134
1.3362134
1.3362134
1.3362134
1.3362134
1.3362134
1.3362134
1.3362134
1.3362134
1.3362134
1.3362134
1.3362134
1.3362134
1.3362134
1.3362134
1.3362134
1.3362134
1.3362134
1.3362134
1.3362134
1.3362133
1.3362133
1.3362133
1.3362133
1.3362133
1.3362133
1.3362133
1.3362133
1.3362133
1.3362133
1.3362133
1.3362133
1.3362133
1.3362133
1.3362133
1.3362133
1.3362133
1.3362133
1.3362133
1.3362133
1.3362133
1.3362133
1.3362133
1.3362133
1.3362133
1.3362133
1.3362133
1.3362133
1.3362133
1.3362133
1.3362133
1.3362133
1.3362133
1.3362133
1.3362133
1.3362133
1.3362132
1.3362132
1.3362132
1.3362132
1.3362132
1.3362132
1.3362132
1.3362132
1.3362132
1.3362132
1.3362132
1.3362132
1.3362132
1.3362132
1.3362132
1.3362132
1.3362132
1.3362132
1.3362132
1.3362132
1.3362132
1.3362132
1.3362132
1.3362132
1.3362132
1.3362132
1.3362132
1.3362132
1.3362132
1.3362132
1.3362132
1.3362132
1.3362132
1.3362132
1.3362132
1.3362132
1.3362131
1.3362131
1.3362131
1.3362131
1.3362131
1.3362131
1.3362131
1.3362131
1.3362131
1.3362131
1.3362131
1.3362131
1.3362131
1.3362131
1.3362131
1.3362131
1.3362131
1.3362131
1.3362131
1.3362131
1.3362131
1.3362131
1.3362131
1.3362131
1.3362131
1.3362131
1.3362131
1.3362131
1.3362131
1.3362131
1.336213
1.336213
1.336213
1.336213
1.336213
1.336213
1.336213
1.336213
1.336213
1.336213
1.336213
1.336213
1.336213
1.336213
1.336213
1.336213
1.336213
1.336213
1.336213
1.336213
1.336213
1.336213
1.336213
1.336213
1.336213
1.336213
1.336213
1.336213
1.336213
1.336213
1.336213
1.336213
1.336213
1.3362129
1.3362129
1.3362129
1.3362129
1.3362129
1.3362129
1.3362129
1.3362129
1.3362129
1.3362129
1.3362129
1.3362129
1.3362129
1.3362129
1.3362129
1.3362129
1.3362129
1.3362129
1.3362129
1.3362129
1.3362129
1.3362129
1.3362129
1.3362129
1.3362129
1.3362129
1.3362129
1.3362129
1.3362129
1.3362129
1.3362128
1.3362128
1.3362128
1.3362128
1.3362128
1.3362128
1.3362128
1.3362128
1.3362128
1.3362128
1.3362128
1.3362128
1.3362128
1.3362128
1.3362128
1.3362128
1.3362128
1.3362128
1.3362128
1.3362128
1.3362128
1.3362128
1.3362128
1.3362128
1.3362128
1.3362128
1.3362128
1.3362128
1.3362128
1.3362127
1.3362127
1.3362127
1.3362127
1.3362127
1.3362127
1.3362127
1.3362127
1.3362127
1.3362127
1.3362127
1.3362127
1.3362127
1.3362127
1.3362127
1.3362127
1.3362127
1.3362127
1.3362127
1.3362127
1.3362127
1.3362127
1.3362127
1.3362127
1.3362127
1.3362127
1.3362127
1.3362127
1.3362127
1.3362126
1.3362126
1.3362126
1.3362126
1.3362126
1.3362126
1.3362126
1.3362126
1.3362126
1.3362126
1.3362126
1.3362126
1.3362126
1.3362126
1.3362126
1.3362126
1.3362126
1.3362126
1.3362126
1.3362126
1.3362126
1.3362126
1.3362126
1.3362126
1.3362126
1.3362126
1.3362126
1.3362126
1.3362126
1.3362125
1.3362125
1.3362125
1.3362125
1.3362125
1.3362125
1.3362125
1.3362125
1.3362125
1.3362125
1.3362125
1.3362125
1.3362125
1.3362125
1.3362125
1.3362125
1.3362125
1.3362125
1.3362125
1.3362125
1.3362125
1.3362125
1.3362125
1.3362125
1.3362125
1.3362125
1.3362124
1.3362124
1.3362124
1.3362124
1.3362124
1.3362124
1.3362124
1.3362124
1.3362124
1.3362124
1.3362124
1.3362124
1.3362124
1.3362124
1.3362124
1.3362124
1.3362124
1.3362124
1.3362124
1.3362124
1.3362124
1.3362124
1.3362124
1.3362124
1.3362124
1.3362124
1.3362123
1.3362123
1.3362123
1.3362123
1.3362123
1.3362123
1.3362123
1.3362123
1.3362123
1.3362123
1.3362123
1.3362123
1.3362123
1.3362123
1.3362123
1.3362123
1.3362123
1.3362123
1.3362123
1.3362123
1.3362123
1.3362123
1.3362123
1.3362123
1.3362123
1.3362122
1.3362122
1.3362122
1.3362122
1.3362122
1.3362122
1.3362122
1.3362122
1.3362122
1.3362122
1.3362122
1.3362122
1.3362122
1.3362122
1.3362122
1.3362122
1.3362122
1.3362122
1.3362122
1.3362122
1.3362122
1.3362122
1.3362122
1.3362122
1.3362122
1.3362121
1.3362121
1.3362121
1.3362121
1.3362121
1.3362121
1.3362121
1.3362121
1.3362121
1.3362121
1.3362121
1.3362121
1.3362121
1.3362121
1.3362121
1.3362121
1.3362121
1.3362121
1.3362121
1.3362121
1.3362121
1.3362121
1.3362121
1.3362121
1.3362121
1.336212
1.336212
1.336212
1.336212
1.336212
1.336212
1.336212
1.336212
1.336212
1.336212
1.336212
1.336212
1.336212
1.336212
1.336212
1.336212
1.336212
1.336212
1.336212
1.336212
1.336212
1.336212
1.336212
1.3362119
1.3362119
1.3362119
1.3362119
1.3362119
1.3362119
1.3362119
1.3362119
1.3362119
1.3362119
1.3362119
1.3362119
1.3362119
1.3362119
1.3362119
1.3362119
1.3362119
1.3362119
1.3362119
1.3362119
1.3362119
1.3362119
1.3362119
1.3362119
1.3362118
1.3362118
1.3362118
1.3362118
1.3362118
1.3362118
1.3362118
1.3362118
1.3362118
1.3362118
1.3362118
1.3362118
1.3362118
1.3362118
1.3362118
1.3362118
1.3362118
1.3362118
1.3362118
1.3362118
1.3362118
1.3362118
1.3362118
1.3362117
1.3362117
1.3362117
1.3362117
1.3362117
1.3362117
1.3362117
1.3362117
1.3362117
1.3362117
1.3362117
1.3362117
1.3362117
1.3362117
1.3362117
1.3362117
1.3362117
1.3362117
1.3362117
1.3362117
1.3362117
1.3362117
1.3362116
1.3362116
1.3362116
1.3362116
1.3362116
1.3362116
1.3362116
1.3362116
1.3362116
1.3362116
1.3362116
1.3362116
1.3362116
1.3362116
1.3362116
1.3362116
1.3362116
1.3362116
1.3362116
1.3362116
1.3362116
1.3362116
1.3362115
1.3362115
1.3362115
1.3362115
1.3362115
1.3362115
1.3362115
1.3362115
1.3362115
1.3362115
1.3362115
1.3362115
1.3362115
1.3362115
1.3362115
1.3362115
1.3362115
1.3362115
1.3362115
1.3362115
1.3362115
1.3362115
1.3362114
1.3362114
1.3362114
1.3362114
1.3362114
1.3362114
1.3362114
1.3362114
1.3362114
1.3362114
1.3362114
1.3362114
1.3362114
1.3362114
1.3362114
1.3362114
1.3362114
1.3362114
1.3362114
1.3362114
1.3362113
1.3362113
1.3362113
1.3362113
1.3362113
1.3362113
1.3362113
1.3362113
1.3362113
1.3362113
1.3362113
1.3362113
1.3362113
1.3362113
1.3362113
1.3362113
1.3362113
1.3362113
1.3362113
1.3362113
1.3362112
1.3362112
1.3362112
1.3362112
1.3362112
1.3362112
1.3362112
1.3362112
1.3362112
1.3362112
1.3362112
1.3362112
1.3362112
1.3362112
1.3362112
1.3362112
1.3362112
1.3362112
1.3362112
1.3362112
1.3362111
1.3362111
1.3362111
1.3362111
1.3362111
1.3362111
1.3362111
1.3362111
1.3362111
1.3362111
1.3362111
1.3362111
1.3362111
1.3362111
1.3362111
1.3362111
1.3362111
1.3362111
1.3362111
1.336211
1.336211
1.336211
1.336211
1.336211
1.336211
1.336211
1.336211
1.336211
1.336211
1.336211
1.336211
1.336211
1.336211
1.336211
1.336211
1.336211
1.336211
1.336211
1.336211
1.3362109
1.3362109
1.3362109
1.3362109
1.3362109
1.3362109
1.3362109
1.3362109
1.3362109
1.3362109
1.3362109
1.3362109
1.3362109
1.3362109
1.3362109
1.3362109
1.3362109
1.3362108
1.3362108
1.3362108
1.3362108
1.3362108
1.3362108
1.3362108
1.3362108
1.3362108
1.3362108
1.3362108
1.3362108
1.3362108
1.3362108
1.3362108
1.3362108
1.3362108
1.3362108
1.3362108
1.3362107
1.3362107
1.3362107
1.3362107
1.3362107
1.3362107
1.3362107
1.3362107
1.3362107
1.3362107
1.3362107
1.3362107
1.3362107
1.3362107
1.3362107
1.3362107
1.3362107
1.3362107
1.3362106
1.3362106
1.3362106
1.3362106
1.3362106
1.3362106
1.3362106
1.3362106
1.3362106
1.3362106
1.3362106
1.3362106
1.3362106
1.3362106
1.3362106
1.3362106
1.3362106
1.3362106
1.3362106
1.3362105
1.3362105
1.3362105
1.3362105
1.3362105
1.3362105
1.3362105
1.3362105
1.3362105
1.3362105
1.3362105
1.3362105
1.3362105
1.3362105
1.3362105
1.3362105
1.3362104
1.3362104
1.3362104
1.3362104
1.3362104
1.3362104
1.3362104
1.3362104
1.3362104
1.3362104
1.3362104
1.3362104
1.3362104
1.3362104
1.3362104
1.3362104
1.3362104
1.3362104
1.3362103
1.3362103
1.3362103
1.3362103
1.3362103
1.3362103
1.3362103
1.3362103
1.3362103
1.3362103
1.3362103
1.3362103
1.3362103
1.3362103
1.3362103
1.3362103
1.3362102
1.3362102
1.3362102
1.3362102
1.3362102
1.3362102
1.3362102
1.3362102
1.3362102
1.3362102
1.3362102
1.3362102
1.3362102
1.3362102
1.3362102
1.3362102
1.3362102
1.3362101
1.3362101
1.3362101
1.3362101
1.3362101
1.3362101
1.3362101
1.3362101
1.3362101
1.3362101
1.3362101
1.3362101
1.3362101
1.3362101
1.3362101
1.3362101
1.33621
1.33621
1.33621
1.33621
1.33621
1.33621
1.33621
1.33621
1.33621
1.33621
1.33621
1.33621
1.33621
1.33621
1.33621
1.33621
1.33621
1.3362099
1.3362099
1.3362099
1.3362099
1.3362099
1.3362099
1.3362099
1.3362099
1.3362099
1.3362099
1.3362099
1.3362099
1.3362099
1.3362099
1.3362099
1.3362098
1.3362098
1.3362098
1.3362098
1.3362098
1.3362098
1.3362098
1.3362098
1.3362098
1.3362098
1.3362098
1.3362098
1.3362098
1.3362098
1.3362098
1.3362097
1.3362097
1.3362097
1.3362097
1.3362097
1.3362097
1.3362097
1.3362097
1.3362097
1.3362097
1.3362097
1.3362097
1.3362097
1.3362097
1.3362097
1.3362096
1.3362096
1.3362096
1.3362096
1.3362096
1.3362096
1.3362096
1.3362096
1.3362096
1.3362096
1.3362096
1.3362096
1.3362096
1.3362096
1.3362095
1.3362095
1.3362095
1.3362095
1.3362095
1.3362095
1.3362095
1.3362095
1.3362095
1.3362095
1.3362095
1.3362095
1.3362095
1.3362095
1.3362095
1.3362094
1.3362094
1.3362094
1.3362094
1.3362094
1.3362094
1.3362094
1.3362094
1.3362094
1.3362094
1.3362094
1.3362094
1.3362094
1.3362094
1.3362093
1.3362093
1.3362093
1.3362093
1.3362093
1.3362093
1.3362093
1.3362093
1.3362093
1.3362093
1.3362093
1.3362093
1.3362093
1.3362093
1.3362092
1.3362092
1.3362092
1.3362092
1.3362092
1.3362092
1.3362092
1.3362092
1.3362092
1.3362092
1.3362092
1.3362092
1.3362092
1.3362091
1.3362091
1.3362091
1.3362091
1.3362091
1.3362091
1.3362091
1.3362091
1.3362091
1.3362091
1.3362091
1.3362091
1.3362091
1.3362091
1.336209
1.336209
1.336209
1.336209
1.336209
1.336209
1.336209
1.336209
1.336209
1.336209
1.336209
1.336209
1.336209
1.3362089
1.3362089
1.3362089
1.3362089
1.3362089
1.3362089
1.3362089
1.3362089
1.3362089
1.3362089
1.3362089
1.3362089
1.3362088
1.3362088
1.3362088
1.3362088
1.3362088
1.3362088
1.3362088
1.3362088
1.3362088
1.3362088
1.3362088
1.3362088
1.3362088
1.3362087
1.3362087
1.3362087
1.3362087
1.3362087
1.3362087
1.3362087
1.3362087
1.3362087
1.3362087
1.3362087
1.3362087
1.3362086
1.3362086
1.3362086
1.3362086
1.3362086
1.3362086
1.3362086
1.3362086
1.3362086
1.3362086
1.3362086
1.3362086
1.3362085
1.3362085
1.3362085
1.3362085
1.3362085
1.3362085
1.3362085
1.3362085
1.3362085
1.3362085
1.3362085
1.3362085
1.3362085
1.3362084
1.3362084
1.3362084
1.3362084
1.3362084
1.3362084
1.3362084
1.3362084
1.3362084
1.3362084
1.3362084
1.3362084
1.3362083
1.3362083
1.3362083
1.3362083
1.3362083
1.3362083
1.3362083
1.3362083
1.3362083
1.3362083
1.3362082
1.3362082
1.3362082
1.3362082
1.3362082
1.3362082
1.3362082
1.3362082
1.3362082
1.3362082
1.3362082
1.3362082
1.3362081
1.3362081
1.3362081
1.3362081
1.3362081
1.3362081
1.3362081
1.3362081
1.3362081
1.3362081
1.3362081
1.3362081
1.336208
1.336208
1.336208
1.336208
1.336208
1.336208
1.336208
1.336208
1.336208
1.336208
1.336208
1.3362079
1.3362079
1.3362079
1.3362079
1.3362079
1.3362079
1.3362079
1.3362079
1.3362079
1.3362079
1.3362079
1.3362078
1.3362078
1.3362078
1.3362078
1.3362078
1.3362078
1.3362078
1.3362078
1.3362078
1.3362078
1.3362078
1.3362077
1.3362077
1.3362077
1.3362077
1.3362077
1.3362077
1.3362077
1.3362077
1.3362077
1.3362077
1.3362077
1.3362076
1.3362076
1.3362076
1.3362076
1.3362076
1.3362076
1.3362076
1.3362076
1.3362076
1.3362076
1.3362076
1.3362075
1.3362075
1.3362075
1.3362075
1.3362075
1.3362075
1.3362075
1.3362075
1.3362075
1.3362075
1.3362074
1.3362074
1.3362074
1.3362074
1.3362074
1.3362074
1.3362074
1.3362074
1.3362074
1.3362074
1.3362073
1.3362073
1.3362073
1.3362073
1.3362073
1.3362073
1.3362073
1.3362073
1.3362073
1.3362073
1.3362073
1.3362072
1.3362072
1.3362072
1.3362072
1.3362072
1.3362072
1.3362072
1.3362072
1.3362072
1.3362072
1.3362071
1.3362071
1.3362071
1.3362071
1.3362071
1.3362071
1.3362071
1.3362071
1.3362071
1.3362071
1.336207
1.336207
1.336207
1.336207
1.336207
1.336207
1.336207
1.336207
1.336207
1.336207
1.3362069
1.3362069
1.3362069
1.3362069
1.3362069
1.3362069
1.3362069
1.3362069
1.3362069
1.3362068
1.3362068
1.3362068
1.3362068
1.3362068
1.3362068
1.3362068
1.3362068
1.3362068
1.3362067
1.3362067
1.3362067
1.3362067
1.3362067
1.3362067
1.3362067
1.3362067
1.3362067
1.3362066
1.3362066
1.3362066
1.3362066
1.3362066
1.3362066
1.3362066
1.3362066
1.3362066
1.3362065
1.3362065
1.3362065
1.3362065
1.3362065
1.3362065
1.3362065
1.3362065
1.3362065
1.3362065
1.3362064
1.3362064
1.3362064
1.3362064
1.3362064
1.3362064
1.3362064
1.3362064
1.3362063
1.3362063
1.3362063
1.3362063
1.3362063
1.3362063
1.3362063
1.3362063
1.3362063
1.3362062
1.3362062
1.3362062
1.3362062
1.3362062
1.3362062
1.3362062
1.3362062
1.3362062
1.3362061
1.3362061
1.3362061
1.3362061
1.3362061
1.3362061
1.3362061
1.3362061
1.336206
1.336206
1.336206
1.336206
1.336206
1.336206
1.336206
1.336206
1.3362059
1.3362059
1.3362059
1.3362059
1.3362059
1.3362059
1.3362059
1.3362059
1.3362058
1.3362058
1.3362058
1.3362058
1.3362058
1.3362058
1.3362058
1.3362058
1.3362057
1.3362057
1.3362057
1.3362057
1.3362057
1.3362057
1.3362057
1.3362057
1.3362056
1.3362056
1.3362056
1.3362056
1.3362056
1.3362056
1.3362056
1.3362056
1.3362055
1.3362055
1.3362055
1.3362055
1.3362055
1.3362055
1.3362055
1.3362055
1.3362054
1.3362054
1.3362054
1.3362054
1.3362054
1.3362054
1.3362054
1.3362053
1.3362053
1.3362053
1.3362053
1.3362053
1.3362053
1.3362053
1.3362052
1.3362052
1.3362052
1.3362052
1.3362052
1.3362052
1.3362052
1.3362052
1.3362051
1.3362051
1.3362051
1.3362051
1.3362051
1.3362051
1.3362051
1.336205
1.336205
1.336205
1.336205
1.336205
1.336205
1.336205
1.3362049
1.3362049
1.3362049
1.3362049
1.3362049
1.3362049
1.3362049
1.3362048
1.3362048
1.3362048
1.3362048
1.3362048
1.3362048
1.3362048
1.3362047
1.3362047
1.3362047
1.3362047
1.3362047
1.3362047
1.3362046
1.3362046
1.3362046
1.3362046
1.3362046
1.3362046
1.3362046
1.3362045
1.3362045
1.3362045
1.3362045
1.3362045
1.3362045
1.3362045
1.3362044
1.3362044
1.3362044
1.3362044
1.3362044
1.3362044
1.3362043
1.3362043
1.3362043
1.3362043
1.3362043
1.3362043
1.3362043
1.3362042
1.3362042
1.3362042
1.3362042
1.3362042
1.3362042
1.3362041
1.3362041
1.3362041
1.3362041
1.3362041
1.3362041
1.336204
1.336204
1.336204
1.336204
1.336204
1.336204
1.3362039
1.3362039
1.3362039
1.3362039
1.3362039
1.3362039
1.3362038
1.3362038
1.3362038
1.3362038
1.3362038
1.3362038
1.3362037
1.3362037
1.3362037
1.3362037
1.3362037
1.3362037
1.3362036
1.3362036
1.3362036
1.3362036
1.3362036
1.3362036
1.3362035
1.3362035
1.3362035
1.3362035
1.3362035
1.3362034
1.3362034
1.3362034
1.3362034
1.3362034
1.3362034
1.3362033
1.3362033
1.3362033
1.3362033
1.3362033
1.3362033
1.3362032
1.3362032
1.3362032
1.3362032
1.3362032
1.3362032
1.3362031
1.3362031
1.3362031
1.3362031
1.3362031
1.336203
1.336203
1.336203
1.336203
1.336203
1.3362029
1.3362029
1.3362029
1.3362029
1.3362029
1.3362029
1.3362028
1.3362028
1.3362028
1.3362028
1.3362028
1.3362027
1.3362027
1.3362027
1.3362027
1.3362027
1.3362026
1.3362026
1.3362026
1.3362026
1.3362026
1.3362025
1.3362025
1.3362025
1.3362025
1.3362025
1.3362024
1.3362024
1.3362024
1.3362024
1.3362023
1.3362023
1.3362023
1.3362023
1.3362023
1.3362022
1.3362022
1.3362022
1.3362022
1.3362022
1.3362021
1.3362021
1.3362021
1.3362021
1.3362021
1.336202
1.336202
1.336202
1.336202
1.3362019
1.3362019
1.3362019
1.3362019
1.3362019
1.3362018
1.3362018
1.3362018
1.3362018
1.3362017
1.3362017
1.3362017
1.3362017
1.3362016
1.3362016
1.3362016
1.3362016
1.3362015
1.3362015
1.3362015
1.3362015
1.3362014
1.3362014
1.3362014
1.3362014
1.3362013
1.3362013
1.3362013
1.3362012
1.3362012
1.3362012
1.3362012
1.3362011
1.3362011
1.3362011
1.336201
1.336201
1.336201
1.336201
1.3362009
1.3362009
1.3362009
1.3362008
1.3362008
1.3362008
1.3362007
1.3362007
1.3362007
1.3362006
1.3362006
1.3362006
1.3362005
1.3362005
1.3362005
1.3362004
1.3362004
1.3362003
1.3362003
1.3362003
1.3362002
1.3362002
1.3362001
1.3362001
1.3362001
1.3362
1.3362
1.3361999
1.3361999
1.3361998
1.3361998
1.3361997
1.3361997
1.3361996
1.3361996
1.3361995
1.3361995
1.3361994
1.3361994
1.3361993
1.3361992
1.3361992
1.3361991
1.3361991
1.336199
1.3361989
1.3361989
1.3361988
1.3361987
1.3361987
1.3361986
1.3361985
1.3361984
1.3361984
1.3361983
1.3361982
1.3361981
1.336198
1.3361979
1.3361979
1.3361978
1.3361977
1.3361976
1.3361975
1.3361974
1.3361973
1.3361972
1.3361971
1.3361969
1.3361968
1.3361967
1.3361966
1.3361965
1.3361963
1.3361962
1.3361961
1.3361959
1.3361958
1.3361957
1.3361955
1.3361954
1.3361952
1.336195
1.3361949
1.3361947
1.3361945
1.3361944
1.3361942
1.336194
1.3361938
1.3361936
1.3361934
1.3361932
1.336193
1.3361927
1.3361925
1.3361923
1.336192
1.3361918
1.3361916
1.3361913
1.336191
1.3361908
1.3361905
1.3361902
1.3361899
1.3361896
1.3361893
1.336189
1.3361886
1.3361883
1.3361879
1.3361876
1.3361872
1.3361868
1.3361864
1.336186
1.3361856
1.3361852
1.3361848
1.3361843
1.3361839
1.3361834
1.3361829
1.3361825
1.3361819
1.3361814
1.3361809
1.3361803
1.3361798
1.3361792
1.3361786
1.336178
1.3361774
1.3361767
1.3361761
1.3361754
1.3361747
1.336174
1.3361733
1.3361725
1.3361718
1.336171
1.3361702
1.3361693
1.3361685
1.3361676
1.3361667
1.3361658
1.3361649
1.3361639
1.3361629
1.3361619
1.3361608
1.3361598
1.3361587
1.3361576
1.3361564
1.3361552
1.336154
1.3361528
1.3361515
1.3361502
1.3361489
1.3361475
1.3361461
1.3361447
1.3361432
1.3361417
1.3361402
1.3361386
1.336137
1.3361354
1.3361337
1.336132
1.3361302
1.3361284
1.3361265
1.3361246
1.3361227
1.3361207
1.3361187
1.3361166
1.3361144
1.3361123
1.33611
1.3361078
1.3361054
1.3361031
1.3361006
1.3360981
1.3360956
1.336093
1.3360903
1.3360876
1.3360848
1.336082
1.3360791
1.3360761
1.3360731
1.33607
1.3360669
1.3360636
1.3360604
1.336057
1.3360536
1.3360501
1.3360465
1.3360428
1.3360391
1.3360353
1.3360314
1.3360275
1.3360234
1.3360193
1.3360151
1.3360108
1.3360064
1.336002
1.3359974
1.3359928
1.3359881
1.3359832
1.3359783
1.3359733
1.3359682
1.335963
1.3359577
1.3359523
1.3359468
1.3359412
1.3359355
1.3359297
1.3359238
1.3359178
1.3359116
1.3359054
1.335899
1.3358926
1.335886
1.3358793
1.3358725
1.3358655
1.3358585
1.3358513
1.335844
1.3358366
1.335829
1.3358214
1.3358136
1.3358056
1.3357976
1.3357894
1.3357811
1.3357726
1.335764
1.3357553
1.3357464
1.3357374
1.3357283
1.335719
1.3357096
1.3357
1.3356903
1.3356804
1.3356704
1.3356602
1.3356499
1.3356394
1.3356288
1.335618
1.3356071
1.335596
1.3355848
1.3355734
1.3355619
1.3355501
1.3355383
1.3355262
1.3355141
1.3355017
1.3354892
1.3354765
1.3354637
1.3354506
1.3354375
1.3354241
1.3354106
1.3353969
1.3353831
1.3353691
1.3353549
1.3353405
1.335326
1.3353113
1.3352964
1.3352814
1.3352662
1.3352508
1.3352352
1.3352195
1.3352036
1.3351875
1.3351712
1.3351548
1.3351382
1.3351214
1.3351045
1.3350874
1.3350701
1.3350526
1.335035
1.3350172
1.3349992
1.334981
1.3349627
1.3349442
1.3349256
1.3349067
1.3348877
1.3348686
1.3348492
1.3348297
1.33481
1.3347902
1.3347702
1.3347501
1.3347297
1.3347092
1.3346886
1.3346678
1.3346468
1.3346257
1.3346044
1.334583
1.3345614
1.3345397
1.3345178
1.3344957
1.3344735
1.3344512
1.3344287
1.3344061
1.3343834
1.3343605
1.3343374
1.3343143
1.3342909
1.3342675
1.3342439
1.3342202
1.3341964
1.3341725
1.3341484
1.3341242
1.3340999
1.3340755
1.334051
1.3340263
1.3340016
1.3339767
1.3339517
1.3339267
1.3339015
1.3338762
1.3338509
1.3338254
1.3337999
1.3337742
1.3337485
1.3337227
1.3336969
1.3336709
1.3336449
1.3336188
1.3335927
1.3335664
1.3335402
1.3335138
1.3334874
1.333461
1.3334345
1.3334079
1.3333813
1.3333547
1.333328
1.3333013
1.3332745
1.3332478
1.3332209
1.3331941
1.3331673
1.3331404
1.3331135
1.3330866
1.3330597
1.3330328
1.3330059
1.332979
1.3329521
1.3329252
1.3328983
1.3328714
1.3328445
1.3328176
1.3327908
1.332764
1.3327372
1.3327105
1.3326837
1.3326571
1.3326304
1.3326038
1.3325772
1.3325507
1.3325243
1.3324978
1.3324715
1.3324452
1.3324189
1.3323927
1.3323666
1.3323406
1.3323146
1.3322887
1.3322629
1.3322371
1.3322115
1.3321859
1.3321604
1.332135
1.3321096
1.3320844
1.3320593
1.3320343
1.3320093
1.3319845
1.3319598
1.3319351
1.3319106
1.3318862
1.3318619
1.3318378
1.3318137
1.3317897
1.3317659
1.3317422
1.3317186
1.3316952
1.3316718
1.3316486
1.3316256
1.3316026
1.3315798
1.3315571
1.3315346
1.3315122
1.3314899
1.3314678
1.3314458
1.3314239
1.3314022
1.3313806
1.3313592
1.3313379
1.3313168
1.3312958
1.331275
1.3312543
1.3312337
1.3312133
1.3311931
1.331173
1.3311531
1.3311333
1.3311136
1.3310941
1.3310748
1.3310556
1.3310366
1.3310177
1.330999
1.3309804
1.330962
1.3309438
1.3309256
1.3309077
1.3308899
1.3308722
1.3308547
1.3308374
1.3308202
1.3308032
1.3307863
1.3307695
1.330753
1.3307365
1.3307203
1.3307041
1.3306881
1.3306723
1.3306566
1.3306411
1.3306257
1.3306105
1.3305954
1.3305804
1.3305656
1.3305509
1.3305364
1.330522
1.3305078
1.3304937
1.3304797
1.3304659
1.3304522
1.3304386
1.3304252
1.3304119
1.3303988
1.3303858
1.3303729
1.3303601
1.3303475
1.330335
1.3303226
1.3303104
1.3302983
1.3302863
1.3302744
1.3302627
1.330251
1.3302395
1.3302281
1.3302168
1.3302057
1.3301946
1.3301837
1.3301728
1.3301621
1.3301515
1.330141
1.3301306
1.3301203
1.3301101
1.3301001
1.3300901
1.3300802
1.3300704
1.3300607
1.3300511
1.3300416
1.3300322
1.3300229
1.3300137
1.3300046
1.3299956
1.3299866
1.3299778
1.329969
1.3299603
1.3299517
1.3299432
1.3299348
1.3299264
1.3299181
1.3299099
1.3299018
1.3298938
1.3298858
1.3298779
1.3298701
1.3298623
1.3298546
1.329847
1.3298395
1.329832
1.3298246
1.3298172
1.32981
1.3298027
1.3297956
1.3297885
1.3297815
1.3297745
1.3297676
1.3297607
1.3297539
1.3297472
1.3297405
1.3297338
1.3297272
1.3297207
1.3297142
1.3297078
1.3297014
1.3296951
1.3296888
1.3296826
1.3296764
1.3296703
1.3296642
1.3296582
1.3296522
1.3296462
1.3296403
1.3296344
1.3296286
1.3296228
1.3296171
1.3296113
1.3296057
1.3296
1.3295944
1.3295889
1.3295833
1.3295778
1.3295724
1.3295669
1.3295616
1.3295562
1.3295509
1.3295456
1.3295403
1.3295351
1.3295299
1.3295247
1.3295196
1.3295145
1.3295094
1.3295044
1.3294993
1.3294943
1.3294894
1.3294844
1.3294795
1.3294746
1.3294697
1.3294649
1.3294601
1.3294553
1.3294505
1.3294458
1.3294411
1.3294364
1.3294317
1.3294271
1.3294225
1.3294179
1.3294134
1.3294088
1.3294043
1.3293998
1.3293954
1.329391
1.3293866
1.3293822
1.3293779
1.3293736
1.3293694
1.3293652
1.329361
1.3293569
1.3293529
1.3293489
1.3293449
1.329341
1.3293371
1.3293334
1.3293296
1.3293259
1.3293223
1.3293188
1.3293152
1.3293118
1.3293084
1.329305
1.3293017
1.3292984
1.3292952
1.329292
1.3292888
1.3292856
1.3292825
1.3292794
1.3292763
1.3292733
1.3292702
1.3292671
1.329264
1.3292608
1.3292576
1.3292543
1.3292509
1.3292474
1.3292439
1.3292404
1.3292367
1.3292331
1.3292294
1.3292256
1.3292218
1.329218
1.3292141
1.3292103
1.3292065
1.3292027
1.3291989
1.3291951
1.3291914
1.3291879
1.3291843
1.3291809
1.3291775
1.3291743
1.3291712
1.3291684
1.3291658
1.329163
1.3291601
1.3291569
1.3291535
1.3291496
1.3291442
1.3291356
1.3291197
1.3290871
1.3290151
1.3288468
1.3284478
1.3275446
1.3262196
1.324538
1.3225
1.3201211
1.3174288
1.3144622
1.3112693
1.3079044
1.3044256
1.3008921
1.2973611
1.2938862
1.2905149
1.2872881
1.2842391
1.2813928
1.2787665
1.27637
1.2742066
1.2722736
1.2705636
1.2690652
1.2677645
1.2666459
1.2656923
1.2648863
1.2642107
1.2636492
1.2631865
1.2628083
1.2625016
1.2622547
1.2620575
1.2619012
1.2617783
1.2616828
1.2616092
1.261553
1.2615104
1.2614784
1.2614543
1.2614363
1.2614229
1.2614132
1.2614063
1.2614017
1.2613987
1.2613967
1.261395
1.2613939
1.2613937
1.2613941
1.2613945
1.2613949
1.2613953
1.2613958
1.2613962
1.2613967
1.2613972
1.2613977
1.2613983
1.2613989
1.2613996
1.2614003
1.261401
1.2614019
1.2614027
1.2614036
1.2614046
1.2614056
1.2614066
1.2614076
1.2614087
1.2614097
1.2614107
1.2614118
1.2614128
1.2614137
1.2614147
1.2614156
1.2614164
1.2614172
1.2614179
1.2614186
1.2614193
1.2614199
1.2614204
1.2614209
1.2614213
1.2614217
1.2614221
1.2614224
1.2614227
1.2614229
1.2614231
1.2614233
1.2614235
1.2614236
1.2614237
1.2614238
1.2614238
1.2614239
1.2614239
1.261424
1.261424
1.261424
1.261424
1.261424
1.261424
1.2614239
1.2614239
1.2614239
1.2614238
1.2614238
1.2614238
1.2614237
1.2614237
1.2614236
1.2614236
1.2614235
1.2614235
1.2614234
1.2614234
1.2614233
1.2614233
1.2614232
1.2614232
1.2614232
1.2614231
1.2614231
1.261423
1.261423
1.2614229
1.2614229
1.2614229
1.2614228
1.2614228
1.2614227
1.2614227
1.2614227
1.2614227
1.2614226
1.2614226
1.2614226