/*--------------------------------*- C++ -*----------------------------------*\
  =========                 |
  \\      /  F ield         | OpenFOAM: The Open Source CFD Toolbox
   \\    /   O peration     | Website:  https://openfoam.org
    \\  /    A nd           | Version:  7
     \\/     M anipulation  |
\*---------------------------------------------------------------------------*/
FoamFile
{
    version     2.0;
    format      ascii;
    class       volVectorField;
    location    "0.00295";
    object      U;
}
// * * * * * * * * * * * * * * * * * * * * * * * * * * * * * * * * * * * * * //

dimensions      [0 1 -1 0 0 0 0];

internalField   nonuniform List<vector> 
5000
(
(23.100018 1.3455546e-21 0)
(23.100017 1.8284669e-21 0)
(23.100017 0 0)
(23.100016 0 0)
(23.100016 -8.8268062e-22 0)
(23.100016 9.5875988e-37 -8.4333411e-22)
(23.100016 7.6557214e-22 -1.6319152e-36)
(23.100016 0 2.2702265e-21)
(23.100015 0 8.2787222e-22)
(23.100015 -8.687633e-22 -1.7375266e-21)
(23.100015 -1.7668597e-21 -1.7668597e-21)
(23.100015 8.8679587e-22 8.8679587e-22)
(23.100014 8.8612242e-22 -7.5555342e-36)
(23.100014 -8.8369711e-22 -7.7860166e-36)
(23.100014 0 1.7616321e-21)
(23.100013 -8.7757229e-22 -1.7551446e-21)
(23.100013 -2.9682323e-51 -1.4841162e-51)
(23.100013 8.6992709e-22 -7.6646927e-36)
(23.100013 0 -8.6589205e-22)
(23.100013 8.6257476e-22 1.7251495e-21)
(23.100012 -8.6002798e-22 8.6002798e-22)
(23.100012 -8.5723035e-22 0)
(23.100012 1.7106058e-21 0)
(23.100012 -8.5617791e-22 -8.5617791e-22)
(23.100012 -8.5919272e-22 7.3259177e-36)
(23.100011 -7.1114023e-36 -7.1114023e-36)
(23.100011 8.6605482e-22 -8.6605482e-22)
(23.100011 8.6837107e-22 8.6837107e-22)
(23.100011 -1.7387068e-21 8.6935341e-22)
(23.10001 1.5048094e-35 -8.6796349e-22)
(23.10001 -1.5108883e-35 1.5108883e-35)
(23.10001 8.6041546e-22 -7.3363435e-36)
(23.10001 1.7141522e-21 -8.5707611e-22)
(23.100009 -1.7096675e-21 8.5483373e-22)
(23.100009 1.4777045e-35 8.5232962e-22)
(23.100009 -7.3909835e-35 0)
(23.100009 -2.9460794e-35 0)
(23.100008 1.7042052e-21 -8.5210259e-22)
(23.100008 -1.7127631e-21 -8.5638157e-22)
(23.100008 -1.721886e-21 8.6094298e-22)
(23.100008 1.7220089e-21 -1.4438018e-35)
(23.100007 -5.8796764e-35 -8.5484596e-22)
(23.100007 -1.6934024e-21 8.4670119e-22)
(23.100007 8.3935559e-22 -1.4194273e-35)
(23.100007 2.496369e-21 -8.3212299e-22)
(23.100007 -8.3060913e-22 8.3060913e-22)
(23.100006 -8.3813287e-22 -2.8823614e-35)
(23.100006 -5.8094696e-35 2.9047348e-35)
(23.100006 -1.7105172e-21 -2.9412572e-35)
(23.100006 0 1.4625315e-35)
(23.100005 8.5300719e-22 8.5300719e-22)
(23.100005 1.1973177e-37 0)
(23.100005 -8.3364395e-22 0)
(23.100005 1.6467994e-21 0)
(23.100005 -2.8596885e-35 0)
(23.100004 -1.6525684e-21 0)
(23.100004 8.3922516e-22 0)
(23.100004 -2.9314842e-35 0)
(23.100004 -8.5060533e-22 0)
(23.100003 0 0)
(23.100003 8.3847601e-22 0)
(23.100003 2.8405578e-35 0)
(23.100003 2.3544091e-37 0)
(23.100003 8.2840187e-22 -8.2840187e-22)
(23.100002 -8.3388601e-22 -8.3388601e-22)
(23.100002 2.936955e-35 8.4012128e-22)
(23.100002 8.4371996e-22 -1.4507878e-35)
(23.100002 -8.4313053e-22 -1.4315644e-52)
(23.100001 -8.3993059e-22 8.3993059e-22)
(23.100001 8.3726294e-22 0)
(23.100001 8.3504987e-22 0)
(23.100001 -8.3358281e-22 -8.3358281e-22)
(23.100001 -8.3439149e-22 -8.3439149e-22)
(23.1 1.6737198e-21 0)
(23.1 8.3893697e-22 8.3893697e-22)
(23.1 -8.3943245e-22 2.8987598e-35)
(23.1 0 -8.3866295e-22)
(23.099999 8.3767309e-22 -8.3767309e-22)
(23.099999 -1.1894346e-37 8.3699017e-22)
(23.099999 -8.3685338e-22 1.6737068e-21)
(23.099999 8.3710608e-22 -1.6742122e-21)
(23.099999 -2.3793348e-37 4.7586696e-37)
(23.099998 2.377984e-37 2.5100362e-21)
(23.099998 8.3581087e-22 -1.6716217e-21)
(23.099998 8.3508404e-22 -8.6868329e-35)
(23.099998 2.9073741e-35 1.6701083e-21)
(23.099998 -8.3609401e-22 -2.508282e-21)
(23.099997 0 8.3681453e-22)
(23.099997 -8.3655601e-22 8.3655601e-22)
(23.099997 -8.6720849e-35 -8.3595031e-22)
(23.099997 -2.9193927e-35 8.3509756e-22)
(23.099996 8.3457167e-22 8.3457167e-22)
(23.099996 8.3508446e-22 2.9074797e-35)
(23.099996 -1.6725812e-21 -1.6725812e-21)
(23.099996 -5.7934348e-35 -5.7934348e-35)
(23.099995 8.3689324e-22 -8.3689324e-22)
(23.099995 0 -8.3635862e-22)
(23.099995 0 -2.93412e-35)
(23.099995 -8.3575429e-22 5.8196236e-35)
(23.099995 -5.8010718e-35 1.6730087e-21)
(23.099994 1.6747423e-21 8.3737115e-22)
(23.099994 -8.3774954e-22 -8.3774954e-22)
(23.099994 -1.6754366e-21 1.1904693e-37)
(23.099994 0 8.3745747e-22)
(23.099994 8.3735474e-22 0)
(23.099993 8.3765273e-22 -8.3765273e-22)
(23.099993 -8.3815056e-22 -2.9181548e-35)
(23.099993 -8.3853836e-22 8.3853836e-22)
(23.099993 0 -8.3869757e-22)
(23.099992 0 -8.3874773e-22)
(23.099992 8.3896913e-22 1.6779383e-21)
(23.099992 8.3950108e-22 8.3950108e-22)
(23.099992 0 -2.5209458e-21)
(23.099992 -8.4126324e-22 -8.4126324e-22)
(23.099991 2.9440079e-35 2.5264163e-21)
(23.099991 8.4297489e-22 -8.4297489e-22)
(23.099991 -8.4373736e-22 -8.4373736e-22)
(23.099991 2.3993347e-37 -4.7986694e-37)
(23.09999 -2.9521179e-35 -8.4445865e-22)
(23.09999 -1.7041439e-52 2.5225553e-21)
(23.09999 1.6776639e-21 -5.8648953e-35)
(23.09999 -3.5880149e-37 -1.6832273e-21)
(23.099989 -8.4138253e-22 1.6827651e-21)
(23.099989 0 8.3889007e-22)
(23.099989 -8.372901e-22 -8.372901e-22)
(23.099989 8.3640605e-22 8.3640605e-22)
(23.099989 8.3626348e-22 -8.3626348e-22)
(23.099988 -1.6757881e-21 -1.6757881e-21)
(23.099988 -8.4156854e-22 8.4156854e-22)
(23.099988 1.6952558e-21 2.9270606e-35)
(23.099988 8.5639922e-22 8.5639922e-22)
(23.099987 -8.6728683e-22 1.7345737e-21)
(23.099987 -8.7873465e-22 -8.7873465e-22)
(23.099987 -8.8847229e-22 -8.8847229e-22)
(23.099987 0 -8.9340894e-22)
(23.099987 8.8977444e-22 -3.0978916e-35)
(23.099986 8.7561925e-22 -3.0361647e-35)
(23.099986 -8.4864536e-22 2.9546941e-35)
(23.099986 -2.6233364e-35 1.513122e-21)
(23.099986 6.9010266e-22 6.9010266e-22)
(23.099986 -7.2248071e-22 -7.2248071e-22)
(23.099987 -5.134383e-22 -1.0268766e-21)
(23.099987 0 -6.4269633e-22)
(23.099985 1.0144265e-21 -1.0144265e-21)
(23.099984 8.155901e-22 5.6560335e-35)
(23.099984 -6.6948503e-22 1.3389701e-21)
(23.099984 7.515548e-22 -2.1360472e-37)
(23.099984 -4.795113e-37 2.3975565e-37)
(23.099984 -8.7264265e-22 -1.1806073e-52)
(23.099983 8.6940387e-22 8.6940387e-22)
(23.099983 -8.716595e-22 -6.044869e-35)
(23.099983 6.0844485e-35 1.2168897e-34)
(23.099983 8.64214e-22 8.64214e-22)
(23.099983 -8.5672543e-22 -8.5672543e-22)
(23.099982 8.5802041e-22 8.5802041e-22)
(23.099982 8.6371966e-22 2.9949035e-35)
(23.099982 -8.6543169e-22 -8.6543169e-22)
(23.099982 0 8.6046326e-22)
(23.099981 0 -1.2146836e-37)
(23.099981 -8.4999686e-22 -8.4999686e-22)
(23.099981 -8.4771728e-22 0)
(23.099981 8.5192604e-22 8.5192604e-22)
(23.09998 8.6020145e-22 5.9531843e-35)
(23.09998 -8.6493599e-22 -1.729872e-21)
(23.09998 -5.9882586e-35 8.6349638e-22)
(23.09998 8.6036192e-22 -2.4452957e-37)
(23.09998 -8.5651026e-22 -8.5651026e-22)
(23.099979 -8.5414361e-22 8.5414361e-22)
(23.099979 0 -8.5690965e-22)
(23.099979 8.6378367e-22 8.6378367e-22)
(23.099979 8.6818049e-22 -3.6173804e-34)
(23.099978 0 -2.4068735e-34)
(23.099978 -8.6503692e-22 8.6503692e-22)
(23.099978 -8.6144295e-22 -1.7228859e-21)
(23.099978 0 0)
(23.099977 8.6074856e-22 -5.9692027e-35)
(23.099977 1.8013692e-34 -1.8013692e-34)
(23.099977 -8.6981789e-22 8.6981789e-22)
(23.099977 8.6926189e-22 8.6926189e-22)
(23.099977 8.6695049e-22 5.9752521e-35)
(23.099976 -8.645946e-22 -8.645946e-22)
(23.099976 -5.96207e-35 8.6325798e-22)
(23.099976 5.9534814e-35 5.9534814e-35)
(23.099976 3.7028655e-37 3.7028655e-37)
(23.099975 8.6968709e-22 1.2050022e-34)
(23.099975 -8.6853106e-22 -1.7370621e-21)
(23.099975 -1.2005465e-34 8.6558354e-22)
(23.099975 5.9381883e-35 8.63353e-22)
(23.099974 -5.9437151e-35 -5.9437151e-35)
(23.099974 8.6845419e-22 5.985616e-35)
(23.099974 0 -1.8127292e-34)
(23.099974 0 6.0140275e-35)
(23.099974 -8.6793121e-22 -8.6793121e-22)
(23.099973 -8.650136e-22 0)
(23.099973 0 0)
(23.099973 0 0)
(23.099973 8.6907416e-22 0)
(23.099972 1.5683729e-52 -8.7021037e-22)
(23.099972 -8.6840816e-22 1.8103986e-34)
(23.099972 0 8.6466147e-22)
(23.099972 8.6161031e-22 8.6161031e-22)
(23.099972 -8.6192417e-22 -8.6192417e-22)
(23.099971 -2.4017275e-34 -8.6670025e-22)
(23.099971 1.7401531e-21 1.7401531e-21)
(23.099971 -8.6929864e-22 6.0161431e-35)
(23.099971 -1.7983026e-34 -1.7983026e-34)
(23.09997 -1.2247326e-37 -8.6182896e-22)
(23.09997 -8.586365e-22 -8.586365e-22)
(23.09997 8.5925578e-22 8.5925578e-22)
(23.09997 -1.227716e-37 0)
(23.099969 -1.2017904e-34 8.6825955e-22)
(23.099969 6.0124557e-35 6.0124557e-35)
(23.099969 -8.6606046e-22 -8.6606046e-22)
(23.099969 0 -8.633422e-22)
(23.099969 8.6112015e-22 1.1992508e-34)
(23.099968 5.9488964e-35 8.5958187e-22)
(23.099968 2.3877412e-34 -1.720659e-21)
(23.099968 8.6251002e-22 8.6251002e-22)
(23.099968 0 8.6457412e-22)
(23.099967 -8.6451139e-22 -8.6451139e-22)
(23.099967 -8.6234526e-22 8.6234526e-22)
(23.099967 0 0)
(23.099967 0 0)
(23.099966 0 0)
(23.099966 8.5599918e-22 8.5599918e-22)
(23.099966 5.9394063e-35 -8.582106e-22)
(23.099966 -8.5933449e-22 -1.718669e-21)
(23.099966 0 8.5756303e-22)
(23.099965 0 -5.9402893e-35)
(23.099965 8.517076e-22 8.517076e-22)
(23.099965 8.4942937e-22 8.4942937e-22)
(23.099965 -8.4998977e-22 -1.6999795e-21)
(23.099964 -8.5176017e-22 2.420848e-37)
(23.099964 0 -2.4232901e-37)
(23.099964 8.5125322e-22 8.5125322e-22)
(23.099964 8.4819765e-22 8.4819765e-22)
(23.099964 -8.4560736e-22 -1.6912147e-21)
(23.099963 -8.45114e-22 1.2009792e-37)
(23.099963 0 -1.7636526e-34)
(23.099963 8.4744854e-22 8.4744854e-22)
(23.099963 -2.3476934e-34 -4.6953868e-34)
(23.099962 -5.8382977e-35 -1.1676595e-34)
(23.099962 8.3827113e-22 8.3827113e-22)
(23.099962 -8.3653948e-22 -8.3653948e-22)
(23.099962 -8.39082e-22 0)
(23.099962 0 -8.415625e-22)
(23.099961 8.4063472e-22 8.4063472e-22)
(23.099961 -1.1628778e-34 8.3671014e-22)
(23.099961 8.3194798e-22 -8.3194798e-22)
(23.099961 1.1482251e-34 0)
(23.099961 -1.6529296e-21 -8.2646481e-22)
(23.09996 8.2927547e-22 8.2927547e-22)
(23.09996 -1.1553389e-34 8.3298919e-22)
(23.09996 -2.8957104e-34 -2.8957104e-34)
(23.09996 -5.7586712e-35 -1.6641908e-21)
(23.099959 -8.2939069e-22 -1.6587814e-21)
(23.099959 8.2713965e-22 2.4814189e-21)
(23.099959 8.2488018e-22 1.6497604e-21)
(23.099959 0 0)
(23.099959 -8.1974962e-22 -1.6394992e-21)
(23.099958 -8.1749078e-22 -8.1749078e-22)
(23.099958 0 8.1803674e-22)
(23.099958 8.2084265e-22 8.2084265e-22)
(23.099958 8.2152586e-22 8.2152586e-22)
(23.099957 -1.6350251e-21 -1.6350251e-21)
(23.099957 -8.1255224e-22 -1.6251045e-21)
(23.099957 8.075714e-22 8.075714e-22)
(23.099957 8.0390183e-22 1.6078037e-21)
(23.099957 2.2332531e-34 2.2332531e-34)
(23.099956 -8.0987433e-22 -1.6197487e-21)
(23.099956 8.1195155e-22 8.1195155e-22)
(23.099956 -5.609224e-35 -1.1218448e-34)
(23.099956 -8.040148e-22 -8.040148e-22)
(23.099956 7.9881917e-22 1.5976383e-21)
(23.099955 -5.5237612e-35 -7.9488781e-22)
(23.099955 5.534957e-35 1.1069914e-34)
(23.099955 -2.2695407e-37 7.9852363e-22)
(23.099955 -5.5317758e-35 -8.0095497e-22)
(23.099955 7.9976144e-22 7.9976144e-22)
(23.099954 0 -1.592558e-21)
(23.099954 0 3.3055216e-34)
(23.099954 -7.8895491e-22 1.5779098e-21)
(23.099954 -7.8779561e-22 -1.5755912e-21)
(23.099954 0 -5.4637912e-35)
(23.099953 0 7.9095829e-22)
(23.099953 0 0)
(23.099953 0 0)
(23.099953 7.8357149e-22 7.8357149e-22)
(23.099953 5.3851617e-35 -7.8133415e-22)
(23.099952 -1.5631836e-21 -1.5631836e-21)
(23.099952 3.3333968e-37 7.8188982e-22)
(23.099952 7.8030432e-22 -2.2177583e-37)
(23.099952 7.7777756e-22 7.7777756e-22)
(23.099952 -1.0751255e-34 7.7436269e-22)
(23.099951 -1.0692448e-34 -7.7170678e-22)
(23.099951 -1.0970959e-37 0)
(23.099951 -7.7295438e-22 -7.7295438e-22)
(23.099951 -7.7250966e-22 -7.7250966e-22)
(23.099951 -7.7008173e-22 0)
(23.09995 1.5320618e-21 1.5320618e-21)
(23.09995 2.2878359e-21 7.6261197e-22)
(23.09995 -7.6193358e-22 -1.5238672e-21)
(23.09995 -1.5283809e-21 5.2887222e-35)
(23.09995 0 -2.176203e-37)
(23.099949 7.6319286e-22 7.6319286e-22)
(23.099949 7.5926594e-22 7.5926594e-22)
(23.099949 -7.5503707e-22 -7.5503707e-22)
(23.099949 2.13751e-37 7.5206946e-22)
(23.099949 -3.2144242e-37 -7.5398332e-22)
(23.099948 2.1498626e-37 4.2997251e-37)
(23.099948 7.5604348e-22 1.512087e-21)
(23.099948 7.526327e-22 -7.526327e-22)
(23.099948 -7.4734849e-22 -7.4734849e-22)
(23.099948 -1.4855794e-21 -7.427897e-22)
(23.099947 7.4204001e-22 -1.0291942e-34)
(23.099947 -5.0829059e-53 7.4640533e-22)
(23.099947 7.4901173e-22 0)
(23.099947 2.070492e-34 0)
(23.099947 -1.486174e-21 -7.4308698e-22)
(23.099946 0 1.0234402e-34)
(23.099946 0 -2.0333205e-34)
(23.099946 1.4666953e-21 -1.0192224e-34)
(23.099946 -4.103278e-34 7.3884984e-22)
(23.099946 -1.4848238e-21 -7.424119e-22)
(23.099945 0 1.0525365e-37)
(23.099945 7.3572926e-22 7.3572926e-22)
(23.099945 7.3021824e-22 0)
(23.099945 -7.2569687e-22 0)
(23.099945 1.0298437e-37 0)
(23.099945 -1.0110804e-34 0)
(23.099944 1.0411528e-37 0)
(23.099944 7.3476941e-22 0)
(23.099944 -7.3365862e-22 0)
(23.099944 -7.3070474e-22 -7.3070474e-22)
(23.099944 0 0)
(23.099943 7.2429793e-22 7.2429793e-22)
(23.099943 -9.9998823e-35 0)
(23.099943 -7.1675854e-22 -7.1675854e-22)
(23.099943 1.4355264e-21 -1.9910456e-34)
(23.099943 -2.0053547e-34 7.2292159e-22)
(23.099943 -7.2541604e-22 0)
(23.099942 -2.0075071e-34 0)
(23.099942 -1.4359183e-21 -7.1795913e-22)
(23.099942 1.4213914e-21 -9.867303e-35)
(23.099942 7.0519567e-22 7.0519567e-22)
(23.099942 -7.0661725e-22 0)
(23.099942 -1.0148121e-37 0)
(23.099941 -7.2005537e-22 -7.2005537e-22)
(23.099941 0 -7.199092e-22)
(23.099941 0 7.1460562e-22)
(23.099941 7.0856303e-22 7.0856303e-22)
(23.099941 -9.7448808e-35 0)
(23.09994 -1.4009587e-21 -7.0047934e-22)
(23.09994 1.0031121e-37 1.0031121e-37)
(23.09994 2.1408897e-21 7.1362989e-22)
(23.09994 -7.1663773e-22 -7.1663773e-22)
(23.09994 -7.1268972e-22 -7.1268972e-22)
(23.09994 1.4145119e-21 7.0725594e-22)
(23.099939 -7.0190724e-22 7.0190724e-22)
(23.099939 6.9813811e-22 0)
(23.099939 1.3995958e-21 -6.9979789e-22)
(23.099939 -7.0558348e-22 -7.0558348e-22)
(23.099939 -7.0996819e-22 7.0996819e-22)
(23.099938 -7.0976039e-22 7.0976039e-22)
(23.099938 7.0603057e-22 0)
(23.099938 1.8065773e-52 -7.0179275e-22)
(23.099938 -6.9772971e-22 -6.9772971e-22)
(23.099938 6.9625513e-22 6.9625513e-22)
(23.099938 -7.0008007e-22 7.0008007e-22)
(23.099937 7.0441661e-22 0)
(23.099937 1.9549677e-34 0)
(23.099937 1.9976685e-37 0)
(23.099937 6.9884221e-22 0)
(23.099937 -1.3899117e-21 0)
(23.099937 6.9387262e-22 0)
(23.099936 1.9382874e-34 0)
(23.099936 -1.9478936e-34 0)
(23.099936 -7.0256551e-22 -7.0256551e-22)
(23.099936 -1.3982494e-21 -4.2094437e-51)
(23.099936 2.0827462e-21 6.9424875e-22)
(23.099936 1.9130876e-34 0)
(23.099935 -3.8215161e-34 0)
(23.099935 1.9232621e-34 0)
(23.099935 -1.3994887e-21 -6.9974436e-22)
(23.099935 1.4025515e-21 -9.7265502e-35)
(23.099935 -1.9366653e-34 6.9815933e-22)
(23.099934 -1.3884508e-21 -6.942254e-22)
(23.099934 0 9.5813045e-35)
(23.099934 0 -9.7775977e-38)
(23.099934 6.9184171e-22 -9.6055339e-35)
(23.099934 -9.6625965e-35 6.9666474e-22)
(23.099934 -6.9826978e-22 -6.9826978e-22)
(23.099933 -6.9597037e-22 6.9597037e-22)
(23.099933 6.9218606e-22 -3.8460932e-34)
(23.099933 2.0655517e-21 -6.8851722e-22)
(23.099933 -6.8752772e-22 6.8752772e-22)
(23.099933 -6.9174079e-22 0)
(23.099933 -1.9771167e-37 0)
(23.099932 -6.9600358e-22 -6.9600358e-22)
(23.099932 0 -9.6251091e-35)
(23.099932 1.3771035e-21 6.8855177e-22)
(23.099932 1.3690128e-21 -6.8450642e-22)
(23.099932 -6.8477254e-22 -6.8477254e-22)
(23.099932 -1.3810722e-21 0)
(23.099931 -6.9495421e-22 6.9495421e-22)
(23.099931 1.3897626e-21 6.9488132e-22)
(23.099931 1.3829288e-21 -6.9146441e-22)
(23.099931 -1.3719843e-21 -1.9038888e-34)
(23.099931 -1.3629604e-21 -7.1613131e-52)
(23.099931 0 -9.4710121e-35)
(23.09993 1.3775038e-21 6.8875188e-22)
(23.09993 -6.940242e-22 -6.940242e-22)
(23.09993 -1.3888395e-21 -3.6194713e-51)
(23.09993 6.9096379e-22 -9.5933447e-35)
(23.09993 6.8579726e-22 -6.8579726e-22)
(23.09993 -9.6819322e-38 0)
(23.099929 9.4595657e-35 0)
(23.099929 6.8739157e-22 6.8739157e-22)
(23.099929 -6.9292092e-22 9.8469986e-38)
(23.099929 -6.9385818e-22 -2.8871011e-34)
(23.099929 6.9059988e-22 6.9059988e-22)
(23.099929 -9.5142866e-35 0)
(23.099928 -9.6858932e-38 0)
(23.099928 -9.4426944e-35 -6.8080999e-22)
(23.099928 -6.8613732e-22 1.9023416e-34)
(23.099928 6.9208662e-22 6.9208662e-22)
(23.099928 -2.8896165e-34 0)
(23.099927 -9.5879275e-35 0)
(23.099927 -1.9056625e-34 0)
(23.099927 -6.8228036e-22 -6.8228036e-22)
(23.099927 6.8014894e-22 9.6654978e-38)
(23.099927 -9.5022929e-35 6.8440575e-22)
(23.099927 -1.9155833e-34 -6.9091334e-22)
(23.099926 -9.8586948e-38 6.9374397e-22)
(23.099926 -1.3819544e-21 -1.9206701e-34)
(23.099926 -6.8713908e-22 -1.3742782e-21)
(23.099926 6.8317642e-22 6.8317642e-22)
(23.099926 1.3612558e-21 2.8349523e-34)
(23.099926 -9.4871274e-35 9.4871274e-35)
(23.099925 -1.3780407e-21 -9.5663621e-35)
(23.099925 -6.925143e-22 -6.925143e-22)
(23.099925 1.3819127e-21 0)
(23.099925 6.8786821e-22 0)
(23.099925 -6.8484445e-22 6.8484445e-22)
(23.099925 -6.8285367e-22 9.4807438e-35)
(23.099924 -1.9005599e-34 -1.9005599e-34)
(23.099924 6.8824573e-22 -2.426921e-53)
(23.099924 0 -6.9018756e-22)
(23.099924 0 6.8922567e-22)
(23.099924 6.8667153e-22 6.8667153e-22)
(23.099924 0 0)
(23.099923 -6.8406679e-22 -6.8406679e-22)
(23.099923 6.8644227e-22 -9.5305679e-35)
(23.099923 9.7938102e-38 6.8917812e-22)
(23.099923 -1.9128745e-34 0)
(23.099923 0 0)
(23.099923 -6.8519412e-22 -6.8519412e-22)
(23.099922 6.8475492e-22 1.9461905e-37)
(23.099922 6.8663486e-22 -4.2515781e-53)
(23.099922 -1.3769452e-21 -6.884726e-22)
(23.099922 -6.8725576e-22 6.8725576e-22)
(23.099922 6.8389057e-22 -9.4757027e-35)
(23.099922 0 9.4437465e-35)
(23.099921 0 -1.8848793e-34)
(23.099921 -6.8371253e-22 -6.8371253e-22)
(23.099921 1.9112515e-34 6.8794049e-22)
(23.099921 6.8825878e-22 -1.9111577e-34)
(23.099921 0 1.9029718e-34)
(23.099921 0 -1.8873434e-34)
(23.09992 -6.7454132e-22 -6.7454132e-22)
(23.09992 2.8127541e-34 6.7506812e-22)
(23.09992 6.8185702e-22 -1.8933813e-34)
(23.09992 0 9.5741654e-35)
(23.09992 0 0)
(23.09992 0 -6.8544108e-22)
(23.099919 0 6.8099576e-22)
(23.099919 0 -9.3894608e-35)
(23.099919 0 9.5818481e-38)
(23.099919 0 -9.4261144e-35)
(23.099919 0 9.5351619e-35)
(23.099919 1.3787023e-21 6.8935116e-22)
(23.099918 3.8117103e-34 -6.8670063e-22)
(23.099918 -6.8268142e-22 -6.8268142e-22)
(23.099918 6.7872187e-22 6.7872187e-22)
(23.099918 -6.7588441e-22 6.7588441e-22)
(23.099918 6.7728414e-22 0)
(23.099918 -1.8963094e-34 -6.8221326e-22)
(23.099917 -6.8589614e-22 -6.8589614e-22)
(23.099917 -1.9049019e-34 0)
(23.099917 -6.8370968e-22 6.8370968e-22)
(23.099917 0 -9.4510939e-35)
(23.099917 0 9.6368083e-38)
(23.099917 6.7776306e-22 9.4004341e-35)
(23.099916 1.8908262e-34 -6.8093688e-22)
(23.099916 -6.8368163e-22 6.8368163e-22)
(23.099916 0 9.4871468e-35)
(23.099916 0 -1.8960983e-34)
(23.099916 0 -6.8057313e-22)
(23.099916 0 -6.7896578e-22)
(23.099915 0 1.3594618e-21)
(23.099915 0 -9.6835181e-38)
(23.099915 0 9.4650223e-35)
(23.099915 1.3636525e-21 6.8182624e-22)
(23.099915 -5.6570113e-34 -6.7954384e-22)
(23.099915 -1.3552587e-21 9.408209e-35)
(23.099914 6.7796319e-22 6.7796319e-22)
(23.099914 9.66616e-38 0)
(23.099914 6.8191345e-22 0)
(23.099914 -3.7757006e-34 0)
(23.099914 -1.3566548e-21 -6.7832742e-22)
(23.099914 -6.7561698e-22 -6.7561698e-22)
(23.099914 1.1767617e-52 6.745784e-22)
(23.099913 2.0327111e-21 6.7757035e-22)
(23.099913 0 0)
(23.099913 -1.3596482e-21 -6.7982411e-22)
(23.099913 0 -6.7803887e-22)
(23.099913 0 6.7472801e-22)
(23.099913 1.3447718e-21 6.7238592e-22)
(23.099912 -1.8689377e-34 0)
(23.099912 -2.0307139e-21 -6.7690463e-22)
(23.099912 6.7898677e-22 -6.7898677e-22)
(23.099912 6.7809906e-22 6.7809906e-22)
(23.099912 -6.751816e-22 1.874845e-34)
(23.099912 6.7253235e-22 -6.7253235e-22)
(23.099911 -6.7217132e-22 0)
(23.099911 -1.8721885e-34 0)
(23.099911 6.7752298e-22 0)
(23.099911 -6.7650903e-22 0)
(23.099911 0 6.7346307e-22)
(23.099911 -6.7000718e-22 -1.8585723e-34)
(23.09991 6.6844303e-22 -6.6844303e-22)
(23.09991 1.3440913e-21 6.7204564e-22)
(23.09991 -6.7514913e-22 9.373774e-35)
(23.09991 -6.7500357e-22 -9.3813453e-35)
(23.09991 -6.7246537e-22 2.1575942e-52)
(23.09991 -6.6746752e-22 6.6746752e-22)
(23.099909 1.3272531e-21 6.6362656e-22)
(23.099909 6.6489687e-22 -1.3297937e-21)
(23.099909 -6.7101806e-22 -9.3164181e-35)
(23.099909 0 9.3570324e-35)
(23.099909 6.7340536e-22 -6.7340536e-22)
(23.099909 -6.7007604e-22 0)
(23.099908 -6.6498846e-22 6.6498846e-22)
(23.099908 1.983885e-21 6.6129499e-22)
(23.099908 1.8837096e-37 -6.6277139e-22)
(23.099908 -1.3372662e-21 -1.8547607e-34)
(23.099908 6.7244772e-22 6.7244772e-22)
(23.099908 9.3276671e-35 0)
(23.099907 6.688117e-22 0)
(23.099907 -1.8889114e-37 -6.6460163e-22)
(23.099907 -1.3223899e-21 9.1706376e-35)
(23.099907 6.6146692e-22 6.6146692e-22)
(23.099907 0 0)
(23.099907 -1.8589423e-34 -6.6945463e-22)
(23.099907 -9.5145913e-38 9.5145913e-38)
(23.099906 -6.6708818e-22 -1.8523711e-34)
(23.099906 6.6359335e-22 -9.2039032e-35)
(23.099906 -1.8340678e-34 6.6049668e-22)
(23.099906 -9.1549796e-35 -6.60066e-22)
(23.099906 -9.4296931e-38 9.4296931e-38)
(23.099906 -6.6665437e-22 -1.8511665e-34)
(23.099905 6.6688756e-22 -6.6688756e-22)
(23.099905 1.6115166e-52 6.6481226e-22)
(23.099905 -1.8375296e-34 1.8375296e-34)
(23.099905 -9.3656827e-38 9.3656827e-38)
(23.099905 -1.3171273e-21 -9.143501e-35)
(23.099905 -9.173873e-35 -6.614282e-22)
(23.099904 6.6390599e-22 6.6390599e-22)
(23.099904 0 0)
(23.099904 0 -3.6784297e-34)
(23.099904 -6.6043209e-22 -9.1600572e-35)
(23.099904 -2.7419737e-34 -2.7419737e-34)
(23.099904 6.5921642e-22 -9.3680288e-38)
(23.099904 -6.6044602e-22 -6.6044602e-22)
(23.099903 9.1779053e-35 6.6104163e-22)
(23.099903 1.5980024e-52 1.5980024e-52)
(23.099903 -9.1570564e-35 -9.1570564e-35)
(23.099903 6.5882299e-22 1.8294204e-34)
(23.099903 6.5852274e-22 -9.1429331e-35)
(23.099903 9.1319251e-35 1.3168076e-21)
(23.099902 -6.5768104e-22 -6.5768104e-22)
(23.099902 0 -6.5565879e-22)
(23.099902 0 -9.0770568e-35)
(23.099902 6.537367e-22 9.0764836e-35)
(23.099902 -6.5539596e-22 1.3107919e-21)
(23.099902 5.4671599e-34 -6.567381e-22)
(23.099902 6.556994e-22 -6.556994e-22)
(23.099901 -6.5330835e-22 5.9889131e-53)
(23.099901 0 0)
(23.099901 6.4955943e-22 -8.1440462e-53)
(23.099901 6.516437e-22 -6.516437e-22)
(23.099901 -6.5400869e-22 6.5400869e-22)
(23.099901 -6.5346607e-22 1.3818285e-52)
(23.0999 0 -9.0354338e-35)
(23.0999 6.4886054e-22 -9.2208628e-38)
(23.0999 6.4701224e-22 -6.4701224e-22)
(23.0999 -1.2970853e-21 1.2970853e-21)
(23.0999 -6.503739e-22 1.8059589e-34)
(23.0999 6.5030861e-22 -6.5030861e-22)
(23.0999 6.4893619e-22 9.0006115e-35)
(23.099899 8.9577594e-35 -8.9577594e-35)
(23.099899 6.4349161e-22 6.4349161e-22)
(23.099899 1.790326e-34 -6.4474407e-22)
(23.099899 -1.2947335e-21 1.2594167e-53)
(23.099899 0 -2.702132e-34)
(23.099899 0 1.7965051e-34)
(23.099898 0 -1.7838303e-34)
(23.099898 6.3890021e-22 -1.7740987e-34)
(23.099898 6.3802281e-22 -1.4477223e-52)
(23.099898 0 0)
(23.099898 -6.4555678e-22 6.4555678e-22)
(23.099898 -8.9279795e-35 0)
(23.099898 6.4149087e-22 0)
(23.099897 0 -6.3638881e-22)
(23.099897 0 -1.7572197e-34)
(23.099897 -6.3577334e-22 6.3577334e-22)
(23.099897 -8.9196279e-35 0)
(23.099897 8.956531e-35 0)
(23.099897 -6.4170975e-22 -1.2834195e-21)
(23.099896 6.3525366e-22 -5.288308e-34)
(23.099896 -2.6099248e-34 1.2544886e-21)
(23.099896 -6.2253226e-22 -6.2253226e-22)
(23.099896 0 8.9189304e-38)
(23.099896 -6.3683631e-22 -8.8418386e-35)
(23.099896 -8.9326399e-35 -6.4337631e-22)
(23.099896 6.4339823e-22 0)
(23.099895 -6.3905627e-22 0)
(23.099895 6.3525723e-22 0)
(23.099895 6.3213862e-22 -6.3213862e-22)
(23.099895 -6.3007215e-22 -1.7477942e-34)
(23.099895 0 6.3102629e-22)
(23.099895 6.336703e-22 0)
(23.099895 6.360206e-22 0)
(23.099894 -6.3746377e-22 -6.3746377e-22)
(23.099894 -6.3773584e-22 9.0627714e-38)
(23.099894 0 6.3662118e-22)
(23.099894 -6.3463538e-22 0)
(23.099894 6.3291295e-22 0)
(23.099894 6.3097057e-22 -6.3097057e-22)
(23.099894 -6.2983814e-22 -1.7471451e-34)
(23.099893 -1.2627583e-21 -1.7541114e-34)
(23.099893 3.5167008e-34 1.7583504e-34)
(23.099893 1.9012595e-21 6.3375317e-22)
(23.099893 6.2050988e-53 -6.3313181e-22)
(23.099893 -6.3182047e-22 1.7535418e-34)
(23.099893 -1.2616457e-21 -1.7507731e-34)
(23.099893 3.5001076e-34 1.7500538e-34)
(23.099892 1.2637298e-21 6.3186492e-22)
(23.099892 -6.3278791e-22 0)
(23.099892 6.331842e-22 0)
(23.099892 -6.3317335e-22 -6.3317335e-22)
(23.099892 -6.330544e-22 -1.0831201e-52)
(23.099892 1.2660038e-21 6.3300192e-22)
(23.099892 0 0)
(23.099891 0 0)
(23.099891 -1.2648568e-21 -6.3242841e-22)
(23.099891 -2.0025972e-52 -4.0051944e-52)
(23.099891 1.2628788e-21 6.3143939e-22)
(23.099891 0 0)
(23.099891 0 0)
(23.099891 -1.2606167e-21 -6.3030837e-22)
(23.09989 6.8682348e-53 1.373647e-52)
(23.09989 1.2600259e-21 6.3001295e-22)
(23.09989 0 0)
(23.09989 0 0)
(23.09989 -1.2620096e-21 -6.3100478e-22)
(23.09989 -6.3125335e-22 8.9706496e-38)
(23.09989 1.2619788e-21 6.309894e-22)
(23.099889 6.3021587e-22 -6.3021587e-22)
(23.099889 0 1.7474601e-34)
(23.099889 -1.2552906e-21 -1.743738e-34)
(23.099889 3.4790553e-34 1.7395276e-34)
(23.099889 1.2511708e-21 6.2558542e-22)
(23.099889 -6.2476082e-22 0)
(23.099889 0 0)
(23.099888 6.2307266e-22 0)
(23.099888 -6.2358649e-22 0)
(23.099888 8.8822735e-38 0)
(23.099888 6.2685487e-22 -6.2685487e-22)
(23.099888 -6.2865448e-22 1.744755e-34)
(23.099888 6.2938876e-22 6.2938876e-22)
(23.099888 6.2864323e-22 0)
(23.099887 -6.2716981e-22 0)
(23.099887 -6.2552347e-22 0)
(23.099887 1.7336061e-34 0)
(23.099887 6.2313502e-22 0)
(23.099887 -6.2201531e-22 0)
(23.099887 -1.7273418e-34 0)
(23.099887 6.2333579e-22 -6.2333579e-22)
(23.099886 -6.2514252e-22 3.470016e-34)
(23.099886 6.2630291e-22 6.2630291e-22)
(23.099886 6.2648894e-22 0)
(23.099886 -6.2586257e-22 0)
(23.099886 -6.2467702e-22 0)
(23.099886 1.7318546e-34 0)
(23.099886 6.2278649e-22 0)
(23.099885 -6.2197198e-22 0)
(23.099885 8.8388102e-38 0)
(23.099885 6.2293708e-22 -6.2293708e-22)
(23.099885 -6.2411064e-22 1.7321441e-34)
(23.099885 6.2427998e-22 6.2427998e-22)
(23.099885 6.234047e-22 0)
(23.099885 -6.2245401e-22 0)
(23.099885 -1.2433827e-21 -6.2169135e-22)
(23.099884 3.4512619e-34 1.7256309e-34)
(23.099884 1.242138e-21 6.2106902e-22)
(23.099884 -6.2148859e-22 0)
(23.099884 8.8365523e-38 0)
(23.099884 1.2437531e-21 0)
(23.099884 1.7673706e-37 -6.2183823e-22)
(23.099884 -6.2183311e-22 -1.7275905e-34)
(23.099883 0 6.2184615e-22)
(23.099883 6.2183283e-22 0)
(23.099883 0 0)
(23.099883 -6.2173476e-22 0)
(23.099883 0 0)
(23.099883 0 0)
(23.099883 0 0)
(23.099883 -6.2136514e-22 0)
(23.099882 -1.0013504e-53 -6.2122282e-22)
(23.099882 6.210601e-22 8.8257948e-38)
(23.099882 0 6.2085885e-22)
(23.099882 6.2061239e-22 0)
(23.099882 -1.7224631e-34 0)
(23.099882 -6.1991832e-22 0)
(23.099882 0 0)
(23.099881 0 0)
(23.099881 0 0)
(23.099881 -6.180904e-22 0)
(23.099881 1.7153112e-34 -6.1772926e-22)
(23.099881 6.1740015e-22 -8.7737838e-38)
(23.099881 0 6.1711999e-22)
(23.099881 6.1682453e-22 0)
(23.09988 1.7110078e-34 0)
(23.09988 -6.161016e-22 0)
(23.09988 0 -6.1568012e-22)
(23.09988 6.1521874e-22 3.4158058e-34)
(23.09988 -6.146535e-22 6.146535e-22)
(23.09988 3.411694e-34 0)
(23.09988 6.1328239e-22 -6.1328239e-22)
(23.09988 -6.1251808e-22 -1.7017113e-34)
(23.099879 0 6.1177525e-22)
(23.099879 -6.1113401e-22 0)
(23.099879 -1.6954535e-34 0)
(23.099879 6.1009684e-22 -6.1009684e-22)
(23.099879 0 -6.0970937e-22)
(23.099879 6.0932371e-22 6.0932371e-22)
(23.099879 -6.0889672e-22 6.0889672e-22)
(23.099879 -3.3791569e-34 0)
(23.099878 6.0803221e-22 0)
(23.099878 -3.3734612e-34 0)
(23.099878 -8.6279404e-38 0)
(23.099878 1.6854697e-34 6.0667206e-22)
(23.099878 -8.614565e-38 -8.614565e-38)
(23.099878 -6.0570749e-22 -1.211415e-21)
(23.099878 0 -6.0520581e-22)
(23.099877 6.0469163e-22 1.2093833e-21)
(23.099877 -1.6767857e-34 1.2083288e-21)
(23.099877 -1.675286e-34 -6.0362402e-22)
(23.099877 2.7508256e-53 -6.0307094e-22)
(23.099877 -1.6730378e-34 0)
(23.099877 0 0)
(23.099877 -1.202678e-21 0)
(23.099877 -1.6681315e-34 0)
(23.099876 6.0012697e-22 -6.0012697e-22)
(23.099876 -5.9950545e-22 -1.6655593e-34)
(23.099876 1.6621047e-34 5.9887465e-22)
(23.099876 5.9823434e-22 0)
(23.099876 5.9758497e-22 0)
(23.099876 1.6575476e-34 0)
(23.099876 -1.6556992e-34 0)
(23.099876 5.9558799e-22 0)
(23.099875 -5.9490672e-22 0)
(23.099875 -5.9421872e-22 0)
(23.099875 0 0)
(23.099875 -5.9282185e-22 0)
(23.099875 1.6441811e-34 0)
(23.099875 5.9139881e-22 0)
(23.099875 0 0)
(23.099874 0 0)
(23.099874 0 0)
(23.099874 -1.1769555e-21 -5.8847776e-22)
(23.099874 6.5280552e-34 3.2640276e-34)
(23.099874 1.1739583e-21 5.8697915e-22)
(23.099874 0 0)
(23.099874 0 0)
(23.099874 0 5.8468018e-22)
(23.099873 0 -1.6213668e-34)
(23.099873 0 8.2864032e-38)
(23.099873 0 -5.8229349e-22)
(23.099873 0 -5.8145707e-22)
(23.099873 -1.1611795e-21 -3.2235395e-34)
(23.099873 3.2210069e-34 1.6105035e-34)
(23.099873 1.1574926e-21 5.7874631e-22)
(23.099873 5.7775432e-22 0)
(23.099872 -5.7671824e-22 0)
(23.099872 -5.7566041e-22 0)
(23.099872 1.5963467e-34 0)
(23.099872 3.1818724e-34 0)
(23.099872 5.7248911e-22 -5.7248911e-22)
(23.099872 -5.7151262e-22 3.1731415e-34)
(23.099872 5.7061596e-22 5.7061596e-22)
(23.099872 5.6978391e-22 0)
(23.099871 -5.6899536e-22 0)
(23.099871 -5.6823332e-22 0)
(23.099871 3.149851e-34 0)
(23.099871 5.6668405e-22 0)
(23.099871 5.6591061e-22 0)
(23.099871 -1.5676778e-34 0)
(23.099871 -5.6437103e-22 -5.6437103e-22)
(23.099871 -5.6360273e-22 3.1284234e-34)
(23.09987 5.6283757e-22 5.6283757e-22)
(23.09987 5.6207565e-22 0)
(23.09987 -5.6131511e-22 0)
(23.09987 5.6055754e-22 0)
(23.09987 0 0)
(23.09987 -5.5904652e-22 0)
(23.09987 -5.5829363e-22 0)
(23.09987 1.5465939e-34 0)
(23.099869 5.567872e-22 -5.567872e-22)
(23.099869 -5.560332e-22 4.6304003e-34)
(23.099869 5.5527218e-22 5.5527218e-22)
(23.099869 5.5450145e-22 0)
(23.099869 -5.537136e-22 0)
(23.099869 5.5289472e-22 0)
(23.099869 1.5329127e-34 0)
(23.099869 -5.5115759e-22 0)
(23.099869 -5.5024069e-22 0)