/*--------------------------------*- C++ -*----------------------------------*\
  =========                 |
  \\      /  F ield         | OpenFOAM: The Open Source CFD Toolbox
   \\    /   O peration     | Website:  https://openfoam.org
    \\  /    A nd           | Version:  7
     \\/     M anipulation  |
\*---------------------------------------------------------------------------*/
FoamFile
{
    version     2.0;
    format      ascii;
    class       volScalarField;
    location    "0.00301";
    object      rho;
}
// * * * * * * * * * * * * * * * * * * * * * * * * * * * * * * * * * * * * * //

dimensions      [1 -3 0 0 0 0 0];

internalField   nonuniform List<scalar> 
5000
(
0.92352976
0.92355931
0.92359155
0.92363405
0.92366631
0.92370866
0.923741
0.92378328
0.92381558
0.92385782
0.92389009
0.92393231
0.92396457
0.92400677
0.924039
0.92408117
0.92411339
0.92415554
0.92418773
0.92422983
0.92426207
0.92430402
0.92433638
0.92437812
0.92441065
0.92445213
0.92448487
0.92452605
0.92455904
0.92459989
0.92463316
0.92467365
0.92470722
0.92474731
0.92478123
0.92482087
0.92485519
0.92489435
0.92492909
0.92496773
0.92500296
0.92504101
0.92507677
0.92511422
0.92515053
0.92518733
0.92522424
0.92526036
0.92529791
0.92533327
0.92537157
0.92540609
0.92544515
0.92547889
0.92551862
0.92555166
0.92559201
0.92562439
0.92566529
0.92569715
0.92573838
0.92577
0.9258113
0.92584285
0.92588413
0.92591566
0.92595691
0.92598842
0.92602964
0.92606112
0.92610231
0.92613377
0.92617494
0.92620638
0.92624751
0.92627893
0.92632004
0.92635144
0.92639252
0.92642391
0.92646497
0.92649633
0.92653737
0.92656871
0.92660973
0.92664106
0.92668205
0.92671336
0.92675434
0.92678564
0.92682659
0.92685788
0.92689881
0.92693008
0.926971
0.92700226
0.92704316
0.92707441
0.92711529
0.92714653
0.9271874
0.92721863
0.92725949
0.9272907
0.92733155
0.92736275
0.92740359
0.92743479
0.92747562
0.92750681
0.92754763
0.92757881
0.92761962
0.9276508
0.9276916
0.92772278
0.92776358
0.92779474
0.92783554
0.9278667
0.92790749
0.92793865
0.92797944
0.9280106
0.92805139
0.92808255
0.92812333
0.92815449
0.92819527
0.92822643
0.92826721
0.92829837
0.92833915
0.92837031
0.92841109
0.92844225
0.92848304
0.9285142
0.92855499
0.92858615
0.92862695
0.92865811
0.92869891
0.92873008
0.92877088
0.92880205
0.92884285
0.92887403
0.92891484
0.92894601
0.92898683
0.92901801
0.92905882
0.92909
0.92913083
0.92916201
0.92920283
0.92923402
0.92927485
0.92930604
0.92934687
0.92937806
0.92941889
0.92945009
0.92949092
0.92952212
0.92956296
0.92959416
0.92963499
0.92966619
0.92970703
0.92973824
0.92977908
0.92981028
0.92985112
0.92988232
0.92992316
0.92995435
0.92999519
0.93002639
0.93006722
0.93009841
0.93013924
0.93017043
0.93021125
0.93024244
0.93028325
0.93031443
0.93035524
0.93038642
0.93042722
0.93045838
0.93049917
0.93053033
0.93057111
0.93060226
0.93064302
0.93067416
0.93071492
0.93074605
0.93078678
0.9308179
0.93085862
0.93088973
0.93093043
0.93096152
0.93100221
0.93103328
0.93107395
0.93110501
0.93114565
0.9311767
0.93121732
0.93124834
0.93128894
0.93131995
0.93136052
0.9313915
0.93143205
0.93146301
0.93150353
0.93153447
0.93157496
0.93160588
0.93164634
0.93167724
0.93171766
0.93174853
0.93178892
0.93181977
0.93186013
0.93189095
0.93193127
0.93196207
0.93200235
0.93203312
0.93207336
0.9321041
0.93214431
0.93217502
0.93221519
0.93224587
0.932286
0.93231665
0.93235674
0.93238736
0.9324274
0.93245799
0.93249799
0.93252855
0.93256851
0.93259903
0.93263895
0.93266943
0.93270931
0.93273976
0.93277959
0.93281
0.93284978
0.93288017
0.9329199
0.93295025
0.93298994
0.93302025
0.93305989
0.93309017
0.93312976
0.93316
0.93319955
0.93322975
0.93326925
0.93329941
0.93333886
0.93336899
0.93340839
0.93343848
0.93347783
0.93350789
0.93354719
0.9335772
0.93361645
0.93364643
0.93368563
0.93371557
0.93375472
0.93378462
0.93382372
0.93385358
0.93389263
0.93392245
0.93396145
0.93399124
0.93403018
0.93405993
0.93409883
0.93412853
0.93416738
0.93419704
0.93423584
0.93426547
0.93430421
0.9343338
0.93437249
0.93440204
0.93444068
0.93447019
0.93450878
0.93453825
0.93457679
0.93460622
0.9346447
0.93467409
0.93471253
0.93474188
0.93478026
0.93480957
0.93484791
0.93487718
0.93491546
0.93494469
0.93498292
0.93501211
0.93505029
0.93507944
0.93511757
0.93514668
0.93518476
0.93521383
0.93525185
0.93528089
0.93531886
0.93534786
0.93538578
0.93541473
0.9354526
0.93548152
0.93551933
0.93554821
0.93558598
0.93561481
0.93565253
0.93568133
0.93571899
0.93574775
0.93578536
0.93581408
0.93585163
0.93588032
0.93591782
0.93594647
0.93598392
0.93601252
0.93604993
0.93607849
0.93611584
0.93614437
0.93618167
0.93621015
0.9362474
0.93627585
0.93631305
0.93634146
0.9363786
0.93640697
0.93644407
0.9364724
0.93650944
0.93653773
0.93657473
0.93660298
0.93663992
0.93666813
0.93670502
0.9367332
0.93677004
0.93679817
0.93683496
0.93686306
0.9368998
0.93692785
0.93696454
0.93699256
0.93702919
0.93705717
0.93709376
0.9371217
0.93715824
0.93718614
0.93722262
0.93725048
0.93728692
0.93731474
0.93735112
0.93737891
0.93741524
0.93744299
0.93747927
0.93750698
0.93754321
0.93757088
0.93760706
0.93763469
0.93767082
0.93769841
0.93773449
0.93776205
0.93779808
0.93782559
0.93786157
0.93788905
0.93792497
0.93795241
0.93798829
0.93801569
0.93805152
0.93807888
0.93811466
0.93814198
0.93817771
0.93820499
0.93824067
0.93826792
0.93830354
0.93833075
0.93836633
0.9383935
0.93842902
0.93845616
0.93849164
0.93851873
0.93855415
0.93858121
0.93861659
0.93864361
0.93867892
0.93870592
0.9387412
0.93876813
0.9388033
0.93883042
0.93886514
0.93889277
0.93892679
0.9389551
0.93898831
0.93901734
0.93904978
0.93907944
0.93911122
0.9391414
0.93917264
0.93920319
0.93923404
0.93926484
0.9392954
0.93932635
0.93935672
0.93938775
0.93941798
0.93944903
0.93947918
0.93951021
0.93954029
0.9395713
0.93960133
0.9396323
0.93966227
0.93969321
0.93972313
0.93975404
0.93978391
0.93981478
0.93984459
0.93987544
0.9399052
0.939936
0.93996573
0.93999646
0.94002618
0.94005683
0.94008656
0.9401171
0.94014686
0.94017729
0.94020707
0.94023738
0.94026721
0.94029739
0.94032725
0.94035732
0.94038721
0.94041716
0.94044708
0.94047693
0.94050685
0.94053661
0.94056654
0.94059622
0.94062613
0.94065575
0.94068564
0.94071519
0.94074506
0.94077456
0.94080439
0.94083384
0.94086364
0.94089304
0.9409228
0.94095215
0.94098187
0.94101118
0.94104087
0.94107013
0.94109977
0.94112899
0.94115859
0.94118777
0.94121733
0.94124647
0.94127599
0.94130508
0.94133456
0.94136361
0.94139305
0.94142206
0.94145145
0.94148042
0.94150977
0.9415387
0.94156801
0.94159689
0.94162617
0.94165501
0.94168424
0.94171304
0.94174223
0.94177099
0.94180014
0.94182886
0.94185796
0.94188664
0.9419157
0.94194434
0.94197337
0.94200196
0.94203094
0.9420595
0.94208844
0.94211696
0.94214586
0.94217433
0.94220319
0.94223162
0.94226044
0.94228883
0.94231761
0.94234596
0.9423747
0.94240301
0.9424317
0.94245997
0.94248863
0.94251686
0.94254547
0.94257366
0.94260223
0.94263037
0.9426589
0.94268701
0.9427155
0.94274356
0.94277201
0.94280003
0.94282844
0.94285642
0.94288479
0.94291273
0.94294106
0.94296895
0.94299724
0.9430251
0.94305335
0.94308116
0.94310938
0.94313715
0.94316533
0.94319306
0.94322121
0.9432489
0.94327701
0.94330467
0.94333274
0.94336036
0.9433884
0.94341599
0.94344399
0.94347155
0.94349952
0.94352704
0.94355498
0.94358247
0.94361038
0.94363783
0.94366571
0.94369313
0.94372099
0.94374837
0.9437762
0.94380354
0.94383134
0.94385865
0.94388643
0.9439137
0.94394144
0.94396868
0.94399639
0.94402359
0.94405127
0.94407844
0.94410608
0.94413323
0.94416082
0.94418794
0.94421548
0.94424259
0.94427006
0.94429717
0.94432457
0.94435167
0.94437901
0.9444061
0.94443337
0.94446045
0.94448766
0.94451472
0.94454187
0.94456891
0.94459601
0.94462303
0.94465008
0.94467706
0.94470406
0.94473102
0.94475798
0.9447849
0.94481181
0.94483869
0.94486557
0.94489242
0.94491925
0.94494606
0.94497285
0.94499962
0.94502638
0.94505311
0.94507982
0.94510652
0.94513319
0.94515985
0.94518648
0.9452131
0.9452397
0.94526627
0.94529283
0.94531937
0.94534589
0.94537239
0.94539887
0.94542533
0.94545177
0.94547819
0.9455046
0.94553098
0.94555734
0.94558369
0.94561001
0.94563632
0.94566261
0.94568887
0.94571512
0.94574135
0.94576756
0.94579375
0.94581992
0.94584607
0.9458722
0.94589831
0.9459244
0.94595047
0.94597653
0.94600256
0.94602858
0.94605457
0.94608055
0.9461065
0.94613244
0.94615836
0.94618426
0.94621014
0.946236
0.94626184
0.94628766
0.94631346
0.94633924
0.946365
0.94639074
0.94641647
0.94644217
0.94646786
0.94649352
0.94651917
0.94654479
0.9465704
0.94659599
0.94662155
0.9466471
0.94667263
0.94669814
0.94672363
0.9467491
0.94677455
0.94679998
0.94682539
0.94685079
0.94687616
0.94690152
0.94692685
0.94695217
0.94697747
0.94700275
0.94702801
0.94705325
0.94707847
0.94710367
0.94712886
0.94715403
0.94717918
0.94720431
0.94722942
0.94725452
0.9472796
0.94730466
0.9473297
0.94735473
0.94737974
0.94740473
0.9474297
0.94745466
0.9474796
0.94750453
0.94752944
0.94755433
0.94757921
0.94760406
0.94762891
0.94765373
0.94767854
0.94770334
0.94772811
0.94775287
0.94777762
0.94780235
0.94782706
0.94785175
0.94787643
0.94790109
0.94792574
0.94795036
0.94797497
0.94799957
0.94802414
0.9480487
0.94807324
0.94809777
0.94812227
0.94814676
0.94817123
0.94819568
0.94822011
0.94824453
0.94826892
0.9482933
0.94831766
0.948342
0.94836633
0.94839063
0.94841491
0.94843918
0.94846343
0.94848765
0.94851186
0.94853605
0.94856022
0.94858437
0.9486085
0.94863262
0.94865671
0.94868078
0.94870484
0.94872887
0.94875289
0.94877688
0.94880086
0.94882482
0.94884875
0.94887267
0.94889657
0.94892045
0.94894431
0.94896815
0.94899197
0.94901577
0.94903955
0.94906331
0.94908705
0.94911077
0.94913447
0.94915816
0.94918182
0.94920547
0.94922909
0.94925269
0.94927628
0.94929984
0.94932338
0.9493469
0.94937041
0.9493939
0.94941737
0.94944082
0.94946425
0.94948766
0.94951104
0.94953441
0.94955775
0.94958108
0.94960439
0.94962767
0.94965094
0.94967419
0.94969742
0.94972064
0.94974383
0.94976701
0.94979016
0.94981329
0.9498364
0.94985949
0.94988256
0.94990561
0.94992864
0.94995165
0.94997464
0.94999761
0.95002057
0.95004351
0.95006643
0.95008932
0.9501122
0.95013506
0.9501579
0.95018072
0.95020352
0.95022629
0.95024905
0.95027178
0.95029449
0.95031718
0.95033986
0.95036251
0.95038515
0.95040776
0.95043036
0.95045294
0.95047551
0.95049805
0.95052057
0.95054308
0.95056557
0.95058804
0.95061049
0.95063291
0.95065532
0.95067771
0.95070008
0.95072243
0.95074476
0.95076707
0.95078936
0.95081163
0.95083387
0.9508561
0.95087831
0.95090049
0.95092266
0.95094481
0.95096693
0.95098904
0.95101113
0.9510332
0.95105525
0.95107728
0.95109929
0.95112129
0.95114326
0.95116521
0.95118715
0.95120907
0.95123097
0.95125285
0.95127471
0.95129656
0.95131839
0.9513402
0.95136199
0.95138377
0.95140553
0.95142728
0.95144901
0.95147072
0.95149242
0.9515141
0.95153576
0.9515574
0.95157902
0.95160063
0.95162222
0.95164379
0.95166535
0.95168689
0.95170841
0.95172992
0.95175141
0.95177288
0.95179433
0.95181576
0.95183717
0.95185857
0.95187995
0.95190132
0.95192267
0.951944
0.95196531
0.95198661
0.95200789
0.95202914
0.95205038
0.9520716
0.95209281
0.952114
0.95213516
0.95215632
0.95217745
0.95219857
0.95221966
0.95224074
0.9522618
0.95228284
0.95230387
0.95232488
0.95234587
0.95236684
0.95238778
0.95240871
0.95242961
0.95245049
0.95247136
0.9524922
0.95251303
0.95253384
0.95255463
0.9525754
0.95259616
0.95261689
0.9526376
0.9526583
0.95267897
0.95269963
0.95272026
0.95274088
0.95276148
0.95278206
0.95280262
0.95282316
0.95284367
0.95286417
0.95288465
0.95290511
0.95292555
0.95294598
0.95296638
0.95298677
0.95300714
0.95302748
0.9530478
0.95306811
0.95308839
0.95310866
0.95312891
0.95314914
0.95316935
0.95318954
0.95320971
0.95322986
0.95324999
0.9532701
0.95329019
0.95331026
0.95333031
0.95335034
0.95337035
0.95339034
0.95341032
0.95343027
0.95345021
0.95347013
0.95349003
0.9535099
0.95352976
0.9535496
0.95356942
0.95358922
0.953609
0.95362876
0.95364851
0.95366823
0.95368793
0.95370761
0.95372727
0.95374691
0.95376654
0.95378615
0.95380573
0.9538253
0.95384485
0.95386437
0.95388388
0.95390336
0.95392282
0.95394227
0.95396169
0.95398111
0.9540005
0.95401987
0.95403923
0.95405857
0.95407788
0.95409718
0.95411645
0.95413571
0.95415494
0.95417415
0.95419335
0.95421253
0.95423169
0.95425083
0.95426996
0.95428906
0.95430815
0.95432722
0.95434627
0.95436529
0.9543843
0.95440328
0.95442225
0.9544412
0.95446014
0.95447906
0.95449796
0.95451684
0.9545357
0.95455454
0.95457337
0.95459217
0.95461096
0.95462973
0.95464849
0.95466724
0.95468597
0.95470469
0.95472338
0.95474206
0.95476072
0.95477935
0.95479797
0.95481656
0.95483515
0.95485371
0.95487226
0.95489079
0.95490931
0.95492781
0.95494629
0.95496475
0.95498319
0.95500162
0.95502002
0.95503841
0.9550568
0.95507515
0.95509351
0.95511184
0.95513016
0.95514846
0.95516675
0.95518501
0.95520325
0.95522147
0.95523968
0.95525785
0.95527602
0.95529416
0.95531229
0.95533041
0.9553485
0.95536658
0.95538465
0.95540269
0.95542072
0.95543873
0.95545673
0.95547469
0.95549265
0.95551058
0.95552849
0.95554638
0.95556425
0.95558211
0.95559995
0.95561778
0.95563559
0.95565338
0.95567115
0.9556889
0.95570664
0.95572435
0.95574205
0.95575973
0.95577739
0.95579503
0.95581264
0.95583024
0.95584782
0.95586538
0.95588292
0.95590044
0.95591794
0.95593542
0.95595287
0.95597032
0.95598774
0.95600515
0.95602254
0.9560399
0.95605725
0.95607457
0.95609188
0.95610917
0.95612644
0.9561437
0.95616093
0.95617815
0.95619534
0.95621252
0.95622969
0.95624683
0.95626396
0.95628106
0.95629814
0.9563152
0.95633224
0.95634927
0.95636628
0.95638327
0.95640024
0.9564172
0.95643414
0.95645105
0.95646795
0.95648483
0.95650169
0.95651853
0.95653535
0.95655214
0.95656891
0.95658567
0.95660241
0.95661914
0.95663585
0.95665254
0.95666922
0.95668588
0.95670251
0.95671913
0.95673573
0.9567523
0.95676886
0.95678539
0.95680191
0.9568184
0.95683488
0.95685134
0.95686779
0.95688422
0.95690064
0.95691703
0.95693341
0.95694976
0.95696609
0.95698239
0.95699868
0.95701495
0.9570312
0.95704744
0.95706366
0.95707987
0.95709606
0.95711223
0.95712839
0.95714452
0.95716063
0.95717673
0.9571928
0.95720885
0.95722488
0.9572409
0.9572569
0.95727289
0.95728886
0.95730482
0.95732075
0.95733667
0.95735257
0.95736845
0.95738432
0.95740016
0.957416
0.9574318
0.95744761
0.95746337
0.95747915
0.95749487
0.95751063
0.95752632
0.95754204
0.95755769
0.95757338
0.95758901
0.95760466
0.95762026
0.95763587
0.95765144
0.95766702
0.95768256
0.95769809
0.95771361
0.95772911
0.9577446
0.95776006
0.95777553
0.95779096
0.9578064
0.95782179
0.9578372
0.95785255
0.95786793
0.95788326
0.95789861
0.9579139
0.95792922
0.95794449
0.95795977
0.95797501
0.95799025
0.95800547
0.95802068
0.95803587
0.95805103
0.9580662
0.95808133
0.95809646
0.95811156
0.95812666
0.95814173
0.9581568
0.95817183
0.95818687
0.95820187
0.95821688
0.95823185
0.95824682
0.95826176
0.9582767
0.95829162
0.95830651
0.95832141
0.95833627
0.95835113
0.95836596
0.95838079
0.95839558
0.95841038
0.95842514
0.9584399
0.95845463
0.95846936
0.95848405
0.95849875
0.95851342
0.95852808
0.95854272
0.95855735
0.95857196
0.95858655
0.95860113
0.95861569
0.95863024
0.95864476
0.95865928
0.95867377
0.95868826
0.95870271
0.95871716
0.95873159
0.95874601
0.9587604
0.95877479
0.95878915
0.9588035
0.95881784
0.95883215
0.95884646
0.95886074
0.95887502
0.95888926
0.95890351
0.95891772
0.95893194
0.95894611
0.9589603
0.95897445
0.95898859
0.95900271
0.95901682
0.95903091
0.95904499
0.95905904
0.95907309
0.95908711
0.95910112
0.95911511
0.95912909
0.95914306
0.959157
0.95917093
0.95918484
0.95919874
0.95921261
0.95922648
0.95924032
0.95925416
0.95926797
0.95928177
0.95929555
0.95930932
0.95932306
0.95933679
0.95935051
0.95936421
0.95937789
0.95939156
0.95940521
0.95941884
0.95943246
0.95944606
0.95945964
0.95947321
0.95948676
0.95950029
0.95951381
0.95952731
0.95954079
0.95955425
0.9595677
0.95958113
0.95959454
0.95960794
0.95962132
0.95963468
0.95964803
0.95966136
0.95967467
0.95968797
0.95970124
0.9597145
0.95972775
0.95974098
0.95975419
0.95976738
0.95978056
0.95979372
0.95980686
0.95981999
0.9598331
0.95984619
0.95985926
0.95987232
0.95988537
0.95989839
0.9599114
0.95992439
0.95993737
0.95995032
0.95996327
0.95997619
0.9599891
0.96000199
0.96001486
0.96002772
0.96004056
0.96005338
0.9600662
0.96007898
0.96009177
0.96010452
0.96011726
0.96012999
0.96014269
0.9601554
0.96016806
0.96018073
0.96019337
0.96020599
0.96021861
0.96023118
0.96024377
0.96025632
0.96026887
0.96028139
0.96029389
0.96030639
0.96031885
0.96033132
0.96034375
0.96035617
0.96036858
0.96038096
0.96039334
0.96040568
0.96041803
0.96043034
0.96044266
0.96045493
0.9604672
0.96047946
0.96049168
0.96050392
0.96051608
0.9605283
0.96054043
0.9605526
0.96056472
0.96057685
0.96058894
0.96060102
0.96061307
0.96062512
0.96063712
0.96064916
0.96066111
0.96067312
0.96068504
0.96069701
0.9607089
0.96072082
0.96073269
0.96074457
0.9607564
0.96076824
0.96078005
0.96079185
0.96080362
0.96081538
0.96082711
0.96083883
0.96085053
0.96086222
0.96087389
0.96088554
0.96089717
0.96090879
0.96092039
0.96093198
0.96094354
0.96095509
0.96096661
0.96097813
0.96098962
0.96100109
0.96101255
0.96102398
0.96103541
0.9610468
0.96105819
0.96106956
0.96108091
0.96109224
0.96110356
0.96111486
0.96112615
0.96113741
0.96114867
0.96115989
0.96117111
0.9611823
0.96119349
0.96120464
0.96121579
0.96122691
0.96123802
0.96124911
0.96126018
0.96127124
0.96128228
0.96129331
0.96130432
0.96131531
0.96132629
0.96133725
0.96134819
0.96135912
0.96137003
0.96138092
0.9613918
0.96140266
0.9614135
0.96142433
0.96143514
0.96144593
0.96145671
0.96146747
0.96147821
0.96148893
0.96149964
0.96151033
0.961521
0.96153165
0.96154229
0.96155292
0.96156353
0.96157412
0.9615847
0.96159527
0.96160581
0.96161634
0.96162686
0.96163736
0.96164784
0.9616583
0.96166876
0.96167919
0.96168961
0.96170001
0.9617104
0.96172077
0.96173112
0.96174146
0.96175178
0.96176208
0.96177237
0.96178265
0.9617929
0.96180315
0.96181337
0.96182358
0.96183378
0.96184395
0.96185411
0.96186426
0.96187439
0.96188451
0.9618946
0.96190469
0.96191476
0.96192481
0.96193485
0.96194488
0.96195488
0.96196488
0.96197485
0.96198481
0.96199475
0.96200468
0.9620146
0.96202451
0.9620344
0.96204427
0.96205413
0.96206398
0.96207381
0.96208362
0.96209341
0.96210319
0.96211295
0.9621227
0.96213243
0.96214215
0.96215185
0.96216154
0.96217121
0.96218086
0.9621905
0.96220013
0.96220975
0.96221935
0.96222893
0.9622385
0.96224805
0.96225759
0.96226711
0.96227662
0.9622861
0.96229558
0.96230503
0.96231448
0.9623239
0.96233332
0.96234271
0.9623521
0.96236146
0.96237082
0.96238015
0.96238947
0.96239878
0.96240807
0.96241734
0.96242659
0.96243583
0.96244506
0.96245427
0.96246346
0.96247264
0.9624818
0.96249095
0.96250007
0.96250918
0.96251828
0.96252735
0.96253642
0.96254546
0.96255449
0.96256351
0.96257251
0.96258149
0.96259046
0.9625994
0.96260833
0.96261725
0.96262614
0.96263502
0.96264388
0.96265273
0.96266156
0.96267037
0.96267916
0.96268794
0.96269671
0.96270545
0.96271418
0.96272289
0.96273159
0.96274027
0.96274893
0.96275757
0.96276619
0.9627748
0.96278338
0.96279196
0.96280051
0.96280905
0.96281758
0.96282608
0.96283458
0.96284305
0.96285151
0.96285995
0.96286837
0.96287678
0.96288516
0.96289353
0.96290188
0.96291022
0.96291853
0.96292683
0.96293512
0.96294338
0.96295163
0.96295987
0.96296809
0.96297629
0.96298447
0.96299264
0.96300079
0.96300893
0.96301704
0.96302515
0.96303323
0.9630413
0.96304935
0.96305739
0.96306541
0.96307341
0.9630814
0.96308936
0.96309731
0.96310524
0.96311316
0.96312106
0.96312895
0.96313682
0.96314467
0.96315251
0.96316033
0.96316813
0.96317592
0.96318369
0.96319145
0.96319919
0.96320691
0.96321462
0.96322231
0.96322999
0.96323765
0.96324529
0.96325292
0.96326053
0.96326813
0.96327571
0.96328328
0.96329083
0.96329836
0.96330588
0.96331339
0.96332088
0.96332835
0.96333581
0.96334325
0.96335067
0.96335808
0.96336548
0.96337286
0.96338022
0.96338757
0.96339491
0.96340223
0.96340953
0.96341682
0.9634241
0.96343136
0.96343861
0.96344584
0.96345306
0.96346027
0.96346746
0.96347463
0.96348178
0.96348893
0.96349606
0.96350318
0.96351028
0.96351736
0.96352443
0.96353149
0.96353853
0.96354556
0.96355257
0.96355957
0.96356656
0.96357353
0.96358049
0.96358743
0.96359435
0.96360127
0.96360816
0.96361505
0.96362193
0.96362879
0.96363563
0.96364245
0.96364926
0.96365606
0.96366285
0.96366962
0.96367637
0.96368311
0.96368984
0.96369655
0.96370324
0.96370992
0.96371659
0.96372324
0.96372988
0.9637365
0.9637431
0.96374969
0.96375627
0.96376283
0.96376937
0.9637759
0.96378242
0.96378893
0.96379541
0.96380188
0.96380834
0.96381479
0.96382121
0.96382763
0.96383403
0.96384041
0.96384677
0.96385312
0.96385945
0.96386576
0.96387206
0.96387834
0.96388461
0.96389086
0.9638971
0.96390332
0.96390953
0.96391571
0.96392188
0.96392804
0.96393418
0.9639403
0.9639464
0.96395249
0.96395856
0.96396462
0.96397066
0.96397669
0.9639827
0.9639887
0.96399468
0.96400064
0.96400658
0.9640125
0.96401841
0.9640243
0.96403017
0.96403603
0.96404187
0.96404769
0.96405349
0.96405928
0.96406505
0.9640708
0.96407654
0.96408226
0.96408796
0.96409365
0.96409932
0.96410497
0.96411061
0.96411623
0.96412184
0.96412742
0.964133
0.96413855
0.96414408
0.9641496
0.9641551
0.96416058
0.96416605
0.96417149
0.96417692
0.96418234
0.96418773
0.96419311
0.96419848
0.96420383
0.96420916
0.96421448
0.96421978
0.96422506
0.96423033
0.96423557
0.9642408
0.96424602
0.96425122
0.9642564
0.96426156
0.9642667
0.96427183
0.96427695
0.96428204
0.96428712
0.96429219
0.96429723
0.96430226
0.96430728
0.96431227
0.96431725
0.96432221
0.96432716
0.96433208
0.964337
0.96434189
0.96434677
0.96435164
0.96435648
0.96436132
0.96436613
0.96437093
0.96437572
0.96438048
0.96438524
0.96438997
0.96439469
0.96439939
0.96440408
0.96440876
0.96441342
0.96441806
0.96442268
0.96442729
0.96443188
0.96443646
0.96444102
0.96444557
0.9644501
0.96445461
0.96445911
0.96446359
0.96446806
0.96447252
0.96447696
0.96448138
0.9644858
0.9644902
0.96449458
0.96449894
0.96450329
0.96450762
0.96451194
0.96451624
0.96452053
0.96452481
0.96452907
0.96453331
0.96453754
0.96454176
0.96454596
0.96455015
0.96455432
0.96455848
0.96456263
0.96456676
0.96457087
0.96457497
0.96457905
0.96458312
0.96458718
0.96459121
0.96459524
0.96459925
0.96460325
0.96460723
0.9646112
0.96461516
0.96461909
0.96462302
0.96462693
0.96463083
0.96463471
0.96463858
0.96464243
0.96464627
0.96465009
0.9646539
0.96465769
0.96466146
0.96466522
0.96466897
0.9646727
0.96467641
0.96468011
0.9646838
0.96468747
0.96469113
0.96469477
0.96469839
0.964702
0.96470559
0.96470917
0.96471273
0.96471627
0.9647198
0.96472331
0.9647268
0.96473028
0.96473373
0.96473718
0.9647406
0.96474401
0.9647474
0.96475078
0.96475413
0.96475747
0.96476078
0.96476408
0.96476736
0.96477063
0.96477387
0.96477709
0.96478029
0.96478348
0.96478664
0.96478978
0.96479291
0.96479602
0.9647991
0.96480216
0.96480521
0.96480823
0.96481123
0.96481422
0.96481718
0.96482012
0.96482304
0.96482593
0.96482881
0.96483166
0.96483448
0.96483729
0.96484007
0.96484283
0.96484556
0.96484827
0.96485096
0.96485362
0.96485626
0.96485888
0.96486147
0.96486403
0.96486657
0.96486909
0.96487158
0.96487404
0.96487647
0.96487888
0.96488126
0.96488361
0.96488594
0.96488824
0.96489051
0.96489276
0.96489498
0.96489717
0.96489934
0.96490148
0.96490359
0.96490567
0.96490772
0.96490974
0.96491174
0.9649137
0.96491564
0.96491754
0.96491942
0.96492127
0.96492308
0.96492487
0.96492662
0.96492834
0.96493003
0.96493169
0.96493331
0.9649349
0.96493646
0.96493799
0.96493949
0.96494095
0.96494239
0.96494379
0.96494516
0.96494649
0.96494779
0.96494906
0.9649503
0.9649515
0.96495267
0.9649538
0.9649549
0.96495596
0.96495699
0.96495799
0.96495895
0.96495987
0.96496076
0.96496161
0.96496243
0.96496321
0.96496395
0.96496466
0.96496533
0.96496597
0.96496656
0.96496713
0.96496765
0.96496814
0.96496859
0.964969
0.96496937
0.96496971
0.96497
0.96497026
0.96497048
0.96497067
0.96497081
0.96497092
0.96497099
0.96497102
0.96497101
0.96497097
0.96497088
0.96497075
0.96497059
0.96497038
0.96497014
0.96496986
0.96496953
0.96496917
0.96496877
0.96496833
0.96496785
0.96496733
0.96496677
0.96496617
0.96496553
0.96496485
0.96496413
0.96496336
0.96496256
0.96496172
0.96496083
0.96495991
0.96495894
0.96495793
0.96495689
0.9649558
0.96495467
0.9649535
0.96495229
0.96495104
0.96494975
0.96494842
0.96494704
0.96494563
0.96494418
0.96494269
0.96494116
0.96493958
0.96493797
0.96493632
0.96493462
0.96493288
0.96493111
0.96492929
0.96492743
0.96492554
0.9649236
0.96492162
0.96491961
0.96491755
0.96491546
0.96491333
0.96491115
0.96490894
0.96490668
0.96490439
0.96490206
0.96489969
0.96489728
0.96489483
0.96489234
0.96488982
0.96488725
0.96488465
0.96488202
0.96487934
0.96487662
0.96487387
0.96487108
0.96486825
0.96486539
0.96486248
0.96485954
0.96485656
0.96485355
0.9648505
0.96484741
0.96484429
0.96484113
0.96483793
0.9648347
0.96483144
0.96482813
0.9648248
0.96482142
0.96481801
0.96481457
0.9648111
0.96480758
0.96480404
0.96480047
0.96479686
0.96479323
0.96478955
0.96478585
0.96478211
0.96477834
0.96477454
0.9647707
0.96476683
0.96476292
0.96475899
0.96475501
0.96475102
0.96474698
0.96474292
0.96473882
0.96473469
0.96473053
0.96472635
0.96472213
0.96471788
0.96471361
0.9647093
0.96470498
0.96470061
0.96469623
0.96469182
0.96468737
0.96468291
0.96467841
0.96467388
0.96466933
0.96466475
0.96466015
0.96465552
0.96465086
0.96464617
0.96464146
0.96463672
0.96463195
0.96462716
0.96462234
0.9646175
0.96461263
0.96460774
0.96460282
0.96459788
0.96459292
0.96458793
0.96458292
0.96457789
0.96457283
0.96456775
0.96456266
0.96455754
0.96455239
0.96454723
0.96454205
0.96453684
0.96453162
0.96452637
0.96452111
0.96451582
0.96451051
0.96450518
0.96449983
0.96449446
0.96448908
0.96448367
0.96447825
0.9644728
0.96446734
0.96446186
0.96445637
0.96445085
0.96444532
0.96443977
0.9644342
0.96442862
0.96442302
0.96441741
0.96441178
0.96440614
0.96440048
0.96439481
0.96438912
0.96438342
0.9643777
0.96437197
0.96436623
0.96436047
0.96435469
0.96434891
0.96434311
0.9643373
0.96433148
0.96432565
0.9643198
0.96431395
0.96430808
0.9643022
0.96429632
0.96429042
0.96428451
0.96427859
0.96427266
0.96426672
0.96426077
0.96425481
0.96424885
0.96424288
0.9642369
0.96423091
0.96422492
0.96421891
0.96421291
0.96420689
0.96420087
0.96419484
0.96418881
0.96418277
0.96417672
0.96417067
0.96416462
0.96415857
0.96415251
0.96414645
0.96414038
0.96413432
0.96412825
0.96412218
0.96411611
0.96411003
0.96410395
0.96409787
0.96409179
0.96408571
0.96407963
0.96407355
0.96406747
0.96406139
0.96405531
0.96404923
0.96404316
0.96403709
0.96403102
0.96402496
0.9640189
0.96401285
0.9640068
0.96400076
0.96399472
0.96398869
0.96398267
0.96397665
0.96397064
0.96396464
0.96395864
0.96395265
0.96394666
0.96394068
0.96393471
0.96392875
0.9639228
0.96391686
0.96391093
0.96390502
0.96389911
0.96389322
0.96388734
0.96388146
0.9638756
0.96386976
0.96386392
0.96385809
0.96385228
0.96384648
0.9638407
0.96383493
0.96382917
0.96382343
0.96381771
0.96381201
0.96380632
0.96380064
0.96379499
0.96378935
0.96378373
0.96377813
0.96377254
0.96376697
0.96376142
0.96375589
0.96375037
0.96374488
0.9637394
0.96373395
0.96372851
0.9637231
0.96371771
0.96371233
0.96370698
0.96370165
0.96369634
0.96369106
0.96368579
0.96368054
0.96367532
0.96367012
0.96366494
0.96365978
0.96365465
0.96364954
0.96364446
0.96363939
0.96363436
0.96362934
0.96362435
0.96361939
0.96361445
0.96360953
0.96360464
0.96359977
0.96359494
0.96359011
0.96358533
0.96358056
0.96357582
0.9635711
0.96356641
0.96356175
0.96355711
0.96355249
0.96354791
0.96354334
0.96353881
0.96353429
0.96352981
0.96352535
0.96352091
0.96351651
0.96351213
0.96350778
0.96350345
0.96349915
0.96349488
0.96349063
0.96348641
0.96348222
0.96347805
0.96347391
0.96346979
0.9634657
0.96346164
0.9634576
0.96345358
0.9634496
0.96344563
0.9634417
0.96343778
0.9634339
0.96343003
0.9634262
0.96342238
0.9634186
0.96341483
0.9634111
0.96340739
0.9634037
0.96340004
0.96339639
0.96339278
0.96338919
0.96338562
0.96338209
0.96337857
0.96337508
0.96337161
0.96336815
0.96336473
0.96336133
0.96335795
0.96335459
0.96335125
0.96334793
0.96334464
0.96334135
0.96333811
0.96333485
0.96333167
0.96332845
0.96332531
0.96332213
0.96331902
0.96331589
0.96331281
0.96330973
0.96330667
0.96330366
0.96330061
0.96329764
0.96329464
0.96329168
0.96328875
0.9632858
0.96328292
0.96328
0.96327713
0.96327428
0.96327141
0.9632686
0.96326576
0.96326296
0.96326018
0.96325738
0.96325464
0.96325189
0.96324914
0.96324644
0.96324371
0.96324101
0.96323834
0.96323564
0.96323299
0.96323034
0.96322768
0.96322505
0.96322243
0.9632198
0.96321721
0.9632146
0.96321201
0.96320944
0.96320686
0.96320429
0.96320175
0.96319919
0.96319666
0.96319413
0.9631916
0.96318909
0.9631866
0.96318409
0.96318159
0.96317911
0.96317662
0.96317414
0.96317167
0.96316919
0.96316672
0.96316426
0.96316179
0.96315932
0.96315686
0.96315439
0.96315192
0.96314945
0.96314699
0.96314451
0.96314205
0.96313959
0.96313712
0.96313466
0.9631322
0.96312974
0.96312728
0.96312482
0.96312236
0.96311989
0.96311742
0.96311494
0.96311245
0.96310995
0.96310745
0.96310494
0.96310242
0.9630999
0.96309738
0.96309485
0.96309233
0.9630898
0.96308726
0.96308472
0.96308216
0.96307959
0.963077
0.9630744
0.9630718
0.96306918
0.96306656
0.96306393
0.96306129
0.96305864
0.96305597
0.96305329
0.9630506
0.96304787
0.96304513
0.96304239
0.96303962
0.96303685
0.96303406
0.96303126
0.96302844
0.96302559
0.96302272
0.96301983
0.96301692
0.96301398
0.96301103
0.96300806
0.96300507
0.96300204
0.96299899
0.96299592
0.96299281
0.96298967
0.9629865
0.96298331
0.96298009
0.96297684
0.96297355
0.96297024
0.96296688
0.96296348
0.96296005
0.96295659
0.96295309
0.96294956
0.96294597
0.96294235
0.96293868
0.96293497
0.96293121
0.96292741
0.96292356
0.96291967
0.96291572
0.96291171
0.96290765
0.96290353
0.96289936
0.96289512
0.96289082
0.96288645
0.96288202
0.9628775
0.96287292
0.96286825
0.96286352
0.9628587
0.96285379
0.9628488
0.96284373
0.96283857
0.96283332
0.96282797
0.96282253
0.962817
0.96281136
0.96280562
0.96279978
0.96279382
0.96278776
0.96278158
0.96277528
0.96276886
0.96276232
0.96275565
0.96274886
0.96274193
0.96273487
0.96272767