/*--------------------------------*- C++ -*----------------------------------*\
  =========                 |
  \\      /  F ield         | OpenFOAM: The Open Source CFD Toolbox
   \\    /   O peration     | Website:  https://openfoam.org
    \\  /    A nd           | Version:  7
     \\/     M anipulation  |
\*---------------------------------------------------------------------------*/
FoamFile
{
    version     2.0;
    format      ascii;
    class       volScalarField;
    location    "0.00301";
    object      T;
}
// * * * * * * * * * * * * * * * * * * * * * * * * * * * * * * * * * * * * * //

dimensions      [0 0 0 1 0 0 0];

internalField   nonuniform List<scalar> 
5000
(
246.32023
246.32549
246.33083
246.33347
246.33885
246.34151
246.34684
246.3495
246.35481
246.35747
246.36278
246.36544
246.37075
246.3734
246.37871
246.38136
246.38667
246.38932
246.39462
246.39727
246.40255
246.40523
246.41046
246.41319
246.41837
246.42115
246.42626
246.42911
246.43413
246.43706
246.442
246.44501
246.44985
246.45295
246.45769
246.46089
246.46551
246.46883
246.47333
246.47677
246.48112
246.48471
246.48891
246.49264
246.49668
246.50058
246.50444
246.5085
246.51218
246.51644
246.5199
246.52437
246.52762
246.53229
246.53535
246.54018
246.54307
246.54807
246.5508
246.55593
246.55856
246.56374
246.56634
246.57152
246.57412
246.5793
246.58189
246.58707
246.58966
246.59484
246.59743
246.6026
246.60519
246.61036
246.61294
246.61811
246.62069
246.62585
246.62843
246.63359
246.63617
246.64132
246.6439
246.64905
246.65163
246.65678
246.65935
246.6645
246.66707
246.67222
246.67479
246.67993
246.6825
246.68764
246.69021
246.69534
246.69791
246.70305
246.70561
246.71075
246.71331
246.71844
246.72101
246.72614
246.7287
246.73383
246.73639
246.74152
246.74408
246.7492
246.75176
246.75689
246.75945
246.76457
246.76713
246.77225
246.77481
246.77993
246.78249
246.78761
246.79017
246.79529
246.79785
246.80297
246.80552
246.81064
246.8132
246.81832
246.82088
246.82599
246.82855
246.83367
246.83623
246.84134
246.8439
246.84902
246.85158
246.85669
246.85925
246.86437
246.86693
246.87204
246.8746
246.87972
246.88228
246.88739
246.88995
246.89507
246.89763
246.90275
246.90531
246.91043
246.91298
246.9181
246.92066
246.92578
246.92834
246.93346
246.93602
246.94114
246.9437
246.94882
246.95138
246.9565
246.95905
246.96418
246.96673
246.97185
246.97441
246.97953
246.98209
246.98721
246.98977
246.99489
246.99745
247.00256
247.00512
247.01024
247.0128
247.01791
247.02047
247.02559
247.02815
247.03326
247.03582
247.04093
247.04349
247.0486
247.05116
247.05627
247.05883
247.06394
247.06649
247.0716
247.07416
247.07926
247.08182
247.08692
247.08948
247.09458
247.09713
247.10223
247.10478
247.10988
247.11243
247.11753
247.12008
247.12517
247.12772
247.13281
247.13535
247.14044
247.14298
247.14807
247.15061
247.15569
247.15823
247.16331
247.16585
247.17093
247.17346
247.17853
247.18107
247.18613
247.18867
247.19373
247.19626
247.20132
247.20385
247.2089
247.21143
247.21648
247.219
247.22405
247.22657
247.23161
247.23413
247.23916
247.24168
247.24671
247.24922
247.25425
247.25676
247.26178
247.26429
247.2693
247.27181
247.27682
247.27932
247.28432
247.28682
247.29182
247.29432
247.29931
247.3018
247.30679
247.30928
247.31426
247.31675
247.32172
247.32421
247.32918
247.33166
247.33662
247.3391
247.34406
247.34653
247.35148
247.35396
247.3589
247.36137
247.36631
247.36877
247.3737
247.37617
247.38109
247.38355
247.38847
247.39093
247.39584
247.39829
247.4032
247.40565
247.41055
247.413
247.41789
247.42033
247.42522
247.42766
247.43254
247.43498
247.43985
247.44228
247.44715
247.44958
247.45444
247.45687
247.46172
247.46414
247.46899
247.47141
247.47625
247.47867
247.4835
247.48591
247.49074
247.49315
247.49797
247.50038
247.50519
247.50759
247.5124
247.5148
247.5196
247.522
247.52679
247.52918
247.53397
247.53636
247.54114
247.54353
247.5483
247.55069
247.55545
247.55783
247.56259
247.56497
247.56972
247.5721
247.57684
247.57921
247.58395
247.58632
247.59105
247.59342
247.59814
247.6005
247.60522
247.60758
247.61229
247.61465
247.61935
247.62171
247.6264
247.62875
247.63345
247.63579
247.64048
247.64282
247.6475
247.64984
247.65451
247.65684
247.66151
247.66384
247.6685
247.67083
247.67548
247.67781
247.68245
247.68477
247.68941
247.69173
247.69637
247.69868
247.70331
247.70562
247.71024
247.71255
247.71716
247.71947
247.72407
247.72637
247.73097
247.73327
247.73787
247.74016
247.74475
247.74704
247.75162
247.75391
247.75849
247.76077
247.76534
247.76762
247.77218
247.77446
247.77902
247.78129
247.78584
247.78811
247.79265
247.79492
247.79946
247.80172
247.80625
247.80852
247.81304
247.8153
247.81981
247.82207
247.82658
247.82883
247.83333
247.83558
247.84008
247.84233
247.84681
247.84906
247.85354
247.85578
247.86026
247.86249
247.86696
247.8692
247.87366
247.87589
247.88035
247.88258
247.88703
247.88925
247.89369
247.89592
247.90035
247.90257
247.907
247.90922
247.91364
247.91585
247.92027
247.92248
247.92689
247.9291
247.9335
247.93571
247.9401
247.9423
247.94669
247.94891
247.95323
247.95555
247.95972
247.96221
247.96619
247.96887
247.97264
247.97551
247.9791
247.98213
247.98557
247.98872
247.99204
247.99528
247.99852
248.00182
248.00501
248.00834
248.01149
248.01484
248.01797
248.02133
248.02444
248.0278
248.03091
248.03427
248.03737
248.04072
248.04381
248.04717
248.05025
248.05361
248.05668
248.06003
248.0631
248.06645
248.06951
248.07285
248.07592
248.07925
248.08232
248.08563
248.08871
248.092
248.09509
248.09835
248.10147
248.1047
248.10784
248.11104
248.11419
248.11738
248.12054
248.1237
248.12687
248.13002
248.1332
248.13632
248.13951
248.14263
248.14581
248.14892
248.1521
248.1552
248.15839
248.16148
248.16466
248.16774
248.17092
248.174
248.17718
248.18025
248.18342
248.18649
248.18966
248.19272
248.19588
248.19894
248.2021
248.20515
248.20831
248.21136
248.21451
248.21755
248.2207
248.22374
248.22688
248.22991
248.23305
248.23608
248.23921
248.24224
248.24537
248.24839
248.25151
248.25453
248.25765
248.26066
248.26378
248.26678
248.26989
248.27289
248.276
248.279
248.2821
248.28509
248.28819
248.29118
248.29427
248.29726
248.30035
248.30333
248.30641
248.30939
248.31247
248.31544
248.31851
248.32148
248.32455
248.32751
248.33058
248.33354
248.3366
248.33955
248.34261
248.34556
248.34861
248.35155
248.3546
248.35754
248.36059
248.36352
248.36656
248.36949
248.37253
248.37546
248.37849
248.38141
248.38444
248.38735
248.39038
248.39329
248.39631
248.39921
248.40223
248.40513
248.40814
248.41104
248.41405
248.41694
248.41995
248.42284
248.42584
248.42872
248.43172
248.4346
248.4376
248.44047
248.44346
248.44634
248.44933
248.45219
248.45518
248.45804
248.46103
248.46389
248.46687
248.46972
248.4727
248.47555
248.47853
248.48138
248.48435
248.48719
248.49016
248.493
248.49597
248.4988
248.50176
248.5046
248.50756
248.51038
248.51334
248.51617
248.51911
248.52194
248.52488
248.52771
248.53063
248.53347
248.53638
248.53922
248.54212
248.54496
248.54785
248.5507
248.55358
248.55643
248.5593
248.56214
248.56501
248.56785
248.57071
248.57355
248.5764
248.57924
248.58209
248.58492
248.58776
248.5906
248.59343
248.59626
248.59909
248.60192
248.60475
248.60757
248.61039
248.61321
248.61603
248.61884
248.62166
248.62447
248.62727
248.63008
248.63289
248.63569
248.63849
248.64129
248.64408
248.64688
248.64967
248.65246
248.65525
248.65803
248.66082
248.6636
248.66638
248.66915
248.67193
248.6747
248.67747
248.68024
248.68301
248.68577
248.68854
248.6913
248.69405
248.69681
248.69957
248.70232
248.70507
248.70782
248.71056
248.71331
248.71605
248.71879
248.72152
248.72426
248.72699
248.72972
248.73245
248.73518
248.73791
248.74063
248.74335
248.74607
248.74878
248.7515
248.75421
248.75692
248.75963
248.76234
248.76504
248.76774
248.77044
248.77314
248.77583
248.77853
248.78122
248.78391
248.7866
248.78928
248.79196
248.79464
248.79732
248.8
248.80267
248.80535
248.80802
248.81069
248.81335
248.81602
248.81868
248.82134
248.824
248.82665
248.82931
248.83196
248.83461
248.83726
248.83991
248.84255
248.84519
248.84783
248.85047
248.85311
248.85574
248.85838
248.86101
248.86364
248.86627
248.86889
248.87152
248.87414
248.87676
248.87938
248.882
248.88461
248.88723
248.88984
248.89245
248.89506
248.89766
248.90027
248.90287
248.90547
248.90807
248.91067
248.91326
248.91586
248.91845
248.92104
248.92363
248.92621
248.9288
248.93138
248.93396
248.93654
248.93912
248.94169
248.94427
248.94684
248.94941
248.95197
248.95454
248.9571
248.95966
248.96222
248.96478
248.96734
248.96989
248.97244
248.97499
248.97754
248.98008
248.98262
248.98517
248.9877
248.99024
248.99278
248.99531
248.99784
249.00037
249.00289
249.00542
249.00794
249.01046
249.01298
249.01549
249.01801
249.02052
249.02303
249.02554
249.02804
249.03055
249.03305
249.03555
249.03804
249.04054
249.04303
249.04552
249.04801
249.0505
249.05299
249.05547
249.05795
249.06043
249.0629
249.06538
249.06785
249.07032
249.07279
249.07526
249.07772
249.08018
249.08264
249.0851
249.08755
249.09001
249.09246
249.09491
249.09735
249.0998
249.10224
249.10469
249.10712
249.10956
249.112
249.11443
249.11686
249.11929
249.12171
249.12414
249.12656
249.12898
249.1314
249.13381
249.13623
249.13864
249.14105
249.14346
249.14587
249.14827
249.15067
249.15307
249.15547
249.15786
249.16026
249.16265
249.16503
249.16742
249.1698
249.17219
249.17457
249.17695
249.17932
249.1817
249.18407
249.18644
249.18881
249.19117
249.19354
249.1959
249.19826
249.20062
249.20298
249.20533
249.20768
249.21003
249.21238
249.21472
249.21707
249.21941
249.22175
249.22408
249.22642
249.22875
249.23108
249.23341
249.23573
249.23806
249.24038
249.2427
249.24502
249.24733
249.24965
249.25196
249.25427
249.25658
249.25888
249.26119
249.26349
249.26579
249.26809
249.27038
249.27268
249.27497
249.27726
249.27955
249.28184
249.28412
249.2864
249.28869
249.29097
249.29324
249.29552
249.29779
249.30007
249.30234
249.30461
249.30687
249.30914
249.3114
249.31366
249.31592
249.31818
249.32044
249.32269
249.32494
249.32719
249.32944
249.33169
249.33393
249.33617
249.33841
249.34065
249.34289
249.34512
249.34736
249.34959
249.35182
249.35404
249.35627
249.35849
249.36071
249.36293
249.36515
249.36737
249.36958
249.37179
249.374
249.37621
249.37841
249.38062
249.38282
249.38502
249.38721
249.38941
249.3916
249.39379
249.39598
249.39817
249.40035
249.40253
249.40471
249.40689
249.40907
249.41124
249.41341
249.41558
249.41775
249.41992
249.42208
249.42424
249.4264
249.42856
249.43071
249.43287
249.43502
249.43717
249.43931
249.44146
249.4436
249.44574
249.44788
249.45002
249.45215
249.45429
249.45642
249.45854
249.46067
249.46279
249.46492
249.46704
249.46916
249.47127
249.47338
249.4755
249.47761
249.47971
249.48182
249.48392
249.48602
249.48812
249.49022
249.49231
249.49441
249.4965
249.49859
249.50067
249.50276
249.50484
249.50692
249.509
249.51108
249.51315
249.51522
249.5173
249.51936
249.52143
249.52349
249.52556
249.52762
249.52967
249.53173
249.53378
249.53584
249.53789
249.53993
249.54198
249.54402
249.54606
249.5481
249.55014
249.55218
249.55421
249.55624
249.55827
249.5603
249.56232
249.56435
249.56637
249.56839
249.5704
249.57242
249.57443
249.57644
249.57845
249.58046
249.58247
249.58447
249.58647
249.58847
249.59047
249.59246
249.59445
249.59645
249.59844
249.60042
249.60241
249.60439
249.60637
249.60835
249.61033
249.61231
249.61428
249.61625
249.61822
249.62019
249.62216
249.62413
249.62609
249.62806
249.63002
249.63197
249.63393
249.63588
249.63784
249.63979
249.64174
249.64368
249.64563
249.64757
249.64951
249.65145
249.65339
249.65533
249.65726
249.65919
249.66112
249.66305
249.66498
249.66691
249.66883
249.67075
249.67268
249.6746
249.67651
249.67843
249.68034
249.68225
249.68416
249.68607
249.68797
249.68987
249.69178
249.69367
249.69557
249.69747
249.69936
249.70126
249.70315
249.70503
249.70692
249.70881
249.71069
249.71257
249.71445
249.71632
249.7182
249.72007
249.72194
249.72381
249.72568
249.72754
249.72941
249.73127
249.73313
249.73499
249.73684
249.73869
249.74054
249.74239
249.74424
249.74609
249.74793
249.74977
249.75161
249.75345
249.75528
249.75711
249.75894
249.76077
249.7626
249.76443
249.76625
249.76807
249.76989
249.7717
249.77352
249.77533
249.77714
249.77895
249.78076
249.78256
249.78437
249.78617
249.78797
249.78976
249.79156
249.79335
249.79514
249.79693
249.79872
249.8005
249.80229
249.80407
249.80585
249.80763
249.8094
249.81117
249.81295
249.81472
249.81648
249.81825
249.82001
249.82177
249.82353
249.82529
249.82704
249.82879
249.83055
249.8323
249.83404
249.83579
249.83753
249.83928
249.84102
249.84275
249.84449
249.84622
249.84795
249.84968
249.85141
249.85314
249.85486
249.85658
249.8583
249.86002
249.86174
249.86345
249.86516
249.86687
249.86858
249.87029
249.87199
249.87369
249.8754
249.87709
249.87879
249.88049
249.88218
249.88387
249.88556
249.88725
249.88893
249.89062
249.8923
249.89398
249.89565
249.89733
249.89901
249.90068
249.90235
249.90402
249.90569
249.90735
249.90902
249.91068
249.91234
249.91399
249.91565
249.9173
249.91896
249.92061
249.92226
249.9239
249.92556
249.9272
249.92884
249.93048
249.93212
249.93376
249.9354
249.93703
249.93866
249.94029
249.94192
249.94355
249.94517
249.9468
249.94842
249.95004
249.95166
249.95328
249.95489
249.95651
249.95812
249.95974
249.96134
249.96295
249.96455
249.96616
249.96776
249.96937
249.97096
249.97256
249.97416
249.97575
249.97735
249.97894
249.98053
249.98211
249.9837
249.98528
249.98687
249.98845
249.99003
249.9916
249.99318
249.99475
249.99633
249.9979
249.99947
250.00104
250.0026
250.00417
250.00573
250.00729
250.00885
250.01041
250.01196
250.01352
250.01506
250.01662
250.01816
250.01971
250.02125
250.0228
250.02434
250.02588
250.02742
250.02895
250.03049
250.03202
250.03355
250.03508
250.03661
250.03813
250.03966
250.04118
250.0427
250.04422
250.04573
250.04725
250.04876
250.05027
250.05178
250.05329
250.0548
250.0563
250.0578
250.0593
250.0608
250.0623
250.06379
250.06529
250.06678
250.06827
250.06976
250.07125
250.07273
250.07421
250.07569
250.07717
250.07865
250.08013
250.0816
250.08307
250.08454
250.08601
250.08748
250.08894
250.09041
250.09187
250.09333
250.09478
250.09624
250.09769
250.09915
250.1006
250.10205
250.10349
250.10494
250.10638
250.10782
250.10926
250.1107
250.11213
250.11357
250.115
250.11643
250.11786
250.11929
250.12071
250.12213
250.12355
250.12497
250.12639
250.12781
250.12922
250.13063
250.13204
250.13345
250.13485
250.13626
250.13766
250.13906
250.14046
250.14185
250.14325
250.14464
250.14603
250.14742
250.14881
250.15019
250.15158
250.15296
250.15434
250.15572
250.15709
250.15846
250.15984
250.16121
250.16258
250.16394
250.16531
250.16667
250.16803
250.16939
250.17075
250.1721
250.17346
250.17481
250.17616
250.1775
250.17885
250.1802
250.18154
250.18288
250.18422
250.18556
250.18689
250.18822
250.18956
250.19089
250.19222
250.19354
250.19487
250.19619
250.19751
250.19883
250.20015
250.20147
250.20278
250.20409
250.20541
250.20671
250.20802
250.20933
250.21063
250.21193
250.21323
250.21453
250.21583
250.21712
250.21842
250.21971
250.221
250.22228
250.22357
250.22485
250.22614
250.22742
250.2287
250.22998
250.23125
250.23253
250.23379
250.23507
250.23633
250.23761
250.23887
250.24013
250.24139
250.24265
250.24391
250.24517
250.24642
250.24768
250.24892
250.25018
250.25142
250.25267
250.25391
250.25516
250.25639
250.25764
250.25887
250.26011
250.26134
250.26257
250.2638
250.26503
250.26625
250.26748
250.2687
250.26992
250.27114
250.27236
250.27357
250.27478
250.276
250.27721
250.27841
250.27962
250.28082
250.28203
250.28323
250.28443
250.28562
250.28682
250.28801
250.2892
250.29039
250.29158
250.29277
250.29395
250.29514
250.29632
250.2975
250.29868
250.29985
250.30103
250.3022
250.30337
250.30454
250.30571
250.30687
250.30804
250.3092
250.31036
250.31152
250.31268
250.31383
250.31499
250.31614
250.31729
250.31844
250.31958
250.32073
250.32187
250.32301
250.32415
250.32529
250.32643
250.32756
250.32869
250.32982
250.33095
250.33208
250.3332
250.33433
250.33545
250.33657
250.33769
250.33881
250.33993
250.34105
250.34216
250.34327
250.34438
250.34549
250.34659
250.3477
250.3488
250.3499
250.351
250.3521
250.35319
250.35429
250.35538
250.35647
250.35756
250.35864
250.35973
250.36081
250.3619
250.36298
250.36406
250.36513
250.36621
250.36728
250.36836
250.36943
250.3705
250.37156
250.37263
250.37369
250.37476
250.37582
250.37688
250.37794
250.37899
250.38005
250.3811
250.38215
250.3832
250.38425
250.3853
250.38634
250.38739
250.38843
250.38947
250.39051
250.39154
250.39258
250.39361
250.39464
250.39567
250.3967
250.39773
250.39875
250.39977
250.4008
250.40182
250.40284
250.40386
250.40488
250.40589
250.40691
250.40792
250.40893
250.40994
250.41095
250.41195
250.41295
250.41396
250.41496
250.41595
250.41695
250.41795
250.41894
250.41993
250.42092
250.42191
250.4229
250.42389
250.42487
250.42586
250.42684
250.42782
250.4288
250.42977
250.43075
250.43172
250.43269
250.43366
250.43463
250.43559
250.43656
250.43752
250.43848
250.43944
250.4404
250.44135
250.44231
250.44326
250.44422
250.44517
250.44611
250.44706
250.448
250.44895
250.44989
250.45082
250.45176
250.4527
250.45363
250.45456
250.45549
250.45642
250.45735
250.45827
250.4592
250.46012
250.46104
250.46196
250.46287
250.46379
250.4647
250.46561
250.46652
250.46743
250.46833
250.46924
250.47014
250.47104
250.47194
250.47284
250.47373
250.47463
250.47552
250.47641
250.47729
250.47818
250.47906
250.47995
250.48083
250.48171
250.48258
250.48346
250.48433
250.48521
250.48608
250.48695
250.48781
250.48868
250.48954
250.4904
250.49126
250.49212
250.49298
250.49383
250.49468
250.49553
250.49638
250.49723
250.49807
250.49892
250.49976
250.5006
250.50144
250.50227
250.50311
250.50394
250.50478
250.50561
250.50643
250.50726
250.50809
250.50891
250.50973
250.51055
250.51137
250.51219
250.513
250.51381
250.51463
250.51544
250.51624
250.51705
250.51785
250.51866
250.51946
250.52026
250.52106
250.52185
250.52265
250.52344
250.52423
250.52502
250.52581
250.5266
250.52738
250.52816
250.52895
250.52973
250.53051
250.53128
250.53206
250.53283
250.53361
250.53438
250.53515
250.53591
250.53668
250.53745
250.53821
250.53897
250.53973
250.54049
250.54124
250.542
250.54275
250.5435
250.54425
250.545
250.54575
250.5465
250.54724
250.54799
250.54873
250.54947
250.55021
250.55094
250.55168
250.55241
250.55314
250.55388
250.55461
250.55533
250.55606
250.55679
250.55751
250.55823
250.55895
250.55967
250.56039
250.5611
250.56182
250.56253
250.56324
250.56395
250.56466
250.56537
250.56607
250.56678
250.56748
250.56818
250.56888
250.56958
250.57028
250.57097
250.57167
250.57236
250.57305
250.57374
250.57443
250.57511
250.5758
250.57648
250.57716
250.57784
250.57852
250.57919
250.57986
250.58054
250.58121
250.58188
250.58254
250.58321
250.58388
250.58454
250.5852
250.58586
250.58652
250.58718
250.58783
250.58848
250.58914
250.58979
250.59043
250.59108
250.59173
250.59237
250.59301
250.59365
250.59429
250.59493
250.59556
250.59619
250.59682
250.59745
250.59808
250.5987
250.59933
250.59995
250.60057
250.60119
250.60181
250.60242
250.60304
250.60365
250.60426
250.60487
250.60548
250.60608
250.60668
250.60729
250.60789
250.60849
250.60908
250.60968
250.61027
250.61086
250.61145
250.61203
250.61262
250.6132
250.61378
250.61437
250.61494
250.61552
250.6161
250.61667
250.61724
250.61781
250.61838
250.61895
250.61951
250.62008
250.62064
250.62119
250.62175
250.62231
250.62286
250.62341
250.62396
250.62451
250.62506
250.6256
250.62614
250.62668
250.62722
250.62776
250.6283
250.62883
250.62937
250.6299
250.63043
250.63095
250.63148
250.632
250.63253
250.63305
250.63357
250.63409
250.6346
250.63512
250.63563
250.63614
250.63665
250.63716
250.63766
250.63817
250.63867
250.63917
250.63967
250.64017
250.64066
250.64116
250.64165
250.64214
250.64263
250.64311
250.6436
250.64408
250.64456
250.64505
250.64553
250.646
250.64648
250.64695
250.64743
250.6479
250.64837
250.64884
250.6493
250.64977
250.65023
250.65069
250.65115
250.65161
250.65207
250.65252
250.65298
250.65343
250.65388
250.65433
250.65478
250.65522
250.65567
250.65611
250.65655
250.65699
250.65743
250.65787
250.6583
250.65874
250.65917
250.6596
250.66003
250.66046
250.66089
250.66131
250.66174
250.66216
250.66258
250.663
250.66342
250.66383
250.66425
250.66466
250.66507
250.66548
250.66589
250.6663
250.6667
250.66711
250.66751
250.66791
250.66831
250.66871
250.66911
250.6695
250.6699
250.67029
250.67068
250.67107
250.67145
250.67184
250.67222
250.6726
250.67298
250.67336
250.67374
250.67411
250.67449
250.67486
250.67523
250.6756
250.67596
250.67633
250.67669
250.67705
250.67741
250.67777
250.67812
250.67848
250.67883
250.67918
250.67953
250.67987
250.68022
250.68056
250.6809
250.68124
250.68158
250.68191
250.68224
250.68258
250.6829
250.68323
250.68355
250.68388
250.6842
250.68451
250.68483
250.68514
250.68545
250.68576
250.68607
250.68637
250.68667
250.68697
250.68727
250.68756
250.68785
250.68814
250.68843
250.68871
250.689
250.68928
250.68955
250.68983
250.6901
250.69037
250.69063
250.6909
250.69116
250.69142
250.69167
250.69193
250.69218
250.69243
250.69268
250.69292
250.69316
250.69339
250.69363
250.69386
250.69409
250.69431
250.69453
250.69475
250.69497
250.69518
250.69539
250.69559
250.6958
250.696
250.69619
250.69639
250.69658
250.69676
250.69695
250.69713
250.69731
250.69748
250.69766
250.69783
250.69799
250.69815
250.69831
250.69847
250.69862
250.69877
250.69891
250.69905
250.69919
250.69932
250.69945
250.69958
250.6997
250.69982
250.69994
250.70005
250.70016
250.70026
250.70036
250.70046
250.70056
250.70065
250.70073
250.70081
250.70089
250.70097
250.70104
250.70111
250.70117
250.70123
250.70129
250.70134
250.70139
250.70143
250.70148
250.70151
250.70155
250.70158
250.7016
250.70162
250.70164
250.70165
250.70166
250.70167
250.70167
250.70166
250.70166
250.70165
250.70163
250.70161
250.70159
250.70156
250.70153
250.70149
250.70145
250.70141
250.70136
250.7013
250.70125
250.70119
250.70112
250.70105
250.70098
250.7009
250.70082
250.70073
250.70064
250.70055
250.70045
250.70035
250.70024
250.70013
250.70001
250.69989
250.69977
250.69964
250.69951
250.69937
250.69923
250.69909
250.69894
250.69878
250.69863
250.69846
250.6983
250.69813
250.69795
250.69777
250.69759
250.6974
250.69721
250.69702
250.69682
250.69661
250.69641
250.69619
250.69598
250.69576
250.69553
250.69531
250.69507
250.69484
250.6946
250.69435
250.6941
250.69385
250.69359
250.69333
250.69307
250.6928
250.69253
250.69225
250.69197
250.69169
250.6914
250.69111
250.69081
250.69051
250.69021
250.6899
250.68959
250.68928
250.68896
250.68864
250.68831
250.68798
250.68765
250.68731
250.68697
250.68663
250.68628
250.68593
250.68558
250.68522
250.68486
250.68449
250.68412
250.68375
250.68337
250.68299
250.68261
250.68222
250.68183
250.68144
250.68104
250.68064
250.68024
250.67983
250.67942
250.67901
250.6786
250.67818
250.67776
250.67733
250.67691
250.67648
250.67604
250.67561
250.67517
250.67472
250.67428
250.67383
250.67337
250.67292
250.67246
250.672
250.67153
250.67106
250.67059
250.67012
250.66964
250.66917
250.66868
250.6682
250.66772
250.66723
250.66674
250.66624
250.66575
250.66525
250.66475
250.66424
250.66374
250.66323
250.66272
250.66221
250.66169
250.66117
250.66065
250.66013
250.6596
250.65908
250.65855
250.65801
250.65748
250.65694
250.6564
250.65586
250.65532
250.65477
250.65423
250.65368
250.65313
250.65257
250.65202
250.65146
250.6509
250.65034
250.64978
250.64922
250.64865
250.64809
250.64752
250.64695
250.64638
250.6458
250.64523
250.64465
250.64407
250.64349
250.64291
250.64232
250.64174
250.64115
250.64056
250.63997
250.63938
250.63879
250.6382
250.6376
250.63701
250.63641
250.63581
250.63521
250.63461
250.63401
250.6334
250.6328
250.63219
250.63159
250.63098
250.63037
250.62976
250.62915
250.62854
250.62793
250.62732
250.6267
250.62609
250.62547
250.62486
250.62424
250.62362
250.62301
250.62239
250.62177
250.62115
250.62053
250.61991
250.61929
250.61867
250.61805
250.61743
250.6168
250.61618
250.61556
250.61493
250.61431
250.61369
250.61306
250.61244
250.61182
250.6112
250.61058
250.60995
250.60933
250.60871
250.60809
250.60747
250.60685
250.60623
250.60561
250.60499
250.60437
250.60375
250.60313
250.60251
250.60189
250.60127
250.60065
250.60003
250.59942
250.5988
250.59819
250.59758
250.59696
250.59635
250.59574
250.59513
250.59453
250.59392
250.59331
250.59271
250.5921
250.5915
250.5909
250.59029
250.5897
250.5891
250.5885
250.58791
250.58732
250.58672
250.58613
250.58555
250.58496
250.58438
250.58379
250.58321
250.58263
250.58205
250.58147
250.5809
250.58032
250.57975
250.57918
250.57861
250.57805
250.57748
250.57692
250.57636
250.57581
250.57525
250.5747
250.57415
250.5736
250.57305
250.5725
250.57196
250.57142
250.57088
250.57035
250.56981
250.56928
250.56875
250.56823
250.56771
250.56719
250.56667
250.56615
250.56564
250.56513
250.56462
250.56411
250.56361
250.56311
250.56261
250.56211
250.56162
250.56113
250.56064
250.56016
250.55967
250.55919
250.55872
250.55824
250.55777
250.5573
250.55684
250.55637
250.55591
250.55545
250.555
250.55455
250.5541
250.55365
250.55321
250.55277
250.55233
250.55189
250.55146
250.55103
250.5506
250.55018
250.54976
250.54934
250.54892
250.54851
250.54809
250.54769
250.54728
250.54688
250.54648
250.54608
250.54569
250.5453
250.54491
250.54453
250.54414
250.54376
250.54339
250.54301
250.54264
250.54227
250.54191
250.54154
250.54118
250.54082
250.54046
250.54011
250.53976
250.53941
250.53906
250.53872
250.53837
250.53803
250.5377
250.53736
250.53703
250.5367
250.53637
250.53605
250.53573
250.5354
250.53509
250.53477
250.53446
250.53414
250.53384
250.53353
250.53323
250.53292
250.53262
250.53233
250.53202
250.53174
250.53143
250.53115
250.53086
250.53057
250.53029
250.52999
250.52972
250.52943
250.52915
250.52888
250.5286
250.52833
250.52806
250.52778
250.52752
250.52725
250.52698
250.52672
250.52645
250.5262
250.52594
250.52568
250.52542
250.52517
250.52491
250.52466
250.52441
250.52416
250.52391
250.52366
250.52342
250.52317
250.52293
250.52269
250.52244
250.5222
250.52196
250.52172
250.52148
250.52124
250.521
250.52076
250.52053
250.52029
250.52005
250.51982
250.51958
250.51935
250.51911
250.51888
250.51864
250.51841
250.51818
250.51795
250.51772
250.51749
250.51725
250.51702
250.51679
250.51656
250.51633
250.51609
250.51586
250.51563
250.5154
250.51517
250.51494
250.51471
250.51448
250.51425
250.51402
250.51379
250.51356
250.51333
250.5131
250.51287
250.51263
250.5124
250.51217
250.51193
250.5117
250.51146
250.51123
250.51099
250.51075
250.51051
250.51027
250.51003
250.50978
250.50954
250.5093
250.50905
250.50881
250.50856
250.50832
250.50807
250.50782
250.50756
250.50731
250.50705
250.5068
250.50654
250.50628
250.50602
250.50576
250.50549
250.50522
250.50495
250.50468
250.50441
250.50413
250.50385
250.50357
250.50329
250.50301
250.50272
250.50243
250.50214
250.50184
250.50154
250.50124
250.50094
250.50063
250.50032
250.50001
250.49969
250.49937
250.49904
250.49871
250.49838
250.49804
250.4977
250.49736
250.49701
250.49665
250.4963
250.49593
250.49556
250.49519
250.4948
250.49442
250.49402
250.49362
250.49322
250.4928
250.49238
250.49196
250.49153
250.49109
250.49064
250.49018
250.48972
250.48925
250.48877
250.48828
250.48778
250.48727
250.48675
250.48622
250.48569
250.48514
250.48458
250.48401
250.48343
250.48283
250.48223
250.48161
250.48099
250.48034
250.47969
250.47902
250.47834
250.47765
250.47694
250.47621
250.47547
250.47472
250.47395
250.47317
250.47236
250.47155
250.47071
250.46986
250.46899
250.46811
250.4672
250.46627
250.46533
250.46437
250.46339
250.46239
250.46137
250.46032
250.45926
250.45818
250.45707
250.45595
250.45479
250.45362
250.45243
250.45121
250.44997
250.4487
250.4474
250.44609
250.44475
250.44339
250.442
250.44059
250.43915
250.43768
250.4362
250.43468
250.43315
250.43158
250.42998
250.42837
250.42672
250.42506
250.42336
250.42164
250.41989
250.41811
250.4163
250.41448
250.41262
250.41074
250.40883
250.40689
250.40492
250.40293
250.40092
250.39888
250.39681
250.39471
250.39259
250.39044
250.38827
250.38608
250.38386
250.38162
250.37935
250.37705
250.37473
250.37239
250.37002
250.36764
250.36524
250.36281
250.36035
250.35787
250.35537
250.35286
250.35033
250.34778
250.34521
250.34261
250.33998
250.33733
250.33467
250.33201
250.32933
250.32664
250.32392
250.32119
250.31843
250.31566
250.31288
250.31009
250.30729
250.30449
250.30167
250.29883
250.29598
250.29311
250.29023
250.28736
250.2845
250.28164
250.27878
250.27591
250.27302
250.27013
250.26721
250.2643
250.2614
250.25851
250.25564
250.25278
250.24993
250.24708
250.24423
250.24138
250.23853
250.23571
250.23292
250.23016
250.22744
250.22475
250.22209
250.21944
250.21679
250.21416
250.21154
250.20894
250.20637
250.20383
250.20133
250.19888
250.19647
250.19409
250.19174
250.1894
250.18707
250.18476
250.18244
250.18014
250.17785
250.17558
250.17333
250.17113
250.16894
250.16682
250.16474
250.16268
250.16066
250.15865
250.15662
250.15458
250.15254
250.15044
250.14833
250.14621
250.14406
250.14192
250.13982
250.13775
250.13571
250.13374
250.13185
250.13002
250.12826
250.12652
250.1249
250.12359
250.12243
250.12076
250.11866
250.11729
250.11704
250.11712
250.11758
250.11887
250.12233
250.13189
250.15924
250.23822
250.46623
250.94787
251.49919
252.09065
252.71322
253.35852
254.01803
254.68349
255.34713
256.00183
256.64117
257.25949
257.85216
258.41528
258.94588
259.442
259.90223
260.32601
260.71363
261.06557
261.38292
261.66745
261.92086
262.14495
262.34212
262.51472
262.66471
262.7942
262.90564
263.00108
263.08211
263.15042
263.20789
263.25613
263.29621
263.32909
263.35587
263.37773
263.39558
263.40995
263.42122
263.42982
263.43624
263.44101
263.44456
263.4472
263.44911
263.45042
263.45121
263.45156
263.45162
263.45149
263.45089
263.44977
263.44857
263.44727
263.44588
263.44445
263.44299
263.44153
263.44008
263.43864
263.43723
263.43584
263.43447
263.43311
263.43178
263.43045
263.42914
263.42784
263.42655
263.42527
263.424
263.42272
263.42145
263.42018
263.41891
263.41763
263.41635
263.41507
263.41378
263.41248
263.41118
263.40987
263.40855
263.40722
263.40589
263.40455
263.4032