-1.25 	300 	0.1165229460947604 	101372.5528258148
-1.247497497497497 	300.0380246837898 	0.1159090619353507 	101372.3429314282
-1.244994994994995 	300.0398125285138 	0.115334006258616 	101372.1198286505
-1.242492492492492 	300.0396577748193 	0.1149578885119434 	101371.8883884939
-1.23998998998999 	300.0394531481047 	0.1142675296203892 	101371.6487343468
-1.237487487487487 	300.0392431945295 	0.1136747915740112 	101371.4004788244
-1.234984984984985 	300.0390258970126 	0.1130447907415154 	101371.1435134194
-1.232482482482482 	300.0388012706142 	0.1123954179007614 	101370.8778837641
-1.22997997997998 	300.038569391514 	0.1117267218218328 	101370.6036762524
-1.227477477477477 	300.0383303924631 	0.1110351390584386 	101370.3210489824
-1.224974974974975 	300.0380843192719 	0.1103188334359072 	101370.0300611183
-1.222472472472472 	300.0378311872435 	0.1095839931226559 	101369.7307186456
-1.21996996996997 	300.0375711989779 	0.1088335844124017 	101369.4232679723
-1.217467467467467 	300.0373045222913 	0.1080658149815137 	101369.1079193629
-1.214964964964965 	300.0370311162146 	0.1072723604667262 	101368.7846115174
-1.212462462462462 	300.0367508477619 	0.106456349668764 	101368.4531817467
-1.20995995995996 	300.0364636814936 	0.1056229637107981 	101368.1135969819
-1.207457457457457 	300.0361696400356 	0.1047737881800492 	101367.7658853578
-1.204954954954955 	300.0358689207368 	0.1039070990603403 	101367.4102761278
-1.202452452452452 	300.0355616475351 	0.1030153357726655 	101367.0469175594
-1.19994994994995 	300.0352477140158 	0.102102065561462 	101366.6756869287
-1.197447447447447 	300.0349272873551 	0.1011723851702107 	101366.2967809811
-1.194944944944945 	300.0346005315938 	0.100228472752533 	101365.9103913546
-1.192442442442442 	300.0342675769614 	0.09926747458394658 	101365.5166680257
-1.18993993993994 	300.0339284291977 	0.09828279101530402 	101365.1156201249
-1.187437437437437 	300.0335829400297 	0.09727947468005231 	101364.7070762354
-1.184934934934935 	300.0332311906275 	0.09626021451366952 	101364.2911295159
-1.182432432432432 	300.0328732715153 	0.09522421764623865 	101363.8678876468
-1.17992992992993 	300.0325092963854 	0.09417122777918371 	101363.4374881768
-1.177427427427427 	300.032139308579 	0.09309869537248963 	101362.9999830531
-1.174924924924925 	300.0317632360386 	0.09200815802211121 	101362.5552828592
-1.172422422422422 	300.0313813933395 	0.09090146706006692 	101362.1037567771
-1.16991991991992 	300.0309939078287 	0.08977936807688375 	101361.6455590595
-1.167417417417417 	300.0306006890276 	0.08864127288484697 	101361.1805876966
-1.164914914914915 	300.0302019514172 	0.08748631583554421 	101360.7090969839
-1.162412412412412 	300.0297975954593 	0.08631495662522147 	101360.2309642278
-1.15990990990991 	300.0293876276152 	0.08512710183739869 	101359.7461913502
-1.157407407407407 	300.0289725065586 	0.08392423595546881 	101359.2553202984
-1.154904904904904 	300.0285520045416 	0.08270602967615931 	101358.7580860398
-1.152402402402403 	300.0281258744667 	0.0814717375938087 	101358.2542027169
-1.1498998998999 	300.0276947055823 	0.08022265312170873 	101357.7443697364
-1.147397397397397 	300.0272585632547 	0.07895832520457058 	101357.2286616002
-1.144894894894895 	300.0268171285992 	0.07767954983527825 	101356.7066965502
-1.142392392392392 	300.0263709092372 	0.07638766227682672 	101356.1790699046
-1.13988988988989 	300.0259200963588 	0.07508287869856753 	101355.6460063423
-1.137387387387387 	300.0254641973328 	0.07376329659605069 	101355.1069252567
-1.134884884884885 	300.0250036660346 	0.0724282416585047 	101354.5623669851
-1.132382382382382 	300.0245390884397 	0.07108082262828604 	101354.0130266398
-1.12987987987988 	300.0240696405108 	0.06971999128072076 	101353.457930354
-1.127377377377377 	300.0235949767132 	0.06834628677030294 	101352.8966718626
-1.124874874874875 	300.0231164354064 	0.06696063282468587 	101352.3308336023
-1.122372372372372 	300.0226343076071 	0.06556116776352067 	101351.7607587801
-1.11986986986987 	300.0221472428774 	0.0641499027057167 	101351.1848506847
-1.117367367367367 	300.0216553642517 	0.062727332857441 	101350.6032538163
-1.114864864864865 	300.0211603074121 	0.06129730776439989 	101350.0179026898
-1.112362362362362 	300.0206622089873 	0.05985628245710312 	101349.4289572259
-1.10985985985986 	300.0201599811199 	0.0583971458447814 	101348.8351316242
-1.107357357357357 	300.0196533019351 	0.05692678130709124 	101348.2360466583
-1.104854854854855 	300.0191428599837 	0.05544841194775382 	101347.632514872
-1.102352352352353 	300.0186295718377 	0.05396347109159567 	101347.0256202408
-1.09984984984985 	300.0181133656661 	0.05246800709094741 	101346.415277502
-1.097347347347347 	300.0175930862823 	0.05095751465092087 	101345.8001214924
-1.094844844844845 	300.0170686123021 	0.04943837339124134 	101345.1800089578
-1.092342342342342 	300.0165407790727 	0.04791148627207847 	101344.5559269207
-1.08983983983984 	300.016010490088 	0.04637907957374543 	101343.9289447787
-1.087337337337337 	300.015478892044 	0.04484088977360125 	101343.300417536
-1.084834834834835 	300.0149453927003 	0.04329154941019864 	101342.6696445562
-1.082332332332332 	300.0144072325668 	0.04173109560515582 	101342.0333626754
-1.07982982982983 	300.0138641773723 	0.04015814741943777 	101341.3912954872
-1.077327327327327 	300.0133182521735 	0.03857636485691286 	101340.7458400651
-1.074824824824825 	300.012771849209 	0.03699534121716078 	101340.099824464
-1.072322322322323 	300.0122259624146 	0.03541407286288016 	101339.4544213474
-1.06981981981982 	300.0116788338553 	0.03382586361343484 	101338.8075506985
-1.067317317317317 	300.0111267141844 	0.03222682030067619 	101338.1547799593
-1.064814814814815 	300.0105692352098 	0.03061380962464824 	101337.4956762939
-1.062312312312312 	300.0100080470036 	0.02899170347550888 	101336.8321927741
-1.05980980980981 	300.0094461913584 	0.02736682844385796 	101336.1679252187
-1.057307307307307 	300.0088860887582 	0.02574209961563372 	101335.5057330934
-1.054804804804805 	300.008327809635 	0.02412083314980891 	101334.8456986629
-1.052302302302302 	300.0077687906979 	0.02249964115658968 	101334.184791199
-1.0497997997998 	300.0072069588871 	0.02087182996694751 	101333.5205603805
-1.047297297297297 	300.0066410285609 	0.01923333874520791 	101332.8514870642
-1.044794794794795 	300.0060715168987 	0.01758420058139481 	101332.1781829226
-1.042292292292292 	300.0054999446534 	0.01592846889294693 	101331.5024463117
-1.03978978978979 	300.0049271085214 	0.01426955835513018 	101330.8252197644
-1.037287287287287 	300.0043534211766 	0.01260940046991099 	101330.1469902101
-1.034784784784785 	300.0037799729944 	0.01094936755077782 	101329.4690463117
-1.032282282282283 	300.0032069016555 	0.00928849891086706 	101328.7915508914
-1.02977977977978 	300.0026333889764 	0.007625320135504893 	101328.113537203
-1.027277277277277 	300.0020591280082 	0.00596052470875627 	101327.4346420253
-1.024774774774775 	300.0014845843729 	0.00429590255242049 	101326.7554153325
-1.022272272272272 	300.0009105697337 	0.002634911427437553 	101326.0768181005
-1.01976976976977 	300.0003379799492 	0.0009768167709263084 	101325.3999097238
-1.017267267267267 	299.9997662731933 	0.0009261915718471615 	101324.7240476392
-1.014764764764765 	299.9991943301073 	0.002338313819654326 	101324.0479065583
-1.012262262262262 	299.9986218754841 	0.003996617200828438 	101323.3711627989
-1.00975975975976 	299.9980491064961 	0.005653231545556945 	101322.6940539279
-1.007257257257257 	299.997476341809 	0.007310826585520086 	101322.0169554182
-1.004754754754755 	299.9969038730657 	0.00897223767208827 	101321.3402078284
-1.002252252252252 	299.9963318084498 	0.01063147227308998 	101320.6639368585
-0.9997497497497498 	299.9957601111159 	0.01228796617057478 	101319.9881027731
-0.9972472472472473 	299.9951888582403 	0.01393908907403462 	101319.3128037237
-0.9947447447447449 	299.994618371936 	0.01558916090689998 	101318.6384182949
-0.9922422422422421 	299.9940490115317 	0.01724197510891391 	101317.9653631608
-0.9897397397397399 	299.993480919439 	0.01888977663987363 	101317.293801545
-0.9872372372372376 	299.9929140575576 	0.02053198285239384 	101316.6236936975
-0.9847347347347346 	299.9923484601103 	0.02216666919955861 	101315.9550924832
-0.9822322322322323 	299.9917843282117 	0.02379872494170492 	101315.2882380926
-0.9797297297297296 	299.9912218197042 	0.02543213160451244 	101314.6233070479
-0.9772272272272275 	299.9906608910475 	0.02705937279949979 	101313.9602341454
-0.9747247247247248 	299.9901014655505 	0.02868009968564758 	101313.2989273632
-0.9722222222222224 	299.9895436729761 	0.03029422184116458 	101312.6395538429
-0.9697197197197196 	299.9889878056845 	0.03190353080839927 	101311.982473394
-0.9672172172172175 	299.9884340768874 	0.03350919084384444 	101311.3279404475
-0.9647147147147147 	299.9878825323053 	0.03510768549437917 	101310.6759956092
-0.9622122122122124 	299.9873332057587 	0.03669893603593031 	101310.0266617117
-0.9597097097097099 	299.9867862545107 	0.03828233753895981 	101309.3801183081
-0.9572072072072073 	299.9862418520088 	0.03985915303973966 	101308.7365796365
-0.9547047047047047 	299.9857000273196 	0.04142985572803655 	101308.0960987166
-0.9522022022022023 	299.98516072985 	0.04299254423654188 	101307.458629658
-0.9496996996996998 	299.9846240132872 	0.04454740979692528 	101306.8242344781
-0.9471971971971973 	299.9840900744823 	0.04609354883147786 	101306.1931305223
-0.9446946946946947 	299.9835591173815 	0.04763158976187314 	101305.5655397734
-0.9421921921921923 	299.9830312354568 	0.04916129597554684 	101304.9415618105
-0.93968968968969 	299.9825064709018 	0.05068150761280317 	101304.3212508785
-0.9371871871871872 	299.9819849320107 	0.0521925835236894 	101303.7047508889
-0.9346846846846848 	299.9814667619266 	0.05369343791527611 	101303.0922473757
-0.9321821821821823 	299.9809520441568 	0.05518453427774743 	101302.4838492537
-0.9296796796796799 	299.9804408163445 	0.05666546249487721 	101301.8796023945
-0.9271771771771771 	299.9799331341905 	0.05813590886301078 	101301.2795644838
-0.9246746746746748 	299.9794291094673 	0.05959642135644614 	101300.6838544889
-0.9221721721721724 	299.9789288952892 	0.06104552670040819 	101300.0926393154
-0.9196696696696698 	299.9784325990692 	0.06248345388919598 	101299.5060348112
-0.9171671671671672 	299.9779402728016 	0.06390932752529066 	101298.9240997257
-0.9146646646646649 	299.9774520083703 	0.0653234890841867 	101298.3469471084
-0.9121621621621623 	299.9769679270261 	0.06672670171486211 	101297.7747274783
-0.9096596596596597 	299.9764881171255 	0.06811693207350354 	101297.2075527503
-0.9071571571571573 	299.9760126558647 	0.06949444048937481 	101296.6455204074
-0.9046546546546547 	299.9755416088909 	0.07085798740459873 	101296.0887114892
-0.9021521521521524 	299.9750750467065 	0.07220901707768358 	101295.5372118293
-0.8996496496496498 	299.9746130979577 	0.07354879969134431 	101294.9911753735
-0.8971471471471473 	299.9741558626098 	0.07487425384119137 	101294.4507197017
-0.894644644644645 	299.9737033596273 	0.0761854918757867 	101293.9158671893
-0.892142142142142 	299.9732556559208 	0.07747974941490353 	101293.386696916
-0.8896396396396397 	299.9728128741084 	0.0787611760611626 	101292.8633500577
-0.8871371371371374 	299.9723751028967 	0.08003238866801235 	101292.3459308511
-0.8846346346346349 	299.97194242819 	0.08128694616426563 	101291.8345384057
-0.8821321321321324 	299.971514921181 	0.08252526201326446 	101291.3292561101
-0.8796296296296297 	299.9710926511194 	0.08374493578321501 	101290.8301678461
-0.8771271271271271 	299.9706757570092 	0.08495107573668242 	101290.3374388164
-0.8746246246246248 	299.9702643498289 	0.08614674151991164 	101289.8511989853
-0.8721221221221224 	299.9698584422555 	0.08732448724487202 	101289.3714604753
-0.8696196196196196 	299.9694580648248 	0.08848478164289904 	101288.8982565548
-0.8671171171171175 	299.969063289702 	0.08962600327230054 	101288.4316730085
-0.8646146146146148 	299.9686741919831 	0.09075214528144329 	101287.9718006762
-0.8621121121121121 	299.9682908459903 	0.09186540372711688 	101287.5187300186
-0.8596096096096097 	299.9679132916205 	0.09295984886809644 	101287.0725080341
-0.857107107107107 	299.9675415952959 	0.09403606215161082 	101286.6332134733
-0.8546046046046049 	299.967175930902 	0.0950937131343443 	101286.2010500974
-0.8521021021021022 	299.9668164591414 	0.09613463976417072 	101285.7762048628
-0.8495995995995997 	299.9664632264943 	0.0971595665957378 	101285.3587318408
-0.8470970970970974 	299.9661162219795 	0.09816589966015896 	101284.9486174258
-0.8445945945945946 	299.9657754370295 	0.099154024092584 	101284.545853624
-0.8420920920920922 	299.9654409061695 	0.1001230703207908 	101284.1504840635
-0.8395895895895897 	299.9651126767984 	0.1010740386545714 	101283.7625659596
-0.8370870870870872 	299.9647907499603 	0.1020069246565649 	101283.3821003945
-0.8345845845845846 	299.9644751728983 	0.1029202217378914 	101283.0091421289
-0.8320820820820823 	299.9641661397584 	0.1038144873551766 	101282.6439193694
-0.8295795795795798 	299.9638638826594 	0.1046890287024513 	101282.2867041647
-0.8270770770770772 	299.9635685125976 	0.1055447213016919 	101281.9376260411
-0.8245745745745746 	299.9632799944371 	0.1063813702969711 	101281.5966436915
-0.8220720720720721 	299.9629982490673 	0.1071982781563501 	101281.2636645318
-0.8195695695695699 	299.9627232807254 	0.1079959973507935 	101280.9386955931
-0.817067067067067 	299.9624551450509 	0.1087734793928029 	101280.621802786
-0.8145645645645651 	299.9621937953559 	0.1095310623902581 	101280.3129314906
-0.8120620620620621 	299.961939162123 	0.1102679416681817 	101280.0120003602
-0.8095595595595597 	299.9616913898878 	0.1109840077467302 	101279.7191804443
-0.8070570570570572 	299.9614508144556 	0.1116801259769433 	101279.4348683301
-0.8045545545545546 	299.9612176859551 	0.1123552262009634 	101279.1593586529
-0.8020520520520523 	299.9609919637181 	0.1130097439026097 	101278.8926024794
-0.7995495495495494 	299.9607734233592 	0.1136427267053635 	101278.6343332233
-0.7970470470470474 	299.9605619864399 	0.1142549651312118 	101278.3844560009
-0.7945445445445446 	299.9603577958723 	0.114847673939335 	101278.1431413142
-0.7920420420420423 	299.9601609160487 	0.1154191210061433 	101277.9104670153
-0.7895395395395397 	299.9599712078795 	0.115969243600456 	101277.6862690916
-0.7870370370370371 	299.9597886024051 	0.1164963234155973 	101277.4704657274
-0.7845345345345348 	299.9596133466874 	0.1170021416584519 	101277.2633489053
-0.7820320320320323 	299.9594458440516 	0.1174882021698733 	101277.0653949913
-0.7795295295295296 	299.9592862192647 	0.1179517891263799 	101276.8767512857
-0.7770270270270272 	299.9591341729653 	0.1183930595651373 	101276.6970641625
-0.7745245245245247 	299.9589894522587 	0.1188093279771566 	101276.5260339839
-0.7720220220220222 	299.9588521903018 	0.1192054226702875 	101276.3638183561
-0.7695195195195199 	299.9587225972025 	0.1195839738095057 	101276.210666607
-0.767017017017017 	299.9586006126905 	0.1199391012256155 	101276.0665068656
-0.7645145145145147 	299.9584860532722 	0.1202712500520743 	101275.9311221104
-0.7620120120120122 	299.9583789367553 	0.1205772917581716 	101275.8045333661
-0.7595095095095097 	299.9582795714925 	0.1208631811220702 	101275.6871046039
-0.7570070070070072 	299.9581881870914 	0.1211317316427314 	101275.5791086894
-0.7545045045045048 	299.9581046515013 	0.1213753243802511 	101275.4803883135
-0.7520020020020022 	299.9580287864372 	0.1215950231085488 	101275.3907321837
-0.7494994994994997 	299.9579606505467 	0.1217893700970992 	101275.3102093709
-0.7469969969969972 	299.9579002956078 	0.121963338274314 	101275.2388818439
-0.7444944944944945 	299.9578476905089 	0.1221188918421328 	101275.1767144591
-0.7419919919919924 	299.9578027853497 	0.1222501410878434 	101275.123646917
-0.7394894894894897 	299.957765504167 	0.1223579979655781 	101275.0795890798
-0.7369869869869872 	299.9577359359013 	0.1224420107678569 	101275.044645197
-0.7344844844844846 	299.9577142831982 	0.1225044692476586 	101275.0190549004
-0.7319819819819822 	299.9577004969568 	0.1225457120256203 	101275.0027612918
-0.7294794794794797 	299.9576945055484 	0.1225631460052137 	101274.9956810176
-0.7269769769769773 	299.9576963791815 	0.1225577762538322 	101274.9978956435
-0.7244744744744747 	299.9577060533471 	0.1225289978173062 	101275.0093282007
-0.721971971971972 	299.9577235082324 	0.1224782378641426 	101275.0299553092
-0.7194694694694695 	299.9577488351032 	0.1224057734881706 	101275.0598846033
-0.7169669669669674 	299.9577818696183 	0.1223102375285102 	101275.0989224685
-0.7144644644644647 	299.9578225399875 	0.1221923011454819 	101275.1469843951
-0.711961961961962 	299.9578710412409 	0.1220513917483269 	101275.20430175
-0.7094594594594597 	299.9579273644648 	0.1218883291123747 	101275.2708645693
-0.7069569569569573 	299.9579914293965 	0.1217028533908212 	101275.3465759523
-0.7044544544544545 	299.958063248616 	0.1214946850895042 	101275.4314491285
-0.7019519519519523 	299.9581427438592 	0.1212644969667604 	101275.525392255
-0.6994494494494495 	299.9582299758089 	0.1210113831943881 	101275.6284783952
-0.6969469469469471 	299.9583250347813 	0.1207362455298197 	101275.7408160995
-0.6944444444444446 	299.9584277350027 	0.1204386811682169 	101275.8621864593
-0.6919419419419421 	299.9585379864433 	0.1201189733330903 	101275.992481029
-0.6894394394394396 	299.958655871078 	0.1197779817893577 	101276.1317957039
-0.6869369369369374 	299.9587813871298 	0.1194143794979942 	101276.2801279562
-0.6844344344344344 	299.9589145341208 	0.1190287938796845 	101276.4374767692
-0.6819319319319321 	299.95905524999 	0.1186207190559693 	101276.6037692703
-0.6794294294294296 	299.9592034082282 	0.1181910217062706 	101276.7788582725
-0.6769269269269272 	299.9593590683604 	0.1177405540380788 	101276.9628154422
-0.6744244244244245 	299.9595223110731 	0.1172677257504262 	101277.1557363943
-0.6719219219219222 	299.9596930347451 	0.1167731740370897 	101277.3575002049
-0.6694194194194195 	299.9598711459992 	0.1162560656020641 	101277.5679918299
-0.6669169169169172 	299.960056635024 	0.1157183800658829 	101277.7871997015
-0.6644144144144146 	299.9602494831545 	0.1151610133153243 	101278.0151045061
-0.661911911911912 	299.9604496991785 	0.1145814525685713 	101278.2517157071
-0.6594094094094097 	299.9606572029462 	0.1139805834271439 	101278.4969406606
-0.656906906906907 	299.9608718465137 	0.1133564267090038 	101278.7506061783
-0.6544044044044046 	299.9610936034524 	0.112713073211093 	101279.0126801557
-0.6519019019019021 	299.9613225346558 	0.1120521037555757 	101279.2832352862
-0.6493993993993996 	299.9615585670275 	0.111368624924037 	101279.5621849325
-0.6468968968968971 	299.9618017336358 	0.1106639497152828 	101279.8495647795
-0.6443943943943946 	299.9620520405223 	0.109935058113947 	101280.1453817023
-0.6418918918918921 	299.9623094486528 	0.1091885543098088 	101280.4495901336
-0.6393893893893897 	299.9625738209062 	0.1084268895552557 	101280.7620272437
-0.6368868868868871 	299.962844993949 	0.1076427390741168 	101281.0825001075
-0.6343843843843846 	299.9631227297045 	0.1068381545707365 	101281.4107294434
-0.6318818818818821 	299.9634071548393 	0.1060105967540476 	101281.7468637419
-0.6293793793793795 	299.9636984340354 	0.1051658253229608 	101282.0911009339
-0.6268768768768773 	299.9639965216378 	0.104305480037622 	101282.4433900099
-0.6243743743743745 	299.9643011452649 	0.1034231442580408 	101282.8034289936
-0.6218718718718721 	299.9646122234903 	0.1025214296855312 	101283.1710699432
-0.6193693693693696 	299.9649297888138 	0.1015998798327901 	101283.5463741009
-0.6168668668668671 	299.9652541522386 	0.1006606320793823 	101283.9297219184
-0.6143643643643645 	299.9655853061479 	0.09970381865517429 	101284.3210991119
-0.6118618618618621 	299.9659227266191 	0.09872719750666353 	101284.7198828494
-0.6093593593593596 	299.9662659214141 	0.09773312735154123 	101285.125489688
-0.6068568568568571 	299.9666147716413 	0.09672177422988451 	101285.5377789216
-0.6043543543543546 	299.9669694841693 	0.09569384585048343 	101285.9569956991
-0.6018518518518521 	299.9673305314965 	0.09464767927616656 	101286.3836990579
-0.5993493493493496 	299.9676981783508 	0.09358120698523495 	101286.8182043595
-0.5968468468468471 	299.9680721627697 	0.09249662320825375 	101287.2602039585
-0.5943443443443446 	299.9684521110598 	0.0913958805982131 	101287.7092549588
-0.591841841841842 	299.9688375120134 	0.090281357220122 	101288.1647540785
-0.5893393393393397 	299.9692279558252 	0.08915155672246353 	101288.626217459
-0.5868368368368371 	299.9696238369813 	0.08800419397879725 	101289.0941101794
-0.5843343343343346 	299.9700258900401 	0.08683929136538664 	101289.5692991119
-0.5818318318318321 	299.9704341941143 	0.08565653575262462 	101290.0518761176
-0.5793293293293297 	299.9708480560154 	0.08445850308838757 	101290.5410213043
-0.5768268268268271 	299.9712662561747 	0.08324619957403362 	101291.0352939754
-0.5743243243243245 	299.9716883188522 	0.08202028926192712 	101291.5341328781
-0.5718218218218221 	299.9721155516216 	0.08078142585523998 	101292.0390832626
-0.5693193193193196 	299.9725492671733 	0.07952636999125334 	101292.5516974108
-0.5668168168168171 	299.9729893246243 	0.07825309144500024 	101293.0718094927
-0.5643143143143147 	299.9734351256616 	0.07696181647921323 	101293.5987110771
-0.5618118118118121 	299.9738854497329 	0.07565716427058988 	101294.1309594985
-0.5593093093093094 	299.9743389021672 	0.07434345092839352 	101294.6669089903
-0.5568068068068072 	299.9747956661511 	0.0730205892628604 	101295.206775522
-0.5543043043043046 	299.9752564572027 	0.07168618060397604 	101295.7514054701
-0.551801801801802 	299.9757220155303 	0.07033443109087213 	101296.3016730036
-0.5492992992992995 	299.9761939941326 	0.0689657647568213 	101296.8595305327
-0.5467967967967969 	299.9766724928843 	0.06758197662886566 	101297.4250965447
-0.5442942942942947 	299.9771556252266 	0.06618300432066006 	101297.9961408593
-0.5417917917917919 	299.9776421378941 	0.06477444104060673 	101298.5711819105
-0.5392892892892895 	299.9781306642643 	0.06335785597002817 	101299.1486049968
-0.536786786786787 	299.9786208533392 	0.06193613687869401 	101299.7279959037
-0.5342842842842846 	299.9791144752352 	0.06050758609440093 	101300.3114482238
-0.531781781781782 	299.9796131825443 	0.05906354061654233 	101300.9009149801
-0.5292792792792794 	299.9801175295328 	0.05760160818745293 	101301.4970507062
-0.526776776776777 	299.980627945694 	0.05611935595950741 	101302.1003612031
-0.5242742742742745 	299.9811429171641 	0.05462739444995186 	101302.7090577548
-0.521771771771772 	299.9816604716623 	0.05313225800061255 	101303.3208093861
-0.5192692692692695 	299.9821793405466 	0.05163014955932214 	101303.9341171823
-0.516766766766767 	299.9826990884266 	0.05012454172888188 	101304.5484663452
-0.5142642642642645 	299.9832200420729 	0.04861045838507613 	101305.1642441537
-0.511761761761762 	299.9837439788931 	0.0470916906711136 	101305.7835515058
-0.5092592592592596 	299.984272240987 	0.04556497981710188 	101306.4079764318
-0.506756756756757 	299.98480608659 	0.04401887941491307 	101307.0390041968
-0.5042542542542544 	299.9853453923815 	0.04245672295058715 	101307.6764879923
-0.5017517517517521 	299.9858890238349 	0.04088108256382909 	101308.3190862206
-0.4992492492492494 	299.9864347062059 	0.0393001178431566 	101308.9641109042
-0.496746746746747 	299.9869814280474 	0.03771859518713589 	101309.610366978
-0.4942442442442445 	299.9875278961682 	0.03613564684414474 	101310.2563262094
-0.4917417417417421 	299.9880739936407 	0.03455314860139448 	101310.9018496462
-0.4892392392392395 	299.9886202964248 	0.0329692253551054 	101311.547619051
-0.486736736736737 	299.9891681835361 	0.03138187645946357 	101312.1952657269
-0.4842342342342345 	299.9897189393967 	0.02978639311466956 	101312.8463082781
-0.481731731731732 	299.9902740834971 	0.02817803167263287 	101313.5025415505
-0.4792292292292296 	299.9908339598772 	0.02655627725085601 	101314.1643715686
-0.4767267267267268 	299.9913981224221 	0.02492171538385292 	101314.8312701569
-0.4742242242242246 	299.9919652780609 	0.02327935762243625 	101315.50170915
-0.471721721721722 	299.9925342763988 	0.02163179328285975 	101316.1743303161
-0.4692192192192195 	299.9931039771591 	0.01998119017968996 	101316.8477845059
-0.4667167167167169 	299.9936732656008 	0.01833289495636578 	101317.5207526708
-0.4642142142142145 	299.9942405338048 	0.0166895754274083 	101318.1913342699
-0.461711711711712 	299.9948054889591 	0.01505259744721479 	101318.8591851379
-0.4592092092092094 	299.9953690258724 	0.01341995649383979 	101319.5253642751
-0.456706706706707 	299.9959317919583 	0.01178936185355935 	101320.1906369968
-0.4542042042042045 	299.9964941715614 	0.01015998384282477 	101320.8554562031
-0.451701701701702 	299.9970570965137 	0.008529131734190325 	101321.5209221194
-0.4491991991991995 	299.997621438693 	0.006894206302720963 	101322.1880666444
-0.4466966966966969 	299.9981881160564 	0.005251178470948021 	101322.8579764078
-0.4441941941941945 	299.9987583181081 	0.003599185894511252 	101323.5320580325
-0.441691691691692 	299.9993319366761 	0.001938257643582707 	101324.2101830486
-0.4391891891891895 	299.9999086475113 	0.0003093138690633275 	101324.8919647649
-0.436686686686687 	300.0004865056326 	0.001404599332755605 	101325.5751024356
-0.4341841841841846 	300.0010638709654 	0.003076917319837532 	101326.2576593966
-0.431681681681682 	300.001640248547 	0.004746566247345325 	101326.9390537726
-0.4291791791791794 	300.0022155370917 	0.006413113588183804 	101327.6191668261
-0.426676676676677 	300.0027897321693 	0.008076510233921821 	101328.2979911936
-0.4241741741741744 	300.0033628538815 	0.009736793958143641 	101328.9755477772
-0.421671671671672 	300.0039349164763 	0.01139399719894983 	101329.6518520765
-0.4191691691691694 	300.004505915452 	0.0130481113946164 	101330.3269013134
-0.4166666666666669 	300.0050758272681 	0.01469907676216096 	101331.0006711285
-0.4141641641641645 	300.005644612246 	0.01634678287188233 	101331.6731161851
-0.411661661661662 	300.0062122190624 	0.01799107408452768 	101332.344172726
-0.4091591591591594 	300.0067785844768 	0.01963175833866477 	101333.0137622161
-0.406656656656657 	300.0073436339248 	0.02126861561894424 	101333.6817946613
-0.4041541541541545 	300.0079072821513 	0.0229014039946121 	101334.3481709467
-0.401651651651652 	300.0084694350502 	0.0245298653012917 	101335.0127851358
-0.3991491491491494 	300.0090299974032 	0.02615373032913853 	101335.675527121
-0.396646646646647 	300.0095888750373 	0.02777272249781266 	101336.3362842522
-0.3941441441441444 	300.0101459751481 	0.02938655931639044 	101336.9949414512
-0.3916416416416419 	300.0107012023042 	0.03099495453017272 	101337.6513816409
-0.3891391391391395 	300.0112544571519 	0.03259762124447596 	101338.3054873128
-0.3866366366366368 	300.0118056360571 	0.03419427285609356 	101338.9571413019
-0.3841341341341344 	300.0123546347135 	0.03578462103017927 	101339.6062259918
-0.381631631631632 	300.0129013513272 	0.03736837611056133 	101340.2526232323
-0.3791291291291294 	300.0134456908565 	0.03894525001347632 	101340.8962156989
-0.3766266266266269 	300.0139875605121 	0.04051495744421542 	101341.5368871032
-0.3741241241241244 	300.0145268653891 	0.04207721322693232 	101342.1745206247
-0.371621621621622 	300.0150635045697 	0.04363173110818412 	101342.8089988108
-0.3691191191191194 	300.0155973742872 	0.04517822744112377 	101343.4402057813
-0.366616616616617 	300.0161283723895 	0.0467164218754204 	101344.0680277467
-0.3641141141141143 	300.0166564003217 	0.04824603348990699 	101344.6923504997
-0.3616116116116119 	300.0171813647435 	0.04976678036041034 	101345.3130585046
-0.3591091091091095 	300.0177031764135 	0.05127838439810588 	101345.9300376899
-0.356606606606607 	300.0182217468544 	0.0527805728240275 	101346.5431768634
-0.3541041041041044 	300.0187369820023 	0.05427307280784912 	101347.1523647642
-0.3516016016016019 	300.0192487798599 	0.05575560809962884 	101347.7574882505
-0.3490990990990994 	300.0197570376147 	0.05722790568573765 	101348.3584356466
-0.346596596596597 	300.0202616595137 	0.05868970054780921 	101348.9550993184
-0.3440940940940944 	300.0207625568457 	0.06014072830742842 	101349.5473719592
-0.3415915915915919 	300.0212596436631 	0.06158071926851572 	101350.1351428866
-0.3390890890890895 	300.0217528355195 	0.06300940567617445 	101350.7183018768
-0.3365865865865869 	300.0222420484124 	0.06442653078488073 	101351.296744315
-0.3340840840840844 	300.0227271929241 	0.06583184205593468 	101351.8703676684
-0.3315815815815819 	300.0232081708386 	0.06722507851683923 	101352.4390648293
-0.3290790790790794 	300.0236848809263 	0.06860597618753433 	101353.0027271151
-0.3265765765765769 	300.0241572320247 	0.06997428418210704 	101353.5612529565
-0.3240740740740744 	300.0246251447227 	0.07132976205741329 	101354.1145462588
-0.3215715715715718 	300.0250885406868 	0.0726721612136819 	101354.6625054186
-0.3190690690690695 	300.0255473386819 	0.07400122364764265 	101355.2050222496
-0.3165665665665668 	300.0260014599875 	0.07531670417174251 	101355.7419947369
-0.3140640640640644 	300.0264508280803 	0.07661837729057559 	101356.2733322295
-0.311561561561562 	300.0268953582151 	0.07790601177255084 	101356.7989425364
-0.3090590590590593 	300.0273349532188 	0.07917935492756048 	101357.3187223566
-0.3065565565565568 	300.0277695173928 	0.08043815810162364 	101357.832569242
-0.3040540540540545 	300.0281989732596 	0.08168220418618638 	101358.340395822
-0.3015515515515518 	300.0286232542243 	0.08291128852996395 	101358.842119745
-0.2990490490490494 	300.0290422857807 	0.08412517933508477 	101359.3376435945
-0.2965465465465469 	300.0294559875852 	0.08532362658112549 	101359.826860435
-0.2940440440440444 	300.0298642911625 	0.08650640992042431 	101360.3096802031
-0.2915415415415418 	300.0302671409015 	0.0876733445141505 	101360.7860334928