/*--------------------------------*- C++ -*----------------------------------*\
  =========                 |
  \\      /  F ield         | OpenFOAM: The Open Source CFD Toolbox
   \\    /   O peration     | Website:  https://openfoam.org
    \\  /    A nd           | Version:  7
     \\/     M anipulation  |
\*---------------------------------------------------------------------------*/
FoamFile
{
    version     2.0;
    format      ascii;
    class       volScalarField;
    location    "8e-05";
    object      Uy;
}
// * * * * * * * * * * * * * * * * * * * * * * * * * * * * * * * * * * * * * //

dimensions      [0 1 -1 0 0 0 0];

internalField   nonuniform List<scalar> 
5000
(
1.6380487e-16
1.672024e-16
0
0
-8.498489e-17
9.6602547e-32
8.4955023e-17
0
0
-8.4900601e-17
-1.6976432e-16
8.4863654e-17
8.4845139e-17
-8.4826629e-17
0
-8.4789635e-17
-9.4829755e-48
8.4752692e-17
0
8.4715808e-17
-8.4697388e-17
-8.4678982e-17
1.6932118e-16
-8.4642212e-17
-8.4623849e-17
-6.9734357e-31
8.458717e-17
8.4568854e-17
-1.6910111e-16
1.4655566e-30
-1.4772502e-30
8.4495776e-17
1.6895512e-16
-1.6891875e-16
1.4639779e-30
-7.3423137e-30
-2.9267012e-30
1.6877406e-16
-1.6873819e-16
-1.6870252e-16
1.686671e-16
-5.7992996e-30
-1.6859729e-16
8.4281539e-17
2.5279424e-16
-8.4248332e-17
-8.4232383e-17
-5.7685537e-30
-1.684045e-16
0
8.4175183e-17
1.1960295e-32
-8.4152126e-17
1.682848e-16
-2.9412164e-30
-1.6825422e-16
8.4121733e-17
-2.9047934e-30
-8.4115863e-17
0
8.4116668e-17
2.8689853e-30
2.3909477e-32
8.4129934e-17
-8.4137246e-17
2.9416274e-30
8.4155382e-17
-8.4165856e-17
-8.4177009e-17
8.4188636e-17
8.4200529e-17
-8.4212484e-17
-8.4224302e-17
1.684716e-16
8.4246808e-17
-8.4257176e-17
0
8.4275492e-17
-1.1977369e-32
-8.4289948e-17
8.429555e-17
-2.3959498e-32
2.3960412e-32
8.4305113e-17
8.4305611e-17
2.9351976e-30
-8.4301754e-17
0
-8.4289668e-17
-8.7430934e-30
-2.9458246e-30
8.4247853e-17
8.4224577e-17
-1.683897e-16
-5.824262e-30
8.4110272e-17
0
0
-8.389247e-17
-5.8104938e-30
1.6731739e-16
-8.3506474e-17
-1.6665246e-16
0
8.2867019e-17
8.2580306e-17
-8.2250165e-17
-8.1872501e-17
0
0
8.0413858e-17
7.9806151e-17
0
-7.838746e-17
2.7117667e-30
7.6678764e-17
-7.57102e-17
2.1220673e-32
-2.5708031e-30
-5.9651861e-47
1.4210368e-16
-2.9711704e-32
-6.8258084e-17
0
-6.5174807e-17
6.353297e-17
6.1830005e-17
-1.2014171e-16
-5.8260943e-17
1.1281226e-16
5.4512639e-17
-5.2586989e-17
-5.0635925e-17
-4.8666343e-17
0
4.4699516e-17
4.2716154e-17
-4.0741896e-17
-1.3447914e-30
3.6846704e-17
-3.4938066e-17
-3.3063026e-17
0
2.9434196e-17
2.7689519e-17
-2.5996617e-17
2.4358837e-17
-1.2948378e-32
-2.1259536e-17
1.9802221e-17
-1.8408459e-17
1.1892769e-30
1.5814824e-17
-1.4615491e-17
1.3480846e-17
1.241021e-17
-1.1402583e-17
0
0
-8.7435902e-18
-7.9726926e-18
7.2561238e-18
6.5916442e-18
-5.9769188e-18
-3.7514636e-31
4.887077e-18
-4.4070521e-18
-3.9670096e-18
0
3.1971571e-18
2.8626023e-18
0
-2.2828491e-18
-2.0333304e-18
0
1.6048854e-18
2.9588457e-31
-1.2582064e-18
1.1112773e-18
9.7989272e-19
-8.6263298e-19
-5.2363337e-32
4.5759817e-32
2.4849459e-34
5.0985526e-19
-4.4528571e-19
-5.385509e-32
2.3252632e-32
-2.0214333e-32
2.5510812e-19
0
0
-1.6535973e-19
-1.4268818e-19
0
0
9.0888275e-20
5.7684705e-49
-6.6810569e-20
0
4.8839418e-20
-4.1671724e-20
-9.8396478e-33
6.0430378e-20
-2.5677228e-20
-4.5244783e-33
-2.6248244e-36
-1.5635033e-20
1.3217798e-20
-1.5859368e-36
-1.3025738e-33
5.4851101e-34
-6.6666752e-21
0
4.6995233e-21
2.7257328e-34
9.1498658e-34
2.7563391e-21
0
-1.9198929e-21
-1.5995192e-21
0
0
0
7.6185229e-22
4.3678528e-35
-5.2225922e-22
0
0
2.9399611e-22
2.4222768e-22
-1.9936271e-22
-1.6391003e-22
0
1.1045112e-22
9.0527179e-23
-7.4121594e-23
-6.0627457e-23
0
4.0439854e-23
-9.1574772e-36
-1.8632293e-36
2.1867543e-23
-1.7780827e-23
-1.4444253e-23
0
9.5043937e-24
-1.0699966e-36
6.2302381e-24
6.9866838e-37
-8.1385747e-24
3.2843392e-24
-3.6732003e-37
-7.4063365e-37
-1.1883003e-37
-1.3807144e-24
1.1093036e-24
8.904321e-25
0
-5.7251111e-25
-4.5836354e-25
0
2.9329795e-25
2.3447623e-25
-3.7451346e-25
-1.4935953e-25
1.1891005e-25
9.4742989e-26
2.0898564e-38
-5.9683016e-26
4.7270165e-26
-2.5965096e-39
-2.9841508e-26
2.3812409e-26
-1.3132378e-39
1.0231039e-39
-3.2111495e-42
-6.2284781e-40
7.2957168e-27
0
0
-3.3438702e-27
-2.533235e-27
0
0
0
0
8.106352e-28
5.2379177e-41
-7.093058e-28
4.3199321e-44
5.06647e-29
-5.06647e-29
-7.0342895e-42
-1.9660283e-54
2.1599661e-44
5.06647e-29
-1.519941e-28
-2.533235e-28
3.039882e-28
4.559823e-28
-1.013294e-28
1.7105694e-43
0
1.013294e-28
2.612454e-42
7.0128972e-42
-9.5225158e-57
4.3199321e-44
-1.4399774e-44
-2.5157162e-56
1.013294e-28
-1.013294e-28
0
-5.06647e-29
-4.8788331e-57
-2.026588e-28
-8.4238676e-41
2.026588e-28
0
0
1.013294e-28
5.6274316e-41
1.013294e-28
0
0
5.06647e-29
-5.06647e-29
-7.1998869e-45
2.1102868e-41
-1.4399774e-44
-5.3455294e-44
-1.519941e-28
-3.546529e-28
0
1.013294e-28
-2.8137158e-41
-4.053176e-28
3.039882e-28
-2.8108358e-41
-2.026588e-28
3.905235e-54
5.06647e-28
-3.039882e-28
1.519941e-28
-3.039882e-28
-5.0399208e-44
-1.519941e-28
0
0
-2.026588e-28
-9.6176395e-55
-4.053176e-28
3.5999434e-44
4.559823e-28
-2.026588e-28
-2.533235e-28
1.013294e-28
1.519941e-28
-2.026588e-28
-2.026588e-28
-1.013294e-28
-2.026588e-28
-1.013294e-28
-5.06647e-29
9.7576662e-57
1.519941e-28
-1.013294e-28
2.026588e-28
-2.026588e-28
-2.8079559e-41
-1.4399774e-44
1.013294e-28
-6.079764e-28
2.533235e-28
1.4068579e-41
-3.2872115e-69
0
-1.013294e-28
1.519941e-28
2.8108358e-41
-2.8108358e-41
-2.8079559e-41
1.013294e-28
1.013294e-28
1.968427e-54
3.039882e-28
0
0
-6.7478312e-42
1.4054179e-41
2.533235e-28
1.519941e-28
1.4185788e-41
-1.519941e-28
2.026588e-28
5.06647e-29
-4.3199321e-44
2.8176927e-41
0
2.026588e-28
-2.026588e-28
2.533235e-28
5.06647e-28
-5.06647e-29
2.026588e-28
2.026588e-28
-3.039882e-28
1.013294e-28
0
1.013294e-28
-5.06647e-29
-2.026588e-28
-7.1968556e-42
6.6136403e-42
-2.1599661e-44
-7.0342895e-42
-3.039882e-28
-6.4146353e-44
-2.533235e-28
5.06647e-29
7.0270896e-42
-1.4399774e-44
-7.0270896e-42
5.06647e-29
-5.06647e-29
-2.1102868e-41
-1.4068579e-41
-1.4061379e-41
-1.519941e-28
5.06647e-29
2.1102868e-41
5.6187917e-41
-1.7566695e-55
-8.106352e-28
-4.559823e-28
1.519941e-28
-2.026588e-28
2.1102868e-41
2.026588e-28
5.06647e-29
-2.026588e-28
-1.519941e-28
-5.06647e-29
-1.013294e-28
-1.4061379e-41
2.026588e-28
0
0
-1.013294e-28
0
2.026588e-28
-1.519941e-28
-2.9270718e-56
-5.6245516e-41
0
5.06647e-29
2.3592589e-44
1.013294e-28
2.026588e-28
2.026588e-28
-2.026588e-28
0
0
3.546529e-28
-1.4075779e-41
1.519941e-28
0
0
-3.039882e-28
1.2666041e-40
1.519941e-28
0
0
0
0
0
0
0
0
-6.079764e-28
-1.6873655e-40
2.533235e-28
-2.026588e-28
-7.0423879e-42
-7.0364898e-42
-1.9913261e-54
-1.013294e-28
-4.2205737e-41
-1.013294e-28
0
0
-1.519941e-28
-1.4068579e-41
0
0
0
0
0
0
0
0
-2.026588e-28
-4.2176937e-41
2.8122366e-41
-1.519941e-28
-2.8799547e-44
-1.519941e-28
5.6187917e-41
3.039882e-28
-1.4164406e-41
-9.7576662e-57
-4.559823e-28
0
2.026588e-28
0
0
5.06647e-28
-4.2162538e-41
-3.039882e-28
-5.06647e-29
-2.533235e-28
1.519941e-28
-5.06647e-29
6.8964008e-42
-4.2162538e-41
5.06647e-29
-5.06647e-29
0
1.519941e-28
-2.533235e-28
-3.039882e-28
6.9937255e-42
-1.519941e-28
-1.013294e-28
1.013294e-28
-5.641579e-41
3.039882e-28
-3.039882e-28
0
3.039882e-28
-5.06647e-29
-5.06647e-29
3.039882e-28
-2.8799547e-44
4.053176e-28
-2.026588e-28
-2.8137158e-41
-1.013294e-28
-2.8799547e-44
-1.013294e-28
-5.06647e-29
0
-1.4068579e-41
-3.5999434e-44
-2.533235e-28
1.013294e-28
-1.4068579e-41
-2.1081269e-41
-2.1599661e-44
1.013294e-28
-3.039882e-28
-9.7576662e-57
4.2205737e-41
2.1599661e-44
-1.013294e-28
-2.1081269e-41
5.06647e-29
0
0
1.013294e-28
2.1081269e-41
-3.4211388e-43
5.06647e-29
-7.0342895e-42
-1.9515332e-56
-1.4068579e-41
1.013294e-28
6.9819292e-42
-1.4054179e-41
-1.013294e-28
0
0
1.013294e-28
1.519941e-28
-2.1088469e-40
-2.533235e-28
1.519941e-28
0
1.013294e-28
5.06647e-29
1.519941e-28
3.546529e-28
0
-1.519941e-28
-1.519941e-28
-2.026588e-28
-3.039882e-28
3.546529e-28
3.039882e-28
2.8108358e-41
2.7682928e-41
-4.2205737e-41
-2.026588e-28
0
0
0
5.06647e-29
1.013294e-28
0
-1.013294e-28
1.4039779e-41
-2.533235e-28
0
0
-1.9243906e-43
-2.1081269e-41
7.0198897e-42
1.013294e-28
-1.519941e-28
2.1081269e-41
-1.013294e-28
0
-1.013294e-28
-1.9740748e-54
-1.013294e-28
-5.06647e-29
5.06647e-29
1.519941e-28
-2.533235e-28
0
5.06647e-29
-5.06647e-29
1.519941e-28
-5.06647e-29
0
-1.013294e-28
5.06647e-29
-5.06647e-29
1.013294e-28
2.026588e-28
-5.6274316e-41
3.039882e-28
9.7576662e-57
5.06647e-29
1.013294e-28
8.4325075e-41
3.039882e-28
1.013294e-28
-2.533235e-28
2.026588e-28
2.533235e-28
-3.039882e-28
0
0
5.6256529e-41
1.0850912e-68
-3.039882e-28
0
0
5.06647e-28
3.9030665e-56
-2.026588e-28
0
0
-3.039882e-28
-1.013294e-28
-1.013294e-28
-1.4109846e-41
0
-3.039882e-28
1.1254863e-40
4.053176e-28
-5.06647e-29
0
-1.013294e-28
2.026588e-28
-2.8799547e-44
-1.013294e-28
5.06647e-29
1.40089e-43
1.013294e-28
5.06647e-29
1.013294e-28
4.2205737e-41
3.546529e-28
-3.039882e-28
-5.6274316e-41
1.013294e-28
5.06647e-29
-5.06647e-29
1.519941e-28
-3.546529e-28
-2.533235e-28
5.6274316e-41
2.533235e-28
-1.519941e-28
-4.6888377e-59
-1.013294e-28
2.026588e-28
-3.039882e-28
-1.519941e-28
-8.5528471e-44
-2.026588e-28
1.1260623e-40
2.026588e-28
-1.013294e-28
2.1599661e-44
5.6403994e-41
-9.7352165e-57
-1.013294e-28
0
-2.026588e-28
0
-1.519941e-28
0
0
0
1.519941e-28
-1.4636499e-56
-3.546529e-28
0
-5.06647e-29
5.3436497e-56
-4.2764235e-44
0
0
0
-3.039882e-28
9.8480053e-41
2.533235e-28
0
-5.06647e-29
4.2184137e-41
5.06647e-29
0
1.013294e-28
-1.013294e-28
1.6890935e-40
2.026588e-28
-1.407298e-41
0
-5.06647e-29
-2.8137158e-41
5.06647e-29
0
-5.06647e-29
1.519941e-28
1.4068579e-40
-1.519941e-28
5.6259916e-41
1.7289299e-60
1.4075779e-41
-7.1998869e-45
1.013294e-28
0
-1.519941e-28
-3.9401031e-54
-2.8122758e-41
-4.8788331e-57
-2.8137158e-41
0
-3.039882e-28
-3.6825829e-54
-5.06647e-29
1.519941e-28
-7.0306895e-41
5.06647e-29
2.026588e-28
3.8847406e-54
1.4068579e-41
1.519941e-28
-2.026588e-28
-5.06647e-29
0
-1.013294e-28
1.4068579e-41
-2.533235e-28
0
0
0
-1.013294e-28
5.6274316e-41
1.013294e-28
0
0
0
0
0
0
0
-1.013294e-28
5.6303115e-41
3.039882e-28
1.013294e-28
-1.013294e-28
2.8116468e-41
-4.2227337e-41
-8.4325075e-41
-1.013294e-28
5.06647e-29
0
0
3.5613072e-56
-5.06647e-29
8.4368274e-41
1.519941e-28
-1.4195374e-41
5.6216717e-41
2.026588e-28
3.039882e-28
-3.546529e-28
-1.013294e-28
7.4837412e-44
1.013294e-28
0
1.013294e-28
1.519941e-28
-2.8108358e-41
-5.06647e-29
-1.013294e-28
4.2764235e-44
-1.013294e-28
1.013294e-28
-5.8981473e-45
3.8402102e-54
1.519941e-28
1.519941e-28
3.5999434e-44
-5.06647e-28
-5.6259916e-41
1.013294e-28
5.06647e-29
0
1.519941e-28
0
0
0
1.013294e-28
5.06647e-29
-1.519941e-28
-2.026588e-28
0
1.3644232e-41
-1.4075779e-41
1.013294e-28
0
0
-5.06647e-29
2.8122758e-41
5.06647e-29
0
0
5.06647e-29
-8.4368274e-41
-5.06647e-29
0
-2.026588e-28
7.0342895e-41
-5.6245516e-41
-3.9759343e-54
-1.519941e-28
0
5.06647e-29
-8.4346675e-41
-5.06647e-29
0
-5.06647e-29
1.519941e-28
2.533235e-28
-6.079764e-28
-7.0414894e-41
4.053176e-28
-1.4068579e-41
5.06647e-29
0
0
1.519941e-28
-4.2184137e-41
-1.013294e-28
0
5.06647e-29
-1.519941e-28
-5.06647e-29
-1.013294e-28
0
5.06647e-29
-1.5557297e-43
8.4368274e-41
-5.6245516e-41
-2.533235e-28
1.6876535e-40
1.013294e-28
-5.06647e-29
4.2184137e-41
-8.4411474e-41
-3.039882e-28
2.8108358e-41
-1.4061183e-41
0
0
0
7.4837412e-43
3.4211388e-43
-1.013294e-28
1.013294e-28
0
0
5.06647e-29
-9.7576662e-57
-5.06647e-29
0
-8.106352e-28
-3.546529e-28
4.053176e-28
5.06647e-29
0
5.5817091e-41
7.1998869e-44
-7.599705e-28
-4.1589508e-54
1.013294e-28
-2.026588e-28
-5.7599095e-44
1.519941e-28
-1.4075779e-41
1.4054179e-40
2.533235e-28
0
-4.2764235e-44
5.6259916e-41
5.06647e-28
-4.053176e-28
5.0612325e-40
1.519941e-28
-2.026588e-28
1.5192908e-59
-5.06647e-29
0
0
0
-4.2764235e-44
5.06647e-29
2.026588e-28
-2.533235e-28
-1.578187e-53
5.6216717e-41
1.013294e-28
0
-2.533235e-28
1.4399774e-44
1.9243906e-43
-1.519941e-28
-1.1243343e-40
1.013294e-28
-5.06647e-29
8.4454673e-41
4.053176e-28
0
-1.013294e-28
-2.533235e-28
0
1.013294e-28
-2.026588e-28
3.039882e-28
0
-1.4067081e-41
0
0
3.039882e-28
-1.2657401e-40
-1.013294e-28
0
0
2.026588e-28
5.06647e-29
1.013294e-28
1.013294e-28
5.06647e-29
-5.8981473e-45
2.026588e-28
1.013294e-28
-3.9713353e-54
1.013294e-28
-2.8108358e-41
5.3381803e-56
5.06647e-29
-1.519941e-28
1.519941e-28
-1.519941e-28
-8.6398642e-44
1.519941e-28
-1.013294e-28
2.026588e-28
2.533235e-28
-4.053176e-28
-1.013294e-28
-1.519941e-28
2.533235e-28
-5.06647e-29
-2.8137158e-41
-1.013294e-28
1.013294e-28
-5.6245516e-41
-1.1715884e-53
-2.026588e-28
0
0
1.519941e-28
1.013294e-28
0
1.013294e-28
1.013294e-28
0
-1.519941e-28
-2.8137158e-41
-3.039882e-28
5.06647e-29
1.4054179e-41
5.06647e-29
0
1.013294e-28
-5.6259916e-41
1.013294e-28
2.7796753e-43
-3.2940033e-69
5.06647e-29
1.519941e-28
5.6245516e-41
-1.013294e-28
0
5.8981473e-45
2.533235e-28
-1.0079842e-43
5.6274316e-41
-1.013294e-28
1.519941e-28
0
0
-1.1249103e-40
2.8149647e-41
-2.8122758e-41
-2.026588e-28
1.013294e-28
1.013294e-28
1.013294e-28
2.026588e-28
-4.2257282e-41
0
1.519941e-28
3.039882e-28
-2.1599661e-44
2.026588e-28
-1.519941e-28
-3.2073177e-44
0
2.026588e-28
-5.06647e-28
-4.2191337e-40
-1.1248504e-40
3.039882e-28
-8.4368274e-41
1.013294e-28
5.06647e-29
-1.4061183e-41
5.06647e-29
-2.8108358e-41
-4.053176e-28
5.06647e-28
1.013294e-28
3.039882e-28
2.8122758e-41
-5.06647e-29
8.4411474e-41
1.013294e-28
2.8122758e-41
9.0597014e-71
-3.8008521e-43
-1.013294e-28
-5.5593506e-43
4.3909498e-56
-5.06647e-29
-7.836016e-55
-5.06647e-29
-1.013294e-28
8.4368274e-41
4.053176e-28
-1.7441843e-71
-2.026588e-28
0
0
-1.013294e-28
-5.06647e-29
5.6653204e-41
0
0
0
-1.013294e-28
5.06647e-29
0
-1.6036588e-43
1.519941e-28
5.9067872e-40
-1.013294e-27
0
0
0
-1.519941e-28
-5.06647e-29
1.519941e-28
2.8116468e-41
1.1254863e-40
-4.053176e-28
0
0
-3.039882e-28
2.8799547e-44
-1.013294e-28
1.519941e-28
-1.519941e-28
1.013294e-28
7.8104699e-54
3.039882e-28
0
0
-5.06647e-29
-4.2764235e-44
0
0
-2.533235e-28
-2.026588e-28
0
-2.533235e-28
-1.013294e-28
-1.519941e-28
3.546529e-28
3.039882e-28
-2.026588e-28
-2.026588e-28
-2.8137158e-41
-1.519941e-28
1.013294e-28
7.0306895e-41
-5.06647e-29
0
-2.533235e-28
1.6877975e-40
3.039882e-28
-2.533235e-28
2.8129958e-41
-1.519941e-28
0
1.519941e-28
-5.6274316e-41
-2.1599661e-44
5.06647e-29
5.06647e-29
5.06647e-29
0
-1.013294e-28
5.6274316e-41
-1.013294e-28
-4.3199321e-44
-3.039882e-28
-1.013294e-28
-3.039882e-28
5.06647e-28
2.533235e-28
0
-1.013294e-28
3.374155e-40
2.026588e-28
0
2.026588e-28
2.8137158e-41
-3.63496e-43
1.4068579e-41
-1.013294e-28
6.079764e-28
6.3272606e-40
1.013294e-28
-4.053176e-28
8.4346675e-41
5.06647e-28
2.533235e-28
-1.013294e-28
0
-2.5658541e-43
-2.026588e-28
-5.0618085e-40
4.053176e-28
-4.053176e-28
1.4068579e-41
1.013294e-28
-1.1243343e-40
8.5201002e-41
-2.8122758e-41
4.053176e-28
-3.039882e-28
4.8957824e-43
-1.519941e-28
8.4389874e-41
-1.013294e-28
1.1254863e-40
-1.519941e-28
2.026588e-28
-4.2191337e-41
-7.1221316e-56
1.1862623e-56
5.06647e-29
0
-1.4061183e-41
-5.06647e-29
0
0
0
0
0
-1.013294e-28
-2.026588e-28
0
-1.519941e-28
1.013294e-28
1.6879415e-40
-6.079764e-28
0
0
0
-3.2073177e-43
5.06647e-29
1.4049387e-41
1.013294e-28
-2.026588e-28
-1.6882295e-40
5.647035e-41
0
2.026588e-28
8.4397074e-41
5.06647e-29
-1.519941e-28
5.06647e-29
5.06647e-29
-8.4368274e-41
4.053176e-28
0
0
5.06647e-29
-1.013294e-28
0
4.2018391e-41
2.8799547e-44
1.013294e-28
-1.519941e-28
-3.039882e-28
0
1.0263416e-42
3.8487812e-43
0
-4.559823e-28
5.641579e-41
-1.013294e-28
-1.013294e-28
-2.026588e-28
7.599705e-28
2.533235e-28
2.1599661e-44
0
1.013294e-28
1.519941e-28
1.519941e-28
4.8788331e-57
1.6036588e-43
1.6036588e-43
-1.013294e-28
0
-6.079764e-28
-4.053176e-28
0
2.533235e-28
2.026588e-28
0
5.06647e-29
-5.6477726e-41
2.026588e-28
3.039882e-28
5.06647e-29
2.8140061e-41
0
1.519941e-28
4.559823e-28
-2.8053427e-41
1.053828e-54
3.039882e-28
-1.013294e-28
5.06647e-29
1.013294e-28
1.013294e-28
-3.039882e-28
-2.533235e-28
2.533235e-28
2.026588e-28
5.06647e-29
6.4146353e-44
5.06647e-29
-6.079764e-28
-2.533235e-28
1.519941e-28
1.013294e-28
1.013294e-28
-2.533235e-28
4.2176937e-40
-1.6876535e-40
6.7353671e-43
-2.5658541e-43
0
-2.026588e-28
-2.026588e-28
3.039882e-28
5.7599095e-44
2.026588e-28
-1.519941e-28
-4.559823e-28
-1.6678052e-42
-2.8299322e-41
-4.559823e-28
0
3.039882e-28
1.013294e-28
-8.4262399e-41
-1.013294e-28
-2.026588e-28
1.579555e-53
-5.6238316e-41
4.2764235e-44
0
2.026588e-28
1.013294e-28
-1.013294e-28
-3.039882e-28
-8.106352e-28
3.546529e-28
4.053176e-28
-6.079764e-28
0
-1.013294e-28
-1.013294e-28
-5.6238835e-41
-1.013294e-28
7.12122e-56
0
-1.9243906e-43
-2.026588e-28
1.1811558e-39
5.06647e-28
-1.519941e-28
0
2.026588e-28
0
-1.1250543e-40
-2.8149647e-41
-3.039882e-28
6.079764e-28
-4.3199321e-44
-3.039882e-28
0
-1.013294e-28
-1.013294e-28
2.026588e-28
-1.1250543e-40
-5.06647e-29
-1.1274605e-40
5.06647e-29
-1.6870775e-40
-2.1382118e-43
-1.013294e-28
2.026588e-28
-6.079764e-28
-6.079764e-28
0
-1.519941e-28
1.013294e-28
-7.599705e-28
-5.06647e-28
5.06647e-29
1.013294e-28
-5.06647e-29
2.8122366e-41
-5.6137822e-41
2.8116468e-41
-4.053176e-28
1.013294e-28
7.1998869e-45
-3.039882e-28
-3.039882e-28
6.4146353e-44
1.013294e-28
1.6876535e-40
1.519941e-28
0
-7.599705e-28
-4.053176e-28
1.519941e-28
5.5976351e-41
2.7711313e-41
0
5.06647e-29
2.8122758e-41
1.013294e-28
8.4346675e-41
3.546529e-28
0
-2.026588e-28
5.06647e-28
6.079764e-28
-5.06647e-28
-3.039882e-28
1.519941e-28
-2.026588e-28
-3.039882e-28
-5.06647e-29
2.533235e-28
3.039882e-28
-4.053176e-28
1.013294e-28
-2.1382118e-44
3.039882e-28
3.039882e-28
-1.013294e-28
-1.519941e-28
-1.1249103e-40
1.1249103e-40
-5.06647e-29
-1.1249103e-40
-5.06647e-29
0
1.7105694e-43
0
-1.013294e-28
-1.013294e-28
-3.039882e-28
5.06647e-29
-3.039882e-28
9.119646e-28
7.1998869e-44
1.013294e-28
-6.079764e-28
-2.026588e-28
0
3.039882e-28
5.06647e-29
1.013294e-28
-1.519941e-28
-1.6873655e-40
-1.519941e-28
-5.06647e-29
5.06647e-29
1.519941e-28
2.8122366e-41
-1.013294e-28
6.079764e-28
-5.06647e-29
-3.039882e-28
-3.375307e-40
5.06647e-29
-3.039882e-28
-9.119646e-28
-1.9680891e-40
5.6245516e-41
-2.1415045e-70
-1.519941e-28
-3.039882e-28
-5.5593506e-43
3.039882e-28
-1.1249103e-40
-2.026588e-28
0
0
-8.5528471e-44
-2.8122758e-41
-2.8115558e-41
5.6052294e-41
-1.013294e-28
-8.4378896e-41
6.2557227e-53
-2.026588e-28
-4.559823e-28
-1.013294e-28
0
0
0
-6.079764e-28
-3.039882e-28
-3.039882e-28
2.2503966e-40
6.079764e-28
0
0
-4.053176e-28
3.374731e-40
6.3184038e-53
3.039882e-28
-5.06647e-29
-2.026588e-28
-2.026588e-28
1.519941e-28
7.599705e-28
1.013294e-28
0
0
0
4.559823e-28
1.013294e-28
3.039882e-28
-5.6245516e-40
-2.026588e-28
1.4399774e-44
-1.519941e-28
4.053176e-28
-3.9371861e-40
-3.039882e-28
3.039882e-28
0
-5.6259916e-41
3.039882e-28
1.013294e-28
1.519941e-28
4.2764235e-44
8.5528471e-44
4.1529815e-56
1.013294e-28
-6.079764e-28
-1.013294e-28
-2.026588e-28
-3.039882e-28
1.519941e-28
1.519941e-28
-1.519941e-28
5.06647e-29
-1.1249103e-40
8.4346675e-41
-1.013294e-28
0
-1.519941e-28
3.039882e-28
-1.519941e-28
2.026588e-28
4.053176e-28
3.039882e-28
-2.2495327e-40
1.013294e-28
-2.026588e-28
2.533235e-28
1.519941e-28
8.5528471e-43
0
5.06647e-29
-1.519941e-28
-2.026588e-28
-6.4146353e-44
1.0691059e-43
2.8108358e-41
-1.519941e-28
-1.013294e-28
-4.559823e-28
3.546529e-28
2.026588e-28
4.559823e-28
-4.3199321e-44
-7.599705e-28
-2.533235e-28
9.119646e-28
-2.026588e-28
1.5807419e-54
-2.5306162e-40
3.039882e-28
-5.06647e-28
-5.06647e-28
1.519941e-28
5.6245516e-41
2.026588e-28
1.519941e-28
3.039882e-28
2.811057e-41
5.2350058e-44
0
-1.519941e-28
-5.06647e-28
7.1998869e-45
-4.559823e-28
-1.013294e-28
-1.9913649e-59
0
-1.2829271e-43
-2.026588e-28
3.375307e-40
4.053176e-28
-3.039882e-28
1.7105694e-43
0
0
5.06647e-29
1.519941e-28
-1.519941e-28
6.079764e-28
-1.1249103e-40
3.039882e-28
-5.06647e-28
-3.039882e-28
2.6727647e-43
-3.039882e-28
1.013294e-28
4.2764235e-44
-1.519941e-28
-5.06647e-29
-8.4382674e-41
2.8108358e-41
0
5.06647e-29
-2.026588e-28
8.417466e-41
0
-3.039882e-28
1.7105694e-43
-8.9804894e-43
-4.3199321e-44
-2.026588e-28
-3.039882e-28
2.533235e-28
5.06647e-29
-1.1249103e-40
1.519941e-28
-2.026588e-28
2.533235e-28
3.039882e-28
-1.013294e-28
1.6877975e-40
1.519941e-28
-5.06647e-29
-2.026588e-28
-8.4183141e-41
0
1.519941e-28
1.013294e-28
-3.039882e-28
2.2503966e-40
1.519941e-28
4.2764235e-44
1.519941e-28
-8.4325075e-41
-2.026588e-28
2.8122758e-41
-2.026588e-28
1.6871495e-40
5.6238316e-41
-4.053176e-28
-9.119646e-28
3.039882e-28
1.1251983e-40
3.374443e-40
1.519941e-28
1.013294e-28
2.026588e-28
-7.599705e-28
-1.519941e-28
-8.5528471e-44
1.013294e-28
1.4399774e-43
-9.119646e-28
-1.013294e-28
4.2764235e-44
6.079764e-28
-8.4375474e-40
-3.4211388e-43
5.06647e-29
2.026588e-28
6.079764e-28
-1.519941e-28
-5.06647e-29
-1.6869335e-40
-5.06647e-29
1.013294e-28
1.5556232e-53
-5.06647e-29
5.06647e-29
1.8827441e-52
3.039882e-28
-3.039882e-28
-3.039882e-28
0
0
0
-1.519941e-28
-4.559823e-28
2.8025042e-41
-6.2483759e-53
-1.519941e-28
4.559823e-28
-1.1240984e-40
-5.6314777e-41
-5.06647e-29
2.1382118e-43
1.013294e-28
1.013294e-28
-2.533235e-28
8.4368274e-40
3.039882e-28
-4.559823e-28
-4.053176e-28
0
-6.079764e-28
-1.6873655e-40
-4.7557147e-44
-1.519941e-28
-1.519941e-28
5.06647e-29
0
0
3.039882e-28
2.026588e-28
1.1249103e-40
-1.1251306e-40
-1.013294e-28
5.06647e-29
-5.06647e-29
1.013294e-28
5.2691398e-55
2.5314802e-40
-6.079764e-28
0
0
3.039882e-28
2.026588e-28
5.06647e-29
-2.8119158e-40
-1.3679469e-27
3.375595e-40
1.013294e-28
0
1.1247988e-40
1.013294e-28
-1.013294e-28
-1.013294e-28
-5.6223351e-41
-4.559823e-28
1.519941e-28
-6.749462e-40
-1.1246587e-40
-6.079764e-28
-4.4994311e-40
0
0
0
4.559823e-28
8.106352e-28
-1.0639587e-27
-3.039882e-28
0
1.013294e-28
1.6873655e-40
2.533235e-28
-2.026588e-28
-5.06647e-29
5.06647e-29
1.519941e-28
-4.559823e-28
1.013294e-28
1.013294e-28
-6.4146353e-44
-1.013294e-28
4.053176e-28
9.119646e-28
0
-1.0639587e-27
-7.093058e-28
1.519941e-28
-1.013294e-28
1.6873655e-40
-2.026588e-28
8.4382674e-40
3.039882e-28
1.1251983e-40
3.9030665e-56
3.039882e-28
0
-1.519941e-28
4.053176e-28
1.519941e-28
-2.2451224e-43
2.5658541e-43
0
3.039882e-28
5.6178376e-41
-1.013294e-28
2.026588e-28
5.06647e-29
6.079764e-28
-5.06647e-28
-3.039882e-28
-2.8196099e-41
1.013294e-28
1.013294e-28
-1.519941e-28
-5.06647e-29
1.068183e-55
1.013294e-28
2.8799547e-44
-7.599705e-28
6.079764e-28
1.519941e-28
1.013294e-28
-4.559823e-28
1.013294e-28
-6.079764e-28
3.375163e-40
1.013294e-28
5.06647e-29
-1.4061379e-40
-6.079764e-28
2.8122758e-40
-3.039882e-28
-2.026588e-28
3.039882e-28
5.06647e-29
-5.6245516e-41
-5.2350058e-44
-1.8796813e-52
-3.039882e-28
2.026588e-28
1.1254863e-40
1.1257743e-40
-5.6252716e-40
-3.039882e-28
7.599705e-28
-4.053176e-28
-5.9047712e-40
-6.749462e-40
-4.559823e-28
1.013294e-28
1.013294e-28
1.1249103e-40
-1.013294e-28
5.06647e-29
-1.013294e-28
-1.013294e-28
1.1247663e-40
-1.519941e-28
5.6231116e-41
-2.533235e-28
6.079764e-28
-2.026588e-28
-5.06647e-29
-1.1243343e-40
1.4061379e-40
-1.519941e-28
2.026588e-28
-1.013294e-28
3.375307e-40
3.374731e-40
2.5331733e-40
-2.026588e-28
1.4399774e-44
-2.026588e-28
3.039882e-28
9.119646e-28
2.533235e-28
-1.0639587e-27
2.2498207e-40
5.06647e-29
1.013294e-28
-4.053176e-28
-2.5314802e-40
-2.533235e-28
2.533235e-28
-5.06647e-29
1.013294e-28
-1.013294e-28
-1.519941e-28
0
0
2.026588e-28
5.7599095e-44
-5.06647e-28
1.519941e-28
-4.559823e-28
-3.039882e-28
6.079764e-28
-2.8799547e-44
-2.2498207e-40
1.013294e-28
-6.079764e-28
-1.0124769e-39
-1.1287545e-40
5.06647e-29
-1.519941e-28
2.8137158e-40
3.039882e-28
-2.026588e-28
-3.039882e-28
1.6873655e-40
1.1247767e-40
-1.519941e-28
-2.026588e-28
5.06647e-29
-1.519941e-28
-8.5528471e-44
-1.5432331e-55
0
5.06647e-29
-2.026588e-28
-2.5252583e-40
1.6873655e-40
-6.079764e-28
1.519941e-28
5.06647e-29
-2.026588e-28
1.519941e-28
-1.013294e-28
-1.013294e-28
3.039882e-28
-1.6873655e-40
-2.2501086e-40
-5.06647e-28
3.039882e-28
9.621953e-44
-1.013294e-28
-5.6288716e-41
1.6036588e-43
4.053176e-28
-5.06647e-28
0
0
2.533235e-28
-8.4368274e-41
1.4399774e-44
1.519941e-28
3.546529e-28
-7.599705e-28
-2.026588e-28
-5.2691398e-55
4.559823e-28
-1.013294e-28
3.3932864e-40
1.519941e-28
-1.013294e-28
-5.06647e-29
1.519941e-28
-5.0620965e-40
-2.026588e-28
-1.519941e-28
-1.6882295e-40
2.2501086e-40
1.013294e-28
-3.039882e-28
-1.6873655e-40
-5.5699489e-41
-5.6765279e-41
-1.013294e-28
0
0
-6.8422777e-43
-1.2463385e-52
-8.6398642e-44
6.3110582e-53
5.06647e-29
8.4206733e-41
-5.06647e-29
-1.013294e-28
3.039882e-28
-1.013294e-28
1.6873655e-40
4.053176e-28
-3.039882e-28
-6.749462e-40
1.6873655e-40
-5.06647e-29
-3.039882e-28
2.026588e-28
-3.374731e-40
-1.013294e-28
0
-1.013294e-28
-6.4146353e-44
-2.026588e-28
-1.013294e-28
2.1382118e-44
-1.6876535e-40
-5.06647e-29
0
0
-2.026588e-28
-1.1248947e-40
0
1.6904534e-40
-1.519941e-28
2.026588e-28
-5.06647e-29
-1.013294e-28
0
6.4146353e-43
0
0
2.533235e-28
-1.6873655e-40
5.3455294e-44
0
-1.013294e-28
-8.4368274e-41
1.013294e-28
0
-1.1299084e-40
4.053176e-28
-2.533235e-28
-2.8119158e-40
1.013294e-28
3.039882e-28
1.013294e-28
-1.013294e-28
-5.7599095e-44
-2.2501086e-40
-2.8799547e-44
2.026588e-28
0
-9.49496e-56
-5.06647e-29
-2.8122366e-41
1.519941e-28
-9.119646e-28
-2.026588e-28
-1.013294e-28
-5.6238316e-41
-1.013294e-28
7.093058e-28
7.093058e-28
-5.06647e-28
-1.6872215e-40
1.013294e-28
-5.06647e-29
2.026588e-28
5.06647e-29
6.2074101e-53
-1.1254863e-40
1.013294e-28
-3.039882e-28
3.039882e-28
1.013294e-28
0
1.519941e-28
5.6245516e-41
1.1250126e-40
5.6245516e-41
1.519941e-28
3.039882e-28
0
5.06647e-28
5.6238316e-40
3.039882e-28
2.533235e-28
-3.039882e-28
8.4346675e-41
2.026588e-28
5.06647e-29
2.026588e-28
-1.519941e-28
-5.06647e-28
-2.026588e-28
0
3.039882e-28
-5.06647e-29
1.519941e-28
1.519941e-28
2.026588e-28
-1.013294e-28
-2.533235e-28
6.079764e-28
2.533235e-28
3.039882e-28
-2.8122758e-40
-1.519941e-28
-1.519941e-28
-1.013294e-28
2.026588e-28
0
0
0
-3.039882e-28
-5.06647e-28
2.026588e-28
0
5.6245516e-41
-5.6231116e-41
-1.5827516e-67
3.039882e-28
0
-2.026588e-28
-1.013294e-28
-5.06647e-29
2.026588e-28
1.519941e-28
0
0
-2.026588e-28
1.6873655e-40
-4.4996413e-40
3.039882e-28
2.026588e-28
2.026588e-28
0
-3.039882e-28
5.6231116e-41
-2.026588e-28
2.026588e-28
-1.7807608e-55
-3.039882e-28
0
5.06647e-28
5.06647e-29
1.013294e-28
1.013294e-28
2.2503966e-40
1.013294e-28
-1.013294e-28
-1.013294e-28
0
0
0
-1.013294e-28
-4.053176e-28
1.013294e-28
0
2.026588e-28
0
-5.06647e-29
2.026588e-28
5.06647e-29
-5.6308879e-41
1.1796295e-44
1.519941e-28
-2.3592589e-44
5.06647e-29
6.2309131e-53
5.06647e-29
2.5328576e-52
-8.6398642e-44
-5.06647e-28
0
1.519941e-28
1.013294e-28
5.06647e-29
0
0
0
1.013294e-28
1.013294e-28
5.06647e-29
5.06647e-29
-1.013294e-28
2.026588e-28
1.519941e-28
-3.039882e-28
0
-3.039882e-28
-3.039882e-28
0
0
2.026588e-28
5.6245516e-41
5.06647e-29
-1.519941e-28
3.039882e-28
-1.519941e-28
1.013294e-28
4.053176e-28
2.026588e-28
0
2.026588e-28
1.1246223e-40
-1.7105694e-43
1.519941e-28
2.026588e-28
3.039882e-28
-4.053176e-28
2.250217e-40
-2.8799547e-44
-1.013294e-28
5.06647e-28
-2.533235e-28
1.519941e-28
-4.6836798e-55
-2.533235e-28
7.093058e-28
-1.013294e-27
-1.3172822e-27
0
1.4692763e-27
3.4451996e-27
-1.2374014e-39
-2.7358938e-27
-3.4451996e-27
8.9169872e-27
1.175421e-26
-7.7516991e-27
-1.9961892e-26
-2.523102e-26
1.6212704e-26
4.1646383e-26
-2.6598967e-26
3.4198672e-26
-7.2966102e-38
-5.5832499e-26
1.4186116e-25
-1.8067032e-25
-1.2770087e-37
8.1335181e-37
-3.7279086e-25
4.7341095e-25
1.3327938e-36
-3.8079588e-25
9.6526386e-25
-6.1096561e-25
2.1976935e-40
-4.3410289e-36
-1.2348507e-24
3.1178043e-24
-4.3658895e-36
1.3751038e-36
-3.1204895e-24
1.1161265e-39
9.8754619e-24
-1.2406265e-23
-4.4262313e-39
4.3368893e-35
-2.4477738e-23
3.0649711e-23
4.2569082e-35
-4.7931542e-23
2.9931691e-23
3.7350017e-23
4.6566027e-23
-5.8005356e-23
8.0143111e-35
1.7953158e-22
0
0
-3.4328779e-22
-6.0439436e-38
5.2642609e-22
-3.2548999e-22
4.4630193e-34
-4.9632168e-22
-1.3588265e-33
1.5078197e-21
0
1.1407195e-21
-2.802164e-21
-1.7191489e-21
4.6794307e-33
-2.580444e-21
6.3131781e-21
-3.8573763e-21
5.2261728e-33
1.1484331e-20
0
0
-1.0346218e-20
6.973134e-33
-1.5236736e-20
1.8459781e-20
6.7018749e-20
-8.1012954e-20
-3.260593e-20
7.8648548e-20
-4.7371932e-20
-9.4909518e-32
-6.8503409e-20
4.6742692e-35
3.2837731e-31
-1.180603e-19
2.8240549e-19
1.6867282e-19
0
2.3978218e-19
-2.8534899e-19
-3.3913903e-19
-4.0254628e-19
1.0594914e-30
-6.269762e-31
7.4125194e-31
1.5770798e-18
-9.2973935e-19
-1.8227956e-30
2.5743532e-18
-2.1477596e-34
-1.7720553e-18
-4.149514e-18
-4.8513106e-18
5.6635194e-18
3.6664639e-30
3.8422116e-18
4.4654536e-18
-1.0363794e-17
1.2008093e-17
6.9458341e-18
-2.4068227e-17
-1.8503857e-17
1.0652352e-17
2.4489801e-17
1.4052521e-17
-1.6100341e-17
-3.6831575e-17
4.2057399e-17
7.1914285e-17
-2.7278923e-17
-3.0988798e-17
-7.0282765e-17
-3.9779741e-17
8.989933e-17
5.0699628e-17
5.7080709e-17
-1.2829293e-16
-7.1952756e-17
1.6111506e-16
-1.8004108e-16
1.6720261e-44
-3.1766153e-32
-2.4835216e-16
2.7538517e-16
5.0762227e-28
1.8664435e-28
6.1792687e-28
2.9612858e-44
6.7206635e-16
2.7250081e-28
-2.6833496e-16
-5.8554276e-16
-6.3754293e-16
6.9271659e-16
8.338265e-28
4.0633941e-16
1.4614274e-27
-4.7270673e-16
1.0164672e-15
0
-5.8376099e-16
6.9215336e-28
-6.6481104e-16
-1.4143759e-15
1.5013071e-15
1.59016e-15
0
-1.7724653e-15
2.0712569e-27
1.9586802e-15
-2.0523211e-15
-1.191066e-27
1.1192965e-15
6.4692068e-28
3.4397484e-31
-1.2543188e-15
1.2971096e-15
1.3383714e-15
-1.3778467e-15
1.5717759e-27
-1.4504041e-15
4.9393971e-27
-1.6793627e-27
-3.0788765e-15
3.125711e-15
3.1655198e-15
0
-3.2224075e-15
3.5955018e-27
3.2465538e-15
-3.2452951e-15
-3.2346106e-15
1.6072897e-15
3.1852627e-15
8.7376298e-28
2.2018452e-31
8.4381304e-28
4.2293544e-31
1.4509191e-15
-2.8193907e-15
-2.729284e-15
2.6320868e-15
1.4041988e-27
-2.4190883e-15
2.304805e-15
2.1864491e-15
0
-1.9411662e-15
2.5808908e-31
-9.3829089e-28
-8.6933376e-28
1.6022547e-27
-1.322524e-15
1.2052941e-15
1.3417717e-43
-9.8383366e-16
1.3213185e-15
7.8379052e-16
-3.4647441e-16
0
-5.309639e-16
7.6618212e-28
-2.197347e-28