/*--------------------------------*- C++ -*----------------------------------*\
  =========                 |
  \\      /  F ield         | OpenFOAM: The Open Source CFD Toolbox
   \\    /   O peration     | Website:  https://openfoam.org
    \\  /    A nd           | Version:  7
     \\/     M anipulation  |
\*---------------------------------------------------------------------------*/
FoamFile
{
    version     2.0;
    format      ascii;
    class       volVectorField;
    location    "0.0027";
    object      U;
}
// * * * * * * * * * * * * * * * * * * * * * * * * * * * * * * * * * * * * * //

dimensions      [0 1 -1 0 0 0 0];

internalField   nonuniform List<vector> 
5000
(
(23.173061 2.4969124e-21 0)
(23.17306 3.5255547e-21 0)
(23.173059 0 0)
(23.173058 0 0)
(23.173057 -1.6879473e-21 0)
(23.173057 1.829245e-36 -1.6090209e-21)
(23.173057 1.4542876e-21 -3.1000004e-36)
(23.173057 0 4.3298819e-21)
(23.173057 0 1.5941548e-21)
(23.173056 -1.6757501e-21 -3.3515001e-21)
(23.173056 -3.4129034e-21 -3.4129034e-21)
(23.173056 1.7129277e-21 1.7129277e-21)
(23.173055 1.7112502e-21 -1.4590996e-35)
(23.173055 -1.7053032e-21 -1.5024966e-35)
(23.173054 0 3.3958587e-21)
(23.173054 -1.689188e-21 -3.3783761e-21)
(23.173053 -7.9653659e-51 -3.9826829e-51)
(23.173053 1.6690561e-21 -1.4705603e-35)
(23.173053 0 -1.6599465e-21)
(23.173052 1.6514093e-21 3.3028185e-21)
(23.173052 -1.6409164e-21 1.6409164e-21)
(23.173052 -1.6352043e-21 0)
(23.173051 3.2811397e-21 0)
(23.173051 -1.6515604e-21 -1.6515604e-21)
(23.173051 -1.6620098e-21 1.4171148e-35)
(23.17305 -1.3759825e-35 -1.3759825e-35)
(23.17305 1.6719267e-21 -1.6719267e-21)
(23.173049 1.6674833e-21 1.6674833e-21)
(23.173049 -3.3159191e-21 1.6579596e-21)
(23.173049 2.8564302e-35 -1.6475689e-21)
(23.173048 -2.8661611e-35 2.8661611e-35)
(23.173048 1.6300674e-21 -1.389879e-35)
(23.173048 3.2434868e-21 -1.6217434e-21)
(23.173047 -3.2485339e-21 1.624267e-21)
(23.173047 2.8333819e-35 1.6342748e-21)
(23.173046 -1.4293959e-34 0)
(23.173046 -5.7189779e-35 0)
(23.173046 3.2931711e-21 -1.6465855e-21)
(23.173045 -3.2682722e-21 -1.6341361e-21)
(23.173045 -3.2422932e-21 1.6211466e-21)
(23.173045 3.2143199e-21 -2.6950157e-35)
(23.173044 -1.0961612e-34 -1.5937084e-21)
(23.173044 -3.1851943e-21 1.5925972e-21)
(23.173044 1.605614e-21 -2.7152406e-35)
(23.173043 4.8739879e-21 -1.6246626e-21)
(23.173043 -1.6342126e-21 1.6342126e-21)
(23.173042 -1.6245739e-21 -5.5869533e-35)
(23.173042 -1.0985836e-34 5.4929181e-35)
(23.173042 -3.1617833e-21 -5.4367288e-35)
(23.173041 0 2.6555967e-35)
(23.173041 1.5536674e-21 1.5536674e-21)
(23.173041 2.2413558e-37 0)
(23.17304 -1.6044729e-21 0)
(23.17304 3.2404313e-21 0)
(23.173039 -5.6424863e-35 0)
(23.173039 -3.1859697e-21 0)
(23.173039 1.5757835e-21 0)
(23.173038 -5.3673371e-35 0)
(23.173038 -1.5411598e-21 0)
(23.173038 0 0)
(23.173037 1.5791736e-21 0)
(23.173037 5.4495392e-35 0)
(23.173037 4.547204e-37 0)
(23.173036 1.5861898e-21 -1.5861898e-21)
(23.173036 -1.5709759e-21 -1.5709759e-21)
(23.173036 5.4387638e-35 1.5557682e-21)
(23.173035 1.5426643e-21 -2.652632e-35)
(23.173035 -1.5430361e-21 4.7345714e-52)
(23.173035 -1.5567711e-21 1.5567711e-21)
(23.173034 1.5728989e-21 0)
(23.173034 1.5802128e-21 0)
(23.173033 -1.5741968e-21 -1.5741968e-21)
(23.173033 -1.5627748e-21 -1.5627748e-21)
(23.173033 3.1057406e-21 0)
(23.173032 1.5428709e-21 1.5428709e-21)
(23.173032 -1.5381324e-21 5.3115369e-35)
(23.173032 0 -1.5446675e-21)
(23.173031 1.5568663e-21 -1.5568663e-21)
(23.173031 -2.2204083e-37 1.5624734e-21)
(23.173031 -1.5570517e-21 3.1141034e-21)
(23.17303 1.5476878e-21 -3.0953755e-21)
(23.17303 -4.3710846e-37 8.7421692e-37)
(23.17303 4.3453993e-37 4.5867044e-21)
(23.173029 1.5265735e-21 -3.053147e-21)
(23.173029 1.5341649e-21 -1.5958913e-34)
(23.173029 5.3713442e-35 3.0855081e-21)
(23.173028 -1.5450895e-21 -4.6352686e-21)
(23.173028 0 1.5401045e-21)
(23.173027 -1.5327427e-21 1.5327427e-21)
(23.173027 -1.5823042e-34 -1.5252707e-21)
(23.173027 -5.3177429e-35 1.52115e-21)
(23.173026 1.5264037e-21 1.5264037e-21)
(23.173026 1.5294237e-21 5.3249326e-35)
(23.173026 -3.0524998e-21 -3.0524998e-21)
(23.173025 -1.0516535e-34 -1.0516535e-34)
(23.173025 1.5078931e-21 -1.5078931e-21)
(23.173025 0 -1.5026843e-21)
(23.173024 0 -5.2954146e-35)
(23.173024 -1.5215549e-21 1.0595072e-34)
(23.173024 -1.0606318e-34 3.058825e-21)
(23.173023 3.0502505e-21 1.5251252e-21)
(23.173023 -1.513568e-21 -1.513568e-21)
(23.173023 -2.9964127e-21 2.1290792e-37)
(23.173022 0 1.4838668e-21)
(23.173022 1.4787115e-21 0)
(23.173022 1.4814219e-21 -1.4814219e-21)
(23.173021 -1.4824041e-21 -5.1612261e-35)
(23.173021 -1.4749682e-21 1.4749682e-21)
(23.173021 0 -1.3478145e-21)
(23.173021 0 -1.2574047e-21)
(23.173021 1.3463369e-21 2.6926738e-21)
(23.17302 1.4903302e-21 1.4903302e-21)
(23.173019 0 -4.5273371e-21)
(23.173019 -1.4244921e-21 -1.4244921e-21)
(23.173019 4.9299416e-35 4.2306561e-21)
(23.173018 1.4551475e-21 -1.4551475e-21)
(23.173018 -1.4813055e-21 -1.4813055e-21)
(23.173018 4.2101173e-37 -8.4202345e-37)
(23.173017 -5.1929643e-35 -1.4854568e-21)
(23.173017 1.7239672e-54 4.4844983e-21)
(23.173017 2.9964226e-21 -1.0475105e-34)
(23.173016 -6.3639649e-37 -2.9854948e-21)
(23.173016 -1.4848369e-21 2.9696738e-21)
(23.173016 0 1.4762916e-21)
(23.173015 -1.461517e-21 -1.461517e-21)
(23.173015 1.4479853e-21 1.4479853e-21)
(23.173015 1.4499552e-21 -1.4499552e-21)
(23.173014 -2.9340338e-21 -2.9340338e-21)
(23.173014 -1.4843115e-21 1.4843115e-21)
(23.173014 2.9744052e-21 5.1356641e-35)
(23.173013 1.4741421e-21 1.4741421e-21)
(23.173013 -1.4600528e-21 2.9201056e-21)
(23.173013 -1.4430093e-21 -1.4430093e-21)
(23.173012 -1.4321398e-21 -1.4321398e-21)
(23.173012 0 -1.4433655e-21)
(23.173012 1.4644716e-21 -5.0987915e-35)
(23.173011 1.4781907e-21 -5.1255504e-35)
(23.173011 -1.4753935e-21 5.1368178e-35)
(23.173011 -5.0719026e-35 2.9254378e-21)
(23.17301 1.4511767e-21 1.4511767e-21)
(23.17301 -1.4377187e-21 -1.4377187e-21)
(23.17301 -1.4305694e-21 -2.8611388e-21)
(23.17301 0 -1.4408694e-21)
(23.173009 1.4588389e-21 -1.4588389e-21)
(23.173009 1.467318e-21 1.0175699e-34)
(23.173008 -1.4622314e-21 2.9244628e-21)
(23.173008 1.4520353e-21 -4.1269326e-37)
(23.173008 -8.1788903e-37 4.0894452e-37)
(23.173008 -1.4272865e-21 -3.1843877e-51)
(23.173007 1.4276922e-21 1.4276922e-21)
(23.173007 -1.4416307e-21 -9.9975609e-35)
(23.173007 1.0124485e-34 2.0248969e-34)
(23.173006 1.4559589e-21 1.4559589e-21)
(23.173006 -1.448533e-21 -1.448533e-21)
(23.173006 1.4378173e-21 1.4378173e-21)
(23.173005 1.4269346e-21 4.9478224e-35)
(23.173005 -1.4232061e-21 -1.4232061e-21)
(23.173005 0 1.4336876e-21)
(23.173004 0 -2.0523361e-37)
(23.173004 -1.4466514e-21 -1.4466514e-21)
(23.173004 -1.4434969e-21 0)
(23.173003 1.4359395e-21 1.4359395e-21)
(23.173003 1.4303459e-21 9.898975e-35)
(23.173003 -1.4336036e-21 -2.8672072e-21)
(23.173002 -9.9733427e-35 1.4381385e-21)
(23.173002 1.4358411e-21 -4.0809058e-37)
(23.173002 -1.4300664e-21 -1.4300664e-21)
(23.173002 -1.4171264e-21 1.4171264e-21)
(23.173001 0 -1.4078503e-21)
(23.173001 1.416805e-21 1.416805e-21)
(23.173001 1.4335473e-21 -5.9730505e-34)
(23.173 0 -3.9957733e-34)
(23.173 -1.4292802e-21 1.4292802e-21)
(23.173 -1.4138878e-21 -2.8277756e-21)
(23.172999 0 0)
(23.172999 1.3822944e-21 -9.5860697e-35)
(23.172999 2.9147015e-34 -2.9147015e-34)
(23.172998 -1.4284911e-21 1.4284911e-21)
(23.172998 1.4396463e-21 1.4396463e-21)
(23.172998 1.4290671e-21 9.8495088e-35)
(23.172997 -1.4132121e-21 -1.4132121e-21)
(23.172997 -9.623112e-35 1.3933463e-21)
(23.172997 9.4863746e-35 9.4863746e-35)
(23.172997 5.9111537e-37 5.9111537e-37)
(23.172996 1.4074881e-21 1.9501569e-34)
(23.172996 -1.426963e-21 -2.853926e-21)
(23.172995 -1.985734e-34 1.4316968e-21)
(23.172995 9.7753207e-35 1.4212335e-21)
(23.172995 -9.6938714e-35 -9.6938714e-35)
(23.172995 1.3963912e-21 9.6242977e-35)
(23.172994 0 -2.8827607e-34)
(23.172994 0 9.6093494e-35)
(23.172994 -1.4066569e-21 -1.4066569e-21)
(23.172993 -1.4184893e-21 0)
(23.172993 0 0)
(23.172993 0 0)
(23.172992 1.4010479e-21 0)
(23.172992 -2.3848991e-52 -1.3902961e-21)
(23.172992 -1.3861295e-21 2.889709e-34)
(23.172992 0 1.3961371e-21)
(23.172991 1.4093592e-21 1.4093592e-21)
(23.172991 -1.4141055e-21 -1.4141055e-21)
(23.172991 -3.900994e-34 -1.4077336e-21)
(23.17299 2.7989192e-21 2.7989192e-21)
(23.17299 -1.3893266e-21 9.6150938e-35)
(23.17299 -2.8703497e-34 -2.8703497e-34)
(23.172989 -1.9749579e-37 -1.3897531e-21)
(23.172989 -1.4019143e-21 -1.4019143e-21)
(23.172989 1.4081807e-21 1.4081807e-21)
(23.172988 -1.9962724e-37 0)
(23.172988 -1.9357074e-34 1.3984938e-21)
(23.172988 9.632871e-35 9.632871e-35)
(23.172988 -1.3876128e-21 -1.3876128e-21)
(23.172987 0 -1.3919132e-21)
(23.172987 1.3993167e-21 1.9487776e-34)
(23.172987 9.6896964e-35 1.4001063e-21)
(23.172986 3.8741062e-34 -2.7917664e-21)
(23.172986 1.3909748e-21 1.3909748e-21)
(23.172986 0 1.3882284e-21)
(23.172985 -1.3906136e-21 -1.3906136e-21)
(23.172985 -1.3948753e-21 1.3948753e-21)
(23.172985 0 0)
(23.172984 0 0)
(23.172984 0 0)
(23.172984 1.3805877e-21 1.3805877e-21)
(23.172984 9.600306e-35 -1.3871899e-21)
(23.172983 -1.3934378e-21 -2.7868756e-21)
(23.172983 0 1.3899694e-21)
(23.172983 0 -9.6069188e-35)
(23.172982 1.3721278e-21 1.3721278e-21)
(23.172982 1.3652289e-21 1.3652289e-21)
(23.172982 -1.3735819e-21 -2.7471638e-21)
(23.172981 -1.3857742e-21 3.9386072e-37)
(23.172981 0 -3.9512037e-37)
(23.172981 1.3839375e-21 1.3839375e-21)
(23.172981 1.3738634e-21 1.3738634e-21)
(23.17298 -1.3626948e-21 -2.7253897e-21)
(23.17298 -1.3581119e-21 1.929993e-37)
(23.17298 0 -2.8514442e-34)
(23.172979 1.381182e-21 1.381182e-21)
(23.172979 -3.8480373e-34 -7.6960746e-34)
(23.172979 -9.5830108e-35 -1.9166022e-34)
(23.172978 1.3750961e-21 1.3750961e-21)
(23.172978 -1.3687268e-21 -1.3687268e-21)
(23.172978 -1.3662511e-21 0)
(23.172978 0 -1.3715116e-21)
(23.172977 1.3786168e-21 1.3786168e-21)
(23.172977 -1.9179101e-34 1.3799686e-21)
(23.172977 1.3769336e-21 -1.3769336e-21)
(23.172976 1.9057105e-34 0)
(23.172976 -2.7462547e-21 -1.3731273e-21)
(23.172976 1.3740269e-21 1.3740269e-21)
(23.172975 -1.9058695e-34 1.3741152e-21)
(23.172975 -4.7661181e-34 -4.7661181e-34)
(23.172975 -9.4696467e-35 -2.7366207e-21)
(23.172975 -1.364515e-21 -2.7290299e-21)
(23.172974 1.3674117e-21 4.1022351e-21)
(23.172974 1.370579e-21 2.7411579e-21)
(23.172974 0 0)
(23.172973 -1.3673804e-21 -2.7347607e-21)
(23.172973 -1.3599186e-21 -1.3599186e-21)
(23.172973 0 1.3539177e-21)
(23.172973 1.3567321e-21 1.3567321e-21)
(23.172972 1.364091e-21 1.364091e-21)
(23.172972 -2.7375575e-21 -2.7375575e-21)
(23.172972 -1.3659988e-21 -2.7319975e-21)
(23.172971 1.3582154e-21 1.3582154e-21)
(23.172971 1.3499491e-21 2.6998982e-21)
(23.172971 3.7376782e-34 3.7376782e-34)
(23.17297 -1.3564087e-21 -2.7128174e-21)
(23.17297 1.3638168e-21 1.3638168e-21)
(23.17297 -9.456321e-35 -1.8912642e-34)
(23.17297 -1.3587927e-21 -1.3587927e-21)
(23.172969 1.3494368e-21 2.6988736e-21)
(23.172969 -9.3247871e-35 -1.3418682e-21)
(23.172969 9.3560249e-35 1.871205e-34)
(23.172968 -3.8488881e-37 1.3542071e-21)
(23.172968 -9.4108065e-35 -1.3626062e-21)
(23.172968 1.3614863e-21 1.3614863e-21)
(23.172967 0 -2.7123662e-21)
(23.172967 0 5.6345409e-34)
(23.172967 -1.3464086e-21 2.6928172e-21)
(23.172967 -1.3483508e-21 -2.6967016e-21)
(23.172966 0 -9.3660024e-35)
(23.172966 0 1.3565857e-21)
(23.172966 0 0)
(23.172965 0 0)
(23.172965 1.3526234e-21 1.3526234e-21)
(23.172965 9.3176214e-35 -1.3518955e-21)
(23.172965 -2.7032062e-21 -2.7032062e-21)
(23.172964 5.7522147e-37 1.3492537e-21)
(23.172964 1.3466211e-21 -3.8273275e-37)
(23.172964 1.3471256e-21 1.3471256e-21)
(23.172963 -1.8717815e-34 1.3481567e-21)
(23.172963 -1.868075e-34 -1.3482471e-21)
(23.172963 -1.9131563e-37 0)
(23.172963 -1.3404983e-21 -1.3404983e-21)
(23.172962 -1.3349979e-21 -1.3349979e-21)
(23.172962 -1.3351102e-21 0)
(23.172962 2.681827e-21 2.681827e-21)
(23.172961 4.0385873e-21 1.3461958e-21)
(23.172961 -1.3445091e-21 -2.6890182e-21)
(23.172961 -2.6777911e-21 9.266076e-35)
(23.172961 0 -3.7867115e-37)
(23.17296 1.3286537e-21 1.3286537e-21)
(23.17296 1.3341855e-21 1.3341855e-21)
(23.17296 -1.3410976e-21 -1.3410976e-21)
(23.172959 3.8115284e-37 1.3410623e-21)
(23.172959 -5.7000125e-37 -1.3370091e-21)
(23.172959 3.7829731e-37 7.5659462e-37)
(23.172959 1.3266522e-21 2.6533044e-21)
(23.172958 1.3302641e-21 -1.3302641e-21)
(23.172958 -1.3358736e-21 -1.3358736e-21)
(23.172958 -2.6715711e-21 -1.3357856e-21)
(23.172957 1.3320882e-21 -1.8475789e-34)
(23.172957 -7.4039352e-53 1.3253626e-21)
(23.172957 1.3203167e-21 0)
(23.172957 3.6713756e-34 0)
(23.172956 -2.6599415e-21 -1.3299707e-21)
(23.172956 0 1.8470772e-34)
(23.172956 0 -3.6830917e-34)
(23.172955 2.636209e-21 -1.8319301e-34)
(23.172955 -7.2799523e-34 1.3108524e-21)
(23.172955 -2.6267739e-21 -1.3133869e-21)
(23.172955 0 1.8803352e-37)
(23.172954 1.3299928e-21 1.3299928e-21)
(23.172954 1.3266467e-21 0)
(23.172954 -1.3195879e-21 0)
(23.172953 1.8628147e-37 0)
(23.172953 -1.8115971e-34 0)
(23.172953 1.8631129e-37 0)
(23.172953 1.3197813e-21 0)
(23.172952 -1.3231944e-21 0)
(23.172952 -1.3202716e-21 -1.3202716e-21)
(23.172952 0 0)
(23.172952 1.3077487e-21 1.3077487e-21)
(23.172951 -1.8146699e-34 0)
(23.172951 -1.3118989e-21 -1.3118989e-21)
(23.172951 2.6344388e-21 -3.6539124e-34)
(23.17295 -3.6557786e-34 1.3178922e-21)
(23.17295 -1.3144508e-21 0)
(23.17295 -3.6420165e-34 0)
(23.17295 -2.6217963e-21 -1.3108982e-21)
(23.172949 2.6256627e-21 -1.8227357e-34)
(23.172949 1.3120694e-21 1.3120694e-21)
(23.172949 -1.3077408e-21 0)
(23.172948 -1.850543e-37 0)
(23.172948 -1.2995294e-21 -1.2995294e-21)
(23.172948 0 -1.3047057e-21)
(23.172948 0 1.3098724e-21)
(23.172947 1.3076917e-21 1.3076917e-21)
(23.172947 -1.8062598e-34 0)
(23.172947 -2.5876529e-21 -1.2938264e-21)
(23.172947 1.8295273e-37 1.8295273e-37)
(23.172946 3.8771102e-21 1.2923701e-21)
(23.172946 -1.3004013e-21 -1.3004013e-21)
(23.172946 -1.3040205e-21 -1.3040205e-21)
(23.172945 2.6013907e-21 1.3006953e-21)
(23.172945 -1.2917483e-21 1.2917483e-21)
(23.172945 1.2831861e-21 0)
(23.172945 2.5644724e-21 -1.2822362e-21)
(23.172944 -1.292011e-21 -1.292011e-21)
(23.172944 -1.301146e-21 1.301146e-21)
(23.172944 -1.2994091e-21 1.2994091e-21)
(23.172943 1.2927305e-21 0)
(23.172943 -1.9130326e-52 -1.2839855e-21)
(23.172943 -1.277566e-21 -1.277566e-21)
(23.172943 1.2832964e-21 1.2832964e-21)
(23.172942 -1.2904614e-21 1.2904614e-21)
(23.172942 1.2925407e-21 0)
(23.172942 3.5723712e-34 0)
(23.172942 3.6330615e-37 0)
(23.172941 1.2689405e-21 0)
(23.172941 -2.5422036e-21 0)
(23.172941 1.2840969e-21 0)
(23.17294 3.5924545e-34 0)
(23.17294 -3.5751131e-34 0)
(23.17294 -1.2786907e-21 -1.2786907e-21)
(23.17294 -2.5295823e-21 3.1945714e-51)
(23.17294 3.7662443e-21 1.2554148e-21)
(23.172939 3.5099227e-34 0)
(23.172939 -7.1153409e-34 0)
(23.172939 3.5755438e-34 0)
(23.172938 -2.5636741e-21 -1.2818371e-21)
(23.172938 2.5394484e-21 -1.7610814e-34)
(23.172938 -3.4734866e-34 1.2521767e-21)
(23.172938 -2.4840391e-21 -1.2420195e-21)
(23.172937 0 1.7445648e-34)
(23.172937 0 -1.8186486e-37)
(23.172937 1.2902638e-21 -1.791403e-34)
(23.172936 -1.775818e-34 1.2803492e-21)
(23.172936 -1.2660633e-21 -1.2660633e-21)
(23.172936 -1.2479524e-21 1.2479524e-21)
(23.172936 1.2359896e-21 -6.8677071e-34)
(23.172936 3.7383633e-21 -1.2461211e-21)
(23.172935 -1.2673563e-21 1.2673563e-21)
(23.172935 -1.2808415e-21 0)
(23.172935 -3.6366614e-37 0)
(23.172934 -1.2697077e-21 -1.2697077e-21)
(23.172934 0 -1.7460534e-34)
(23.172934 2.4903281e-21 1.245164e-21)
(23.172934 2.4851572e-21 -1.2425786e-21)
(23.172933 -1.2552595e-21 -1.2552595e-21)
(23.172933 -2.5429814e-21 0)
(23.172933 -1.2780512e-21 1.2780512e-21)
(23.172933 2.5434949e-21 1.2717475e-21)
(23.172932 2.5263266e-21 -1.2631633e-21)
(23.172932 -2.5066786e-21 -3.4784927e-34)
(23.172932 -2.4915694e-21 -1.2928853e-51)
(23.172932 0 -1.7352115e-34)
(23.172931 2.5245939e-21 1.2622969e-21)
(23.172931 -1.2698511e-21 -1.2698511e-21)
(23.172931 -2.5358643e-21 -6.0992e-51)
(23.17293 1.2627077e-21 -1.7531441e-34)
(23.17293 1.2547927e-21 -1.2547927e-21)
(23.17293 -1.7741509e-37 0)
(23.17293 1.7360472e-34 0)
(23.172929 1.2588877e-21 1.2588877e-21)
(23.172929 -1.2657595e-21 1.7987525e-37)
(23.172929 -1.2644884e-21 -5.261458e-34)
(23.172929 1.2598119e-21 1.2598119e-21)
(23.172928 -1.7391816e-34 0)
(23.172928 -1.7754169e-37 0)
(23.172928 -1.7387773e-34 -1.2536432e-21)
(23.172928 -1.2596147e-21 3.4923293e-34)
(23.172927 1.2605464e-21 1.2605464e-21)
(23.172927 -5.2402994e-34 0)
(23.172927 -1.7388754e-34 0)
(23.172927 -3.4637071e-34 0)
(23.172926 -1.2511346e-21 -1.2511346e-21)
(23.172926 1.2557781e-21 1.784568e-37)
(23.172926 -1.7450006e-34 1.2568424e-21)
(23.172926 -3.4792982e-34 -1.2549146e-21)
(23.172925 -1.7741866e-37 1.2484729e-21)
(23.172925 -2.4867765e-21 -3.4561756e-34)
(23.172925 -1.2468297e-21 -2.4936595e-21)
(23.172925 1.2519503e-21 1.2519503e-21)
(23.172924 2.5076944e-21 5.2225262e-34)
(23.172924 -1.7385427e-34 1.7385427e-34)
(23.172924 -2.4890882e-21 -1.7279257e-34)
(23.172924 -1.2383507e-21 -1.2383507e-21)
(23.172923 2.4831413e-21 0)
(23.172923 1.2482453e-21 0)
(23.172923 -1.2521677e-21 1.2521677e-21)
(23.172922 -1.2497892e-21 1.735208e-34)
(23.172922 -3.4431004e-34 -3.4431004e-34)
(23.172922 1.2316403e-21 -2.7193319e-52)
(23.172922 0 -1.2315044e-21)
(23.172921 0 1.2432743e-21)
(23.172921 1.2512117e-21 1.2512117e-21)
(23.172921 0 0)
(23.172921 -1.2438059e-21 -1.2438059e-21)
(23.17292 1.2330502e-21 -1.7119676e-34)
(23.17292 1.7407462e-37 1.2249413e-21)
(23.17292 -3.411919e-34 0)
(23.17292 0 0)
(23.172919 -1.2519493e-21 -1.2519493e-21)
(23.172919 1.2492848e-21 3.550681e-37)
(23.172919 1.2422519e-21 2.5209639e-52)
(23.172919 -2.4688675e-21 -1.2344338e-21)
(23.172918 -1.2286222e-21 1.2286222e-21)
(23.172918 1.2325943e-21 -1.7078313e-34)
(23.172918 0 1.721954e-34)
(23.172918 0 -3.4556458e-34)
(23.172917 -1.2444052e-21 -1.2444052e-21)
(23.172917 3.4427161e-34 1.2391796e-21)
(23.172917 1.234499e-21 -3.4279581e-34)
(23.172917 0 3.4301603e-34)
(23.172916 0 -3.4392121e-34)
(23.172916 -1.2408428e-21 -1.2408428e-21)
(23.172916 5.1688077e-34 1.240527e-21)
(23.172916 1.2349244e-21 -3.4291392e-34)
(23.172915 0 1.7109841e-34)
(23.172915 0 0)
(23.172915 0 -1.2352883e-21)
(23.172915 0 1.2381607e-21)
(23.172914 0 -1.7171716e-34)
(23.172914 0 1.7465109e-37)
(23.172914 0 -1.6961688e-34)
(23.172914 0 1.699051e-34)
(23.172913 2.4624811e-21 1.2312405e-21)
(23.172913 6.8743924e-34 -1.2384597e-21)
(23.172913 -1.2358132e-21 -1.2358132e-21)
(23.172913 1.2284484e-21 1.2284484e-21)
(23.172912 -1.2184568e-21 1.2184568e-21)
(23.172912 1.21253e-21 0)
(23.172912 -3.3947307e-34 -1.2212829e-21)
(23.172912 -1.2309737e-21 -1.2309737e-21)
(23.172911 -3.4255118e-34 0)
(23.172911 -1.2293779e-21 1.2293779e-21)
(23.172911 0 -1.6923133e-34)
(23.172911 0 1.7183182e-37)
(23.17291 1.2094464e-21 1.6774772e-34)
(23.17291 3.3929848e-34 -1.2219042e-21)
(23.17291 -1.2304116e-21 1.2304116e-21)
(23.17291 0 1.7052468e-34)
(23.172909 0 -3.4001678e-34)
(23.172909 0 -1.2144032e-21)
(23.172909 0 -1.2064001e-21)
(23.172909 0 2.4190329e-21)
(23.172908 0 -1.7354461e-37)
(23.172908 0 1.7055154e-34)
(23.172908 2.4534417e-21 1.2267209e-21)
(23.172908 -1.0153411e-33 -1.2196701e-21)
(23.172907 -2.421795e-21 1.6812107e-34)
(23.172907 1.2043293e-21 1.2043293e-21)
(23.172907 1.7188147e-37 0)
(23.172907 1.2182433e-21 0)
(23.172906 -6.7800015e-34 0)
(23.172906 -2.4403217e-21 -1.2201608e-21)
(23.172906 -1.2124985e-21 -1.2124985e-21)
(23.172906 1.7912913e-52 1.2046887e-21)
(23.172906 3.6092249e-21 1.203075e-21)
(23.172905 0 0)
(23.172905 -2.4396566e-21 -1.2198283e-21)
(23.172905 0 -1.2183351e-21)
(23.172905 0 1.2121465e-21)
(23.172904 2.4076965e-21 1.2038482e-21)
(23.172904 -3.3221779e-34 0)
(23.172904 -3.6096763e-21 -1.2032254e-21)
(23.172904 1.2102414e-21 -1.2102414e-21)
(23.172903 1.2123028e-21 1.2123028e-21)
(23.172903 -1.2090543e-21 3.3573033e-34)
(23.172903 1.1992039e-21 -1.1992039e-21)
(23.172903 -1.1903957e-21 0)
(23.172902 -3.3055978e-34 0)
(23.172902 1.2032748e-21 0)
(23.172902 -1.2117531e-21 0)
(23.172902 0 1.2084988e-21)
(23.172901 -1.2014226e-21 -3.3326969e-34)
(23.172901 1.1918914e-21 -1.1918914e-21)
(23.172901 2.3688368e-21 1.1844184e-21)
(23.172901 -1.1897127e-21 1.6517977e-34)
(23.1729 -1.1991587e-21 -1.6666166e-34)
(23.1729 -1.2037605e-21 3.3634418e-52)
(23.1729 -1.2004356e-21 1.2004356e-21)
(23.1729 2.3829291e-21 1.1914646e-21)
(23.1729 1.1820169e-21 -2.3640339e-21)
(23.172899 -1.179753e-21 -1.6379697e-34)
(23.172899 0 1.6501813e-34)
(23.172899 1.1972128e-21 -1.1972128e-21)
(23.172899 -1.1960712e-21 0)
(23.172898 -1.191267e-21 1.191267e-21)
(23.172898 3.5422579e-21 1.1807526e-21)
(23.172898 3.3323807e-37 -1.1724772e-21)
(23.172898 -2.35269e-21 -3.2631326e-34)
(23.172897 1.1872441e-21 1.1872441e-21)
(23.172897 1.6579013e-34 0)
(23.172897 1.1902739e-21 0)
(23.172897 -3.3615741e-37 -1.1827488e-21)
(23.172896 -2.3426868e-21 1.6246292e-34)
(23.172896 1.1636066e-21 1.1636066e-21)
(23.172896 0 0)
(23.172896 -3.286797e-34 -1.1836632e-21)
(23.172896 -1.686457e-37 1.686457e-37)
(23.172895 -1.1819932e-21 -3.2821598e-34)
(23.172895 1.1727125e-21 -1.626528e-34)
(23.172895 -3.2288076e-34 1.1627796e-21)
(23.172895 -1.6089999e-34 -1.1600748e-21)
(23.172894 -1.6625853e-37 1.6625853e-37)
(23.172894 -1.177743e-21 -3.2703579e-34)
(23.172894 1.1777156e-21 -1.1777156e-21)
(23.172894 3.620812e-52 1.1734482e-21)
(23.172893 -3.2306861e-34 3.2306861e-34)
(23.172893 -1.6414251e-37 1.6414251e-37)
(23.172893 -2.3146311e-21 -1.6068175e-34)
(23.172893 -1.6177391e-34 -1.1663757e-21)
(23.172893 1.1728189e-21 1.1728189e-21)
(23.172892 0 0)
(23.172892 0 -6.4406215e-34)
(23.172892 -1.147796e-21 -1.5919694e-34)
(23.172892 -4.7522877e-34 -4.7522877e-34)
(23.172891 1.152781e-21 -1.6382004e-37)
(23.172891 -1.1633095e-21 -1.1633095e-21)
(23.172891 1.6173101e-34 1.1648729e-21)
(23.172891 2.8219319e-51 2.8219319e-51)
(23.172891 -1.583065e-34 -1.583065e-34)
(23.17289 1.1233856e-21 3.1194183e-34)
(23.17289 1.1234257e-21 -1.5597648e-34)
(23.17289 1.5838011e-34 2.2838134e-21)
(23.17289 -1.1600625e-21 -1.1600625e-21)
(23.172889 0 -1.1643055e-21)
(23.172889 0 -1.6014837e-34)
(23.172889 1.1410167e-21 1.5841882e-34)
(23.172889 -1.1216344e-21 2.2432688e-21)
(23.172889 9.2373423e-34 -1.1096282e-21)
(23.172888 1.1233864e-21 -1.1233864e-21)
(23.172888 -1.1460165e-21 -1.3752195e-52)
(23.172888 0 0)
(23.172888 1.1529112e-21 7.6348402e-52)
(23.172887 1.1377255e-21 -1.1377255e-21)
(23.172887 -1.1159609e-21 1.1159609e-21)
(23.172887 -1.0935498e-21 -5.5062771e-52)
(23.172887 0 -1.5166872e-34)
(23.172887 1.1164688e-21 -1.5865975e-37)
(23.172886 1.1401588e-21 -1.1401588e-21)
(23.172886 -2.3081637e-21 2.3081637e-21)
(23.172886 -1.1493961e-21 3.1916442e-34)
(23.172886 1.1313665e-21 -1.1313665e-21)
(23.172885 1.1161743e-21 1.5481107e-34)
(23.172885 1.5126401e-34 -1.5126401e-34)
(23.172885 1.077542e-21 1.077542e-21)
(23.172885 3.0491916e-34 -1.0980951e-21)
(23.172885 -2.2452899e-21 5.195403e-52)
(23.172884 0 -4.7376481e-34)
(23.172884 0 3.1713065e-34)
(23.172884 0 -3.1590334e-34)
(23.172884 1.1301061e-21 -3.1380797e-34)
(23.172883 1.1212214e-21 4.222846e-52)
(23.172883 0 0)
(23.172883 -1.1029381e-21 1.1029381e-21)
(23.172883 -1.5163908e-34 0)
(23.172883 1.1009294e-21 0)
(23.172883 0 -1.1144284e-21)
(23.172882 0 -3.1220186e-34)
(23.172882 -1.1250407e-21 1.1250407e-21)
(23.172882 -1.5553812e-34 0)
(23.172882 1.5483584e-34 0)
(23.172881 -1.1148838e-21 -2.2297675e-21)
(23.172881 1.1139569e-21 -9.2733781e-34)
(23.172881 -4.635833e-34 2.2282633e-21)
(23.172881 -1.1115784e-21 -1.1115784e-21)
(23.172881 0 1.567334e-37)
(23.17288 -1.092202e-21 -1.5164138e-34)
(23.17288 -1.5125399e-34 -1.0894118e-21)
(23.17288 1.0999653e-21 0)
(23.17288 -1.1105733e-21 0)
(23.172879 1.1116626e-21 0)
(23.172879 1.1017165e-21 -1.1017165e-21)
(23.172879 -1.0835139e-21 -3.005623e-34)
(23.172879 0 1.0624953e-21)
(23.172879 1.0596697e-21 0)
(23.172879 1.080285e-21 0)
(23.172878 -1.1043847e-21 -1.1043847e-21)
(23.172878 -1.1144614e-21 1.5837448e-37)
(23.172878 0 1.10561e-21)
(23.172878 -1.0898607e-21 0)
(23.172877 1.0670364e-21 0)
(23.172877 1.0469739e-21 -1.0469739e-21)
(23.172877 -1.0513188e-21 -2.9163151e-34)
(23.172877 -2.1459999e-21 -2.9810322e-34)
(23.172877 6.0686648e-34 3.0343324e-34)
(23.172876 3.3117588e-21 1.1039196e-21)
(23.172876 2.6495731e-52 -1.1086459e-21)
(23.172876 -1.1031318e-21 3.0616098e-34)
(23.172876 -2.1713032e-21 -3.0130956e-34)
(23.172876 5.9277257e-34 2.9638628e-34)
(23.172875 2.0713602e-21 1.0356801e-21)
(23.172875 -1.0174071e-21 0)
(23.172875 1.0407191e-21 0)
(23.172875 -1.0711646e-21 -1.0711646e-21)
(23.172875 -1.0895699e-21 -2.2269161e-51)
(23.172875 2.1886966e-21 1.0943483e-21)
(23.172874 0 0)
(23.172874 0 0)
(23.172874 -2.1802281e-21 -1.0901141e-21)
(23.172874 -9.3147957e-52 -1.8629591e-51)
(23.172873 2.17087e-21 1.085435e-21)
(23.172873 0 0)
(23.172873 0 0)
(23.172873 -2.0983938e-21 -1.0491969e-21)
(23.172873 3.9064448e-51 7.8128895e-51)
(23.172873 2.1155932e-21 1.0577966e-21)
(23.172872 0 0)
(23.172872 0 0)
(23.172872 -2.1726337e-21 -1.0863169e-21)
(23.172872 -1.0756935e-21 1.5286525e-37)
(23.172872 2.1317038e-21 1.0658519e-21)
(23.172871 1.0508029e-21 -1.0508029e-21)
(23.172871 0 2.888556e-34)
(23.172871 -2.0959451e-21 -2.9115004e-34)
(23.172871 5.9148686e-34 2.9574343e-34)
(23.172871 2.1557318e-21 1.0778659e-21)
(23.17287 -1.0793349e-21 0)
(23.17287 0 0)
(23.17287 1.0651122e-21 0)
(23.17287 -1.0548465e-21 0)
(23.17287 1.4880543e-37 0)
(23.172869 1.0535776e-21 -1.0535776e-21)
(23.172869 -1.0659246e-21 2.9583456e-34)
(23.172869 1.071749e-21 1.071749e-21)
(23.172869 1.0670649e-21 0)
(23.172869 -1.0603337e-21 0)
(23.172869 -1.0508727e-21 0)
(23.172868 2.8997209e-34 0)
(23.172868 1.0504684e-21 0)
(23.172868 -1.0611301e-21 0)
(23.172868 -2.9624103e-34 0)
(23.172868 1.065832e-21 -1.065832e-21)
(23.172867 -1.0630945e-21 5.9009824e-34)
(23.172867 1.0603716e-21 1.0603716e-21)
(23.172867 1.0582501e-21 0)
(23.172867 -1.0588781e-21 0)
(23.172867 -1.0609407e-21 0)
(23.172866 2.9501132e-34 0)
(23.172866 1.0625767e-21 0)
(23.172866 -1.0619947e-21 0)
(23.172866 1.5085789e-37 0)
(23.172866 1.0617791e-21 -1.0617791e-21)
(23.172865 -1.062215e-21 2.9480502e-34)
(23.172865 1.0620456e-21 1.0620456e-21)
(23.172865 1.0610226e-21 0)
(23.172865 -1.0597828e-21 0)
(23.172865 -2.1176891e-21 -1.0588445e-21)
(23.172865 5.8797619e-34 2.9398809e-34)
(23.172864 2.114743e-21 1.0573715e-21)
(23.172864 -1.0560043e-21 0)
(23.172864 1.4982602e-37 0)
(23.172864 2.1056862e-21 0)
(23.172864 2.9876851e-37 -1.0511983e-21)
(23.172863 -1.0497124e-21 -2.9163342e-34)
(23.172863 0 1.050284e-21)
(23.172863 1.0509025e-21 0)
(23.172863 0 0)
(23.172863 -1.0467541e-21 0)
(23.172863 0 0)
(23.172862 0 0)
(23.172862 0 0)
(23.172862 -1.0408677e-21 0)
(23.172862 -1.8762953e-53 -1.0455038e-21)
(23.172862 1.0476941e-21 1.4888628e-37)
(23.172862 0 1.0472413e-21)
(23.172861 1.0458501e-21 0)
(23.172861 -2.899962e-34 0)
(23.172861 -1.0435296e-21 0)
(23.172861 0 0)
(23.172861 0 0)
(23.17286 0 0)
(23.17286 -1.0454377e-21 0)
(23.17286 2.9018148e-34 -1.0450208e-21)
(23.17286 1.0443223e-21 -1.4840713e-37)
(23.17286 0 1.043471e-21)
(23.17286 1.0424779e-21 0)
(23.172859 2.8906591e-34 0)
(23.172859 -1.0407035e-21 0)
(23.172859 0 -1.0398793e-21)
(23.172859 1.0393936e-21 5.7709016e-34)
(23.172859 -1.0394251e-21 1.0394251e-21)
(23.172858 5.7762558e-34 0)
(23.172858 1.0395295e-21 -1.0395295e-21)
(23.172858 -1.0393612e-21 -2.8875762e-34)
(23.172858 0 1.0391589e-21)
(23.172858 -1.0389559e-21 0)
(23.172858 -2.8843592e-34 0)
(23.172857 1.0384672e-21 -1.0384672e-21)
(23.172857 0 -1.0381658e-21)
(23.172857 1.0378304e-21 1.0378304e-21)
(23.172857 -1.0374259e-21 1.0374259e-21)
(23.172857 -5.7590317e-34 0)
(23.172857 1.0366023e-21 0)
(23.172856 -5.7537226e-34 0)
(23.172856 -1.4723515e-37 0)
(23.172856 2.8779841e-34 1.0359086e-21)
(23.172856 -1.4719381e-37 -1.4719381e-37)
(23.172856 -1.035694e-21 -2.0713879e-21)
(23.172855 0 -1.0356325e-21)
(23.172855 1.0355963e-21 2.0711926e-21)
(23.172855 -2.8741362e-34 2.071166e-21)
(23.172855 -2.8741602e-34 -1.0355916e-21)
(23.172855 5.5736664e-54 -1.035626e-21)
(23.172854 -2.875857e-34 0)
(23.172854 0 0)
(23.172854 -2.0712395e-21 0)
(23.172854 -2.8741795e-34 0)
(23.172854 1.0343309e-21 -1.0343309e-21)
(23.172854 -1.0332947e-21 -2.8707223e-34)
(23.172853 2.8642132e-34 1.0320076e-21)
(23.172853 1.0305116e-21 0)
(23.172853 1.0288917e-21 0)
(23.172853 2.852432e-34 0)
(23.172853 -2.8481631e-34 0)
(23.172853 1.0246331e-21 0)
(23.172852 -1.0230549e-21 0)
(23.172852 -1.0213934e-21 0)
(23.172852 0 0)
(23.172852 -1.0235796e-21 0)
(23.172852 2.8475088e-34 0)
(23.172852 1.0261621e-21 0)
(23.172851 0 0)
(23.172851 0 0)
(23.172851 0 0)
(23.172851 -2.0480748e-21 -1.0240374e-21)
(23.172851 1.1378304e-33 5.6891522e-34)
(23.172851 2.0502114e-21 1.0251057e-21)
(23.17285 0 0)
(23.17285 0 0)
(23.17285 0 1.0264518e-21)
(23.17285 0 -2.8514036e-34)
(23.17285 0 1.4598421e-37)
(23.17285 0 -1.0275881e-21)
(23.172849 0 -1.027885e-21)
(23.172849 -2.0559104e-21 -5.7073934e-34)
(23.172849 5.7100442e-34 2.8550221e-34)
(23.172849 2.0542255e-21 1.0271128e-21)
(23.172849 1.0263945e-21 0)
(23.172849 -1.0256879e-21 0)
(23.172848 -1.0252259e-21 0)
(23.172848 2.8471404e-34 0)
(23.172848 5.6846232e-34 0)
(23.172848 1.0250203e-21 -1.0250203e-21)
(23.172848 -1.0254895e-21 5.6937032e-34)
(23.172848 1.0257798e-21 1.0257798e-21)
(23.172847 1.0259658e-21 0)
(23.172847 -1.0260514e-21 0)
(23.172847 -1.0260332e-21 0)
(23.172847 5.6946588e-34 0)
(23.172847 1.0257468e-21 0)
(23.172847 1.025646e-21 0)
(23.172846 -2.845009e-34 0)
(23.172846 -1.0256581e-21 -1.0256581e-21)
(23.172846 -1.0257754e-21 5.6938331e-34)
(23.172846 1.0258021e-21 1.0258021e-21)
(23.172846 1.0257219e-21 0)
(23.172846 -1.0256486e-21 0)
(23.172845 1.0256023e-21 0)
(23.172845 0 0)
(23.172845 -1.0255899e-21 0)
(23.172845 -1.0258339e-21 0)
(23.172845 2.8463794e-34 0)
(23.172845 1.0263497e-21 -1.0263497e-21)
(23.172844 -1.026599e-21 8.5490655e-34)
(23.172844 1.0268687e-21 1.0268687e-21)
(23.172844 1.0271371e-21 0)
(23.172844 -1.0273905e-21 0)
(23.172844 1.02763e-21 0)
(23.172844 2.854153e-34 0)
(23.172843 -1.0280677e-21 0)
(23.172843 -1.0282656e-21 0)