/*--------------------------------*- C++ -*----------------------------------*\
  =========                 |
  \\      /  F ield         | OpenFOAM: The Open Source CFD Toolbox
   \\    /   O peration     | Website:  https://openfoam.org
    \\  /    A nd           | Version:  7
     \\/     M anipulation  |
\*---------------------------------------------------------------------------*/
FoamFile
{
    version     2.0;
    format      ascii;
    class       volScalarField;
    location    "0.00075";
    object      Uy;
}
// * * * * * * * * * * * * * * * * * * * * * * * * * * * * * * * * * * * * * //

dimensions      [0 1 -1 0 0 0 0];

internalField   nonuniform List<scalar> 
5000
(
-6.7552933e-29
-8.106352e-28
0
0
1.519941e-28
-1.1519819e-43
2.026588e-28
0
0
-1.013294e-28
-4.053176e-28
5.06647e-29
-1.519941e-28
-2.026588e-28
0
1.013294e-28
4.6836798e-55
4.053176e-28
0
-1.013294e-28
5.06647e-29
1.519941e-28
-4.053176e-28
-2.6454311e-42
-5.06647e-28
-2.0879672e-42
-5.573117e-28
-3.546529e-28
-6.079764e-28
5.2703172e-42
2.6567583e-42
-1.519941e-28
-1.6117141e-42
-2.026588e-28
8.783862e-43
3.5250646e-41
1.2297407e-41
6.079764e-28
-1.1146234e-27
-5.06647e-28
5.06647e-28
-1.0454236e-41
2.026588e-28
5.06647e-29
7.599705e-28
5.06647e-29
1.013294e-28
-1.3881382e-41
2.026588e-28
0
2.026588e-28
-7.7483833e-59
-1.4812643e-42
4.053176e-28
-1.0627033e-41
2.026588e-28
-3.546529e-28
-1.7495725e-42
-3.039882e-28
0
-5.06647e-28
-1.209581e-41
-2.6823374e-58
3.039882e-28
-3.546529e-28
-1.8982919e-55
2.9524107e-42
-3.546529e-28
-4.053176e-28
2.533235e-28
2.026588e-28
-4.559823e-28
-5.06647e-28
4.053176e-28
-1.519941e-28
3.039882e-28
0
2.533235e-28
-3.5999434e-44
-5.06647e-29
1.013294e-28
-1.4399774e-44
5.7599095e-44
5.06647e-28
1.519941e-28
-8.8198614e-42
1.0510499e-41
0
2.533235e-28
5.7815092e-41
1.2398205e-41
-1.013294e-28
2.026588e-28
-6.079764e-28
7.0126898e-42
-2.026588e-28
0
0
-5.06647e-28
-3.5135448e-42
7.093058e-28
-1.013294e-28
4.053176e-28
0
-5.573117e-28
-6.586411e-28
3.546529e-28
5.06647e-29
0
0
-2.7796753e-43
-1.519941e-28
0
-2.026588e-28
-1.7711722e-42
8.0182941e-43
-8.9804894e-43
-5.7599095e-44
1.594055e-41
4.3909498e-56
4.053176e-28
1.9143065e-58
-2.026588e-28
0
-5.06647e-29
-1.519941e-28
-6.079764e-28
1.013294e-27
-1.013294e-28
6.079764e-28
3.3990341e-43
2.533235e-28
-1.013294e-28
-1.519941e-28
0
5.06647e-29
-5.1312296e-42
2.026588e-28
1.7567724e-42
-6.3891281e-42
3.546529e-28
2.533235e-28
0
-1.013294e-28
5.06647e-28
-4.053176e-28
-3.039882e-28
2.3039638e-43
-1.013294e-28
1.013294e-28
5.06647e-29
1.0583834e-41
1.013294e-28
5.06647e-29
-2.2066724e-42
-5.06647e-29
-1.013294e-28
0
0
-2.533235e-28
-1.013294e-28
5.06647e-29
2.533235e-28
-4.053176e-28
-2.1081269e-41
3.039882e-28
1.519941e-28
8.106352e-28
0
-3.039882e-28
-3.546529e-28
0
3.039882e-28
1.519941e-28
0
-5.06647e-29
1.0540634e-41
-2.026588e-28
1.519941e-28
-2.026588e-28
6.079764e-28
3.1492305e-41
-6.9694905e-42
3.9268614e-56
7.5319661e-42
2.533235e-28
5.6216717e-41
-3.8332198e-41
4.5301688e-41
-4.053176e-28
0
0
2.533235e-28
1.519941e-28
0
0
-4.1910003e-41
-2.9272999e-56
1.519941e-28
0
-4.053176e-28
3.039882e-28
1.4039779e-41
-3.039882e-28
1.519941e-28
-2.1258502e-54
-1.4399774e-44
-3.039882e-28
-2.026588e-28
4.3199321e-44
-2.8050759e-41
3.5063449e-42
1.013294e-28
0
-7.0600823e-42
-1.0519035e-41
-9.8429653e-41
-5.06647e-28
0
4.559823e-28
1.519941e-28
0
0
0
2.533235e-28
1.0519035e-41
-2.026588e-28
0
0
5.06647e-29
-5.06647e-29
-1.013294e-28
-5.06647e-29
0
-4.637857e-42
-1.519941e-28
1.519941e-28
5.06647e-28
0
-4.559823e-28
-2.8137158e-41
-2.4594814e-41
5.06647e-28
-2.533235e-28
1.013294e-28
0
5.573117e-28
4.2655521e-54
-2.026588e-28
-7.0270896e-42
1.013294e-28
-5.06647e-29
-1.4054179e-41
-1.5830391e-40
-1.0519035e-41
3.039882e-28
-2.026588e-28
-1.013294e-28
0
-1.013294e-28
-7.5865267e-42
0
6.3570549e-42
-1.519941e-28
3.039882e-28
6.3570549e-42
2.026588e-28
4.559823e-28
8.4325075e-41
1.519941e-28
-3.039882e-28
2.8108358e-41
-5.06647e-29
5.06647e-29
2.1124468e-41
-3.5279446e-42
-2.8799547e-44
-6.99829e-42
-4.0626024e-43
0
0
5.573117e-28
4.559823e-28
0
0
0
0
1.013294e-28
2.0951671e-41
-8.106352e-28
6.4798982e-44
1.519941e-28
5.06647e-29
-1.4068579e-41
-2.1059669e-41
-7.1998869e-45
-5.06647e-29
1.013294e-28
3.039882e-28
-4.053176e-28
7.599705e-28
-3.039882e-28
8.106352e-28
0
-1.013294e-28
5.06647e-28
-5.573117e-28
1.2959796e-43
-1.9439695e-43
7.1998869e-44
5.06647e-29
2.533235e-28
-4.053176e-28
-8.106352e-28
1.013294e-28
4.8788331e-57
1.013294e-28
7.0198897e-41
-2.1382118e-43
0
0
-1.013294e-28
-5.6274316e-41
-1.4084776e-41
0
5.06647e-29
1.519941e-28
-2.026588e-28
-2.5618305e-59
2.8137158e-41
-5.0399208e-44
-4.559823e-28
2.533235e-28
1.013294e-28
0
1.013294e-28
7.0342895e-42
4.2543188e-43
-2.026588e-28
8.4325075e-41
-1.519941e-28
-7.0342895e-41
9.119646e-28
-1.2159528e-27
-2.0963482e-41
-6.079764e-28
-9.3598529e-44
-5.573117e-28
0
0
4.053176e-28
-7.7297985e-41
-3.039882e-28
-5.7599095e-44
-1.8239292e-27
5.06647e-28
3.039882e-28
-5.06647e-28
3.039882e-28
-3.039882e-28
-3.039882e-28
1.013294e-28
1.3975655e-41
-1.519941e-28
3.039882e-28
9.7576662e-57
-5.06647e-29
-2.026588e-28
3.039882e-28
-3.546529e-28
-4.2119338e-41
2.8799547e-44
2.533235e-28
-9.119646e-28
4.053176e-28
2.8137158e-41
9.8379254e-41
5.573117e-28
1.013294e-28
9.119646e-28
-2.8108358e-41
1.9675851e-40
-4.0313476e-54
-1.013294e-28
-4.053176e-28
-4.2162538e-41
-1.2159528e-27
0
0
4.053176e-28
-2.1081269e-41
2.026588e-28
4.053176e-28
-5.573117e-28
-1.3679469e-27
1.013294e-28
1.013294e-28
-2.8708704e-59
-3.039882e-28
0
1.2159528e-27
9.119646e-28
-7.122413e-43
9.119646e-28
4.053176e-28
-4.053176e-28
-4.053176e-28
5.06647e-28
-2.026588e-28
0
6.079764e-28
-5.06647e-29
-2.026588e-28
3.546529e-28
3.546529e-28
-2.1599661e-44
3.5171447e-41
1.519941e-28
1.7105694e-43
-2.026588e-28
3.039882e-28
-7.0270896e-42
7.1998869e-45
7.0270896e-42
2.026588e-28
-3.546529e-28
1.8992582e-40
4.9240026e-41
7.0306895e-41
5.2350058e-44
2.533235e-28
-4.2205737e-41
-8.4281876e-41
-2.8799547e-44
-3.039882e-28
-2.533235e-28
2.533235e-28
7.093058e-28
-7.0342895e-41
-4.053176e-28
5.06647e-29
2.026588e-28
2.765196e-41
2.026588e-28
-3.546529e-28
-2.2498207e-40
2.533235e-28
0
0
1.519941e-28
0
5.06647e-28
-2.026588e-28
3.5999434e-44
-4.2184137e-41
0
1.519941e-28
-2.026588e-28
-5.06647e-28
2.026588e-28
-1.013294e-28
-2.026588e-28
0
0
-1.519941e-28
2.8151558e-41
-2.026588e-28
0
0
2.533235e-28
-1.2666041e-40
-3.546529e-28
0
0
0
0
0
0
0
0
2.026588e-28
-5.6245516e-41
1.519941e-28
-5.06647e-29
1.013294e-28
-5.06647e-29
2.8165957e-41
1.013294e-28
-4.2205737e-41
-4.053176e-28
0
0
7.0888398e-42
-1.4068579e-41
0
0
0
0
0
0
0
0
-1.013294e-28
1.2653081e-40
6.079764e-28
-3.546529e-28
-7.1998869e-45
5.06647e-29
-7.7599352e-54
-1.013294e-28
5.06647e-29
3.4151832e-56
1.3679469e-27
0
-2.026588e-28
0
0
-2.026588e-28
1.4054179e-40
1.0639587e-27
2.026588e-28
3.546529e-28
-5.06647e-28
4.053176e-28
-2.533235e-28
-7.0270896e-41
-1.519941e-28
4.559823e-28
0
-5.06647e-28
3.039882e-28
2.026588e-28
-2.533235e-28
-5.06647e-28
-3.039882e-28
5.06647e-29
-4.053176e-28
-2.533235e-28
2.026588e-28
0
5.06647e-29
-3.039882e-28
-4.559823e-28
9.119646e-28
2.8799547e-44
-3.039882e-28
-5.06647e-29
7.0342895e-42
4.559823e-28
-4.3199321e-44
1.013294e-28
2.026588e-28
0
-8.4411474e-41
-2.1599661e-44
-1.013294e-28
3.546529e-28
-9.8480053e-41
-2.1081269e-41
-3.905738e-56
3.039882e-28
-5.573117e-28
-2.9272999e-56
-8.4411474e-41
-1.4399774e-44
5.06647e-28
3.5135448e-41
-2.026588e-28
0
0
2.026588e-28
6.3243806e-41
-1.013294e-28
5.06647e-29
-2.1102868e-41
-3.9030665e-56
1.4068579e-41
1.013294e-28
1.013294e-28
-2.8108358e-41
4.053176e-28
0
0
-1.013294e-28
4.559823e-28
-2.9523856e-40
-2.026588e-28
-1.013294e-28
0
1.519941e-28
4.559823e-28
-5.06647e-28
1.519941e-28
0
-1.519941e-28
-2.533235e-28
7.093058e-28
3.039882e-28
1.013294e-28
3.546529e-28
7.0270896e-41
4.559823e-28
7.0342895e-41
1.1642202e-42
0
0
0
3.546529e-28
3.546529e-28
0
5.06647e-29
2.1059669e-41
-5.06647e-28
0
0
-4.559823e-28
-7.7297985e-41
2.8079559e-41
5.06647e-29
-5.06647e-29
-4.5374532e-55
2.026588e-28
0
5.06647e-28
7.7377184e-41
-5.06647e-28
1.013294e-28
2.533235e-28
1.013294e-28
1.519941e-28
0
2.026588e-28
2.026588e-28
-6.586411e-28
-7.093058e-28
0
-2.7236114e-41
-5.06647e-29
-2.533235e-28
2.533235e-28
4.053176e-28
-5.6274316e-41
-6.079764e-28
4.8788331e-57
2.026588e-28
-8.106352e-28
2.8108358e-40
-1.013294e-28
4.559823e-28
-3.039882e-28
-2.026588e-28
-3.039882e-28
2.026588e-28
0
0
-8.106352e-28
-1.1709199e-55
2.026588e-28
0
0
3.039882e-28
-1.9515332e-55
-9.119646e-28
0
0
-4.053176e-28
-2.533235e-28
4.053176e-28
1.519941e-28
0
2.026588e-28
-2.2509726e-40
-1.4186116e-27
5.573117e-28
0
-5.06647e-29
-1.013294e-28
3.5999434e-44
2.533235e-28
-2.026588e-28
3.039882e-28
5.06647e-29
3.039882e-28
5.06647e-28
-1.4068579e-40
-3.546529e-28
6.079764e-28
1.2661721e-40
2.026588e-28
-3.039882e-28
5.06647e-29
2.533235e-28
-3.546529e-28
5.06647e-29
-8.4411474e-41
-3.039882e-28
5.9980453e-43
1.4399774e-44
-2.026588e-28
4.559823e-28
-3.546529e-28
-1.519941e-28
2.533235e-28
7.093058e-28
2.4157039e-53
1.013294e-28
1.519941e-28
4.3199321e-44
8.106352e-28
-4.3199321e-44
5.06647e-28
0
-4.053176e-28
0
-1.519941e-28
0
0
0
-2.026588e-28
1.4636499e-56
4.559823e-28
0
2.026588e-28
-1.4068579e-41
1.519941e-28
0
0
0
4.559823e-28
-1.2661721e-40
-1.013294e-28
0
-2.533235e-28
2.017679e-55
5.06647e-29
0
3.039882e-28
4.3017452e-41
-2.8151558e-41
5.06647e-29
-2.026588e-28
0
-2.533235e-28
-5.6274316e-41
3.039882e-28
0
-4.053176e-28
3.546529e-28
2.5323442e-40
-2.533235e-28
-2.8129958e-41
-2.1599661e-44
-3.9569705e-54
1.4399774e-44
1.4061183e-41
0
2.026588e-28
4.2184137e-41
1.6873655e-40
-1.4636499e-56
1.6882295e-40
0
1.2159528e-27
1.5475437e-40
-7.599705e-28
5.06647e-28
-7.0306895e-41
-6.586411e-28
-1.0639587e-27
-2.8137158e-40
3.6578305e-40
-1.7225998e-27
1.6719351e-27
1.519941e-27
0
2.2799115e-27
-8.4411474e-40
-3.6478584e-27
0
0
0
1.0842246e-26
-6.6403693e-39
-1.2868834e-26
0
0
0
0
0
0
0
2.9993502e-26
-9.2337109e-39
-3.6073266e-26
-1.9607239e-26
2.2089809e-26
2.4775038e-26
-7.5305417e-39
-1.6387173e-38
-3.2526737e-26
3.6478584e-26
-4.0987742e-26
-4.4838259e-26
4.9195423e-26
5.4717876e-26
-3.3606696e-38
-6.6674745e-26
-7.3767803e-26
2.2641283e-38
9.033516e-26
1.0031611e-25
-1.1070237e-25
-1.2205126e-25
1.3512275e-25
-1.4915688e-25
0
1.8077165e-25
1.9966958e-25
-6.1262167e-38
-2.4369721e-25
2.6897889e-25
-2.9654049e-25
-3.2668598e-25
3.6007402e-25
-3.9640061e-25
-1.2131336e-37
4.8197329e-25
5.3121938e-25
8.3115494e-41
-1.2872887e-24
-3.9339746e-37
7.8018571e-25
8.58564e-25
0
-1.0386263e-24
0
0
0
-1.5180157e-24
-1.6680339e-24
1.8318329e-24
2.0119459e-24
0
-2.4262818e-24
7.4003407e-37
2.9236065e-24
0
0
-3.8615621e-24
2.350697e-36
4.6436731e-24
0
0
-6.1139626e-24
3.7179974e-36
7.3374138e-24
0
-8.7988371e-24
2.6748167e-36
-2.9260746e-36
3.2034998e-36
1.2621539e-23
0
1.5098131e-23
-9.1608642e-36
-1.8045803e-23
0
-2.155175e-23
2.3545609e-23
2.5717959e-23
-5.6169825e-23
-8.5233004e-36
6.6942964e-23
-1.0143572e-35
-3.9859034e-23
0
0
-5.171731e-23
1.5648585e-35
6.1458409e-23
0
-7.2974698e-23
7.9493623e-23
8.6576346e-23
-9.4270439e-23
0
1.1169975e-22
-1.2154963e-22
-7.3403998e-35
7.984352e-35
-1.5642746e-22
1.416337e-34
-1.8488157e-22
2.0093042e-22
-6.0593562e-35
1.31718e-34
5.1519961e-22
-7.7594009e-35
-3.0368117e-22
0
0
0
8.4192724e-22
4.5652902e-22
-9.899852e-22
-5.3658183e-22
0
0
-6.8262926e-22
2.8359242e-51
8.0059629e-22
0
1.8762685e-21
1.0151933e-21
-2.196686e-21
-1.1880435e-21
0
2.7782171e-21
4.2677151e-37
-4.8683325e-21
4.8638164e-34
3.7881734e-21
-2.0456291e-21
-1.2555622e-36
2.3844772e-21
-7.1498859e-34
-1.5406535e-33
-2.9958588e-21
0
-3.4843697e-21
2.085663e-33
8.0978543e-21
-4.3631712e-21
7.8264875e-33
5.0633168e-21
-1.0905242e-20
8.3425383e-37
6.3190667e-21
0
0
0
8.4639301e-21
-9.1003067e-21
-1.9564618e-20
1.0513032e-20
3.1366094e-33
3.3659246e-33
1.3031484e-20
0
-1.5020166e-20
2.290794e-36
3.4592912e-20
-1.8554469e-20
-1.1040021e-32
2.1336884e-20
2.2872927e-20
-1.3620999e-32
-5.2532926e-20
0
-3.0135485e-20
-3.2267468e-20
0
3.6968713e-20
3.9556401e-20
-4.2315306e-20
0
4.838972e-20
0
0
-5.9070367e-20
5.2547802e-32
6.7390858e-20
0
0
-8.1973822e-20
-8.7463436e-20
9.3298415e-20
9.9498884e-20
-1.0608603e-19
-1.1308216e-19
2.4102145e-19
1.2839641e-19
-3.7996397e-32
-1.4564422e-19
8.6027273e-32
9.1568044e-32
-1.7563718e-19
1.8685879e-19
-1.9874904e-19
2.1134441e-19
1.915764e-34
-2.3880545e-19
5.0750654e-19
2.6957066e-19
2.8630372e-19
-6.0800138e-19
-6.4542412e-19
3.4249063e-19
-3.6339161e-19
3.854727e-19
-2.2702802e-31
-8.6683806e-19
4.5941297e-19
-1.3511787e-31
1.4329667e-31
5.4631031e-19
0
0
-6.4818253e-19
-6.8585415e-19
0
7.6731255e-19
8.1129357e-19
0
9.0627408e-19
-2.6587638e-31
-1.0113465e-18
1.0679584e-18
-3.127504e-31
-1.1899547e-18
0
-1.3245302e-18
-7.7557535e-31
1.4728117e-18
-1.5524663e-18
4.5358907e-31
1.7235973e-18
1.8154074e-18
5.3054507e-31
-2.0123931e-18
0
2.2284343e-18
-2.3440859e-18
7.006223e-34
-1.4393127e-30
-2.7240385e-18
2.8624119e-18
0
6.3162219e-18
-7.3623394e-30
-3.4806856e-18
-2.0275139e-30
-7.6643098e-18
8.0387698e-18
8.4292874e-18
-8.836427e-18
-9.2607665e-18
-4.8514486e-18
0
5.3214819e-18
1.1142148e-17
-8.2860803e-34
6.1010199e-18
-6.382037e-18
-6.6742031e-18
6.9778656e-18
-1.4586757e-17
1.5242201e-17
1.3259806e-29
-1.6629284e-17
1.7362418e-17
-5.0298105e-30
9.4558454e-18
-9.8646944e-18
-1.0288425e-17
1.0727438e-17
3.1018796e-30
2.330588e-17
-2.4280503e-17
-2.5288982e-17
2.6332156e-17
3.803779e-30
1.4262987e-17
-8.2410794e-30
-1.5434385e-17
-4.4542316e-30
1.241199e-46
-1.7338654e-17
-3.6028757e-17
1.8711305e-17
-3.1598516e-46
2.0170475e-17
3.4871071e-29
-2.1719578e-17
4.505782e-17
-1.2967677e-29
-4.8438434e-17
4.3030157e-47
2.6007775e-17
0
0
2.8881799e-17
-2.9892332e-17
-6.1859494e-17
0
0
0
3.535528e-17
3.6532307e-17
0
-3.8973321e-17
4.0237886e-17
6.9172363e-29
-8.5712955e-17
0
0
0
4.8458126e-17
4.9935668e-17
-5.1444408e-17
5.2984488e-17
3.029825e-29
-1.123183e-16
0
0
1.223174e-16
-1.7874065e-32
-6.4650663e-17
6.6444348e-17
-6.8269796e-17
7.0126953e-17
-3.9994677e-29
-1.4787213e-16
0
0
7.9884924e-17
8.1929959e-17
0
0
-8.8248391e-17
-9.0414798e-17
0
9.4836254e-17
9.709064e-17
-9.9373653e-17
1.0168491e-16
1.04024e-16
-1.0639049e-16
-1.0878395e-16
6.1758211e-29
1.1364982e-16
-1.1612124e-16
-3.2920893e-29
1.2113839e-16
0
1.2625087e-16
-7.1535063e-29
-1.3145391e-16
1.3408782e-16
-7.5921889e-29
-1.3941716e-16
0
1.4482396e-16
-4.0972989e-29
-2.1359277e-32
1.5306694e-16
-1.5584705e-16
-1.5864212e-16
0
3.2854805e-16
-1.8561167e-28
-1.699563e-16
-2.4558391e-32
-3.5136495e-16
3.5711992e-16
3.6289186e-16
-3.686791e-16
-1.8723997e-16
0
3.8611558e-16
-3.2628482e-28
-3.977851e-16
0
4.0947471e-16
1.1532686e-28
-2.105853e-16
-5.9287002e-29
-4.3285893e-16
4.3869596e-16
5.5514618e-28
-4.5034716e-16
4.5615791e-16
-1.2817765e-28
-4.6774123e-16
-2.3675521e-16
4.7926243e-16
2.4249778e-16
-4.9070821e-16
4.9639871e-16
6.270044e-28
-5.0770684e-16
5.1332127e-16
-7.20451e-29
2.6223151e-16
-2.9403255e-28
-8.0321743e-16
1.5012993e-28
5.4635497e-16
-2.7586881e-16
-5.5708123e-16
2.8119217e-16
-1.5758354e-28
2.8643175e-16
3.2101861e-28
-2.9158201e-16
5.8824394e-16
-2.4702677e-28
3.3212035e-28
-1.673215e-28
-3.0403219e-16
0
-3.0882876e-16
-3.111853e-16
0
0
0
0
0
3.2470409e-16
3.2684872e-16
0
-3.3104033e-16
3.330863e-16
5.5820573e-28
-6.741524e-16
0
0
0
3.446349e-16
3.4643427e-16
-3.4819667e-16
-3.4992169e-16
7.0321787e-16
5.8855631e-28
-7.0973702e-16
0
7.159447e-16
5.9879541e-28
-3.6091751e-16
3.6232971e-16
-3.6370119e-16
3.6503163e-16
2.0333581e-28
-7.3513607e-16
0
0
3.7105676e-16
3.7213421e-16
0
3.7415915e-16
1.0661156e-31
3.7600895e-16
-3.7686748e-16
-1.1330442e-15
0
-7.5834882e-16
-7.5970597e-16
0
1.1432191e-15
7.6322808e-16
-7.6421743e-16
3.8255684e-16
3.8295818e-16
-1.1499376e-15
-3.8361967e-16
-5.4552543e-32
-3.840915e-16
3.8425578e-16
3.8437205e-16
3.8444013e-16
6.5994304e-48
3.844289e-16
3.8434731e-16
-3.8421608e-16
0
-7.6761176e-16
-7.6705329e-16
0
3.8281915e-16
7.6478124e-16
2.1193595e-28
3.813834e-16
7.6160894e-16
-7.6035038e-16
-7.5899094e-16
-3.7876522e-16
-3.7798436e-16
0
3.7627056e-16
1.1260125e-15
-3.7435363e-16
-6.144845e-45
1.1166999e-15
-7.4219365e-16
-3.6990948e-16
-3.6867129e-16
-7.3476456e-16
7.3208498e-16
3.6465199e-16
-3.6321084e-16
-3.6171914e-16
-3.6017698e-16
1.0757535e-15
3.5694181e-16
-1.0657472e-15
-3.5350648e-16
3.517142e-16
6.9974488e-16
-3.4798144e-16
3.4604144e-16
-5.728284e-28
5.6963104e-28
1.0197907e-15
-3.3779715e-16
-3.3561663e-16
-6.6677811e-16
-3.3111483e-16
6.5758878e-16
9.2776472e-32
3.2401671e-16
-3.2156046e-16
-9.5717994e-16
9.4954747e-16
3.1392859e-16
-9.3389666e-16
0
9.1774415e-16
3.0316163e-16
-9.0110655e-16
2.9753714e-16
5.8933459e-16
1.6194905e-28
-3.205892e-28
-2.8583737e-16
0
-5.5955213e-16
-5.5339171e-16
2.7358394e-16
2.7044137e-16
5.3453842e-16
-2.6406857e-16
-2.6084057e-16
5.1517276e-16
0
-5.0200842e-16
-4.9535739e-16
2.4433192e-16
4.8193035e-16
-1.3187483e-28
-2.3417711e-16
4.6151702e-16
-2.2732539e-16
7.4561967e-28
4.4084252e-16
-2.1695315e-16
0
-4.1998438e-16
0
4.5079774e-28
1.9951148e-16
3.920271e-16
-5.7754803e-16
5.3722832e-32
3.7105664e-16
0
-3.571218e-16
-1.750887e-16
3.4325251e-16
-1.8672384e-28
-1.6473684e-16
3.226259e-16
-1.5790499e-16
2.5725787e-28
3.0228572e-16
-1.4779168e-16
1.4446238e-16
-2.8231278e-16
-4.1362541e-16
0
3.9417708e-16
2.5638707e-16
-3.7507449e-16
-2.4377502e-16
1.1878281e-16
2.3142385e-16
-1.1267601e-16
-1.0967618e-16
2.1342702e-16
-1.0378903e-16
-2.0180744e-16
9.8058525e-17
-1.3536455e-32
1.8498398e-16
1.7954457e-16
-2.6128792e-16
8.4463731e-17
1.3636582e-28
-2.3800198e-16
0
2.231627e-16
1.4396853e-16
-6.9628103e-17
-6.7319388e-17
-6.5058397e-17
0
-6.0680403e-17
3.2507291e-29
1.1299046e-16
-3.0230066e-29
-5.2503176e-17
0
-4.8703735e-17
9.3751756e-17
1.3528693e-16
-8.6725513e-17
-1.2503073e-16
-4.0037742e-17
3.8444855e-17
7.3795642e-17
-3.5396163e-17
3.393938e-17
3.2526926e-17
-6.2316471e-17
5.9665413e-17
2.8549702e-17
-8.1925725e-17
-5.2217274e-17
2.494919e-17
7.1488516e-17
-5.050934e-29
4.8194888e-29
2.0701512e-17
2.190694e-29
1.8800935e-17
-1.7903666e-17
-1.7040652e-17
-1.6211061e-17
1.5414063e-17
1.4648816e-17
-4.1743451e-17
1.321022e-17
2.5070378e-17
-3.566566e-17
-3.2029763e-33
1.0677119e-17
-2.0221332e-17
-9.5692981e-18
0
8.5585745e-18
8.0876338e-18
1.5277173e-17
-7.210671e-18
2.2657516e-29
1.9245639e-17
-6.0461936e-18
-5.6953545e-18
-5.3620016e-18
5.0454366e-18
4.7449943e-18
-1.3380055e-17
4.189871e-18
7.867857e-18
6.1483751e-30
3.4622521e-18
-6.4907119e-18
-9.1210261e-18
-1.5797145e-30
1.478624e-30
3.5403405e-34
2.3285889e-18
4.3504951e-18
2.0308071e-18
-5.6844933e-18
1.961525e-30
3.2931968e-18
0
0
-1.3276943e-18
6.8506809e-31
-6.3624032e-31
-1.0643627e-18
1.9748451e-18
9.1541552e-19
9.4123258e-31
-7.850935e-19
-2.1788106e-18
-6.7135083e-19
0
0
0
1.4592125e-18
8.9573561e-19
-1.2361709e-18
4.206443e-31
6.9596327e-19
0
0
-5.3722294e-19
5.4645057e-31
2.5017771e-31
-4.1279767e-19
1.8898573e-19
3.4614718e-19
3.1717534e-19
-1.4544956e-19
-4.0073395e-19
-1.2290511e-19
0
0
0
2.7231943e-19
1.699957e-19
-2.4371282e-19
1.7986951e-31
8.1714414e-20
-1.1287229e-35
7.9739686e-20
-1.725755e-19
9.9948804e-32
8.6709328e-20
-1.7635332e-19
0
5.3145677e-32
1.7632704e-19
1.73072e-19
-2.7416547e-19
-1.7994887e-19
8.0359395e-20
4.121709e-32
-7.3234976e-20
2.0189448e-19
1.0960072e-19
-4.4385114e-20
-4.3706208e-20
4.7041496e-20
3.9238843e-20
-2.4718807e-20
-2.4768453e-20
1.7588628e-32
-1.9509741e-32
-5.2150264e-20
0
-7.9430731e-20
1.2846068e-19
1.6517382e-19
-1.1791455e-19
-1.3728011e-19
-7.5644219e-20
8.1771087e-32
1.5202224e-19
-8.8656534e-20
9.1385625e-20
7.3491854e-20
-1.2536902e-19
1.4180668e-19
7.8713662e-20
-7.5452385e-20
-1.3688886e-19
-6.8810166e-20
1.4499709e-19
-3.9546227e-32
6.6360363e-20
6.5623434e-20
-2.0551272e-19
6.710965e-20
6.0308211e-20
-1.7035188e-19
8.4840384e-36
1.8234744e-19
5.4294169e-20
-1.3805118e-19
4.5567137e-20
-2.7302995e-47
7.9784942e-32
7.9133166e-20
-7.8111854e-20
-9.3338329e-20
4.6394955e-20
-4.1092044e-32
-7.512581e-20
4.7902411e-20
1.4429842e-19
3.9369069e-20
-4.2511341e-20
0
-5.0972836e-20
-7.181382e-20
4.8237544e-36
1.4588985e-19
5.4110187e-20
-7.8445069e-20
4.0674142e-36
6.735408e-20
-7.9829216e-20
6.1233286e-32
6.0043266e-20
-8.7900377e-20
-6.3365946e-20
0
0
3.403679e-20
1.1114569e-19
3.4467904e-20
-1.0131518e-19
4.2406412e-32
8.0780776e-20
-7.370082e-20
-7.1166597e-20
4.2187737e-20
1.0054184e-19
-5.2513587e-20
-5.0672336e-20
1.6174953e-19
5.618466e-20
8.8401775e-32
-2.3558039e-32
-3.3921558e-20
3.4420864e-20
-7.7417372e-20
-1.0477358e-19
0
3.4760705e-20
2.3725881e-20
-4.8660799e-20
5.823892e-36
2.5494865e-20
-6.5718651e-20
3.6990364e-20
3.1782237e-20
2.8362167e-32
-3.0204869e-20
-7.5938638e-20
3.4176405e-20
4.8366036e-20
4.1136147e-20
-2.4732644e-32
-2.2005308e-20
1.8367209e-20
-3.3656832e-20
-5.7594641e-20
0
6.005834e-20
4.0048205e-20
-6.5335419e-20
2.694641e-32
2.609845e-20
-2.6080168e-20
-2.5421967e-20
1.6309429e-32
7.263122e-20
-2.1005762e-32
-6.3682665e-20
3.1379241e-32
3.5336716e-32
6.7650237e-20
8.2300124e-20
-4.1936768e-20
2.2343904e-32
6.7872033e-32
-1.7948984e-20
-1.3913129e-20
-2.2013703e-20
2.9388817e-20
1.0341758e-20
-2.486319e-20
2.7658774e-20
7.6279917e-36
-3.9486589e-20
-1.4874797e-20
1.7434754e-20
5.5241107e-20
-5.8125972e-32
-3.3109215e-20
-1.6587861e-20
3.3097152e-20
4.7168547e-20
-4.2436386e-20
-1.2573673e-20
-1.2457789e-32
-9.4036693e-21
1.3723799e-20
-2.5278687e-33
3.1757475e-21
-1.9729496e-21
2.6350185e-33
-5.6490535e-22
3.2308243e-21
4.0369527e-21
0
0
0
-2.1594801e-21
-5.9833145e-21
-1.7682385e-21
-1.7496652e-33
-1.6556658e-21
6.0398395e-21
1.9339755e-21
-1.0659391e-21
-4.1787016e-22
8.3679997e-24
-2.7653051e-21
3.0690059e-21
-3.7883926e-21
1.4105123e-32
1.1106352e-20
-2.1555826e-20
-1.5482633e-20
0
1.5092653e-20
1.0303349e-32
-1.0532645e-20
3.0444745e-20
8.9516734e-21
-9.1125401e-21
0
0
-9.4948771e-21
-1.580841e-20
1.8236003e-32
1.838279e-20
9.7480334e-21
-9.0717288e-21
7.2752985e-21
-5.4365228e-21
-7.5586952e-48
4.1829337e-33
-4.3648509e-21
0
0
-4.7041108e-21
-7.4780719e-21
-5.5408162e-21
6.384134e-33
1.7906778e-20
-7.7476412e-33
-1.6074832e-20
0
1.7744147e-20
7.8298871e-21
-1.6692681e-20
8.6420675e-21
8.5154067e-21
-2.6269674e-20
9.4466418e-21
-3.3668694e-32
-1.9452987e-20
2.2628456e-20
1.2089037e-20
0
0
0
-2.2638516e-20
-1.2054766e-20
1.5948354e-20
1.2556921e-20
0
-1.5124486e-20
7.4874843e-33
5.5351532e-21
-1.0761539e-20
6.4436138e-21
-7.4862227e-21
-7.8635984e-21
2.2636684e-20
-1.5103021e-20
-1.7070498e-20
9.5818312e-21
-8.7437545e-21
1.6364067e-20
2.699007e-20
0
-3.4582268e-20
-2.4907156e-20
1.3193491e-20
1.2951969e-20
-1.2246046e-32
1.0724922e-20
-3.6616641e-32
-1.084275e-20
-6.591712e-33
1.8756589e-51
1.2770518e-20
0
1.1992272e-20
-2.3062279e-20
-3.3398418e-20
3.2436198e-20
3.1437749e-20
0
-1.6179097e-20
-1.5111089e-20
1.5934885e-20
-8.0339199e-21
-7.6441324e-21
2.0075104e-20
-1.1090147e-20
-9.7487158e-21
4.807858e-21
9.9732204e-21
5.1117423e-21
-1.5259481e-20
-4.7437589e-21
-7.1832383e-33
8.4311115e-21
2.5795362e-36
-1.4878827e-20
1.0336986e-20
1.5491012e-20
5.1978347e-21
-1.687199e-20
-1.2606481e-20
2.0684249e-20
-1.5847141e-32
-1.4341544e-20
-7.600561e-21
4.6513353e-33
1.829922e-20
-1.0679613e-32
9.7303808e-21
1.0081624e-20
-3.218735e-20
-1.1421739e-20
-1.3091252e-32
2.256214e-20
-3.789687e-32
-3.716625e-20
2.5985215e-20
-1.4701235e-32
-1.3633332e-32
-2.5591246e-32
-1.2212055e-20
3.9189419e-20
-1.3627821e-20
-2.3053252e-32
-4.5318794e-32
-3.6476593e-20
1.1109633e-20
2.2814294e-20
-1.3288135e-32
1.2226254e-20
1.2207038e-20
-2.3738169e-20
-2.1080888e-20
1.107175e-32
3.1220718e-20
-1.1679048e-32
-1.0213872e-20
1.9221416e-20
-8.8509281e-21
-8.4634153e-21
4.716292e-33
-4.641932e-33
7.9784722e-21
-1.5016878e-20
7.1502185e-21
-2.2596228e-32
-2.0980589e-32
1.8028149e-20
-1.1795412e-20
1.6333229e-36
1.0842413e-20
-5.0331157e-21
-1.4586834e-20
-4.8265196e-21
1.4133516e-20
-4.9909008e-33
-4.3192815e-21
8.6788251e-21
-8.960698e-21
-2.2459008e-32
4.2550447e-21
-3.9833159e-21
3.9711098e-21
-8.5008645e-21
4.6307485e-21
1.4771705e-20
0
0
-9.7035897e-21
-1.3723665e-36
1.01432e-20
-5.54554e-21
-1.7810653e-20
-6.1495578e-21
1.8579573e-20
1.7537404e-36
6.9791208e-33
1.3223774e-20
-2.1056233e-20
-3.622207e-32
7.3371842e-21
-7.3663687e-21
-7.4417627e-21
8.338152e-33
7.3660131e-21
-1.4701268e-20
1.5218166e-20
-2.6012318e-32
-1.5672144e-20
2.3103382e-20
1.4684981e-20
-7.2014544e-21
-2.2233679e-20
-7.5313829e-21
7.4614103e-21
0
-6.8253999e-21
6.659326e-21
2.0468228e-20
3.833002e-33
-1.35897e-20
6.5876389e-21
6.3379272e-21
-1.2443984e-20
6.2119419e-21
-6.1660728e-21
-1.1998142e-20
1.7126262e-20
-1.8809314e-32
1.297958e-32
1.1903595e-20
-1.1780529e-20
-5.7472282e-21
-5.5562039e-21
-6.2266919e-33
5.8993505e-21
-1.2275167e-20
1.2420386e-20
1.8319483e-20
0
-5.890122e-21
3.4224539e-33
1.8588149e-36
-2.0360542e-20
-6.8582587e-21
2.06141e-20
-6.8750407e-21
1.1493058e-48
2.1501039e-20
-7.3072254e-21
-2.2054856e-20
-7.2118455e-21
1.448288e-20
-7.5299196e-21
7.7712449e-21
-2.5819099e-32
-1.4661063e-20
2.1361845e-20
8.2185651e-33
-3.4400559e-32
1.5846857e-20
-1.5660241e-20
-8.2828761e-33
7.1356939e-21
-1.4376857e-20
-7.438658e-21
0
0
1.4210454e-20
-1.5116604e-32
-3.8576269e-36
-7.6440878e-33
-6.8782633e-21
-6.7395946e-21
6.4677371e-21
6.2885405e-21
-1.2479084e-20
1.2371804e-20
-6.6984215e-33
-1.1541833e-20
1.1208707e-20
1.8560233e-32
-6.1306534e-33
5.3792179e-21
-1.0378736e-20
5.0793697e-21
-1.1201e-32
-9.8661717e-21
0
9.1510315e-21
4.4795562e-21
-8.9340325e-21
-4.3760154e-21
4.1978956e-21
-6.8282138e-33
-4.1161842e-21
0
0
7.8685801e-21
7.3531256e-21
0
-6.8014007e-21
-3.4739118e-21
3.5775436e-21
-3.6382657e-21
3.6221041e-21
0
-6.5774776e-21
0
0
3.1190002e-21
-3.6033393e-33
-3.2745211e-21
0
3.0716536e-21
1.6499415e-33
-2.9494707e-21
0
6.0549942e-21
5.9828143e-21
-2.9232915e-21
-3.2187732e-33
2.9320373e-21
-5.9388693e-21
-5.9084253e-21
5.7847724e-21
8.085354e-37
6.3775882e-33
8.4042807e-37
-6.0557325e-21
3.0375242e-21
-3.3564962e-33
3.0337015e-21
-3.089301e-21
-9.4882054e-21
9.6214962e-21
3.1934639e-21
-3.1704003e-21
-3.5908483e-33
-3.3857711e-21
7.035787e-21
7.1185334e-21
-7.0291864e-21
-1.152984e-32
-3.5304526e-21
-3.7122267e-21
7.745592e-21
-3.9352412e-21
4.3549263e-33
-2.1671241e-33
3.955014e-21
8.1733247e-21
-8.4058533e-21
-8.4890338e-21
0
4.2163178e-21
4.7223223e-33
-8.7389019e-21
-4.9420039e-33
1.3347594e-20
8.7736379e-21
0
-8.5802266e-21
-9.822389e-33
-4.5709239e-21
-4.6042047e-21
1.3389611e-20
-2.3754792e-33
-8.2589573e-21
4.1575642e-21
8.6956004e-21
-4.4730107e-21
-8.9513053e-21
-4.3615539e-21
0
8.1896378e-21
-4.0343692e-21
-1.2195734e-20
4.1258992e-21
4.1386519e-21
8.1177501e-21
3.9486437e-21
-7.7214391e-21
-3.8252471e-21
-3.8376134e-21
4.2524663e-33
3.7502142e-21
3.6321294e-21
7.1459625e-21
3.593523e-21
0
0
0
-6.8848629e-21
-6.7895319e-21
6.7943075e-21
3.7990263e-33
3.8069099e-33
-3.7879813e-33
-7.5006932e-33
6.6803347e-21
0
-6.4507538e-21
-3.213049e-21
3.2659643e-21
-3.3203455e-21
-3.3243331e-21
0
0
6.4394412e-21
-1.090988e-32
-7.3953843e-33
6.6209853e-21
-6.5117733e-21
-6.4807318e-21
0
6.703391e-21
-3.7584056e-33
-6.7239283e-21
6.6386767e-21
3.6882349e-33
-6.731771e-21
0
6.8415025e-21
3.3868588e-21
-6.7784986e-21
3.4438394e-21
7.7639065e-33
-6.9964705e-21
6.9093285e-21
6.8004945e-21
0
0
0
-7.1839619e-21
-7.1358963e-21
7.0886897e-21
0
-7.1846182e-21
0
-3.604126e-21
7.1747833e-21
3.6121909e-21
-3.6954716e-21
7.4485277e-21
3.6546664e-21
-7.0993043e-21
-3.4341992e-21
-3.8491717e-33
3.6452418e-21
-8.4221316e-33
2.196086e-36
7.6633698e-21
0
-3.6359797e-21
-7.1310108e-21
-3.5824189e-21
0
0
0
-3.8781834e-21
7.6717179e-21
3.7997346e-21
-3.7792659e-21
-3.7543623e-21
3.7205797e-21
3.6900744e-21
-7.4074533e-21
0
7.6112091e-21
7.5708688e-21
0
0
-7.0491104e-21
-3.9479873e-33
-3.6372131e-21
-3.6600054e-21
3.5938997e-21
-3.4978089e-21
3.4009656e-21
6.7108519e-21
3.3841397e-21
0
-6.6892458e-21
-3.6115145e-33
3.1439334e-21
-3.0793428e-21
-3.0809042e-21
-6.1355575e-21
5.9794876e-21
2.8751276e-21
-7.8256833e-37
2.7057681e-21
-5.4752684e-21
2.7291452e-21
-2.6349068e-21
-3.1787676e-49
2.3826019e-21
-4.7005528e-21
4.7843504e-21
4.8170625e-21
0
-2.2151169e-21
-4.1548549e-21
1.1150773e-33
2.022312e-21
2.0725812e-21
-4.1942802e-21
-4.1221935e-21
1.9599509e-21
3.7156246e-21
3.6035274e-21
-1.8136611e-21
-3.7521206e-21
1.9298959e-21
-1.9281421e-21
3.0886109e-33
1.7773425e-21
-3.5003886e-21
3.5796466e-21
2.0796009e-33
-1.0704422e-32
3.8508759e-21
-3.7665121e-21
-8.2247862e-33
1.8788919e-21
-3.9079596e-21
2.0268542e-21
-5.8355953e-37
8.9907075e-33
1.9922462e-21
-4.026233e-21
4.6368402e-33
-1.2103415e-33
2.2296032e-21
-6.2674996e-37
-4.3327228e-21
4.3214276e-21
1.2534175e-36
-1.017915e-32
4.6881876e-21
-4.663884e-21
-5.0708582e-33
4.4799267e-21
-2.2535165e-21
-2.3227275e-21
-2.3936086e-21
2.4071052e-21
-2.5966691e-33
-4.511948e-21
0
0
4.568991e-21
6.5937907e-37
-4.5591275e-21
2.1642143e-21
-2.2626653e-33
1.9896888e-21
4.5057795e-33
-4.1863328e-21
0
-2.0580941e-21
3.8345955e-21
1.7729033e-21
-3.7279708e-33
1.6707173e-21
-3.440449e-21
1.7468232e-21
-1.9119987e-33
-3.2591695e-21
0
0
1.2784091e-21
-7.1705613e-34
1.3340255e-21
-1.3438642e-21
-3.9195329e-21
3.6581361e-21
1.1105913e-21
-2.0538374e-21
9.9008562e-22
1.6572377e-33
1.0175091e-21
-5.8496821e-37
-3.3684595e-33
9.5663499e-22
-1.7647381e-21
-8.3454314e-22
0
-8.969197e-22
9.4814025e-22
9.6334248e-22
9.3292203e-22
-2.0031437e-33
1.012266e-33
-1.068694e-33
-2.0659705e-21
1.0754419e-21
1.775752e-33
-2.0980125e-21
1.5242321e-37
1.1466072e-21
2.4926066e-21
2.6529295e-21
-2.7211469e-21
-1.5066098e-33
-1.3629218e-21
-1.4171577e-21
3.0264573e-21
-3.2465593e-21
-1.6997012e-21
5.1759854e-21
3.4760852e-21
-1.7724006e-21
-3.6856151e-21
-1.9431649e-21
2.0239263e-21
4.1196652e-21
-4.1455284e-21
-6.2687217e-21
2.1419777e-21
2.2318501e-21
4.611474e-21
2.3339308e-21
-4.652739e-21
-2.3087671e-21
-2.3303841e-21
4.801597e-21
2.473777e-21
-5.0194809e-21
5.0024898e-21
6.9342171e-51
7.0130523e-37
4.957634e-21
-5.0085142e-21
-8.3354444e-33
-2.742843e-33
-8.1419208e-33
-4.243408e-51
-7.2728338e-21
-2.6608507e-33
2.3432721e-21
4.546031e-21
4.4654549e-21
-4.4708722e-21