/*--------------------------------*- C++ -*----------------------------------*\
  =========                 |
  \\      /  F ield         | OpenFOAM: The Open Source CFD Toolbox
   \\    /   O peration     | Website:  https://openfoam.org
    \\  /    A nd           | Version:  7
     \\/     M anipulation  |
\*---------------------------------------------------------------------------*/
FoamFile
{
    version     2.0;
    format      ascii;
    class       volScalarField;
    location    "0.00145";
    object      Uy;
}
// * * * * * * * * * * * * * * * * * * * * * * * * * * * * * * * * * * * * * //

dimensions      [0 1 -1 0 0 0 0];

internalField   nonuniform List<scalar> 
5000
(
-3.306187e-16
-3.6180737e-16
0
0
1.8066883e-16
-2.0752845e-31
-1.8383043e-16
0
0
1.8671659e-16
3.7539995e-16
-1.8866793e-16
-1.8963e-16
1.9058631e-16
0
1.9247688e-16
-6.9230021e-46
-1.9433826e-16
0
-1.9616989e-16
1.9707436e-16
1.9797119e-16
-3.9772057e-16
1.9974159e-16
2.0061504e-16
1.6606624e-30
-2.0233811e-16
-2.0318761e-16
4.08058e-16
-3.5517462e-30
3.5952794e-30
-2.0650396e-16
-4.146247e-16
4.1622471e-16
-3.621818e-30
1.8236569e-29
7.2976454e-30
-4.2245496e-16
4.2396958e-16
4.2546684e-16
-4.2694664e-16
1.4733097e-29
4.2985352e-16
-2.1564021e-16
-6.490343e-16
2.1704039e-16
2.1772702e-16
1.4959915e-29
4.3814644e-16
0
-2.2038306e-16
-3.1409436e-32
2.2165626e-16
-4.4455807e-16
7.7920346e-30
4.4699358e-16
-2.240917e-16
7.7586401e-30
2.2525345e-16
0
-2.2637758e-16
-7.7395315e-30
-6.4649118e-32
-2.2799275e-16
2.285121e-16
-8.0063079e-30
-2.2952208e-16
2.3001268e-16
2.3049364e-16
-2.3096494e-16
-2.3142657e-16
2.318785e-16
2.3232071e-16
-4.6550637e-16
-2.331759e-16
2.3358884e-16
0
-2.3438529e-16
3.336265e-32
2.3514241e-16
-2.3550616e-16
6.7035452e-32
-6.7133211e-32
-2.3653802e-16
-2.3686211e-16
-8.2576689e-30
2.374804e-16
0
2.3805871e-16
2.4724467e-29
8.3410389e-30
-2.3885095e-16
-2.390949e-16
4.7865753e-16
1.6578679e-29
-2.3976616e-16
0
0
2.4034618e-16
1.6679757e-29
-4.8136392e-16
2.4083454e-16
4.8195375e-16
0
-2.4123079e-16
-2.4134234e-16
2.4144359e-16
2.4153452e-16
0
0
-2.4174527e-16
-2.4179478e-16
0
2.4186259e-16
-8.455841e-30
-2.4188867e-16
2.4188602e-16
-6.8744407e-32
8.4547355e-30
4.3831308e-48
-4.8354037e-16
1.0304898e-31
2.4164737e-16
0
2.4148177e-16
-2.4138301e-16
-2.4127358e-16
4.8230692e-16
2.4102263e-16
-4.8176215e-16
-2.4072877e-16
2.4056569e-16
2.4039182e-16
2.4020714e-16
0
-2.3980527e-16
-2.3958802e-16
2.3935989e-16
8.2913917e-30
-2.3887083e-16
2.3860987e-16
2.3833793e-16
0
-2.3776101e-16
-2.3745599e-16
2.371399e-16
-2.3681271e-16
1.3442014e-31
2.3612498e-16
-2.3576439e-16
2.3539263e-16
-1.6364472e-29
-2.3461547e-16
2.3421004e-16
-2.3379335e-16
-2.3336538e-16
2.329261e-16
0
0
2.3154026e-16
2.3105558e-16
-2.305595e-16
-2.3005201e-16
2.2953309e-16
1.5881103e-29
-2.2846088e-16
2.2790756e-16
2.2734275e-16
0
-2.2617859e-16
-2.2557921e-16
0
2.2434582e-16
2.2371178e-16
0
-2.2240897e-16
-4.6132362e-29
2.2105981e-16
-2.2036785e-16
-2.1966428e-16
2.1894911e-16
1.5071472e-29
-1.4958665e-29
-9.2399268e-32
-2.1597246e-16
2.1519933e-16
2.9738866e-29
-1.4692784e-29
1.4637221e-29
-2.1199113e-16
0
0
2.0946393e-16
2.0859857e-16
0
0
-2.0593392e-16
-4.5908202e-47
2.0410064e-16
0
-2.022222e-16
2.0126615e-16
5.550517e-29
-3.9864117e-16
1.9833117e-16
4.0969922e-29
2.7898655e-32
1.9529702e-16
-1.9426387e-16
2.7458204e-32
2.6598313e-29
-1.3225431e-29
1.9002413e-16
0
-1.8784101e-16
-1.2923269e-29
-5.1515657e-29
-1.8448912e-16
0
1.8220412e-16
1.8104679e-16
0
0
0
-1.763212e-16
-1.211925e-29
1.7390226e-16
0
0
-1.7020657e-16
-1.6895727e-16
1.6769952e-16
1.6643347e-16
0
-1.6387707e-16
-1.6258705e-16
1.6128937e-16
1.599842e-16
0
-1.5735212e-16
4.3325197e-29
1.072775e-29
-1.5335241e-16
1.5200618e-16
1.5065379e-16
0
-1.4793135e-16
2.0369465e-29
-1.4518678e-16
-1.9945699e-29
2.8484367e-16
-1.4103229e-16
1.9367551e-29
4.7993022e-29
9.4701409e-30
1.3543244e-16
-1.3402327e-16
-1.3261092e-16
0
1.2977766e-16
1.2835727e-16
0
-1.2551031e-16
-1.2408427e-16
2.4531376e-16
1.2122841e-16
-1.1979915e-16
-1.1836936e-16
-3.2438491e-29
1.1550935e-16
-1.1407969e-16
7.8122062e-30
1.1122249e-16
-1.0979552e-16
7.5307495e-30
-7.4470105e-30
2.9991894e-32
7.1900037e-30
-1.0268855e-16
0
0
9.8457135e-17
9.7053873e-17
0
0
0
0
-9.0104635e-17
-6.1155206e-30
1.7472316e-16
-3.6663594e-32
-8.464285e-17
-8.3293297e-17
1.1378032e-29
1.1169703e-29
1.1267381e-32
7.7966815e-17
7.6654449e-17
7.5350302e-17
-1.4810925e-16
-2.18303e-16
7.1489672e-17
1.4044175e-16
0
-6.7711819e-17
-6.6472012e-17
6.5242314e-17
-1.8196413e-32
2.6779259e-32
-1.7512315e-32
-6.0428802e-17
-5.9252745e-17
5.8087995e-17
1.1386946e-16
-5.5793128e-17
-5.4239019e-47
-5.3545556e-17
-1.4531708e-29
1.0269306e-16
0
0
-9.6282961e-17
2.6156672e-29
9.2137149e-17
0
-4.4047726e-17
-4.3057061e-17
4.2079682e-17
-5.8428872e-33
5.576521e-30
-5.5746306e-33
-3.8304419e-17
3.7394453e-17
3.6498116e-17
0
-3.4746449e-17
4.7054505e-30
3.3049587e-17
-6.444346e-17
8.7123356e-30
3.060715e-17
8.2805314e-30
5.8094623e-17
-5.6575716e-17
-2.7542002e-17
2.68097e-17
3.7077405e-33
2.5385559e-17
0
0
-2.3349583e-17
3.1480786e-30
4.411649e-17
-3.0456873e-33
-6.2456695e-17
2.0218484e-17
1.9630772e-17
-3.8111306e-17
1.8493017e-17
-1.7942745e-17
-3.4809434e-17
1.6878807e-17
1.6364887e-17
1.5862824e-17
-1.5372482e-17
-4.5567744e-47
1.4426404e-17
-1.3970381e-17
1.3525506e-17
-1.3091627e-17
-3.5106156e-30
-3.4834366e-33
-1.1854445e-17
2.2926026e-17
-1.1081796e-17
-2.9741298e-30
2.8708702e-30
9.9978167e-18
1.9311667e-17
-2.796974e-17
-2.4965326e-30
4.8186973e-30
-2.3222505e-30
1.6167052e-17
-1.5590831e-17
2.0848235e-30
1.4488408e-17
0
0
-6.4774077e-18
8.6507977e-31
6.0042869e-18
5.7786568e-18
-5.5600958e-18
-1.6045331e-17
5.1435387e-18
4.9452235e-18
1.3509804e-33
4.5677315e-18
0
-8.429456e-18
-8.094058e-18
3.8849982e-18
7.4569791e-18
3.5773571e-18
-6.8629143e-18
-6.5812996e-18
6.3095891e-18
6.0475105e-18
0
-5.5511688e-18
2.6581907e-18
5.0901708e-18
-2.4361442e-18
-2.3312425e-18
3.1693893e-34
-2.9615627e-31
-2.0395741e-18
1.9496424e-18
1.8631668e-18
-1.7800395e-18
2.3580767e-31
2.306993e-34
2.1493807e-31
1.4789009e-18
-1.4109544e-18
5.6053133e-31
1.7815837e-31
3.3948241e-31
1.1656638e-18
-1.1105192e-18
1.4684762e-31
2.7920867e-31
1.3622057e-34
1.8242952e-18
8.6771742e-19
-8.252042e-19
-1.5690766e-18
1.0352614e-31
1.4169525e-18
6.729507e-19
-1.2780253e-18
-6.0660174e-19
5.7565968e-19
5.4613168e-19
1.4375412e-31
-4.9109956e-19
0
0
-4.1785644e-19
0
3.7467935e-19
-3.5465433e-19
-4.769399e-35
8.8125672e-32
0
2.8403681e-19
-2.6856251e-19
-2.5388978e-19
4.7996616e-19
2.2680908e-19
-2.1433547e-19
0
0
1.8079427e-19
-4.7452498e-32
-1.6135027e-19
0
0
1.3591925e-19
-5.3460291e-32
-1.2106523e-19
0
0
0
0
0
0
0
0
-1.318695e-19
-3.3334509e-32
5.4029401e-20
-4.7807015e-20
4.1336967e-20
-3.4668031e-20
8.0620483e-33
2.4491694e-20
5.7474232e-33
2.2058018e-20
0
0
-2.1473764e-20
-1.0830342e-32
5.292008e-20
0
0
0
0
0
0
0
-1.1236194e-19
4.5349405e-32
1.0558962e-19
-5.814834e-20
-8.9330544e-36
-6.0954557e-20
3.1859222e-32
1.1809574e-19
6.3726249e-20
3.3658292e-50
-1.9381386e-19
0
1.3641781e-19
0
0
-1.2932619e-19
1.7527169e-32
1.9436571e-19
-6.4950023e-20
-6.2155252e-20
5.9163951e-20
-5.8270208e-20
5.8022088e-20
1.5851249e-32
-5.5570991e-20
5.4391141e-20
0
5.1976052e-20
-4.9438242e-20
-9.3379927e-20
4.385184e-20
4.0616408e-20
3.6988527e-20
3.3014523e-20
-5.7455627e-20
-2.4081629e-20
1.9297259e-20
0
-1.7423634e-20
1.7418711e-20
1.5658684e-20
-6.182843e-20
-8.2446033e-36
5.5903359e-20
-2.3977661e-20
-4.2322187e-33
-4.0146677e-20
1.0884946e-35
6.1030613e-20
-3.0181677e-20
0
1.0570537e-32
5.2441164e-36
3.635254e-20
-3.9741632e-20
1.3397383e-32
7.7019452e-33
7.560523e-36
4.4701304e-20
-4.1402757e-20
1.2192221e-49
1.2045721e-32
5.9919615e-36
8.2732478e-20
6.0285477e-33
-4.7469047e-20
0
0
4.3130725e-20
1.9508544e-32
-4.8916121e-20
4.3534187e-20
-5.017439e-33
3.4553653e-49
4.9790077e-33
-3.5679454e-20
-3.1997991e-20
-4.0929217e-33
3.0022241e-20
0
0
-2.8010331e-20
2.8545491e-20
-2.3986813e-32
-2.762633e-20
2.6220761e-20
0
-2.5914205e-20
-2.5270894e-20
2.4204472e-20
2.3798065e-20
0
-2.3423672e-20
-2.185707e-20
4.2716852e-20
2.3103087e-20
-2.4195328e-20
-2.1941868e-20
-2.7557761e-33
-2.2019481e-20
-6.8955101e-33
4.6382051e-20
0
0
0
-2.4250551e-20
-2.0857728e-20
0
2.5047798e-20
3.4277481e-33
-2.1448063e-20
0
0
2.6118501e-20
3.0360748e-33
-2.9607916e-33
2.548898e-20
-2.6991111e-20
9.5806302e-33
2.0669431e-20
0
2.5705522e-20
3.1593677e-33
-1.90478e-20
1.9502584e-20
-2.1333377e-20
-2.0364388e-20
1.7609782e-20
0
-1.8097514e-20
-1.8389323e-20
1.7443298e-20
1.7422264e-20
0
1.7864596e-20
-1.73853e-20
-1.9005059e-20
2.0416348e-20
3.7440009e-20
-1.0144121e-32
-6.532086e-20
-9.2411355e-50
2.0740988e-20
3.8275034e-20
-1.305867e-32
-5.814397e-20
2.8288331e-20
-2.2412931e-20
1.7140523e-20
1.5911804e-20
-3.3713537e-20
0
0
1.3332829e-20
-7.603731e-49
-1.7693785e-20
0
0
2.5542376e-20
3.8373105e-50
-2.7850682e-20
0
0
3.18826e-20
1.5123098e-20
-3.238744e-20
-1.7259246e-20
0
2.78169e-20
-7.4739324e-33
-2.9211693e-20
1.5488444e-20
0
-1.7793122e-20
1.9997171e-20
-2.7236105e-36
-1.6125646e-20
1.3101474e-20
-1.1810244e-20
-1.1854768e-20
1.1359583e-20
1.0191618e-20
-2.5649349e-33
-8.6217805e-21
8.5001087e-21
2.3750659e-33
-8.5399012e-21
9.5227911e-21
-1.0847021e-20
-1.0770945e-20
1.1103984e-20
1.3770304e-20
-4.6853554e-33
-1.6654546e-20
1.5387423e-20
-2.1713751e-36
-1.5499657e-20
1.5859944e-20
-1.6282977e-20
-1.7485683e-20
1.8139295e-20
3.5205978e-20
-9.03514e-33
-3.1882109e-20
1.6133063e-20
-1.9037386e-36
-1.8626767e-20
-2.1346489e-36
6.8821959e-21
0
-4.3689245e-21
0
4.3226398e-22
0
0
0
-2.8842333e-22
4.994465e-51
4.9825344e-22
0
-1.0716607e-22
2.7184509e-34
1.8041799e-21
0
0
0
3.5864336e-21
-1.1132971e-33
-4.7895944e-21
0
-5.5573959e-21
-1.5869399e-33
5.0142587e-21
0
-4.6070734e-21
4.8592345e-21
-2.3515315e-33
-3.3730054e-21
2.5836512e-21
0
9.1980835e-22
8.5197952e-35
3.1598316e-23
0
1.0345289e-21
-1.3337509e-21
-8.1567722e-34
1.547956e-21
-9.3456219e-34
-2.7038958e-37
5.8703391e-34
-3.4253761e-37
-2.7853047e-21
0
2.746392e-21
-6.1311842e-34
-4.3805884e-34
-5.8222322e-51
-4.2229658e-34
0
-1.4643295e-21
-1.864978e-34
3.8840987e-22
3.1208479e-22
-2.6478279e-34
-1.1058387e-21
-7.5259496e-22
-1.6026745e-34
3.0180887e-34
-1.5497815e-21
1.7045536e-21
1.8083993e-21
0
1.0693775e-21
-1.3985163e-34
-3.5566615e-22
0
0
0
2.7508133e-21
-7.5815234e-34
1.0336845e-23
0
0
0
0
0
0
0
-7.1109481e-21
2.3442621e-33
9.3334884e-21
5.0678443e-21
-5.1977847e-21
-5.6674574e-21
1.8119996e-33
3.9364574e-33
7.4647308e-21
-7.1208229e-21
7.1730457e-21
8.0055132e-21
-7.7129035e-21
-7.6717322e-21
4.3959581e-33
7.8532489e-21
8.4440044e-21
-2.4409363e-33
-8.464049e-21
-7.0641605e-21
6.6651722e-21
6.5645758e-21
-6.0669601e-21
6.3903873e-21
0
-6.7383818e-21
-6.1976249e-21
1.5437957e-33
5.1659822e-21
-5.1373882e-21
5.1260318e-21
4.9946738e-21
-4.7030594e-21
4.3120121e-21
1.1763894e-33
-4.399336e-21
-4.1499413e-21
-5.0929492e-37
6.6507383e-21
1.9438608e-33
-3.7971755e-21
-3.9589454e-21
0
4.2292945e-21
0
0
0
4.9699578e-21
5.0710937e-21
-5.0783986e-21
-5.4519901e-21
0
5.8327222e-21
-1.6479683e-33
-6.4178912e-21
0
0
5.7087479e-21
-3.5791713e-33
-7.2464889e-21
0
0
7.5275533e-21
-4.120329e-33
-7.7602893e-21
0
6.5758513e-21
-1.9398261e-33
2.105159e-33
-1.9542941e-33
-6.3289954e-21
0
-6.9452475e-21
3.9758312e-33
7.1283581e-21
0
6.5502271e-21
-6.206449e-21
-5.9293124e-21
1.1594089e-20
1.5530283e-33
-1.046951e-20
1.3725265e-33
4.7683304e-21
0
0
4.0366423e-21
-1.0237944e-33
-3.4424049e-21
0
3.3092335e-21
-3.225244e-21
-3.0481269e-21
2.8039967e-21
0
-2.5426372e-21
2.6079564e-21
1.4912404e-33
-1.4865644e-33
2.5403102e-21
-1.9992035e-33
2.3902234e-21
-2.5215225e-21
7.5261373e-34
-1.572028e-33
-5.7186534e-21
7.8973514e-34
2.8617331e-21
0
0
0
-6.931475e-21
-3.5198641e-21
7.2101105e-21
3.7909175e-21
0
0
4.2197734e-21
-1.1894783e-50
-4.4787631e-21
0
-1.0071448e-20
-5.1121216e-21
1.0257056e-20
5.0722565e-21
0
-1.1246183e-20
-1.6857024e-36
1.8341176e-20
-1.7213565e-33
-1.2178759e-20
6.1285974e-21
3.6935768e-36
-6.8687838e-21
1.9515309e-33
3.8829969e-33
6.8826358e-21
0
7.3551142e-21
-4.2154284e-33
-1.5391255e-20
7.5736307e-21
-1.2477112e-32
-7.6767061e-21
1.5901603e-20
-1.1561837e-36
-8.1972612e-21
0
0
0
-7.8928747e-21
8.0662563e-21
1.6398508e-20
-8.1827461e-21
-2.0917161e-33
-1.9468474e-33
-7.3059256e-21
0
7.9628892e-21
-1.1501243e-36
-1.6170374e-20
7.3365548e-21
3.7323379e-33
-6.8339732e-21
-7.1502664e-21
4.1460709e-33
1.5131658e-20
0
6.8577531e-21
6.2424781e-21
0
-6.6023293e-21
-6.8398035e-21
6.9321229e-21
0
-6.7554277e-21
0
0
6.0352493e-21
-4.8956149e-33
-5.8890439e-21
0
0
5.6935528e-21
5.4626031e-21
-5.2780226e-21
-5.2006318e-21
5.1637188e-21
5.0670699e-21
-9.721362e-21
-4.7115483e-21
1.2989208e-33
4.6528578e-21
-2.5173015e-33
-2.4177227e-33
4.2005115e-21
-4.1047409e-21
4.0781022e-21
-4.0279836e-21
-3.3552313e-36
3.8114643e-21
-7.3202722e-21
-3.5636458e-21
-3.5490997e-21
7.0593527e-21
6.9106096e-21
-3.3315275e-21
3.1927383e-21
-3.1025303e-21
1.7004974e-33
6.047761e-21
-2.9221625e-21
7.7260204e-34
-7.4695343e-34
-2.6480205e-21
0
0
2.3989983e-21
2.2625462e-21
0
-2.1104782e-21
-2.0384223e-21
0
-1.7829081e-21
4.6861043e-34
1.6213731e-21
-1.5373403e-21
3.872017e-34
1.2419854e-21
0
1.0678288e-21
5.4537627e-34
-8.3703376e-22
6.6628761e-22
-1.4975031e-34
-4.7860995e-22
-4.3513415e-22
-1.0062087e-34
2.4359756e-22
0
2.6193023e-23
-8.0111437e-23
2.6805426e-38
-6.2676516e-35
-1.7082443e-22
2.7397728e-22
0
8.4651395e-22
-9.4499189e-34
-4.1211593e-22
-2.1829486e-34
-7.273636e-22
6.4911066e-22
6.0007087e-22
-5.9220472e-22
-5.3134368e-22
-1.7837697e-22
0
-5.641045e-23
-2.9475961e-22
3.4795765e-38
-3.7516744e-22
5.3082659e-22
6.8815417e-22
-8.3928542e-22
2.0080832e-21
-2.3883496e-21
-2.3163885e-33
3.1502216e-21
-3.5220826e-21
1.0929577e-33
-2.1949122e-21
2.4194598e-21
2.6155122e-21
-2.8062097e-21
-8.3723246e-34
-6.5074744e-21
7.0001057e-21
7.4525417e-21
-7.830749e-21
-1.1341952e-33
-4.266586e-21
2.4878796e-33
4.7194462e-21
1.3700864e-33
-2.3877872e-50
5.2278263e-21
1.0624202e-20
-5.4519088e-21
5.6321986e-50
-5.8434673e-21
-9.9216058e-33
5.9271656e-21
-1.1851235e-20
3.3930505e-33
1.2539482e-20
-1.0865028e-51
-6.4628869e-21
0
0
-6.2226749e-21
6.3924858e-21
1.3077579e-20
0
0
0
-6.1429914e-21
-6.4226667e-21
0
5.5336022e-21
-5.5236477e-21
-9.5348125e-33
1.2003615e-20
0
0
0
-5.6433602e-21
-5.5938681e-21
5.7191088e-21
-5.7606046e-21
-3.1182432e-33
1.0808736e-20
0
0
-1.0612766e-20
1.4877878e-36
5.0529724e-21
-4.9078296e-21
4.8832534e-21
-4.8844424e-21
2.68379e-33
9.4298161e-21
0
0
-4.4788246e-21
-4.3395166e-21
0
0
4.1793079e-21
4.1308572e-21
0
-3.8621933e-21
-3.7348986e-21
3.7187888e-21
-3.7541362e-21
-3.7449901e-21
3.6826063e-21
3.5946266e-21
-1.9375317e-33
-3.4058196e-21
3.3728713e-21
9.3136214e-34
-3.3204084e-21
0
-3.1496627e-21
1.7043148e-33
3.0225626e-21
-3.0003401e-21
1.6452798e-33
2.9006746e-21
0
-2.7786327e-21
7.5890657e-34
3.7951303e-37
-2.5894635e-21
2.5278708e-21
2.4985229e-21
0
-4.8009964e-21
2.5714413e-33
2.2370997e-21
3.1305119e-37
4.4240784e-21
-4.3858745e-21
-4.2359825e-21
4.0381015e-21
1.9363153e-21
0
-3.8749677e-21
3.2373275e-33
3.8120888e-21
0
-3.5641251e-21
-9.8193795e-34
1.7895503e-21
4.9918875e-34
3.5267556e-21
-3.3911015e-21
-4.0952859e-33
3.2928818e-21
-3.4035564e-21
9.7491361e-34
3.5559966e-21
1.7641503e-21
-3.4950286e-21
-1.7489127e-21
3.5158643e-21
-3.5433552e-21
-4.4812278e-33
3.6572938e-21
-3.7473454e-21
5.3286954e-34
-1.9537604e-21
2.1948571e-33
6.0023527e-21
-1.1202547e-33
-4.0478147e-21
2.0334771e-21
4.1233706e-21
-2.1195114e-21
1.2216249e-33
-2.2646244e-21
-2.5469406e-33
2.2980448e-21
-4.6141697e-21
1.941855e-33
-2.6305645e-33
1.3380833e-33
2.4440386e-21
0
2.4800078e-21
2.4979065e-21
0
0
0
0
0
-2.5602629e-21
-2.5534536e-21
0
2.5332866e-21
-2.5331165e-21
-4.2360762e-33
5.0903011e-21
0
0
0
-2.4479442e-21
-2.4622875e-21
2.4677754e-21
2.4449011e-21
-4.8169541e-21
-3.9723539e-33
4.7599655e-21
0
-4.7513003e-21
-3.9261507e-33
2.3353045e-21
-2.3286449e-21
2.3357975e-21
-2.3432439e-21
-1.2963704e-33
4.6348896e-21
0
0
-2.365821e-21
-2.3781194e-21
0
-2.3789885e-21
-6.8108668e-37
-2.4333529e-21
2.4755157e-21
7.5005703e-21
0
5.0703265e-21
5.1515013e-21
0
-7.9695303e-21
-5.3605557e-21
5.3937635e-21
-2.727694e-21
-2.7867283e-21
8.5523777e-21
2.8831441e-21
4.1187572e-37
2.9087632e-21
-2.9336886e-21
-2.9976893e-21
-3.0624214e-21
-2.00302e-52
-3.0912951e-21
-3.0843629e-21
3.0898003e-21
0
6.3867677e-21
6.4233009e-21
0
-3.1661151e-21
-6.3083499e-21
-1.7718742e-33
-3.2195712e-21
-6.4152181e-21
6.3270612e-21
6.1237839e-21
2.9805225e-21
2.9931598e-21
0
-3.06907e-21
-9.1901879e-21
3.0224098e-21
3.7850614e-49
-8.6728106e-21
5.6104957e-21
2.7311124e-21
2.7047932e-21
5.3975629e-21
-5.3433937e-21
-2.6094409e-21
2.5282529e-21
2.44114e-21
2.3643139e-21
-6.9369618e-21
-2.2762775e-21
6.7091323e-21
2.184483e-21
-2.1168465e-21
-4.0840422e-21
1.9742746e-21
-1.9218395e-21
3.1277695e-33
-3.0535602e-33
-5.3327255e-21
1.7160096e-21
1.6687478e-21
3.2784199e-21
1.6126359e-21
-3.1461783e-21
-4.3412633e-37
-1.4910803e-21
1.4716804e-21
4.3787842e-21
-4.3256197e-21
-1.4172715e-21
4.1875398e-21
0
-4.2236678e-21
-1.4184812e-21
4.2303291e-21
-1.3968657e-21
-2.7934743e-21
-7.869738e-34
1.6134287e-33
1.4862596e-21
0
3.0343641e-21
3.0916042e-21
-1.5883173e-21
-1.6347498e-21
-3.3348419e-21
1.6954123e-21
1.7326079e-21
-3.5619407e-21
0
3.7480866e-21
3.8199541e-21
-1.9473879e-21
-3.9979137e-21
1.1487086e-33
2.1340776e-21
-4.346314e-21
2.2024682e-21
-7.4453735e-33
-4.5650404e-21
2.3521507e-21
0
4.922758e-21
0
-5.5948528e-33
-2.5565765e-21
-5.2412008e-21
8.0497456e-21
-7.7443866e-37
-5.4944769e-21
0
5.5468662e-21
2.8156343e-21
-5.7574229e-21
3.2584545e-33
2.9683222e-21
-5.970803e-21
2.9994763e-21
-5.0167837e-33
-6.0364702e-21
3.026834e-21
-3.0623533e-21
6.1857881e-21
9.3247223e-21
0
-9.2388432e-21
-6.1106401e-21
9.2416101e-21
6.2704862e-21
-3.1725124e-21
-6.3314079e-21
3.1416838e-21
3.1005502e-21
-6.138751e-21
3.0917154e-21
6.2595218e-21
-3.1472613e-21
4.446379e-37
-6.1864389e-21
-6.0822839e-21
9.0214508e-21
-3.0275438e-21
-5.0817206e-33
9.1514429e-21
0
-8.9029918e-21
-5.8185388e-21
2.8812468e-21
2.8960499e-21
2.9039782e-21
0
2.8449398e-21
-1.5449826e-33
-5.4460971e-21
1.4941214e-33
2.6930401e-21
0
2.646306e-21
-5.1908213e-21
-7.5889108e-21
4.9417866e-21
7.3185874e-21
2.4146257e-21
-2.3779114e-21
-4.6453693e-21
2.2502178e-21
-2.1854245e-21
-2.1434308e-21
4.2117505e-21
-4.1108579e-21
-1.9869066e-21
5.717947e-21
3.6743279e-21
-1.7896127e-21
-5.2401605e-21
3.7546167e-33
-3.5882049e-33
-1.5331121e-21
-1.6212338e-33
-1.4013863e-21
1.3446216e-21
1.2779331e-21
1.1984017e-21
-1.116609e-21
-1.0488224e-21
2.9826978e-21
-9.3838817e-22
-1.7397252e-21
2.3681344e-21
2.0192473e-37
-6.4350564e-22
1.1687335e-21
5.2405949e-22
0
-3.941589e-22
-3.3857277e-22
-5.7123786e-22
2.260264e-22
-5.3178917e-34
-3.0254266e-22
5.8167448e-23
2.3465253e-23
-1.6035382e-23
6.8955858e-23
1.275656e-22
-5.0985496e-22
1.9054544e-22
4.0856709e-22
3.7587776e-34
2.6268618e-22
-6.1339605e-22
-1.0002825e-21
-1.8635057e-34
1.8293243e-34
4.6894161e-38
3.4606433e-22
7.387095e-22
3.7418731e-22
-1.0607727e-21
3.5997722e-34
6.026166e-22
0
0
-2.9899582e-22
1.4658795e-34
-1.1699783e-34
-1.5965092e-22
2.4168225e-22
9.7563279e-23
9.0360351e-35
-5.0030759e-23
1.9992971e-23
7.7793713e-23
0
0
0
-8.4902556e-22
-6.7353373e-22
1.2391588e-21
-5.5510222e-34
-1.1652967e-21
0
0
1.4949113e-21
-1.8199027e-33
-1.0087638e-33
2.013405e-21
-1.0979438e-21
-2.3424618e-21
-2.4582892e-21
1.2902165e-21
4.0888333e-21
1.4482526e-21
0
0
0
-5.3090626e-21
-3.6601091e-21
5.6948135e-21
-4.4000228e-33
-2.0833161e-21
3.0874914e-37
-2.2374927e-21
4.5778451e-21
-2.5914452e-33
-2.3793403e-21
4.8982592e-21
0
-1.4617315e-33
-5.3724425e-21
-5.4623834e-21
8.2481854e-21
5.5287988e-21
-2.8229362e-21
-1.6208393e-33
2.9918144e-21
-9.0749643e-21
-6.0986441e-21
2.9883204e-21
2.9503026e-21
-3.0341001e-21
-3.1392526e-21
3.2158131e-21
3.2484151e-21
-1.8051356e-33
1.8055906e-33
3.2247248e-21
0
3.1506758e-21
-6.3938459e-21
-9.7231003e-21
6.5144536e-21
6.5055895e-21
3.1556902e-21
-3.3947657e-33
-6.1419238e-21
3.0979708e-21
-3.1185476e-21
-3.1106978e-21
5.7405364e-21
-5.4577243e-21
-2.8140475e-21
2.8862682e-21
5.7918585e-21
2.861614e-21
-5.6063769e-21
1.4073601e-33
-2.4107341e-21
-2.510024e-21
7.655592e-21
-2.5438443e-21
-2.4971032e-21
7.2615765e-21
-3.2796983e-37
-6.5848937e-21
-2.1346266e-21
6.339194e-21
-2.085295e-21
-4.0451594e-49
-3.277259e-33
-3.7707249e-21
3.6045941e-21
3.4533696e-21
-1.667356e-21
1.7818145e-33
3.0561429e-21
-1.4532406e-21
-4.1782475e-21
-1.3418033e-21
1.2845519e-21
0
1.1322563e-21
2.1217669e-21
-1.4306305e-37
-2.9046045e-21
-9.2531544e-22
1.736907e-21
-1.1372346e-37
-1.4710839e-21
1.3798985e-21
-1.1007011e-33
-1.2713502e-21
1.8030944e-21
1.1059222e-21
0
0
-4.3068076e-22
-1.2408952e-21
-3.9942044e-22
1.149724e-21
-4.026082e-34
-6.7446862e-22
6.2149845e-22
5.8341267e-22
-2.8545238e-22
-5.7703891e-22
2.9329602e-22
2.905244e-22
-8.3184597e-22
-2.6653899e-22
-4.5067396e-34
1.5985475e-34
3.0981815e-22
-3.2049847e-22
6.2522599e-22
8.9794903e-22
0
-1.0021614e-21
-7.5210004e-22
1.2388978e-21
-1.2246577e-37
-4.2539219e-22
8.277572e-22
-4.2013048e-22
-4.5181404e-22
-5.5217039e-34
5.4032346e-22
1.1394797e-21
-5.8099388e-22
-1.1615505e-21
-1.1727688e-21
6.731304e-34
6.387767e-22
-6.7765427e-22
1.4193526e-21
2.1789766e-21
0
-2.2054471e-21
-1.501773e-21
2.3312934e-21
-8.9897359e-34
-8.3249431e-22
8.3945219e-22
8.3898817e-22
-4.6725238e-34
-1.7147946e-21
4.9024033e-34
1.8202107e-21
-1.0259414e-33
-1.0210757e-33
-1.8233204e-21
-2.7334338e-21
1.8408108e-21
-1.0424881e-33
-3.1824481e-33
9.6339909e-22
9.645004e-22
1.9300404e-21
-2.90166e-21
-9.6803965e-22
1.9251027e-21
-1.9098536e-21
-5.4162436e-37
2.882777e-21
9.7762069e-22
-9.8884561e-22
-2.9587804e-21
3.2375552e-33
1.916394e-21
9.5534275e-22
-1.9300449e-21
-2.9390498e-21
2.9636746e-21
9.8501806e-22
1.0863448e-33
9.8060257e-22
-1.9835783e-21
5.5644518e-34
-1.0049374e-21
9.9974472e-22
-3.3114171e-33
-3.0049623e-21
3.0711842e-21
3.1518038e-21
0
0
0
-1.0571183e-21
-3.2166768e-21
-1.1017098e-21
-1.256582e-33
-1.1503517e-21
3.4661594e-21
1.1602777e-21
-1.1719243e-21
-1.1928825e-21
-1.2255393e-21
2.5087495e-21
-1.2719738e-21
1.2831944e-21
-4.310607e-33
-2.6277568e-21
4.0364829e-21
2.7611864e-21
0
-2.8529016e-21
-1.5980491e-33
1.4572699e-21
-4.4572407e-21
-1.5277039e-21
1.5614936e-21
0
0
1.5782448e-21
3.1916239e-21
-3.6504418e-33
-3.3966235e-21
-1.7384469e-21
1.7590594e-21
-1.7715729e-21
1.7875277e-21
-9.3844841e-50
-3.0273019e-33
5.5043459e-21
0
0
-3.7518757e-21
-3.8382862e-21
-1.9505833e-21
2.1779337e-33
5.8846771e-21
-2.1651191e-33
-3.8767103e-21
0
3.983455e-21
2.0334583e-21
-4.1067681e-21
2.0473598e-21
2.0368213e-21
-6.05587e-21
2.0015097e-21
-6.6935262e-33
-4.0751976e-21
6.1952859e-21
4.1470698e-21
0
0
0
-5.9267209e-21
-3.9811035e-21
6.0526479e-21
4.0624449e-21
0
-4.005218e-21
2.2032099e-33
1.9679604e-21
-3.9078859e-21
1.9395414e-21
-1.9230107e-21
-1.9089589e-21
5.6952351e-21
-3.7721989e-21
-3.7239931e-21
1.8286282e-21
-1.7920315e-21
3.5355536e-21
5.2977231e-21
0
-5.2631029e-21
-3.4514662e-21
1.6919422e-21
1.6591111e-21
-1.8114306e-33
1.6165668e-21
-5.3416276e-33
-1.5854065e-21
-8.6796531e-34
-4.2289141e-51
1.5197448e-21
0
1.4574866e-21
-2.8509841e-21
-4.2055741e-21
4.1752024e-21
4.13901e-21
0
-2.6511214e-21
-2.579757e-21
2.5260642e-21
-1.2502925e-21
-1.2459193e-21
3.7034972e-21
-2.4128842e-21
-2.3472065e-21
1.145396e-21
2.2541502e-21
1.1220608e-21
-3.3435144e-21
-1.0942007e-21
-1.7683333e-33
2.0569704e-21
5.7364745e-37
-3.022935e-21
2.0298146e-21
3.0425144e-21
9.9366441e-22
-2.8661177e-21
-1.8388133e-21
2.6936526e-21
-1.9896968e-33
-1.8177695e-21
-9.1776881e-22
5.0783587e-34
1.7930933e-21
-9.6239865e-34
8.4014425e-22
8.2250845e-22
-2.4520943e-21
-8.2454527e-22
-9.2637303e-34
1.6752292e-21
-2.7491478e-33
-2.3975834e-21
1.5500229e-21
-8.4586324e-34
-8.4704362e-34
-1.7230979e-33
-7.895197e-22
2.3650008e-21
-7.6714099e-22
-1.2256403e-33
-2.3727522e-33
-2.1281616e-21
7.2475186e-22
1.4878516e-21
-8.368681e-34
7.4841484e-22
7.2927058e-22
-1.4187807e-21
-1.3963602e-21
7.7346477e-34
2.1088463e-21
-7.8853687e-34
-7.1413037e-22
1.4216492e-21
-7.0172965e-22
-6.9233265e-22
3.8076188e-34
-3.7998194e-34
6.866779e-22
-1.3806312e-21
6.8941364e-22
-2.2696234e-33
-2.2375549e-33
1.9990398e-21
-1.3352045e-21
1.917651e-37
1.3625969e-21
-6.7945986e-22
-2.0018835e-21
-6.5534765e-22
1.9542961e-21
-7.2887641e-34
-6.6794773e-22
1.350056e-21
-1.3452311e-21
-3.3179408e-33
6.5752099e-22
-6.5885038e-22
6.6670532e-22
-1.3493005e-21
6.7560965e-22
2.0041086e-21
0
0
-1.3456439e-21
-1.9567718e-37
1.3907726e-21
-6.8810907e-22
-2.0240556e-21
-6.6684487e-22
2.0252792e-21
1.9822561e-37
8.0234192e-34
1.4791232e-21
-2.2070351e-21
-3.5556483e-33
6.9070553e-22
-6.8529632e-22
-7.0190189e-22
8.1649465e-34
7.6391512e-22
-1.5631137e-21
1.5742703e-21
-2.6056113e-33
-1.5505923e-21
2.3210095e-21
1.5556838e-21
-7.8545697e-22
-2.3910433e-21
-8.1270595e-22
8.3062101e-22
0
-8.5516232e-22
8.49532e-22
2.5268951e-21
4.6719681e-34
-1.702677e-21
8.7191195e-22
8.9498005e-22
-1.8178172e-21
9.0877581e-22
-9.0099334e-22
-1.7918846e-21
2.6967908e-21
-3.0365666e-33
2.068548e-33
1.8968532e-21
-1.9087845e-21
-9.4899393e-22
-9.4283917e-22
-1.0456603e-33
9.4540374e-22
-1.914322e-21
1.935978e-21
2.9144902e-21
0
-9.639282e-22
5.3460013e-34
2.7489385e-37
-2.9144062e-21
-9.7062954e-22
2.8906647e-21
-9.5428862e-22
2.5575516e-50
2.8554202e-21
-9.5850195e-22
-2.8778903e-21
-9.4728658e-22
1.8625557e-21
-9.1879961e-22
9.1191651e-22
-3.0376781e-33
-1.8261691e-21
2.7246706e-21
9.9530522e-34
-3.9177959e-33
1.7399394e-21
-1.7181863e-21
-9.428088e-34
8.3874298e-22
-1.6544594e-21
-8.1581413e-22
0
0
1.5367239e-21
-1.666529e-33
-4.1885093e-37
-8.0851756e-34
-7.187108e-22
-7.0268212e-22
6.7990167e-22
6.5677476e-22
-1.2816347e-21
1.2649503e-21
-6.9591903e-34
-1.2273205e-21
1.1781322e-21
1.865249e-33
-5.9500279e-34
5.2245359e-22
-1.0337655e-21
5.1182382e-22
-1.1115689e-33
-9.6146624e-22
0
8.7043768e-22
4.1804248e-22
-8.0865868e-22
-3.9349747e-22
3.837154e-22
-6.2140072e-34
-3.5944687e-22
0
0
6.2181162e-22
6.0302504e-22
0
-5.6845517e-22
-2.6910349e-22
2.538413e-22
-2.4414518e-22
2.4030377e-22
0
-4.6544721e-22
0
0
1.9191937e-22
-2.1199923e-34
-1.9544103e-22
0
1.9399521e-22
1.0038904e-34
-1.687191e-22
0
3.4503168e-22
3.6423627e-22
-1.8788126e-22
-2.0550143e-34
1.751827e-22
-3.3517265e-22
-3.3815751e-22
3.5634722e-22
5.3858511e-38
4.3639161e-34
5.6063275e-38
-3.939675e-22
2.0156403e-22
-2.3498991e-34
2.2370502e-22
-2.3091744e-22
-6.8915713e-22
6.788467e-22
2.3077427e-22
-2.4635441e-22
-2.9691013e-34
-2.8657323e-22
5.9220234e-22
5.8736872e-22
-5.7894961e-22
-9.8208986e-34
-3.117415e-22
-3.3464342e-22
7.1220476e-22
-3.6898637e-22
4.1186609e-34
-2.0506935e-34
3.7413175e-22
7.8001675e-22
-8.2607398e-22
-8.7262959e-22
0
4.5660707e-22
5.0508279e-34
-9.1626566e-22
-5.2453875e-34
1.4861001e-21
1.039881e-21
0
-1.0860622e-21
-1.2029564e-33
-5.4432769e-22
-5.5666227e-22
1.7316217e-21
-3.3320997e-34
-1.2349867e-21
6.2398429e-22
1.2472315e-21
-6.2570649e-22
-1.271147e-21
-6.5262651e-22
0
1.3776743e-21
-6.9438133e-22
-2.0778095e-21
6.9253353e-22
6.9938824e-22
1.4267445e-21
7.3178148e-22
-1.4905838e-21
-7.493351e-22
-7.4727122e-22
8.2856459e-34
7.5158788e-22
7.63335e-22
1.5574401e-21
7.8867614e-22
0
0
0
-1.5535414e-21
-1.5695772e-21
1.594452e-21
8.9516209e-34
8.9737733e-34
-8.9515131e-34
-1.7886679e-33
1.6090339e-21
0
-1.5943575e-21
-7.9159847e-22
7.8964362e-22
-7.9449441e-22
-8.0460833e-22
0
0
1.5599046e-21
-2.5324015e-33
-1.6741569e-33
1.5287281e-21
-1.5647125e-21
-1.5899565e-21
0
1.5403621e-21
-8.2747991e-34
-1.456071e-21
1.4485256e-21
8.1596153e-34
-1.4965414e-21
0
1.5030782e-21
7.411309e-22
-1.4540444e-21
7.1503275e-22
1.5700946e-33
-1.4073902e-21
1.4118348e-21
1.4209591e-21
0
0
0
-1.3840334e-21
-1.3669352e-21
1.3608253e-21
0
-1.3815047e-21
0
-6.9117243e-22
1.3659542e-21
6.7606582e-22
-6.7526129e-22
1.3623285e-21
6.9125261e-22
-1.3933319e-21
-6.9410036e-22
-7.6459775e-34
6.8566012e-22
-1.5304792e-33
3.9777373e-37
1.4242856e-21
0
-7.1973681e-22
-1.4381749e-21
-7.2225087e-22
0
0
0
-7.5873796e-22
1.5202321e-21
7.6274722e-22
-7.7135054e-22
-7.8784097e-22
8.0703939e-22
8.1984136e-22
-1.6442602e-21
0
1.6543163e-21
1.6749644e-21
0
0
-1.7916741e-21
-9.9991362e-34
-9.036885e-22
-9.0931747e-22
9.1910328e-22
-9.365481e-22
9.5611047e-22
1.9433789e-21
9.8235741e-22
0
-2.0050399e-21
-1.1260599e-33
1.0264562e-21
-1.0353949e-21
-1.0432807e-21
-2.1010385e-21
2.1158828e-21
1.0691737e-21
-3.0840107e-37
1.0986704e-21
-2.2107577e-21
1.109132e-21
-1.1124878e-21
2.2945102e-50
1.1223204e-21
-2.2683388e-21
2.2932009e-21
2.3055311e-21
0
-1.1563948e-21
-2.3162556e-21
6.4510482e-34
1.1679467e-21
1.1711841e-21
-2.3387517e-21
-2.3330106e-21
1.1680893e-21
2.3449679e-21
2.3394023e-21
-1.1613215e-21
-2.2964992e-21
1.1390617e-21
-1.1450565e-21
1.9205159e-33
1.153874e-21
-2.2837483e-21
2.2446059e-21
1.2225476e-33
-6.0650942e-33
2.201552e-21
-2.215109e-21
-4.902031e-33
1.0888313e-21
-2.1366885e-21
1.0481615e-21
-2.9433726e-37
4.5958383e-33
1.0319607e-21
-2.0407201e-21
2.2262176e-33
-5.4391201e-34
9.6085952e-22
-2.7034307e-37
-1.8931596e-21
1.8747361e-21
5.2103779e-37
-3.9551687e-33
1.7325496e-21
-1.6990471e-21
-1.8738162e-33
1.6733212e-21
-8.1809643e-22
-7.8667917e-22
-7.5153277e-22
7.2590899e-22
-7.9609567e-34
-1.4373787e-21
0
0
1.3331151e-21
1.7777431e-37
-1.1811844e-21
5.7033466e-22
-6.2695427e-34
5.6246075e-22
1.2306282e-33
-1.0755068e-21
0
-4.8752582e-22
9.1812529e-22
4.3194769e-22
-9.0615625e-34
3.9038168e-22
-7.5897505e-22
3.7095318e-22
-3.9917031e-34
-6.8009726e-22
0
0
2.507855e-22
-1.3127141e-34
2.3034422e-22
-2.2417062e-22
-6.374032e-22
5.7589306e-22
1.6306702e-22
-2.6786552e-22
1.1309446e-22
1.7015413e-34
9.6379373e-23
-5.0686359e-38
-2.5552584e-34
5.7065701e-23
-6.3829909e-23
-8.8228346e-24
0
1.2494714e-23
-1.6871671e-23
-2.4548092e-23
-3.8930415e-23
1.3374294e-34
-9.1591904e-35
1.0772399e-34
2.0438252e-22
-1.0368261e-22
-1.7913895e-34
2.337617e-22
-1.8793906e-38
-1.502661e-22
-3.277718e-22
-3.4133114e-22
3.4837286e-22
1.983739e-34
1.855897e-22
1.9348164e-22
-3.9801716e-22
4.0323842e-22
2.0412774e-22