/*--------------------------------*- C++ -*----------------------------------*\
  =========                 |
  \\      /  F ield         | OpenFOAM: The Open Source CFD Toolbox
   \\    /   O peration     | Website:  https://openfoam.org
    \\  /    A nd           | Version:  7
     \\/     M anipulation  |
\*---------------------------------------------------------------------------*/
FoamFile
{
    version     2.0;
    format      ascii;
    class       surfaceScalarField;
    location    "0.00194";
    object      phi;
}
// * * * * * * * * * * * * * * * * * * * * * * * * * * * * * * * * * * * * * //

dimensions      [1 0 -1 0 0 0 0];

internalField   nonuniform List<scalar> 
4999
(
-2.3654848
-2.3645209
-2.3635571
-2.3625932
-2.3616293
-2.3606655
-2.3597016
-2.3587377
-2.3577738
-2.3568099
-2.3558461
-2.3548822
-2.3539183
-2.3529544
-2.3519905
-2.3510266
-2.3500627
-2.3490988
-2.3481349
-2.347171
-2.3462071
-2.3452432
-2.3442793
-2.3433154
-2.3423515
-2.3413876
-2.3404237
-2.3394598
-2.3384959
-2.337532
-2.3365681
-2.3356042
-2.3346403
-2.3336764
-2.3327125
-2.3317486
-2.3307847
-2.3298208
-2.3288569
-2.327893
-2.3269291
-2.3259652
-2.3250014
-2.3240375
-2.3230735
-2.3221097
-2.3211458
-2.3201819
-2.319218
-2.3182541
-2.3172902
-2.3163263
-2.3153624
-2.3143985
-2.3134346
-2.3124707
-2.3115068
-2.310543
-2.309579
-2.3086151
-2.3076513
-2.3066873
-2.3057235
-2.3047595
-2.3037956
-2.3028318
-2.3018677
-2.300904
-2.2999401
-2.298976
-2.2980124
-2.2970482
-2.2960844
-2.2951207
-2.2941564
-2.2931929
-2.2922287
-2.2912649
-2.2903012
-2.2893367
-2.2883738
-2.2874085
-2.2864462
-2.2854807
-2.2845183
-2.283553
-2.2825903
-2.2816255
-2.2806622
-2.2796979
-2.2787342
-2.2777702
-2.2768063
-2.2758424
-2.2748784
-2.2739146
-2.2729506
-2.2719867
-2.2710227
-2.2700589
-2.2690949
-2.2681311
-2.2671672
-2.2662034
-2.2652396
-2.2642759
-2.2633122
-2.2623485
-2.261385
-2.2604215
-2.259458
-2.2584946
-2.2575313
-2.256568
-2.2556046
-2.2546413
-2.253678
-2.2527145
-2.2517511
-2.2507875
-2.2498238
-2.24886
-2.247896
-2.2469319
-2.2459676
-2.2450032
-2.2440386
-2.2430739
-2.242109
-2.241144
-2.2401789
-2.2392138
-2.2382485
-2.2372831
-2.2363177
-2.2353522
-2.2343866
-2.2334211
-2.2324555
-2.2314899
-2.2305242
-2.2295586
-2.2285929
-2.2276273
-2.2266616
-2.2256959
-2.2247302
-2.2237645
-2.2227988
-2.2218331
-2.2208674
-2.2199017
-2.218936
-2.2179702
-2.2170045
-2.2160388
-2.2150731
-2.2141074
-2.2131416
-2.2121759
-2.2112102
-2.2102444
-2.2092787
-2.208313
-2.2073472
-2.2063815
-2.2054157
-2.20445
-2.2034842
-2.2025185
-2.2015527
-2.200587
-2.1996212
-2.1986555
-2.1976897
-2.1967239
-2.1957582
-2.1947924
-2.1938266
-2.1928609
-2.1918951
-2.1909293
-2.1899635
-2.1889977
-2.188032
-2.1870662
-2.1861004
-2.1851346
-2.1841688
-2.183203
-2.1822372
-2.1812714
-2.1803056
-2.1793398
-2.178374
-2.1774082
-2.1764423
-2.1754765
-2.1745107
-2.1735449
-2.1725791
-2.1716132
-2.1706474
-2.1696816
-2.1687157
-2.1677499
-2.1667841
-2.1658182
-2.1648524
-2.1638865
-2.1629207
-2.1619548
-2.160989
-2.1600231
-2.1590573
-2.1580914
-2.1571256
-2.1561597
-2.1551938
-2.154228
-2.1532621
-2.1522962
-2.1513304
-2.1503645
-2.1493986
-2.1484327
-2.1474669
-2.146501
-2.1455351
-2.1445692
-2.1436034
-2.1426375
-2.1416716
-2.1407058
-2.1397399
-2.1387741
-2.1378082
-2.1368424
-2.1358766
-2.1349108
-2.133945
-2.1329792
-2.1320134
-2.1310476
-2.1300818
-2.1291161
-2.1281503
-2.1271846
-2.1262188
-2.1252531
-2.1242873
-2.1233215
-2.1223557
-2.1213899
-2.1204241
-2.1194582
-2.1184923
-2.1175264
-2.1165604
-2.1155944
-2.1146283
-2.1136621
-2.1126958
-2.1117295
-2.1107631
-2.1097967
-2.1088301
-2.1078635
-2.1068968
-2.10593
-2.1049631
-2.1039962
-2.1030291
-2.102062
-2.1010948
-2.1001276
-2.0991603
-2.0981929
-2.0972255
-2.0962581
-2.0952905
-2.094323
-2.0933554
-2.0923877
-2.0914201
-2.0904524
-2.0894847
-2.0885169
-2.0875492
-2.0865814
-2.0856136
-2.0846457
-2.0836779
-2.0827101
-2.0817422
-2.0807743
-2.0798065
-2.0788386
-2.0778707
-2.0769028
-2.0759349
-2.074967
-2.073999
-2.0730311
-2.0720632
-2.0710952
-2.0701273
-2.0691593
-2.0681914
-2.0672234
-2.0662554
-2.0652874
-2.0643194
-2.0633514
-2.0623834
-2.0614154
-2.0604474
-2.0594793
-2.0585113
-2.0575433
-2.0565752
-2.0556072
-2.0546391
-2.053671
-2.052703
-2.0517349
-2.0507668
-2.0497987
-2.0488306
-2.0478625
-2.0468944
-2.0459262
-2.0449581
-2.0439899
-2.0430218
-2.0420536
-2.0410855
-2.0401173
-2.0391491
-2.0381809
-2.0372127
-2.0362445
-2.0352763
-2.0343081
-2.0333398
-2.0323716
-2.0314033
-2.0304351
-2.0294668
-2.0284985
-2.0275302
-2.0265619
-2.0255936
-2.0246253
-2.023657
-2.0226886
-2.0217203
-2.0207519
-2.0197835
-2.0188152
-2.0178468
-2.0168784
-2.01591
-2.0149415
-2.0139731
-2.0130047
-2.0120362
-2.0110678
-2.0100993
-2.0091308
-2.0081623
-2.0071938
-2.0062253
-2.0052568
-2.0042882
-2.0033197
-2.0023511
-2.0013825
-2.000414
-1.9994454
-1.9984768
-1.9975082
-1.9965395
-1.9955709
-1.9946023
-1.9936336
-1.992665
-1.9916963
-1.9907277
-1.989759
-1.9887903
-1.9878216
-1.986853
-1.9858843
-1.9849156
-1.9839469
-1.9829782
-1.9820095
-1.9810407
-1.980072
-1.9791033
-1.9781345
-1.9771658
-1.976197
-1.9752282
-1.9742594
-1.9732906
-1.9723218
-1.9713529
-1.970384
-1.9694151
-1.9684461
-1.9674772
-1.9665081
-1.9655391
-1.9645699
-1.9636008
-1.9626315
-1.9616623
-1.9606929
-1.9597236
-1.9587541
-1.9577846
-1.956815
-1.9558454
-1.9548757
-1.953906
-1.9529362
-1.9519663
-1.9509964
-1.9500264
-1.9490563
-1.9480862
-1.9471161
-1.9461459
-1.9451757
-1.9442054
-1.9432351
-1.9422648
-1.9412944
-1.9403241
-1.9393537
-1.9383832
-1.9374128
-1.9364424
-1.935472
-1.9345016
-1.9335312
-1.9325608
-1.9315904
-1.93062
-1.9296497
-1.9286794
-1.9277092
-1.926739
-1.9257688
-1.9247987
-1.9238287
-1.9228587
-1.9218888
-1.9209189
-1.9199491
-1.9189794
-1.9180098
-1.9170403
-1.9160708
-1.9151015
-1.9141323
-1.9131632
-1.9121941
-1.9112253
-1.9102565
-1.9092879
-1.9083194
-1.907351
-1.9063828
-1.9054147
-1.9044468
-1.903479
-1.9025114
-1.901544
-1.9005768
-1.8996098
-1.8986429
-1.8976762
-1.8967098
-1.8957435
-1.8947775
-1.8938117
-1.8928461
-1.8918807
-1.8909156
-1.8899508
-1.8889861
-1.8880218
-1.8870577
-1.8860939
-1.8851303
-1.8841671
-1.8832041
-1.8822415
-1.8812791
-1.8803171
-1.8793554
-1.878394
-1.8774329
-1.8764722
-1.8755118
-1.8745518
-1.8735921
-1.8726328
-1.8716739
-1.8707154
-1.8697572
-1.8687994
-1.8678421
-1.8668851
-1.8659285
-1.8649724
-1.8640167
-1.8630614
-1.8621065
-1.8611521
-1.8601982
-1.8592447
-1.8582916
-1.857339
-1.8563869
-1.8554352
-1.8544841
-1.8535334
-1.8525832
-1.8516335
-1.8506843
-1.8497356
-1.8487875
-1.8478398
-1.8468927
-1.8459461
-1.845
-1.8440544
-1.8431094
-1.842165
-1.8412211
-1.8402777
-1.8393349
-1.8383927
-1.837451
-1.8365099
-1.8355694
-1.8346294
-1.8336901
-1.8327513
-1.8318131
-1.8308755
-1.8299385
-1.8290021
-1.8280663
-1.8271312
-1.8261966
-1.8252627
-1.8243293
-1.8233966
-1.8224646
-1.8215331
-1.8206023
-1.8196721
-1.8187425
-1.8178136
-1.8168853
-1.8159576
-1.8150306
-1.8141042
-1.8131784
-1.8122533
-1.8113288
-1.810405
-1.8094818
-1.8085592
-1.8076373
-1.806716
-1.8057953
-1.8048752
-1.8039558
-1.803037
-1.8021188
-1.8012012
-1.8002842
-1.7993678
-1.7984521
-1.7975369
-1.7966224
-1.7957084
-1.794795
-1.7938822
-1.79297
-1.7920583
-1.7911472
-1.7902367
-1.7893268
-1.7884174
-1.7875085
-1.7866002
-1.7856924
-1.7847852
-1.7838785
-1.7829723
-1.7820666
-1.7811614
-1.7802568
-1.7793526
-1.778449
-1.7775458
-1.7766431
-1.7757409
-1.7748392
-1.7739379
-1.7730371
-1.7721368
-1.7712369
-1.7703375
-1.7694385
-1.7685399
-1.7676418
-1.7667441
-1.7658468
-1.7649499
-1.7640534
-1.7631574
-1.7622617
-1.7613664
-1.7604715
-1.759577
-1.7586829
-1.7577891
-1.7568957
-1.7560027
-1.75511
-1.7542176
-1.7533256
-1.7524339
-1.7515426
-1.7506516
-1.7497608
-1.7488705
-1.7479804
-1.7470906
-1.7462011
-1.7453119
-1.7444229
-1.7435343
-1.7426459
-1.7417578
-1.7408699
-1.7399823
-1.739095
-1.7382079
-1.737321
-1.7364343
-1.7355479
-1.7346617
-1.7337757
-1.7328899
-1.7320043
-1.7311189
-1.7302336
-1.7293486
-1.7284637
-1.727579
-1.7266945
-1.7258101
-1.7249259
-1.7240418
-1.7231578
-1.722274
-1.7213903
-1.7205067
-1.7196232
-1.7187399
-1.7178566
-1.7169734
-1.7160903
-1.7152073
-1.7143244
-1.7134416
-1.7125588
-1.711676
-1.7107934
-1.7099107
-1.7090282
-1.7081456
-1.7072631
-1.7063806
-1.7054982
-1.7046157
-1.7037333
-1.7028508
-1.7019684
-1.701086
-1.7002035
-1.6993211
-1.6984386
-1.6975561
-1.6966736
-1.6957911
-1.6949085
-1.6940258
-1.6931432
-1.6922604
-1.6913776
-1.6904948
-1.6896119
-1.6887289
-1.6878458
-1.6869627
-1.6860794
-1.6851961
-1.6843126
-1.6834291
-1.6825454
-1.6816616
-1.6807777
-1.6798936
-1.6790094
-1.6781251
-1.6772405
-1.6763559
-1.675471
-1.6745859
-1.6737007
-1.6728152
-1.6719296
-1.6710437
-1.6701575
-1.6692712
-1.6683845
-1.6674976
-1.6666105
-1.665723
-1.6648352
-1.6639471
-1.6630587
-1.66217
-1.6612809
-1.6603915
-1.6595016
-1.6586114
-1.6577208
-1.6568298
-1.6559384
-1.6550465
-1.6541542
-1.6532614
-1.6523682
-1.6514745
-1.6505803
-1.6496855
-1.6487903
-1.6478945
-1.6469982
-1.6461013
-1.6452039
-1.6443059
-1.6434073
-1.6425081
-1.6416083
-1.6407079
-1.6398068
-1.6389051
-1.6380028
-1.6370997
-1.636196
-1.6352916
-1.6343866
-1.6334808
-1.6325743
-1.6316671
-1.6307591
-1.6298504
-1.628941
-1.6280308
-1.6271198
-1.626208
-1.6252955
-1.6243821
-1.623468
-1.622553
-1.6216373
-1.6207207
-1.6198032
-1.618885
-1.6179659
-1.6170459
-1.616125
-1.6152033
-1.6142808
-1.6133573
-1.612433
-1.6115077
-1.6105816
-1.6096545
-1.6087266
-1.6077977
-1.6068679
-1.6059372
-1.6050056
-1.604073
-1.6031395
-1.6022051
-1.6012697
-1.6003333
-1.599396
-1.5984578
-1.5975185
-1.5965784
-1.5956372
-1.5946951
-1.593752
-1.5928079
-1.5918629
-1.5909168
-1.5899698
-1.5890218
-1.5880729
-1.5871229
-1.5861719
-1.58522
-1.584267
-1.5833131
-1.5823582
-1.5814022
-1.5804453
-1.5794874
-1.5785285
-1.5775686
-1.5766077
-1.5756459
-1.574683
-1.5737191
-1.5727543
-1.5717885
-1.5708216
-1.5698538
-1.5688851
-1.5679153
-1.5669446
-1.5659729
-1.5650002
-1.5640266
-1.563052
-1.5620765
-1.5611
-1.5601226
-1.5591442
-1.5581649
-1.5571847
-1.5562035
-1.5552214
-1.5542385
-1.5532546
-1.5522698
-1.5512841
-1.5502976
-1.5493102
-1.5483219
-1.5473328
-1.5463428
-1.5453519
-1.5443603
-1.5433678
-1.5423745
-1.5413804
-1.5403855
-1.5393898
-1.5383934
-1.5373962
-1.5363982
-1.5353995
-1.5344
-1.5333999
-1.532399
-1.5313974
-1.5303951
-1.5293921
-1.5283885
-1.5273842
-1.5263792
-1.5253736
-1.5243674
-1.5233605
-1.522353
-1.521345
-1.5203363
-1.519327
-1.5183172
-1.5173069
-1.5162959
-1.5152844
-1.5142724
-1.5132599
-1.5122469
-1.5112333
-1.5102192
-1.5092047
-1.5081897
-1.5071742
-1.5061582
-1.5051418
-1.504125
-1.5031077
-1.50209
-1.5010718
-1.5000533
-1.4990343
-1.4980149
-1.4969952
-1.4959751
-1.4949546
-1.4939337
-1.4929125
-1.4918909
-1.4908689
-1.4898466
-1.4888241
-1.4878011
-1.4867779
-1.4857543
-1.4847305
-1.4837063
-1.4826818
-1.4816571
-1.4806321
-1.4796068
-1.4785813
-1.4775555
-1.4765294
-1.4755031
-1.4744766
-1.4734499
-1.4724229
-1.4713957
-1.4703682
-1.4693406
-1.4683128
-1.4672847
-1.4662565
-1.4652281
-1.4641995
-1.4631707
-1.4621418
-1.4611127
-1.4600834
-1.459054
-1.4580244
-1.4569947
-1.4559648
-1.4549348
-1.4539046
-1.4528744
-1.4518439
-1.4508134
-1.4497827
-1.4487519
-1.447721
-1.4466899
-1.4456588
-1.4446275
-1.4435961
-1.4425647
-1.4415331
-1.4405014
-1.4394696
-1.4384376
-1.4374056
-1.4363735
-1.4353413
-1.434309
-1.4332766
-1.4322441
-1.4312115
-1.4301789
-1.4291461
-1.4281132
-1.4270803
-1.4260472
-1.4250141
-1.4239809
-1.4229476
-1.4219142
-1.4208807
-1.4198472
-1.4188135
-1.4177798
-1.416746
-1.4157122
-1.4146782
-1.4136442
-1.4126101
-1.4115759
-1.4105416
-1.4095073
-1.4084729
-1.4074384
-1.4064039
-1.4053693
-1.4043346
-1.4032999
-1.4022651
-1.4012302
-1.4001953
-1.3991603
-1.3981252
-1.3970901
-1.3960549
-1.3950197
-1.3939844
-1.3929491
-1.3919136
-1.3908782
-1.3898427
-1.3888071
-1.3877714
-1.3867358
-1.3857
-1.3846642
-1.3836284
-1.3825925
-1.3815565
-1.3805205
-1.3794844
-1.3784483
-1.3774121
-1.3763759
-1.3753396
-1.3743033
-1.3732669
-1.3722305
-1.3711939
-1.3701574
-1.3691208
-1.3680841
-1.3670473
-1.3660106
-1.3649737
-1.3639368
-1.3628998
-1.3618628
-1.3608257
-1.3597886
-1.3587514
-1.3577141
-1.3566768
-1.3556394
-1.3546019
-1.3535644
-1.3525268
-1.3514892
-1.3504515
-1.3494138
-1.348376
-1.3473381
-1.3463002
-1.3452622
-1.3442242
-1.3431861
-1.3421479
-1.3411097
-1.3400715
-1.3390332
-1.3379948
-1.3369564
-1.335918
-1.3348795
-1.3338409
-1.3328023
-1.3317637
-1.330725
-1.3296863
-1.3286475
-1.3276087
-1.3265698
-1.3255309
-1.324492
-1.323453
-1.322414
-1.321375
-1.3203359
-1.3192968
-1.3182576
-1.3172185
-1.3161792
-1.31514
-1.3141007
-1.3130614
-1.3120221
-1.3109827
-1.3099433
-1.3089039
-1.3078644
-1.3068249
-1.3057853
-1.3047458
-1.3037062
-1.3026665
-1.3016269
-1.3005872
-1.2995474
-1.2985076
-1.2974678
-1.296428
-1.2953881
-1.2943481
-1.2933081
-1.2922681
-1.291228
-1.2901879
-1.2891478
-1.2881076
-1.2870673
-1.286027
-1.2849867
-1.2839463
-1.2829058
-1.2818653
-1.2808247
-1.2797841
-1.2787434
-1.2777027
-1.2766619
-1.2756211
-1.2745801
-1.2735392
-1.2724982
-1.2714571
-1.2704159
-1.2693747
-1.2683334
-1.2672921
-1.2662507
-1.2652093
-1.2641678
-1.2631262
-1.2620846
-1.2610429
-1.2600011
-1.2589593
-1.2579174
-1.2568755
-1.2558335
-1.2547915
-1.2537494
-1.2527072
-1.251665
-1.2506227
-1.2495804
-1.248538
-1.2474955
-1.246453
-1.2454105
-1.2443679
-1.2433252
-1.2422825
-1.2412397
-1.2401969
-1.239154
-1.2381111
-1.2370681
-1.236025
-1.2349819
-1.2339388
-1.2328956
-1.2318524
-1.2308091
-1.2297657
-1.2287223
-1.2276789
-1.2266354
-1.2255918
-1.2245482
-1.2235045
-1.2224608
-1.221417
-1.2203732
-1.2193293
-1.2182854
-1.2172414
-1.2161973
-1.2151532
-1.214109
-1.2130648
-1.2120205
-1.2109762
-1.2099318
-1.2088873
-1.2078428
-1.2067982
-1.2057536
-1.2047089
-1.2036641
-1.2026193
-1.2015744
-1.2005294
-1.1994844
-1.1984393
-1.1973942
-1.196349
-1.1953037
-1.1942584
-1.193213
-1.1921675
-1.191122
-1.1900765
-1.1890308
-1.1879851
-1.1869393
-1.1858935
-1.1848476
-1.1838017
-1.1827557
-1.1817096
-1.1806635
-1.1796173
-1.178571
-1.1775247
-1.1764783
-1.1754319
-1.1743854
-1.1733389
-1.1722922
-1.1712456
-1.1701989
-1.1691521
-1.1681052
-1.1670583
-1.1660114
-1.1649643
-1.1639173
-1.1628701
-1.1618229
-1.1607757
-1.1597284
-1.158681
-1.1576336
-1.1565861
-1.1555386
-1.154491
-1.1534433
-1.1523956
-1.1513478
-1.1503
-1.1492521
-1.1482041
-1.1471561
-1.146108
-1.1450599
-1.1440117
-1.1429634
-1.1419151
-1.1408667
-1.1398182
-1.1387697
-1.1377212
-1.1366725
-1.1356238
-1.134575
-1.1335262
-1.1324773
-1.1314284
-1.1303794
-1.1293303
-1.1282812
-1.127232
-1.1261827
-1.1251334
-1.124084
-1.1230346
-1.121985
-1.1209355
-1.1198859
-1.1188362
-1.1177864
-1.1167366
-1.1156868
-1.1146369
-1.1135869
-1.1125369
-1.1114868
-1.1104367
-1.1093865
-1.1083362
-1.1072859
-1.1062356
-1.1051852
-1.1041348
-1.1030843
-1.1020337
-1.1009831
-1.0999325
-1.0988818
-1.0978311
-1.0967803
-1.0957295
-1.0946787
-1.0936277
-1.0925768
-1.0915258
-1.0904748
-1.0894237
-1.0883726
-1.0873214
-1.0862702
-1.085219
-1.0841677
-1.0831164
-1.082065
-1.0810136
-1.0799622
-1.0789107
-1.0778592
-1.0768076
-1.075756
-1.0747043
-1.0736526
-1.0726009
-1.0715491
-1.0704973
-1.0694454
-1.0683935
-1.0673415
-1.0662895
-1.0652374
-1.0641853
-1.0631332
-1.062081
-1.0610287
-1.0599764
-1.058924
-1.0578716
-1.0568192
-1.0557666
-1.0547141
-1.0536614
-1.0526087
-1.051556
-1.0505032
-1.0494503
-1.0483974
-1.0473444
-1.0462914
-1.0452383
-1.0441851
-1.0431319
-1.0420786
-1.0410252
-1.0399718
-1.0389183
-1.0378648
-1.0368112
-1.0357575
-1.0347038
-1.03365
-1.0325961
-1.0315422
-1.0304882
-1.0294341
-1.02838
-1.0273258
-1.0262715
-1.0252172
-1.0241628
-1.0231083
-1.0220538
-1.0209992
-1.0199445
-1.0188898
-1.017835
-1.0167801
-1.0157252
-1.0146701
-1.0136151
-1.01256
-1.0115048
-1.0104495
-1.0093942
-1.0083388
-1.0072833
-1.0062278
-1.0051722
-1.0041165
-1.0030608
-1.002005
-1.0009491
-0.99989322
-0.99883722
-0.99778117
-0.99672504
-0.99566885
-0.99461259
-0.99355627
-0.99249987
-0.99144341
-0.99038688
-0.98933029
-0.98827363
-0.98721689
-0.98616009
-0.98510322
-0.98404628
-0.98298928
-0.9819322
-0.98087505
-0.97981784
-0.97876055
-0.9777032
-0.97664577
-0.97558827
-0.97453071
-0.97347307
-0.97241537
-0.97135759
-0.97029975
-0.96924183
-0.96818385
-0.96712579
-0.96606766
-0.96500947
-0.96395121
-0.96289288
-0.96183448
-0.96077601
-0.95971748
-0.95865888
-0.95760021
-0.95654148
-0.95548269
-0.95442383
-0.9533649
-0.95230592
-0.95124687
-0.95018776
-0.94912859
-0.94806937
-0.94701008
-0.94595074
-0.94489134
-0.94383188
-0.94277238
-0.94171281
-0.9406532
-0.93959353
-0.93853382
-0.93747406
-0.93641424
-0.93535438
-0.93429448
-0.93323453
-0.93217454
-0.93111451
-0.93005443
-0.92899432
-0.92793416
-0.92687397
-0.92581374
-0.92475348
-0.92369318
-0.92263285
-0.92157248
-0.92051209
-0.91945166
-0.91839121
-0.91733073
-0.91627021
-0.91520968
-0.91414911
-0.91308852
-0.91202791
-0.91096727
-0.90990661
-0.90884593
-0.90778522
-0.9067245
-0.90566375
-0.90460298
-0.9035422
-0.90248139
-0.90142056
-0.90035972
-0.89929885
-0.89823797
-0.89717706
-0.89611614
-0.8950552
-0.89399424
-0.89293325
-0.89187225
-0.89081123
-0.88975018
-0.88868912
-0.88762803
-0.88656692
-0.88550579
-0.88444463
-0.88338344
-0.88232223
-0.881261
-0.88019973
-0.87913843
-0.87807711
-0.87701575
-0.87595436
-0.87489293
-0.87383147
-0.87276997
-0.87170844
-0.87064686
-0.86958524
-0.86852357
-0.86746187
-0.86640011
-0.86533831
-0.86427646
-0.86321455
-0.86215259
-0.86109058
-0.86002851
-0.85896638
-0.85790418
-0.85684193
-0.85577961
-0.85471722
-0.85365476
-0.85259223
-0.85152962
-0.85046694
-0.84940418
-0.84834134
-0.84727842
-0.84621541
-0.84515232
-0.84408913
-0.84302586
-0.84196248
-0.84089901
-0.83983544
-0.83877177
-0.83770799
-0.83664411
-0.83558011
-0.834516
-0.83345178
-0.83238743
-0.83132296
-0.83025837
-0.82919365
-0.8281288
-0.82706382
-0.82599869
-0.82493343
-0.82386802
-0.82280247
-0.82173676
-0.8206709
-0.81960488
-0.8185387
-0.81747235
-0.81640583
-0.81533914
-0.81427227
-0.81320521
-0.81213797
-0.81107054
-0.81000291
-0.80893508
-0.80786704
-0.80679878
-0.80573031
-0.80466162
-0.8035927
-0.80252354
-0.80145415
-0.8003845
-0.7993146
-0.79824444
-0.79717401
-0.79610331
-0.79503232
-0.79396105
-0.79288947
-0.79181759
-0.7907454
-0.78967288
-0.78860003
-0.78752684
-0.7864533
-0.78537939
-0.78430512
-0.78323046
-0.78215541
-0.78107996
-0.7800041
-0.77892781
-0.77785108
-0.77677391
-0.77569626
-0.77461815
-0.77353954
-0.77246044
-0.77138082
-0.77030067
-0.76921997
-0.76813871
-0.76705688
-0.76597445
-0.76489141
-0.76380775
-0.76272344
-0.76163847
-0.76055283
-0.75946648
-0.75837942
-0.75729162
-0.75620306
-0.75511374
-0.75402361
-0.75293267
-0.75184089
-0.75074825
-0.74965473
-0.74856029
-0.74746493
-0.74636861
-0.74527132
-0.74417302
-0.7430737
-0.74197333
-0.74087187
-0.73976932
-0.73866563
-0.73756077
-0.73645474
-0.73534748
-0.73423898
-0.73312921
-0.73201815
-0.73090574
-0.72979198
-0.72867682
-0.72756023
-0.72644218
-0.72532264
-0.72420157
-0.72307894
-0.72195472
-0.72082888
-0.71970137
-0.71857217
-0.71744124
-0.71630854
-0.71517404
-0.71403769
-0.71289948
-0.71175935
-0.71061726
-0.70947319
-0.70832708
-0.70717891
-0.70602862
-0.70487619
-0.70372157
-0.70256472
-0.70140561
-0.70024419
-0.69908042
-0.69791425
-0.69674566
-0.69557458
-0.69440099
-0.69322484
-0.69204609
-0.6908647
-0.68968062
-0.68849382
-0.68730424
-0.68611185
-0.6849166
-0.68371844
-0.68251734
-0.68131325
-0.68010614
-0.67889594
-0.67768263
-0.67646616
-0.67524648
-0.67402356
-0.67279735
-0.6715678
-0.67033488
-0.66909853
-0.66785872
-0.66661541
-0.66536854
-0.66411809
-0.662864
-0.66160623
-0.66034475
-0.65907952
-0.65781049
-0.65653762
-0.65526088
-0.65398023
-0.65269562
-0.65140701
-0.65011437
-0.64881766
-0.64751684
-0.64621188
-0.64490274
-0.64358938
-0.64227178
-0.64094988
-0.63962366
-0.6382931
-0.63695814
-0.63561877
-0.63427495
-0.63292665
-0.63157383
-0.63021648
-0.62885456
-0.62748805
-0.6261169
-0.62474111
-0.62336064
-0.62197546
-0.62058556
-0.61919091
-0.61779149
-0.61638728
-0.61497826
-0.61356439
-0.61214568
-0.61072209
-0.60929361
-0.60786023
-0.60642192
-0.60497867
-0.60353047
-0.6020773
-0.60061916
-0.59915603
-0.5976879
-0.59621477
-0.59473661
-0.59325344
-0.59176523
-0.59027198
-0.58877368
-0.58727034
-0.58576195
-0.5842485
-0.58273
-0.58120645
-0.57967785
-0.5781442
-0.57660549
-0.57506174
-0.57351295
-0.57195911
-0.57040025
-0.56883636
-0.56726745
-0.56569353
-0.56411461
-0.5625307
-0.56094182
-0.55934797
-0.55774916
-0.55614541
-0.55453674
-0.55292315
-0.55130467
-0.54968131
-0.54805309
-0.54642003
-0.54478214
-0.54313945
-0.54149197
-0.53983973
-0.53818274
-0.53652103
-0.53485462
-0.53318354
-0.53150781
-0.52982746
-0.5281425
-0.52645297
-0.5247589
-0.5230603
-0.52135721
-0.51964966
-0.51793767
-0.51622128
-0.5145005
-0.51277539
-0.51104595
-0.50931223
-0.50757426
-0.50583207
-0.50408569
-0.50233515
-0.50058049
-0.49882174
-0.49705893
-0.4952921
-0.49352128
-0.49174651
-0.48996782
-0.48818525
-0.48639883
-0.4846086
-0.48281459
-0.48101685
-0.4792154
-0.47741028
-0.47560154
-0.4737892
-0.47197331
-0.4701539
-0.46833101
-0.46650467
-0.46467492
-0.46284181
-0.46100537
-0.45916563
-0.45732264
-0.45547643
-0.45362703
-0.4517745
-0.44991886
-0.44806016
-0.44619842
-0.44433369
-0.44246601
-0.44059541
-0.43872194
-0.43684562
-0.4349665
-0.43308461
-0.43119999
-0.42931267
-0.4274227
-0.42553011
-0.42363494
-0.42173722
-0.41983699
-0.41793428
-0.41602914
-0.41412159
-0.41221168
-0.41029943
-0.40838489
-0.40646808
-0.40454905
-0.40262782
-0.40070444
-0.39877893
-0.39685133
-0.39492167
-0.39299
-0.39105633
-0.38912071
-0.38718316
-0.38524371
-0.38330241
-0.38135928
-0.37941434
-0.37746765
-0.37551921
-0.37356908
-0.37161727
-0.36966381
-0.36770874
-0.36575209
-0.36379388
-0.36183414
-0.35987291
-0.3579102
-0.35594605
-0.35398049
-0.35201355
-0.35004524
-0.3480756
-0.34610466
-0.34413243
-0.34215894
-0.34018423
-0.33820831
-0.3362312
-0.33425294
-0.33227355
-0.33029305
-0.32831146
-0.32632881
-0.32434511
-0.3223604
-0.3203747
-0.31838802
-0.3164004
-0.31441184
-0.31242238
-0.31043203
-0.30844082
-0.30644876
-0.30445588
-0.30246219
-0.30046771
-0.29847247
-0.29647648
-0.29447976
-0.29248233
-0.2904842
-0.2884854
-0.28648594
-0.28448584
-0.28248511
-0.28048377
-0.27848184
-0.27647933
-0.27447626
-0.27247263
-0.27046848
-0.2684638
-0.26645863
-0.26445296
-0.26244681
-0.2604402
-0.25843315
-0.25642566
-0.25441774
-0.25240942
-0.25040069
-0.24839159
-0.24638211
-0.24437227
-0.24236208
-0.24035155
-0.23834069
-0.23632952
-0.23431805
-0.23230628
-0.23029422
-0.22828189
-0.2262693
-0.22425645
-0.22224336
-0.22023003
-0.21821647
-0.21620269
-0.2141887
-0.2121745
-0.21016011
-0.20814553
-0.20613076
-0.20411583
-0.20210073
-0.20008547
-0.19807007
-0.19605452
-0.19403883
-0.19202301
-0.19000707
-0.18799101
-0.18597484
-0.18395856
-0.18194218
-0.1799257
-0.17790913
-0.17589248
-0.17387574
-0.17185892
-0.16984204
-0.16782509
-0.16580807
-0.163791
-0.16177388
-0.15975671
-0.1577395
-0.15572225
-0.15370497
-0.15168766
-0.14967031
-0.14765294
-0.14563555
-0.14361813
-0.1416007
-0.13958324
-0.13756577
-0.13554828
-0.13353079
-0.13151328
-0.12949577
-0.12747825
-0.12546074
-0.12344323
-0.12142573
-0.11940823
-0.11739075
-0.11537328
-0.11335583
-0.11133838
-0.10932095
-0.10730353
-0.10528612
-0.10326873
-0.10125134
-0.099233966
-0.097216602
-0.095199251
-0.093181915
-0.091164597
-0.089147299
-0.087130026
-0.08511278
-0.083095564
-0.08107838
-0.079061228
-0.077044107
-0.075027015
-0.073009946
-0.070992898
-0.068975864
-0.066958841
-0.064941827
-0.062924819
-0.060907818
-0.058890822
-0.056873834
-0.054856854
-0.052839884
-0.050822927
-0.048805987
-0.046789066
-0.04477217
-0.042755299
-0.040738454
-0.038721629
-0.036704818
-0.03468801
-0.032671199
-0.030654377
-0.028637544
-0.0266207
-0.024603848
-0.022586988
-0.020570118
-0.018553235
-0.016536332
-0.014519399
-0.012502424
-0.0104854
-0.0084683457
-0.0064513372
-0.0044345078
-0.0024178827
-0.0004010968
0.0016160906
0.0036334373
0.0056505864
0.0076675649
0.0096845078
0.011701495
0.013718547
0.015735661
0.017752827
0.019770038
0.021787292
0.02380459
0.025821935
0.027839331
0.029856777
0.031874271
0.033891805
0.035909374
0.037926972
0.039944596
0.041962248
0.043979933
0.045997655
0.048015422
0.050033239
0.052051111
0.054069042
0.056087035
0.058105092
0.06012321
0.06214139
0.064159627
0.066177918
0.068196259
0.070214647
0.072233078
0.074251553
0.076270072
0.078288638
0.080307253
0.082325921
0.084344645
0.086363428
0.088382272
0.090401177
0.092420145
0.094439174
0.096458263
0.098477411
0.10049662
0.10251588
0.10453519
0.10655456
0.10857398
0.11059345
0.11261298
0.11463256
0.11665219
0.11867188
0.12069162
0.12271142
0.12473127
0.12675118
0.12877114
0.13079116
0.13281122
0.13483133
0.13685149
0.1388717
0.14089195
0.14291224
0.14493258
0.14695296
0.14897339
0.15099386
0.15301438
0.15503494
0.15705554
0.15907618
0.16109687
0.1631176
0.16513837
0.16715918
0.16918002
0.17120091
0.17322183
0.17524279
0.17726378
0.17928481
0.18130587
0.18332696
0.18534809
0.18736925
0.18939044
0.19141166
0.19343291
0.19545419
0.1974755
0.19949683
0.20151819
0.20353958
0.20556099
0.20758243
0.20960389
0.21162537
0.21364687
0.2156684
0.21768995
0.21971152
0.22173311
0.22375472
0.22577635
0.22779801
0.22981968
0.23184136
0.23386307
0.23588479
0.23790654
0.23992829
0.24195007
0.24397186
0.24599366
0.24801548
0.25003731
0.25205915
0.25408101
0.25610287
0.25812475
0.26014664
0.26216854
0.26419044
0.26621236
0.26823428
0.27025621
0.27227815
0.27430009
0.27632205
0.278344
0.28036597
0.28238794
0.28440992
0.2864319
0.28845389
0.29047589
0.29249789
0.2945199
0.29654191
0.29856393
0.30058595
0.30260798
0.30463001
0.30665205
0.30867408
0.31069612
0.31271816
0.3147402
0.31676224
0.31878428
0.32080632
0.32282836
0.3248504
0.32687243
0.32889447
0.3309165
0.33293853
0.33496056
0.33698259
0.33900462
0.34102664
0.34304867
0.34507069
0.34709271
0.34911473
0.35113674
0.35315876
0.35518077
0.35720278
0.35922479
0.36124679
0.36326879
0.36529079
0.36731278
0.36933477
0.37135675
0.37337873
0.37540071
0.37742268
0.37944464
0.3814666
0.38348855
0.3855105
0.38753244
0.38955437
0.3915763
0.39359822
0.39562013
0.39764203
0.39966392
0.40168581
0.40370768
0.40572955
0.4077514
0.40977325
0.41179508
0.41381691
0.41583872
0.41786052
0.41988232
0.4219041
0.42392587
0.42594763
0.42796939
0.42999113
0.43201286
0.43403459
0.43605631
0.43807802
0.44009972
0.44212142
0.44414312
0.44616482
0.44818651
0.4502082
0.4522299
0.4542516
0.4562733
0.45829502
0.46031674
0.46233847
0.46436021
0.46638197
0.46840375
0.47042554
0.47244735
0.47446917
0.47649102
0.47851288
0.48053477
0.48255667
0.48457859
0.48660053
0.48862248
0.49064445
0.49266644
0.49468843
0.49671044
0.49873245
0.50075446
0.50277647
0.50479848
0.50682048
0.50884247
0.51086445
0.5128864
0.51490833
0.51693024
0.51895211
0.52097395
0.52299575
0.52501751
0.52703924
0.52906092
0.53108256
0.53310416
0.53512572
0.53714724
0.53916871
0.54119014
0.54321154
0.54523289
0.54725421
0.54927549
0.55129675
0.55331798
0.55533918
0.55736037
0.55938154
0.5614027
0.56342385
0.56544499
0.56746613
0.56948726
0.57150839
0.57352953
0.57555067
0.57757182
0.57959297
0.58161414
0.58363531
0.5856565
0.5876777
0.58969891
0.59172013
0.59374137
0.59576261
0.59778387
0.59980513
0.6018264
0.60384768
0.60586896
0.60789025
0.60991154
0.61193283
0.61395412
0.61597541
0.6179967
0.62001799
0.62203926
0.62406053
0.62608179
0.62810304
0.63012427
0.63214549
0.63416669
0.63618788
0.63820905
0.6402302
0.64225133
0.64427244
0.64629352
0.64831458
0.65033562
0.65235664
0.65437763
0.65639859
0.65841953
0.66044043
0.66246132
0.66448217
0.66650299
0.66852378
0.67054455
0.67256528
0.67458598
0.67660665
0.67862728
0.68064789
0.68266846
0.68468899
0.68670949
0.68872996
0.6907504
0.6927708
0.69479116
0.69681149
0.69883178
0.70085204
0.70287227
0.70489245
0.7069126
0.70893272
0.71095279
0.71297283
0.71499283
0.71701279
0.71903272
0.7210526
0.72307244
0.72509225
0.72711201
0.72913173
0.73115142
0.73317106
0.73519066
0.73721023
0.73922975
0.74124924
0.74326868
0.74528808
0.74730745
0.74932677
0.75134604
0.75336528
0.75538447
0.75740363
0.75942274
0.76144181
0.76346083
0.76547981
0.76749875
0.76951764
0.77153649
0.7735553
0.77557406
0.77759277
0.77961144
0.78163007
0.78364865
0.78566718
0.78768567
0.78970411
0.79172251
0.79374086
0.79575916
0.79777742
0.79979564
0.8018138
0.80383192
0.80585
0.80786803
0.80988601
0.81190395
0.81392184
0.81593969
0.8179575
0.81997525
0.82199296
0.82401062
0.82602823
0.8280458
0.83006331
0.83208078
0.83409819
0.83611556
0.83813288
0.84015016
0.84216738
0.84418456
0.8462017
0.84821878
0.85023581
0.8522528
0.85426974
0.85628663
0.85830347
0.86032026
0.86233701
0.8643537
0.86637035
0.86838694
0.87040349
0.87242
0.87443646
0.87645287
0.87846923
0.88048555
0.88250183
0.88451805
0.88653423
0.88855036
0.89056645
0.89258248
0.89459847
0.89661442
0.89863032
0.90064617
0.90266197
0.90467773
0.90669344
0.90870911
0.91072473
0.91274031
0.91475585
0.91677134
0.91878679
0.92080219
0.92281755
0.92483286
0.92684813
0.92886336
0.93087854
0.93289368
0.93490877
0.93692382
0.93893883
0.9409538
0.94296872
0.9449836
0.94699845
0.94901325
0.95102801
0.95304273
0.95505741
0.95707206
0.95908666
0.96110123
0.96311575
0.96513024
0.9671447
0.96915911
0.97117349
0.97318783
0.97520214
0.97721642
0.97923066
0.98124486
0.98325903
0.98527317
0.98728726
0.98930132
0.99131535
0.99332934
0.99534329
0.99735722
0.99937111
1.001385
1.0033988
1.0054126
1.0074264
1.0094402
1.0114539
1.0134676
1.0154813
1.0174949
1.0195085
1.0215221
1.0235357
1.0255492
1.0275627
1.0295762
1.0315897
1.0336031
1.0356165
1.0376299
1.0396433
1.0416567
1.04367
1.0456833
1.0476965
1.0497098
1.051723
1.0537362
1.0557494
1.0577625
1.0597757
1.0617888
1.0638019
1.0658149
1.067828
1.069841
1.071854
1.073867
1.07588
1.077893
1.0799059
1.0819188
1.0839317
1.0859446
1.0879575
1.0899704
1.0919832
1.093996
1.0960088
1.0980217
1.1000344
1.1020472
1.1040599
1.1060727
1.1080854
1.1100981
1.1121109
1.1141235
1.1161362
1.118149
1.1201616
1.1221743
1.124187
1.1261996
1.1282123
1.1302249
1.1322376
1.1342502