/*--------------------------------*- C++ -*----------------------------------*\
  =========                 |
  \\      /  F ield         | OpenFOAM: The Open Source CFD Toolbox
   \\    /   O peration     | Website:  https://openfoam.org
    \\  /    A nd           | Version:  7
     \\/     M anipulation  |
\*---------------------------------------------------------------------------*/
FoamFile
{
    version     2.0;
    format      ascii;
    class       volScalarField;
    location    "0.00018";
    object      Uy;
}
// * * * * * * * * * * * * * * * * * * * * * * * * * * * * * * * * * * * * * //

dimensions      [0 1 -1 0 0 0 0];

internalField   nonuniform List<scalar> 
5000
(
1.5999161e-16
1.6677951e-16
0
0
-8.6672259e-17
9.8593686e-32
8.6717023e-17
0
0
-8.6676407e-17
-1.7331759e-16
8.6641001e-17
8.6623022e-17
-8.6605041e-17
0
-8.6569069e-17
-8.8648936e-48
8.6533114e-17
0
8.6497183e-17
-8.6479226e-17
-8.6461274e-17
1.7288665e-16
-8.6425377e-17
-8.6407433e-17
-7.1204773e-31
8.6371552e-17
8.6353615e-17
-1.7267136e-16
1.4965118e-30
-1.5084649e-30
8.6281899e-17
1.7252796e-16
-1.7249212e-16
1.4949584e-30
-7.4977417e-30
-2.9886749e-30
1.7234887e-16
-1.7231307e-16
-1.7227728e-16
1.722415e-16
-5.9222011e-30
-1.7216996e-16
8.6067097e-17
2.5814766e-16
-8.6031344e-17
-8.6013472e-17
-5.8903823e-30
-1.7195547e-16
0
8.5942012e-17
1.2210557e-32
-8.5906298e-17
1.7177689e-16
-3.0019246e-30
-1.7170549e-16
8.5834899e-17
-2.9634669e-30
-8.5799214e-17
0
8.5763536e-17
2.9244473e-30
2.4365325e-32
8.5710034e-17
-8.5692204e-17
2.995065e-30
8.5656548e-17
-8.5638722e-17
-8.5620897e-17
8.5603074e-17
8.5585252e-17
-8.5567432e-17
-8.5549613e-17
1.7106359e-16
8.5513978e-17
-8.5496162e-17
0
8.5460533e-17
-1.2142141e-32
-8.5424909e-17
8.5407098e-17
-2.4269095e-32
2.4264034e-32
8.5353671e-17
8.5335864e-17
2.9704842e-30
-8.5300252e-17
0
-8.5264644e-17
-8.8434424e-30
-2.9794966e-30
8.5211236e-17
8.5193435e-17
-1.7035127e-16
-5.8935065e-30
8.5140034e-17
0
0
-8.5086635e-17
-5.8994363e-30
1.7010207e-16
-8.5033238e-17
-1.7003088e-16
0
8.4979838e-17
8.4962037e-17
-8.4944236e-17
-8.4926434e-17
0
0
8.4873023e-17
8.4855217e-17
0
-8.4819602e-17
2.9645607e-30
8.4783983e-17
-8.4766171e-17
2.4086932e-32
-2.9620699e-30
-5.6123106e-49
1.6938982e-16
-3.6100016e-32
-8.4659275e-17
0
-8.4623633e-17
8.460581e-17
8.4587987e-17
-1.6914032e-16
-8.4552337e-17
1.6906902e-16
8.4516683e-17
-8.4498856e-17
-8.4481028e-17
-8.4463199e-17
0
8.4427542e-17
8.4409713e-17
-8.4391884e-17
-2.925627e-30
8.4356227e-17
-8.43384e-17
-8.4320573e-17
0
8.4284922e-17
8.4267097e-17
-8.4249275e-17
8.4231453e-17
-4.7869909e-32
-8.4195816e-17
8.4178e-17
-8.4160187e-17
5.8591019e-30
8.4124567e-17
-8.4106762e-17
8.408896e-17
8.4071161e-17
-8.4053367e-17
0
0
-8.4000009e-17
-8.3982234e-17
8.3964464e-17
8.3946701e-17
-8.3928946e-17
-5.8191552e-30
8.3893459e-17
-8.387573e-17
-8.3858012e-17
0
8.3822613e-17
8.3804936e-17
0
-8.3769632e-17
-8.3752011e-17
0
8.3716841e-17
1.7413381e-29
-8.3681788e-17
8.3664314e-17
8.364688e-17
-8.3629491e-17
-5.7746527e-30
5.7497e-30
3.5631294e-32
8.3560494e-17
-8.3543415e-17
-1.1584942e-29
5.7438291e-30
-5.7426732e-30
8.3476009e-17
0
0
-8.342667e-17
-8.3410511e-17
0
0
8.336306e-17
4.517485e-49
-8.3332411e-17
0
8.3302673e-17
-8.3288179e-17
-2.3076184e-29
1.6652001e-16
-8.3246355e-17
-1.7280886e-29
-1.182627e-32
-8.3207269e-17
8.3194898e-17
-1.1820997e-32
-1.1512034e-29
5.7552324e-30
-8.314887e-17
0
8.3127947e-17
5.7523356e-30
2.3065728e-29
8.3099037e-17
0
-8.3081209e-17
-8.3072644e-17
0
0
0
8.3039675e-17
5.746346e-30
-8.3023068e-17
0
0
8.2995968e-17
8.2985862e-17
-8.297497e-17
-8.296312e-17
0
8.2935747e-17
8.2919777e-17
-8.2901948e-17
-8.288198e-17
0
8.2834373e-17
-2.299359e-29
-5.740304e-30
8.2738366e-17
-8.2698155e-17
-8.2653064e-17
0
8.2546151e-17
-1.1463694e-29
8.2413121e-17
1.1419731e-29
-1.6449788e-16
8.2153448e-17
-1.1379895e-29
-2.8444417e-29
-5.6614258e-30
-8.1664525e-17
8.1511491e-17
8.1344425e-17
0
-8.0964617e-17
-8.0750048e-17
0
8.0266945e-17
7.9996549e-17
-1.5941137e-16
-7.9393437e-17
7.9058903e-17
7.8701202e-17
2.1725501e-29
-7.7912908e-17
7.7480705e-17
-5.3414052e-30
-7.6536474e-17
7.6023109e-17
-5.2452874e-30
5.2162903e-30
-2.1120528e-32
-5.0888219e-30
7.3022618e-17
0
0
-7.0863627e-17
-7.008348e-17
0
0
0
0
6.573861e-17
4.4650858e-30
-1.2760484e-16
2.6770979e-32
6.1761725e-17
6.0704619e-17
-8.2782663e-30
-8.1086385e-30
-8.1570399e-33
-5.6258448e-17
-5.509912e-17
-5.3923587e-17
1.0546682e-16
1.5459059e-16
-5.031561e-17
-9.8182677e-17
0
4.662066e-17
4.5377758e-17
-4.4132168e-17
1.2188837e-32
-1.7752193e-32
1.1481488e-32
3.9158109e-17
3.7925323e-17
-3.6700194e-17
-7.0968675e-17
3.4279323e-17
5.7068011e-47
3.1907819e-17
8.5195709e-30
-5.9194144e-17
0
0
5.2534206e-17
-1.3993911e-29
-4.8301455e-17
0
2.2125807e-17
2.114952e-17
-2.0198182e-17
2.73876e-33
-2.5508169e-30
2.486705e-33
1.665145e-17
-1.5830996e-17
-1.5037388e-17
0
1.3530824e-17
-1.7796173e-30
-1.21313e-17
2.2942506e-17
-3.0062329e-30
-1.0229227e-17
-2.6786537e-30
-1.8177743e-17
1.7111484e-17
8.0466563e-18
-7.5610789e-18
-1.0087497e-33
-6.6581618e-18
0
0
5.4651836e-18
-7.0846703e-31
-9.5398121e-18
6.3242115e-34
1.244517e-17
-3.8635884e-18
-3.5951828e-18
6.6849916e-18
-3.1048564e-18
2.8816014e-18
5.344155e-18
-2.475643e-18
-2.2916687e-18
-2.11954e-18
1.9586572e-18
1.3965913e-47
-1.6683137e-18
1.5377384e-18
-1.4161812e-18
1.3031307e-18
3.3200599e-31
3.1280927e-34
1.0101925e-18
-1.8528764e-18
8.4892167e-19
2.1582594e-31
-1.972384e-31
-6.4993008e-19
-1.1871775e-18
1.6250662e-18
1.3701255e-31
-2.4965976e-31
1.1352212e-31
-7.45269e-19
6.7736376e-19
-8.5320558e-32
-5.5821241e-19
0
0
2.075652e-19
-2.6041727e-32
-1.6970927e-19
-1.5327569e-19
1.3832612e-19
3.742147e-19
-1.1239857e-19
-1.0120199e-19
-2.5878311e-35
-8.1856296e-20
0
1.3201674e-19
1.1841648e-19
-5.3068908e-20
-9.5061412e-20
-4.2538854e-20
7.6086214e-20
6.7994868e-20
-6.0719408e-20
-5.4182798e-20
0
4.3050854e-20
-1.9166408e-20
-3.4107292e-20
1.516291e-20
1.347218e-20
-1.6998269e-36
1.47346e-33
9.4092814e-21
-8.3365106e-21
-7.3808836e-21
6.5302503e-21
-8.0079236e-34
-7.2491997e-37
-6.2468476e-34
-3.9738745e-21
3.5038126e-21
-1.2859031e-33
-3.774194e-34
-6.6385945e-34
-2.1033236e-21
1.8482801e-21
-2.2534856e-34
-3.9491311e-34
-1.7751748e-37
-2.1895836e-21
-9.5886461e-22
8.3926567e-22
1.4682129e-21
-8.9094756e-35
-1.1211551e-21
-4.8938954e-22
8.5393578e-22
3.7227033e-22
-3.243741e-22
-2.8246148e-22
-6.8221438e-35
2.1377904e-22
0
0
1.4010087e-22
0
-1.0537715e-22
9.1306453e-23
1.1236021e-38
-1.8990595e-35
0
-5.1153361e-23
4.4188485e-23
3.8149252e-23
-6.5832292e-23
-2.8384341e-23
2.4461829e-23
0
0
-1.560113e-23
3.7266188e-36
1.1526219e-23
0
0
-7.2879144e-24
2.6033147e-36
5.3529789e-24
0
0
0
0
0
0
0
0
2.5984911e-24
6.1445414e-37
-9.4236342e-25
8.0217419e-25
-6.8255483e-25
5.8056679e-25
-1.3712596e-37
-4.1869308e-25
-9.8677013e-38
-3.0145496e-25
0
0
1.8376087e-25
4.3120194e-38
-1.3152556e-25
0
0
0
0
0
0
0
6.8093356e-26
-2.34082e-38
-4.6611524e-26
2.0063221e-26
2.4695612e-42
1.4794092e-26
-6.798738e-39
-2.016455e-26
-8.5623343e-27
-3.4151832e-56
1.9151257e-26
0
-9.119646e-27
0
0
5.573117e-27
-6.043297e-40
-4.2558348e-27
7.599705e-28
4.053176e-28
-7.093058e-28
1.1146234e-27
-9.119646e-28
-1.8270433e-40
4.053176e-28
-1.519941e-28
0
-6.079764e-28
5.573117e-28
3.039882e-28
2.533235e-28
5.06647e-28
3.039882e-28
-1.013294e-28
5.06647e-28
5.06647e-28
-2.533235e-28
0
5.06647e-29
2.026588e-28
5.06647e-29
3.039882e-28
5.7599095e-44
-6.079764e-28
4.053176e-28
5.6274316e-41
1.519941e-28
5.7599095e-44
8.106352e-28
-3.039882e-28
0
8.4411474e-41
7.1998869e-45
-4.053176e-28
3.546529e-28
-4.2205737e-41
-3.5135448e-41
7.8111722e-56
1.013294e-28
2.533235e-28
4.8788331e-57
-2.8137158e-41
3.5999434e-44
8.106352e-28
7.7297985e-41
-4.559823e-28
0
0
2.026588e-28
6.3243806e-41
3.546529e-28
-7.599705e-28
8.4411474e-41
-2.059023e-71
-2.1102868e-41
-1.013294e-28
-5.06647e-29
-1.4054179e-41
5.06647e-29
0
0
0
0
-8.4353875e-41
-3.546529e-28
2.026588e-28
0
1.1022843e-42
-4.053176e-28
4.053176e-28
2.533235e-28
0
2.026588e-28
3.546529e-28
-3.039882e-28
1.519941e-28
-1.013294e-28
-1.519941e-28
-4.9189627e-41
-5.6541872e-41
8.4411474e-41
-2.3592589e-44
0
0
0
5.06647e-29
2.026588e-28
0
-5.06647e-29
2.1059669e-41
-5.06647e-29
0
0
2.026588e-28
4.2162538e-41
-2.8079559e-41
-3.039882e-28
5.06647e-28
-1.0540634e-40
-3.039882e-28
0
2.533235e-28
9.1445763e-41
-5.573117e-28
4.053176e-28
-4.053176e-28
-2.533235e-28
5.06647e-29
0
3.039882e-28
-1.013294e-28
1.519941e-28
1.013294e-28
0
-2.026588e-28
4.218355e-41
-1.519941e-28
-2.1382118e-44
1.013294e-28
-1.1254863e-40
-1.519941e-28
-2.4394166e-56
-6.586411e-28
-1.3172822e-27
2.8108358e-40
5.06647e-28
-1.519941e-28
1.519941e-28
-2.533235e-28
-5.06647e-28
1.013294e-27
0
0
3.039882e-28
7.806133e-56
-3.039882e-28
0
0
8.106352e-28
-7.806133e-56
-9.119646e-28
0
0
-7.093058e-28
-7.093058e-28
6.079764e-28
-1.519941e-28
0
5.06647e-28
-8.4411474e-41
1.013294e-28
-1.013294e-28
0
-5.06647e-29
5.06647e-29
-1.4399774e-44
2.026588e-28
-3.546529e-28
2.026588e-28
5.06647e-29
4.053176e-28
3.546529e-28
-5.6274316e-41
-4.2215623e-41
-4.053176e-28
-1.2661721e-40
1.519941e-28
-1.519941e-28
1.519941e-28
-1.013294e-28
3.039882e-28
3.039882e-28
-1.4068579e-41
-1.013294e-28
4.053176e-28
-3.5999434e-44
1.519941e-28
-1.519941e-28
2.026588e-28
2.026588e-28
1.519941e-28
1.013294e-27
-1.6890935e-40
-2.1382118e-43
1.519941e-28
-4.3199321e-44
-1.687342e-40
8.6398642e-44
-5.06647e-29
0
2.026588e-28
0
-2.026588e-28
0
0
0
1.519941e-28
2.9272999e-56
6.586411e-28
0
-1.013294e-28
7.0342895e-41
1.519941e-28
0
0
0
2.533235e-28
-1.4068579e-41
2.026588e-28
0
2.533235e-28
7.8407117e-54
2.026588e-28
0
-1.013294e-28
3.546529e-28
-3.3781869e-40
-4.559823e-28
2.026588e-28
0
-5.06647e-28
-4.2205737e-41
-5.06647e-29
0
-1.519941e-28
2.026588e-28
1.6882295e-40
-5.06647e-28
2.2503966e-40
1.4399774e-44
5.6303115e-41
-4.3199321e-44
-1.519941e-28
0
-4.559823e-28
-1.5709971e-53
-4.2184137e-41
-1.4636499e-56
-2.8137158e-41
0
5.06647e-28
1.2661721e-40
-3.546529e-28
1.519941e-28
1.4061379e-41
2.8336188e-41
-1.519941e-28
-1.4068579e-41
4.2205737e-41
-2.026588e-28
5.06647e-29
1.4136021e-41
0
-5.573117e-28
4.2205737e-41
1.519941e-28
0
0
0
6.079764e-28
-6.1901747e-40
-9.119646e-28
0
0
0
0
0
0
0
-9.119646e-28
2.2521246e-40
2.026588e-28
1.519941e-28
-5.573117e-28
-7.093058e-28
5.6303115e-41
-1.1243343e-40
-1.519941e-28
-2.777546e-41
3.546529e-28
2.026588e-28
3.039882e-28
-1.519941e-28
1.9685931e-40
-5.06647e-29
-5.06647e-29
-7.0270896e-41
-5.06647e-29
1.519941e-28
-3.039882e-28
-7.093058e-28
3.546529e-28
5.06647e-29
0
1.1796295e-44
-2.8134163e-41
-4.2162538e-41
-1.013294e-28
1.519941e-28
-2.026588e-28
-1.013294e-28
1.013294e-28
5.06647e-29
9.8480053e-41
-5.06647e-28
-4.559823e-28
-7.4864529e-59
-9.119646e-28
-1.9690971e-40
-1.519941e-28
-2.533235e-28
0
-1.013294e-28
0
0
0
-4.559823e-28
-1.013294e-28
-1.013294e-28
-1.013294e-28
0
2.026588e-28
-8.4454673e-41
-3.546529e-28
0
0
-5.06647e-29
-1.1249103e-40
-2.533235e-28
0
0
-2.533235e-28
3.374731e-40
4.053176e-28
0
-2.9007514e-41
-2.8137158e-41
-7.12122e-56
1.4068579e-41
-1.013294e-28
0
-4.559823e-28
2.5304002e-40
3.039882e-28
0
1.519941e-28
4.2377094e-41
-5.06647e-29
7.093058e-28
1.4082979e-41
7.093058e-28
-1.4068579e-40
-4.559823e-28
0
0
-2.533235e-28
4.2184137e-41
1.4997203e-41
0
-5.6950343e-41
-2.533235e-28
-6.586411e-28
4.559823e-28
0
-2.026588e-28
2.026588e-28
5.6245516e-41
-8.6121772e-54
-1.519941e-28
-4.2191337e-41
4.053176e-28
-1.519941e-28
-2.8122758e-41
8.4411474e-41
7.093058e-28
-4.2162538e-41
5.06647e-29
0
0
0
1.013294e-28
-2.026588e-28
2.7694724e-41
-1.5087525e-41
0
0
-1.013294e-28
-4.8788331e-57
-2.026588e-28
0
2.026588e-28
5.06647e-29
2.7043675e-41
3.546529e-28
0
-3.039882e-28
-5.7599095e-44
1.0639587e-27
-5.6216717e-41
7.093058e-28
-5.06647e-28
-2.8799547e-44
-1.013294e-28
-2.8151558e-41
-8.4325075e-41
1.013294e-28
0
5.06647e-29
1.1251983e-40
8.106352e-28
-2.533235e-28
-2.5306162e-40
-1.013294e-28
3.039882e-28
-1.4399774e-44
-1.013294e-28
0
0
0
2.533235e-28
-5.06647e-29
2.026588e-28
2.026588e-28
4.2205737e-41
-1.4054179e-41
8.9216146e-44
0
-1.013294e-28
3.5999434e-44
8.106352e-28
-3.546529e-28
-2.8108358e-41
-2.026588e-28
-4.559823e-28
4.2227337e-40
1.2159528e-27
0
5.06647e-29
2.533235e-28
0
-4.053176e-28
-8.3988853e-41
-4.559823e-28
0
1.013294e-28
0
0
7.4468644e-43
1.6876535e-40
1.013294e-28
0
0
1.519941e-28
1.519941e-28
-1.013294e-28
-2.026588e-28
2.026588e-28
1.519941e-28
5.6368605e-41
1.013294e-28
4.2227337e-41
3.039882e-28
2.3332845e-53
2.2486687e-40
-4.053176e-28
4.559823e-28
-5.06647e-28
4.053176e-28
8.6398642e-44
2.533235e-28
-8.106352e-28
-1.013294e-28
1.013294e-28
5.6268325e-41
-8.106352e-28
5.06647e-28
-5.06647e-29
-2.026588e-28
-1.9696011e-40
-9.119646e-28
5.06647e-29
1.4061379e-41
7.8426559e-54
3.546529e-28
0
0
3.039882e-28
3.546529e-28
0
-5.573117e-28
-5.573117e-28
0
2.026588e-28
-5.6274316e-41
5.06647e-29
-2.026588e-28
-2.8108358e-41
-6.079764e-28
0
-3.546529e-28
-5.6259916e-41
-1.519941e-28
3.039882e-28
-5.6187917e-41
-1.013294e-28
2.026588e-28
1.5467517e-40
-3.039882e-28
0
-5.8981473e-45
1.4061183e-41
-8.6398642e-44
2.2509726e-40
2.533235e-28
-2.533235e-28
0
2.026588e-28
-2.2498207e-40
0
-8.4368274e-41
-3.039882e-28
3.039882e-28
3.039882e-28
2.026588e-28
2.026588e-28
5.06647e-29
0
5.573117e-28
1.013294e-28
-7.8053989e-56
5.06647e-29
5.06647e-29
1.519941e-28
-2.026588e-28
1.013294e-28
6.079764e-28
7.5944407e-40
2.026588e-28
1.3872136e-40
-3.374731e-40
6.586411e-28
-2.026588e-28
1.013294e-28
-2.026588e-28
-1.4054179e-40
-8.106352e-28
-1.013294e-28
-7.093058e-28
7.093058e-28
1.4061379e-41
-2.533235e-28
-2.8137158e-41
-3.039882e-28
-4.2184137e-41
-1.9515332e-56
1.013294e-28
5.06647e-28
-4.559823e-28
-4.3909498e-56
-5.06647e-28
-5.9077952e-40
1.013294e-28
2.026588e-28
-1.4061379e-40
-6.079764e-28
-1.4636499e-56
-3.039882e-28
0
0
-5.06647e-28
5.06647e-29
-3.039882e-28
0
0
0
-5.06647e-29
-3.039882e-28
0
4.559823e-28
-1.519941e-28
8.4382674e-41
-2.026588e-28
0
0
0
5.06647e-29
-5.06647e-29
-1.013294e-28
6.079764e-28
3.6578305e-40
-7.093058e-28
0
0
-6.079764e-28
1.5839751e-43
8.4416134e-41
6.079764e-28
-6.079764e-28
3.039882e-28
-5.6274316e-41
-1.013294e-28
0
0
1.013294e-28
2.026588e-28
0
0
-1.013294e-28
-5.06647e-29
0
4.053176e-28
4.053176e-28
-1.519941e-28
1.3810496e-41
-5.06647e-29
2.533235e-28
4.053176e-28
-1.6882295e-40
-1.013294e-28
1.013294e-28
4.2184137e-41
-4.053176e-28
0
5.06647e-29
-5.6259916e-41
-1.519941e-28
5.06647e-29
5.6259916e-41
-5.06647e-29
0
-5.06647e-28
9.8480053e-41
-2.1599661e-44
2.533235e-28
-1.013294e-28
-2.026588e-28
0
4.053176e-28
-1.1254863e-40
2.026588e-28
3.5999434e-44
4.053176e-28
-5.06647e-28
1.013294e-28
-2.026588e-28
5.06647e-29
0
-5.06647e-28
4.2176937e-40
9.4370357e-44
0
1.013294e-27
2.2509726e-40
-1.013294e-28
7.0342895e-41
9.119646e-28
-6.079764e-28
-5.0618085e-40
3.039882e-28
-2.026588e-28
8.4346675e-41
3.039882e-28
-5.06647e-29
3.039882e-28
5.06647e-29
-3.63496e-43
1.013294e-28
1.2654521e-40
5.06647e-28
-1.3172822e-27
1.4068579e-40
-2.533235e-28
-5.6216717e-41
-6.079764e-28
-1.1249103e-40
-6.079764e-28
4.053176e-28
6.079764e-28
0
-8.4389874e-41
4.053176e-28
2.8137158e-40
3.039882e-28
-6.079764e-28
2.1095669e-40
-3.9376901e-40
1.1243343e-40
1.519941e-28
0
-4.053176e-28
-6.586411e-28
0
0
0
0
0
3.039882e-28
4.218355e-41
0
2.533235e-28
1.013294e-28
2.5319122e-40
1.013294e-28
0
0
0
-2.026588e-28
-2.533235e-28
-5.06647e-29
-3.039882e-28
4.053176e-28
7.5970326e-40
-9.119646e-28
0
4.053176e-28
9.2836781e-40
-5.06647e-28
5.06647e-29
5.06647e-29
-5.06647e-29
-1.1249103e-40
1.013294e-28
0
0
5.06647e-29
-3.546529e-28
0
1.013294e-28
-8.6398642e-44
-4.053176e-28
-2.026588e-28
-1.519941e-27
0
5.06647e-28
4.053176e-28
0
-7.599705e-28
-5.06647e-28
1.013294e-28
-2.1382118e-44
-1.013294e-28
7.599705e-28
2.533235e-28
-1.4399774e-44
-1.519941e-28
2.026588e-28
4.053176e-28
4.053176e-28
2.9272999e-56
-5.06647e-29
5.06647e-29
5.06647e-29
0
2.026588e-28
-2.026588e-28
0
4.053176e-28
5.06647e-28
1.4057779e-40
1.519941e-28
-3.039882e-28
7.093058e-28
4.053176e-28
2.533235e-28
3.546529e-28
0
-3.039882e-28
8.5749518e-43
-1.519941e-28
-5.2691398e-55
-8.5553807e-41
-1.013294e-28
-7.3768306e-43
5.06647e-29
-2.026588e-28
2.026588e-28
1.519941e-28
-1.013294e-28
-3.039882e-28
-3.039882e-28
9.119646e-28
5.06647e-28
-1.0639587e-27
5.06647e-29
-3.039882e-28
-4.053176e-28
2.533235e-28
-1.519941e-28
2.5306162e-40
-1.6876535e-40
-3.039882e-28
1.013294e-28
-1.013294e-28
3.039882e-28
1.519941e-28
3.039882e-28
2.8799547e-44
-1.519941e-28
4.053176e-28
1.0639587e-27
3.039882e-28
2.026588e-28
7.599705e-28
0
-1.519941e-28
5.06647e-29
-6.079764e-28
1.013294e-28
1.013294e-28
-3.1306252e-53
1.6871495e-40
-2.811057e-41
0
-7.093058e-28
-4.053176e-28
-1.013294e-28
-6.079764e-28
-1.1146234e-27
-2.026588e-28
-4.559823e-28
6.079764e-28
0
5.06647e-28
8.106352e-28
-4.559823e-28
-6.079764e-28
5.6245516e-41
1.519941e-28
-2.026588e-28
9.621953e-44
-6.749462e-40
-7.093058e-28
2.026588e-28
0
-1.013294e-28
0
2.2501086e-40
2.533235e-28
5.06647e-28
-1.6894175e-40
6.2454382e-55
3.039882e-28
0
-1.013294e-28
1.519941e-28
-3.039882e-28
-1.6875815e-40
-2.026588e-28
-7.093058e-28
8.106352e-28
-1.2653081e-39
-4.053176e-28
-3.039882e-28
-2.2484843e-40
1.013294e-27
9.119646e-28
0
9.119646e-28
-1.013294e-28
7.599705e-28
9.119646e-28
-2.026588e-28
1.1248947e-40
2.026588e-28
3.039882e-28
-2.026588e-28
5.06647e-29
3.4211388e-43
5.06647e-29
-3.1222937e-55
4.053176e-28
8.106352e-28
-4.559823e-28
1.519941e-28
1.0969748e-39
-1.8239292e-27
0
6.079764e-28
5.06647e-28
-2.026588e-28
5.06647e-29
-5.06647e-29
0
-5.06647e-29
-3.1295523e-53
-2.026588e-28
-2.2492447e-40
-5.573117e-28
0
-2.533235e-28
2.026588e-28
-1.6922378e-40
5.06647e-28
4.559823e-28
-5.06647e-29
1.013294e-28
1.013294e-27
-4.559823e-28
-1.519941e-28
-2.026588e-28
5.06647e-28
-4.053176e-28
5.06647e-29
1.519941e-28
-1.013294e-28
2.533235e-28
6.079764e-28
-5.6245516e-40
3.374731e-40
-3.039882e-28
-2.8122758e-40
-1.519941e-28
2.026588e-28
-2.8330289e-41
-2.026588e-28
5.06647e-29
-2.533235e-28
1.519941e-28
3.039882e-28
6.079764e-28
-7.599705e-28
1.4399774e-44
-3.039882e-28
1.013294e-28
2.026588e-28
0
-3.546529e-28
-5.06647e-29
-2.250217e-40
-2.1271594e-43
-3.7614258e-52
-4.559823e-28
2.026588e-28
1.519941e-28
1.519941e-28
-1.519941e-28
-1.013294e-28
-3.039882e-28
1.013294e-28
-3.039882e-28
8.4382674e-41
-5.06647e-29
4.053176e-28
-1.519941e-28
-1.4057779e-40
-8.4368274e-41
-6.4798982e-44
-3.039882e-28
-2.026588e-28
1.519941e-28
-9.4370357e-44
-1.1249103e-40
-5.06647e-28
0
0
-3.546529e-28
1.6873655e-40
-1.1246223e-40
-1.519941e-28
-2.026588e-28
-3.546529e-28
-1.6869335e-40
-1.013294e-28
-1.519941e-28
3.039882e-28
0
0
0
1.519941e-28
-4.053176e-28
-6.079764e-28
7.3137891e-40
1.013294e-27
0
0
1.013294e-28
3.374731e-40
5.6231116e-41
-1.013294e-28
5.06647e-29
-3.039882e-28
-3.039882e-28
4.053176e-28
7.599705e-28
-2.026588e-28
0
0
0
6.079764e-28
1.013294e-28
-1.519941e-28
-4.4996413e-40
-3.546529e-28
-2.1599661e-44
2.533235e-28
3.039882e-28
-4.4996413e-40
-3.546529e-28
1.013294e-28
0
1.4064979e-40
7.093058e-28
1.1146234e-27
-1.6719351e-27
-1.013294e-27
3.039882e-28
8.4346675e-41
-2.533235e-28
3.039882e-28
-4.053176e-28
2.533235e-28
2.533235e-28
-3.039882e-28
-2.533235e-28
2.026588e-28
5.06647e-29
1.6873655e-40
-3.9361782e-40
-7.599705e-28
0
-2.533235e-28
-6.079764e-28
-1.519941e-28
-4.053176e-28
-3.039882e-28
1.519941e-28
-4.4990653e-40
-4.053176e-28
3.546529e-28
-3.546529e-28
5.06647e-29
-3.039882e-28
-3.039882e-28
-3.546529e-28
2.026588e-28
-1.1649641e-43
-4.053176e-28
1.1146234e-27
-1.4054179e-40
1.519941e-28
1.519941e-28
1.519941e-28
2.533235e-28
7.093058e-28
-7.599705e-28
-5.7599095e-44
-1.8239292e-27
-3.546529e-28
4.559823e-28
-5.06647e-29
5.2691398e-55
8.4353875e-41
5.6256529e-41
-4.053176e-28
-4.053176e-28
-1.519941e-28
1.1249103e-40
-2.026588e-28
2.533235e-28
1.519941e-28
-5.06647e-29
1.519941e-28
0
3.039882e-28
-2.026588e-28
-7.1998869e-45
-1.3679469e-27
-3.039882e-28
5.06647e-28
-5.0399208e-44
-2.026588e-28
-4.053176e-28
6.7506139e-40
3.039882e-28
7.599705e-28
4.053176e-28
0
0
1.013294e-28
1.7004072e-40
5.06647e-29
-4.559823e-28
5.6245516e-41
2.2536823e-40
-3.63496e-43
4.053176e-28
1.013294e-28
5.06647e-28
-1.013294e-28
-1.519941e-28
1.519941e-28
2.8128265e-41
-8.4382674e-41
1.4054179e-40
2.533235e-28
5.06647e-29
-1.013294e-28
9.119646e-28
0
1.519941e-28
6.079764e-28
-1.0639587e-27
5.7599095e-44
2.533235e-28
-1.013294e-28
-3.039882e-28
-2.026588e-28
1.1249103e-40
-1.013294e-28
2.026588e-28
-2.533235e-28
-9.119646e-28
-5.06647e-28
5.6259916e-41
5.06647e-29
5.06647e-29
4.053176e-28
2.2799115e-27
0
-1.8239292e-27
-1.519941e-27
1.6719351e-27
-2.2503966e-40
3.039882e-28
-4.053176e-28
-2.026588e-28
5.6216717e-41
4.053176e-28
-1.6873655e-40
-3.039882e-28
1.1247663e-40
3.374299e-40
6.079764e-28
7.599705e-28
-6.079764e-28
2.8129958e-40
5.0616645e-40
2.026588e-28
3.039882e-28
1.1246587e-40
-3.039882e-28
-1.519941e-28
-6.8422777e-43
1.013294e-28
8.6398642e-44
-9.119646e-28
-1.519941e-28
-5.06647e-29
-3.039882e-28
-5.0625285e-40
-6.079764e-28
-2.026588e-28
-3.3777217e-40
-9.119646e-28
6.079764e-28
3.546529e-28
-1.8860741e-52
-4.559823e-28
9.119646e-28
-3.6559586e-40
5.573117e-28
-3.546529e-28
-3.375307e-40
-1.0639587e-27
3.039882e-28
1.519941e-28
0
0
0
5.06647e-29
1.519941e-28
5.06647e-29
1.1249103e-40
1.519941e-28
-3.039882e-28
3.546529e-28
-3.546529e-28
5.06647e-29
-1.013294e-28
7.093058e-28
-4.559823e-28
2.026588e-28
-6.749462e-40
-1.013294e-28
-1.0639587e-27
-9.119646e-28
0
-7.093058e-28
-4.4996413e-40
-2.026588e-28
9.119646e-28
1.013294e-28
-5.06647e-29
0
0
1.013294e-28
2.026588e-28
1.1249103e-40
5.06647e-28
2.533235e-28
-4.053176e-28
2.533235e-28
-1.013294e-28
-3.6883978e-54
-2.5314802e-40
-1.1583327e-42
0
0
-8.106352e-28
-3.039882e-28
1.013294e-28
-2.2495327e-40
-1.6719351e-27
3.375595e-40
-7.093058e-28
0
5.06647e-28
-3.2073177e-44
6.8422777e-43
0
3.039882e-28
-1.3679469e-27
8.4238807e-41
5.0620965e-40
1.013294e-28
-4.559823e-28
-5.06647e-28
0
0
0
-9.119646e-28
-5.06647e-28
1.519941e-28
-6.079764e-28
0
-4.053176e-28
1.1249103e-40
-1.519941e-28
5.06647e-28
-1.013294e-28
-5.06647e-28
-5.573117e-28
4.559823e-28
1.013294e-28
1.1283158e-40
1.2718747e-43
5.06647e-29
-5.06647e-28
-1.0639587e-27
0
9.621953e-43
3.039882e-28
-2.026588e-28
1.519941e-28
-5.6245516e-40
5.573117e-28
-6.7506139e-40
2.026588e-28
2.2503966e-40
-1.9515332e-56
-8.106352e-28
0
-5.573117e-28
3.039882e-28
-9.119646e-28
1.0639587e-27
9.119646e-28
0
-3.039882e-28
-1.013294e-28
2.1382118e-43
5.06647e-29
1.519941e-28
-6.079764e-28
-1.013294e-28
-8.106352e-28
1.013294e-28
-1.013294e-28
-1.519941e-28
7.599705e-28
-1.3363824e-42
-1.6873655e-40
2.026588e-28
8.6398642e-44
2.5284471e-40
-5.06647e-28
-6.079764e-28
-5.06647e-29
1.519941e-28
-2.026588e-28
9.119646e-28
-3.375163e-40
-6.079764e-28
-1.519941e-28
-8.4368274e-41
-1.013294e-28
1.6873655e-40
-4.559823e-28
-3.546529e-28
3.039882e-28
-5.06647e-29
-1.1249103e-40
-4.053176e-28
1.0124193e-39
7.599705e-28
-2.026588e-28
-2.8137158e-40
-1.1257743e-40
2.2501086e-40
1.013294e-28
-1.519941e-28
-1.519941e-28
-2.5306162e-40
-3.374731e-40
4.559823e-28
-5.06647e-29
5.06647e-28
-5.6245516e-41
-1.013294e-28
1.013294e-28
-9.119646e-28
-1.4186116e-27
8.4357475e-40
9.119646e-28
2.2492447e-40
4.559823e-28
-1.1146234e-27
3.546529e-28
1.013294e-28
1.9675851e-40
-3.0935034e-40
5.06647e-29
6.079764e-28
-4.559823e-28
1.5188881e-39
3.374731e-40
-3.039882e-28
1.013294e-27
-1.4399774e-43
-5.06647e-28
-2.533235e-28
-1.9759233e-27
-4.053176e-28
1.6834932e-40
-5.6245516e-41
-3.039882e-28
1.013294e-28
2.026588e-28
-2.5314802e-40
1.013294e-28
-2.026588e-28
4.053176e-28
-9.119646e-28
2.026588e-28
-1.519941e-28
0
0
4.053176e-28
1.4399774e-44
-3.039882e-28
2.533235e-28
7.599705e-28
2.533235e-28
2.5658541e-43
5.7599095e-44
3.9371861e-40
7.093058e-28
-1.2159528e-27
-7.5935767e-40
-2.533235e-28
1.519941e-28
3.039882e-28
-5.0646884e-40
-2.533235e-28
1.013294e-28
-4.053176e-28
1.0124193e-39
-2.2486981e-40
4.559823e-28
1.3662451e-42
2.533235e-28
6.079764e-28
2.533235e-28
-2.026588e-28
0
3.546529e-28
-6.586411e-28
-2.2799115e-27
-3.0935034e-40
2.026588e-28
3.546529e-28
5.573117e-28
-4.053176e-28
-2.533235e-28
2.533235e-28
4.053176e-28
-6.079764e-28
6.749462e-40
3.7683372e-52
2.026588e-28
3.039882e-28
1.013294e-28
1.7105694e-43
-1.1257743e-40
-2.026588e-28
7.093058e-28
-6.079764e-28
-7.599705e-28
0
-5.06647e-29
2.8122758e-40
1.2959796e-43
3.039882e-28
2.533235e-28
-4.559823e-28
1.013294e-28
-1.053828e-54
6.079764e-28
-5.573117e-28
-1.2159528e-27
1.519941e-28
-1.2159528e-27
7.599705e-28
-9.626293e-28
3.0372579e-39
1.2159528e-27
-9.119646e-28
-1.6882295e-40
2.4751195e-39
-1.6212704e-27
1.519941e-27
1.1811558e-39
-1.519941e-27
3.7491878e-27
2.3305762e-27
0
0
-9.8289518e-27
1.2486505e-38
3.7151416e-42
8.9430371e-39
9.7782871e-27
1.1602216e-26
-1.4186116e-26
-1.7074004e-26
4.0126442e-26
-4.8334124e-26
3.2397417e-38
6.9917286e-26
-8.4610049e-26
-1.6856781e-37
6.7044655e-38
-7.2146532e-26
1.7236131e-25
-1.0371064e-25
2.7605299e-37
2.9669248e-25
0
-4.2284758e-25
-2.5256353e-25
6.017953e-25
3.5819943e-25
-4.2700209e-25
8.4720205e-37
6.0518984e-25
0
0
-2.0325664e-24
-2.412653e-24
0
3.3977774e-24
2.0144285e-24
-2.3871687e-24
2.8273942e-24
-3.3474167e-24
0
9.3683083e-24
0
0
-7.7227189e-24
1.0117837e-35
1.0749479e-23
0
-1.492881e-23
-9.7576128e-36
2.0688778e-23
0
-5.7218483e-23
-6.7229219e-23
3.9473729e-23
5.1424598e-35
-5.4342197e-23
1.2741412e-22
1.4928658e-22
-1.748153e-22
-2.9074526e-38
-2.6570025e-34
-3.9754507e-38
3.2683544e-22
-1.908137e-22
2.4720068e-34
-2.596997e-22
3.0270577e-22
1.0578777e-21
-1.2316041e-21
-4.7766953e-22
5.5545195e-22
7.165257e-34
7.4972437e-22
-1.7404654e-21
-2.0189955e-21
2.3406707e-21
4.515603e-33
1.5700759e-21
1.8168688e-21
-4.2022957e-21
2.4283917e-21
-3.1134041e-33
1.7980425e-33
-3.7347982e-21
-8.6111904e-21
9.920924e-21
1.1422539e-20
0
-7.5563753e-21
-9.6397043e-33
1.994323e-20
1.2704201e-32
-3.9373087e-20
-3.0083892e-20
0
3.9438271e-20
5.0072589e-32
2.578135e-20
2.9449222e-20
-1.0084807e-19
2.127958e-32
8.742362e-20
-4.9793869e-20
-1.1336568e-19
6.447993e-20
1.4659638e-19
8.3263799e-20
0
-2.1443172e-19
1.2153347e-19
4.1299258e-19
-1.5582346e-19
-1.762503e-19
-3.9841943e-19
-2.2499518e-19
5.0786278e-19
2.863772e-19
3.2272881e-19
-4.0345501e-31
-4.089419e-19
-4.5981475e-19
-1.0332487e-18
-5.8001049e-19
0
0
0
1.8287985e-18
2.0452493e-18
-2.2855216e-18
-1.416556e-30
-1.5804649e-30
1.7614814e-30
3.9258238e-30
-3.9354866e-18
0
4.8635291e-18
2.7000093e-18
-2.9953759e-18
3.320304e-18
3.6774174e-18
0
0
-9.9421578e-18
1.8274888e-29
1.3436709e-29
-1.3337274e-17
1.4684151e-17
1.6153027e-17
0
-1.9495133e-17
1.1869456e-29
2.3445989e-17
-2.5678001e-17
-1.5600167e-29
3.0717081e-17
0
-3.6612606e-17
-1.9958749e-17
4.3480889e-17
-2.3659421e-17
-5.7129738e-29
5.5885633e-17
-6.0649471e-17
-6.5757826e-17
0
0
0
9.0018557e-17
9.7139537e-17
-1.047235e-16
0
1.2136326e-16
0
7.0052037e-17
-1.5031408e-16
-8.0555491e-17
8.6257375e-17
-1.8454486e-16
-9.8610119e-17
2.1055909e-16
1.1228942e-16
1.3284444e-28
-1.2736293e-16
3.0072112e-28
-8.1791953e-32
-3.0542843e-16
0
1.7150934e-16
3.6297528e-16
1.9185654e-16
0
0
0
2.3724908e-16
-4.9913915e-16
-2.6227217e-16
2.753513e-16
2.8880014e-16
-3.0261057e-16
-3.1677318e-16
6.6255442e-16
0
-7.2252015e-16
-7.5342174e-16
0
0
8.4941087e-16
4.8978733e-28
4.5788255e-16
4.7476275e-16
-4.9180691e-16
5.0899087e-16
-5.2628948e-16
-1.0873533e-15
-5.6112538e-16
0
1.1921914e-15
6.8096989e-28
-6.309695e-16
6.4829534e-16
6.6550615e-16
1.3651414e-15
-1.3989148e-15
-7.1613441e-16
2.0820884e-31
-7.4873126e-16
1.5291736e-15
-7.8010422e-16
7.952515e-16
-3.2297643e-44
-8.2430842e-16
1.6763102e-15
-1.7030118e-15
-1.7286605e-15
0
8.8828033e-16
1.7986956e-15
-5.0499286e-28
-9.195271e-16
-9.2858511e-16
1.8738418e-15
1.8890198e-15
-9.5132838e-16
-1.9147079e-15
-1.9251304e-15
9.6694212e-16
1.9409319e-15
-9.7311935e-16
9.7488665e-16
-1.6245701e-27
-9.7567702e-16
1.9492691e-15
-1.9452685e-15
-1.0762263e-27
5.3611591e-27
-1.9218894e-15
1.9102864e-15
4.2114291e-27
-9.4069016e-16
1.8640997e-15
-9.2247848e-16
2.5920262e-31
-3.9991835e-27
-8.8831259e-16
1.7503306e-15
-1.9120704e-27
4.6967838e-28
-8.3077371e-16
2.3147312e-31
1.5947061e-15
-1.5591991e-15
-4.3269423e-31
3.2958582e-27
-1.4453211e-15
1.4052143e-15
1.5144668e-27
-1.3223769e-15
6.3993004e-16
6.1837962e-16
5.9659433e-16
-5.7463253e-16
6.1341797e-28
1.0608308e-15
0
0
-9.2848971e-16
-1.2575556e-31
8.4182618e-16
-3.9964918e-16
4.2033259e-28
-3.5818464e-16
-7.5064119e-28
6.3690804e-16
0
2.8079246e-16
-5.2565403e-16
-2.4547825e-16
5.0800672e-28
-2.1272673e-16
3.9472268e-16
-1.8268748e-16
1.8724957e-28
3.1088717e-16
0
0
-1.1984415e-16
6.070223e-29
-9.9543577e-17
9.0383489e-17
2.4557937e-16
-2.2185469e-16
-6.6636271e-17
1.1977932e-16
-5.36862e-17
-7.9923197e-29
-4.2802014e-17
2.1638271e-32
1.1246174e-28
-2.9869361e-17
5.2705401e-17
2.3187776e-17
0
1.7808874e-17
-1.5544784e-17
-1.3532521e-17
-1.1749733e-17
2.2592154e-29
-9.7546437e-30
8.404493e-30
1.3016227e-17
-5.5797768e-18
-7.9467173e-30
8.1455503e-18
-4.9283033e-34
-2.9466423e-18
-4.9973913e-18
-4.2293157e-18
3.5725814e-18
1.6729623e-30
1.2677874e-18
1.0653816e-18
-1.7873387e-18
1.4970212e-18
6.2591762e-19
-1.5678911e-18
-8.7189705e-19
3.6365722e-19
6.0891386e-19
2.6482807e-19
-2.4296801e-19
-4.5410187e-19
4.2271917e-19
5.8902309e-19
-2.0172933e-19
-2.3592008e-19
-5.1327579e-19
-2.347214e-19
4.2182654e-19
2.158086e-19
2.4116043e-19
-5.225138e-19
-2.4857739e-19
4.3356927e-19
-3.9164393e-19
4.3716589e-47
-6.8512514e-35
-5.339896e-19
4.8496233e-19
6.5311452e-31
1.861001e-31
5.3420603e-31
3.1607851e-47
5.2584369e-19
1.7431635e-31
-1.4290588e-19
-3.3048631e-19
-3.7749224e-19
3.4036666e-19
2.9243175e-31
1.287212e-19
5.4448349e-31
-1.8332915e-19
3.1277658e-19
0
-1.320491e-19
1.5934789e-31
-1.4157244e-19
-2.8718512e-19
3.1325954e-19
3.4901335e-19
0
-4.7731666e-19
5.6284537e-31
4.8365853e-19
-4.5766384e-19
-2.2602765e-31
1.1460263e-19
2.5793705e-32
2.0327502e-35
-1.0377854e-19
5.5506389e-20
7.0823994e-21
-6.0991899e-21
2.6447252e-32
-2.520667e-20
5.6655e-32
-2.0917836e-32
-5.4836331e-20
6.7840289e-20
7.4559195e-20
0
-1.1453861e-19
1.8515928e-31
2.0157121e-19
-1.992837e-19
-2.1959722e-19