/*--------------------------------*- C++ -*----------------------------------*\
| =========                 |                                                 |
| \\      /  F ield         | OpenFOAM: The Open Source CFD Toolbox           |
|  \\    /   O peration     | Version:  4.x                                   |
|   \\  /    A nd           | Web:      www.OpenFOAM.org                      |
|    \\/     M anipulation  |                                                 |
\*---------------------------------------------------------------------------*/
FoamFile
{
    version     2.0;
    format      ascii;
    class       volScalarField;
    location    "0.88";
    object      T;
}
// * * * * * * * * * * * * * * * * * * * * * * * * * * * * * * * * * * * * * //

dimensions      [0 0 0 1 0 0 0];

internalField   nonuniform List<scalar> 
6394
(
300.0000018
300.000001
300.000001
300.0000011
300.0000011
300.0000011
300.0000011
300.0000011
300.0000027
300.0000018
300.0000018
300.0000019
300.0000019
300.0000019
300.0000019
300.0000019
300.0000025
300.0000016
300.0000017
300.0000017
300.0000018
300.0000018
300.0000018
300.0000018
300.0000024
300.0000016
300.0000017
300.0000017
300.0000017
300.0000017
300.0000017
300.0000018
300.0000024
300.0000016
300.0000017
300.0000017
300.0000017
300.0000017
300.0000017
300.0000017
300.0000025
300.0000017
300.0000017
300.0000017
300.0000017
300.0000017
300.0000017
300.0000017
300.0000019
300.0000013
300.0000014
300.0000014
300.0000014
300.0000013
300.0000014
300.0000015
300.000002
300.0000012
300.0000014
300.0000014
300.0000013
300.0000013
300.0000013
300.0000015
300.0000016
300.0000009
300.0000011
300.0000011
300.000001
300.000001
300.000001
300.0000013
300.0000017
300.0000011
300.0000013
300.0000013
300.0000012
300.0000012
300.0000013
300.0000016
300.0000022
300.0000016
300.0000017
300.0000017
300.0000016
300.0000016
300.0000017
300.000002
300.0000027
300.000002
300.0000021
300.000002
300.0000019
300.0000019
300.000002
300.0000023
299.9999996
299.9999997
300
300.0000001
300
300.0000001
300.0000001
300.0000004
299.999998
299.9999984
299.9999989
299.9999988
299.9999986
299.9999986
299.9999987
299.9999992
299.9999979
299.9999983
299.9999987
299.9999986
299.9999984
299.9999983
299.9999986
299.9999993
299.999999
299.9999994
299.9999997
299.9999995
299.9999993
299.9999993
299.9999997
300.0000005
300.0000009
300.0000011
300.0000011
300.0000008
300.0000005
300.0000006
300.000001
300.0000018
300.0000023
300.0000021
300.0000019
300.0000015
300.0000013
300.0000013
300.0000018
300.0000026
299.9999966
299.9999973
299.9999988
299.9999993
299.9999995
299.9999997
299.9999999
300.0000001
300.0000003
299.9999932
299.9999944
299.9999967
299.9999974
299.9999975
299.9999977
299.9999979
299.9999984
299.999999
299.9999935
299.9999948
299.9999971
299.9999977
299.9999977
299.9999977
299.9999979
299.9999985
299.9999993
299.9999958
299.9999974
299.9999994
299.9999996
299.9999993
299.9999992
299.9999994
300
300.0000011
299.999999
300.000001
300.0000023
300.0000019
300.0000012
300.000001
300.0000011
300.0000019
300.0000032
300.000001
300.000003
300.0000039
300.0000031
300.0000022
300.0000019
300.0000022
300.0000031
300.0000046
299.9999944
299.9999973
299.9999989
299.9999995
300
300.0000004
300.0000008
300.000001
300.0000011
299.9999896
299.9999937
299.9999964
299.9999974
299.999998
299.9999988
299.9999997
300.0000006
300.0000011
299.9999903
299.9999946
299.9999973
299.999998
299.9999984
299.9999992
300.0000001
300.0000011
300.000002
299.999994
299.9999986
300.0000007
300.0000008
300.0000008
300.0000013
300.000002
300.000003
300.0000042
299.9999984
300.0000033
300.0000046
300.0000038
300.0000033
300.0000033
300.0000038
300.0000048
300.0000061
300.0000003
300.0000052
300.0000057
300.0000045
300.0000037
300.0000036
300.0000042
300.0000053
300.0000066
299.9999939
299.9999986
300.0000005
300.0000014
300.0000019
300.000002
300.0000017
300.0000014
300.0000012
299.9999877
299.9999945
299.9999977
299.9999991
300.0000003
300.0000017
300.0000027
300.0000033
300.0000033
299.9999883
299.9999952
299.9999982
299.9999993
300.0000007
300.0000026
300.0000043
300.0000052
300.0000055
299.9999923
299.9999993
300.0000014
300.0000018
300.0000028
300.0000043
300.0000056
300.0000064
300.0000068
299.9999969
300.0000036
300.0000046
300.0000041
300.0000043
300.0000052
300.000006
300.0000067
300.0000072
299.9999983
300.0000049
300.0000053
300.0000041
300.0000038
300.0000041
300.0000048
300.0000057
300.0000066
299.9999927
299.9999993
300.000004
300.000006
300.0000067
300.0000063
300.000005
300.0000031
300.0000016
300.0000009
299.9999843
299.9999915
299.9999995
300.0000031
300.0000049
300.0000057
300.0000055
300.0000048
300.0000041
300.0000035
299.9999831
299.9999897
299.9999978
300.0000011
300.0000026
300.000004
300.0000053
300.0000063
300.0000066
300.0000061
299.9999857
299.9999924
300
300.0000021
300.0000028
300.000004
300.0000057
300.0000069
300.0000071
300.0000068
299.9999891
299.999996
300.0000026
300.0000035
300.0000034
300.0000041
300.0000051
300.000006
300.0000064
300.0000066
299.9999896
299.9999964
300.0000025
300.0000029
300.0000024
300.0000027
300.0000034
300.0000041
300.0000048
300.0000054
300.000001
300.0000037
300.0000085
300.0000141
300.0000176
300.000019
300.0000185
300.000016
300.0000115
300.0000065
300.0000029
300.0000014
299.9999934
299.9999959
299.9999994
300.0000087
300.0000163
300.0000197
300.0000205
300.0000186
300.0000141
300.000009
300.0000052
300.0000034
299.9999861
299.9999883
299.9999905
299.9999992
300.0000071
300.0000104
300.0000116
300.0000116
300.0000103
300.0000083
300.0000063
300.000005
299.9999844
299.9999867
299.9999887
299.9999966
300.0000032
300.0000051
300.0000058
300.0000066
300.0000071
300.0000067
300.0000059
300.0000051
299.9999836
299.9999867
299.9999899
299.9999971
300.0000025
300.0000032
300.0000032
300.0000037
300.0000041
300.0000042
300.0000039
300.0000036
299.9999885
299.9999959
300.0000004
300.0000006
300.0000002
300.0000001
300.0000007
300.0000008
300.0000008
300.0000008
300.0000211
300.0000289
300.0000339
300.0000379
300.0000404
300.000041
300.0000387
300.0000327
300.0000236
300.000014
300.0000072
300.0000043
300.0000241
300.0000354
300.0000449
300.0000542
300.0000599
300.0000618
300.0000588
300.0000494
300.0000344
300.0000193
300.0000093
300.0000053
300.0000038
300.0000127
300.0000197
300.0000292
300.0000355
300.0000378
300.0000366
300.0000314
300.0000227
300.0000134
300.0000067
300.0000037
299.9999912
299.9999984
300.0000037
300.0000116
300.0000164
300.0000175
300.000017
300.0000152
300.0000113
300.000006
300.0000008
299.999999
299.9999841
299.9999901
299.9999973
300.0000037
300.0000069
300.000007
300.0000065
300.0000054
300.0000023
299.9999977
299.9999948
299.9999936
299.9999903
299.9999981
300.0000012
300.0000011
300.0000002
299.999998
299.9999935
299.9999905
299.9999882
299.9999873
300.0000464
300.0000563
300.0000611
300.0000645
300.0000671
300.0000677
300.0000641
300.0000547
300.000041
300.0000269
300.0000168
300.0000121
300.0000912
300.0001092
300.0001207
300.0001289
300.000134
300.0001342
300.0001254
300.000104
300.0000733
300.0000427
300.0000223
300.0000144
300.0000598
300.00008
300.0000931
300.000102
300.0001062
300.0001058
300.0000978
300.0000793
300.0000527
300.0000274
300.0000116
300.000006
300.0000225
300.0000382
300.0000483
300.0000551
300.0000574
300.0000564
300.0000514
300.0000406
300.0000247
300.0000086
299.9999974
299.9999937
299.9999992
300.0000106
300.0000227
300.0000271
300.0000277
300.0000262
300.0000229
300.0000158
300.0000044
299.9999895
299.99998
299.9999788
300.0000029
300.0000101
300.0000111
300.0000098
300.0000069
300.0000002
299.9999872
299.9999722
299.999965
299.9999657
300.0000687
300.0000786
300.0000828
300.0000862
300.0000898
300.0000914
300.0000877
300.0000767
300.0000604
300.0000438
300.0000316
300.0000257
300.0001679
300.0001874
300.0001988
300.0002075
300.0002145
300.0002157
300.0002027
300.0001713
300.000127
300.0000833
300.0000529
300.0000402
300.0001639
300.0001895
300.0002047
300.0002141
300.0002189
300.0002161
300.000198
300.0001601
300.0001092
300.0000604
300.0000296
300.0000195
300.0001119
300.0001388
300.000154
300.0001602
300.0001604
300.0001552
300.0001384
300.0001049
300.0000605
300.0000219
300.0000012
299.9999958
300.0000577
300.0000774
300.0000942
300.000095
300.0000919
300.0000863
300.0000741
300.0000499
300.0000182
299.9999902
299.9999738
299.9999726
300.0000468
300.0000512
300.0000487
300.0000442
300.0000344
300.0000151
299.999989
299.9999609
299.9999477
299.9999516
300.0000846
300.0000926
300.0000953
300.0000983
300.0001024
300.0001053
300.0001027
300.0000924
300.0000763
300.0000597
300.0000473
300.000041
300.0002339
300.0002495
300.0002585
300.0002672
300.000277
300.0002811
300.0002684
300.0002334
300.0001831
300.0001333
300.0000986
300.0000841
300.0002799
300.0003043
300.0003188
300.0003293
300.0003372
300.0003352
300.00031
300.000256
300.0001839
300.0001167
300.0000736
300.0000588
300.0002484
300.0002756
300.0002907
300.0002981
300.0003005
300.0002932
300.0002639
300.0002058
300.0001295
300.0000584
300.0000212
300.0000131
300.0001897
300.0002121
300.0002298
300.0002295
300.0002246
300.0002123
300.0001821
300.0001274
300.0000583
300.0000029
299.9999786
299.9999774
300.0001565
300.0001565
300.0001494
300.0001377
300.0001109
300.0000624
300.0000046
299.999962
299.9999445
299.9999511
300.0000938
300.0000987
300.000099
300.0001004
300.000104
300.0001074
300.0001063
300.0000983
300.0000848
300.0000703
300.0000591
300.0000531
300.0002803
300.0002877
300.0002906
300.000296
300.0003061
300.0003135
300.0003051
300.0002739
300.0002264
300.0001783
300.0001443
300.0001297
300.0003815
300.0003968
300.0004056
300.0004145
300.0004254
300.0004276
300.0004031
300.0003439
300.0002628
300.0001864
300.000139
300.0001242
300.0003855
300.0004057
300.0004175
300.0004245
300.0004295
300.0004223
300.0003856
300.0003123
300.0002166
300.000128
300.0000774
300.0000677
300.000338
300.0003561
300.000374
300.0003754
300.0003736
300.0003592
300.0003132
300.0002292
300.0001263
300.0000402
300.0000044
300.0000056
300.0002841
300.0002853
300.0002779
300.0002601
300.0002154
300.0001368
300.000043
299.9999762
299.9999538
299.9999659
300.0000964
300.0000985
300.0000963
300.0000954
300.0000974
300.0001004
300.0001005
300.0000952
300.0000853
300.0000744
300.0000657
300.0000607
300.0003036
300.0003019
300.0002967
300.000297
300.0003048
300.000313
300.0003087
300.000285
300.000247
300.0002073
300.0001783
300.0001651
300.0004522
300.0004543
300.0004512
300.0004526
300.0004618
300.0004686
300.0004524
300.0004021
300.0003273
300.0002544
300.0002092
300.0001952
300.0005059
300.0005136
300.000515
300.0005177
300.0005239
300.000521
300.0004849
300.0004059
300.0003044
300.0002136
300.0001646
300.0001564
300.0004897
300.0004955
300.0004974
300.0004975
300.0004991
300.0004885
300.0004406
300.0003445
300.0002209
300.0001185
300.0000747
300.0000825
300.000451
300.0004372
300.0004344
300.0004305
300.0004241
300.0004027
300.0003424
300.0002366
300.0001129
300.0000218
299.999995
300.0000231
300.0000027
300.0000018
300.0000018
300.0000018
300.0000018
300.0000018
300.0000017
300.0000017
300.000003
300.0000019
300.0000019
300.0000019
300.0000019
300.0000018
300.0000018
300.0000018
300.0000032
300.000002
300.000002
300.000002
300.000002
300.0000019
300.0000018
300.0000018
300.0000032
300.0000021
300.0000021
300.0000021
300.000002
300.0000019
300.0000019
300.0000018
300.0000032
300.0000021
300.0000021
300.0000021
300.000002
300.0000019
300.0000019
300.0000018
300.0000031
300.000002
300.000002
300.000002
300.000002
300.0000019
300.0000019
300.0000018
300.0000029
300.0000019
300.0000019
300.0000019
300.0000019
300.0000019
300.0000019
300.0000018
300.0000037
300.0000028
300.0000028
300.0000029
300.0000028
300.0000026
300.0000022
300.0000014
300.0000025
300.000003
300.0000022
300.0000022
300.0000021
300.000002
300.000002
300.000002
300.0000023
300.0000029
300.000002
300.0000021
300.0000021
300.000002
300.0000019
300.0000019
300.0000021
300.0000025
300.0000017
300.000002
300.000002
300.0000019
300.0000017
300.0000016
300.0000018
300.0000021
300.0000015
300.0000018
300.0000019
300.0000016
300.0000014
300.0000013
300.0000014
300.0000018
300.0000013
300.0000017
300.0000016
300.0000013
300.0000011
300.000001
300.0000011
300.0000016
300.0000011
300.0000014
300.0000013
300.000001
300.0000008
300.0000008
300.000001
300.0000014
300.0000007
300.0000009
300.0000007
300.0000005
300.0000004
300.0000005
300.0000008
300.0000021
300.0000011
300.0000012
300.000001
300.0000007
300.0000005
300.0000003
299.9999997
300.0000002
300.0000021
300.0000019
300.0000018
300.0000014
300.0000013
300.0000014
300.0000019
300.0000027
300.0000002
300.0000002
300.0000006
300.0000005
300.0000005
300.0000007
300.0000013
300.000002
299.9999971
299.9999978
299.9999988
299.9999991
299.9999991
299.9999993
299.9999999
300.0000008
299.9999943
299.9999957
299.9999971
299.9999975
299.9999975
299.9999977
299.9999984
299.9999994
299.9999929
299.9999946
299.9999959
299.999996
299.9999959
299.9999962
299.9999972
299.9999983
299.9999928
299.9999942
299.9999949
299.9999947
299.9999945
299.999995
299.9999963
299.9999976
299.999993
299.9999933
299.9999933
299.9999928
299.9999927
299.9999935
299.9999951
299.9999967
299.9999934
299.9999922
299.9999914
299.9999906
299.9999906
299.9999915
299.9999929
299.9999939
299.9999916
300
300.0000018
300.0000028
300.0000022
300.0000016
300.0000014
300.0000019
300.000003
300.0000044
299.9999966
299.9999967
299.9999989
299.9999991
299.999999
299.9999994
300.0000003
300.0000016
300.0000029
299.9999909
299.9999932
299.9999946
299.9999953
299.9999962
299.9999976
299.9999992
300.0000006
299.9999847
299.9999879
299.9999902
299.9999914
299.9999927
299.9999945
299.9999966
299.9999983
299.9999805
299.999984
299.9999865
299.9999878
299.9999894
299.9999917
299.9999942
299.9999963
299.9999782
299.9999812
299.9999832
299.9999843
299.9999862
299.999989
299.9999921
299.9999945
299.9999767
299.9999781
299.9999789
299.9999799
299.9999822
299.9999855
299.9999891
299.9999922
299.999976
299.9999748
299.9999742
299.999975
299.9999774
299.9999807
299.9999842
299.9999872
299.9999815
299.9999978
300.0000026
300.0000035
300.0000025
300.0000018
300.000002
300.0000029
300.0000042
300.0000054
299.999991
299.9999953
299.9999979
299.9999979
299.9999979
299.9999987
300.0000001
300.0000018
300.000003
299.9999859
299.9999897
299.9999914
299.9999925
299.9999942
299.9999965
299.9999987
300.0000002
299.9999769
299.9999815
299.9999847
299.9999869
299.9999895
299.9999926
299.9999953
299.9999972
299.9999693
299.9999744
299.9999784
299.9999814
299.9999848
299.9999886
299.9999921
299.9999945
299.9999628
299.9999678
299.999972
299.9999755
299.9999798
299.9999844
299.9999887
299.9999917
299.9999568
299.9999603
299.999964
299.999968
299.9999732
299.9999787
299.9999836
299.9999879
299.9999523
299.999953
299.9999555
299.9999597
299.9999652
299.9999707
299.9999757
299.9999809
299.9999716
299.9999945
300.0000018
300.0000027
300.0000017
300.0000013
300.0000016
300.0000027
300.0000039
300.000005
299.9999837
299.9999931
299.9999963
299.9999964
299.9999966
299.9999978
299.9999996
300.0000012
300.0000022
299.9999796
299.9999864
299.999989
299.9999906
299.999993
299.9999956
299.9999977
299.999999
299.9999684
299.9999766
299.999981
299.9999842
299.9999876
299.9999911
299.9999938
299.9999955
299.9999576
299.999967
299.9999731
299.9999775
299.9999819
299.9999861
299.9999896
299.9999919
299.9999466
299.9999567
299.9999642
299.9999697
299.9999752
299.9999805
299.9999848
299.9999878
299.9999354
299.9999447
299.9999526
299.9999594
299.9999664
299.999973
299.9999782
299.9999826
299.9999275
299.9999331
299.9999399
299.999947
299.9999548
299.9999616
299.9999673
299.9999737
299.9999605
299.9999864
299.999992
299.9999988
299.9999998
299.9999994
299.9999997
300.0000003
300.0000014
300.0000024
300.000003
299.9999792
299.999981
299.99999
299.9999936
299.9999944
299.9999952
299.9999965
299.9999981
299.9999993
299.9999998
299.9999723
299.9999695
299.9999768
299.9999843
299.9999874
299.9999894
299.999992
299.9999942
299.9999957
299.9999962
299.9999635
299.9999597
299.9999649
299.9999743
299.9999795
299.999983
299.9999865
299.9999895
299.9999913
299.999992
299.9999535
299.999948
299.9999526
299.9999638
299.999971
299.999976
299.9999804
299.9999836
299.9999855
299.9999867
299.9999432
299.9999352
299.9999392
299.9999517
299.9999609
299.9999672
299.9999723
299.9999762
299.9999787
299.9999806
299.9999339
299.9999234
299.9999245
299.9999368
299.9999471
299.9999546
299.9999606
299.9999658
299.9999695
299.9999731
299.9999284
299.9999173
299.999913
299.9999217
299.9999309
299.9999384
299.9999446
299.9999501
299.9999548
299.999962
299.999946
299.9999845
299.9999909
299.9999957
299.9999967
299.9999965
299.9999965
299.999997
299.9999973
299.9999974
299.9999972
299.9999766
299.9999806
299.999988
299.9999915
299.9999925
299.9999929
299.9999937
299.9999942
299.9999942
299.9999936
299.9999673
299.9999689
299.9999764
299.9999837
299.9999871
299.9999889
299.9999905
299.9999913
299.999991
299.9999901
299.999956
299.9999579
299.9999649
299.9999745
299.9999802
299.9999838
299.9999865
299.9999874
299.9999868
299.9999859
299.9999439
299.9999454
299.9999526
299.9999644
299.9999724
299.9999773
299.9999807
299.999982
299.9999812
299.9999808
299.9999319
299.9999317
299.9999386
299.9999522
299.9999619
299.999968
299.9999718
299.9999728
299.9999724
299.999973
299.9999213
299.9999182
299.9999227
299.9999362
299.9999469
299.9999537
299.9999571
299.9999577
299.9999588
299.999962
299.9999144
299.9999089
299.9999086
299.9999184
299.9999279
299.9999342
299.999937
299.9999378
299.9999404
299.9999488
299.9999342
299.9999851
299.9999914
299.9999952
299.999996
299.9999953
299.9999922
299.9999881
299.9999851
299.9999827
299.9999815
299.9999766
299.9999816
299.9999878
299.9999913
299.9999921
299.9999902
299.9999865
299.9999832
299.9999802
299.9999784
299.9999659
299.9999702
299.9999781
299.9999855
299.9999893
299.9999899
299.9999875
299.9999839
299.99998
299.9999779
299.9999534
299.999959
299.9999685
299.9999795
299.9999865
299.9999892
299.9999884
299.9999851
299.9999808
299.9999789
299.9999405
299.9999471
299.9999581
299.9999722
299.9999817
299.9999854
299.9999851
299.9999824
299.9999787
299.9999771
299.9999285
299.9999339
299.9999451
299.999961
299.9999716
299.9999757
299.9999753
299.9999725
299.9999694
299.9999691
299.9999181
299.9999203
299.9999287
299.9999437
299.9999541
299.9999581
299.9999576
299.9999538
299.999952
299.9999557
299.99991
299.9999091
299.9999122
299.9999228
299.9999313
299.9999351
299.9999344
299.9999311
299.9999317
299.9999418
299.9999298
299.9999926
299.9999981
300.0000001
300.0000003
299.999998
299.999991
299.999976
299.9999623
299.9999561
299.9999577
299.9999812
299.9999866
299.9999916
299.9999953
299.9999955
299.99999
299.9999762
299.9999629
299.9999565
299.9999578
299.9999679
299.999975
299.9999849
299.9999943
299.9999988
299.9999957
299.9999857
299.9999722
299.999965
299.9999652
299.9999543
299.999965
299.9999811
299.9999975
300.0000073
300.0000063
299.9999966
299.9999847
299.9999764
299.9999751
299.9999418
299.9999564
299.9999779
299.9999996
300.000012
300.0000108
300
299.999987
299.9999789
299.999977
299.9999312
299.9999469
299.9999705
299.9999935
300.0000047
300.0000014
299.9999893
299.9999765
299.9999698
299.9999695
299.9999221
299.999935
299.9999553
299.9999751
299.9999828
299.9999771
299.9999651
299.9999546
299.9999508
299.9999555
299.9999139
299.9999222
299.9999353
299.9999485
299.9999527
299.9999472
299.9999379
299.9999306
299.9999298
299.9999422
299.999932
300.0000211
300.0000233
300.0000223
300.0000205
300.0000132
299.9999965
299.9999707
299.9999434
299.9999333
299.9999408
299.9999995
300.0000031
300.000007
300.0000112
300.0000088
299.9999949
299.9999707
299.9999451
299.999936
299.9999442
299.9999783
299.9999878
300.0000019
300.0000155
300.0000201
300.0000097
299.999987
299.9999635
299.999954
299.9999603
299.999961
299.9999798
300.0000081
300.0000349
300.0000474
300.0000387
300.0000141
299.9999877
299.9999764
299.9999771
299.9999498
299.9999804
300.0000215
300.0000554
300.0000687
300.000057
300.0000292
299.9999988
299.9999842
299.9999833
299.9999439
299.9999827
300.0000293
300.0000627
300.0000699
300.0000513
300.0000193
299.9999885
299.9999757
299.999977
299.9999407
299.9999787
300.0000224
300.0000489
300.000047
300.0000212
299.9999865
299.9999611
299.9999542
299.9999625
299.999936
299.9999662
300.0000006
300.0000178
300.0000102
299.9999837
299.9999533
299.9999361
299.9999337
299.9999521
299.9999491
300.0001081
300.0001033
300.0000969
300.0000892
300.0000673
300.0000246
299.9999747
299.9999368
299.9999244
299.9999385
300.0000613
300.0000588
300.0000605
300.0000637
300.0000523
300.0000174
299.9999722
299.9999375
299.9999279
299.999944
300.0000178
300.0000271
300.000046
300.0000649
300.0000636
300.0000356
299.9999934
299.9999618
299.9999529
299.999966
299.9999886
300.0000146
300.0000507
300.0000839
300.000095
300.0000745
300.0000349
299.9999986
299.9999855
299.9999944
299.9999769
300.0000194
300.0000717
300.0001149
300.0001273
300.0001041
300.0000613
300.0000228
300.0000064
300.0000126
299.9999794
300.0000342
300.000095
300.0001359
300.000137
300.0001024
300.0000536
300.0000145
299.9999991
300.000009
299.9999902
300.0000461
300.0001029
300.0001311
300.0001162
300.0000704
300.000018
299.9999818
299.9999728
299.9999938
299.9999981
300.0000448
300.0000893
300.0001046
300.0000834
300.0000387
299.9999907
299.9999607
299.9999567
299.999992
300.0000107
300.000194
300.0001851
300.0001761
300.000163
300.0001284
300.0000648
299.99999
299.9999402
299.9999276
299.9999496
300.0001218
300.0001132
300.0001116
300.0001111
300.0000911
300.0000418
299.9999791
299.9999383
299.9999305
299.9999576
300.0000577
300.0000617
300.0000779
300.0000976
300.000097
300.0000616
300.0000035
299.999964
299.9999589
299.9999893
300.0000152
300.0000387
300.0000832
300.0001214
300.0001349
300.0001093
300.0000548
300.0000147
300.0000038
300.0000314
300.0000014
300.0000537
300.0001195
300.0001699
300.0001806
300.0001473
300.0000884
300.0000429
300.0000307
300.000055
300.0000177
300.0000905
300.0001621
300.0002025
300.0001956
300.0001461
300.0000782
300.0000326
300.0000236
300.0000511
300.0000417
300.0001147
300.0001782
300.0002022
300.0001744
300.0001094
300.0000367
299.9999989
299.999997
300.0000368
300.000053
300.0001115
300.0001636
300.0001753
300.00014
300.0000751
300.0000115
299.9999836
299.9999872
300.0000451
300.0000831
300.0004276
300.000403
300.0003773
300.0003605
300.0003484
300.0003262
300.0002656
300.0001574
300.0000372
299.9999709
299.9999659
300.0000193
300.0003547
300.0003177
300.0002762
300.0002523
300.0002429
300.0002319
300.0001856
300.0000935
299.999994
299.9999507
299.9999624
300.0000283
300.0002553
300.0002129
300.0001716
300.0001541
300.0001572
300.0001678
300.0001465
300.0000768
300.0000001
299.99997
299.9999931
300.0000686
300.0001568
300.000117
300.0000888
300.0000904
300.0001176
300.0001569
300.000158
300.0001054
300.0000457
300.0000253
300.0000541
300.0001235
300.0000828
300.0000537
300.0000507
300.0000761
300.0001316
300.0001885
300.0001984
300.0001499
300.0000909
300.0000704
300.0000933
300.0001532
300.0000612
300.0000449
300.0000554
300.0001042
300.00018
300.0002331
300.0002199
300.0001514
300.000087
300.0000665
300.00009
300.0001508
300.0000877
300.0000755
300.0000892
300.0001433
300.0002156
300.0002426
300.0001992
300.0001153
300.0000527
300.0000376
300.0000715
300.000145
300.0001358
300.0001189
300.0001231
300.0001595
300.0002134
300.000224
300.0001774
300.0001028
300.0000545
300.0000463
300.0000865
300.000179
300.0002509
300.0000011
300.0000011
300.0000011
300.0000011
300.0000011
300.0000009
300.000002
300.000002
300.000002
300.000002
300.0000019
300.0000013
300.0000018
300.0000019
300.0000019
300.0000018
300.0000018
300.0000013
300.0000018
300.0000018
300.0000019
300.0000018
300.0000018
300.0000013
300.0000018
300.0000018
300.0000018
300.0000018
300.0000018
300.0000013
300.0000017
300.0000018
300.0000018
300.0000018
300.0000018
300.0000013
300.0000016
300.0000017
300.0000017
300.0000016
300.0000015
300.0000014
300.0000017
300.0000019
300.0000019
300.0000017
300.0000017
300.0000014
300.0000016
300.0000018
300.0000017
300.0000015
300.0000015
300.0000014
300.0000019
300.0000021
300.0000021
300.0000019
300.0000018
300.0000016
300.0000024
300.0000026
300.0000026
300.0000023
300.0000022
300.0000018
300.0000026
300.0000028
300.0000028
300.0000025
300.0000023
300.0000018
300.0000006
300.0000007
300.0000005
300.0000002
300.0000001
300.0000006
299.9999998
300
299.9999996
299.999999
299.9999991
300.0000001
299.9999999
300.0000002
299.9999998
299.9999992
299.9999993
300.0000002
300.0000013
300.0000016
300.0000012
300.0000005
300.0000004
300.0000008
300.0000026
300.000003
300.0000026
300.0000018
300.0000015
300.0000012
300.0000034
300.0000037
300.0000032
300.0000022
300.0000017
300.0000012
300.0000004
300.0000003
299.9999998
299.9999994
299.9999995
300.0000002
299.9999994
299.9999993
299.9999984
299.9999976
299.9999979
299.9999995
300
300
299.9999991
299.9999981
299.9999983
299.9999998
300.000002
300.0000022
300.0000014
300.0000002
299.9999999
300.0000005
300.0000045
300.0000047
300.0000037
300.000002
300.0000012
300.0000008
300.0000058
300.0000059
300.0000045
300.0000025
300.0000012
300.0000005
300.000001
300.0000006
300.0000002
299.9999999
299.9999999
300.0000003
300.0000011
300.0000003
299.9999991
299.9999983
299.9999986
299.9999999
300.0000022
300.0000016
300.0000001
299.9999989
299.9999991
300.0000002
300.0000049
300.0000045
300.000003
300.0000012
300.0000006
300.0000006
300.000007
300.0000068
300.0000052
300.000003
300.0000014
300.0000005
300.0000073
300.0000069
300.0000051
300.0000026
300.0000007
299.9999999
300.0000011
300.000001
300.000001
300.000001
300.000001
300.0000004
300.0000029
300.0000021
300.0000012
300.0000007
300.0000009
300.0000006
300.0000051
300.0000041
300.0000028
300.0000016
300.0000013
300.000001
300.0000068
300.0000062
300.0000048
300.000003
300.0000018
300.0000009
300.0000074
300.000007
300.0000055
300.0000034
300.0000015
300.0000005
300.000007
300.0000065
300.0000047
300.000002
300
299.9999997
300.0000009
300.0000013
300.000002
300.0000026
300.0000023
300.0000004
300.0000031
300.0000031
300.0000036
300.0000042
300.0000044
300.0000017
300.0000056
300.0000052
300.0000048
300.0000045
300.0000045
300.0000024
300.0000066
300.0000062
300.0000054
300.0000043
300.0000036
300.000002
300.0000066
300.0000062
300.000005
300.0000034
300.0000021
300.0000012
300.0000054
300.0000047
300.000003
300.0000009
300
300.0000004
300.0000014
300.0000024
300.0000039
300.000005
300.0000041
300.0000006
300.0000033
300.0000046
300.0000071
300.0000096
300.0000098
300.0000036
300.0000048
300.0000057
300.0000072
300.0000091
300.0000102
300.0000052
300.0000049
300.0000051
300.000006
300.0000069
300.0000078
300.0000048
300.0000035
300.0000035
300.0000036
300.0000041
300.0000049
300.0000039
300.0000007
300.0000002
299.9999999
300.0000009
300.0000024
300.0000034
300.0000042
300.0000058
300.000008
300.0000092
300.0000072
300.0000013
300.0000055
300.000009
300.0000145
300.0000193
300.0000189
300.0000071
300.0000043
300.0000075
300.0000126
300.0000184
300.0000212
300.0000104
299.9999999
300.0000039
300.0000082
300.0000134
300.0000179
300.0000105
299.9999946
299.9999982
300.0000035
300.0000082
300.0000137
300.0000098
299.9999884
299.9999923
299.9999987
300.0000043
300.0000116
300.00001
300.0000116
300.0000135
300.0000161
300.0000168
300.0000126
300.0000029
300.0000149
300.0000214
300.0000312
300.0000384
300.0000351
300.0000131
300.0000076
300.000015
300.0000262
300.0000383
300.0000425
300.0000193
299.9999977
300.0000057
300.0000162
300.0000298
300.0000396
300.0000204
299.9999854
299.9999967
300.0000075
300.0000216
300.000035
300.00002
299.9999746
299.9999883
300.0000015
300.0000175
300.0000344
300.0000207
300.0000246
300.0000264
300.0000283
300.0000273
300.0000195
300.0000049
300.0000409
300.0000508
300.0000633
300.0000691
300.000057
300.0000203
300.0000232
300.0000374
300.0000587
300.0000772
300.0000744
300.0000304
300.0000024
300.0000174
300.0000401
300.0000668
300.0000747
300.0000331
299.9999847
300.000002
300.0000248
300.0000552
300.0000707
300.0000329
299.9999698
299.9999915
300.0000168
300.0000515
300.0000708
300.0000335
300.0000394
300.0000404
300.0000409
300.0000371
300.0000251
300.0000064
300.0000846
300.0000945
300.000104
300.0001028
300.0000772
300.0000259
300.0000661
300.0000888
300.0001156
300.0001293
300.0001079
300.00004
300.0000262
300.0000556
300.0000964
300.0001248
300.0001149
300.000045
299.9999957
300.0000274
300.0000733
300.0001131
300.0001125
300.0000453
299.999976
300.0000122
300.000063
300.0001091
300.0001122
300.0000455
300.0000512
300.0000511
300.0000498
300.0000431
300.0000279
300.0000069
300.0001292
300.000136
300.0001396
300.0001281
300.0000897
300.0000287
300.0001342
300.0001582
300.0001782
300.0001773
300.0001329
300.0000461
300.0000914
300.0001332
300.0001719
300.0001868
300.0001491
300.0000536
300.0000395
300.0000958
300.0001526
300.00018
300.00015
300.000055
300.0000086
300.0000741
300.0001418
300.0001755
300.0001491
300.0000551
300.0000586
300.0000576
300.0000546
300.0000459
300.0000287
300.0000069
300.0001632
300.0001658
300.0001628
300.0001422
300.0000951
300.0000297
300.0002036
300.0002211
300.0002294
300.0002103
300.0001472
300.000049
300.0001808
300.0002185
300.000244
300.0002371
300.0001721
300.0000589
300.000132
300.0001928
300.0002338
300.0002383
300.0001775
300.0000616
300.0000917
300.0001705
300.000223
300.0002344
300.0001766
300.0000618
300.0000017
300.0000018
300.0000018
300.0000018
300.0000018
300.0000013
300.0000018
300.0000018
300.0000018
300.0000018
300.0000018
300.0000013
300.0000018
300.0000018
300.0000018
300.0000018
300.0000017
300.0000012
300.0000018
300.0000018
300.0000018
300.0000017
300.0000016
300.0000012
300.0000018
300.0000017
300.0000017
300.0000016
300.0000015
300.0000011
300.0000017
300.0000017
300.0000016
300.0000015
300.0000015
300.000001
300.0000017