/*--------------------------------*- C++ -*----------------------------------*\
| =========                 |                                                 |
| \\      /  F ield         | OpenFOAM: The Open Source CFD Toolbox           |
|  \\    /   O peration     | Version:  4.x                                   |
|   \\  /    A nd           | Web:      www.OpenFOAM.org                      |
|    \\/     M anipulation  |                                                 |
\*---------------------------------------------------------------------------*/
FoamFile
{
    version     2.0;
    format      ascii;
    class       volVectorField;
    location    "0.88";
    object      U;
}
// * * * * * * * * * * * * * * * * * * * * * * * * * * * * * * * * * * * * * //

dimensions      [0 1 -1 0 0 0 0];

internalField   nonuniform List<vector> 
6394
(
(0.03005329376 9.009625264e-05 0.003762837268)
(0.03005230847 2.947544727e-05 0.003762817088)
(0.03005230848 -2.947368325e-05 0.003762817119)
(0.03005329361 -9.009350706e-05 0.003762837405)
(0.03005565831 -0.0001566122302 0.003762957636)
(0.03006050584 -0.0002338921213 0.003763154919)
(0.03007011544 -0.0003341580696 0.003763961771)
(0.03008927281 -0.0004604595763 0.003763836684)
(0.03482175547 8.942433284e-05 0.00510799623)
(0.03482243829 2.921960319e-05 0.00510882449)
(0.03482243835 -2.92178743e-05 0.005108824603)
(0.03482175565 -8.942181897e-05 0.005107996586)
(0.03482038628 -0.0001560066493 0.005106409438)
(0.03481849662 -0.00023428441 0.005104229321)
(0.03481675604 -0.0003385565048 0.005101940438)
(0.03481720651 -0.0004734621479 0.005099976721)
(0.0348742622 9.782773688e-05 0.002573281412)
(0.03487404709 3.194567451e-05 0.00257465419)
(0.03487404717 -3.194356602e-05 0.002574654342)
(0.03487426221 -9.782497954e-05 0.00257328184)
(0.03487477255 -0.0001706734268 0.002570664461)
(0.03487575719 -0.0002559578611 0.002567248952)
(0.03487792322 -0.0003678588012 0.00256380772)
(0.03488209358 -0.0005097341715 0.002561550271)
(0.03463367429 0.0001020798211 0.001833748669)
(0.03463367425 3.338936732e-05 0.00183405655)
(0.03463367427 -3.338686461e-05 0.001834056709)
(0.03463367426 -0.0001020768505 0.001833749104)
(0.03463385312 -0.0001774696436 0.001833386663)
(0.03463460714 -0.0002649681098 0.001833635966)
(0.03463708039 -0.0003783882309 0.001835502352)
(0.03464179369 -0.0005205542101 0.001840644533)
(0.03456220256 0.0001037851814 0.001022714693)
(0.03456204913 3.399937438e-05 0.001022747647)
(0.03456204916 -3.399660396e-05 0.001022747737)
(0.0345622027 -0.0001037820622 0.001022714833)
(0.03456264928 -0.0001798763285 0.001022872268)
(0.03456370287 -0.000267453736 0.001023779845)
(0.03456637648 -0.0003799778366 0.001026298962)
(0.03457077948 -0.0005196575566 0.001031761407)
(0.03454426574 0.0001037556897 0.0007438175834)
(0.03454414342 3.403751099e-05 0.0007435850957)
(0.03454414343 -3.403469332e-05 0.0007435850512)
(0.03454426554 -0.0001037526106 0.0007438174383)
(0.03454461796 -0.0001793386007 0.0007444873111)
(0.03454545132 -0.0002657452918 0.000746057074)
(0.03454768468 -0.0003762143992 0.000749160796)
(0.03455120898 -0.0005129284581 0.0007546918789)
(0.02705672855 0.0002219558643 0.003147412592)
(0.02704818364 7.303311814e-05 0.003148266943)
(0.02704818373 -7.303093382e-05 0.003148266956)
(0.02705672864 -0.0002219527393 0.003147412683)
(0.0270757889 -0.0003801659955 0.003145579671)
(0.02711030301 -0.000554784865 0.003142280327)
(0.02716866597 -0.0007586370755 0.003137589547)
(0.02726931927 -0.000993003978 0.003128453973)
(0.03611289485 0.000330894011 0.006015979715)
(0.03610123061 0.0001088341414 0.006018348729)
(0.03610123074 -0.0001088312358 0.006018348841)
(0.03611289505 -0.0003308902034 0.006015980046)
(0.03613916127 -0.0005673291776 0.006010940165)
(0.0361872625 -0.0008295131402 0.006002554141)
(0.03627018518 -0.001136655479 0.005990399239)
(0.03641599063 -0.001495466385 0.005973431906)
(0.03740484139 0.0003035989544 0.004362082431)
(0.03739572054 9.991736516e-05 0.004363066538)
(0.03739572062 -9.991466046e-05 0.00436306665)
(0.03740484145 -0.0003035955295 0.004362082857)
(0.03742528936 -0.0005203262232 0.004359998879)
(0.03746328426 -0.0007611180054 0.004356167008)
(0.03753073825 -0.001047276403 0.004348900661)
(0.03765481894 -0.001384195181 0.004336136731)
(0.03644627378 0.0003011223899 0.003580558136)
(0.03643807764 9.916589233e-05 0.003581266514)
(0.03643807766 -9.916303496e-05 0.003581266678)
(0.03644627372 -0.0003011190125 0.003580558532)
(0.03646496995 -0.0005153326413 0.003579361747)
(0.03650042304 -0.0007520848507 0.00357783427)
(0.03656399882 -0.001032575581 0.00357528973)
(0.03668182132 -0.00136199279 0.003570673795)
(0.0357242349 0.0003013387515 0.002381838597)
(0.03571605124 9.919708003e-05 0.002381581043)
(0.03571605122 -9.919424091e-05 0.002381581081)
(0.03572423464 -0.0003013356005 0.002381838635)
(0.03574300228 -0.0005159937013 0.002382534864)
(0.03577867735 -0.0007534162689 0.002383833675)
(0.03584270577 -0.001034471529 0.002385309002)
(0.03596105393 -0.001363691361 0.002386160764)
(0.03529471518 0.0003019600802 0.00185015004)
(0.03528685472 9.941905487e-05 0.001849777415)
(0.03528685464 -9.941632379e-05 0.001849777364)
(0.03529471487 -0.0003019572862 0.001850149871)
(0.03531290577 -0.0005168397999 0.001851109641)
(0.03534782039 -0.0007542152409 0.001853002146)
(0.03541096393 -0.001034862171 0.001855891673)
(0.03552822017 -0.001363505682 0.001859386083)
(0.02067190955 0.0002950962139 0.002245998315)
(0.02065185745 9.741631571e-05 0.002247319125)
(0.02065185769 -9.741325054e-05 0.002247319152)
(0.02067191021 -0.0002950926099 0.002245998427)
(0.02071535567 -0.0005018660358 0.002243424263)
(0.02079002355 -0.0007248172431 0.002239430342)
(0.02090935942 -0.0009756374899 0.002234919733)
(0.02110079139 -0.001257942323 0.002227441544)
(0.03512765419 0.0004268825843 0.005902224449)
(0.03510513586 0.0001405915543 0.005905885958)
(0.03510513608 -0.0001405873906 0.00590588606)
(0.03512765469 -0.0004268777497 0.005902224773)
(0.03517662881 -0.0007296889691 0.005894616196)
(0.03526112184 -0.001061670994 0.005882788888)
(0.03539658858 -0.001443135686 0.005867728842)
(0.03561686713 -0.001885351389 0.005849801938)
(0.0385075285 0.0004551190769 0.005214706635)
(0.03848762341 0.0001492530406 0.005223371581)
(0.03848762355 -0.0001492488876 0.005223371601)
(0.03850752872 -0.0004551144316 0.005214706892)
(0.03855187563 -0.0007835385143 0.005198144737)
(0.03863065873 -0.00114945789 0.005176585367)
(0.03876108016 -0.001571283052 0.005158737209)
(0.03897847122 -0.002058033901 0.005148139007)
(0.03805206139 0.0004662088459 0.004684625784)
(0.03803533197 0.0001533656408 0.004689252664)
(0.03803533211 -0.000153361522 0.004689252742)
(0.0380520615 -0.0004662046016 0.004684625894)
(0.03809038863 -0.0007982767812 0.004676112142)
(0.03816167713 -0.001164278829 0.004665639296)
(0.03828654249 -0.001585850997 0.004657483778)
(0.03850312735 -0.00207298055 0.004653625222)
(0.03713151428 0.0004742052313 0.00342281332)
(0.03711330221 0.0001563132029 0.003424261752)
(0.03711330225 -0.0001563092687 0.003424261729)
(0.03713151429 -0.0004742009997 0.003422813139)
(0.03717265579 -0.0008089558268 0.003420360347)
(0.03724789421 -0.001174331665 0.003417928953)
(0.037377579 -0.001592648238 0.003417483456)
(0.03760165832 -0.002074367571 0.003420240913)
(0.03640060001 0.0004793767394 0.002710161932)
(0.03638211172 0.0001582093631 0.002710437195)
(0.03638211178 -0.0001582055274 0.002710437099)
(0.03640059992 -0.0004793726681 0.002710161568)
(0.03644244457 -0.0008159035368 0.002710018575)
(0.03651922036 -0.001180873083 0.002710797872)
(0.03665203028 -0.001596698224 0.002713450814)
(0.03688235981 -0.002074354525 0.0027181869)
(0.01694301982 0.0005526799073 0.001241759987)
(0.01688347128 0.0003262797687 0.001238903431)
(0.01685592191 0.0001079144254 0.001237521638)
(0.01685592213 -0.0001079102129 0.001237521659)
(0.01688347192 -0.0003262754747 0.001238903447)
(0.01694302046 -0.0005526751726 0.001241760053)
(0.01704447893 -0.0007932621076 0.001246038731)
(0.01720445718 -0.001055681203 0.001251193012)
(0.0174494221 -0.001342070423 0.001256047858)
(0.03348984018 0.0008937999116 0.004802942237)
(0.03340860415 0.0005255976682 0.004799589435)
(0.03337094312 0.0001735520684 0.004797457166)
(0.03337094327 -0.0001735462479 0.004797457161)
(0.03340860464 -0.0005255917034 0.004799589448)
(0.0334898408 -0.0008937939298 0.004802942326)
(0.03362865856 -0.001292802109 0.004805120673)
(0.03385070469 -0.001742681379 0.004803751012)
(0.03420075426 -0.002254412671 0.004802973465)
(0.0391425638 0.001040850111 0.005139849425)
(0.03905909842 0.0006192326947 0.005116868442)
(0.03901897367 0.0002057583918 0.005105701093)
(0.03901897375 -0.0002057521579 0.005105700992)
(0.03905909871 -0.0006192263738 0.005116868151)
(0.03914256417 -0.001040844117 0.005139849119)
(0.03927698518 -0.001481598695 0.005173056293)
(0.03948603372 -0.001976468514 0.005192298505)
(0.03983157993 -0.002556520246 0.005191214657)
(0.03951474859 0.001062348436 0.005028015935)
(0.03944593324 0.0006273191278 0.005033334915)
(0.0394146188 0.0002075206863 0.005037077865)
(0.03941461885 -0.0002075148189 0.005037077818)
(0.03944593336 -0.000627313123 0.00503333475)
(0.03951474901 -0.001062342658 0.005028015658)
(0.03963565384 -0.001523974747 0.005025534781)
(0.03983821052 -0.002035847731 0.005026385647)
(0.04017751331 -0.002619558763 0.0050306249)
(0.03876431879 0.001066149667 0.004097354855)
(0.03869730381 0.0006287876536 0.004097109506)
(0.03866729976 0.0002078667322 0.00409751677)
(0.03866729987 -0.0002078610341 0.004097516682)
(0.03869730414 -0.0006287816948 0.004097109216)
(0.03876431927 -0.001066143786 0.004097354352)
(0.03888458129 -0.0015325491 0.004100038162)
(0.03908864673 -0.002049218959 0.004104624015)
(0.03943106021 -0.002631620604 0.004110865299)
(0.03783933132 0.001075323403 0.003320656501)
(0.03777180446 0.0006353516945 0.003321322198)
(0.03774177669 0.0002102357909 0.0033221056)
(0.03774177676 -0.0002102300807 0.003322105517)
(0.03777180497 -0.0006353457878 0.003321321877)
(0.03783933218 -0.001075317665 0.003320655945)
(0.03796145742 -0.001542334988 0.003321695316)
(0.03816973742 -0.002057094758 0.003325357559)
(0.03851980307 -0.002633672519 0.00333160724)
(0.01418870566 0.0005717100251 0.000633413536)
(0.01412354689 0.0003414138749 0.0006328790284)
(0.01409368038 0.0001135676866 0.0006327716728)
(0.0140936804 -0.0001135630385 0.0006327716523)
(0.01412354685 -0.0003414090961 0.000632879185)
(0.01418870573 -0.0005717053166 0.0006334134286)
(0.01430061728 -0.0008068213556 0.0006350669211)
(0.01447675799 -0.001050532196 0.0006391948112)
(0.01473810911 -0.001303396991 0.0006462785166)
(0.03157539766 0.001028619756 0.003618462242)
(0.03147323107 0.00060949636 0.00362012437)
(0.03142662512 0.0002019832174 0.003621516329)
(0.03142662511 -0.0002019768288 0.003621516251)
(0.03147323099 -0.000609489736 0.003620124153)
(0.03157539768 -0.001028613709 0.003618461978)
(0.03175334757 -0.001469841488 0.003618861328)
(0.03204098198 -0.001948001369 0.003625136945)
(0.03248268339 -0.002473989378 0.003642433131)
(0.03910008789 0.001186614859 0.004786023186)
(0.03899334564 0.000701615751 0.004790960186)
(0.03894477053 0.000232314843 0.004793423179)
(0.03894477047 -0.000232307765 0.004793423046)
(0.03899334553 -0.0007016084742 0.004790959914)
(0.03910008776 -0.001186608133 0.004786022895)
(0.03928801546 -0.001702472869 0.004778494118)
(0.0395889022 -0.002267018496 0.004774860368)
(0.04004640295 -0.002888475303 0.004784892511)
(0.04061095627 0.001252768523 0.004980140732)
(0.04050836648 0.0007432617465 0.004980886682)
(0.04046130754 0.00024644777 0.004981747325)
(0.04046130754 -0.0002464408541 0.004981747258)
(0.04050836662 -0.0007432546157 0.004980886561)
(0.04061095676 -0.001252761809 0.00498014072)
(0.04078812578 -0.001786647074 0.004980400606)
(0.04107182496 -0.002364623945 0.004983043222)
(0.04151642447 -0.003000124373 0.004993910453)
(0.04024763198 0.001272084504 0.004425393895)
(0.04015400756 0.0007549030521 0.004427735938)
(0.040111784 0.0002503122596 0.004429534764)
(0.04011178408 -0.0002503055698 0.004429534753)
(0.04015400794 -0.0007548960848 0.004427735997)
(0.04024763303 -0.00127207805 0.004425394123)
(0.04041325191 -0.001812206107 0.004424327091)
(0.04068710076 -0.002392557753 0.004426275433)
(0.04112809017 -0.003024874516 0.004434378359)
(0.03933434552 0.001289162821 0.003719775171)
(0.03924390141 0.0007664670073 0.00372247454)
(0.03920355082 0.0002543946496 0.003724460179)
(0.03920355093 -0.0002543882977 0.003724460292)
(0.03924390209 -0.0007664603054 0.00372247479)
(0.03933434709 -0.001289156471 0.003719775644)
(0.03949667048 -0.001831486576 0.003718268303)
(0.0397694287 -0.002409194794 0.003719622381)
(0.040214415 -0.003033116486 0.003724831831)
(0.01235450423 0.0005742330968 0.0003296684778)
(0.01228724129 0.0003467461854 0.0003306837229)
(0.0122559669 0.0001159710378 0.0003313654064)
(0.01225596658 -0.0001159669768 0.0003313653631)
(0.01228724032 -0.0003467420068 0.0003306836585)
(0.0123545028 -0.0005742289702 0.0003296682055)
(0.01246706275 -0.0007967892653 0.0003292157138)
(0.01263757167 -0.001014384187 0.0003314176419)
(0.01287712299 -0.001224617724 0.0003375964467)
(0.02969774051 0.001122932075 0.00268704224)
(0.02957314385 0.000670840591 0.002691009535)
(0.02951583077 0.0002231760387 0.002693879849)
(0.02951583046 -0.0002231700201 0.002693879813)
(0.02957314295 -0.0006708343908 0.002691009385)
(0.02969773925 -0.001122926284 0.002687042022)
(0.02991023299 -0.001583527184 0.002686409008)
(0.03024124373 -0.00206032177 0.002696974558)
(0.03072306852 -0.002556909567 0.00272681087)
(0.03863223751 0.001323951016 0.004238551853)
(0.03851043823 0.0007862258422 0.004254668983)
(0.03845550698 0.000260771944 0.004263517097)
(0.0384555067 -0.0002607657342 0.004263517153)
(0.03851043747 -0.0007862194164 0.004254669235)
(0.03863223691 -0.001323945017 0.00423855243)
(0.03884710525 -0.001883137789 0.00422010532)
(0.03919694429 -0.002472739986 0.004216330683)
(0.03972454995 -0.003094338017 0.004241046036)
(0.04133965082 0.001406568388 0.004772151338)
(0.04121692727 0.00083815036 0.004776042878)
(0.04116027035 0.0002787227202 0.004778205692)
(0.04116027035 -0.0002787178504 0.004778205929)
(0.04121692696 -0.0008381449944 0.004776043553)
(0.04133965076 -0.001406563167 0.004772152609)
(0.04155070087 -0.001994290229 0.004768493477)
(0.04188870592 -0.00261428135 0.004771220475)
(0.04240531572 -0.003269159404 0.004790343617)
(0.04148317744 0.001447126596 0.004513461454)
(0.04137014232 0.0008639867891 0.00452100035)
(0.04131884295 0.0002874528408 0.004525380767)
(0.04131884298 -0.0002874486821 0.004525381113)
(0.04137014223 -0.0008639820422 0.004521001392)
(0.04148317804 -0.00144712174 0.004513463321)
(0.04168189442 -0.002043967963 0.004505716544)
(0.04200710622 -0.002665850856 0.004503565579)
(0.04251538824 -0.003314511196 0.004513834685)
(0.04081605915 0.001472986157 0.004010955227)
(0.04071089147 0.0008813569483 0.004019484997)
(0.0406641695 0.0002934926609 0.00402453614)
(0.04066416952 -0.0002934888446 0.004024536605)
(0.04071089147 -0.0008813525204 0.004019486326)
(0.0408160598 -0.001472981653 0.004010957359)
(0.04100550071 -0.002073129867 0.004001945966)
(0.04132266754 -0.002691377611 0.003996057223)
(0.04182660662 -0.003328015058 0.003996619643)
(0.01122056934 0.0007843878421 0.0001764702559)
(0.01112004773 0.0005733358332 0.0001770216261)
(0.01105894798 0.0003494373923 0.0001778523144)
(0.01103026036 0.0001174129495 0.0001784018112)
(0.01103025989 -0.0001174108441 0.0001784017971)
(0.01105894665 -0.0003494351893 0.0001778523012)
(0.01112004535 -0.000573333276 0.000177021548)
(0.01122056632 -0.0007843856741 0.0001764700365)
(0.0113680305 -0.0009793128141 0.0001775978605)
(0.01156318369 -0.00115309004 0.0001815401588)
(0.02823614281 0.001654069407 0.002029679233)
(0.028008972 0.001186255708 0.002028717956)
(0.02787265176 0.0007139784568 0.002031421607)
(0.02780902427 0.0002384125262 0.002033699126)
(0.02780902386 -0.0002384071064 0.002033699142)
(0.02787265059 -0.0007139729468 0.002031421676)
(0.02800897 -0.001186250222 0.002028718144)
(0.0282361405 -0.001654064912 0.00202967954)
(0.02857678056 -0.002118272144 0.002041596301)
(0.02904274755 -0.002572548455 0.002072545541)
(0.0381093198 0.0020256094 0.003697530147)
(0.03786025346 0.001438342659 0.003708131896)
(0.0377142889 0.0008595645651 0.003719862837)
(0.03764713508 0.0002858537718 0.003727286622)
(0.03764713459 -0.0002858470595 0.003727286704)
(0.03771428775 -0.000859557797 0.003719863497)
(0.03786025187 -0.001438335982 0.003708133077)
(0.03810931798 -0.002025603986 0.003697531914)
(0.03849661975 -0.002625584953 0.003701892441)
(0.03904892773 -0.003230631638 0.00373510362)
(0.04196122493 0.002174342457 0.004521911796)
(0.0417287093 0.001543176613 0.004532833485)
(0.04159639809 0.00091917228 0.004546037241)
(0.04153633958 0.0003045417579 0.004554571206)
(0.04153633907 -0.0003045359216 0.004554571488)
(0.04159639696 -0.0009191667524 0.004546038086)
(0.04172870778 -0.001543171084 0.004532835325)
(0.04196122358 -0.00217433771 0.004521914822)
(0.04233353721 -0.002820191896 0.004522605994)
(0.04288449789 -0.003470479013 0.004547714958)
(0.04275172795 0.002247629272 0.004530450113)
(0.04253893875 0.001603476426 0.004546227047)
(0.04242023322 0.0009608258059 0.004562887409)
(0.04236725474 0.000319829915 0.004573094224)
(0.04236725425 -0.0003198263191 0.004573094684)
(0.04242023198 -0.0009608219815 0.004562888749)
(0.04253893692 -0.001603471982 0.00454622941)
(0.04275172623 -0.00224762563 0.00453045351)
(0.04310158242 -0.002898281466 0.004522669042)
(0.04363235547 -0.003543271599 0.004532440353)
(0.04240979391 0.002290221858 0.004210408006)
(0.0422137125 0.001640296879 0.004231378647)
(0.0421073861 0.0009861864258 0.00424950513)
(0.04206108807 0.0003290535494 0.004260093601)
(0.04206108758 -0.0003290507864 0.00426009408)
(0.04210738454 -0.0009861832914 0.004249506682)
(0.0422137104 -0.001640293029 0.004231381104)
(0.04240979218 -0.00229021917 0.004210411152)
(0.04274017712 -0.002937768686 0.004193264654)
(0.04325254787 -0.003569985537 0.004186249853)
(0.0105730151 0.001108461059 0.0001138605836)
(0.01043530314 0.0009643329621 0.0001117996543)
(0.0103233195 0.000787849683 0.0001126512158)
(0.01024544524 0.0005838105093 0.0001143478637)
(0.01019842407 0.0003588788031 0.000115761162)
(0.01017670892 0.0001210600693 0.0001164535611)
(0.01017670859 -0.0001210616444 0.0001164536663)
(0.0101984231 -0.0003588803431 0.0001157615971)
(0.01024544344 -0.0005838118056 0.0001143482031)
(0.01032331638 -0.0007878503232 0.0001126516513)
(0.01043529909 -0.0009643330704 0.0001118000893)
(0.01057301003 -0.001108461437 0.0001138609817)
(0.02748762131 0.002569394474 0.001652438471)
(0.02708370275 0.002161542416 0.001627646656)
(0.02676785121 0.001717708584 0.001621347506)
(0.02655108744 0.001246723973 0.001624693276)
(0.02642024087 0.0007559753256 0.001629701859)
(0.02635943511 0.0002533141727 0.001632430653)
(0.02635943491 -0.0002533122401 0.001632430871)
(0.02642024008 -0.0007559735287 0.001629702356)
(0.02655108619 -0.001246722203 0.001624693918)
(0.02676784905 -0.001717706887 0.001621348437)
(0.0270836995 -0.002161541218 0.001627647862)
(0.02748761606 -0.002569393902 0.001652439804)
(0.03815828709 0.003334828405 0.003344405582)
(0.03762973157 0.002759655082 0.003314766246)
(0.03723646581 0.002161213671 0.003314622823)
(0.03697678919 0.001550414905 0.003329537417)
(0.03682367073 0.0009332458204 0.003342981736)
(0.03675296124 0.0003117278784 0.003348179657)
(0.03675296101 -0.0003117197961 0.003348180035)
(0.03682366982 -0.0009332380642 0.003342982659)
(0.03697678778 -0.001550407778 0.003329538502)
(0.03723646371 -0.002161207747 0.003314624226)
(0.03762972856 -0.002759651094 0.003314768184)
(0.03815828274 -0.003334826364 0.003344407723)
(0.04300641962 0.003655827254 0.004346845717)
(0.04247584094 0.003017322659 0.004336710455)
(0.0420923398 0.002358445336 0.004348263779)
(0.04184682746 0.001690807157 0.004370478321)
(0.04169210434 0.001030526032 0.004387264384)
(0.04161689262 0.0003474381236 0.004399124493)
(0.04161689242 -0.0003474290309 0.004399124761)
(0.04169210313 -0.001030516768 0.004387265019)
(0.0418468251 -0.001690798191 0.004370479151)
(0.04209233661 -0.002358437828 0.004348265241)
(0.0424758372 -0.003017317796 0.004336713007)
(0.04300641555 -0.003655825182 0.004346848285)
(0.04447264288 0.00377411746 0.004571601733)
(0.04395870454 0.003135249537 0.004583972209)
(0.04360564198 0.002463455706 0.004616154681)
(0.04338779199 0.001772799009 0.004654643893)
(0.04326611869 0.001070689753 0.004686268586)
(0.04321120622 0.0003582323765 0.004706308016)
(0.04321120545 -0.0003582226393 0.004706307967)
(0.04326611641 -0.001070680319 0.004686268505)
(0.0433877883 -0.001772790219 0.004654644096)
(0.04360563718 -0.002463448002 0.004616155721)
(0.04395869955 -0.003135245169 0.004583973487)
(0.04447263719 -0.003774116987 0.004571602376)
(0.04363753529 0.002533835417 0.004452168162)
(0.0434476959 0.001834759021 0.004493837233)
(0.04334746335 0.001111341766 0.004528791525)
(0.04330518905 0.0003722706797 0.004549037074)
(0.04330518803 -0.0003722613473 0.004549036939)
(0.04334746051 -0.001111332805 0.00452879089)
(0.04344769167 -0.001834750384 0.004493836589)
(0.04363753027 -0.002533828556 0.004452167972)
(0.04396086745 -0.003202640621 0.004411398593)
(0.04444963708 -0.003828824059 0.00437717462)
(0.009750012649 0.001094405786 9.087002433e-05)
(0.009681311033 0.0009772328225 9.114812741e-05)
(0.009613730249 0.000814319871 9.422582086e-05)
(0.009565684663 0.0006121329934 9.750747798e-05)
(0.009537412596 0.0003799521312 0.0001002042153)
(0.009524909704 0.0001288064846 0.0001016732334)
(0.009524909626 -0.0001288126492 0.0001016733427)
(0.00953741234 -0.0003799582254 0.0001002045538)
(0.009565683906 -0.0006121387973 9.750804142e-05)
(0.009613728606 -0.0008143246433 9.422670551e-05)
(0.009681308082 -0.000977236194 9.114911789e-05)
(0.009750008188 -0.001094408268 9.087084178e-05)
(0.02600389849 0.002564614425 0.001410167982)
(0.02571001167 0.002211564959 0.001397116056)
(0.02545023317 0.001792530922 0.001401979256)
(0.02526539331 0.001319678016 0.001414491504)
(0.02515286718 0.0008080391876 0.001427672493)
(0.02510092995 0.0002720931218 0.001435624895)
(0.02510093004 -0.0002721008339 0.00143562534)
(0.02515286748 -0.0008080469524 0.001427673629)
(0.02526539341 -0.001319685354 0.001414493096)
(0.02545023256 -0.001792536968 0.001401981292)
(0.02571000948 -0.002211569436 0.001397118296)
(0.0260038938 -0.002564617664 0.001410170343)
(0.03709494821 0.003424906252 0.003087383522)
(0.03664646254 0.002893340076 0.00307151666)
(0.03628058004 0.002306968963 0.00308531721)
(0.03602997688 0.001677957108 0.003112368727)
(0.03588101969 0.001019598146 0.003139743416)
(0.03581308852 0.0003421590138 0.003155839454)
(0.03581308871 -0.0003421563197 0.003155840081)
(0.03588102014 -0.001019595933 0.003139744801)
(0.03602997717 -0.001677955569 0.003112370433)
(0.03628057971 -0.002306967869 0.003085318888)
(0.03664646083 -0.002893339405 0.003071518335)
(0.03709494432 -0.003424906214 0.00308738521)
(0.04283181343 0.003840173214 0.004240926113)
(0.04235831477 0.003229142629 0.004249117115)
(0.04198951566 0.002566048081 0.004284697032)
(0.04174302639 0.001863741164 0.004332615484)
(0.04160062182 0.001128394636 0.004381968214)
(0.0415346612 0.0003787533773 0.004410632897)
(0.04153466134 -0.0003787449589 0.004410633034)
(0.04160062194 -0.001128385758 0.004381968523)
(0.04174302596 -0.001863733043 0.004332615506)
(0.04198951407 -0.002566041535 0.004284696641)
(0.04235831164 -0.003229138533 0.004249116714)
(0.04283180885 -0.003840171619 0.004240925182)
(0.04503243704 0.004038759809 0.004682942644)
(0.04458994118 0.00340515903 0.004729307812)
(0.04426664452 0.002711528788 0.004791495939)
(0.04406831292 0.001969557091 0.004855710572)
(0.04396264674 0.0011960094 0.00490686843)
(0.04391825551 0.0004014427016 0.004935603399)
(0.04391825528 -0.0004014259441 0.004935602742)
(0.04396264582 -0.001195993774 0.004906866684)
(0.04406831121 -0.001969543846 0.004855707969)
(0.0442666416 -0.002711518419 0.004791493044)
(0.04458993695 -0.003405153254 0.004729304738)
(0.04503243138 -0.004038758434 0.004682939244)
(0.04480872857 0.002834456823 0.004774181567)
(0.0446641865 0.002070165405 0.004848738301)
(0.04459853055 0.001260814857 0.004909155408)
(0.04457526459 0.00042351768 0.004942876942)
(0.04457526421 -0.0004234984706 0.004942876036)
(0.04459852946 -0.001260797248 0.004909152726)
(0.04466418446 -0.002070150197 0.00484873396)
(0.04480872539 -0.002834445034 0.004774176248)
(0.04507370551 -0.003533882192 0.004693155277)
(0.0454593569 -0.004156224203 0.004615643953)
(0.009000628239 0.001117740601 8.713884392e-05)
(0.009003012524 0.001025158671 9.160803395e-05)
(0.008985513781 0.0008702394566 9.725473799e-05)
(0.008972015513 0.0006630878852 0.0001028126246)
(0.008965579918 0.0004151993441 0.0001070193378)
(0.00896357523 0.0001414025585 0.0001093521282)
(0.008963575204 -0.0001414118393 0.0001093521639)
(0.008965579788 -0.0004152084584 0.0001070195352)
(0.008972015299 -0.0006630966031 0.0001028130976)
(0.008985513105 -0.0008702470437 9.725564137e-05)
(0.009003010931 -0.001025164619 9.160915804e-05)
(0.009000625433 -0.001117745338 8.71398715e-05)
(0.02453481906 0.002572027522 0.001283215765)
(0.0243860229 0.002289916947 0.001295007965)
(0.02420652142 0.001893729427 0.001319840519)
(0.02407076234 0.00141569195 0.001348141752)
(0.02398669188 0.0008755624267 0.00137232807)
(0.02394765379 0.0002963830547 0.001386620944)
(0.02394765406 -0.0002964038736 0.001386621332)
(0.02398669255 -0.0008755825904 0.001372329365)
(0.0240707629 -0.00141571044 0.001348143933)
(0.02420652124 -0.001893744866 0.001319843618)
(0.02438602126 -0.002289928757 0.001295011707)
(0.02453481505 -0.002572035923 0.001283219944)
(0.03584394092 0.00350961223 0.002938923921)
(0.03554185283 0.003048476679 0.002964185359)
(0.03523638207 0.002476750861 0.003012540435)
(0.03501681386 0.001826115593 0.003067984162)
(0.03488382729 0.001119376746 0.003116965602)
(0.03482234711 0.0003773461449 0.003147108023)
(0.03482234769 -0.0003773594615 0.003147108662)
(0.03488382899 -0.001119389735 0.003116967562)
(0.035016816 -0.001826127733 0.003067987139)
(0.03523638389 -0.002476760932 0.00301254423)
(0.03554185305 -0.003048483987 0.002964189666)
(0.03584393805 -0.003509617202 0.002938928493)
(0.04235909466 0.00403747514 0.004230196682)
(0.04200557062 0.003476694201 0.004292148738)
(0.04168309664 0.002807918257 0.004375898786)
(0.04146822146 0.002059294158 0.004461718679)
(0.04135483705 0.001253313124 0.004529373114)
(0.04130527106 0.0004209260698 0.004568901756)
(0.04130527154 -0.0004209248487 0.004568901804)
(0.04135483879 -0.001253312059 0.004529373549)
(0.0414682244 -0.002059293908 0.004461719552)
(0.04168309933 -0.00280791825 0.00437589981)
(0.04200557146 -0.00347669448 0.004292149907)
(0.04235909187 -0.004037475881 0.004230196899)
(0.04526930142 0.004340247715 0.004886318279)
(0.04497519028 0.003751327461 0.005002379763)
(0.04470785797 0.003038124057 0.005130586209)
(0.04454296737 0.002234675129 0.005252208038)
(0.04446089351 0.001367995453 0.005345119578)
(0.04442929901 0.0004607855654 0.005394645337)
(0.04442929987 -0.0004607726267 0.005394644634)
(0.04446089602 -0.001367983633 0.005345117832)
(0.04454297075 -0.002234665632 0.005252205629)
(0.04470786092 -0.003038116847 0.0051305836)
(0.04497519153 -0.003751323626 0.005002377676)
(0.04526929995 -0.004340246129 0.004886315149)
(0.0458107267 0.003233162062 0.005330052434)
(0.04571886023 0.002392182106 0.005480989035)
(0.04569021799 0.001470213503 0.005596141661)
(0.04568685644 0.0004961134872 0.005658206581)
(0.04568685746 -0.0004960942827 0.005658205059)
(0.04569022105 -0.001470196021 0.00559613734)
(0.04571886443 -0.002392167599 0.00548098282)
(0.04581073078 -0.00323315072 0.005330045548)
(0.04599564181 -0.003962331116 0.005163215687)
(0.04621291186 -0.004540040853 0.004999565489)
(0.008267533625 0.001188444567 9.052244563e-05)
(0.00833728009 0.001114260702 9.944744991e-05)
(0.008372719808 0.0009619460144 0.0001083864457)
(0.008397523064 0.0007415513788 0.0001165474293)
(0.008416279786 0.0004676638056 0.0001223364852)
(0.008426748824 0.0001598150761 0.0001253936085)
(0.008426748501 -0.0001598238075 0.0001253935505)
(0.0084162789 -0.0004676722361 0.0001223365992)
(0.008397521809 -0.0007415595125 0.0001165475147)
(0.008372718098 -0.0009619533176 0.0001083869577)
(0.008337278098 -0.001114266818 9.944829e-05)
(0.00826753141 -0.001188450052 9.052340955e-05)
(0.02304122378 0.002629323433 0.001236847893)
(0.02304084066 0.002408945159 0.001284152152)
(0.02296500758 0.002034607026 0.001337901788)
(0.02289597848 0.001544267091 0.001389594777)
(0.0228529947 0.0009641513039 0.001429524444)
(0.0228335983 0.0003278713262 0.001451450644)
(0.02283359765 -0.0003279008355 0.001451450901)
(0.02285299283 -0.0009641792272 0.001429525596)
(0.02289597551 -0.001544292168 0.001389597046)
(0.0229650033 -0.002034627855 0.001337905231)
(0.02304083509 -0.002408960966 0.001284156613)
(0.02304121684 -0.002629335427 0.001236853238)
(0.03440726701 0.003598093819 0.002894924685)
(0.03428708383 0.003230116281 0.002982675174)
(0.03408425133 0.002675944033 0.00308603995)
(0.03392463149 0.00200232335 0.003185514737)
(0.03382679901 0.001238284021 0.003264190038)
(0.03378205649 0.0004190437601 0.003308669489)
(0.03378205657 -0.0004190783101 0.003308670228)
(0.03382679924 -0.001238316534 0.003264192703)
(0.03392463153 -0.002002352357 0.003185519385)
(0.03408425031 -0.002675967495 0.003086046306)
(0.03428708115 -0.003230133075 0.002982682652)
(0.03440726162 -0.003598105166 0.002894933156)
(0.04154172983 0.004243800228 0.004331084445)
(0.04138083541 0.003769672418 0.004470561359)
(0.04115577873 0.003096474541 0.004629029036)
(0.04099641134 0.002300488162 0.004777101256)
(0.04091055365 0.001414900948 0.004891647412)
(0.04087878632 0.0004770191079 0.004951950756)
(0.04087878708 -0.0004770417716 0.004951951458)
(0.04091055622 -0.00141492256 0.004891650266)