/*--------------------------------*- C++ -*----------------------------------*\
  =========                 |
  \\      /  F ield         | OpenFOAM: The Open Source CFD Toolbox
   \\    /   O peration     | Website:  https://openfoam.org
    \\  /    A nd           | Version:  7
     \\/     M anipulation  |
\*---------------------------------------------------------------------------*/
FoamFile
{
    version     2.0;
    format      ascii;
    class       volScalarField;
    location    "0.00267";
    object      rho;
}
// * * * * * * * * * * * * * * * * * * * * * * * * * * * * * * * * * * * * * //

dimensions      [1 -3 0 0 0 0 0];

internalField   nonuniform List<scalar> 
5000
(
1.3374791
1.3374791
1.3374791
1.3374791
1.3374791
1.3374791
1.3374791
1.3374791
1.3374791
1.3374791
1.3374792
1.3374792
1.3374792
1.3374792
1.3374792
1.3374792
1.3374792
1.3374792
1.3374792
1.3374792
1.3374792
1.3374792
1.3374792
1.3374792
1.3374792
1.3374792
1.3374792
1.3374792
1.3374792
1.3374792
1.3374792
1.3374792
1.3374792
1.3374792
1.3374792
1.3374792
1.3374792
1.3374792
1.3374792
1.3374792
1.3374792
1.3374792
1.3374792
1.3374792
1.3374792
1.3374792
1.3374792
1.3374792
1.3374792
1.3374792
1.3374793
1.3374793
1.3374793
1.3374793
1.3374793
1.3374793
1.3374793
1.3374793
1.3374793
1.3374793
1.3374793
1.3374793
1.3374793
1.3374793
1.3374793
1.3374793
1.3374793
1.3374793
1.3374793
1.3374793
1.3374793
1.3374793
1.3374793
1.3374793
1.3374793
1.3374793
1.3374793
1.3374793
1.3374793
1.3374793
1.3374793
1.3374793
1.3374793
1.3374793
1.3374794
1.3374794
1.3374794
1.3374794
1.3374794
1.3374793
1.3374793
1.3374793
1.3374793
1.3374793
1.3374793
1.3374793
1.3374793
1.3374793
1.3374793
1.3374793
1.3374792
1.3374792
1.3374792
1.3374792
1.3374791
1.3374791
1.337479
1.3374789
1.3374785
1.3374776
1.3374755
1.3374714
1.3374653
1.3374571
1.337446
1.3374313
1.3374121
1.3373875
1.3373566
1.3373187
1.3372735
1.3372209
1.3371613
1.3370956
1.337025
1.3369513
1.3368759
1.3368008
1.3367276
1.3366579
1.3365927
1.336533
1.3364795
1.3364322
1.3363913
1.3363563
1.336327
1.3363027
1.336283
1.336267
1.3362544
1.3362445
1.3362368
1.3362309
1.3362264
1.336223
1.3362205
1.3362186
1.3362173
1.3362163
1.3362155
1.336215
1.3362146
1.3362144
1.3362142
1.336214
1.3362139
1.3362139
1.3362138
1.3362138
1.3362138
1.3362138
1.3362137
1.3362137
1.3362137
1.3362137
1.3362137
1.3362137
1.3362137
1.3362137
1.3362137
1.3362137
1.3362137
1.3362137
1.3362137
1.3362137
1.3362137
1.3362137
1.3362137
1.3362137
1.3362137
1.3362137
1.3362137
1.3362137
1.3362137
1.3362137
1.3362137
1.3362137
1.3362137
1.3362137
1.3362137
1.3362137
1.3362137
1.3362137
1.3362137
1.3362137
1.3362137
1.3362137
1.3362137
1.3362137
1.3362137
1.3362137
1.3362137
1.3362137
1.3362137
1.3362137
1.3362137
1.3362137
1.3362137
1.3362137
1.3362136
1.3362136
1.3362136
1.3362136
1.3362136
1.3362136
1.3362136
1.3362136
1.3362136
1.3362136
1.3362136
1.3362136
1.3362136
1.3362136
1.3362136
1.3362136
1.3362136
1.3362136
1.3362136
1.3362136
1.3362136
1.3362136
1.3362136
1.3362136
1.3362136
1.3362136
1.3362136
1.3362136
1.3362136
1.3362136
1.3362136
1.3362136
1.3362136
1.3362136
1.3362136
1.3362136
1.3362136
1.3362136
1.3362136
1.3362136
1.3362136
1.3362136
1.3362136
1.3362136
1.3362136
1.3362136
1.3362136
1.3362136
1.3362136
1.3362136
1.3362136
1.3362136
1.3362136
1.3362136
1.3362136
1.3362136
1.3362136
1.3362136
1.3362136
1.3362136
1.3362136
1.3362136
1.3362135
1.3362135
1.3362135
1.3362135
1.3362135
1.3362135
1.3362135
1.3362135
1.3362135
1.3362135
1.3362135
1.3362135
1.3362135
1.3362135
1.3362135
1.3362135
1.3362135
1.3362135
1.3362135
1.3362135
1.3362135
1.3362135
1.3362135
1.3362135
1.3362135
1.3362135
1.3362135
1.3362135
1.3362135
1.3362135
1.3362135
1.3362135
1.3362135
1.3362135
1.3362135
1.3362135
1.3362135
1.3362135
1.3362135
1.3362135
1.3362135
1.3362135
1.3362135
1.3362135
1.3362135
1.3362135
1.3362135
1.3362135
1.3362135
1.3362135
1.3362135
1.3362135
1.3362135
1.3362135
1.3362135
1.3362134
1.3362134
1.3362134
1.3362134
1.3362134
1.3362134
1.3362134
1.3362134
1.3362134
1.3362134
1.3362134
1.3362134
1.3362134
1.3362134
1.3362134
1.3362134
1.3362134
1.3362134
1.3362134
1.3362134
1.3362134
1.3362134
1.3362134
1.3362134
1.3362134
1.3362134
1.3362134
1.3362134
1.3362134
1.3362134
1.3362134
1.3362134
1.3362134
1.3362134
1.3362134
1.3362134
1.3362134
1.3362134
1.3362134
1.3362134
1.3362134
1.3362134
1.3362134
1.3362134
1.3362134
1.3362134
1.3362134
1.3362134
1.3362134
1.3362133
1.3362133
1.3362133
1.3362133
1.3362133
1.3362133
1.3362133
1.3362133
1.3362133
1.3362133
1.3362133
1.3362133
1.3362133
1.3362133
1.3362133
1.3362133
1.3362133
1.3362133
1.3362133
1.3362133
1.3362133
1.3362133
1.3362133
1.3362133
1.3362133
1.3362133
1.3362133
1.3362133
1.3362133
1.3362133
1.3362133
1.3362133
1.3362133
1.3362133
1.3362133
1.3362133
1.3362133
1.3362133
1.3362133
1.3362133
1.3362133
1.3362133
1.3362133
1.3362133
1.3362133
1.3362133
1.3362133
1.3362133
1.3362133
1.3362132
1.3362132
1.3362132
1.3362132
1.3362132
1.3362132
1.3362132
1.3362132
1.3362132
1.3362132
1.3362132
1.3362132
1.3362132
1.3362132
1.3362132
1.3362132
1.3362132
1.3362132
1.3362132
1.3362132
1.3362132
1.3362132
1.3362132
1.3362132
1.3362132
1.3362132
1.3362132
1.3362132
1.3362132
1.3362132
1.3362132
1.3362132
1.3362132
1.3362132
1.3362132
1.3362132
1.3362132
1.3362132
1.3362132
1.3362132
1.3362132
1.3362132
1.3362132
1.3362132
1.3362132
1.3362132
1.3362131
1.3362131
1.3362131
1.3362131
1.3362131
1.3362131
1.3362131
1.3362131
1.3362131
1.3362131
1.3362131
1.3362131
1.3362131
1.3362131
1.3362131
1.3362131
1.3362131
1.3362131
1.3362131
1.3362131
1.3362131
1.3362131
1.3362131
1.3362131
1.3362131
1.3362131
1.3362131
1.3362131
1.3362131
1.3362131
1.3362131
1.3362131
1.3362131
1.3362131
1.3362131
1.3362131
1.3362131
1.3362131
1.3362131
1.3362131
1.3362131
1.3362131
1.3362131
1.3362131
1.3362131
1.336213
1.336213
1.336213
1.336213
1.336213
1.336213
1.336213
1.336213
1.336213
1.336213
1.336213
1.336213
1.336213
1.336213
1.336213
1.336213
1.336213
1.336213
1.336213
1.336213
1.336213
1.336213
1.336213
1.336213
1.336213
1.336213
1.336213
1.336213
1.336213
1.336213
1.336213
1.336213
1.336213
1.336213
1.336213
1.3362129
1.3362129
1.3362129
1.3362129
1.3362129
1.3362129
1.3362129
1.3362129
1.3362129
1.3362129
1.3362129
1.3362129
1.3362129
1.3362129
1.3362129
1.3362129
1.3362129
1.3362129
1.3362129
1.3362129
1.3362129
1.3362129
1.3362129
1.3362129
1.3362129
1.3362129
1.3362129
1.3362129
1.3362129
1.3362129
1.3362129
1.3362129
1.3362129
1.3362129
1.3362129
1.3362128
1.3362128
1.3362128
1.3362128
1.3362128
1.3362128
1.3362128
1.3362128
1.3362128
1.3362128
1.3362128
1.3362128
1.3362128
1.3362128
1.3362128
1.3362128
1.3362128
1.3362128
1.3362128
1.3362128
1.3362128
1.3362128
1.3362128
1.3362128
1.3362128
1.3362128
1.3362128
1.3362128
1.3362128
1.3362128
1.3362128
1.3362128
1.3362128
1.3362128
1.3362128
1.3362128
1.3362128
1.3362128
1.3362128
1.3362127
1.3362127
1.3362127
1.3362127
1.3362127
1.3362127
1.3362127
1.3362127
1.3362127
1.3362127
1.3362127
1.3362127
1.3362127
1.3362127
1.3362127
1.3362127
1.3362127
1.3362127
1.3362127
1.3362127
1.3362127
1.3362127
1.3362127
1.3362127
1.3362127
1.3362127
1.3362127
1.3362127
1.3362127
1.3362127
1.3362127
1.3362127
1.3362127
1.3362127
1.3362127
1.3362127
1.3362127
1.3362126
1.3362126
1.3362126
1.3362126
1.3362126
1.3362126
1.3362126
1.3362126
1.3362126
1.3362126
1.3362126
1.3362126
1.3362126
1.3362126
1.3362126
1.3362126
1.3362126
1.3362126
1.3362126
1.3362126
1.3362126
1.3362126
1.3362126
1.3362126
1.3362126
1.3362126
1.3362126
1.3362126
1.3362126
1.3362126
1.3362126
1.3362126
1.3362126
1.3362126
1.3362125
1.3362125
1.3362125
1.3362125
1.3362125
1.3362125
1.3362125
1.3362125
1.3362125
1.3362125
1.3362125
1.3362125
1.3362125
1.3362125
1.3362125
1.3362125
1.3362125
1.3362125
1.3362125
1.3362125
1.3362125
1.3362125
1.3362125
1.3362125
1.3362125
1.3362125
1.3362125
1.3362125
1.3362125
1.3362125
1.3362125
1.3362125
1.3362124
1.3362124
1.3362124
1.3362124
1.3362124
1.3362124
1.3362124
1.3362124
1.3362124
1.3362124
1.3362124
1.3362124
1.3362124
1.3362124
1.3362124
1.3362124
1.3362124
1.3362124
1.3362124
1.3362124
1.3362124
1.3362124
1.3362124
1.3362124
1.3362124
1.3362124
1.3362124
1.3362124
1.3362124
1.3362124
1.3362124
1.3362123
1.3362123
1.3362123
1.3362123
1.3362123
1.3362123
1.3362123
1.3362123
1.3362123
1.3362123
1.3362123
1.3362123
1.3362123
1.3362123
1.3362123
1.3362123
1.3362123
1.3362123
1.3362123
1.3362123
1.3362123
1.3362123
1.3362123
1.3362123
1.3362123
1.3362123
1.3362123
1.3362123
1.3362123
1.3362123
1.3362122
1.3362122
1.3362122
1.3362122
1.3362122
1.3362122
1.3362122
1.3362122
1.3362122
1.3362122
1.3362122
1.3362122
1.3362122
1.3362122
1.3362122
1.3362122
1.3362122
1.3362122
1.3362122
1.3362122
1.3362122
1.3362122
1.3362122
1.3362122
1.3362122
1.3362122
1.3362122
1.3362122
1.3362121
1.3362121
1.3362121
1.3362121
1.3362121
1.3362121
1.3362121
1.3362121
1.3362121
1.3362121
1.3362121
1.3362121
1.3362121
1.3362121
1.3362121
1.3362121
1.3362121
1.3362121
1.3362121
1.3362121
1.3362121
1.3362121
1.3362121
1.3362121
1.3362121
1.3362121
1.3362121
1.3362121
1.3362121
1.3362121
1.336212
1.336212
1.336212
1.336212
1.336212
1.336212
1.336212
1.336212
1.336212
1.336212
1.336212
1.336212
1.336212
1.336212
1.336212
1.336212
1.336212
1.336212
1.336212
1.336212
1.336212
1.336212
1.336212
1.336212
1.336212
1.336212
1.336212
1.3362119
1.3362119
1.3362119
1.3362119
1.3362119
1.3362119
1.3362119
1.3362119
1.3362119
1.3362119
1.3362119
1.3362119
1.3362119
1.3362119
1.3362119
1.3362119
1.3362119
1.3362119
1.3362119
1.3362119
1.3362119
1.3362119
1.3362119
1.3362119
1.3362119
1.3362119
1.3362118
1.3362118
1.3362118
1.3362118
1.3362118
1.3362118
1.3362118
1.3362118
1.3362118
1.3362118
1.3362118
1.3362118
1.3362118
1.3362118
1.3362118
1.3362118
1.3362118
1.3362118
1.3362118
1.3362118
1.3362118
1.3362118
1.3362118
1.3362118
1.3362118
1.3362117
1.3362117
1.3362117
1.3362117
1.3362117
1.3362117
1.3362117
1.3362117
1.3362117
1.3362117
1.3362117
1.3362117
1.3362117
1.3362117
1.3362117
1.3362117
1.3362117
1.3362117
1.3362117
1.3362117
1.3362117
1.3362117
1.3362117
1.3362117
1.3362117
1.3362116
1.3362116
1.3362116
1.3362116
1.3362116
1.3362116
1.3362116
1.3362116
1.3362116
1.3362116
1.3362116
1.3362116
1.3362116
1.3362116
1.3362116
1.3362116
1.3362116
1.3362116
1.3362116
1.3362116
1.3362116
1.3362116
1.3362116
1.3362116
1.3362116
1.3362115
1.3362115
1.3362115
1.3362115
1.3362115
1.3362115
1.3362115
1.3362115
1.3362115
1.3362115
1.3362115
1.3362115
1.3362115
1.3362115
1.3362115
1.3362115
1.3362115
1.3362115
1.3362115
1.3362115
1.3362115
1.3362115
1.3362115
1.3362114
1.3362114
1.3362114
1.3362114
1.3362114
1.3362114
1.3362114
1.3362114
1.3362114
1.3362114
1.3362114
1.3362114
1.3362114
1.3362114
1.3362114
1.3362114
1.3362114
1.3362114
1.3362114
1.3362114
1.3362114
1.3362114
1.3362114
1.3362113
1.3362113
1.3362113
1.3362113
1.3362113
1.3362113
1.3362113
1.3362113
1.3362113
1.3362113
1.3362113
1.3362113
1.3362113
1.3362113
1.3362113
1.3362113
1.3362113
1.3362113
1.3362113
1.3362113
1.3362113
1.3362113
1.3362113
1.3362112
1.3362112
1.3362112
1.3362112
1.3362112
1.3362112
1.3362112
1.3362112
1.3362112
1.3362112
1.3362112
1.3362112
1.3362112
1.3362112
1.3362112
1.3362112
1.3362112
1.3362112
1.3362112
1.3362112
1.3362111
1.3362111
1.3362111
1.3362111
1.3362111
1.3362111
1.3362111
1.3362111
1.3362111
1.3362111
1.3362111
1.3362111
1.3362111
1.3362111
1.3362111
1.3362111
1.3362111
1.3362111
1.3362111
1.3362111
1.3362111
1.3362111
1.336211
1.336211
1.336211
1.336211
1.336211
1.336211
1.336211
1.336211
1.336211
1.336211
1.336211
1.336211
1.336211
1.336211
1.336211
1.336211
1.336211
1.336211
1.336211
1.336211
1.3362109
1.3362109
1.3362109
1.3362109
1.3362109
1.3362109
1.3362109
1.3362109
1.3362109
1.3362109
1.3362109
1.3362109
1.3362109
1.3362109
1.3362109
1.3362109
1.3362109
1.3362109
1.3362109
1.3362109
1.3362109
1.3362108
1.3362108
1.3362108
1.3362108
1.3362108
1.3362108
1.3362108
1.3362108
1.3362108
1.3362108
1.3362108
1.3362108
1.3362108
1.3362108
1.3362108
1.3362108
1.3362108
1.3362108
1.3362108
1.3362107
1.3362107
1.3362107
1.3362107
1.3362107
1.3362107
1.3362107
1.3362107
1.3362107
1.3362107
1.3362107
1.3362107
1.3362107
1.3362107
1.3362107
1.3362107
1.3362107
1.3362107
1.3362107
1.3362106
1.3362106
1.3362106
1.3362106
1.3362106
1.3362106
1.3362106
1.3362106
1.3362106
1.3362106
1.3362106
1.3362106
1.3362106
1.3362106
1.3362106
1.3362106
1.3362106
1.3362106
1.3362106
1.3362106
1.3362105
1.3362105
1.3362105
1.3362105
1.3362105
1.3362105
1.3362105
1.3362105
1.3362105
1.3362105
1.3362105
1.3362105
1.3362105
1.3362105
1.3362105
1.3362105
1.3362105
1.3362105
1.3362105
1.3362104
1.3362104
1.3362104
1.3362104
1.3362104
1.3362104
1.3362104
1.3362104
1.3362104
1.3362104
1.3362104
1.3362104
1.3362104
1.3362104
1.3362104
1.3362104
1.3362104
1.3362104
1.3362104
1.3362103
1.3362103
1.3362103
1.3362103
1.3362103
1.3362103
1.3362103
1.3362103
1.3362103
1.3362103
1.3362103
1.3362103
1.3362103
1.3362103
1.3362103
1.3362103
1.3362103
1.3362102
1.3362102
1.3362102
1.3362102
1.3362102
1.3362102
1.3362102
1.3362102
1.3362102
1.3362102
1.3362102
1.3362102
1.3362102
1.3362102
1.3362102
1.3362102
1.3362102
1.3362102
1.3362101
1.3362101
1.3362101
1.3362101
1.3362101
1.3362101
1.3362101
1.3362101
1.3362101
1.3362101
1.3362101
1.3362101
1.3362101
1.3362101
1.3362101
1.3362101
1.33621
1.33621
1.33621
1.33621
1.33621
1.33621
1.33621
1.33621
1.33621
1.33621
1.33621
1.33621
1.33621
1.33621
1.33621
1.33621
1.33621
1.3362099
1.3362099
1.3362099
1.3362099
1.3362099
1.3362099
1.3362099
1.3362099
1.3362099
1.3362099
1.3362099
1.3362099
1.3362099
1.3362099
1.3362099
1.3362099
1.3362098
1.3362098
1.3362098
1.3362098
1.3362098
1.3362098
1.3362098
1.3362098
1.3362098
1.3362098
1.3362098
1.3362098
1.3362098
1.3362098
1.3362098
1.3362097
1.3362097
1.3362097
1.3362097
1.3362097
1.3362097
1.3362097
1.3362097
1.3362097
1.3362097
1.3362097
1.3362097
1.3362097
1.3362097
1.3362097
1.3362096
1.3362096
1.3362096
1.3362096
1.3362096
1.3362096
1.3362096
1.3362096
1.3362096
1.3362096
1.3362096
1.3362096
1.3362096
1.3362096
1.3362095
1.3362095
1.3362095
1.3362095
1.3362095
1.3362095
1.3362095
1.3362095
1.3362095
1.3362095
1.3362095
1.3362095
1.3362095
1.3362095
1.3362094
1.3362094
1.3362094
1.3362094
1.3362094
1.3362094
1.3362094
1.3362094
1.3362094
1.3362094
1.3362094
1.3362094
1.3362094
1.3362094
1.3362093
1.3362093
1.3362093
1.3362093
1.3362093
1.3362093
1.3362093
1.3362093
1.3362093
1.3362093
1.3362093
1.3362093
1.3362093
1.3362092
1.3362092
1.3362092
1.3362092
1.3362092
1.3362092
1.3362092
1.3362092
1.3362092
1.3362092
1.3362092
1.3362092
1.3362092
1.3362091
1.3362091
1.3362091
1.3362091
1.3362091
1.3362091
1.3362091
1.3362091
1.3362091
1.3362091
1.3362091
1.3362091
1.3362091
1.336209
1.336209
1.336209
1.336209
1.336209
1.336209
1.336209
1.336209
1.336209
1.336209
1.336209
1.3362089
1.3362089
1.3362089
1.3362089
1.3362089
1.3362089
1.3362089
1.3362089
1.3362089
1.3362089
1.3362089
1.3362089
1.3362088
1.3362088
1.3362088
1.3362088
1.3362088
1.3362088
1.3362088
1.3362088
1.3362088
1.3362088
1.3362088
1.3362088
1.3362088
1.3362087
1.3362087
1.3362087
1.3362087
1.3362087
1.3362087
1.3362087
1.3362087
1.3362087
1.3362087
1.3362087
1.3362086
1.3362086
1.3362086
1.3362086
1.3362086
1.3362086
1.3362086
1.3362086
1.3362086
1.3362086
1.3362086
1.3362085
1.3362085
1.3362085
1.3362085
1.3362085
1.3362085
1.3362085
1.3362085
1.3362085
1.3362085
1.3362085
1.3362084
1.3362084
1.3362084
1.3362084
1.3362084
1.3362084
1.3362084
1.3362084
1.3362084
1.3362084
1.3362083
1.3362083
1.3362083
1.3362083
1.3362083
1.3362083
1.3362083
1.3362083
1.3362083
1.3362083
1.3362082
1.3362082
1.3362082
1.3362082
1.3362082
1.3362082
1.3362082
1.3362082
1.3362082
1.3362082
1.3362082
1.3362081
1.3362081
1.3362081
1.3362081
1.3362081
1.3362081
1.3362081
1.3362081
1.3362081
1.3362081
1.336208
1.336208
1.336208
1.336208
1.336208
1.336208
1.336208
1.336208
1.336208
1.3362079
1.3362079
1.3362079
1.3362079
1.3362079
1.3362079
1.3362079
1.3362079
1.3362079
1.3362078
1.3362078
1.3362078
1.3362078
1.3362078
1.3362078
1.3362078
1.3362078
1.3362078
1.3362077
1.3362077
1.3362077
1.3362077
1.3362077
1.3362077
1.3362077
1.3362077
1.3362076
1.3362076
1.3362076
1.3362076
1.3362076
1.3362076
1.3362076
1.3362076
1.3362075
1.3362075
1.3362075
1.3362075
1.3362075
1.3362075
1.3362075
1.3362075
1.3362074
1.3362074
1.3362074
1.3362074
1.3362074
1.3362074
1.3362074
1.3362073
1.3362073
1.3362073
1.3362073
1.3362073
1.3362073
1.3362072
1.3362072
1.3362072
1.3362072
1.3362072
1.3362072
1.3362072
1.3362071
1.3362071
1.3362071
1.3362071
1.3362071
1.3362071
1.336207
1.336207
1.336207
1.336207
1.336207
1.3362069
1.3362069
1.3362069
1.3362069
1.3362069
1.3362068
1.3362068
1.3362068
1.3362068
1.3362067
1.3362067
1.3362067
1.3362067
1.3362067
1.3362066
1.3362066
1.3362066
1.3362066
1.3362065
1.3362065
1.3362065
1.3362064
1.3362064
1.3362064
1.3362063
1.3362063
1.3362063
1.3362062
1.3362062
1.3362062
1.3362061
1.3362061
1.3362061
1.336206
1.336206
1.336206
1.3362059
1.3362059
1.3362058
1.3362058
1.3362058
1.3362057
1.3362057
1.3362056
1.3362056
1.3362055
1.3362055
1.3362054
1.3362054
1.3362053
1.3362053
1.3362052
1.3362052
1.3362051
1.336205
1.336205
1.3362049
1.3362048
1.3362048
1.3362047
1.3362046
1.3362046
1.3362045
1.3362044
1.3362043
1.3362043
1.3362042
1.3362041
1.336204
1.3362039
1.3362038
1.3362037
1.3362036
1.3362035
1.3362034
1.3362033
1.3362032
1.3362031
1.336203
1.3362029
1.3362028
1.3362027
1.3362025
1.3362024
1.3362023
1.3362021
1.336202
1.3362019
1.3362017
1.3362016
1.3362014
1.3362013
1.3362011
1.3362009
1.3362008
1.3362006
1.3362004
1.3362003
1.3362001
1.3361999
1.3361997
1.3361995
1.3361993
1.3361991
1.3361989
1.3361987
1.3361984
1.3361982
1.336198
1.3361977
1.3361975
1.3361972
1.336197
1.3361967
1.3361964
1.3361962
1.3361959
1.3361956
1.3361953
1.336195
1.3361947
1.3361944
1.336194
1.3361937
1.3361934
1.336193
1.3361926
1.3361923
1.3361919
1.3361915
1.3361911
1.3361907
1.3361903
1.3361899
1.3361895
1.336189
1.3361886
1.3361881
1.3361877
1.3361872
1.3361867
1.3361862
1.3361857
1.3361852
1.3361846
1.3361841
1.3361835
1.336183
1.3361824
1.3361818
1.3361812
1.3361806
1.33618
1.3361793
1.3361787
1.336178
1.3361773
1.3361766
1.3361759
1.3361752
1.3361744
1.3361737
1.3361729
1.3361721
1.3361713
1.3361705
1.3361697
1.3361688
1.336168
1.3361671
1.3361662
1.3361653
1.3361644
1.3361634
1.3361624
1.3361615
1.3361605
1.3361594
1.3361584
1.3361573
1.3361563
1.3361552
1.336154
1.3361529
1.3361517
1.3361506
1.3361494
1.3361481
1.3361469
1.3361456
1.3361444
1.3361431
1.3361417
1.3361404
1.336139
1.3361376
1.3361362
1.3361347
1.3361333
1.3361318
1.3361303
1.3361287
1.3361272
1.3361256
1.336124
1.3361223
1.3361206
1.336119
1.3361172
1.3361155
1.3361137
1.3361119
1.3361101
1.3361082
1.3361064
1.3361044
1.3361025
1.3361005
1.3360985
1.3360965
1.3360945
1.3360924
1.3360903
1.3360881
1.3360859
1.3360837
1.3360815
1.3360792
1.3360769
1.3360746
1.3360722
1.3360699
1.3360674
1.336065
1.3360625
1.33606
1.3360574
1.3360548
1.3360522
1.3360495
1.3360469
1.3360441
1.3360414
1.3360386
1.3360358
1.3360329
1.33603
1.3360271
1.3360241
1.3360211
1.3360181
1.336015
1.3360119
1.3360087
1.3360056
1.3360023
1.3359991
1.3359958
1.3359925
1.3359891
1.3359857
1.3359823
1.3359788
1.3359753
1.3359717
1.3359681
1.3359645
1.3359608
1.3359571
1.3359534
1.3359496
1.3359458
1.3359419
1.335938
1.3359341
1.3359301
1.3359261
1.3359221
1.335918
1.3359138
1.3359097
1.3359055
1.3359012
1.3358969
1.3358926
1.3358883
1.3358838
1.3358794
1.3358749
1.3358704
1.3358658
1.3358612
1.3358566
1.3358519
1.3358472
1.3358424
1.3358376
1.3358328
1.3358279
1.335823
1.3358181
1.3358131
1.335808
1.335803
1.3357979
1.3357927
1.3357875
1.3357823
1.335777
1.3357717
1.3357664
1.335761
1.3357556
1.3357501
1.3357446
1.3357391
1.3357335
1.3357279
1.3357223
1.3357166
1.3357109
1.3357051
1.3356993
1.3356935
1.3356876
1.3356817
1.3356758
1.3356698
1.3356638
1.3356577
1.3356517
1.3356455
1.3356394
1.3356332
1.335627
1.3356207
1.3356144
1.3356081
1.3356017
1.3355953
1.3355889
1.3355825
1.335576
1.3355694
1.3355629
1.3355563
1.3355497
1.335543
1.3355363
1.3355296
1.3355229
1.3355161
1.3355093
1.3355024
1.3354956
1.3354887
1.3354817
1.3354748
1.3354678
1.3354608
1.3354538
1.3354467
1.3354396
1.3354325
1.3354253
1.3354182
1.335411
1.3354037
1.3353965
1.3353892
1.3353819
1.3353746
1.3353673
1.3353599
1.3353525
1.3353451
1.3353376
1.3353302
1.3353227
1.3353152
1.3353077
1.3353001
1.3352926
1.335285
1.3352774
1.3352698
1.3352621
1.3352545
1.3352468
1.3352391
1.3352314
1.3352237
1.3352159
1.3352082
1.3352004
1.3351926
1.3351848
1.335177
1.3351692
1.3351613
1.3351535
1.3351456
1.3351377
1.3351298
1.3351219
1.335114
1.3351061
1.3350982
1.3350902
1.3350823
1.3350743
1.3350663
1.3350584
1.3350504
1.3350424
1.3350344
1.3350264
1.3350184
1.3350104
1.3350023
1.3349943
1.3349863
1.3349783
1.3349702
1.3349622
1.3349541
1.3349461
1.3349381
1.33493
1.334922
1.3349139
1.3349059
1.3348978
1.3348898
1.3348817
1.3348737
1.3348656
1.3348576
1.3348496
1.3348415
1.3348335
1.3348255
1.3348174
1.3348094
1.3348014
1.3347934
1.3347854
1.3347774
1.3347694
1.3347614
1.3347535
1.3347455
1.3347375
1.3347296
1.3347216
1.3347137
1.3347058
1.3346979
1.33469
1.3346821
1.3346742
1.3346663
1.3346585
1.3346506
1.3346428
1.334635
1.3346272
1.3346194
1.3346116
1.3346038
1.334596
1.3345883
1.3345806
1.3345729
1.3345652
1.3345575
1.3345498
1.3345422
1.3345345
1.3345269
1.3345193
1.3345118
1.3345042
1.3344967
1.3344891
1.3344816
1.3344741
1.3344667
1.3344592
1.3344518
1.3344444
1.334437
1.3344296
1.3344223
1.3344149
1.3344076
1.3344003
1.3343931
1.3343858
1.3343786
1.3343714
1.3343642
1.3343571
1.3343499
1.3343428
1.3343357
1.3343287
1.3343216
1.3343146
1.3343076
1.3343007
1.3342937
1.3342868
1.3342799
1.334273
1.3342662
1.3342594
1.3342526
1.3342458
1.334239
1.3342323
1.3342256
1.334219
1.3342123
1.3342057
1.3341991
1.3341925
1.334186
1.3341795
1.334173
1.3341665
1.3341601
1.3341537
1.3341473
1.334141
1.3341346
1.3341283
1.3341221
1.3341158
1.3341096
1.3341034
1.3340973
1.3340911
1.334085
1.3340789
1.3340729
1.3340669
1.3340609
1.3340549
1.334049
1.334043
1.3340372
1.3340313
1.3340255
1.3340197
1.3340139
1.3340082
1.3340025
1.3339968
1.3339911
1.3339855
1.3339799
1.3339743
1.3339687
1.3339632
1.3339577
1.3339523
1.3339468
1.3339414
1.3339361
1.3339307
1.3339254
1.3339201
1.3339148
1.3339096
1.3339044
1.3338992
1.333894
1.3338889
1.3338838
1.3338787
1.3338737
1.3338687
1.3338637
1.3338587
1.3338538
1.3338489
1.333844
1.3338392
1.3338343
1.3338295
1.3338248
1.33382
1.3338153
1.3338106
1.333806
1.3338013
1.3337967
1.3337922
1.3337876
1.3337831
1.3337786
1.3337741
1.3337697
1.3337653
1.3337609
1.3337565
1.3337522
1.3337479
1.3337436
1.3337393
1.3337351
1.3337309
1.3337267
1.3337225
1.3337184
1.3337143
1.3337102
1.3337062
1.3337022
1.3336982
1.3336942
1.3336902
1.3336863
1.3336824
1.3336785
1.3336747
1.3336709
1.3336671
1.3336633
1.3336596
1.3336558
1.3336521
1.3336485
1.3336448
1.3336412
1.3336376
1.333634
1.3336305
1.3336269
1.3336234
1.33362
1.3336165
1.3336131
1.3336097
1.3336063
1.3336029
1.3335996
1.3335963
1.333593
1.3335897
1.3335865
1.3335832
1.33358
1.3335769
1.3335737
1.3335706
1.3335675
1.3335644
1.3335613
1.3335583
1.3335553
1.3335523
1.3335493
1.3335464
1.3335434
1.3335405
1.3335376
1.3335348
1.3335319
1.3335291
1.3335263
1.3335236
1.3335208
1.3335181
1.3335154
1.3335127
1.33351
1.3335073
1.3335047
1.3335021
1.3334995
1.333497
1.3334944
1.3334919
1.3334894
1.3334869
1.3334845
1.333482
1.3334796
1.3334772
1.3334748
1.3334725
1.3334701
1.3334678
1.3334655
1.3334632
1.3334609
1.3334587
1.3334565
1.3334543
1.3334521
1.3334499
1.3334478
1.3334457
1.3334435
1.3334415
1.3334394
1.3334373
1.3334353
1.3334333
1.3334313
1.3334293
1.3334273
1.3334254
1.3334235
1.3334216
1.3334197
1.3334178
1.333416
1.3334141
1.3334123
1.3334105
1.3334087
1.3334069
1.3334052
1.3334035
1.3334017
1.3334
1.3333984
1.3333967
1.3333951
1.3333934
1.3333918
1.3333902
1.3333886
1.3333871
1.3333855
1.333384
1.3333825
1.333381
1.3333795
1.333378
1.3333765
1.3333751
1.3333737
1.3333723
1.3333709
1.3333695
1.3333681
1.3333668
1.3333654
1.3333641
1.3333628
1.3333615
1.3333602
1.333359
1.3333577
1.3333565
1.3333553
1.3333541
1.3333529
1.3333517
1.3333505
1.3333494
1.3333482
1.3333471
1.333346
1.3333449
1.3333438
1.3333427
1.3333417
1.3333406
1.3333396
1.3333386
1.3333375
1.3333365
1.3333355
1.3333346
1.3333336
1.3333326
1.3333317
1.3333308
1.3333299
1.3333289
1.333328
1.3333272
1.3333263
1.3333254
1.3333246
1.3333237
1.3333229
1.3333221
1.3333213
1.3333205
1.3333197
1.3333189
1.3333182
1.3333174
1.3333167
1.3333159
1.3333152
1.3333145
1.3333138
1.3333131
1.3333124
1.3333117
1.333311
1.3333103
1.3333097
1.333309
1.3333084
1.3333078
1.3333072
1.3333065
1.3333059
1.3333053
1.3333048
1.3333042
1.3333036
1.333303
1.3333025
1.3333019
1.3333014
1.3333009
1.3333003
1.3332998
1.3332993
1.3332988
1.3332983
1.3332978
1.3332973
1.3332968
1.3332964
1.3332959
1.3332954
1.333295
1.3332946
1.3332941
1.3332937
1.3332933
1.3332928
1.3332924
1.333292
1.3332916
1.3332912
1.3332908
1.3332904
1.33329
1.3332897
1.3332893
1.3332889
1.3332886
1.3332882
1.3332879
1.3332875
1.3332872
1.3332868
1.3332865
1.3332862
1.3332859
1.3332855
1.3332852
1.3332849
1.3332846
1.3332843
1.333284
1.3332837
1.3332834
1.3332831
1.3332828
1.3332826
1.3332823
1.333282
1.3332817
1.3332815
1.3332812
1.3332809
1.3332807
1.3332804
1.3332802
1.3332799
1.3332797
1.3332795
1.3332792
1.333279
1.3332787
1.3332785
1.3332783
1.3332781
1.3332778
1.3332776
1.3332774
1.3332772
1.333277
1.3332768
1.3332766
1.3332764
1.3332761
1.3332759
1.3332757
1.3332755
1.3332753
1.3332751
1.333275
1.3332748
1.3332746
1.3332744
1.3332742
1.333274
1.3332738
1.3332736
1.3332734
1.3332733
1.3332731
1.3332729
1.3332727
1.3332726
1.3332724
1.3332722
1.333272
1.3332719
1.3332717
1.3332715
1.3332714
1.3332712
1.333271
1.3332709
1.3332707
1.3332705
1.3332704
1.3332702
1.33327
1.3332699
1.3332697
1.3332695
1.3332694
1.3332692
1.3332691
1.3332689
1.3332687
1.3332686
1.3332684
1.3332683
1.3332681
1.3332679
1.3332678
1.3332676
1.3332675
1.3332673
1.3332671
1.333267
1.3332668
1.3332667
1.3332665
1.3332663
1.3332662
1.333266
1.3332658
1.3332657
1.3332655
1.3332653
1.3332652
1.333265
1.3332648
1.3332647
1.3332645
1.3332643
1.3332642
1.333264
1.3332638
1.3332637
1.3332635
1.3332633
1.3332632
1.333263
1.3332628
1.3332626
1.3332625
1.3332623
1.3332621
1.3332619
1.3332618
1.3332616
1.3332614
1.3332612
1.333261
1.3332608
1.3332606
1.3332604
1.3332602
1.33326
1.3332598
1.3332596
1.3332594
1.3332592
1.333259
1.3332588
1.3332586
1.3332584
1.3332581
1.3332579
1.3332577
1.3332575
1.3332573
1.333257
1.3332568
1.3332566
1.3332563
1.3332561
1.3332558
1.3332556
1.3332553
1.3332551
1.3332548
1.3332546
1.3332543
1.333254
1.3332537
1.3332535
1.3332532
1.3332529
1.3332526
1.3332523
1.333252
1.3332517
1.3332514
1.3332511
1.3332508
1.3332504
1.3332501
1.3332498
1.3332494
1.3332491
1.3332487
1.3332484
1.333248
1.3332476
1.3332472
1.3332468
1.3332464
1.333246
1.3332456
1.3332452
1.3332448
1.3332444
1.3332439
1.3332435
1.333243
1.3332426
1.3332421
1.3332416
1.3332411
1.3332406
1.3332401
1.3332396
1.333239
1.3332385
1.3332379
1.3332373
1.3332367
1.3332361
1.3332355
1.3332348
1.3332342
1.3332335
1.3332329
1.3332322
1.3332315
1.3332308
1.33323
1.3332293
1.3332285
1.3332277
1.3332269
1.3332261
1.3332252
1.3332244
1.3332235
1.3332226
1.3332216
1.3332207
1.3332197
1.3332187
1.3332177
1.3332167
1.3332156
1.3332145
1.3332134
1.3332123
1.3332112
1.33321
1.3332088
1.3332075
1.3332063
1.333205
1.3332037
1.3332024
1.333201
1.3331997
1.3331983
1.3331969
1.3331954
1.333194
1.3331925
1.333191
1.3331895
1.333188
1.3331865
1.333185
1.3331835
1.3331819
1.3331804
1.3331788
1.3331773
1.3331757
1.3331742
1.3331726
1.3331711
1.3331695
1.3331679
1.3331663
1.3331647
1.3331631
1.3331614
1.3331597
1.333158
1.3331562
1.3331544
1.3331526
1.3331506
1.3331487
1.3331466
1.3331445
1.3331423
1.33314
1.3331376
1.3331351
1.3331324
1.3331294
1.3331264
1.3331231
1.3331197
1.3331162
1.3331126
1.3331088
1.3331048
1.3331008
1.3330966
1.3330924
1.333088
1.3330835
1.333079
1.3330744
1.3330698
1.3330651
1.3330603
1.3330556
1.3330508
1.333046
1.3330413
1.3330365
1.3330319
1.3330273
1.3330227
1.3330181
1.3330133
1.3330082
1.3330023
1.3329956
1.3329873
1.3329742
1.3329488
1.3328934
1.3327641
1.3324563
1.3317065
1.3303471
1.3285819
1.3264181
1.323874
1.3209837
1.3177947
1.3143655
1.3107616
1.3070521
1.3033057
1.299588
1.2959585
1.2924689
1.2891618
1.2860701
1.2832168
1.2806158
1.2782726
1.2761852
1.274346
1.2727421
1.2713576
1.2701741
1.2691719
1.268331
1.2676316
1.2670548
1.2665832
1.2662006
1.2658925
1.2656461
1.2654505
1.2652961
1.2651748
1.2650799
1.2650058
1.2649479
1.2649026
1.2648671
1.2648388
1.2648154
1.2647969
1.264782
1.2647678
1.2647545
1.2647427
1.2647318
1.2647215
1.2647115
1.2647018
1.264692
1.2646822
1.2646721
1.264662
1.2646516
1.2646411
1.2646304
1.2646196
1.2646086
1.2645975
1.2645863
1.264575
1.2645637
1.2645522
1.2645406
1.2645289
1.2645171
1.2645053
1.2644933
1.2644812
1.264469
1.2644566
1.2644441
1.2644315
1.2644187
1.2644057
1.2643926
1.2643792
1.2643657
1.2643521
1.2643382
1.2643241
1.2643098
1.2642954
1.2642808
1.2642659
1.2642509
1.2642357
1.2642204
1.2642048
1.2641891
1.2641733
1.2641572
1.2641411
1.2641247
1.2641083
1.2640917
1.2640749
1.2640581
1.2640411
1.264024
1.2640068
1.2639894
1.263972
1.2639544
1.2639367
1.263919
1.2639011
1.2638832
1.2638652
1.263847
1.2638288
1.2638106
1.2637922
1.2637738
1.2637553
1.2637367
1.2637181
1.2636994
1.2636806
1.2636618
1.263643
1.263624
1.2636051
1.2635861
1.263567
1.263548
1.2635289
1.2635097
1.2634905
1.2634713
1.2634521
1.2634329
1.2634136
1.2633944
1.2633751
1.2633558
1.2633365
1.2633172
1.263298
1.2632787
1.2632594
1.2632401
1.2632209
1.2632017
1.2631825
1.2631633
1.2631441
1.263125
1.2631059
1.2630868
1.2630678
1.2630488
1.2630299
1.263011
1.2629922
1.2629734
1.2629547
1.262936
1.2629174
1.2628989
1.2628804
1.262862
1.2628437
1.2628254
1.2628072
1.2627892
1.2627711
1.2627532
1.2627354
1.2627176
1.2627
1.2626824
1.262665