/*--------------------------------*- C++ -*----------------------------------*\
  =========                 |
  \\      /  F ield         | OpenFOAM: The Open Source CFD Toolbox
   \\    /   O peration     | Website:  https://openfoam.org
    \\  /    A nd           | Version:  7
     \\/     M anipulation  |
\*---------------------------------------------------------------------------*/
FoamFile
{
    version     2.0;
    format      ascii;
    class       volScalarField;
    location    "0.00267";
    object      Ux;
}
// * * * * * * * * * * * * * * * * * * * * * * * * * * * * * * * * * * * * * //

dimensions      [0 1 -1 0 0 0 0];

internalField   nonuniform List<scalar> 
5000
(
23.100166
23.100166
23.100165
23.100164
23.100164
23.100163
23.100163
23.100163
23.100163
23.100163
23.100162
23.100162
23.100161
23.100161
23.10016
23.10016
23.10016
23.100159
23.100159
23.100159
23.100158
23.100158
23.100158
23.100157
23.100157
23.100157
23.100156
23.100156
23.100155
23.100155
23.100155
23.100154
23.100154
23.100154
23.100153
23.100153
23.100153
23.100152
23.100152
23.100152
23.100151
23.100151
23.100151
23.10015
23.10015
23.100149
23.100149
23.100149
23.100148
23.100148
23.100148
23.100147
23.100147
23.100147
23.100146
23.100146
23.100146
23.100145
23.100145
23.100145
23.100144
23.100144
23.100143
23.100143
23.100143
23.100142
23.100142
23.100142
23.100141
23.100141
23.100141
23.10014
23.10014
23.10014
23.100139
23.100139
23.100139
23.100138
23.100138
23.100138
23.100137
23.100137
23.100137
23.100136
23.100136
23.100136
23.100135
23.100135
23.100134
23.100134
23.100134
23.100133
23.100133
23.100133
23.100132
23.100132
23.100132
23.100131
23.100131
23.100131
23.10013
23.10013
23.10013
23.100129
23.100129
23.100129
23.100128
23.100128
23.100128
23.100129
23.100129
23.100127
23.100126
23.100126
23.100126
23.100125
23.100125
23.100125
23.100124
23.100124
23.100124
23.100123
23.100123
23.100122
23.100122
23.100122
23.100122
23.100121
23.100121
23.100121
23.10012
23.10012
23.10012
23.100119
23.100119
23.100119
23.100118
23.100118
23.100118
23.100117
23.100117
23.100117
23.100116
23.100116
23.100116
23.100115
23.100115
23.100115
23.100114
23.100114
23.100114
23.100113
23.100113
23.100113
23.100113
23.100112
23.100112
23.100111
23.100111
23.100111
23.100111
23.10011
23.10011
23.10011
23.100109
23.100109
23.100109
23.100108
23.100108
23.100108
23.100107
23.100107
23.100107
23.100106
23.100106
23.100106
23.100105
23.100105
23.100105
23.100105
23.100104
23.100104
23.100104
23.100103
23.100103
23.100103
23.100102
23.100102
23.100102
23.100101
23.100101
23.100101
23.100101
23.1001
23.1001
23.1001
23.100099
23.100099
23.100099
23.100098
23.100098
23.100098
23.100098
23.100097
23.100097
23.100097
23.100096
23.100096
23.100096
23.100095
23.100095
23.100095
23.100095
23.100094
23.100094
23.100094
23.100093
23.100093
23.100093
23.100093
23.100092
23.100092
23.100092
23.100091
23.100091
23.100091
23.10009
23.10009
23.10009
23.10009
23.100089
23.100089
23.100089
23.100088
23.100088
23.100088
23.100088
23.100087
23.100087
23.100087
23.100087
23.100086
23.100086
23.100086
23.100085
23.100085
23.100085
23.100085
23.100084
23.100084
23.100084
23.100083
23.100083
23.100083
23.100083
23.100082
23.100082
23.100082
23.100081
23.100081
23.100081
23.100081
23.10008
23.10008
23.10008
23.100079
23.100079
23.100079
23.100079
23.100078
23.100078
23.100078
23.100078
23.100077
23.100077
23.100077
23.100077
23.100076
23.100076
23.100076
23.100075
23.100075
23.100075
23.100075
23.100074
23.100074
23.100074
23.100074
23.100073
23.100073
23.100073
23.100072
23.100072
23.100072
23.100072
23.100071
23.100071
23.100071
23.100071
23.10007
23.10007
23.10007
23.10007
23.100069
23.100069
23.100069
23.100068
23.100068
23.100068
23.100068
23.100067
23.100067
23.100067
23.100067
23.100066
23.100066
23.100066
23.100066
23.100065
23.100065
23.100065
23.100064
23.100064
23.100064
23.100064
23.100064
23.100063
23.100063
23.100063
23.100062
23.100062
23.100062
23.100062
23.100061
23.100061
23.100061
23.100061
23.10006
23.10006
23.10006
23.10006
23.100059
23.100059
23.100059
23.100059
23.100058
23.100058
23.100058
23.100058
23.100057
23.100057
23.100057
23.100057
23.100056
23.100056
23.100056
23.100056
23.100055
23.100055
23.100055
23.100055
23.100054
23.100054
23.100054
23.100054
23.100053
23.100053
23.100053
23.100053
23.100052
23.100052
23.100052
23.100052
23.100051
23.100051
23.100051
23.100051
23.10005
23.10005
23.10005
23.10005
23.100049
23.100049
23.100049
23.100049
23.100048
23.100048
23.100048
23.100048
23.100048
23.100047
23.100047
23.100047
23.100046
23.100046
23.100046
23.100046
23.100046
23.100045
23.100045
23.100045
23.100045
23.100044
23.100044
23.100044
23.100044
23.100043
23.100043
23.100043
23.100043
23.100042
23.100042
23.100042
23.100042
23.100041
23.100041
23.100041
23.100041
23.100041
23.10004
23.10004
23.10004
23.10004
23.100039
23.100039
23.100039
23.100039
23.100038
23.100038
23.100038
23.100038
23.100038
23.100037
23.100037
23.100037
23.100037
23.100036
23.100036
23.100036
23.100036
23.100035
23.100035
23.100035
23.100035
23.100035
23.100034
23.100034
23.100034
23.100034
23.100034
23.100033
23.100033
23.100033
23.100032
23.100032
23.100032
23.100032
23.100032
23.100032
23.100031
23.100031
23.100031
23.100031
23.10003
23.10003
23.10003
23.10003
23.10003
23.100029
23.100029
23.100029
23.100029
23.100028
23.100028
23.100028
23.100028
23.100028
23.100027
23.100027
23.100027
23.100027
23.100027
23.100026
23.100026
23.100026
23.100026
23.100025
23.100025
23.100025
23.100025
23.100025
23.100024
23.100024
23.100024
23.100024
23.100024
23.100023
23.100023
23.100023
23.100023
23.100022
23.100022
23.100022
23.100022
23.100022
23.100022
23.100021
23.100021
23.100021
23.100021
23.10002
23.10002
23.10002
23.10002
23.10002
23.100019
23.100019
23.100019
23.100019
23.100019
23.100018
23.100018
23.100018
23.100018
23.100018
23.100017
23.100017
23.100017
23.100017
23.100017
23.100016
23.100016
23.100016
23.100016
23.100016
23.100015
23.100015
23.100015
23.100015
23.100015
23.100014
23.100014
23.100014
23.100014
23.100014
23.100013
23.100013
23.100013
23.100013
23.100013
23.100012
23.100012
23.100012
23.100012
23.100012
23.100011
23.100011
23.100011
23.100011
23.100011
23.10001
23.10001
23.10001
23.10001
23.100009
23.100009
23.100009
23.100009
23.100009
23.100009
23.100008
23.100008
23.100008
23.100008
23.100007
23.100007
23.100007
23.100007
23.100007
23.100006
23.100006
23.100006
23.100006
23.100006
23.100005
23.100005
23.100005
23.100005
23.100005
23.100004
23.100004
23.100004
23.100004
23.100004
23.100003
23.100003
23.100003
23.100003
23.100002
23.100002
23.100002
23.100002
23.100002
23.100001
23.100001
23.100001
23.100001
23.100001
23.1
23.1
23.1
23.1
23.099999
23.099999
23.099999
23.099999
23.099999
23.099998
23.099998
23.099998
23.099998
23.099998
23.099997
23.099997
23.099997
23.099997
23.099997
23.099996
23.099996
23.099996
23.099996
23.099995
23.099995
23.099995
23.099995
23.099995
23.099994
23.099994
23.099994
23.099994
23.099994
23.099993
23.099993
23.099993
23.099993
23.099993
23.099992
23.099992
23.099992
23.099992
23.099991
23.099991
23.099991
23.099991
23.099991
23.09999
23.09999
23.09999
23.09999
23.09999
23.099989
23.099989
23.099989
23.099989
23.099988
23.099988
23.099988
23.099988
23.099988
23.099987
23.099987
23.099987
23.099987
23.099987
23.099986
23.099986
23.099986
23.099986
23.099986
23.099985
23.099985
23.099985
23.099985
23.099985
23.099984
23.099984
23.099984
23.099984
23.099984
23.099983
23.099983
23.099983
23.099983
23.099983
23.099982
23.099982
23.099982
23.099982
23.099982
23.099981
23.099981
23.099981
23.099981
23.099981
23.09998
23.09998
23.09998
23.09998
23.09998
23.09998
23.099979
23.099979
23.099979
23.099979
23.099979
23.099978
23.099978
23.099978
23.099978
23.099978
23.099977
23.099977
23.099977
23.099977
23.099977
23.099977
23.099976
23.099976
23.099976
23.099976
23.099976
23.099975
23.099975
23.099975
23.099975
23.099975
23.099975
23.099974
23.099974
23.099974
23.099974
23.099974
23.099974
23.099973
23.099973
23.099973
23.099973
23.099973
23.099973
23.099972
23.099972
23.099972
23.099972
23.099972
23.099972
23.099971
23.099971
23.099971
23.099971
23.099971
23.099971
23.09997
23.09997
23.09997
23.09997
23.09997
23.09997
23.09997
23.099969
23.099969
23.099969
23.099969
23.099969
23.099969
23.099968
23.099968
23.099968
23.099968
23.099968
23.099968
23.099967
23.099967
23.099967
23.099967
23.099967
23.099967
23.099966
23.099966
23.099966
23.099966
23.099966
23.099966
23.099966
23.099965
23.099965
23.099965
23.099965
23.099965
23.099965
23.099964
23.099964
23.099964
23.099964
23.099964
23.099964
23.099964
23.099963
23.099963
23.099963
23.099963
23.099963
23.099963
23.099963
23.099962
23.099962
23.099962
23.099962
23.099962
23.099962
23.099961
23.099961
23.099961
23.099961
23.099961
23.099961
23.099961
23.09996
23.09996
23.09996
23.09996
23.09996
23.09996
23.09996
23.099959
23.099959
23.099959
23.099959
23.099959
23.099959
23.099959
23.099958
23.099958
23.099958
23.099958
23.099958
23.099958
23.099958
23.099957
23.099957
23.099957
23.099957
23.099957
23.099957
23.099957
23.099956
23.099956
23.099956
23.099956
23.099956
23.099956
23.099956
23.099955
23.099955
23.099955
23.099955
23.099955
23.099955
23.099955
23.099954
23.099954
23.099954
23.099954
23.099954
23.099954
23.099954
23.099953
23.099953
23.099953
23.099953
23.099953
23.099953
23.099953
23.099952
23.099952
23.099952
23.099952
23.099952
23.099952
23.099952
23.099951
23.099951
23.099951
23.099951
23.099951
23.099951
23.099951
23.09995
23.09995
23.09995
23.09995
23.09995
23.09995
23.09995
23.099949
23.099949
23.099949
23.099949
23.099949
23.099949
23.099949
23.099948
23.099948
23.099948
23.099948
23.099948
23.099948
23.099948
23.099948
23.099947
23.099947
23.099947
23.099947
23.099947
23.099947
23.099947
23.099946
23.099946
23.099946
23.099946
23.099946
23.099946
23.099946
23.099945
23.099945
23.099945
23.099945
23.099945
23.099945
23.099945
23.099944
23.099944
23.099944
23.099944
23.099944
23.099944
23.099944
23.099944
23.099943
23.099943
23.099943
23.099943
23.099943
23.099943
23.099943
23.099942
23.099942
23.099942
23.099942
23.099942
23.099942
23.099942
23.099941
23.099941
23.099941
23.099941
23.099941
23.099941
23.099941
23.09994
23.09994
23.09994
23.09994
23.09994
23.09994
23.09994
23.09994
23.099939
23.099939
23.099939
23.099939
23.099939
23.099939
23.099939
23.099938
23.099938
23.099938
23.099938
23.099938
23.099938
23.099938
23.099937
23.099937
23.099937
23.099937
23.099937
23.099937
23.099937
23.099937
23.099936
23.099936
23.099936
23.099936
23.099936
23.099936
23.099936
23.099935
23.099935
23.099935
23.099935
23.099935
23.099935
23.099935
23.099934
23.099934
23.099934
23.099934
23.099934
23.099934
23.099934
23.099933
23.099933
23.099933
23.099933
23.099933
23.099933
23.099933
23.099933
23.099932
23.099932
23.099932
23.099932
23.099932
23.099932
23.099932
23.099931
23.099931
23.099931
23.099931
23.099931
23.099931
23.099931
23.099931
23.09993
23.09993
23.09993
23.09993
23.09993
23.09993
23.09993
23.099929
23.099929
23.099929
23.099929
23.099929
23.099929
23.099929
23.099929
23.099928
23.099928
23.099928
23.099928
23.099928
23.099928
23.099928
23.099928
23.099927
23.099927
23.099927
23.099927
23.099927
23.099927
23.099927
23.099927
23.099926
23.099926
23.099926
23.099926
23.099926
23.099926
23.099926
23.099926
23.099925
23.099925
23.099925
23.099925
23.099925
23.099925
23.099925
23.099925
23.099924
23.099924
23.099924
23.099924
23.099924
23.099924
23.099924
23.099924
23.099923
23.099923
23.099923
23.099923
23.099923
23.099923
23.099923
23.099923
23.099923
23.099922
23.099922
23.099922
23.099922
23.099922
23.099922
23.099922
23.099922
23.099922
23.099921
23.099921
23.099921
23.099921
23.099921
23.099921
23.099921
23.099921
23.09992
23.09992
23.09992
23.09992
23.09992
23.09992
23.09992
23.09992
23.09992
23.099919
23.099919
23.099919
23.099919
23.099919
23.099919
23.099919
23.099919
23.099919
23.099919
23.099918
23.099918
23.099918
23.099918
23.099918
23.099918
23.099918
23.099918
23.099918
23.099917
23.099917
23.099917
23.099917
23.099917
23.099917
23.099917
23.099917
23.099917
23.099917
23.099916
23.099916
23.099916
23.099916
23.099916
23.099916
23.099916
23.099916
23.099916
23.099916
23.099915
23.099915
23.099915
23.099915
23.099915
23.099915
23.099915
23.099915
23.099915
23.099915
23.099914
23.099914
23.099914
23.099914
23.099914
23.099914
23.099914
23.099914
23.099914
23.099914
23.099914
23.099913
23.099913
23.099913
23.099913
23.099913
23.099913
23.099913
23.099913
23.099913
23.099913
23.099913
23.099912
23.099912
23.099912
23.099912
23.099912
23.099912
23.099912
23.099912
23.099912
23.099912
23.099912
23.099911
23.099911
23.099911
23.099911
23.099911
23.099911
23.099911
23.099911
23.099911
23.099911
23.099911
23.099911
23.09991
23.09991
23.09991
23.09991
23.09991
23.09991
23.09991
23.09991
23.09991
23.09991
23.09991
23.099909
23.099909
23.099909
23.099909
23.099909
23.099909
23.099909
23.099909
23.099909
23.099909
23.099909
23.099909
23.099908
23.099908
23.099908
23.099908
23.099908
23.099908
23.099908
23.099908
23.099908
23.099908
23.099908
23.099907
23.099907
23.099907
23.099907
23.099907
23.099907
23.099907
23.099907
23.099907
23.099907
23.099907
23.099906
23.099906
23.099906
23.099906
23.099906
23.099906
23.099906
23.099906
23.099906
23.099906
23.099905
23.099905
23.099905
23.099905
23.099905
23.099905
23.099905
23.099905
23.099905
23.099904
23.099904
23.099904
23.099904
23.099904
23.099904
23.099904
23.099904
23.099904
23.099903
23.099903
23.099903
23.099903
23.099903
23.099903
23.099903
23.099903
23.099902
23.099902
23.099902
23.099902
23.099902
23.099902
23.099902
23.099902
23.099901
23.099901
23.099901
23.099901
23.099901
23.099901
23.099901
23.0999
23.0999
23.0999
23.0999
23.0999
23.0999
23.0999
23.099899
23.099899
23.099899
23.099899
23.099899
23.099899
23.099898
23.099898
23.099898
23.099898
23.099898
23.099898
23.099897
23.099897
23.099897
23.099897
23.099897
23.099897
23.099896
23.099896
23.099896
23.099896
23.099896
23.099895
23.099895
23.099895
23.099895
23.099895
23.099894
23.099894
23.099894
23.099894
23.099894
23.099893
23.099893
23.099893
23.099893
23.099893
23.099892
23.099892
23.099892
23.099892
23.099891
23.099891
23.099891
23.099891
23.09989
23.09989
23.09989
23.09989
23.099889
23.099889
23.099889
23.099889
23.099888
23.099888
23.099888
23.099888
23.099887
23.099887
23.099887
23.099887
23.099886
23.099886
23.099886
23.099886
23.099885
23.099885
23.099885
23.099884
23.099884
23.099884
23.099884
23.099883
23.099883
23.099883
23.099882
23.099882
23.099882
23.099881
23.099881
23.099881
23.09988
23.09988
23.09988
23.09988
23.099879
23.099879
23.099879
23.099878
23.099878
23.099878
23.099877
23.099877
23.099877
23.099876
23.099876
23.099876
23.099875
23.099875
23.099875
23.099874
23.099874
23.099873
23.099873
23.099873
23.099872
23.099872
23.099872
23.099871
23.099871
23.099871
23.09987
23.09987
23.099869
23.099869
23.099869
23.099868
23.099868
23.099868
23.099867
23.099867
23.099866
23.099866
23.099866
23.099865
23.099865
23.099864
23.099864
23.099864
23.099863
23.099863
23.099862
23.099862
23.099862
23.099861
23.099861
23.09986
23.09986
23.09986
23.099859
23.099859
23.099858
23.099858
23.099857
23.099857
23.099857
23.099856
23.099856
23.099855
23.099855
23.099854
23.099854
23.099853
23.099853
23.099853
23.099852
23.099852
23.099851
23.099851
23.09985
23.09985
23.099849
23.099849
23.099848
23.099848
23.099847
23.099847
23.099846
23.099846
23.099845
23.099845
23.099845
23.099844
23.099844
23.099843
23.099843
23.099842
23.099841
23.099841
23.09984
23.09984
23.099839
23.099839
23.099838
23.099838
23.099837
23.099837
23.099836
23.099836
23.099835
23.099835
23.099834
23.099833
23.099833
23.099832
23.099832
23.099831
23.09983
23.09983
23.099829
23.099829
23.099828
23.099827
23.099827
23.099826
23.099826
23.099825
23.099824
23.099824
23.099823
23.099822
23.099822
23.099821
23.09982
23.099819
23.099819
23.099818
23.099817
23.099817
23.099816
23.099815
23.099814
23.099813
23.099813
23.099812
23.099811
23.09981
23.099809
23.099809
23.099808
23.099807
23.099806
23.099805
23.099804
23.099803
23.099802
23.099801
23.0998
23.099799
23.099798
23.099797
23.099796
23.099795
23.099794
23.099793
23.099792
23.09979
23.099789
23.099788
23.099787
23.099785
23.099784
23.099783
23.099781
23.09978
23.099779
23.099777
23.099776
23.099774
23.099773
23.099771
23.099769
23.099768
23.099766
23.099764
23.099762
23.09976
23.099759
23.099757
23.099755
23.099753
23.09975
23.099748
23.099746
23.099744
23.099741
23.099739
23.099737
23.099734
23.099731
23.099729
23.099726
23.099723
23.09972
23.099717
23.099714
23.099711
23.099708
23.099704
23.099701
23.099697
23.099694
23.09969
23.099686
23.099682
23.099678
23.099674
23.099669
23.099665
23.09966
23.099655
23.099651
23.099646
23.09964
23.099635
23.099629
23.099624
23.099618
23.099612
23.099606
23.099599
23.099593
23.099586
23.099579
23.099572
23.099564
23.099557
23.099549
23.099541
23.099533
23.099524
23.099515
23.099506
23.099497
23.099487
23.099477
23.099467
23.099456
23.099445
23.099434
23.099423
23.099411
23.099398
23.099386
23.099373
23.09936
23.099346
23.099332
23.099317
23.099302
23.099287
23.099271
23.099254
23.099238
23.09922
23.099202
23.099184
23.099165
23.099146
23.099126
23.099105
23.099084
23.099062
23.09904
23.099017
23.098994
23.098969
23.098944
23.098919
23.098892
23.098865
23.098837
23.098808
23.098779
23.098749
23.098717
23.098685
23.098653
23.098619
23.098584
23.098549
23.098512
23.098474
23.098436
23.098396
23.098355
23.098314
23.098271
23.098227
23.098182
23.098135
23.098088
23.098039
23.097989
23.097937
23.097885
23.097831
23.097775
23.097718
23.09766
23.0976
23.097539
23.097476
23.097412
23.097346
23.097278
23.097209
23.097138
23.097065
23.09699
23.096914
23.096835
23.096755
23.096673
23.096589
23.096503
23.096415
23.096325
23.096232
23.096138
23.096041
23.095942
23.095841
23.095737
23.095631
23.095523
23.095412
23.095299
23.095183
23.095064
23.094943
23.094819
23.094693
23.094563
23.094431
23.094296
23.094157
23.094016
23.093872
23.093725
23.093574
23.093421
23.093264
23.093104
23.09294
23.092773
23.092603
23.092429
23.092251
23.09207
23.091885
23.091697
23.091504
23.091308
23.091108
23.090904
23.090696
23.090483
23.090267
23.090046
23.089822
23.089592
23.089359
23.089121
23.088878
23.088631
23.088379
23.088123
23.087861
23.087595
23.087324
23.087049
23.086768
23.086482
23.086191
23.085894
23.085593
23.085286
23.084973
23.084656
23.084332
23.084004
23.083669
23.083329
23.082983
23.082631
23.082273
23.08191
23.08154
23.081164
23.080782
23.080394
23.079999
23.079598
23.079191
23.078777
23.078357
23.077929
23.077496
23.077055
23.076608
23.076154
23.075693
23.075225
23.07475
23.074267
23.073778
23.073281
23.072777
23.072266
23.071747
23.071221
23.070687
23.070145
23.069596
23.069039
23.068474
23.067902
23.067321
23.066733
23.066136
23.065532
23.064919
23.064298
23.063669
23.063031
23.062385
23.061731
23.061068
23.060397
23.059717
23.059029
23.058332
23.057626
23.056912
23.056188
23.055456
23.054715
23.053965
23.053205
23.052437
23.05166
23.050874
23.050078
23.049273
23.048459
23.047636
23.046803
23.045961
23.04511
23.044249
23.043379
23.042499
23.04161
23.040711
23.039802
23.038884
23.037957
23.037019
23.036072
23.035115
23.034148
23.033172
23.032186
23.03119
23.030184
23.029168
23.028143
23.027107
23.026062
23.025006
23.023941
23.022866
23.021781
23.020685
23.01958
23.018465
23.01734
23.016205
23.01506
23.013905
23.01274
23.011565
23.01038
23.009185
23.00798
23.006765
23.00554
23.004305
23.00306
23.001805
23.000541
22.999266
22.997982
22.996687
22.995383
22.994069
22.992745
22.991411
22.990067
22.988714
22.987351
22.985978
22.984596
22.983203
22.981802
22.98039
22.978969
22.977539
22.976099
22.97465
22.973191
22.971722
22.970245
22.968758
22.967262
22.965757
22.964242
22.962719
22.961186
22.959644
22.958093
22.956534
22.954965
22.953388
22.951802
22.950207
22.948604
22.946992
22.945371
22.943742
22.942105
22.940459
22.938805
22.937143
22.935472
22.933794
22.932107
22.930412
22.92871
22.927
22.925282
22.923556
22.921823
22.920082
22.918334
22.916579
22.914816
22.913046
22.911269
22.909485
22.907693
22.905895
22.904091
22.902279
22.900461
22.898636
22.896805
22.894967
22.893124
22.891274
22.889417
22.887555
22.885687
22.883813
22.881934
22.880049
22.878158
22.876261
22.87436
22.872453
22.870541
22.868624
22.866702
22.864775
22.862843
22.860906
22.858965
22.85702
22.85507
22.853116
22.851157
22.849195
22.847228
22.845258
22.843284
22.841306
22.839325
22.83734
22.835352
22.833361
22.831366
22.829368
22.827368
22.825364
22.823358
22.82135
22.819338
22.817324
22.815308
22.81329
22.81127
22.809247
22.807223
22.805197
22.803169
22.80114
22.799109
22.797077
22.795044
22.793009
22.790973
22.788937
22.786899
22.784861
22.782822
22.780783
22.778743
22.776703
22.774663
22.772622
22.770582
22.768541
22.766501
22.764461
22.762422
22.760383
22.758344
22.756307
22.75427
22.752234
22.750199
22.748165
22.746132
22.7441
22.74207
22.740041
22.738014
22.735989
22.733965
22.731944
22.729924
22.727906
22.72589
22.723877
22.721866
22.719857
22.717851
22.715847
22.713846
22.711848
22.709853
22.707861
22.705871
22.703885
22.701902
22.699922
22.697946
22.695973
22.694003
22.692038
22.690075
22.688117
22.686163
22.684212
22.682265
22.680323
22.678384
22.67645
22.67452
22.672595
22.670674
22.668757
22.666845
22.664938
22.663035
22.661137
22.659244
22.657356
22.655473
22.653595
22.651722
22.649854
22.647991
22.646134
22.644282
22.642435
22.640594
22.638758
22.636928
22.635103
22.633285
22.631471
22.629664
22.627862
22.626067
22.624277
22.622493
22.620715
22.618943
22.617177
22.615418
22.613664
22.611917
22.610176
22.608442
22.606713
22.604991
22.603276
22.601567
22.599864
22.598168
22.596479
22.594796
22.593119
22.591449
22.589786
22.58813
22.58648
22.584838
22.583201
22.581572
22.579949
22.578334
22.576725
22.575123
22.573528
22.57194
22.570359
22.568785
22.567218
22.565657
22.564104
22.562558
22.561019
22.559487
22.557962
22.556444
22.554933
22.553429
22.551933
22.550443
22.548961
22.547485
22.546017
22.544556
22.543102
22.541656
22.540216
22.538784
22.537359
22.535941
22.53453
22.533126
22.531729
22.53034
22.528958
22.527583
22.526215
22.524854
22.523501
22.522154
22.520815
22.519483
22.518158
22.51684
22.515529
22.514225
22.512929
22.511639
22.510357
22.509082
22.507814
22.506553
22.505298
22.504051
22.502812
22.501579
22.500353
22.499134
22.497922
22.496717
22.495519
22.494328
22.493144
22.491967
22.490796
22.489633
22.488476
22.487327
22.486184
22.485048
22.483919
22.482797
22.481681
22.480573
22.479471
22.478376
22.477287
22.476205
22.47513
22.474062
22.473
22.471945
22.470897
22.469855
22.46882
22.467791
22.466769
22.465754
22.464745
22.463742
22.462746
22.461757
22.460773
22.459797
22.458826
22.457862
22.456905
22.455954
22.455009
22.45407
22.453138
22.452212
22.451292
22.450379
22.449472
22.448571
22.447676
22.446787
22.445905
22.445028
22.444158
22.443294
22.442435
22.441583
22.440737
22.439897
22.439063
22.438235
22.437412
22.436596
22.435786
22.434981
22.434182
22.43339
22.432603
22.431821
22.431046
22.430276
22.429512
22.428754
22.428002
22.427255
22.426514
22.425779
22.425049
22.424325
22.423606
22.422893
22.422185
22.421483
22.420787
22.420096
22.41941
22.41873
22.418056
22.417387
22.416723
22.416064
22.415411
22.414763
22.414121
22.413484
22.412852
22.412225
22.411604
22.410987
22.410376
22.40977
22.40917
22.408574
22.407984
22.407398
22.406818
22.406242
22.405672
22.405107
22.404547
22.403991
22.403441
22.402895
22.402355
22.401819
22.401288
22.400762
22.400241
22.399725
22.399213
22.398706
22.398204
22.397707
22.397214
22.396726
22.396242
22.395763
22.395289
22.394819
22.394354
22.393894
22.393438
22.392986
22.392539
22.392096
22.391658
22.391224
22.390795
22.39037
22.389949
22.389532
22.38912
22.388712
22.388309
22.387909
22.387514
22.387123
22.386736
22.386353
22.385974
22.385599
22.385229
22.384862
22.3845
22.384141
22.383786
22.383435
22.383089
22.382746
22.382407
22.382071
22.38174
22.381412
22.381088
22.380768
22.380452
22.380139
22.37983
22.379524
22.379222
22.378924
22.378629
22.378338
22.37805
22.377766
22.377485
22.377208
22.376934
22.376664
22.376396
22.376133
22.375872
22.375615
22.375361
22.37511
22.374862
22.374618
22.374377
22.374139
22.373904
22.373672
22.373443
22.373217
22.372994
22.372774
22.372557
22.372343
22.372132
22.371924
22.371719
22.371516
22.371316
22.371119
22.370925
22.370733
22.370545
22.370358
22.370175
22.369994
22.369816
22.36964
22.369467
22.369296
22.369128
22.368962
22.368799
22.368638
22.368479
22.368323
22.368169
22.368018
22.367869
22.367722
22.367577
22.367435
22.367294
22.367156
22.36702
22.366887
22.366755
22.366625
22.366498
22.366372
22.366249
22.366127
22.366007
22.36589
22.365774
22.36566
22.365548
22.365438
22.36533
22.365223
22.365118
22.365015
22.364914
22.364815
22.364717
22.364621
22.364526
22.364433
22.364342
22.364252
22.364164
22.364078
22.363993
22.363909
22.363827
22.363746
22.363667
22.363589
22.363513
22.363438
22.363364
22.363292
22.363221
22.363152
22.363083
22.363016
22.36295
22.362886
22.362822
22.36276
22.362699
22.36264
22.362581
22.362523
22.362467
22.362412
22.362357
22.362304
22.362252
22.362201
22.362151
22.362102
22.362053
22.362006
22.36196
22.361915
22.36187
22.361827
22.361784
22.361743
22.361702
22.361662
22.361623
22.361584
22.361547
22.36151
22.361474
22.361439
22.361404
22.361371
22.361338
22.361305
22.361274
22.361243
22.361213
22.361183
22.361154
22.361126
22.361098
22.361071
22.361045
22.361019
22.360994
22.360969
22.360945
22.360922
22.360899
22.360877
22.360855
22.360833
22.360812
22.360792
22.360772
22.360753
22.360734
22.360715
22.360697
22.36068
22.360662
22.360646
22.360629
22.360613
22.360598
22.360583
22.360568
22.360554
22.36054
22.360526
22.360513
22.3605
22.360487
22.360475
22.360463
22.360452
22.360441
22.36043
22.360419
22.360409
22.360399
22.360389
22.36038
22.360371
22.360362
22.360353
22.360345
22.360337
22.360329
22.360322
22.360314
22.360307
22.3603
22.360294
22.360288
22.360282
22.360276
22.36027
22.360265
22.36026
22.360255
22.36025
22.360246
22.360242
22.360238
22.360234
22.36023
22.360227
22.360224
22.360221
22.360218
22.360216
22.360213
22.360211
22.360209
22.360208
22.360206
22.360205
22.360204
22.360204
22.360203
22.360203
22.360203
22.360203
22.360203
22.360204
22.360205
22.360206
22.360207
22.360209
22.360211
22.360213
22.360215
22.360218
22.360221
22.360224
22.360227
22.360231
22.360235
22.36024
22.360244
22.360249
22.360255
22.360261
22.360267
22.360273
22.36028
22.360287
22.360295
22.360303
22.360311
22.36032
22.36033
22.360339
22.36035
22.36036
22.360372
22.360383
22.360396
22.360409
22.360422
22.360436
22.360451
22.360466
22.360482
22.360498
22.360516
22.360534
22.360552
22.360572
22.360592
22.360613
22.360635
22.360658
22.360682
22.360707
22.360732
22.360759
22.360786
22.360815
22.360845
22.360876
22.360908
22.360941
22.360976
22.361011
22.361049
22.361087
22.361127
22.361168
22.361211
22.361256
22.361302
22.361349
22.361399
22.36145
22.361503
22.361557
22.361614
22.361673
22.361734
22.361797
22.361862
22.361929
22.361999
22.362071
22.362145
22.362222
22.362302
22.362384
22.362469
22.362557
22.362648
22.362742
22.362839
22.362939
22.363043
22.36315
22.36326
22.363374
22.363492
22.363613
22.363739
22.363868
22.364002
22.364139
22.364282
22.364428
22.36458
22.364736
22.364896
22.365062
22.365233
22.36541
22.365591
22.365778
22.365971
22.36617
22.366375
22.366586
22.366803
22.367027
22.367257
22.367494
22.367739
22.36799
22.368249
22.368515
22.368789
22.36907
22.36936
22.369659
22.369965
22.370281
22.370605
22.370939
22.371281
22.371634
22.371996
22.372368
22.37275
22.373143
22.373546
22.37396
22.374386
22.374822
22.375271
22.375731
22.376204
22.376689
22.377187
22.377697
22.378221
22.378758
22.379309
22.379875
22.380454
22.381048
22.381657
22.382282
22.382922
22.383577
22.384249
22.384937
22.385642
22.386364
22.387104
22.387861
22.388636
22.389429
22.390241
22.391072
22.391923
22.392794
22.393684
22.394596
22.395528
22.396481
22.397455
22.398451
22.399469
22.400508
22.401569
22.402653
22.403761
22.404891
22.406046
22.407226
22.408432
22.409668
22.410939
22.412243
22.413581
22.414981
22.416509
22.41845
22.419911
22.420605
22.421756
22.42345
22.425051
22.426536
22.428094
22.429727
22.431386
22.433065
22.434778
22.43653
22.438315
22.440131
22.441978
22.443858
22.44577
22.447713
22.449688
22.451695
22.453734
22.455806
22.45791
22.460048
22.462219
22.464424
22.466663
22.468937
22.471245
22.473589
22.475968
22.478383
22.480834
22.48332
22.485843
22.488403
22.490999
22.493633
22.496303
22.499011
22.501756
22.504538
22.507359
22.510216
22.51311
22.516043
22.519018
22.522033
22.525083
22.52817
22.531296
22.534462
22.537667
22.54091
22.544191
22.547512
22.550871
22.55427
22.557707
22.561183
22.564697
22.568251
22.571843
22.575473
22.579142
22.58285
22.586595
22.590379
22.594201
22.598061
22.601958
22.605893
22.609865
22.613875
22.617921
22.622004
22.626124
22.630279
22.634471
22.638698
22.642961
22.647259
22.651592
22.655959
22.66036
22.664795
22.669263
22.673764
22.678298
22.682864
22.687462
22.692091
22.696751
22.701441
22.706162
22.710911
22.71569
22.720497
22.725333
22.730195
22.735085
22.740001
22.744942
22.749909
22.7549
22.759915
22.764954
22.770015
22.775099
22.780204
22.78533
22.790476
22.795641
22.800826
22.806028
22.811248
22.816485
22.821737
22.827005
22.832288
22.837584
22.842894
22.848215
22.853549
22.858893
22.864247
22.869611
22.874983
22.880362
22.885749
22.891142
22.89654
22.901942
22.907349
22.912758
22.91817
22.923582
22.928995
22.934408
22.93982
22.94523
22.950637
22.95604
22.961439
22.966833
22.972221
22.977602
22.982975
22.98834
22.993695
22.999041
23.004375
23.009698
23.015009
23.020306
23.025589
23.030857
23.03611
23.041346
23.046565
23.051766
23.056949
23.062112
23.067255
23.072378
23.077479
23.082557
23.087613
23.092644
23.097652
23.102635
23.107591
23.112522
23.117425
23.122301
23.127149
23.131968