/*--------------------------------*- C++ -*----------------------------------*\
  =========                 |
  \\      /  F ield         | OpenFOAM: The Open Source CFD Toolbox
   \\    /   O peration     | Website:  https://openfoam.org
    \\  /    A nd           | Version:  7
     \\/     M anipulation  |
\*---------------------------------------------------------------------------*/
FoamFile
{
    version     2.0;
    format      ascii;
    class       surfaceScalarField;
    location    "0.00101";
    object      phi;
}
// * * * * * * * * * * * * * * * * * * * * * * * * * * * * * * * * * * * * * //

dimensions      [1 0 -1 0 0 0 0];

internalField   nonuniform List<scalar> 
4999
(
1.4210855e-13
1.4921397e-13
1.563194e-13
1.6342483e-13
1.4921397e-13
1.4921397e-13
1.4921397e-13
1.563194e-13
1.563194e-13
1.4210855e-13
1.4921397e-13
1.563194e-13
1.563194e-13
1.6342483e-13
1.6342483e-13
1.6342483e-13
1.563194e-13
1.8474111e-13
1.7053026e-13
1.7763568e-13
1.7763568e-13
1.8474111e-13
1.9184654e-13
1.7763568e-13
1.9184654e-13
1.9184654e-13
1.8474111e-13
1.8474111e-13
1.7763568e-13
1.9184654e-13
1.8474111e-13
1.7763568e-13
1.7763568e-13
1.8474111e-13
1.7763568e-13
1.9184654e-13
1.8474111e-13
1.9184654e-13
1.9184654e-13
1.8474111e-13
1.9895197e-13
1.9895197e-13
1.9895197e-13
2.0605739e-13
1.9895197e-13
1.9184654e-13
1.9895197e-13
1.9895197e-13
1.9895197e-13
2.1316282e-13
1.9895197e-13
1.9184654e-13
1.9184654e-13
2.0605739e-13
2.1316282e-13
2.2026825e-13
2.1316282e-13
2.0605739e-13
1.9895197e-13
1.9895197e-13
2.0605739e-13
2.1316282e-13
1.9895197e-13
1.9895197e-13
2.0605739e-13
1.9895197e-13
2.1316282e-13
2.2026825e-13
2.2026825e-13
2.0605739e-13
2.2026825e-13
2.2026825e-13
2.344791e-13
2.0605739e-13
1.9184654e-13
2.0605739e-13
2.0605739e-13
1.9895197e-13
2.1316282e-13
2.1316282e-13
1.9895197e-13
1.9184654e-13
1.9184654e-13
1.9184654e-13
1.7763568e-13
1.7763568e-13
1.7763568e-13
1.9895197e-13
1.8474111e-13
1.7053026e-13
1.563194e-13
1.6342483e-13
1.4921397e-13
1.563194e-13
1.6342483e-13
1.563194e-13
1.4921397e-13
1.4210855e-13
1.4921397e-13
1.4921397e-13
1.4921397e-13
1.4921397e-13
1.4210855e-13
1.563194e-13
1.563194e-13
1.4921397e-13
1.6342483e-13
1.7053026e-13
1.8474111e-13
1.7763568e-13
1.7763568e-13
1.6342483e-13
1.7053026e-13
1.563194e-13
1.6342483e-13
1.6342483e-13
1.563194e-13
1.563194e-13
1.7053026e-13
1.6342483e-13
1.6342483e-13
1.6342483e-13
1.6342483e-13
1.563194e-13
1.7763568e-13
1.7053026e-13
1.6342483e-13
1.7763568e-13
1.8474111e-13
1.8474111e-13
1.9184654e-13
2.0605739e-13
1.9184654e-13
1.8474111e-13
1.9184654e-13
1.8474111e-13
1.9895197e-13
1.9184654e-13
2.0605739e-13
2.0605739e-13
1.9895197e-13
1.9895197e-13
1.9895197e-13
1.9184654e-13
1.9895197e-13
2.0605739e-13
1.9895197e-13
1.9895197e-13
1.9184654e-13
1.9184654e-13
1.7053026e-13
1.7763568e-13
1.7763568e-13
1.8474111e-13
1.9184654e-13
1.9895197e-13
1.9184654e-13
1.9184654e-13
1.9184654e-13
1.7763568e-13
1.9895197e-13
1.9895197e-13
1.9895197e-13
2.0605739e-13
1.9895197e-13
1.9895197e-13
2.0605739e-13
2.0605739e-13
2.0605739e-13
1.9895197e-13
1.9895197e-13
2.0605739e-13
2.1316282e-13
2.1316282e-13
2.2026825e-13
2.0605739e-13
1.9895197e-13
1.9184654e-13
1.9184654e-13
1.8474111e-13
1.7053026e-13
1.7053026e-13
1.7053026e-13
1.7053026e-13
1.563194e-13
1.6342483e-13
1.6342483e-13
1.7053026e-13
1.7763568e-13
1.7763568e-13
1.7053026e-13
1.563194e-13
1.6342483e-13
1.6342483e-13
1.563194e-13
1.6342483e-13
1.7763568e-13
1.7053026e-13
1.6342483e-13
1.7763568e-13
1.6342483e-13
1.6342483e-13
1.7053026e-13
1.7053026e-13
1.6342483e-13
1.6342483e-13
1.7053026e-13
1.7053026e-13
1.7763568e-13
1.7053026e-13
1.8474111e-13
1.9184654e-13
1.9184654e-13
1.7053026e-13
1.8474111e-13
1.8474111e-13
1.9895197e-13
1.9895197e-13
2.1316282e-13
2.1316282e-13
2.1316282e-13
2.1316282e-13
2.2026825e-13
2.2737368e-13
2.4158453e-13
2.2737368e-13
2.344791e-13
2.344791e-13
2.4158453e-13
2.344791e-13
2.4158453e-13
2.4868996e-13
2.4158453e-13
2.5579538e-13
2.6290081e-13
2.4868996e-13
2.5579538e-13
2.5579538e-13
2.6290081e-13
2.6290081e-13
2.6290081e-13
2.7000624e-13
2.8421709e-13
2.8421709e-13
2.8421709e-13
2.9132252e-13
2.9842795e-13
2.9842795e-13
2.9842795e-13
2.9132252e-13
2.9842795e-13
2.9842795e-13
2.9132252e-13
3.0553338e-13
3.126388e-13
3.2684966e-13
3.5527137e-13
3.6948222e-13
3.907985e-13
4.1922021e-13
4.3343107e-13
4.6895821e-13
5.1159077e-13
5.2580162e-13
5.6132876e-13
6.1106675e-13
6.4659389e-13
6.8922645e-13
7.4606987e-13
8.1001872e-13
8.6686214e-13
9.4502184e-13
1.0089707e-12
1.1084467e-12
1.2079227e-12
1.3073986e-12
1.4210855e-12
1.5347723e-12
1.6839863e-12
1.8260948e-12
1.9966251e-12
2.1813662e-12
2.3803182e-12
2.6147973e-12
2.8563818e-12
3.126388e-12
3.4106051e-12
3.7161385e-12
4.0714099e-12
4.4622084e-12
4.8530069e-12
5.3006488e-12
5.7909233e-12
6.3451466e-12
6.9206862e-12
7.5743856e-12
8.2778229e-12
9.0523145e-12
9.9191766e-12
1.0821566e-11
1.1837642e-11
1.2953194e-11
1.4175328e-11
1.5496937e-11
1.695355e-11
1.8488322e-11
2.0222046e-11
2.2083668e-11
2.4130031e-11
2.635403e-11
2.8791192e-11
3.1441516e-11
3.434053e-11
3.749534e-11
4.0941472e-11
4.4686033e-11
4.8771653e-11
5.3219651e-11
5.8065552e-11
6.3366201e-11
6.9135808e-11
7.5402795e-11
8.2252427e-11
8.9677599e-11
9.7763575e-11
1.0658852e-10
1.1617374e-10
1.2661872e-10
1.3797319e-10
1.5032242e-10
1.6374457e-10
1.7833202e-10
1.9421265e-10
2.1147883e-10
2.3024427e-10
2.5062263e-10
2.7279157e-10
2.9684344e-10
3.2298431e-10
3.5137049e-10
3.8219383e-10
4.1564618e-10
4.5197623e-10
4.9138293e-10
5.341505e-10
5.8057736e-10
6.3091221e-10
6.8551742e-10
7.4473405e-10
8.0893869e-10
8.7854346e-10
9.5399599e-10
1.0357653e-09
1.124377e-09
1.2203571e-09
1.3243664e-09
1.4369874e-09
1.5589805e-09
1.691042e-09
1.8340032e-09
1.988731e-09
2.156213e-09
2.3374227e-09
2.5334614e-09
2.7455087e-09
2.9748577e-09
3.2228513e-09
3.4909817e-09
3.7808334e-09
4.0941117e-09
4.4326285e-09
4.7984159e-09
5.1935629e-09
5.6203504e-09
6.0812795e-09
6.578972e-09
7.1162631e-09
7.6962721e-09
8.3222105e-09
8.9976382e-09
9.7263424e-09
1.0512423e-08
1.1360235e-08
1.2274455e-08
1.3260184e-08
1.4322794e-08
1.5468125e-08
1.6702344e-08
1.8032203e-08
1.9464885e-08
2.1008013e-08
2.2669873e-08
2.4459297e-08
2.6385742e-08
2.845939e-08
3.0691105e-08
3.3092519e-08
3.5676123e-08
3.8455248e-08
4.1444245e-08
4.4658407e-08
4.8114089e-08
5.1828827e-08
5.5821403e-08
6.0111837e-08
6.4721611e-08
6.9673654e-08
7.4992471e-08
8.0704275e-08
8.6837076e-08
9.3420759e-08
1.0048732e-07
1.0807087e-07
1.1620786e-07
1.2493722e-07
1.3430043e-07
1.4434185e-07
1.5510879e-07
1.6665168e-07
1.7902435e-07
1.9228417e-07
2.0649234e-07
2.2171409e-07
2.3801891e-07
2.554809e-07
2.7417895e-07
2.9419714e-07
3.1562498e-07
3.385578e-07
3.6309707e-07
3.8935082e-07
4.1743397e-07
4.4746879e-07
4.7958535e-07
5.1392204e-07
5.5062591e-07
5.8985339e-07
6.3177069e-07
6.7655448e-07
7.2439241e-07
7.754839e-07
8.300407e-07
8.8828766e-07
9.5046349e-07
1.0168216e-06
1.0876309e-06
1.1631766e-06
1.2437616e-06
1.3297067e-06
1.4213524e-06
1.5190596e-06
1.6232107e-06
1.7342112e-06
1.8524905e-06
1.9785038e-06
2.1127327e-06
2.2556877e-06
2.4079089e-06
2.5699681e-06
2.7424704e-06
2.9260561e-06
3.1214023e-06
3.3292253e-06
3.5502825e-06
3.7853744e-06
4.0353473e-06
4.3010954e-06
4.5835634e-06
4.8837493e-06
5.2027068e-06
5.5415489e-06
5.90145e-06
6.2836499e-06
6.6894567e-06
7.1202504e-06
7.5774865e-06
8.0626998e-06
8.5775087e-06
9.1236188e-06
9.7028276e-06
1.0317029e-05
1.0968218e-05
1.1658496e-05
1.2390075e-05
1.3165284e-05
1.3986574e-05
1.4856524e-05
1.5777848e-05
1.67534e-05
1.778618e-05
1.8879345e-05
2.0036209e-05
2.126026e-05
2.2555157e-05
2.3924748e-05
2.5373072e-05
2.6904369e-05
2.8523091e-05
3.0233911e-05
3.204173e-05
3.395169e-05
3.5969186e-05
3.809987e-05
4.0349672e-05
4.2724804e-05
4.5231776e-05
4.7877407e-05
5.066884e-05
5.3613552e-05
5.6719374e-05
5.9994499e-05
6.3447502e-05
6.708735e-05
7.0923427e-05
7.496554e-05
7.9223945e-05
8.3709357e-05
8.8432977e-05
9.3406502e-05
9.864215e-05
0.00010415268
0.00010995141
0.00011605223
0.00012246966
0.00012921881
0.00013631547
0.00014377609
0.00015161781
0.0001598585
0.00016851678
0.00017761205
0.0001871645
0.00019719516
0.00020772591
0.00021877952
0.0002303797
0.00024255107
0.00025531926
0.00026871092
0.00028275371
0.0002974764
0.00031290887
0.00032908215
0.00034602845
0.0003637812
0.00038237509
0.00040184613
0.00042223163
0.00044357031
0.00046590229
0.00048926914
0.00051371395
0.00053928133
0.00056601748
0.00059397024
0.00062318911
0.00065372529
0.00068563178
0.00071896334
0.00075377661
0.00079013012
0.00082808436
0.00086770178
0.00090904691
0.00095218634
0.00099718881
0.0010441252
0.0010930688
0.0011440949
0.0011972813
0.0012527081
0.001310458
0.0013706161
0.0014332698
0.0014985093
0.0015664275
0.0016371198
0.0017106844
0.0017872222
0.001866837
0.0019496355
0.002035727
0.0021252243
0.0022182426
0.0023149007
0.00241532
0.0025196252
0.0026279444
0.0027404086
0.0028571522
0.0029783127
0.0031040312
0.0032344519
0.0033697224
0.003509994
0.0036554211
0.0038061616
0.0039623772
0.0041242328
0.0042918968
0.0044655416
0.0046453426
0.0048314791
0.005024134
0.0052234938
0.0054297485
0.0056430918
0.005863721
0.0060918369
0.0063276442
0.0065713509
0.0068231687
0.007083313
0.0073520025
0.0076294596
0.0079159103
0.0082115838
0.008516713
0.0088315341
0.0091562867
0.0094912137
0.0098365614
0.010192579
0.01055952
0.010937639
0.011327196
0.011728452
0.012141671
0.012567123
0.013005076
0.013455805
0.013919584
0.014396693
0.014887411
0.015392023
0.015910812
0.016444067
0.016992077
0.017555133
0.018133529
0.018727559
0.01933752
0.01996371
0.020606427
0.021265973
0.021942649
0.022636756
0.023348599
0.024078482
0.024826707
0.025593581
0.026379407
0.027184491
0.028009138
0.028853651
0.029718336
0.030603496
0.031509433
0.032436449
0.033384846
0.034354923
0.035346978
0.036361308
0.037398207
0.03845797
0.039540887
0.040647247
0.041777337
0.04293144
0.044109838
0.045312809
0.046540628
0.047793569
0.049071899
0.050375884
0.051705785
0.053061861
0.054444365
0.055853548
0.057289654
0.058752925
0.060243597
0.061761903
0.063308068
0.064882316
0.066484863
0.068115921
0.069775696
0.071464389
0.073182195
0.074929305
0.0767059
0.078512161
0.080348257
0.082214356
0.084110616
0.086037191
0.087994226
0.089981864
0.092000237
0.094049472
0.09612969
0.098241004
0.10038352
0.10255734
0.10476256
0.10699926
0.10926752
0.11156742
0.11389901
0.11626236
0.11865752
0.12108453
0.12354342
0.12603423
0.12855699
0.13111169
0.13369836
0.13631699
0.13896757
0.1416501
0.14436455
0.14711089
0.14988909
0.15269911
0.1555409
0.1584144
0.16131955
0.16425628
0.16722452
0.17022417
0.17325516
0.17631738
0.17941074
0.18253511
0.18569039
0.18887646
0.19209318
0.19534042
0.19861804
0.20192588
0.20526381
0.20863166
0.21202926
0.21545644
0.21891302
0.22239883
0.22591368
0.22945736
0.2330297
0.23663047
0.24025947
0.24391649
0.2476013
0.25131369
0.25505343
0.25882027
0.26261399
0.26643434
0.27028107
0.27415393
0.27805267
0.28197703
0.28592674
0.28990153
0.29390114
0.29792528
0.30197368
0.30604605
0.31014211
0.31426157
0.31840414
0.32256951
0.3267574
0.33096749
0.33519947
0.33945305
0.34372792
0.34802374
0.35234022
0.35667702
0.36103383
0.36541032
0.36980616
0.37422103
0.3786546
0.38310652
0.38757646
0.3920641
0.39656907
0.40109105
0.40562969
0.41018464
0.41475556
0.41934209
0.42394389
0.4285606
0.43319188
0.43783735
0.44249668
0.44716949
0.45185543
0.45655414
0.46126526
0.46598842
0.47072326
0.47546941
0.48022651
0.48499419
0.48977207
0.4945598
0.49935699
0.50416328
0.5089783
0.51380167
0.51863301
0.52347196
0.52831813
0.53317115
0.53803065
0.54289624
0.54776754
0.55264418
0.55752578
0.56241195
0.56730232
0.57219649
0.5770941
0.58199476
0.58689808
0.59180368
0.59671117
0.60162017
0.6065303
0.61144117
0.61635239
0.62126358
0.62617434
0.63108429
0.63599305
0.64090022
0.64580542
0.65070826
0.65560834
0.66050527
0.66539867
0.67028815
0.6751733
0.68005375
0.6849291
0.68979896
0.69466294
0.69952064
0.70437168
0.70921566
0.71405219
0.71888087
0.72370133
0.72851315
0.73331595
0.73810934
0.74289293
0.74766631
0.75242911
0.75718092
0.76192135
0.76665002
0.77136653
0.77607048
0.78076149
0.78543917
0.79010311
0.79475295
0.79938827
0.8040087
0.80861384
0.81320331
0.81777672
0.82233368
0.8268738
0.8313967
0.83590199
0.8403893
0.84485823
0.84930841
0.85373945
0.85815097
0.86254261
0.86691397
0.87126469
0.8755944
0.87990271
0.88418926
0.88845369
0.89269562
0.89691469
0.90111054
0.9052828
0.90943113
0.91355517
0.91765456
0.92172895
0.925778
0.92980137
0.93379871
0.93776968
0.94171395
0.9456312
0.94952109
0.95338329
0.9572175
0.9610234
0.96480067
0.96854901
0.97226812
0.97595769
0.97961744
0.98324708
0.98684633
0.99041491
0.99395255
0.99745898
1.0009339
1.0043772
1.0077885
1.0111675
1.0145141
1.0178281
1.0211091
1.0243571
1.0275717
1.0307528
1.0339002
1.0370137
1.0400931
1.0431383
1.0461491
1.0491253
1.0520668
1.0549735
1.0578453
1.0606819
1.0634834
1.0662496
1.0689804
1.0716757
1.0743355
1.0769597
1.0795483
1.0821012
1.0846183
1.0870998
1.0895454
1.0919553
1.0943295
1.0966679
1.0989707
1.1012377
1.1034692
1.1056651
1.1078255
1.1099505
1.1120402
1.1140947
1.1161141
1.1180985
1.1200481
1.121963
1.1238434
1.1256894
1.1275012
1.1292789
1.1310229
1.1327332
1.1344101
1.1360538
1.1376646
1.1392427
1.1407883
1.1423017
1.1437832
1.1452331
1.1466516
1.148039
1.1493956
1.1507218
1.1520179
1.1532841
1.1545209
1.1557285
1.1569073
1.1580576
1.1591799
1.1602744
1.1613416
1.1623817
1.1633953
1.1643826
1.1653441
1.1662801
1.167191
1.1680773
1.1689393
1.1697775
1.1705922
1.1713838
1.1721528
1.1728996
1.1736245
1.174328
1.1750105
1.1756724
1.1763142
1.1769361
1.1775388
1.1781224
1.1786876
1.1792346
1.1797638
1.1802758
1.1807708
1.1812493
1.1817116
1.1821583
1.1825895
1.1830058
1.1834075
1.183795
1.1841687
1.1845289
1.184876
1.1852103
1.1855323
1.1858422
1.1861404
1.1864273
1.1867032
1.1869684
1.1872232
1.1874679
1.1877029
1.1879285
1.188145
1.1883526
1.1885517
1.1887425
1.1889253
1.1891004
1.189268
1.1894285
1.189582
1.1897288
1.1898691
1.1900033
1.1901314
1.1902538
1.1903706
1.1904821
1.1905884
1.1906898
1.1907864
1.1908785
1.1909662
1.1910497
1.1911292
1.1912048
1.1912767
1.191345
1.19141
1.1914716
1.1915302
1.1915858
1.1916386
1.1916886
1.191736
1.191781
1.1918235
1.1918639
1.191902
1.1919381
1.1919723
1.1920045
1.192035
1.1920638
1.192091
1.1921167
1.1921409
1.1921638
1.1921853
1.1922056
1.1922247
1.1922426
1.1922596
1.1922755
1.1922904
1.1923045
1.1923177
1.1923301
1.1923417
1.1923526
1.1923628
1.1923724
1.1923814
1.1923898
1.1923977
1.192405
1.1924119
1.1924184
1.1924244
1.19243
1.1924352
1.1924401
1.1924447
1.192449
1.1924529
1.1924566
1.1924601
1.1924633
1.1924663
1.1924691
1.1924717
1.1924742
1.1924764
1.1924785
1.1924805
1.1924823
1.192484
1.1924856
1.192487
1.1924883
1.1924895
1.1924906
1.1924916
1.1924925
1.1924932
1.1924938
1.1924942
1.1924946
1.1924949
1.1924953
1.1924954
1.1924956
1.192496
1.1924966
1.192497
1.1924976
1.1924983
1.192499
1.1924997
1.1925005
1.1925014
1.1925022
1.1925031
1.1925041
1.192505
1.192506
1.1925069
1.1925078
1.1925088
1.1925099
1.1925109
1.1925119
1.1925129
1.192514
1.1925151
1.1925161
1.1925172
1.1925182
1.1925193
1.1925203
1.1925214
1.1925224
1.1925233
1.1925243
1.1925252
1.1925261
1.1925269
1.1925277
1.1925284
1.1925291
1.1925297
1.1925303
1.1925309
1.1925313
1.1925318
1.1925322
1.1925325
1.1925328
1.1925331
1.1925335
1.1925339
1.1925343
1.1925347
1.1925352
1.1925357
1.1925361
1.1925367
1.1925372
1.1925378
1.1925383
1.1925388
1.1925394
1.19254
1.1925405
1.1925411
1.1925417
1.1925423
1.1925428
1.1925434
1.1925439
1.1925445
1.192545
1.1925455
1.192546
1.1925465
1.192547
1.1925475
1.192548
1.1925485
1.1925489
1.1925494
1.1925499
1.1925503
1.1925508
1.1925512
1.1925516
1.192552
1.1925522
1.1925523
1.1925523
1.1925522
1.1925522
1.1925522
1.1925522
1.1925523
1.1925525
1.1925527
1.192553
1.1925532
1.1925536
1.1925542
1.1925549
1.1925557
1.1925565
1.1925572
1.192558
1.1925588
1.1925595
1.1925602
1.1925608
1.1925615
1.1925621
1.1925627
1.1925632
1.1925637
1.1925642
1.1925647
1.1925651
1.1925655
1.1925659
1.1925663
1.1925667
1.192567
1.1925673
1.1925676
1.1925679
1.1925682
1.1925684
1.1925685
1.1925686
1.1925686
1.1925685
1.1925685
1.1925683
1.1925681
1.192568
1.1925679
1.192568
1.1925682
1.1925684
1.1925687
1.1925691
1.1925695
1.1925699
1.1925704
1.1925709
1.1925714
1.192572
1.1925724
1.1925729
1.1925733
1.1925737
1.1925741
1.1925744
1.1925746
1.1925748
1.192575
1.1925752
1.1925753
1.1925754
1.1925754
1.1925753
1.1925753
1.1925752
1.1925751
1.192575
1.1925749
1.1925748
1.1925748
1.1925747
1.1925747
1.1925747
1.1925748
1.192575
1.1925752
1.1925755
1.1925758
1.1925761
1.1925764
1.1925766
1.1925769
1.1925772
1.1925775
1.1925777
1.192578
1.1925782
1.1925784
1.1925787
1.1925789
1.192579
1.1925792
1.1925794
1.1925795
1.1925797
1.1925798
1.1925799
1.19258
1.1925801
1.1925801
1.1925802
1.1925802
1.1925802
1.1925802
1.1925802
1.1925801
1.1925801
1.19258
1.19258
1.1925799
1.1925798
1.1925797
1.1925796
1.1925795
1.1925794
1.1925793
1.1925791
1.1925789
1.1925787
1.1925785
1.1925783
1.192578
1.1925778
1.1925775
1.1925772
1.192577
1.1925767
1.1925765
1.1925763
1.1925761
1.1925759
1.1925757
1.1925756
1.1925755
1.1925754
1.1925753
1.1925753
1.1925753
1.1925754
1.1925754
1.1925755
1.1925756
1.1925757
1.1925758
1.1925759
1.192576
1.1925761
1.1925762
1.1925762
1.1925763
1.1925764
1.1925765
1.1925765
1.1925766
1.1925766
1.1925767
1.1925767
1.1925767
1.1925767
1.1925767
1.1925766
1.1925766
1.1925766
1.1925765
1.1925765
1.1925764
1.1925763
1.1925762
1.1925761
1.192576
1.1925759
1.1925758
1.1925757
1.1925756
1.1925754
1.1925753
1.1925752
1.192575
1.1925749
1.1925747
1.1925745
1.1925743
1.1925741
1.1925739
1.1925738
1.1925736
1.1925734
1.1925732
1.192573
1.1925728
1.1925726
1.1925724
1.1925722
1.192572
1.1925719
1.1925717
1.1925715
1.1925714
1.1925712
1.192571
1.1925709
1.1925707
1.1925706
1.1925704
1.1925703
1.1925701
1.19257
1.1925699
1.1925698
1.1925697
1.1925695
1.1925694
1.1925693
1.1925692
1.1925691
1.1925689
1.1925688
1.1925687
1.1925686
1.1925685
1.1925683
1.1925682
1.1925681
1.192568
1.1925678
1.1925677
1.1925676
1.1925674
1.1925673
1.1925671
1.192567
1.1925668
1.1925667
1.1925665
1.1925663
1.1925662
1.192566
1.1925659
1.1925657
1.1925655
1.1925654
1.1925652
1.1925651
1.1925649
1.1925647
1.1925646
1.1925644
1.1925642
1.1925641
1.1925639
1.1925638
1.1925636
1.1925635
1.1925633
1.1925632
1.192563
1.1925629
1.1925627
1.1925626
1.1925624
1.1925623
1.1925622
1.192562
1.1925619
1.1925618
1.1925616
1.1925615
1.1925614
1.1925613
1.1925611
1.192561
1.1925609
1.1925607
1.1925606
1.1925605
1.1925603
1.1925602
1.1925601
1.1925599
1.1925598
1.1925596
1.1925595
1.1925593
1.1925592
1.192559
1.1925589
1.1925588
1.1925586
1.1925585
1.1925583
1.1925581
1.192558
1.1925578
1.1925577
1.1925575
1.1925574
1.1925572
1.1925571
1.1925569
1.1925568
1.1925566
1.1925565
1.1925563
1.1925562
1.1925561
1.1925559
1.1925558
1.1925557
1.1925555
1.1925554
1.1925553
1.1925551
1.192555
1.1925549
1.1925548
1.1925546
1.1925545
1.1925544
1.1925543
1.1925541
1.192554
1.1925539
1.1925538
1.1925537
1.1925535
1.1925534
1.1925533
1.1925532
1.1925531
1.1925529
1.1925528
1.1925527
1.1925526
1.1925525
1.1925523
1.1925522
1.1925521
1.192552
1.1925519
1.1925517
1.1925516
1.1925515
1.1925514
1.1925512
1.1925511
1.192551
1.1925509
1.1925508
1.1925507
1.1925506
1.1925505
1.1925503
1.1925502
1.1925501
1.19255
1.1925499
1.1925498
1.1925497
1.1925496
1.1925495
1.1925494
1.1925493
1.1925492
1.1925491
1.192549
1.1925489
1.1925488
1.1925487
1.1925486
1.1925485
1.1925485
1.1925484
1.1925483
1.1925482
1.1925481
1.192548
1.192548
1.1925479
1.1925478
1.1925478
1.1925477
1.1925476
1.1925475
1.1925475
1.1925474
1.1925473
1.1925472
1.1925472
1.1925471
1.192547
1.1925469
1.1925469
1.1925468
1.1925467
1.1925466
1.1925466
1.1925465
1.1925464
1.1925463
1.1925462
1.1925461
1.1925461
1.192546
1.1925459
1.1925458
1.1925457
1.1925456
1.1925455
1.1925455
1.1925454
1.1925453
1.1925452
1.1925451
1.192545
1.1925449
1.1925448
1.1925447
1.1925446
1.1925445
1.1925444
1.1925443
1.1925441
1.192544
1.1925439
1.1925438
1.1925437
1.1925436
1.1925435
1.1925434
1.1925433
1.1925432
1.1925431
1.192543
1.1925429
1.1925428
1.1925426
1.1925425
1.1925424
1.1925423
1.1925422
1.1925421
1.192542
1.1925419
1.1925418
1.1925417
1.1925416
1.1925415
1.1925414
1.1925413
1.1925412
1.1925411
1.192541
1.192541
1.1925409
1.1925408
1.1925407
1.1925406
1.1925405
1.1925404
1.1925403
1.1925402
1.1925401
1.19254
1.1925399
1.1925398
1.1925397
1.1925396
1.1925395
1.1925394
1.1925393
1.1925392
1.1925391
1.1925391
1.192539
1.1925389
1.1925388
1.1925387
1.1925386
1.1925385
1.1925384
1.1925384
1.1925383
1.1925382
1.1925381
1.192538
1.1925379
1.1925379
1.1925378
1.1925377
1.1925376
1.1925376
1.1925375
1.1925374
1.1925373
1.1925372
1.1925372
1.1925371
1.192537
1.1925369
1.1925368
1.1925368
1.1925367
1.1925366
1.1925366
1.1925365
1.1925364
1.1925363
1.1925363
1.1925362
1.1925361
1.192536
1.192536
1.1925359
1.1925358
1.1925358
1.1925357
1.1925356
1.1925356
1.1925355
1.1925354
1.1925354
1.1925353
1.1925352
1.1925352
1.1925351
1.192535
1.192535
1.1925349
1.1925348
1.1925348
1.1925347
1.1925346
1.1925346
1.1925345
1.1925344
1.1925344
1.1925343
1.1925342
1.1925342
1.1925341
1.192534
1.192534
1.1925339
1.1925338
1.1925338
1.1925337
1.1925336
1.1925335
1.1925335
1.1925334
1.1925333
1.1925333
1.1925332
1.1925331
1.192533
1.192533
1.1925329
1.1925328
1.1925327
1.1925326
1.1925326
1.1925325
1.1925324
1.1925323
1.1925322
1.1925321
1.192532
1.1925319
1.1925318
1.1925317
1.1925317
1.1925316
1.1925315
1.1925314
1.1925313
1.1925312
1.1925311
1.192531
1.1925309
1.1925308
1.1925307
1.1925306
1.1925305
1.1925304
1.1925303
1.1925302
1.1925301
1.19253
1.1925299
1.1925298
1.1925297
1.1925296
1.1925295
1.1925294
1.1925293
1.1925292
1.1925291
1.192529
1.1925289
1.1925288
1.1925287
1.1925286
1.1925285
1.1925284
1.1925283
1.1925283
1.1925282
1.1925281
1.192528
1.1925279
1.1925278
1.1925277
1.1925276
1.1925275
1.1925274
1.1925273
1.1925272
1.1925271
1.1925271
1.192527
1.1925269
1.1925268
1.1925267
1.1925266
1.1925265
1.1925264
1.1925263
1.1925263
1.1925262
1.1925261
1.192526
1.1925259
1.1925258
1.1925258
1.1925257
1.1925256
1.1925255
1.1925254
1.1925253
1.1925253
1.1925252
1.1925251
1.192525
1.1925249
1.1925249
1.1925248
1.1925247
1.1925246
1.1925245
1.1925245
1.1925244
1.1925243
1.1925242
1.1925241
1.1925241
1.192524
1.1925239
1.1925238
1.1925238
1.1925237
1.1925236
1.1925235
1.1925235
1.1925234
1.1925233
1.1925232
1.1925232
1.1925231
1.192523
1.192523
1.1925229
1.1925228
1.1925228
1.1925227
1.1925226
1.1925226
1.1925225
1.1925224
1.1925224
1.1925223
1.1925222
1.1925222
1.1925221
1.1925221
1.192522
1.1925219
1.1925219
1.1925218
1.1925218
1.1925217
1.1925216
1.1925216
1.1925215
1.1925215
1.1925214
1.1925213
1.1925213
1.1925212
1.1925212
1.1925211
1.1925211
1.192521
1.1925209
1.1925209
1.1925208
1.1925208
1.1925207
1.1925206
1.1925206
1.1925205
1.1925204
1.1925204
1.1925203
1.1925202
1.1925202
1.1925201
1.19252
1.19252
1.1925199
1.1925198
1.1925198
1.1925197
1.1925196
1.1925195
1.1925195
1.1925194
1.1925193
1.1925192
1.1925191
1.192519
1.192519
1.1925189
1.1925188
1.1925187
1.1925186
1.1925185
1.1925184
1.1925183
1.1925183
1.1925182
1.1925181
1.192518
1.1925179
1.1925178
1.1925177
1.1925176
1.1925175
1.1925174
1.1925173
1.1925172
1.1925171
1.192517
1.1925169
1.1925168
1.1925168
1.1925167
1.1925166
1.1925165
1.1925164
1.1925163
1.1925162
1.1925161
1.192516
1.1925159
1.1925158
1.1925158
1.1925157
1.1925156
1.1925155
1.1925154
1.1925153
1.1925152
1.1925151
1.1925151
1.192515
1.1925149
1.1925148
1.1925147
1.1925146
1.1925145
1.1925145
1.1925144
1.1925143
1.1925142
1.1925142
1.1925141
1.192514
1.1925139
1.1925138
1.1925138
1.1925137
1.1925136
1.1925135
1.1925135
1.1925134
1.1925133
1.1925132
1.1925131
1.1925131
1.192513
1.1925129
1.1925128
1.1925127
1.1925127
1.1925126
1.1925125
1.1925124
1.1925124
1.1925123
1.1925122
1.1925121
1.192512
1.192512
1.1925119
1.1925118
1.1925117
1.1925116
1.1925115
1.1925114
1.1925113
1.1925113
1.1925112
1.1925111
1.192511
1.1925109
1.1925109
1.1925108
1.1925107
1.1925106
1.1925105
1.1925104
1.1925103
1.1925102
1.1925102
1.1925101
1.19251
1.1925099
1.1925098
1.1925097
1.1925097
1.1925096
1.1925095
1.1925094
1.1925093
1.1925093
1.1925092
1.1925091
1.192509
1.192509
1.1925089
1.1925088
1.1925087
1.1925087
1.1925086
1.1925085
1.1925084
1.1925084
1.1925083
1.1925082
1.1925082
1.1925081
1.192508
1.192508
1.1925079
1.1925078
1.1925078
1.1925077
1.1925076
1.1925076
1.1925075
1.1925074
1.1925074
1.1925073
1.1925072
1.1925072
1.1925071
1.192507
1.192507
1.1925069
1.1925069
1.1925068
1.1925067
1.1925067
1.1925066
1.1925065
1.1925064
1.1925064
1.1925063
1.1925062
1.1925062
1.1925061
1.192506
1.192506
1.1925059
1.1925058
1.1925058
1.1925057
1.1925056
1.1925055
1.1925055
1.1925054
1.1925053
1.1925052
1.1925051
1.1925051
1.192505
1.1925049
1.1925048
1.1925047
1.1925047
1.1925046
1.1925045
1.1925044
1.1925043
1.1925042
1.1925041
1.1925041
1.192504
1.1925039
1.1925038
1.1925037
1.1925036
1.1925036
1.1925035
1.1925034
1.1925033
1.1925032
1.1925031
1.192503
1.1925029
1.1925028
1.1925027
1.1925026
1.1925025
1.1925024
1.1925024
1.1925023
1.1925022
1.1925021
1.192502
1.1925019
1.1925018
1.1925017
1.1925016
1.1925015
1.1925014
1.1925013
1.1925012
1.1925011
1.192501
1.1925009
1.1925009
1.1925008
1.1925007
1.1925006
1.1925005
1.1925004
1.1925003
1.1925002
1.1925001
1.1925
1.1924999
1.1924998
1.1924997
1.1924996
1.1924996
1.1924995
1.1924994
1.1924993
1.1924991
1.192499
1.1924989
1.1924988
1.1924987
1.1924986
1.1924985
1.1924985
1.1924984
1.1924983
1.1924982
1.1924981
1.192498
1.1924979
1.1924978
1.1924977
1.1924976
1.1924975
1.1924974
1.1924973
1.1924972
1.1924971
1.192497
1.1924969
1.1924968
1.1924967
1.1924966
1.1924965
1.1924963
1.1924962
1.1924961
1.192496
1.1924959
1.1924958
1.1924957
1.1924956
1.1924955
1.1924954
1.1924953
1.1924952
1.1924951
1.1924949
1.1924948
1.1924947
1.1924946
1.1924945
1.1924944
1.1924943
1.1924942
1.192494
1.1924939
1.1924938
1.1924937
1.1924936
1.1924935
1.1924933
1.1924932
1.1924931
1.192493
1.1924929
1.1924928
1.1924926
1.1924925
1.1924924
1.1924923
1.1924922
1.192492
1.1924919
1.1924918
1.1924917
1.1924916
1.1924914
1.1924913
1.1924912
1.1924911
1.192491
1.1924908
1.1924907
1.1924906
1.1924905
1.1924904
1.1924903
1.1924902
1.19249
1.1924899
1.1924898
1.1924897
1.1924896
1.1924894
1.1924893
1.1924892
1.1924891
1.192489
1.1924889
1.1924888
1.1924887
1.1924886
1.1924884
1.1924883
1.1924882
1.1924881
1.192488
1.1924879
1.1924878
1.1924877
1.1924876
1.1924875
1.1924874
1.1924873
1.1924872
1.1924871
1.192487
1.1924869
1.1924867
1.1924866
1.1924865
1.1924864
1.1924863
1.1924862
1.1924861
1.192486
1.1924859
1.1924858
1.1924857
1.1924856
1.1924854
1.1924853
1.1924852
1.1924851
1.192485
1.1924849
1.1924848
1.1924847
1.1924846
1.1924844
1.1924843
1.1924842
1.1924841
1.192484
1.1924839
1.1924837
1.1924836
1.1924835
1.1924834
1.1924833
1.1924832
1.1924831
1.1924829
1.1924828
1.1924827
1.1924825
1.1924824
1.1924822
1.1924821
1.192482
1.1924818
1.1924817
1.1924816
1.1924814
1.1924813
1.1924812
1.192481
1.1924809
1.1924807
1.1924806
1.1924804
1.1924803
1.1924802
1.19248
1.1924799
1.1924797
1.1924796
1.1924794
1.1924792
1.1924791
1.1924789
1.1924787
1.1924786
1.1924784
1.1924782
1.1924781
1.1924779
1.1924777
1.1924776
1.1924774
1.1924772
1.192477
1.1924768
1.1924767
1.1924765
1.1924763
1.1924762
1.192476
1.1924758
1.1924757
1.1924755
1.1924753
1.1924751
1.1924749
1.1924747
1.1924745
1.1924743
1.1924741
1.1924739
1.1924737
1.1924735
1.1924733
1.1924731
1.1924729
1.1924727
1.1924725
1.1924723
1.1924721
1.1924719
1.1924717
1.1924714
1.1924712
1.192471
1.1924708
1.1924706
1.1924704
1.1924701
1.1924699
1.1924697
1.1924695
1.1924693
1.192469
1.1924688
1.1924685
1.1924683
1.1924681
1.1924678
1.1924676
1.1924673
1.1924671
1.1924669
1.1924666
1.1924664
1.1924662
1.1924659
1.1924657
1.1924654
1.1924651
1.1924649
1.1924646
1.1924644
1.1924641
1.1924638
1.1924635
1.1924633
1.192463
1.1924627
1.1924624
1.1924621
1.1924618
1.1924616
1.1924613
1.192461
1.1924607
1.1924604
1.1924601
1.1924598
1.1924595
1.1924592
1.1924589
1.1924586
1.1924583
1.192458
1.1924577
1.1924573
1.192457
1.1924567
1.1924564
1.192456
1.1924557
1.1924554
1.192455
1.1924546
1.1924542
1.1924539
1.1924535
1.1924531
1.1924527
1.1924523
1.1924519
1.1924516
1.1924512
1.1924508
1.1924504
1.19245
1.1924496
1.1924492
1.1924487
1.1924483
1.1924479
1.1924474
1.192447
1.1924465
1.1924461
1.1924456
1.1924451
1.1924446
1.1924442
1.1924437
1.1924432
1.1924427
1.1924422
1.1924417
1.1924412
1.1924406
1.1924401
1.1924396
1.1924391
1.1924386
1.1924381
1.1924375
1.192437
1.1924365
1.192436
1.1924354
1.1924349
1.1924344
1.1924339
1.1924335
1.192433
1.1924326
1.1924322
1.1924318
1.1924314
1.1924311
1.1924308
1.1924305
1.1924302
1.19243
1.1924299
1.1924297
1.1924296
1.1924296
1.1924295
1.1924295
1.1924295
1.1924295
1.1924296
1.1924297
1.1924299
1.19243
1.1924302
1.1924303
1.1924304
1.1924304
1.1924304
1.1924304
1.1924304
1.1924303
1.1924302
1.19243
1.1924296
1.1924289
1.1924281
1.1924273
1.1924263
1.1924253
1.1924243
1.1924232
1.192422
1.1924209
1.1924197
1.1924185
1.1924172
1.1924159
1.1924146
1.1924133
1.192412
1.1924109
1.1924099
1.192409
1.1924083
1.1924077
1.1924072
1.1924067
1.1924063
1.1924059
1.1924055
1.192405
1.1924045
1.1924039
1.1924032
1.1924025
1.1924018
1.1924007
1.1923989
1.1923947
1.1923837
1.192355
1.1922801
1.1920882
1.1915974
1.1903639
1.1874025
1.1834565
1.1788454
1.173804
1.1685684
1.1633613
1.1583739
1.1537538
1.1496012
1.1459704
1.1428755
1.1402996
1.1382029
1.1365322
1.1352275
1.1342283
1.1334772
1.1329229
1.1325212
1.1322353
1.1320355
1.1318988
1.1318071
1.1317474
1.1317097
1.131687
1.1316744
1.1316684
1.1316662
1.1316658
1.1316667
1.1316708
1.1316758
1.1316803
1.1316844
1.131688
1.1316912
1.1316941
1.1316966
1.1316989
1.1317009
1.1317028
1.1317046
1.1317063
1.1317079
1.1317094
1.1317108
1.1317122
1.1317135
1.1317147
1.131716
1.1317171
1.1317183
1.1317194
1.1317206
1.1317218
1.1317231
1.1317245
1.1317259
1.1317274
1.1317291
1.1317308
1.1317325
1.1317344
1.1317363
1.1317382
1.1317402
1.1317421
1.1317441
1.131746
1.1317479
1.1317497
1.1317515