/*--------------------------------*- C++ -*----------------------------------*\
| =========                 |                                                 |
| \\      /  F ield         | OpenFOAM: The Open Source CFD Toolbox           |
|  \\    /   O peration     | Version:  4.x                                   |
|   \\  /    A nd           | Web:      www.OpenFOAM.org                      |
|    \\/     M anipulation  |                                                 |
\*---------------------------------------------------------------------------*/
FoamFile
{
    version     2.0;
    format      ascii;
    class       volScalarField;
    location    "0.4";
    object      T;
}
// * * * * * * * * * * * * * * * * * * * * * * * * * * * * * * * * * * * * * //

dimensions      [0 0 0 1 0 0 0];

internalField   nonuniform List<scalar> 
6273
(
299.9997812
299.9997757
299.9997613
299.999749
299.9997361
299.9997298
299.9997893
299.9997852
299.9997738
299.9997647
299.9997553
299.9997489
299.9997993
299.999798
299.9997948
299.9997952
299.9997938
299.9997921
299.9998187
299.999822
299.9998294
299.9998423
299.9998539
299.9998606
299.999833
299.9998414
299.9998578
299.9998847
299.999912
299.9999296
299.9998406
299.9998492
299.9998711
299.9999079
299.9999468
299.9999737
299.9994381
299.999425
299.9994164
299.9994224
299.9994271
299.9994322
299.9994445
299.9994379
299.9994409
299.9994558
299.999468
299.9994741
299.9994702
299.9994758
299.9994971
299.9995331
299.9995598
299.9995713
299.9995207
299.9995365
299.9995784
299.9996372
299.9996869
299.9997137
299.9995683
299.9995915
299.9996475
299.999727
299.9998029
299.999853
299.9995992
299.9996221
299.9996806
299.9997714
299.9998684
299.9999427
299.999278
299.9992804
299.9993052
299.9993573
299.9994022
299.9994267
299.9992837
299.9992963
299.9993351
299.9993985
299.9994498
299.9994729
299.9993145
299.999341
299.9994024
299.999486
299.9995491
299.9995738
299.9993762
299.9994125
299.9994907
299.9995901
299.9996701
299.9997076
299.9994375
299.999474
299.999554
299.9996626
299.9997638
299.9998269
299.9994773
299.9995054
299.9995751
299.9996839
299.9998008
299.9998922
299.9992902
299.9993145
299.9993737
299.9994564
299.9995092
299.9995166
299.9992965
299.99933
299.9994003
299.9994895
299.9995447
299.99955
299.9993214
299.9993637
299.9994498
299.9995493
299.9996105
299.9996193
299.9993698
299.999414
299.9995026
299.9996047
299.9996772
299.9997022
299.9994152
299.9994512
299.9995253
299.9996206
299.9997055
299.9997573
299.9994382
299.9994593
299.9995118
299.999596
299.9996912
299.9997672
299.999474
299.9995082
299.9995681
299.9996278
299.9996425
299.9996169
299.9994741
299.999512
299.9995774
299.9996406
299.9996585
299.9996355
299.9994746
299.9995153
299.9995875
299.9996565
299.9996832
299.9996714
299.9994814
299.9995188
299.9995852
299.9996542
299.9996963
299.9997058
299.9994867
299.9995117
299.9995613
299.9996247
299.999681
299.9997165
299.9994817
299.9994916
299.9995167
299.9995683
299.9996373
299.9996992
299.9997188
299.9997434
299.9997792
299.9998029
299.9997898
299.9997468
299.9997049
299.999731
299.9997713
299.9998004
299.9997928
299.9997563
299.9996789
299.9997065
299.9997523
299.9997879
299.9997904
299.9997702
299.9996549
299.9996798
299.9997212
299.999759
299.9997758
299.9997744
299.9996421
299.9996557
299.9996796
299.9997093
299.9997388
299.9997612
299.9996345
299.9996322
299.9996327
299.9996477
299.9996838
299.9997301
299.9998394
299.999846
299.9998679
299.9999071
299.9999491
299.9999804
299.9998299
299.9998349
299.9998544
299.9998912
299.99993
299.9999606
299.9998158
299.9998216
299.9998423
299.999876
299.9999063
299.9999283
299.9998073
299.9998185
299.9998477
299.9998821
299.9999053
299.9999142
299.9998173
299.9998361
299.9998769
299.9999157
299.9999363
299.9999387
299.9998499
299.9998747
299.9999222
299.9999645
299.999987
299.9999925
299.9998859
299.9999085
299.9999522
299.9999945
300.0000235
300.0000419
299.9999015
299.999918
299.9999539
299.999995
300.0000304
300.0000595
299.9998927
299.9999025
299.9999283
299.9999668
300.000007
300.0000411
299.9998705
299.9998733
299.9998886
299.9999223
299.999965
300.0000018
299.9998447
299.9998399
299.9998473
299.9998772
299.9999225
299.9999652
299.9998161
299.9998066
299.9998111
299.999841
299.9998874
299.999933
299.999606
299.9996231
299.9996761
299.9997663
299.9998695
299.9999592
299.9995896
299.9996023
299.9996475
299.9997301
299.9998297
299.9999247
299.9995555
299.9995705
299.9996187
299.9996955
299.9997766
299.9998571
299.9995379
299.9995653
299.9996314
299.999712
299.9997793
299.9998311
299.9995707
299.9996121
299.9997007
299.9997886
299.999845
299.9998749
299.9996551
299.9997022
299.9997982
299.9998887
299.9999443
299.9999726
299.9997325
299.999772
299.999854
299.999939
300.0000017
300.000049
299.9997458
299.9997718
299.9998327
299.9999113
299.9999861
300.0000567
299.9997013
299.9997127
299.999753
299.9998256
299.9999137
300.0000019
299.9996344
299.9996315
299.999656
299.9997218
299.9998221
299.9999246
299.9995675
299.9995529
299.9995689
299.999634
299.9997452
299.999862
299.9995051
299.9994858
299.9995011
299.9995726
299.9996922
299.9998161
299.9994837
299.999502
299.9995588
299.9996607
299.9997834
299.9998925
299.9994577
299.9994704
299.9995175
299.9996108
299.9997319
299.9998536
299.999413
299.9994326
299.9994911
299.9995864
299.999694
299.999806
299.9994078
299.9994419
299.999522
299.9996232
299.9997165
299.9998014
299.9994758
299.9995228
299.9996241
299.9997291
299.9998054
299.9998577
299.9995963
299.9996422
299.9997386
299.9998349
299.9998997
299.9999397
299.9996715
299.9997022
299.9997721
299.9998509
299.9999139
299.9999648
299.9996472
299.9996606
299.9997029
299.9997685
299.9998431
299.9999208
299.9995566
299.9995545
299.9995787
299.9996402
299.9997379
299.9998482
299.9994664
299.9994532
299.9994695
299.9995337
299.9996577
299.9998048
299.9994044
299.9993868
299.9994044
299.9994815
299.9996243
299.9997944
299.999362
299.9993458
299.9993699
299.9994595
299.9996108
299.9997856
299.9994279
299.9994381
299.9994719
299.9995448
299.9996486
299.9997436
299.9993867
299.999394
299.9994278
299.9995043
299.9996109
299.9997139
299.9993456
299.9993657
299.9994209
299.9995115
299.999616
299.999719
299.9993649
299.9993986
299.9994786
299.9995837
299.9996789
299.9997618
299.9994679
299.9995102
299.9996048
299.9997073
299.9997846
299.9998427
299.9996057
299.9996364
299.9997078
299.9997862
299.9998425
299.9998845
299.9996592
299.9996664
299.9996988
299.999748
299.9997956
299.9998434
299.9995995
299.9995856
299.9995914
299.9996231
299.9996804
299.9997545
299.9994984
299.9994739
299.9994706
299.9995037
299.9995854
299.999697
299.9994274
299.9994015
299.9994034
299.9994517
299.999558
299.999697
299.9994038
299.9993822
299.999392
299.999454
299.9995796
299.9997379
299.9994083
299.9993953
299.9994128
299.9994805
299.9996015
299.9997539
299.9994559
299.9994531
299.9994644
299.9995078
299.9995848
299.9996621
299.999405
299.9994045
299.9994224
299.9994768
299.9995618
299.9996485
299.9993695
299.9993832
299.9994253
299.999499
299.9995873
299.9996799
299.9994017
299.9994279
299.9994957
299.9995884
299.9996733
299.9997581
299.9995197
299.9995491
299.9996208
299.9997053
299.9997745
299.9998436
299.9996469
299.999657
299.9996948
299.9997477
299.9997956
299.9998568
299.9996687
299.9996511
299.9996491
299.9996676
299.9997056
299.9997759
299.999594
299.9995574
299.9995319
299.9995422
299.9995855
299.9996768
299.9995279
299.9994852
299.9994581
299.9994739
299.9995321
299.9996376
299.9995216
299.9994814
299.9994591
299.9994795
299.9995456
299.9996519
299.9995566
299.9995254
299.9995132
299.9995364
299.9995992
299.9996883
299.999602
299.9995803
299.9995701
299.9995824
299.9996252
299.9996921
299.9996113
299.999597
299.999581
299.9995886
299.999628
299.9996939
299.9995652
299.9995519
299.9995429
299.9995589
299.9996078
299.999685
299.9995299
299.9995317
299.9995467
299.9995825
299.9996395
299.9997255
299.9995563
299.9995708
299.9996127
299.9996723
299.9997349
299.9998239
299.9996554
299.9996726
299.9997183
299.999775
299.9998304
299.9999147
299.9997409
299.9997374
299.9997497
299.9997805
299.9998243
299.9999154
299.9997161
299.9996848
299.999661
299.9996689
299.9997063
299.9998096
299.9996339
299.9995879
299.9995489
299.9995524
299.9995936
299.9997059
299.9996094
299.9995626
299.9995245
299.9995282
299.9995696
299.9996703
299.9996608
299.999621
299.999587
299.9995865
299.9996141
299.9996756
299.9997291
299.9996969
299.9996657
299.9996542
299.9996605
299.9996862
299.9997762
299.999748
299.9997099
299.9996819
299.9996684
299.9996713
299.9997864
299.9997774
299.999783
299.9998153
299.9998613
299.9999019
299.999762
299.9997574
299.9997653
299.9997981
299.9998405
299.9998758
299.9997483
299.9997458
299.999755
299.9997845
299.9998182
299.9998472
299.9997416
299.9997377
299.9997447
299.9997688
299.9997967
299.9998237
299.9997366
299.9997315
299.9997354
299.9997572
299.9997868
299.9998168
299.9997317
299.9997223
299.9997245
299.9997474
299.9997812
299.9998178
299.9994484
299.999431
299.9994501
299.9995279
299.9996472
299.9997623
299.9994003
299.999386
299.9994082
299.999486
299.9995953
299.9997
299.9993591
299.999345
299.9993669
299.9994413
299.9995379
299.9996311
299.9993203
299.9993053
299.9993255
299.9993968
299.9994932
299.9995892
299.9992838
299.9992698
299.999292
299.9993689
299.9994785
299.9995901
299.9992599
299.9992459
299.9992736
299.9993603
299.9994828
299.9996091
299.9993277
299.9993147
299.9993426
299.9994351
299.999582
299.9997395
299.9992917
299.9992797
299.9993068
299.9993947
299.9995278
299.9996663
299.9992447
299.9992301
299.9992541
299.999338
299.999464
299.9995988
299.9991845
299.99917
299.999196
299.999288
299.999429
299.9995786
299.9991284
299.9991219
299.9991603
299.9992707
299.9994344
299.9996109
299.9990972
299.9990977
299.9991473
299.9992728
299.9994516
299.9996447
299.9994228
299.9994131
299.9994276
299.9994871
299.9995916
299.9997152
299.9994249
299.9994118
299.999416
299.9994599
299.9995466
299.9996551
299.9993977
299.9993781
299.9993748
299.9994169
299.9995119
299.9996278
299.9993426
299.9993247
299.9993295
299.9993921
299.9995131
299.9996518
299.9992885
299.9992827
299.999307
299.9993971
299.9995511
299.9997209
299.9992601
299.9992625
299.9993005
299.9994085
299.9995783
299.9997646
299.9996441
299.9996204
299.9995954
299.9995905
299.9996063
299.9996432
299.9996638
299.9996322
299.9995884
299.9995605
299.9995644
299.9996015
299.9996564
299.9996166
299.9995615
299.9995366
299.9995504
299.9996025
299.9996262
299.9995896
299.999546
299.9995422
299.9995879
299.9996716
299.9995977
299.9995727
299.9995515
299.9995748
299.9996533
299.9997642
299.9995832
299.9995652
299.9995592
299.999598
299.9996922
299.9998173
299.9998061
299.9997736
299.9997218
299.9996725
299.9996321
299.9996214
299.9998232
299.9997822
299.9997114
299.999642
299.9995966
299.9995887
299.9998276
299.9997813
299.9997029
299.9996338
299.9995992
299.9996028
299.9998259
299.9997855
299.9997176
299.9996693
299.9996623
299.9996874
299.999829
299.9998025
299.9997559
299.9997329
299.9997457
299.9997907
299.9998336
299.9998143
299.9997847
299.999772
299.9997922
299.999847
299.9997353
299.9997564
299.9997914
299.9998349
299.9998861
299.999936
299.9999525
299.9999174
299.9998651
299.999847
299.9998709
299.9998991
299.9997522
299.9997697
299.9997998
299.9998391
299.9998874
299.9999354
299.9999509
299.9999188
299.999873
299.9998586
299.9998797
299.9999016
299.9997951
299.9998074
299.9998298
299.9998615
299.9999017
299.999944
299.9999587
299.9999329
299.9998965
299.999885
299.9998977
299.9999073
299.9998642
299.9998687
299.9998775
299.999895
299.9999237
299.9999614
299.9999794
299.9999629
299.9999321
299.999916
299.9999147
299.9999104
299.9999348
299.9999316
299.9999268
299.9999293
299.9999477
299.9999825
300.0000063
299.9999953
299.9999608
299.999932
299.9999184
299.9999073
299.9999801
299.9999729
299.9999608
299.9999529
299.9999661
300.0000037
300.0000346
300.0000208
299.9999746
299.999933
299.999908
299.9998975
299.9994483
299.9994843
299.9995375
299.9996095
299.9997106
299.9998172
299.9998515
299.9997789
299.9996927
299.9996838
299.9997474
299.9997871
299.9994852
299.9995124
299.9995561
299.9996198
299.9997145
299.9998155
299.9998469
299.9997786
299.9997007
299.9996935
299.9997471
299.9997752
299.9995778
299.9995897
299.999613
299.9996584
299.9997372
299.999828
299.9998575
299.9997994
299.9997351
299.9997278
299.9997589
299.9997663
299.9997202
299.9997166
299.9997124
299.9997276
299.9997778
299.9998553
299.9998893
299.9998488
299.9997907
299.9997698
299.9997717
299.9997587
299.9998665
299.9998527
299.9998196
299.999804
299.99983
299.9998986
299.9999424
299.9999104
299.99984
299.9997946
299.9997729
299.999748
299.9999692
299.999954
299.9999095
299.9998708
299.9998839
299.9999546
300.0000114
299.9999729
299.9998739
299.9998009
299.9997652
299.9997443
299.9994378
299.9994483
299.99947
299.9995181
299.9996134
299.9997252
299.9997575
299.9996855
299.9996177
299.9996307
299.9996985
299.9997255
299.9994764
299.9994768
299.9994879
299.9995276
299.9996152
299.9997176
299.9997426
299.9996714
299.9996093
299.9996208
299.9996759
299.9996941
299.9995692
299.9995523
299.9995423
299.9995624
299.9996309
299.9997199
299.9997406
299.9996762
299.9996206
299.9996244
299.9996562
299.9996598
299.9997046
299.999676
299.9996392
299.99963
299.999668
299.9997403
299.9997624
299.9997078
299.9996513
299.999637
299.9996441
299.999637
299.9998368
299.9998066
299.999745
299.9997077
299.9997245
299.999785
299.999814
299.9997659
299.9996911
299.9996531
299.9996433
299.9996325
299.9999225
299.9999002
299.9998365
299.9997842
299.9997922
299.9998557
299.9998947
299.9998381
299.9997347
299.9996751
299.9996553
299.9996515
299.9994985
299.9994792
299.9994823
299.9995217
299.9996148
299.9997135
299.9997155
299.9996133
299.9995459
299.9995697
299.9996415
299.9996723
299.9995283
299.9995025
299.9994975
299.9995285
299.9996104
299.9996948
299.9996846
299.9995811
299.9995181
299.9995416
299.9996054
299.999631
299.9995966
299.9995612
299.9995422
299.9995577
299.9996182
299.9996808
299.9996568
299.9995625
299.9995086
299.9995245
299.9995685
299.9995829
299.9996898
299.9996543
299.99962
299.9996134
299.9996452
299.9996916
299.9996666
299.9995799
299.9995253
299.9995265
299.9995488
299.9995547
299.9997623
299.9997356
299.9996927
299.9996718
299.9996891
299.9997254
299.9997067
299.9996319
299.9995658
299.9995446
299.9995491
299.9995491
299.9997925
299.9997788
299.9997484
299.9997324
299.9997527
299.9997978
299.9997947
299.9997217
299.9996291
299.9995829
299.9995703
299.9995687
299.9995723
299.9995521
299.9995678
299.9996268
299.9997269
299.9997925
299.99973
299.9995806
299.9995072
299.9995485
299.9996354
299.9996713
299.9995934
299.9995718
299.9995819
299.99963
299.9997123
299.9997572
299.9996819
299.9995371
299.9994738
299.9995195
299.9995997
299.99963
299.9996392
299.9996177
299.9996211
299.9996508
299.9997042
299.9997179
299.9996336
299.9995099
299.999464
299.9995057
299.9995656
299.9995834
299.9996944
299.9996784
299.9996755
299.9996873
299.9997136
299.9997135
299.9996344
299.9995257
299.9994851
299.999514
299.9995511
299.9995569
299.9997259
299.99972
299.9997151
299.9997225
299.9997416
299.9997376
299.9996713
299.999582
299.9995386
299.9995398
299.9995522
299.9995454
299.9997262
299.9997383
299.9997571
299.9997863
299.9998162
299.9998194
299.9997737
299.9996962
299.9996261
299.9995939
299.9995758
299.9995568
299.9997032
299.9996939
299.9997193
299.9997879
299.9998809
299.999904
299.9997789
299.9995968
299.9995343
299.9996111
299.9997151
299.9997463
299.9997176
299.9997096
299.9997316
299.9997891
299.9998602
299.9998608
299.9997263
299.9995576
299.9995124
299.9995986
299.9996949
299.9997185
299.9997457
299.9997442
299.9997641
299.9998026
299.9998381
299.9998071
299.9996705
299.999537
299.9995171
299.9996051
299.9996802
299.9996887
299.9997711
299.9997787
299.9997996
299.9998217
299.9998343
299.9997913
299.9996678
299.9995585
299.9995518
299.9996293
299.9996778
299.9996681
299.9997771
299.9997973
299.9998256
299.9998504
299.9998558
299.999815
299.9997089
299.9996265
299.9996218
299.9996642
299.9996817
299.9996511
299.999769
299.9998156
299.999873
299.9999225
299.9999422
299.9999153
299.9998388
299.999769
299.9997372
299.9997294
299.9997018
299.9996516
299.9999392
299.9999626
299.9999694
299.9999568
299.9999393
299.9999359
299.9999454
299.9999467
299.9999453
299.9999411
299.9999221
299.9998937
299.9999049
299.9999268
299.9999351
299.9999274
299.9999159
299.9999246
299.999936
299.9999358
299.9999388
299.9999412
299.9999266
299.9998939
299.9998724
299.9998943
299.9999016
299.9998942
299.9998946
299.999913
299.9999239
299.999917
299.9999148
299.9999187
299.9999115
299.9998849
299.999852
299.9998738
299.9998789
299.9998754
299.9998842
299.9999075
299.9999192
299.9999099
299.9998986
299.9998932
299.9998868
299.9998695
299.999847
299.99987
299.9998753
299.9998726
299.9998851
299.9999146
299.9999299
299.9999173
299.9998963
299.9998839
299.9998773
299.9998656
299.9998543
299.9998796
299.9998827
299.9998773
299.9998915
299.9999254
299.9999427
299.999928
299.9999025
299.9998866
299.9998791
299.9998691
299.9998625
299.9999168
299.9999134
299.9998531
299.9997891
299.9997934
299.9998399
299.9998787
299.9999025
299.9998934
299.9998354
299.9997569
299.9997802
299.9998275
299.9998221
299.99978
299.9997504
299.9997789
299.9998214
299.9998437
299.9998659
299.9998709
299.9998288
299.9997438
299.9997091
299.99976
299.9997631
299.9997334
299.9997296
299.9997718
299.9998036
299.9998002
299.9998032
299.9998096
299.9997847
299.9997105
299.9996767
299.9997353
299.9997397
299.9997166
299.9997263
299.999776
299.9998014
299.9997828
299.999765
299.999759
299.9997402
299.9996859
299.9996906
299.9997521
299.9997533
299.99973
299.9997457
299.9998011
299.9998248
299.9997947
299.9997597
299.9997437
299.9997267
299.9996829
299.9997203
299.999782
299.9997773
299.9997478
299.9997645
299.999824
299.9998501
299.9998174
299.999775
299.9997513
299.9997305
299.9996898
299.999871
299.9999322
299.9999025
299.9997889
299.9997133
299.9997464
299.9998446
299.9999427
299.9999942
299.9999753
299.9998789
299.9997608
299.9997743
299.9998166
299.9997867
299.9997094
299.9996845
299.9997394
299.9998175
299.9998788
299.9999248
299.999923
299.9998405
299.9997043
299.9997115
299.9997611
299.9997404
299.999681
299.9996812
299.999746
299.9997989
299.9998185
299.9998425
299.9998415
299.9997733
299.9996469
299.999706
299.9997629
299.999743
299.9996956
299.9997077
299.9997668
299.9997966
299.9997902
299.9997864
299.9997769
299.9997207
299.999613
299.9997579
299.9998198
299.9997963
299.9997417
299.9997473
299.999797
299.9998151
299.999791
299.9997711
299.999754
299.9997013
299.9996028
299.9998046
299.9998677
299.9998366
299.9997708
299.9997705
299.9998183
299.9998366
299.9998079
299.9997786
299.9997533
299.9996984
299.9996036
299.9998288
299.9998684
299.9998256
299.9997208
299.999704
299.9998007
299.9999486
300.0000686
300.0001111
300.0000587
299.9999207
299.9997683
299.99975
299.9997742
299.9997313
299.999669
299.9996903
299.9998042
299.9999267
300.0000092
300.0000424
299.999996
299.9998559
299.9996756
299.9997259
299.9997512
299.9997153
299.9996737
299.9997234
299.9998401
299.999923
299.9999613
299.9999711
299.9999151
299.9997771
299.9995973
299.9997655
299.9997991
299.9997677
299.9997417
299.9997919
299.9998815
299.999925
299.9999273
299.9999115
299.999849
299.9997187
299.9995499
299.9998512
299.9998898
299.9998541
299.9998168
299.9998466
299.9999121
299.9999349
299.9999177
299.9998872
299.9998193
299.9996919
299.9995297
299.9999067
299.9999458
299.9999017
299.9998519
299.9998703
299.9999265
299.9999442
299.9999202
299.9998826
299.9998103
299.9996827
299.9995241
299.9996915
299.9996964
299.9996634
299.9996376
299.9997025
299.9998648
300.0000192
300.0001065
300.0001206
300.0000395
299.999879
299.9997201
299.9996433
299.9996442
299.9996125
299.9996129
299.9997065
299.9998855
300.000017
300.0000745
300.000075
299.9999862
299.9998087
299.9996218
299.9996551
299.9996608
299.9996344
299.9996527
299.9997732
299.9999423
300.0000363
300.0000543
300.0000246
299.9999203
299.9997382
299.999549
299.999744
299.9997539
299.9997299
299.999752
299.9998626
299.9999943
300.00005
300.000037
299.9999805
299.999865
299.9996876
299.9995073
299.9998524
299.9998662
299.9998369
299.9998431
299.9999261
300.0000276
300.0000617
300.0000324
299.9999624
299.9998389
299.9996636
299.9994904
299.999915
299.9999295
299.9998926
299.9998867
299.999956
300.000043
300.0000679
300.0000327
299.9999572
299.9998295
299.9996544
299.9994859
299.9996259
299.9996196
299.9996035
299.9996294
299.9997507
299.9999329
300.0000491
300.0000774
300.000052
299.9999658
299.9998331
299.9997073
299.999595
299.999587
299.9995683
299.999605
299.9997527
299.9999487
300.0000528
300.0000704
300.0000363
299.9999362
299.9997806
299.9996286
299.999623
299.9996181
299.999601
299.9996502
299.9998163
299.9999996
300.0000786
300.000072
300.0000139
299.9998959
299.999728
299.9995804
299.9997197
299.9997144
299.999698
299.9997481
299.9998997
300.0000506
300.0001025
300.000073
299.9999936
299.9998617
299.9996925
299.9995561
299.9998306
299.9998249
299.9998037
299.9998419
299.9999664
300.0000851
300.0001189
300.0000763
299.9999837
299.9998431
299.9996747
299.9995488
299.9998914
299.9998841
299.9998575
299.9998874
299.9999972
300.0000987
300.0001236
300.000076
299.9999781
299.9998338
299.9996664
299.9995477
299.9999061
299.9998938
299.999875
299.9998509
299.999822
299.9998002
299.9999033
299.9998856
299.9998605
299.9998306
299.9997992
299.9997734
299.9998974
299.9998696
299.9998358
299.9997982
299.9997631
299.9997369
299.9998928
299.9998621
299.9998234
299.9997809
299.9997419
299.9997158
299.9998873
299.9998637
299.9998265
299.9997827
299.9997413
299.9997147
299.9998857
299.9998728
299.9998448
299.9998018
299.9997588
299.9997316
299.9997755
299.9997217
299.9996553
299.9995828
299.9995103
299.9994638
299.999752
299.9996894
299.9996136
299.999535
299.9994625
299.999416
299.9997253
299.9996505
299.9995621
299.9994728
299.9993998
299.9993581
299.999711
299.9996335
299.9995413
299.9994452
299.9993689
299.9993291
299.9997082
299.9996447
299.9995576
299.9994617
299.999382
299.9993407
299.9997205
299.999682
299.999611
299.9995175
299.9994361
299.9993932
299.9996975
299.9996364
299.9995659
299.9994932
299.9994319
299.9993977
299.9996608
299.9995966
299.9995217
299.9994466
299.9993893
299.9993585
299.999619
299.9995498
299.9994669
299.9993845
299.9993291
299.999303
299.9995975
299.9995309
299.9994466
299.9993577
299.9992985
299.9992705
299.9996026
299.9995486
299.9994697
299.999381
299.9993176
299.9992853
299.9996339
299.9996007
299.9995355
299.999451
299.9993863
299.9993517
299.9996599
299.9996252
299.9995945
299.9995748
299.9995664
299.9995624
299.9996166
299.9995826
299.9995517
299.9995323
299.9995254
299.9995213
299.9995639
299.999528
299.9994921
299.9994655
299.9994556
299.9994499
299.9995347
299.9995007
299.9994626
299.9994278
299.9994113
299.9994011
299.9995343
299.9995119
299.9994793
299.999446
299.9994277
299.9994146
299.9995579
299.9995547
299.9995402
299.9995167
299.9995011
299.9994872
299.9996589
299.9996292
299.9996222
299.9996473
299.9996873
299.9997107
299.9996143
299.9995871
299.9995828
299.9996099
299.9996481
299.9996666
299.9995608
299.9995331
299.9995279
299.9995503
299.9995823
299.9995961
299.9995287
299.9995044
299.9995023
299.9995247
299.9995552
299.9995681
299.9995216
299.9995132
299.9995249
299.99956
299.9995964
299.9996118
299.9995382
299.9995542
299.9995983
299.999656
299.9997003
299.9997174
299.999707
299.9996552
299.9996451
299.9996854
299.9997462
299.9997834
299.9996739
299.9996254
299.9996188
299.9996621
299.9997221
299.9997552
299.9996343
299.999589
299.9995855
299.999631
299.9996898
299.9997202
299.9996066
299.9995725
299.9995817
299.9996392
299.9997038
299.9997353
299.9996001
299.9995874
299.9996222
299.9997024
299.9997806
299.9998179
299.9996131
299.9996303
299.9997135
299.9998226
299.9999035
299.9999366
299.9998908
299.9998907
299.9998712
299.9998305
299.9997877
299.9997628
299.9999043
299.9999129
299.999895
299.999854
299.9998146
299.9997952
299.9999273
299.9999301
299.9999076
299.9998683
299.999839
299.9998277
299.9999458
299.9999377
299.9999126
299.9998847
299.9998712
299.9998683
299.999957
299.9999448
299.9999253
299.999913
299.9999125
299.9999152
299.9999698
299.9999591
299.9999454
299.9999384
299.9999406
299.9999442
299.9999726
299.9999635
299.9999493
299.9999378
299.9999355
299.9999373
299.9999678
299.9999605
299.9999411
299.9999181
299.9999082
299.9999063
299.9999679
299.9999605
299.9999382
299.999904
299.9998845
299.9998772
299.9999537
299.9999511
299.9999309
299.9998917
299.9998651
299.9998532
299.9999154
299.9999227
299.9999027
299.9998659
299.9998378
299.9998242
299.9998872
299.9998829
299.9998602
299.9998284
299.9998044
299.9997934
299.9997512
299.9997355
299.9996783
299.9995882
299.9995115
299.9994738
299.999794
299.9997891
299.9997296
299.9996415
299.9995776
299.9995506
299.9998459
299.9998235
299.9997565
299.9996815
299.9996428
299.9996307
299.9998767
299.9998372
299.9997782
299.999737
299.9997286
299.999732
299.9998926
299.9998527
299.9998192
299.9998093
299.9998224
299.9998354
299.999918
299.9998853
299.9998619
299.9998577
299.9998704
299.9998829
299.9999452
299.9999069
299.9998705
299.9998516
299.9998489
299.9998552
299.9999655
299.9999214
299.9998675
299.9998187
299.9997979
299.9997952
299.9999759
299.9999372
299.9998712
299.9997976
299.9997592
299.9997465
299.9999404
299.9999153
299.9998504
299.9997689
299.9997194
299.9996985
299.9998466
299.9998296
299.9997712
299.9996981
299.9996513
299.9996297
299.9997535
299.9997145
299.9996557
299.999601
299.9995718
299.9995612
299.999688
299.9996657
299.9996104
299.9995341
299.9994775
299.9994496
299.9997368
299.9997153
299.9996561
299.9995923
299.9995558
299.9995426
299.9997765
299.9997361
299.9996794
299.9996451
299.999641
299.9996482
299.9997942
299.9997495
299.9997183
299.9997195
299.9997506
299.999774
299.999807
299.9997779
299.9997708
299.9997981
299.9998402
299.9998659
299.9998397
299.9998171
299.999811
299.9998288
299.9998538
299.9998697
299.9999105
299.9998643
299.9998336
299.9998189
299.9998142
299.9998154
300.0000059
299.9999347
299.9998692
299.9998133
299.9997822
299.9997692
300.0000649
299.9999917
299.999903
299.9998178
299.9997651
299.9997405
300.0000378
299.999976
299.999877
299.9997815
299.9997206
299.9996915
299.999912
299.9998551
299.9997584
299.9996765
299.9996298
299.9996083
299.9997674
299.9996835
299.9996004
299.9995516
299.9995374
299.9995389
299.9996051
299.9996106
299.9996127
299.9996044
299.9995971
299.999588
299.9996373
299.9996445
299.9996526
299.999665
299.9996758
299.9996781
299.9996571
299.9996558
299.9996748
299.9997154
299.9997555
299.9997729
299.9996773
299.9996758
299.9997088
299.9997768
299.9998373
299.9998633
299.9997135
299.9997137
299.999752
299.9998204
299.9998712
299.999891
299.9997777
299.9997689
299.9997849
299.9998198
299.9998374
299.99984
299.9998925
299.9998487
299.9998285
299.9998145
299.9997939
299.9997769
300.0000383
299.9999632
299.9998995
299.9998365
299.9997825
299.9997514
300.0001158
300.0000336
299.9999381
299.999844
299.9997719
299.9997336
300.0000924
300.0000072
299.9998938
299.9997888
299.9997167
299.9996816
299.9999535
299.9998646
299.9997529
299.9996675
299.9996224
299.9996056
299.9997815
299.9996733
299.9995869
299.9995509
299.9995527
299.999565
299.999575
299.9996078
299.9996808
299.9997566
299.9998005
299.9998166
299.9995986
299.9996397
299.9997272
299.9998161
299.9998638
299.9998805
299.9996189
299.9996513
299.9997482
299.9998513
299.9999097
299.9999299
299.999649
299.9996715
299.9997661
299.9998734
299.9999332
299.9999529
299.9997001
299.9997092
299.9997823
299.9998675
299.9999094
299.9999209
299.9997848
299.9997745
299.9998051
299.9998405
299.9998488
299.9998432
299.9999112
299.9998701
299.9998562
299.9998415
299.9998121
299.9997901
300.0000459
299.999977
299.9999216
299.9998604
299.9998038
299.9997724
300.0001027
300.0000279
299.9999373
299.9998468
299.9997769
299.9997431
300.0000623
299.9999774
299.9998657
299.9997675
299.9997053
299.999678
299.9999156
299.9998239
299.9997192
299.9996467
299.999615
299.9996088
299.9997412
299.9996445
299.9995756
299.9995562
299.99957
299.9995855
299.9996353
299.9996861
299.9997994
299.9999159
299.9999816
300.0000025
299.9996565
299.9997171
299.9998445
299.9999551
300.0000076
300.0000204
299.9996838
299.9997376
299.9998637
299.9999705
300.00002
300.0000316
299.9997356
299.9997652
299.999873
299.9999708
300.0000184
300.0000308
299.9998036
299.9998045
299.9998774
299.9999528
299.9999902
300.0000007
299.9998866
299.9998657
299.9998926
299.9999327
299.9999512
299.9999545
299.9999661
299.999929
299.9999241
299.9999313
299.999932
299.9999275
300.0000228
299.9999739
299.9999445
299.9999216
299.9999046
299.9998946
300.0000357
299.9999807
299.9999203
299.9998673
299.9998357
299.9998218
299.9999782
299.999912
299.9998309
299.9997666
299.9997337
299.999722
299.9998531
299.9997826
299.999704
299.9996569
299.9996431
299.9996432
299.9997224
299.9996499
299.9996068
299.9995982
299.99961
299.9996211
299.9998685
299.9998492
299.9998194
299.9997932
299.99978
299.9997762
299.9998609
299.9998234
299.9997922
299.9997746
299.9997727
299.9997766
299.9998474
299.9998096
299.9997825
299.9997735
299.9997818
299.9997913
299.9998402
299.9998087
299.9997894
299.9997872
299.9997994
299.9998087
299.9998442
299.9998202
299.9998061
299.9998055
299.9998152
299.9998218
299.9998509
299.9998301
299.9998169
299.9998142
299.9998209
299.9998284
299.9996866
299.999617
299.9995575
299.9995265
299.9995243
299.999531
299.9996441
299.9995572
299.9995075
299.9994953
299.9995157
299.999538
299.9996147
299.9995341
299.9994948
299.9994972
299.9995347
299.999565
299.9996061
299.9995371
299.9995086
299.9995195
299.9995581
299.999586
299.9996171
299.9995596
299.999536
299.9995435
299.9995747
299.9996002
299.9996306
299.9995772
299.9995524
299.9995545
299.9995828
299.99961
299.9996448
299.9995418
299.999483
299.99947
299.999494