/*--------------------------------*- C++ -*----------------------------------*\
  =========                 |
  \\      /  F ield         | OpenFOAM: The Open Source CFD Toolbox
   \\    /   O peration     | Website:  https://openfoam.org
    \\  /    A nd           | Version:  7
     \\/     M anipulation  |
\*---------------------------------------------------------------------------*/
FoamFile
{
    version     2.0;
    format      ascii;
    class       surfaceScalarField;
    location    "0.00126";
    object      phi;
}
// * * * * * * * * * * * * * * * * * * * * * * * * * * * * * * * * * * * * * //

dimensions      [1 0 -1 0 0 0 0];

internalField   nonuniform List<scalar> 
4999
(
3.7779765e-06
3.9685732e-06
4.1719823e-06
4.3887751e-06
4.6195518e-06
4.8649519e-06
5.125658e-06
5.402397e-06
5.6959408e-06
6.0071072e-06
6.3367604e-06
6.6858125e-06
7.0552247e-06
7.4460088e-06
7.8592295e-06
8.296006e-06
8.7575146e-06
9.2449907e-06
9.7597315e-06
1.0303098e-05
1.087652e-05
1.1481495e-05
1.2119594e-05
1.2792464e-05
1.3501832e-05
1.4249507e-05
1.5037382e-05
1.5867442e-05
1.6741763e-05
1.7662521e-05
1.8631989e-05
1.9652549e-05
2.0726691e-05
2.1857018e-05
2.3046252e-05
2.429724e-05
2.5612955e-05
2.6996506e-05
2.8451139e-05
2.9980245e-05
3.1587364e-05
3.3276194e-05
3.5050592e-05
3.6914587e-05
3.8872379e-05
4.0928351e-05
4.3087076e-05
4.5353321e-05
4.7732055e-05
5.022846e-05
5.2847934e-05
5.5596103e-05
5.8478827e-05
6.1502211e-05
6.4672611e-05
6.7996643e-05
7.1481198e-05
7.5133444e-05
7.8960841e-05
8.2971148e-05
8.7172439e-05
9.1573106e-05
9.6181876e-05
0.00010100782
0.00010606037
0.00011134932
0.00011688484
0.00012267751
0.00012873831
0.00013507862
0.00014171029
0.00014864558
0.00015589725
0.0001634785
0.00017140304
0.00017968508
0.00018833938
0.00019738119
0.00020682635
0.00021669127
0.00022699294
0.00023774895
0.00024897754
0.00026069756
0.00027292854
0.00028569069
0.00029900492
0.00031289286
0.00032737686
0.00034248006
0.00035822636
0.00037464046
0.0003917479
0.00040957504
0.00042814913
0.0004474983
0.00046765157
0.00048863894
0.00051049132
0.00053324063
0.00055691978
0.00058156273
0.00060720446
0.00063388107
0.00066162972
0.00069048873
0.00072049756
0.00075169685
0.00078412843
0.0008178354
0.00085286208
0.00088925409
0.00092705834
0.00096632311
0.001007098
0.001049434
0.0010933836
0.0011390006
0.0011863404
0.0012354598
0.0012864171
0.0013392723
0.0013940867
0.0014509235
0.0015098474
0.0015709248
0.0016342235
0.0016998134
0.001767766
0.0018381544
0.0019110536
0.0019865404
0.0020646935
0.0021455932
0.0022293219
0.0023159638
0.0024056051
0.0024983338
0.0025942399
0.0026934155
0.0027959546
0.0029019531
0.003011509
0.0031247226
0.0032416958
0.003362533
0.0034873404
0.0036162265
0.0037493018
0.003886679
0.0040284728
0.0041748002
0.0043257804
0.0044815345
0.004642186
0.0048078604
0.0049786856
0.0051547915
0.0053363102
0.005523376
0.0057161252
0.0059146966
0.0061192309
0.006329871
0.0065467619
0.0067700509
0.0069998872
0.0072364223
0.0074798096
0.0077302048
0.0079877653
0.0082526508
0.0085250231
0.0088050456
0.009092884
0.0093887058
0.0096926804
0.010004979
0.010325775
0.010655243
0.010993559
0.011340902
0.011697453
0.012063392
0.012438904
0.012824172
0.013219383
0.013624725
0.014040387
0.014466559
0.014903434
0.015351204
0.015810063
0.016280206
0.016761831
0.017255133
0.017760312
0.018277566
0.018807095
0.0193491
0.019903781
0.020471341
0.021051981
0.021645904
0.022253314
0.022874412
0.023509403
0.024158491
0.024821877
0.025499767
0.026192362
0.026899867
0.027622484
0.028360415
0.029113861
0.029883025
0.030668107
0.031469306
0.032286822
0.033120852
0.033971594
0.034839244
0.035723996
0.036626043
0.037545579
0.038482794
0.039437876
0.040411013
0.041402391
0.042412195
0.043440605
0.044487803
0.045553967
0.046639272
0.047743892
0.048867998
0.05001176
0.051175345
0.052358916
0.053562635
0.05478666
0.056031149
0.057296253
0.058582123
0.059888908
0.06121675
0.062565791
0.063936169
0.065328019
0.066741472
0.068176658
0.069633699
0.071112718
0.072613832
0.074137156
0.0756828
0.07725087
0.078841471
0.080454702
0.082090658
0.083749431
0.085431109
0.087135776
0.088863512
0.090614394
0.092388493
0.094185878
0.096006612
0.097850757
0.099718366
0.10160949
0.10352419
0.10546249
0.10742444
0.10941007
0.11141942
0.11345251
0.11550936
0.11759
0.11969444
0.12182268
0.12397474
0.12615062
0.12835031
0.1305738
0.1328211
0.13509218
0.13738703
0.13970562
0.14204793
0.14441392
0.14680357
0.14921682
0.15165365
0.15411401
0.15659784
0.15910509
0.16163571
0.16418963
0.16676678
0.1693671
0.17199052
0.17463696
0.17730633
0.17999856
0.18271356
0.18545124
0.18821151
0.19099426
0.19379941
0.19662683
0.19947644
0.20234811
0.20524173
0.2081572
0.21109438
0.21405316
0.21703341
0.220035
0.22305781
0.22610169
0.22916651
0.23225214
0.23535843
0.23848523
0.2416324
0.24479979
0.24798725
0.25119462
0.25442175
0.25766847
0.26093463
0.26422007
0.26752461
0.27084809
0.27419034
0.27755119
0.28093046
0.28432798
0.28774358
0.29117706
0.29462826
0.29809698
0.30158305
0.30508628
0.30860647
0.31214345
0.31569702
0.31926699
0.32285316
0.32645534
0.33007334
0.33370695
0.33735598
0.34102023
0.34469949
0.34839357
0.35210226
0.35582535
0.35956265
0.36331394
0.36707902
0.37085767
0.3746497
0.37845488
0.38227301
0.38610388
0.38994727
0.39380298
0.39767078
0.40155046
0.4054418
0.4093446
0.41325863
0.41718367
0.42111951
0.42506593
0.42902272
0.43298964
0.43696649
0.44095303
0.44494906
0.44895434
0.45296866
0.4569918
0.46102352
0.46506362
0.46911186
0.47316802
0.47723189
0.48130322
0.48538181
0.48946742
0.49355983
0.49765882
0.50176415
0.5058756
0.50999296
0.51411598
0.51824445
0.52237813
0.5265168
0.53066024
0.53480821
0.53896049
0.54311684
0.54727705
0.55144089
0.55560811
0.55977851
0.56395184
0.56812789
0.57230641
0.57648718
0.58066998
0.58485457
0.58904072
0.5932282
0.59741679
0.60160625
0.60579635
0.60998687
0.61417756
0.61836821
0.62255858
0.62674843
0.63093755
0.63512569
0.63931262
0.64349812
0.64768196
0.65186389
0.65604368
0.66022112
0.66439595
0.66856795
0.67273688
0.67690252
0.68106463
0.68522298
0.68937733
0.69352745
0.6976731
0.70181406
0.70595008
0.71008094
0.7142064
0.71832623
0.72244019
0.72654804
0.73064956
0.7347445
0.73883263
0.74291372
0.74698753
0.75105383
0.75511238
0.75916294
0.76320528
0.76723917
0.77126436
0.77528063
0.77928773
0.78328543
0.7872735
0.79125169
0.79521978
0.79917752
0.80312468
0.80706103
0.81098633
0.81490034
0.81880283
0.82269356
0.8265723
0.83043881
0.83429286
0.83813421
0.84196262
0.84577788
0.84957973
0.85336795
0.8571423
0.86090256
0.86464848
0.86837984
0.8720964
0.87579794
0.87948422
0.88315502
0.8868101
0.89044924
0.89407222
0.89767879
0.90126874
0.90484184
0.90839787
0.9119366
0.91545782
0.91896129
0.92244681
0.92591415
0.92936309
0.93279342
0.93620493
0.93959739
0.9429706
0.94632435
0.94965843
0.95297263
0.95626674
0.95954056
0.9627939
0.96602654
0.9692383
0.97242897
0.97559837
0.97874629
0.98187257
0.98497699
0.98805939
0.99111958
0.99415738
0.99717262
1.0001651
1.0031347
1.0060812
1.0090045
1.0119044
1.0147807
1.0176333
1.020462
1.0232667
1.0260473
1.0288036
1.0315354
1.0342427
1.0369252
1.039583
1.0422158
1.0448235
1.0474061
1.0499634
1.0524953
1.0550018
1.0574826
1.0599378
1.0623673
1.0647709
1.0671486
1.0695003
1.071826
1.0741256
1.076399
1.0786462
1.0808672
1.0830619
1.0852303
1.0873723
1.0894879
1.0915772
1.0936401
1.0956765
1.0976866
1.0996702
1.1016275
1.1035584
1.105463
1.1073412
1.1091932
1.1110189
1.1128185
1.1145919
1.1163392
1.1180606
1.119756
1.1214255
1.1230693
1.1246874
1.1262799
1.1278469
1.1293885
1.1309049
1.1323961
1.1338623
1.1353036
1.1367201
1.138112
1.1394795
1.1408226
1.1421416
1.1434366
1.1447077
1.1459552
1.1471792
1.1483799
1.1495576
1.1507123
1.1518442
1.1529537
1.1540409
1.1551059
1.1561491
1.1571706
1.1581707
1.1591495
1.1601074
1.1610445
1.1619611
1.1628574
1.1637337
1.1645901
1.1654271
1.1662447
1.1670433
1.1678231
1.1685844
1.1693274
1.1700524
1.1707597
1.1714495
1.172122
1.1727776
1.1734165
1.174039
1.1746454
1.1752359
1.1758107
1.1763703
1.1769147
1.1774444
1.1779595
1.1784604
1.1789472
1.1794203
1.17988
1.1803265
1.18076
1.1811809
1.1815894
1.1819857
1.1823701
1.1827429
1.1831043
1.1834546
1.183794
1.1841228
1.1844412
1.1847495
1.1850479
1.1853366
1.1856159
1.185886
1.1861471
1.1863995
1.1866435
1.1868791
1.1871066
1.1873263
1.1875383
1.187743
1.1879403
1.1881307
1.1883142
1.1884911
1.1886616
1.1888257
1.1889839
1.1891361
1.1892826
1.1894236
1.1895592
1.1896896
1.1898149
1.1899354
1.1900512
1.1901624
1.1902691
1.1903716
1.19047
1.1905643
1.1906548
1.1907416
1.1908248
1.1909045
1.1909809
1.191054
1.191124
1.191191
1.1912551
1.1913165
1.1913751
1.1914312
1.1914848
1.1915359
1.1915848
1.1916315
1.1916761
1.1917186
1.1917591
1.1917978
1.1918347
1.1918698
1.1919033
1.1919352
1.1919655
1.1919944
1.1920219
1.1920481
1.1920729
1.1920966
1.192119
1.1921404
1.1921606
1.1921799
1.1921981
1.1922154
1.1922318
1.1922474
1.1922622
1.1922761
1.1922894
1.1923019
1.1923138
1.192325
1.1923356
1.1923456
1.1923551
1.192364
1.1923724
1.1923804
1.1923879
1.192395
1.1924017
1.192408
1.1924139
1.1924194
1.1924247
1.1924296
1.1924343
1.1924386
1.1924427
1.1924465
1.1924502
1.1924535
1.1924567
1.1924597
1.1924625
1.1924651
1.1924676
1.1924699
1.192472
1.1924741
1.192476
1.1924778
1.1924795
1.1924811
1.1924826
1.192484
1.1924853
1.1924866
1.1924878
1.192489
1.1924901
1.1924911
1.1924921
1.1924931
1.192494
1.1924949
1.1924958
1.1924967
1.1924975
1.1924983
1.192499
1.1924998
1.1925005
1.1925012
1.1925018
1.1925024
1.1925029
1.1925034
1.1925038
1.1925042
1.1925045
1.1925049
1.1925052
1.1925054
1.1925058
1.1925061
1.1925064
1.1925069
1.1925074
1.192508
1.1925085
1.1925092
1.19251
1.1925108
1.1925116
1.1925124
1.1925133
1.1925142
1.1925151
1.192516
1.1925169
1.1925177
1.1925186
1.1925194
1.1925203
1.1925212
1.192522
1.1925228
1.1925237
1.1925245
1.1925253
1.1925261
1.1925269
1.1925277
1.1925285
1.1925293
1.1925301
1.1925308
1.1925315
1.1925323
1.192533
1.1925336
1.1925343
1.1925349
1.1925355
1.192536
1.1925366
1.192537
1.1925374
1.1925378
1.1925381
1.1925385
1.1925387
1.1925389
1.1925391
1.1925394
1.1925396
1.1925398
1.1925401
1.1925405
1.1925408
1.1925411
1.1925415
1.192542
1.1925425
1.1925429
1.1925434
1.1925439
1.1925444
1.1925448
1.1925453
1.1925458
1.1925463
1.1925468
1.1925473
1.1925478
1.1925482
1.1925486
1.192549
1.1925493
1.1925496
1.1925498
1.19255
1.1925503
1.1925507
1.192551
1.1925512
1.1925515
1.1925518
1.1925521
1.1925525
1.192553
1.1925534
1.1925539
1.1925545
1.1925551
1.1925557
1.1925563
1.1925568
1.1925573
1.1925578
1.1925582
1.1925586
1.192559
1.1925594
1.1925598
1.1925601
1.1925605
1.1925608
1.1925611
1.1925615
1.1925618
1.1925621
1.1925624
1.1925627
1.192563
1.1925633
1.1925635
1.1925638
1.1925641
1.1925644
1.1925647
1.1925649
1.1925652
1.1925654
1.1925657
1.1925659
1.1925661
1.1925664
1.1925666
1.1925668
1.1925669
1.1925671
1.1925671
1.1925672
1.1925673
1.1925673
1.1925672
1.1925672
1.1925672
1.1925672
1.1925673
1.1925674
1.1925676
1.1925678
1.192568
1.1925683
1.1925686
1.192569
1.1925695
1.1925699
1.1925703
1.1925707
1.1925712
1.1925717
1.1925721
1.1925725
1.1925729
1.1925732
1.1925736
1.1925739
1.1925742
1.1925745
1.1925748
1.1925751
1.1925753
1.1925756
1.1925758
1.1925761
1.1925763
1.1925766
1.1925768
1.192577
1.1925773
1.1925775
1.1925777
1.1925779
1.192578
1.1925782
1.1925784
1.1925785
1.1925786
1.1925787
1.1925788
1.1925789
1.1925789
1.1925791
1.1925792
1.1925792
1.1925793
1.1925794
1.1925794
1.1925795
1.1925795
1.1925796
1.1925796
1.1925796
1.1925796
1.1925796
1.1925795
1.1925794
1.1925793
1.1925792
1.1925791
1.192579
1.1925789
1.1925788
1.1925787
1.1925787
1.1925786
1.1925785
1.1925784
1.1925784
1.1925783
1.1925782
1.1925782
1.1925781
1.1925781
1.1925782
1.1925782
1.1925783
1.1925784
1.1925785
1.1925786
1.1925787
1.1925788
1.1925788
1.1925789
1.192579
1.1925791
1.1925791
1.1925792
1.1925792
1.1925793
1.1925793
1.1925793
1.1925793
1.1925793
1.1925792
1.1925792
1.1925792
1.1925791
1.1925791
1.1925791
1.1925791
1.1925791
1.1925791
1.192579
1.192579
1.192579
1.1925791
1.1925791
1.1925791
1.1925791
1.1925791
1.1925791
1.192579
1.192579
1.192579
1.192579
1.1925789
1.1925789
1.1925788
1.1925788
1.1925787
1.1925786
1.1925785
1.1925784
1.1925783
1.1925782
1.1925781
1.192578
1.1925779
1.1925778
1.1925776
1.1925775
1.1925773
1.1925772
1.1925771
1.192577
1.1925768
1.1925767
1.1925766
1.1925765
1.1925763
1.1925762
1.1925761
1.192576
1.1925759
1.1925758
1.1925758
1.1925757
1.1925756
1.1925755
1.1925755
1.1925754
1.1925753
1.1925753
1.1925752
1.1925752
1.1925751
1.192575
1.192575
1.1925749
1.1925748
1.1925748
1.1925747
1.1925746
1.1925745
1.1925744
1.1925743
1.1925742
1.1925741
1.192574
1.1925739
1.1925738
1.1925737
1.1925735
1.1925734
1.1925733
1.1925731
1.192573
1.1925728
1.1925727
1.1925725
1.1925723
1.1925721
1.192572
1.1925718
1.1925716
1.1925714
1.1925712
1.192571
1.1925708
1.1925706
1.1925704
1.1925702
1.19257
1.1925697
1.1925695
1.1925693
1.1925691
1.1925689
1.1925687
1.1925685
1.1925682
1.192568
1.1925678
1.1925676
1.1925674
1.1925672
1.192567
1.1925668
1.1925666
1.1925664
1.1925662
1.1925661
1.1925659
1.1925657
1.1925655
1.1925654
1.1925652
1.1925651
1.1925649
1.1925648
1.1925646
1.1925645
1.1925644
1.1925642
1.1925641
1.192564
1.1925638
1.1925637
1.1925636
1.1925635
1.1925634
1.1925632
1.1925631
1.192563
1.1925629
1.1925628
1.1925627
1.1925626
1.1925625
1.1925624
1.1925623
1.1925621
1.192562
1.192562
1.1925619
1.1925618
1.1925617
1.1925616
1.1925615
1.1925614
1.1925614
1.1925613
1.1925612
1.1925611
1.1925611
1.192561
1.1925609
1.1925609
1.1925608
1.1925608
1.1925607
1.1925607
1.1925606
1.1925606
1.1925606
1.1925605
1.1925605
1.1925605
1.1925604
1.1925604
1.1925604
1.1925604
1.1925603
1.1925603
1.1925603
1.1925602
1.1925602
1.1925602
1.1925602
1.1925601
1.1925601
1.1925601
1.19256
1.19256
1.19256
1.1925599
1.1925599
1.1925599
1.1925598
1.1925598
1.1925598
1.1925597
1.1925597
1.1925596
1.1925596
1.1925595
1.1925595
1.1925594
1.1925593
1.1925593
1.1925592
1.1925591
1.192559
1.1925589
1.1925589
1.1925588
1.1925587
1.1925586
1.1925585
1.1925584
1.1925584
1.1925582
1.1925581
1.192558
1.1925579
1.1925578
1.1925577
1.1925576
1.1925574
1.1925573
1.1925572
1.1925571
1.1925569
1.1925568
1.1925567
1.1925565
1.1925564
1.1925563
1.1925561
1.192556
1.1925558
1.1925557
1.1925556
1.1925554
1.1925553
1.1925551
1.192555
1.1925548
1.1925547
1.1925545
1.1925544
1.1925543
1.1925541
1.192554
1.1925539
1.1925537
1.1925536
1.1925535
1.1925533
1.1925532
1.1925531
1.192553
1.1925529
1.1925528
1.1925527
1.1925526
1.1925525
1.1925524
1.1925523
1.1925522
1.1925521
1.192552
1.192552
1.1925519
1.1925518
1.1925517
1.1925517
1.1925516
1.1925516
1.1925515
1.1925514
1.1925514
1.1925513
1.1925513
1.1925512
1.1925512
1.1925511
1.1925511
1.192551
1.192551
1.1925509
1.1925509
1.1925508
1.1925508
1.1925507
1.1925507
1.1925506
1.1925506
1.1925505
1.1925505
1.1925504
1.1925503
1.1925503
1.1925502
1.1925501
1.1925501
1.19255
1.1925499
1.1925498
1.1925498
1.1925497
1.1925496
1.1925495
1.1925494
1.1925494
1.1925493
1.1925492
1.1925491
1.192549
1.1925489
1.1925488
1.1925487
1.1925486
1.1925485
1.1925484
1.1925483
1.1925482
1.1925481
1.192548
1.1925479
1.1925478
1.1925477
1.1925476
1.1925476
1.1925475
1.1925474
1.1925473
1.1925472
1.1925471
1.192547
1.1925469
1.1925468
1.1925468
1.1925467
1.1925466
1.1925465
1.1925464
1.1925464
1.1925463
1.1925462
1.1925462
1.1925461
1.192546
1.192546
1.1925459
1.1925458
1.1925458
1.1925457
1.1925457
1.1925456
1.1925455
1.1925455
1.1925454
1.1925454
1.1925453
1.1925453
1.1925452
1.1925452
1.1925451
1.1925451
1.192545
1.192545
1.192545
1.1925449
1.1925449
1.1925448
1.1925448
1.1925447
1.1925447
1.1925447
1.1925446
1.1925446
1.1925446
1.1925445
1.1925445
1.1925444
1.1925444
1.1925443
1.1925443
1.1925443
1.1925442
1.1925442
1.1925441
1.1925441
1.1925441
1.192544
1.192544
1.1925439
1.1925439
1.1925438
1.1925438
1.1925437
1.1925437
1.1925436
1.1925436
1.1925435
1.1925435
1.1925434
1.1925434
1.1925433
1.1925433
1.1925432
1.1925431
1.1925431
1.192543
1.192543
1.1925429
1.1925428
1.1925428
1.1925427
1.1925426
1.1925426
1.1925425
1.1925424
1.1925424
1.1925423
1.1925422
1.1925421
1.1925421
1.192542
1.1925419
1.1925418
1.1925418
1.1925417
1.1925416
1.1925415
1.1925415
1.1925414
1.1925413
1.1925412
1.1925411
1.1925411
1.192541
1.1925409
1.1925408
1.1925408
1.1925407
1.1925406
1.1925405
1.1925405
1.1925404
1.1925403
1.1925402
1.1925401
1.1925401
1.19254
1.1925399
1.1925398
1.1925397
1.1925397
1.1925396
1.1925395
1.1925394
1.1925394
1.1925393
1.1925392
1.1925391
1.1925391
1.192539
1.1925389
1.1925389
1.1925388
1.1925387
1.1925387
1.1925386
1.1925385
1.1925384
1.1925384
1.1925383
1.1925382
1.1925382
1.1925381
1.192538
1.192538
1.1925379
1.1925378
1.1925378
1.1925377
1.1925376
1.1925376
1.1925375
1.1925374
1.1925374
1.1925373
1.1925373
1.1925372
1.1925371
1.1925371
1.192537
1.1925369
1.1925369
1.1925368
1.1925368
1.1925367
1.1925366
1.1925366
1.1925365
1.1925364
1.1925364
1.1925363
1.1925362
1.1925362
1.1925361
1.1925361
1.192536
1.1925359
1.1925359
1.1925358
1.1925357
1.1925357
1.1925356
1.1925355
1.1925354
1.1925354
1.1925353
1.1925353
1.1925352
1.1925351
1.1925351
1.192535
1.1925349
1.1925349
1.1925348
1.1925347
1.1925347
1.1925346
1.1925345
1.1925345
1.1925344
1.1925343
1.1925343
1.1925342
1.1925342
1.1925341
1.192534
1.192534
1.1925339
1.1925339
1.1925338
1.1925337
1.1925337
1.1925336
1.1925336
1.1925335
1.1925335
1.1925334
1.1925334
1.1925333
1.1925333
1.1925332
1.1925332
1.1925331
1.192533
1.192533
1.1925329
1.1925329
1.1925328
1.1925328
1.1925327
1.1925327
1.1925326
1.1925326
1.1925326
1.1925325
1.1925325
1.1925324
1.1925324
1.1925323
1.1925323
1.1925322
1.1925322
1.1925321
1.1925321
1.192532
1.192532
1.1925319
1.1925319
1.1925318
1.1925318
1.1925317
1.1925317
1.1925316
1.1925316
1.1925316
1.1925315
1.1925315
1.1925314
1.1925314
1.1925313
1.1925312
1.1925312
1.1925311
1.1925311
1.192531
1.192531
1.1925309
1.1925309
1.1925308
1.1925308
1.1925307
1.1925306
1.1925306
1.1925305
1.1925305
1.1925304
1.1925303
1.1925303
1.1925302
1.1925301
1.1925301
1.19253
1.1925299
1.1925299
1.1925298
1.1925297
1.1925297
1.1925296
1.1925295
1.1925295
1.1925294
1.1925293
1.1925293
1.1925292
1.1925291
1.192529
1.192529
1.1925289
1.1925288
1.1925287
1.1925287
1.1925286
1.1925285
1.1925284
1.1925284
1.1925283
1.1925282
1.1925281
1.1925281
1.192528
1.1925279
1.1925278
1.1925278
1.1925277
1.1925276
1.1925276
1.1925275
1.1925274
1.1925273
1.1925273
1.1925272
1.1925271
1.192527
1.192527
1.1925269
1.1925268
1.1925268
1.1925267
1.1925266
1.1925266
1.1925265
1.1925264
1.1925264
1.1925263
1.1925262
1.1925262
1.1925261
1.192526
1.192526
1.1925259
1.1925258
1.1925258
1.1925257
1.1925256
1.1925256
1.1925255
1.1925255
1.1925254
1.1925253
1.1925253
1.1925252
1.1925252
1.1925251
1.192525
1.192525
1.1925249
1.1925249
1.1925248
1.1925248
1.1925247
1.1925246
1.1925246
1.1925245
1.1925245
1.1925244
1.1925244
1.1925243
1.1925242
1.1925242
1.1925241
1.1925241
1.192524
1.192524
1.1925239
1.1925239
1.1925238
1.1925237
1.1925237
1.1925236
1.1925236
1.1925235
1.1925235
1.1925234
1.1925234
1.1925233
1.1925233
1.1925232
1.1925232
1.1925231
1.1925231
1.192523
1.192523
1.1925229
1.1925229
1.1925228
1.1925228
1.1925227
1.1925227
1.1925226
1.1925226
1.1925225
1.1925225
1.1925224
1.1925224
1.1925223
1.1925223
1.1925222
1.1925222
1.1925221
1.1925221
1.192522
1.192522
1.1925219
1.1925219
1.1925218
1.1925218
1.1925217
1.1925217
1.1925216
1.1925216
1.1925215
1.1925215
1.1925214
1.1925214
1.1925213
1.1925212
1.1925212
1.1925211
1.1925211
1.192521
1.192521
1.1925209
1.1925209
1.1925208
1.1925207
1.1925207
1.1925206
1.1925206
1.1925205
1.1925205
1.1925204
1.1925203
1.1925203
1.1925202
1.1925202
1.1925201
1.1925201
1.19252
1.1925199
1.1925199
1.1925198
1.1925198
1.1925197
1.1925197
1.1925196
1.1925196
1.1925195
1.1925195
1.1925194
1.1925194
1.1925193
1.1925193
1.1925192
1.1925192
1.1925191
1.1925191
1.192519
1.192519
1.1925189
1.1925189
1.1925189
1.1925188
1.1925188
1.1925187
1.1925187
1.1925186
1.1925186
1.1925185
1.1925185
1.1925185
1.1925184
1.1925184
1.1925183
1.1925183
1.1925183
1.1925182
1.1925182
1.1925182
1.1925181
1.1925181
1.1925181
1.192518
1.192518
1.192518
1.1925179
1.1925179
1.1925179
1.1925178
1.1925178
1.1925178
1.1925177
1.1925177
1.1925177
1.1925176
1.1925176
1.1925176
1.1925175
1.1925175
1.1925174
1.1925174
1.1925174
1.1925173
1.1925173
1.1925173
1.1925172
1.1925172
1.1925171
1.1925171
1.1925171
1.192517
1.192517
1.1925169
1.1925169
1.1925169
1.1925168
1.1925168
1.1925167
1.1925167
1.1925167
1.1925166
1.1925166
1.1925165
1.1925165
1.1925164
1.1925164
1.1925163
1.1925163
1.1925162
1.1925162
1.1925162
1.1925161
1.1925161
1.192516
1.192516
1.1925159
1.1925159
1.1925158
1.1925158
1.1925157
1.1925157
1.1925156
1.1925156
1.1925155
1.1925155
1.1925154
1.1925154
1.1925153
1.1925152
1.1925152
1.1925151
1.1925151
1.192515
1.192515
1.1925149
1.1925149
1.1925148
1.1925147
1.1925147
1.1925146
1.1925146
1.1925145
1.1925145
1.1925144
1.1925143
1.1925143
1.1925142
1.1925142
1.1925141
1.192514
1.192514
1.1925139
1.1925139
1.1925138
1.1925137
1.1925137
1.1925136
1.1925136
1.1925135
1.1925134
1.1925134
1.1925133
1.1925133
1.1925132
1.1925131
1.1925131
1.192513
1.1925129
1.1925129
1.1925128
1.1925128
1.1925127
1.1925126
1.1925126
1.1925125
1.1925124
1.1925124
1.1925123
1.1925122
1.1925122
1.1925121
1.192512
1.192512
1.1925119
1.1925119
1.1925118
1.1925117
1.1925116
1.1925116
1.1925115
1.1925114
1.1925114
1.1925113
1.1925113
1.1925112
1.1925111
1.1925111
1.192511
1.1925109
1.1925109
1.1925108
1.1925107
1.1925107
1.1925106
1.1925105
1.1925105
1.1925104
1.1925103
1.1925103
1.1925102
1.1925101
1.1925101
1.19251
1.1925099
1.1925099
1.1925098
1.1925097
1.1925097
1.1925096
1.1925095
1.1925095
1.1925094
1.1925093
1.1925093
1.1925092
1.1925092
1.1925091
1.192509
1.192509
1.1925089
1.1925088
1.1925088
1.1925087
1.1925087
1.1925086
1.1925085
1.1925085
1.1925084
1.1925083
1.1925083
1.1925082
1.1925082
1.1925081
1.1925081
1.192508
1.1925079
1.1925079
1.1925078
1.1925078
1.1925077
1.1925076
1.1925076
1.1925075
1.1925075
1.1925074
1.1925073
1.1925073
1.1925072
1.1925072
1.1925071
1.1925071
1.192507
1.1925069
1.1925069
1.1925068
1.1925068
1.1925067
1.1925067
1.1925066
1.1925066
1.1925065
1.1925065
1.1925064
1.1925063
1.1925063
1.1925062
1.1925062
1.1925061
1.1925061
1.192506
1.1925059
1.1925059
1.1925058
1.1925058
1.1925057
1.1925057
1.1925056
1.1925056
1.1925055
1.1925055
1.1925054
1.1925054
1.1925053
1.1925052
1.1925052
1.1925051
1.192505
1.192505
1.1925049
1.1925049
1.1925048
1.1925048
1.1925047
1.1925046
1.1925046
1.1925045
1.1925045
1.1925044
1.1925044
1.1925043
1.1925042
1.1925042
1.1925041
1.192504
1.192504
1.1925039
1.1925039
1.1925038
1.1925037
1.1925037
1.1925036
1.1925035
1.1925035
1.1925034
1.1925033
1.1925033
1.1925032
1.1925032
1.1925031
1.192503
1.192503
1.1925029
1.1925028
1.1925028
1.1925027
1.1925026
1.1925026
1.1925025
1.1925024
1.1925023
1.1925023
1.1925022
1.1925021
1.1925021
1.192502
1.1925019
1.1925019
1.1925018
1.1925017
1.1925017
1.1925016
1.1925015
1.1925015
1.1925014
1.1925013
1.1925012
1.1925012
1.1925011
1.192501
1.192501
1.1925009
1.1925008
1.1925008
1.1925007
1.1925006
1.1925006
1.1925005
1.1925004
1.1925004
1.1925003
1.1925002
1.1925002
1.1925001
1.1925
1.1925
1.1924999
1.1924998
1.1924998
1.1924997
1.1924996
1.1924996
1.1924995
1.1924994
1.1924994
1.1924993
1.1924992
1.1924992
1.1924991
1.192499
1.192499
1.1924989
1.1924988
1.1924988
1.1924987
1.1924986
1.1924986
1.1924985
1.1924984
1.1924984
1.1924983
1.1924982
1.1924982
1.1924981
1.1924981
1.192498
1.1924979
1.1924979
1.1924978
1.1924977
1.1924976
1.1924976
1.1924975
1.1924974
1.1924974
1.1924973
1.1924972
1.1924972
1.1924971
1.192497
1.192497
1.1924969
1.1924968
1.1924968
1.1924967
1.1924966
1.1924966
1.1924965
1.1924964
1.1924963
1.1924963
1.1924962
1.1924961
1.1924961
1.192496
1.1924959
1.1924959
1.1924958
1.1924957
1.1924957
1.1924956
1.1924955
1.1924954
1.1924954
1.1924953
1.1924952
1.1924951
1.1924951
1.192495
1.1924949
1.1924948
1.1924947
1.1924947
1.1924946
1.1924945
1.1924944
1.1924943
1.1924943
1.1924942
1.1924941
1.192494
1.192494
1.1924939
1.1924938
1.1924937
1.1924936
1.1924936
1.1924935
1.1924934
1.1924933
1.1924932
1.1924931
1.1924931
1.192493
1.1924929
1.1924928
1.1924927
1.1924926
1.1924925
1.1924924
1.1924923
1.1924923
1.1924922
1.1924921
1.192492
1.1924919
1.1924918
1.1924917
1.1924916
1.1924915
1.1924914
1.1924913
1.1924913
1.1924912
1.1924911
1.192491
1.1924909
1.1924908
1.1924907
1.1924906
1.1924905
1.1924904
1.1924903
1.1924902
1.1924901
1.19249
1.1924899
1.1924898
1.1924897
1.1924896
1.1924895
1.1924894
1.1924893
1.1924893
1.1924892
1.1924891
1.192489
1.1924889
1.1924888
1.1924886
1.1924885
1.1924884
1.1924883
1.1924882
1.1924881
1.192488
1.1924879
1.1924878
1.1924878
1.1924877
1.1924876
1.1924875
1.1924874
1.1924872
1.1924871
1.192487
1.1924869
1.1924868
1.1924867
1.1924866
1.1924865
1.1924864
1.1924863
1.1924862
1.1924861
1.192486
1.1924859
1.1924858
1.1924857
1.1924856
1.1924855
1.1924854
1.1924853
1.1924852
1.1924851
1.192485
1.1924849
1.1924848
1.1924847
1.1924846
1.1924845
1.1924844
1.1924842
1.1924841
1.192484
1.1924839
1.1924838
1.1924837
1.1924836
1.1924835
1.1924834
1.1924833
1.1924831
1.192483
1.1924829
1.1924828
1.1924827
1.1924826
1.1924824
1.1924823
1.1924822
1.1924821
1.192482
1.1924819
1.1924818
1.1924816
1.1924815
1.1924814
1.1924813
1.1924812
1.1924811
1.1924809
1.1924808
1.1924807
1.1924806
1.1924805
1.1924803
1.1924802
1.1924801
1.19248
1.1924798
1.1924797
1.1924796
1.1924794
1.1924793
1.1924792
1.192479
1.1924789
1.1924788
1.1924786
1.1924785
1.1924783
1.1924782
1.1924781
1.1924779
1.1924778
1.1924777
1.1924775
1.1924774
1.1924772
1.1924771
1.1924769
1.1924768
1.1924766
1.1924765
1.1924763
1.1924762
1.192476
1.1924759
1.1924757
1.1924756
1.1924754
1.1924752
1.1924751
1.1924749
1.1924747
1.1924746
1.1924744
1.1924742
1.1924741
1.1924739
1.1924738
1.1924736
1.1924735
1.1924733
1.1924731
1.192473
1.1924728
1.1924726
1.1924724
1.1924723
1.1924721
1.1924719
1.1924717
1.1924715
1.1924713
1.1924712
1.192471
1.1924708
1.1924706
1.1924704
1.1924702
1.19247
1.1924698
1.1924696
1.1924694
1.1924692
1.192469
1.1924688
1.1924686
1.1924684
1.1924682
1.192468
1.1924678
1.1924676
1.1924674
1.1924672
1.192467
1.1924668
1.1924665
1.1924663
1.1924661
1.1924659
1.1924656
1.1924654
1.1924652
1.192465
1.1924648
1.1924645
1.1924643
1.1924641
1.1924638
1.1924636
1.1924634
1.1924631
1.1924629
1.1924626
1.1924624
1.1924621
1.1924618
1.1924616
1.1924613
1.1924611
1.1924608
1.1924605
1.1924602
1.19246
1.1924597
1.1924594
1.1924591
1.1924589
1.1924586
1.1924583
1.192458
1.1924577
1.1924574
1.1924571
1.1924568
1.1924565
1.1924562
1.1924559
1.1924556
1.1924553
1.192455
1.1924547
1.1924543
1.192454
1.1924536
1.1924533
1.1924529
1.1924526
1.1924522
1.1924518
1.1924515
1.1924511
1.1924507
1.1924503
1.19245
1.1924496
1.1924492
1.1924488
1.1924484
1.192448
1.1924476
1.1924472
1.1924467
1.1924463
1.1924459
1.1924454
1.192445
1.1924445
1.1924441
1.1924436
1.1924431
1.1924426
1.1924422
1.1924417
1.1924412
1.1924407
1.1924402
1.1924397
1.1924392
1.1924387
1.1924382
1.1924377
1.1924372
1.1924367
1.1924361
1.1924356
1.1924351
1.1924346
1.1924341
1.1924336
1.1924332
1.1924327
1.1924323
1.1924319
1.1924315
1.1924311
1.1924307
1.1924304
1.1924301
1.1924299
1.1924297
1.1924295
1.1924293
1.1924292
1.1924291
1.1924291
1.1924291
1.192429
1.192429
1.1924291
1.1924292
1.1924293
1.1924295
1.1924296
1.1924297
1.1924298
1.1924299
1.1924299
1.19243
1.1924299
1.1924299
1.1924299
1.1924298
1.1924295
1.192429
1.1924283
1.1924276
1.1924267
1.1924258
1.1924249
1.1924239
1.1924228
1.1924218
1.1924206
1.1924194
1.1924182
1.1924169
1.1924157
1.1924144
1.1924132
1.1924121
1.1924111
1.1924101
1.1924093
1.1924086
1.192408
1.1924075
1.192407
1.1924066
1.1924062
1.1924057
1.1924053
1.1924048
1.1924043
1.1924037
1.1924029
1.1924019
1.1924002
1.1923964
1.1923867
1.1923619
1.1922982
1.1921365
1.1917267
1.1907041
1.1882853
1.1850415
1.1811804
1.1768569
1.1722402
1.1675038
1.1628109
1.1583029
1.1540914
1.1502561
1.1468444
1.1438752
1.1413437
1.1392267
1.1374887
1.1360867
1.1349748
1.1341072
1.133441
1.1329373
1.1325624
1.1322876
1.1320895
1.131949
1.1318512
1.1317845
1.1317403
1.1317119
1.1316945
1.1316846
1.1316797
1.1316778
1.1316775
1.1316779
1.1316806
1.1316845
1.1316881
1.1316913
1.1316942
1.1316968
1.1316992
1.1317014
1.1317034
1.1317053
1.131707
1.1317087
1.1317102
1.1317117
1.1317131
1.1317144
1.1317157
1.1317169
1.1317181
1.1317193
1.1317205
1.1317218
1.1317231
1.1317244
1.1317258
1.1317273
1.1317288
1.1317305
1.1317322
1.131734
1.1317358
1.1317377
1.1317396
1.1317415
1.1317434
1.1317453
1.1317472
1.1317491
1.1317509
1.1317526
1.1317543
1.1317559
1.1317575
1.1317589
1.1317603
1.1317616
1.1317629
1.131764
1.1317651
1.1317662
1.1317672
1.1317681
1.131769
1.1317698
1.1317706
1.1317714
1.1317721
1.1317728
1.1317735
1.1317741
1.1317748
1.1317754
1.131776
1.1317765
1.1317771
1.1317776
1.1317782
1.1317787
1.1317792
1.1317797
1.1317801
1.1317806
1.1317811
1.1317815
1.1317819
1.1317824
1.1317828
1.1317832
1.1317836
1.131784
1.1317844
1.1317848
1.1317852
1.1317856
1.1317859
1.1317863
1.1317867
1.131787
1.1317873
1.1317877
1.131788
1.1317883
1.1317887
1.131789
1.1317893
1.1317896
1.1317899
1.1317902
1.1317905
1.1317908
1.1317911
1.1317914
1.1317917
1.131792
1.1317923
1.1317925
1.1317928
1.1317931
1.1317933
1.1317936
1.1317938
1.1317941
1.1317943
1.1317946
1.1317948
1.131795
1.1317953
1.1317955
1.1317957
1.1317959
1.1317962
1.1317964
1.1317966
1.1317968
1.131797
1.1317972
1.1317974
1.1317977
1.1317979
1.1317981
1.1317983
1.1317985
1.1317987
1.1317989
1.131799
1.1317992
1.1317994
1.1317996
1.1317998
1.1317999
1.1318001
1.1318003
1.1318005
1.1318006
1.1318008
1.131801
1.1318011
1.1318013
1.1318014
1.1318016
1.1318018
1.1318019
1.1318021
1.1318022
1.1318024
1.1318025
1.1318027
1.1318028
1.131803
1.1318031
1.1318032
1.1318034
1.1318035
1.1318036
1.1318038
1.1318039
1.131804
1.1318041
1.1318043
1.1318044
1.1318045
1.1318046
1.1318047
1.1318049
1.131805
1.1318051
1.1318052
1.1318053
1.1318054
1.1318055
1.1318057
1.1318058
1.1318059
1.131806
1.1318061
1.1318062