/*--------------------------------*- C++ -*----------------------------------*\
  =========                 |
  \\      /  F ield         | OpenFOAM: The Open Source CFD Toolbox
   \\    /   O peration     | Website:  https://openfoam.org
    \\  /    A nd           | Version:  7
     \\/     M anipulation  |
\*---------------------------------------------------------------------------*/
FoamFile
{
    version     2.0;
    format      ascii;
    class       volScalarField;
    location    "0.00126";
    object      Uy;
}
// * * * * * * * * * * * * * * * * * * * * * * * * * * * * * * * * * * * * * //

dimensions      [0 1 -1 0 0 0 0];

internalField   nonuniform List<scalar> 
5000
(
-2.2679924e-20
-2.6937265e-20
0
0
1.5451082e-20
-1.8455059e-35
-1.7061991e-20
0
0
1.9849002e-20
4.1771916e-20
-2.1981054e-20
-2.3136981e-20
2.4356564e-20
0
2.6998688e-20
-1.129528e-48
-2.993285e-20
0
-3.3186904e-20
3.4943303e-20
3.6791313e-20
-7.7470369e-20
4.0779354e-20
4.2928455e-20
3.7244728e-34
-4.7561005e-20
-5.0054767e-20
1.053482e-19
-9.60912e-34
1.0192669e-33
-6.1344009e-20
-1.2905072e-19
1.3572686e-19
-1.2372767e-33
6.5260998e-33
2.7354607e-33
-1.6585586e-19
1.74322e-19
1.8319504e-19
-1.9249282e-19
6.9548784e-33
2.1243758e-19
-1.1156194e-19
-3.5147043e-19
1.2301422e-19
1.291454e-19
9.2854988e-33
2.8455229e-19
0
-1.5664772e-19
-2.3352939e-35
1.7236632e-19
-3.6153226e-19
6.6262887e-33
3.9744419e-19
-2.0831003e-19
7.5393412e-33
2.2878958e-19
0
-2.511261e-19
-8.9711747e-33
-7.8293558e-35
-2.8844672e-19
3.0198618e-19
-1.1050843e-32
-3.3084499e-19
3.4621061e-19
3.6223249e-19
-3.7893573e-19
-3.9634623e-19
4.1449074e-19
4.3339685e-19
-9.0618611e-19
-4.7360872e-19
4.9497417e-19
0
-5.4038029e-19
8.0218337e-35
5.8957304e-19
-6.1567552e-19
1.827033e-34
-1.9073072e-34
-7.004459e-19
-7.3098511e-19
-2.6555743e-32
7.9572948e-19
0
8.6564651e-19
9.3640851e-32
3.289945e-32
-9.8101038e-19
-1.0224523e-18
2.1309418e-18
7.6827788e-32
-1.1564469e-18
0
0
1.3060751e-18
9.4293058e-32
-2.8305435e-18
1.4728837e-18
3.0651768e-18
0
-1.6585352e-18
-1.7249107e-18
1.7936459e-18
1.8648113e-18
0
0
-2.0936167e-18
-2.1752389e-18
0
2.3469817e-18
-8.5203573e-32
-2.5305962e-18
2.627064e-18
-7.7498997e-34
9.8924477e-32
-5.2054778e-48
-6.0920769e-18
1.3469798e-33
3.2766567e-18
0
3.5223675e-18
-3.6511269e-18
-3.7839559e-18
7.8419127e-18
4.0622318e-18
-8.4157745e-18
-4.3580292e-18
4.5127655e-18
4.6722056e-18
4.8364601e-18
0
-5.1798625e-18
-5.3592385e-18
5.5438855e-18
1.9882075e-31
-5.9294624e-18
6.1306305e-18
6.3375457e-18
0
-6.7691057e-18
-6.9939973e-18
7.2251292e-18
-7.4626271e-18
4.3807048e-33
7.9572273e-18
-8.2145847e-18
8.478818e-18
-6.0929432e-31
-9.0284293e-18
9.3140668e-18
-9.6070991e-18
-9.9076568e-18
1.0215871e-17
0
0
1.1187759e-17
1.1527906e-17
-1.1876364e-17
-1.2233262e-17
1.2598731e-17
8.9965717e-31
-1.3355895e-17
1.3747847e-17
1.4148883e-17
0
-1.4978711e-17
-1.5407752e-17
0
1.6294704e-17
1.6752857e-17
0
-1.7699114e-17
-3.7838429e-30
1.8686077e-17
-1.9195107e-17
-1.971465e-17
2.0244812e-17
1.4355593e-30
-1.4675991e-30
-9.3365591e-33
-2.2473739e-17
2.3058536e-17
3.2808372e-30
-1.6687442e-30
1.7112993e-30
-2.551076e-17
0
0
2.7470953e-17
2.8147809e-17
0
0
-3.0249682e-17
3.5141051e-47
3.1710931e-17
0
-3.3220649e-17
3.3993788e-17
9.6377115e-30
-7.11536e-17
3.6386728e-17
7.7253475e-30
5.4063113e-33
3.8890439e-17
-3.9749692e-17
5.772633e-33
5.7448951e-30
-2.9344768e-30
4.3310144e-17
0
-4.5164282e-17
-3.1911116e-30
-1.3063008e-29
-4.8037354e-17
0
5.0013544e-17
5.101974e-17
0
0
0
-5.5163794e-17
-3.8914516e-30
5.730638e-17
0
0
-6.0606564e-17
-6.1729252e-17
6.2863078e-17
6.4007928e-17
0
-6.6330227e-17
-6.7507426e-17
6.869515e-17
6.9893263e-17
0
-7.2320085e-17
2.0422955e-29
5.1863814e-30
-7.6034561e-17
7.7291888e-17
7.8558524e-17
0
-8.1119037e-17
1.1453876e-29
-8.3714687e-17
-1.1792825e-29
1.72688e-16
-8.7670808e-17
1.2344873e-29
3.1366131e-29
6.3460935e-30
9.3054413e-17
-9.4418391e-17
-9.5789182e-17
0
9.8550348e-17
9.9940288e-17
0
-1.0273778e-16
-1.0414489e-16
2.1111453e-16
1.0697469e-16
-1.0839692e-16
-1.0982374e-16
-3.0861652e-29
1.1269018e-16
-1.1412934e-16
8.0148096e-30
1.1701836e-16
-1.1846775e-16
8.3333744e-30
-8.4517328e-30
3.4911104e-32
8.5842102e-30
-1.2575385e-16
0
0
1.3014824e-16
1.3161539e-16
0
0
0
0
-1.3895803e-16
-9.6785503e-30
2.8378776e-16
-6.1118306e-32
-1.4482624e-16
-1.4629053e-16
2.0514069e-29
2.0674494e-29
2.1411932e-32
1.5212974e-16
1.5358393e-16
1.5503542e-16
-3.1296802e-16
-4.737884e-16
1.5937158e-16
3.2162028e-16
0
-1.6367574e-16
-1.6510236e-16
1.6652459e-16
-4.7732051e-32
7.2200407e-32
-4.8533739e-32
-1.7216557e-16
-1.7356285e-16
1.7495455e-16
3.5268098e-16
-1.7772048e-16
6.4688856e-47
-1.804619e-16
-5.0385262e-29
3.663547e-16
0
0
-3.7439766e-16
1.046992e-28
3.7968678e-16
0
-1.924573e-16
-1.9375237e-16
1.9503932e-16
-2.7898464e-32
2.7433162e-29
-2.8258275e-32
-2.0010292e-16
2.0134706e-16
2.0258222e-16
0
-2.0502509e-16
2.8633335e-29
2.0743048e-16
-4.1723761e-16
5.8196935e-29
2.1096614e-16
5.8902865e-29
4.2654718e-16
-4.2882416e-16
-2.1554027e-16
2.1665806e-16
3.0946315e-32
2.1886199e-16
0
0
-2.2208734e-16
3.0949141e-29
4.4836552e-16
-3.20048e-32
-6.787005e-16
2.272419e-16
2.2823888e-16
-4.5844871e-16
2.3019825e-16
-2.3116048e-16
-4.6422197e-16
2.3304968e-16
2.339765e-16
2.3489138e-16
-2.3579424e-16
8.0538513e-47
2.3756366e-16
-2.3843009e-16
2.3928426e-16
-2.4012609e-16
-6.677159e-29
-6.8715887e-32
-2.4257703e-16
4.8673794e-16
-2.441483e-16
-6.8008013e-29
6.8147548e-29
2.4641011e-16
4.9427697e-16
-7.4356199e-16
-6.8948578e-29
1.3827977e-28
-6.9256549e-29
5.0117298e-16
-5.02474e-16
6.9868916e-29
5.0499717e-16
0
0
-2.5429173e-16
3.534895e-29
2.5542055e-16
2.5596486e-16
-2.5649571e-16
-7.7103924e-16
2.5751692e-16
2.5800719e-16
7.3465534e-32
2.5894691e-16
0
-5.1966389e-16
-5.2050773e-16
2.6066201e-16
5.221127e-16
2.6143684e-16
-5.2360691e-16
-5.2431231e-16
5.2498981e-16
5.2563936e-16
0
-5.2685429e-16
2.6370977e-16
5.2795657e-16
-2.6423265e-16
-2.6447283e-16
3.7615962e-32
-3.6780189e-29
-2.6510795e-16
2.6529106e-16
2.6545983e-16
-2.6561421e-16
3.6859556e-29
3.7783775e-32
3.6892363e-29
2.660872e-16
-2.6616915e-16
1.1089287e-28
3.6971612e-29
7.3915949e-29
2.663507e-16
-2.6635934e-16
3.6980468e-29
7.3841336e-29
3.7842665e-32
5.3248412e-16
2.661751e-16
-2.6609319e-16
-5.3199257e-16
3.6915396e-29
5.3151468e-16
2.6561523e-16
-5.3091597e-16
-2.6528557e-16
2.6509795e-16
2.6489508e-16
7.3457906e-29
-2.6444348e-16
0
0
-2.636509e-16
0
2.6304531e-16
-2.6271926e-16
-3.7286108e-32
7.2720637e-29
0
2.6125923e-16
-2.608551e-16
-2.6043527e-16
5.1999939e-16
2.5954836e-16
-2.5908122e-16
0
0
2.5758474e-16
-7.1415351e-29
-2.5650762e-16
0
0
2.5477225e-16
-1.0589963e-28
-2.535353e-16
0
0
0
0
0
0
0
0
-4.9434624e-16
-1.3676275e-28
2.4558202e-16
-2.4476228e-16
2.4392642e-16
-2.4307445e-16
6.7324733e-29
2.4132223e-16
6.6760406e-29
2.3950573e-16
0
0
-2.3666081e-16
-6.5443804e-29
2.3468441e-16
0
0
0
0
0
0
0
-4.5229515e-16
1.8731478e-28
4.4771546e-16
-2.2268983e-16
-3.1477999e-32
-2.203085e-16
1.2148996e-28
4.3573409e-16
2.1662402e-16
6.2873237e-47
-6.4228165e-16
0
4.2301151e-16
0
0
-4.1503401e-16
5.7187812e-29
6.1436525e-16
-2.0340374e-16
-2.020057e-16
2.0059444e-16
-1.9917015e-16
1.9773301e-16
5.4448151e-29
-1.9482091e-16
1.9334633e-16
0
1.9036116e-16
-1.8885099e-16
-3.746588e-16
1.857966e-16
1.8425284e-16
1.8269836e-16
1.8113341e-16
-3.5911647e-16
-1.779731e-16
1.7637828e-16
0
-1.7316068e-16
1.7153846e-16
1.6990768e-16
-5.0480593e-16
-4.7356724e-32
3.2993407e-16
-1.6330508e-16
-2.2441569e-29
-1.5996051e-16
4.498547e-32
3.131812e-16
-1.5489699e-16
0
4.2066934e-29
2.1285842e-32
1.4807315e-16
-1.4635665e-16
4.016273e-29
1.9821826e-29
2.0064002e-32
1.3945978e-16
-1.3772977e-16
-8.4193146e-47
3.7282869e-29
1.8833948e-32
2.6159678e-16
1.7901012e-29
-1.2733155e-16
0
0
1.2213907e-16
5.0102677e-29
-1.1868743e-16
1.1696586e-16
-1.6000995e-29
-3.3199648e-46
1.5525537e-29
-1.1011769e-16
-1.0841726e-16
-1.4802163e-29
1.0503322e-16
0
0
-1.0000539e-16
9.8343931e-17
-8.0492025e-29
-9.5045145e-17
9.3408603e-17
0
-9.0163158e-17
-8.8555016e-17
8.6957091e-17
8.5369751e-17
0
-8.2228262e-17
-8.0674815e-17
1.5826671e-16
7.760422e-17
-7.6087733e-17
-7.4584213e-17
-1.0137983e-29
-7.1617309e-17
-1.9480514e-29
1.3741178e-16
0
0
0
-6.3058339e-17
-6.1684453e-17
0
5.8983913e-17
7.9888083e-30
-5.6347746e-17
0
0
5.2517492e-17
7.1116642e-30
-6.9345216e-30
4.8839914e-17
-4.7648623e-17
1.933788e-29
4.5318562e-17
0
4.3059132e-17
5.8251851e-30
-4.0870894e-17
3.9803603e-17
-3.875424e-17
-3.7722829e-17
3.670938e-17
0
-3.4736356e-17
-3.377675e-17
3.2835046e-17
3.1911198e-17
0
3.0116867e-17
-2.9246252e-17
-2.8393235e-17
2.7557727e-17
5.3479267e-17
-1.4405403e-29
-7.5465753e-17
-3.6523366e-47
2.3639143e-17
4.5812728e-17
-1.2310963e-29
-4.2981252e-17
2.0807358e-17
-2.0140272e-17
1.9489196e-17
1.8853953e-17
-3.6468721e-17
0
0
3.2935145e-17
2.1253529e-46
-3.0728758e-17
0
0
2.7634818e-17
1.8530911e-46
-2.5710874e-17
0
0
2.302399e-17
1.10898e-17
-2.1360056e-17
-1.0282442e-17
0
1.9045781e-17
-5.087351e-30
-1.7618514e-17
8.4690684e-18
0
-7.8207667e-18
7.5121826e-18
-1.0251232e-33
-6.9249777e-18
6.6458922e-18
-6.3761776e-18
-6.115606e-18
5.863949e-18
5.6209834e-18
-1.4957197e-30
-5.1602351e-18
4.9420148e-18
1.3138736e-30
-4.5288047e-18
4.3333914e-18
-4.1451632e-18
-3.9639139e-18
3.7894438e-18
3.6215549e-18
-9.6078734e-31
-3.3047421e-18
3.1554378e-18
-4.2802461e-34
-2.8741113e-18
2.7417283e-18
-2.6146328e-18
-2.4926522e-18
2.3756201e-18
4.526742e-18
-1.1978286e-30
-4.105178e-18
1.9537443e-18
-2.6418906e-34
-3.536808e-18
-4.7794488e-34
1.5985701e-18
0
-1.443148e-18
0
1.3010967e-18
0
0
0
1.05323e-18
2.5896771e-48
-9.4561133e-19
0
-8.477568e-19
2.2276844e-31
7.5889581e-19
0
0
0
6.053275e-19
-1.5869192e-31
-5.3932784e-19
0
-4.7973351e-19
-1.2549477e-31
4.2601407e-19
0
-3.7767968e-19
3.553897e-19
-1.8574163e-31
-3.1430293e-19
2.9540863e-19
0
2.6068836e-19
6.796976e-32
-2.2977786e-19
0
-2.0236764e-19
1.8988511e-19
9.8950074e-32
-1.6719916e-19
8.7131849e-32
2.0938678e-35
-3.8451616e-32
1.8486114e-35
1.223592e-19
0
-1.0858405e-19
2.8442452e-32
2.6883836e-32
-2.3717418e-49
2.4157396e-32
0
1.5753468e-19
2.0881398e-32
-7.1959945e-20
6.9017993e-20
-1.8413782e-32
-6.3914716e-20
-6.1689716e-20
-1.6560541e-32
1.6029217e-32
-5.5912329e-20
5.4154279e-20
5.2404818e-20
0
4.8690098e-20
-1.2934684e-32
-4.4181491e-20
0
0
0
6.3740172e-20
-3.7560588e-32
-6.6695432e-20
0
0
0
0
0
0
0
1.000884e-19
-2.2282874e-32
-9.602283e-20
-6.3723746e-20
6.4196321e-20
5.3340714e-20
-1.4795772e-32
-3.5253541e-32
-6.7126552e-20
6.1075238e-20
-5.908499e-20
-6.4210885e-20
6.6280231e-20
6.2689316e-20
-3.3564897e-32
-6.3896575e-20
-6.6942756e-20
1.7974564e-32
6.0364442e-20
5.9737411e-20
-6.1446084e-20
-6.0860609e-20
5.7620748e-20
-5.6155144e-20
0
5.6489472e-20
5.3929626e-20
-1.4367729e-32
-5.104194e-20
5.0399772e-20
-4.927681e-20
-4.7911646e-20
4.7126608e-20
-4.6553774e-20
-1.2548982e-32
4.3308369e-20
4.1933015e-20
5.8043837e-36
-7.7258933e-20
-1.937399e-32
3.1843369e-20
3.172882e-20
0
-2.6727519e-20
0
0
0
-2.444566e-20
-1.9733504e-20
2.752005e-20
3.688408e-20
0
-2.3012468e-20
8.324805e-33
3.8973466e-20
0
0
-2.7115767e-20
1.8157265e-32
3.1300192e-20
0
0
-3.2117776e-20
1.9932997e-32
3.7155428e-20
0
-3.5086183e-20
9.8953746e-33
-1.0138597e-32
9.7312703e-33
3.3452368e-20
0
3.7580912e-20
-2.3374155e-32
-4.9157744e-20
0
-5.0667396e-20
4.5853113e-20
4.2833906e-20
-8.0251903e-20
-1.0492298e-32
7.2524059e-20
-9.4196705e-33
-2.5746166e-20
0
0
-2.1929708e-20
4.7575037e-33
1.2869852e-20
0
-1.6862827e-20
1.6954918e-20
1.7997252e-20
-2.1231755e-20
0
2.1976065e-20
-2.1569852e-20
-1.3740109e-32
1.4972309e-32
-2.4674764e-20
1.8189952e-32
-2.3101286e-20
2.5674509e-20
-6.9338661e-33
1.2103831e-32
4.1875675e-20
-6.2951954e-33
-2.3215843e-20
0
0
0
4.0922934e-20
2.0025754e-20
-3.8615764e-20
-1.889442e-20
0
0
-1.896755e-20
3.8184802e-50
2.1246508e-20
0
4.5276805e-20
2.4578938e-20
-5.8213434e-20
-3.4095388e-20
0
7.5428796e-20
1.126614e-35
-1.1844277e-19
1.0953896e-32
7.5194361e-20
-3.3122158e-20
-1.7688883e-35
3.2674744e-20
-9.2535715e-33
-1.7936651e-32
-3.1951058e-20
0
-2.2815675e-20
1.0021326e-32
2.7991944e-20
-6.2249634e-21
2.6785785e-33
3.6547064e-21
-9.9813951e-21
3.5571898e-37
1.3644681e-22
0
0
0
3.6247908e-21
-4.9303141e-21
-1.2467426e-20
7.2690162e-21
2.2653845e-33
2.5363621e-33
1.0157305e-20
0
-1.1681366e-20
1.7363641e-36
2.5319822e-20
-1.2738549e-20
-6.7034721e-33
1.1285035e-20
1.1080278e-20
-6.1301191e-33
-2.138931e-20
0
-1.0044832e-20
-9.4422541e-21
0
9.9768644e-21
1.1063052e-20
-1.2111904e-20
0
1.2977975e-20
0
0
-1.1761943e-20
8.7973769e-33
1.0687666e-20
0
0
-1.0527954e-20
-1.0517521e-20
1.1214696e-20
1.186805e-20
-1.218924e-20
-1.1760007e-20
2.3674121e-20
1.2678325e-20
-3.7026855e-33
-1.348482e-20
7.0792941e-33
7.5671923e-33
-1.5601834e-20
1.714814e-20
-1.7499971e-20
1.6985492e-20
1.4040942e-35
-1.6643918e-20
3.251226e-20
1.4516188e-20
1.2329742e-20
-1.9739798e-20
-1.7915282e-20
9.3605838e-21
-8.860538e-21
6.8453394e-21
-2.5252313e-33
-6.3429202e-21
2.1814991e-21
-3.6424416e-34
-2.6949708e-34
-3.2099809e-21
0
0
4.2368468e-21
4.7194204e-21
0
-4.8900868e-21
-4.502058e-21
0
-3.4883838e-21
7.9169662e-34
2.4381065e-21
-2.3245287e-21
5.864985e-34
1.2454885e-21
0
-1.3954967e-22
8.6376851e-35
-6.8230539e-22
1.998721e-21
-7.1104071e-34
-2.6862906e-21
-3.8135664e-21
-1.3130204e-33
4.2244325e-21
0
-5.03922e-21
5.7089385e-21
-1.6629144e-36
3.3349246e-33
6.4749523e-21
-6.9236095e-21
0
-1.1738302e-20
1.2650753e-32
5.6333269e-21
3.261079e-33
1.0994596e-20
-9.7941034e-21
-9.4764056e-21
9.7989556e-21
1.0360544e-20
4.5465398e-21
0
-3.9372834e-21
-7.9128813e-21
6.1761177e-37
-4.4327915e-21
4.1090737e-21
3.6697829e-21
-3.4709872e-21
7.2738481e-21
-7.8349396e-21
-6.7924151e-33
7.9573969e-21
-7.5201305e-21
2.1778889e-33
-4.4178656e-21
4.8785747e-21
5.1079393e-21
-5.1570491e-21
-1.519457e-33
-1.2333462e-20
1.3282494e-20
1.3288015e-20
-1.3779742e-20
-2.1208997e-33
-8.1979561e-21
4.5117255e-33
8.2290121e-21
2.4162361e-33
3.3170297e-50
8.445707e-21
1.6016346e-20
-8.6923655e-21
1.3737314e-49
-1.001966e-20
-1.5516115e-32
9.1139903e-21
-1.8556879e-20
5.0785013e-33
1.9357204e-20
2.8649587e-50
-8.6018341e-21
0
0
-8.2352833e-21
8.651292e-21
1.7149631e-20
0
0
0
-7.0287172e-21
-5.9649022e-21
0
5.130102e-21
-5.5234796e-21
-9.5840042e-33
1.0681182e-20
0
0
0
-4.0788515e-21
-3.5973416e-21
3.0384179e-21
-2.9370752e-21
-1.6648728e-33
5.510173e-21
0
0
-3.7068556e-21
5.5631612e-37
1.9369923e-21
-1.7679891e-21
1.4609794e-21
-1.1092208e-21
4.8818997e-34
1.6883905e-21
0
0
-1.035465e-21
-9.9931534e-22
0
0
1.0334202e-21
1.2116146e-21
0
-1.3512439e-21
-1.4218775e-21
1.6344825e-21
-1.9024415e-21
-2.1098332e-21
2.2319695e-21
2.3822816e-21
-1.4723169e-33
-2.9613997e-21
3.1912376e-21
9.0764412e-34
-3.3324426e-21
0
-3.9505527e-21
2.3739662e-33
4.4179385e-21
-4.4678678e-21
2.5191079e-33
4.740775e-21
0
-5.3210701e-21
1.5104086e-33
7.6888567e-37
-5.3493669e-21
5.3375228e-21
5.4841085e-21
0
-1.1857056e-20
6.5971112e-33
5.8613845e-21
8.2771257e-37
1.1845836e-20
-1.2240937e-20
-1.2364862e-20
1.2238482e-20
6.0239807e-21
0
-1.264614e-20
1.0936871e-32
1.3420849e-20
0
-1.3769449e-20
-3.8574472e-33
7.0410822e-21
1.9903687e-33
1.4379997e-20
-1.45502e-20
-1.8743214e-32
1.5539578e-20
-1.590938e-20
4.4172345e-33
1.6030047e-20
8.3302554e-21
-1.7105474e-20
-8.3078352e-21
1.6406417e-20
-1.7072409e-20
-2.2263865e-32
1.8463899e-20
-1.8830734e-20
2.6268922e-33
-9.5214663e-21
1.0619898e-32
2.845367e-20
-5.1554269e-33
-1.8596198e-20
9.6174083e-21
1.966394e-20
-9.5989744e-21
5.2032776e-33
-9.6011844e-21
-1.0889514e-32
9.4433915e-21
-1.8173704e-20
7.5476095e-33
-1.0352423e-32
5.2438008e-33
8.6331494e-21
0
8.6418707e-21
8.8286168e-21
0
0
0
0
0
-8.0283281e-21
-8.0080995e-21
0
7.4516483e-21
-7.1577669e-21
-1.1821562e-32
1.4140824e-20
0
0
0
-6.1860947e-21
-6.16621e-21
5.9843839e-21
5.6617826e-21
-1.0672368e-20
-8.5847108e-33
1.015442e-20
0
-9.4540517e-21
-7.3239297e-33
4.1507921e-21
-4.0426336e-21
3.9531017e-21
-3.7578442e-21
-1.9390821e-33
6.4943965e-21
0
0
-2.8426045e-21
-2.5812831e-21
0
-2.1585751e-21
-5.9929002e-37
-2.0443047e-21
1.8912876e-21
4.9388267e-21
0
2.6572548e-21
2.6557927e-21
0
-3.6103903e-21
-1.9972964e-21
1.6628256e-21
-8.1180748e-22
-8.8192568e-22
2.8029579e-21
9.0427176e-22
1.1513526e-37
7.5745053e-22
-8.1607323e-22
-9.4118916e-22
-1.0464885e-21
-1.3323932e-51
-1.0602309e-21
-1.102553e-21
1.248794e-21
0
3.2048476e-21
3.484265e-21
0
-2.0825062e-21
-4.5435058e-21
-1.33165e-33
-2.508586e-21
-5.3311909e-21
5.7549118e-21
6.2468695e-21
3.3409968e-21
3.5214486e-21
0
-3.8861055e-21
-1.2181548e-20
4.2237915e-21
-1.0573988e-48
-1.3683152e-20
9.4989177e-21
4.9110899e-21
5.0305692e-21
1.0198576e-20
-1.0348213e-20
-5.2878615e-21
5.4435204e-21
5.5363951e-21
5.5105164e-21
-1.6405715e-20
-5.523879e-21
1.6909703e-20
5.6904619e-21
-5.6686297e-21
-1.1030398e-20
5.414006e-21
-5.4430948e-21
9.144338e-33
-9.0751601e-33
-1.5682077e-20
5.0439596e-21
5.0260144e-21
1.0051494e-20
4.959825e-21
-9.6423251e-21
-1.3005323e-36
-4.3973561e-21
4.3495335e-21
1.2979434e-20
-1.2631542e-20
-4.0019959e-21
1.1471493e-20
0
-1.096917e-20
-3.515262e-21
9.9415437e-21
-3.1359129e-21
-6.1013288e-21
-1.6696825e-33
3.2423708e-33
2.771058e-21
0
5.0573112e-21
5.081583e-21
-2.5367331e-21
-2.4655352e-21
-4.6793362e-21
2.2226208e-21
2.1696935e-21
-4.364459e-21
0
4.4411923e-21
4.3595792e-21
-2.1355514e-21
-4.2838264e-21
1.2195286e-33
2.252696e-21
-4.5381949e-21
2.2599882e-21
-7.5439892e-33
-4.6375754e-21
2.4016352e-21
0
5.0505406e-21
0
-5.8950752e-33
-2.7467939e-21
-5.5727164e-21
8.3950665e-21
-8.0853867e-37
-5.9166653e-21
0
6.5049898e-21
3.2725845e-21
-6.5348766e-21
3.6299313e-33
3.3585036e-21
-7.107817e-21
3.7352327e-21
-6.363083e-33
-7.6798761e-21
3.8504656e-21
-3.8078543e-21
7.6885125e-21
1.2071951e-20
0
-1.2962201e-20
-8.6432192e-21
1.2730999e-20
8.3380169e-21
-4.2575806e-21
-8.9442001e-21
4.6231227e-21
4.6939854e-21
-9.355996e-21
4.5588561e-21
8.8833638e-21
-4.5137168e-21
6.7041096e-37
-9.6780763e-21
-9.7711819e-21
1.4566277e-20
-4.5882646e-21
-7.415578e-33
1.3912329e-20
0
-1.4831329e-20
-9.8938061e-21
4.9147644e-21
4.756695e-21
4.662872e-21
0
4.8602787e-21
-2.7103375e-33
-9.6992149e-21
2.6111347e-33
4.6159052e-21
0
4.7615323e-21
-9.4808508e-21
-1.3979754e-20
8.9854761e-21
1.3198472e-20
4.4758712e-21
-4.5292519e-21
-9.0057362e-21
4.4288886e-21
-4.3054081e-21
-4.2139292e-21
8.4044742e-21
-8.4336289e-21
-4.177371e-21
1.2193075e-20
7.9260922e-21
-3.9260428e-21
-1.1753127e-20
8.6357875e-33
-8.4911728e-33
-3.7231635e-21
-4.0454404e-33
-3.6017685e-21
3.5738634e-21
3.5213597e-21
3.4314565e-21
-3.3617804e-21
-3.3328158e-21
9.9384659e-21
-3.2474521e-21
-6.2969018e-21
9.2085318e-21
8.633616e-37
-3.0348695e-21
6.0300017e-21
2.9476964e-21
0
-2.7955327e-21
-2.7874932e-21
-5.6068052e-21
2.7941604e-21
-9.1050172e-33
-7.9698037e-21
2.6080234e-21
2.6033395e-21
2.6270001e-21
-2.632387e-21
-2.5916674e-21
7.6060322e-21
-2.5029042e-21
-5.0103035e-21
-4.223808e-33
-2.548605e-21
5.0226936e-21
7.3778334e-21
1.3463881e-33
-1.345197e-33
-3.4871981e-37
-2.4931558e-21
-5.0164184e-21
-2.4899675e-21
7.3598296e-21
-2.6863718e-33
-4.8306479e-21
0
0
2.5332705e-21
-1.3904888e-33
1.3666765e-33
2.4413081e-21
-4.9162132e-21
-2.5186387e-21
-2.8464783e-33
2.5670096e-21
7.6133475e-21
2.5069482e-21
0
0
0
-7.9079311e-21
-5.2632137e-21
7.81604e-21
-2.8678888e-33
-5.1597545e-21
0
0
5.3408041e-21
-5.9334603e-33
-2.9501012e-33
5.288934e-21
-2.6366511e-21
-5.2898756e-21
-5.3513649e-21
2.6866828e-21
7.989454e-21
2.618171e-21
0
0
0
-7.9182603e-21
-5.3130931e-21
7.8477128e-21
-5.6826566e-33
-2.5137973e-21
3.542556e-37
-2.5085972e-21
5.0413319e-21
-2.7788309e-33
-2.4558578e-21
4.7979322e-21
0
-1.3063308e-33
-4.7185922e-21
-4.7071321e-21
6.9699795e-21
4.5668112e-21
-2.2453439e-21
-1.224866e-33
2.1696148e-21
-6.3911227e-21
-4.2077833e-21
2.0971092e-21
2.087729e-21
-2.0470699e-21
-1.9929664e-21
1.9529222e-21
1.9394149e-21
-1.0826261e-33
1.0797602e-33
1.8920285e-21
0
1.7858772e-21
-3.5872109e-21
-5.5167807e-21
3.7366703e-21
3.7036807e-21
1.790961e-21
-1.9216995e-33
-3.4165263e-21
1.7366912e-21
-1.7985161e-21
-1.8502524e-21
3.7262534e-21
-3.664015e-21
-1.7876356e-21
1.7579054e-21
3.5354195e-21
1.820472e-21
-3.7714237e-21
1.0697008e-33
-1.9417109e-21
-1.9421428e-21
5.8426264e-21
-1.9679413e-21
-1.997349e-21
6.0904995e-21
-2.9180592e-37
-6.2007181e-21
-2.0902751e-21
6.3993564e-21
-2.1746122e-21
-4.558871e-50
-3.6549772e-33
-4.361412e-21
4.3817507e-21
4.4867378e-21
-2.3168305e-21
2.6287312e-33
4.7512995e-21
-2.3695083e-21
-7.1072154e-21
-2.3846662e-21
2.4315846e-21
0
2.4988302e-21
5.0028513e-21
-3.5591921e-37
-7.5479575e-21
-2.5358697e-21
5.1073469e-21
-3.6396293e-37
-5.1370192e-21
5.1508099e-21
-4.3025488e-33
-5.1577423e-21
7.6531539e-21
5.06561e-21
0
0
-2.591394e-21
-7.7229747e-21
-2.5260489e-21
7.4843103e-21
-2.7870041e-33
-5.0815262e-21
5.0967699e-21
5.0233025e-21
-2.4397419e-21
-4.7775816e-21
2.3976871e-21
2.4452012e-21
-7.4260026e-21
-2.4561128e-21
-3.9792012e-33
1.2871537e-33
2.2517324e-21
-2.2184882e-21
4.4854767e-21
6.8119684e-21
0
-6.6884612e-21
-4.320196e-21
6.2548431e-21
-5.7648398e-37
-2.0124388e-21
4.0544556e-21
-2.0239239e-21
-1.9873363e-21
-2.1357354e-33
1.8538181e-21
3.6127913e-21
-1.7905528e-21
-3.580661e-21
-3.5422028e-21
1.9024014e-33
1.6446667e-21
-1.5907825e-21
3.1263558e-21
4.6809935e-21
0
-4.5039734e-21
-2.880907e-21
4.153173e-21
-1.5038379e-33
-1.3461748e-21
1.3370878e-21
1.3118959e-21
-7.0764748e-34
-2.4830374e-21
6.7729098e-34
2.4045692e-21
-1.3051702e-33
-1.2643626e-33
-2.2141693e-21
-3.2978754e-21
2.2222365e-21
-1.2466333e-33
-3.7046209e-33
1.0751335e-21
1.0388671e-21
2.0510451e-21
-3.1074621e-21
-1.0601811e-21
2.1507386e-21
-2.1435099e-21
-6.0424436e-37
3.1907423e-21
1.0771671e-21
-1.0987469e-21
-3.3330782e-21
3.6705978e-33
2.1829757e-21
1.0991048e-21
-2.2574981e-21
-3.5207449e-21
3.6221063e-21
1.2121147e-21
1.3250202e-33
1.1827566e-21
-2.4010733e-21
6.9089642e-34
-1.2985833e-21
1.3382257e-21
-4.5074455e-33
-4.0501527e-21
4.0520944e-21
4.1007136e-21
0
0
0
-1.4769095e-21
-4.4210682e-21
-1.4814482e-21
-1.6728728e-33
-1.5488425e-21
4.7416794e-21
1.58745e-21
-1.582771e-21
-1.5826815e-21
-1.6011676e-21
3.276451e-21
-1.6686228e-21
1.6769099e-21
-5.5557088e-33
-3.3165262e-21
5.00641e-21
3.4056186e-21
0
-3.5473277e-21
-1.965365e-33
1.7556975e-21
-5.2553784e-21
-1.7608369e-21
1.7769598e-21
0
0
1.7897371e-21
3.6143498e-21
-4.0928052e-33
-3.7508985e-21
-1.8808203e-21
1.8573331e-21
-1.8345966e-21
1.8243477e-21
-2.0350219e-49
-3.1197967e-33
5.7372068e-21
0
0
-3.8899166e-21
-3.8711068e-21
-1.9279669e-21
2.1417266e-33
5.8488548e-21
-2.2056481e-33
-4.0181933e-21
0
3.9798919e-21
1.9688983e-21
-3.9315941e-21
1.9924948e-21
2.0342918e-21
-6.1899837e-21
2.0656398e-21
-6.8479046e-33
-4.1053169e-21
6.1553629e-21
4.1063522e-21
0
0
0
-6.1420779e-21
-4.1091337e-21
6.1548121e-21
4.0701497e-21
0
-3.9773882e-21
2.2139099e-33
2.0126112e-21
-4.035666e-21
1.9933314e-21
-1.9581203e-21
-1.9277478e-21
5.7250261e-21
-3.8119164e-21
-3.8092271e-21
1.8899993e-21
-1.8630392e-21
3.68102e-21
5.4703536e-21
0
-5.3029828e-21
-3.4434434e-21
1.6879588e-21
1.677812e-21
-1.8687242e-33
1.6721678e-21
-5.4412899e-33
-1.5864865e-21
-8.5674259e-34
6.6010874e-52
1.5213528e-21
0
1.5043697e-21
-2.930033e-21
-4.266417e-21
4.1853897e-21
4.1687953e-21
0
-2.7891843e-21
-2.7368721e-21
2.6705472e-21
-1.3082242e-21
-1.3028809e-21
3.960591e-21
-2.6870025e-21
-2.6923073e-21
1.3193159e-21
2.5703296e-21
1.2631692e-21
-3.8129777e-21
-1.3077289e-21
-2.2471512e-33
2.7612579e-21
7.9204952e-37
-4.1678469e-21
2.7605133e-21
4.1394345e-21
1.3918154e-21
-4.2640686e-21
-2.9379097e-21
4.5568296e-21
-3.4625888e-33
-3.1600199e-21
-1.5848624e-21
8.8520933e-34
3.2240477e-21
-1.826799e-33
1.7054281e-21
1.7743214e-21
-5.4473892e-21
-1.8201108e-21
-2.0204852e-33
3.631358e-21
-6.1446666e-33
-5.7789009e-21
4.0222282e-21
-2.3006554e-33
-2.3297589e-33
-4.6607644e-33
-2.1045334e-21
6.3132691e-21
-2.1237411e-21
-3.6446846e-33
-7.5161926e-33
-6.9167332e-21
2.3357383e-21
4.7066475e-21
-2.6273917e-33
2.3807798e-21
2.391038e-21
-4.8097594e-21
-4.8703357e-21
2.7379381e-33
7.433887e-21
-2.7509217e-33
-2.4673869e-21
4.9138118e-21
-2.4772798e-21
-2.5005543e-21
1.3931979e-33
-1.3907373e-33
2.4683221e-21
-4.8580145e-21
2.4288846e-21
-8.206509e-33
-8.2816615e-33
7.4322464e-21
-4.9038299e-21
6.8406889e-37
4.7329249e-21
-2.3658249e-21
-7.117806e-21
-2.3652429e-21
7.0261992e-21
-2.5419091e-33
-2.2414512e-21
4.4589053e-21
-4.4725477e-21
-1.1147528e-32
2.1941264e-21
-2.1440033e-21
2.0790119e-21
-4.0561054e-21
2.0238792e-21
6.1080336e-21
0
0
-3.8073529e-21
-5.1424202e-37
3.4949624e-21
-1.7544616e-21
-5.3251637e-21
-1.7810852e-21
5.2872923e-21
4.8716788e-37
1.834712e-33
3.1964589e-21
-4.6558948e-21
-7.5380357e-33
1.4744782e-21
-1.451866e-21
-1.4377327e-21
1.5841013e-33
1.4057983e-21
-2.7324449e-21
2.6177148e-21
-4.1665535e-33
-2.4101543e-21
3.5468501e-21
2.3592188e-21
-1.1748352e-21
-3.4554743e-21
-1.108925e-21
1.058602e-21
0
-9.8253146e-22
9.7048095e-22
2.8969311e-21
5.2855046e-34
-1.8447925e-21
8.7819726e-22
8.3523606e-22
-1.6124528e-21
7.9273028e-22
-7.8766145e-22
-1.5485873e-21
2.2406543e-21
-2.3767417e-33
1.5212036e-33
1.3342458e-21
-1.3139703e-21
-6.4206414e-22
-6.1449613e-22
-6.4755564e-34
5.5898993e-22
-1.0971017e-21
1.0928464e-21
1.6148943e-21
0
-4.8353188e-22
2.5322404e-34
1.2609778e-37
-1.3227839e-21
-4.3782798e-22
1.2798133e-21
-4.073574e-22
-7.9223765e-50
1.1253204e-21
-3.6407798e-22
-1.0542154e-21
-3.3718809e-22
6.5158633e-22
-3.1993561e-22
3.1663083e-22
-1.026779e-33
-5.8204975e-22
8.207167e-22
2.9482937e-34
-1.1838094e-33
5.4056975e-22
-5.3210212e-22
-2.7647531e-34
2.2777874e-22
-4.3322977e-22
-2.201948e-22
0
0
4.5436505e-22
-4.5637906e-34
-1.0700414e-37
-2.0867677e-34
-2.0032961e-22
-2.1385773e-22
2.1939205e-22
2.1477599e-22
-4.0987602e-22
3.967429e-22
-2.18657e-34
-3.9429337e-22
3.9856349e-22
6.8539902e-34
-2.3947343e-34
2.2467604e-22
-4.5354691e-22
2.209696e-22
-4.8174319e-34
-4.4587639e-22
0
5.0273611e-22
2.5757437e-22
-5.0864104e-22
-2.5360261e-22
2.6480104e-22
-4.737803e-34
-3.0400034e-22
0
0
6.0692488e-22
6.2561255e-22
0
-7.2512716e-22
-3.8292662e-22
3.8990366e-22
-3.8687109e-22
3.882406e-22
0
-8.581978e-22
0
0
4.832321e-22
-5.355309e-34
-4.8878892e-22
0
5.4012038e-22
3.1634256e-34
-5.900507e-22
0
1.2167779e-21
1.2519849e-21
-6.5082073e-22
-7.5171059e-34
6.9537271e-22
-1.4034167e-21
-1.4173038e-21
1.4563705e-21
2.1615214e-37
1.7744405e-33
2.3612513e-37
-1.6914665e-21
8.4646512e-22
-9.4406919e-34
8.6579656e-22
-8.9375012e-22
-2.7971943e-21
2.9107637e-21
9.943335e-22
-1.0022052e-21
-1.1169004e-33
-1.0161982e-21
2.0761908e-21
2.1454451e-21
-2.2251702e-21
-3.7920923e-33
-1.145243e-21
-1.1444185e-21
2.2936012e-21
-1.1662755e-21
1.337865e-33
-6.9418327e-34
1.2771532e-21
2.5622945e-21
-2.5541535e-21
-2.5511682e-21
0
1.3229728e-21
1.5141369e-33
-2.7801319e-21
-1.5495355e-33
4.1776608e-21
2.7791185e-21
0
-2.84002e-21
-3.2255113e-33
-1.4745995e-21
-1.4787624e-21
4.4227833e-21
-8.145699e-34
-2.9390128e-21
1.4858731e-21
3.0242758e-21
-1.5278977e-21
-3.0527407e-21
-1.5174046e-21
0
3.0063043e-21
-1.5136213e-21
-4.5914998e-21
1.5389188e-21
1.5303226e-21
3.0324013e-21
1.5036283e-21
-2.995639e-21
-1.5059428e-21
-1.5137274e-21
1.6776435e-33
1.5003382e-21
1.486784e-21
2.9525637e-21
1.4660904e-21
0
0
0
-2.8036219e-21
-2.7982385e-21
2.8128036e-21
1.5532865e-33
1.5176349e-33
-1.4745218e-33
-2.868068e-33
2.5488915e-21
0
-2.5996585e-21
-1.3007e-21
1.2733332e-21
-1.2240342e-21
-1.1786803e-21
0
0
2.2878013e-21
-3.841645e-33
-2.5492247e-33
2.2482773e-21
-2.1751305e-21
-2.1036281e-21
0
2.0045591e-21
-1.0990205e-33
-1.9665121e-21
1.9514377e-21
1.0717917e-33
-1.8938049e-21
0
1.7788535e-21
8.6246699e-22
-1.6913776e-21
8.3970838e-22
1.8611944e-33
-1.656351e-21
1.6116503e-21
1.5548395e-21
0
0
0
-1.4811138e-21
-1.4634875e-21
1.4178123e-21
0
-1.3387717e-21
0
-6.6840757e-22
1.3372432e-21
6.5831484e-22
-6.3916928e-22
1.2448649e-21
6.1643324e-22
-1.239223e-21
-6.256826e-22
-6.9332282e-34
6.1163244e-22
-1.3280636e-33
3.3734617e-37
1.1972483e-21
0
-6.1699727e-22
-1.2238789e-21
-5.9793992e-22
0
0
0
-6.213427e-22
1.2631947e-21
6.3045918e-22
-6.236845e-22
-6.2123938e-22
6.2764168e-22
6.4047105e-22
-1.3101558e-21
0
1.3434743e-21
1.3530138e-21
0
0
-1.4060254e-21
-7.8959662e-34
-7.194284e-22
-7.2897525e-22
7.3987504e-22
-7.5189178e-22
7.6485242e-22
1.5562452e-21
7.8894733e-22
0
-1.6043548e-21
-9.001376e-34
8.2312308e-22
-8.3874224e-22
-8.541644e-22
-1.7317995e-21
1.7478139e-21
8.815887e-22
-2.536078e-37
9.0561001e-22
-1.8375442e-21
9.2677783e-22
-9.3233116e-22
3.2336055e-50
9.51735e-22
-1.9326963e-21
1.9546856e-21
1.9580352e-21
0
-9.8032273e-22
-1.9869876e-21
5.6390706e-34
1.0294392e-21
1.0270174e-21
-2.0327339e-21
-2.0097096e-21
1.006618e-21
2.0519816e-21
2.1024355e-21
-1.0641741e-21
-2.1203373e-21
1.0476682e-21
-1.0355574e-21
1.7179473e-33
1.0397639e-21
-2.1087976e-21
2.1231484e-21
1.1710808e-33
-5.7942223e-33
2.0669798e-21
-2.0573816e-21
-4.5866585e-33
1.0365028e-21
-2.0620056e-21
1.0148754e-21
-2.8289492e-37
4.3643375e-33
9.8224415e-22
-1.9808332e-21
2.1954601e-33
-5.389157e-34
9.4478327e-22
-2.6088433e-37
-1.8105745e-21
1.8209886e-21
5.238192e-37
-4.090787e-33
1.7954995e-21
-1.7086267e-21
-1.8031171e-33
1.5753726e-21
-7.88672e-22
-8.0336209e-22
-8.0950502e-22
8.016978e-22
-8.6651069e-34
-1.5032442e-21
0
0
1.3542623e-21
1.8705434e-37
-1.290884e-21
6.3970392e-22
-7.0542806e-34
6.2708923e-22
1.3446781e-33
-1.138984e-21
0
-5.0901385e-22
1.0006308e-21
5.021463e-22
-1.1145529e-33
4.9190293e-22
-9.3592764e-22
4.3464276e-22
-4.4920019e-34
-7.706316e-22
0
0
3.7519983e-22
-2.0295332e-34
3.4508014e-22
-3.1660676e-22
-8.757044e-22
8.3792453e-22
2.7780015e-22
-5.6010113e-22
2.7758751e-22
4.4087814e-34
2.4224693e-22
-1.2564246e-37
-7.0042601e-34
2.1003082e-22
-4.2841981e-22
-2.1515145e-22
0
-1.9133424e-22
1.7605806e-22
1.6913173e-22
1.6990053e-22
-3.855726e-34
1.9394869e-34
-1.8983011e-34
-3.31912e-22
1.6412697e-22
2.7690077e-34
-3.3878318e-22
2.3875916e-38
1.6045759e-22
3.0924751e-22
3.1616573e-22
-3.398813e-22
-2.0436492e-34
-1.9340106e-22
-1.9473264e-22
3.8171557e-22
-3.8049973e-22
-1.9672189e-22
6.2121652e-22
4.3099189e-22
-2.1844825e-22
-4.4283888e-22