/*--------------------------------*- C++ -*----------------------------------*\
  =========                 |
  \\      /  F ield         | OpenFOAM: The Open Source CFD Toolbox
   \\    /   O peration     | Website:  https://openfoam.org
    \\  /    A nd           | Version:  7
     \\/     M anipulation  |
\*---------------------------------------------------------------------------*/
FoamFile
{
    version     2.0;
    format      ascii;
    class       volScalarField;
    location    "0.00139";
    object      Uz;
}
// * * * * * * * * * * * * * * * * * * * * * * * * * * * * * * * * * * * * * //

dimensions      [0 1 -1 0 0 0 0];

internalField   nonuniform List<scalar> 
5000
(
0
0
0
0
0
6.2625452e-17
1.356433e-31
-1.9395638e-16
-6.5679343e-17
1.3343012e-16
1.3551847e-16
-6.8811754e-17
5.9576867e-31
6.250448e-31
-1.4403624e-16
1.4620552e-16
-4.2048668e-46
6.6340426e-31
7.6402412e-17
-1.5503418e-16
-7.863893e-17
0
0
8.2045986e-17
-7.0936342e-31
6.9524159e-31
8.5512201e-17
-8.6680031e-17
-8.7853809e-17
8.9033374e-17
-1.5769619e-30
7.7940174e-31
9.2605134e-17
-9.3806184e-17
-9.5012181e-17
0
0
9.8658128e-17
9.9882177e-17
-1.011103e-16
1.7161586e-30
1.0357803e-16
-1.0481728e-16
1.7935699e-30
1.0730565e-16
-1.085544e-16
3.776256e-30
-3.8036043e-30
3.8626013e-30
-1.9368064e-30
-1.1483642e-16
0
0
0
0
0
0
0
0
0
0
0
0
1.313307e-16
1.3260094e-16
-1.3387046e-16
2.3237351e-30
-6.0249848e-47
-1.3767302e-16
0
0
1.4146281e-16
1.4272243e-16
0
-1.4523516e-16
-5.0585764e-30
1.4773808e-16
1.4898546e-16
-1.5022988e-16
-3.0294239e-16
3.0541848e-16
-8.7506952e-32
-4.6552466e-16
3.1280434e-16
1.6396756e-29
-3.176898e-16
4.8018012e-16
-1.6127083e-16
-1.6247713e-16
1.6367879e-16
-1.6487566e-16
-1.6606762e-16
-5.8232322e-30
3.3687239e-16
1.1738353e-29
1.7078344e-16
1.7194873e-16
6.0762416e-30
-1.2134419e-29
-3.5081947e-16
-1.7655136e-16
1.7768677e-16
-2.5411258e-32
-1.7993843e-16
0
1.8216381e-16
6.3807101e-30
-1.8436199e-16
1.8545062e-16
1.8653213e-16
-3.7521283e-16
-1.8867338e-16
5.691988e-16
1.9078496e-16
-5.7548815e-16
1.928661e-16
1.9389502e-16
1.1079695e-31
1.9592912e-16
-5.9080236e-16
1.3838821e-29
3.9783925e-16
-3.9979992e-16
-2.0087192e-16
2.0183542e-16
-2.0279038e-16
2.0373674e-16
4.0934885e-16
-2.0560336e-16
-7.1317468e-30
-2.0743473e-16
-4.1667404e-16
2.092303e-16
2.1011452e-16
2.109896e-16
7.3760866e-30
7.3756838e-30
-7.4354134e-30
-4.287949e-16
-2.1522602e-16
2.1604512e-16
4.3370942e-16
2.1765473e-16
2.1844514e-16
-1.520309e-29
-4.3999387e-16
6.2743263e-32
-6.2956852e-32
3.0076264e-46
-2.2298318e-16
1.5513715e-29
-3.1253736e-29
-2.2511887e-16
2.2581074e-16
-2.2649255e-16
-7.8768034e-30
2.278258e-16
-2.2847718e-16
3.2559676e-32
2.2974928e-16
0
-2.3098028e-16
-1.6026945e-29
4.6433986e-16
-2.3274918e-16
6.6312964e-32
2.3387637e-16
-2.3442426e-16
2.3496164e-16
-2.3548848e-16
9.8334279e-29
6.5607029e-29
-2.3700555e-16
4.7497998e-16
0
1.6534658e-29
4.9698091e-29
-2.393209e-16
-2.3975179e-16
-1.6553283e-29
2.405812e-16
-2.4097967e-16
-1.6601372e-29
-1.0306168e-31
-3.3545738e-29
4.8492964e-16
-2.4280881e-16
-2.4314184e-16
1.6745576e-29
-1.6801611e-29
5.0744345e-29
-1.6876929e-29
2.4464172e-16
0
0
0
0
2.4586416e-16
-5.1300076e-29
-2.4627483e-16
-2.464633e-16
2.4664048e-16
2.4680637e-16
-4.9392186e-16
-1.7101302e-29
5.1331281e-29
2.4735644e-16
2.4746547e-16
-2.4756305e-16
0
-2.4772381e-16
-1.7148556e-29
2.478385e-16
2.4787851e-16
-3.4525101e-29
-2.4792375e-16
4.958578e-16
-2.4792222e-16
-2.479033e-16
2.4787229e-16
-2.4782953e-16
0
0
0
-2.4754032e-16
2.4743836e-16
4.9464894e-16
-2.4719864e-16
1.7168524e-29
-2.4691102e-16
-2.4674919e-16
4.9315059e-16
-7.0028056e-32
6.9971755e-32
-2.45981e-16
-2.457586e-16
4.9104802e-16
-3.4855986e-32
5.1044904e-29
-2.4474679e-16
1.357651e-28
3.3865483e-29
-2.4385882e-16
2.4353809e-16
0
2.4285937e-16
-2.4250133e-16
-2.4213079e-16
2.4174773e-16
0
2.4094397e-16
-2.4052321e-16
-2.4008983e-16
8.3197425e-29
4.7837026e-16
4.7742753e-16
-7.1468906e-16
-4.7546577e-16
0
4.7340201e-16
2.3616589e-16
-2.3561797e-16
-2.3505723e-16
-2.3448364e-16
4.677944e-16
4.6659578e-16
-2.3268569e-16
-4.6412121e-16
-6.4195678e-29
4.6154338e-16
-2.3010785e-16
3.1821618e-29
2.2874136e-16
-4.5607741e-16
2.273231e-16
-3.1557003e-29
-2.2585306e-16
2.2509863e-16
-2.2433125e-16
4.4710188e-16
-9.294135e-29
-4.4390309e-16
4.4226498e-16
1.5246309e-29
-2.1945571e-16
0
0
-2.1684418e-16
2.1594807e-16
4.3007838e-16
-2.1411759e-16
6.0590334e-32
-2.1223633e-16
-2.1127675e-16
2.1030459e-16
0
2.0832272e-16
2.0731311e-16
0
-4.105136e-16
-2.0421022e-16
4.0630289e-16
-1.398536e-29
5.7126947e-32
-1.9990263e-16
-1.9879577e-16
1.976771e-16
-1.9654668e-16
1.9540462e-16
-1.1041891e-31
-3.8617188e-16
1.9190952e-16
1.9072185e-16
1.8952304e-16
2.6118656e-29
-1.8709249e-16
0
0
1.8336615e-16
-2.5283203e-29
5.0187138e-29
2.4953746e-29
-1.7825306e-16
1.7694994e-16
-2.4959545e-32
-1.7431496e-16
0
0
0
0
0
0
0
1.6341782e-16
0
-1.6061185e-16
0
1.5777653e-16
4.3370407e-29
-1.5491365e-16
0
0
1.5057175e-16
2.070282e-29
-1.4764828e-16
0
0
1.432249e-16
1.4174132e-16
-1.4025363e-16
-1.387621e-16
0
1.357687e-16
-1.9080543e-32
-1.3276339e-16
1.3125701e-16
1.2974854e-16
-1.2823828e-16
-1.2672654e-16
0
1.2369984e-16
1.221855e-16
-1.2067092e-16
-1.1915642e-16
0
1.1612891e-16
1.1461654e-16
-1.1310553e-16
-1.1159619e-16
0
0
0
0
0
0
0
0
9.8141293e-17
1.140514e-45
-9.5197142e-17
0
0
0
8.9378072e-17
1.2197036e-29
-8.6508167e-17
8.5084199e-17
-1.1616463e-29
1.1689811e-32
1.1226582e-29
-7.9468517e-17
7.80861e-17
-7.6712852e-17
4.1867279e-29
7.3994963e-17
-7.2650858e-17
0
0
6.8681009e-17
9.3549562e-30
-6.6088975e-17
6.4810029e-17
6.3542765e-17
0
-6.1044147e-17
-5.9813208e-17
5.8594781e-17
1.5927643e-29
-2.2902909e-46
7.6384839e-30
-5.3849871e-17
5.2696697e-17
8.7453856e-46
7.001857e-30
4.9318963e-17
0
0
-4.6066672e-17
-6.3964464e-33
1.8295513e-29
-4.2942833e-17
0
0
3.9949785e-17
-1.0807761e-29
-3.8027935e-17
0
0
0
3.4362092e-17
-4.7581914e-33
-3.2618371e-17
3.1768809e-17
-3.0934091e-17
8.3706705e-30
5.8618151e-17
-2.8518704e-17
-1.1555531e-29
-3.746182e-30
3.6425445e-30
2.5503607e-17
0
0
-2.3394078e-17
-3.1543589e-30
6.1221392e-30
-3.0820679e-47
2.0779277e-17
-2.0160215e-17
-1.9554772e-17
0
1.8384234e-17
2.4739732e-30
-1.7266596e-17
0
0
1.5686813e-17
-4.3159488e-33
-2.3263774e-47
1.4219369e-17
-1.3754435e-17
1.8429769e-30
-1.785467e-30
3.449776e-30
1.2011275e-17
-1.1603758e-17
3.1120158e-30
-3.0064287e-30
2.9021918e-30
1.0081438e-17
-9.7268819e-18
2.6052972e-30
-1.2587564e-30
0
8.4072296e-18
-8.1010301e-18
1.0835001e-30
-1.0680576e-33
1.0046983e-30
-9.6808248e-31
-6.7030334e-18
6.4487417e-18
6.2024576e-18
-5.9640011e-18
-5.7331906e-18
0
5.2937971e-18
5.0848601e-18
0
-4.6876354e-18
6.2464204e-31
-6.1345449e-34
-5.7432892e-31
3.9710181e-18
-3.8071093e-18
-5.0610534e-31
9.7089632e-31
3.3493986e-18
3.2076481e-18
-6.1421059e-18
4.1772336e-34
-3.9012156e-31
-2.6907364e-18
2.5733075e-18
-3.4159077e-31
-2.3516342e-18
0
0
0
1.9573166e-18
1.8682108e-18
-1.7826515e-18
-1.7005224e-18
0
1.5460973e-18
1.4735812e-18
-1.4040536e-18
-1.3374103e-18
0
1.2123753e-18
1.1537887e-18
-1.0976979e-18
-2.8990107e-31
9.926397e-19
0
0
0
0
-7.6759002e-19
2.0205206e-31
6.9095026e-19
-6.5520584e-19
-8.6231658e-32
8.1794911e-32
-1.4602729e-48
-5.2784402e-19
-4.9959839e-19
9.4534732e-19
6.2063893e-32
-5.8610234e-32
3.9929686e-19
0
-3.5604442e-19
-3.3597907e-19
3.1689629e-19
8.2874261e-32
-2.8152422e-19
0
0
2.3489746e-19
-3.0643575e-32
-2.0771695e-19
0
1.8339035e-19
-2.4475707e-35
4.4904734e-32
2.1056035e-32
-1.4250772e-19
1.3377938e-19
-1.7850332e-35
3.2761548e-32
1.108801e-19
-1.0428621e-19
-2.7263921e-32
-1.3153832e-35
1.2134799e-32
8.2689134e-20
-7.8410378e-20
0
3.9471312e-32
9.4341391e-33
2.7178603e-32
8.9491251e-36
6.0980603e-20
-5.9368382e-20
-4.86023e-50
8.1745164e-33
-1.6533173e-32
8.2176426e-33
-1.1947136e-19
6.2690126e-20
6.4846152e-20
8.8289607e-33
-8.8041539e-33
-1.3253652e-19
6.7181646e-20
6.4027966e-20
5.4821858e-50
0
-1.5202867e-49
5.9212891e-20
-5.4926657e-20
-2.3547684e-50
6.9983731e-33
6.39501e-36
3.8825761e-20
-6.626799e-20
-8.1697103e-33
2.8616692e-20
-3.5642286e-33
2.6641979e-33
-1.9766171e-20
2.77485e-20
2.0287087e-48
9.6870246e-33
-9.5074977e-33
1.3353926e-32
1.2030172e-32
-1.3336721e-49
0
-5.3262247e-20
0
0
4.6198923e-20
1.5172285e-32
-5.5244333e-20
0
0
1.1857721e-19
4.9661205e-32
-1.1081385e-19
5.4731219e-20
-8.3182829e-36
8.3744009e-33
5.7757335e-20
0
0
0
5.7535903e-20
1.5120113e-32
-5.3764936e-20
0
0
5.2327668e-20
-7.0872755e-36
-4.8952696e-20
0
0
4.5701989e-20
1.2177337e-32
1.1728813e-32
-1.1197182e-32
-3.81708e-20
3.5769353e-20
-9.1826639e-33
8.3450476e-33
-7.3954303e-33
-2.3105079e-20
0
0
1.4011508e-20
-3.5339282e-48
-1.8485707e-20
0
0
1.2234218e-20
-1.6424732e-47
-3.3600659e-20
0
0
2.9446163e-20
-7.3290355e-49
-3.3470454e-20
0
0
3.3794357e-20
-4.8388625e-36
-3.0339127e-20
2.8415742e-20
-8.8816377e-33
1.0905497e-32
-1.2022209e-32
-3.9449772e-20
0
0
0
0
0
2.9288554e-20
-7.6258812e-33
-2.7091531e-20
0
0
0
0
0
0
0
3.218007e-20
-1.6093678e-32
-3.0496497e-20
0
0
0
0
0
0
0
2.5043746e-20
-7.5009757e-33
-2.8017728e-20
0
0
2.4272425e-20
-7.0382028e-33
-2.3834898e-20
0
0
0
2.2003626e-20
5.8068639e-33
-2.0087674e-20
0
0
0
0
0
0
0
2.0333466e-20
-2.9591576e-36
-2.1823837e-20
0
0
0
0
0
0
0
2.4250114e-20
3.4301752e-36
-2.4619772e-20
0
0
0
2.4940139e-20
-1.5803475e-32
-3.0442372e-20
0
2.9213443e-20
7.2742004e-33
-2.0567204e-20
0
0
2.3140063e-20
1.6479357e-20
-7.6318151e-21
-3.8974233e-21
0
0
0
0
-5.8830767e-21
9.3459663e-37
1.4519274e-20
7.6179824e-21
-1.5857718e-20
-1.7015108e-20
9.0044864e-21
9.0610894e-21
0
0
0
0
8.5947699e-21
2.4391965e-33
-9.5896827e-21
0
0
0
0
0
0
0
0
0
0
0
0
0
0
1.9536255e-20
-1.0893913e-32
-2.0455594e-20
0
0
-1.9599656e-20
5.1508475e-33
-2.2625985e-36
1.4501473e-20
1.4774427e-20
8.9263351e-33
-4.4202822e-33
-1.4028319e-20
0
0
0
0
0
-2.4957958e-21
1.4353757e-33
2.1566158e-21
0
0
0
0
0
0
0
5.7466211e-21
-3.574462e-33
-7.463071e-21
0
0
0
0
0
0
0
7.4950958e-21
-4.6456822e-33
-3.2920331e-21
0
0
0
0
0
0
0
0
-6.4647725e-21
9.0583443e-37
6.1383501e-21
0
0
0
0
-2.5741417e-21
1.6787168e-21
1.3028857e-21
-8.5720532e-22
2.9213213e-34
-1.3422742e-21
0
0
0
0
-5.5125759e-21
1.6830955e-33
1.176975e-20
-6.4429342e-21
-7.0073353e-21
7.2219769e-21
0
0
0
-6.6769047e-21
-1.7625541e-33
5.9806366e-21
5.6114707e-21
-5.1853561e-21
-4.6253953e-21
4.385602e-21
0
0
-3.5939382e-21
-3.6420626e-21
4.0503354e-21
4.3226494e-21
3.694223e-21
1.7964287e-33
-3.651151e-21
0
0
0
-4.4089932e-21
-4.3047363e-21
3.9925955e-21
3.6273519e-21
3.7789955e-21
1.2082369e-33
-4.7310125e-21
0
0
0
-3.699577e-21
1.2116308e-33
5.0256287e-21
0
0
0
0
0
0
0
-5.324323e-21
1.251649e-33
7.9720038e-21
1.2525796e-33
-5.1082101e-21
0
0
-4.3492941e-21
6.8913138e-37
-1.4943412e-33
1.5333138e-33
4.9392753e-21
3.6468006e-21
-8.6396013e-34
-3.6426173e-21
0
0
-4.765704e-21
3.6354591e-33
1.0923746e-33
-5.2355024e-37
3.6063633e-21
-3.4906621e-21
-3.2222971e-21
5.941924e-21
-1.5784716e-33
-2.7537128e-21
2.5606793e-21
0
-2.0555193e-21
-5.1395112e-34
1.6589588e-21
0
-1.2366588e-21
1.0171796e-21
-9.2254108e-34
-6.7261521e-22
5.2851969e-22
0
-3.7091103e-22
0
1.9947517e-22
0
-4.9537647e-23
1.3483604e-22
-1.4852905e-34
-3.8451886e-22
4.3501713e-22
0
-4.5393249e-22
-1.7155792e-34
9.0981649e-22
0
-1.6062947e-21
1.9070444e-21
-6.1389264e-37
-2.4033109e-21
2.7081946e-21
0
-3.5619299e-21
-4.0857633e-21
4.5711555e-21
4.9135084e-21
-5.2016007e-21
5.5233685e-21
5.9813347e-21
-6.608896e-21
0
0
0
0
0
0
-9.0155966e-21
1.9241749e-50
1.9472208e-20
-1.0201851e-20
-1.0506576e-20
9.8996351e-21
0
0
-1.0331896e-20
-1.0172435e-20
1.0284535e-20
1.0101515e-20
0
-1.1307789e-20
-3.1339507e-33
1.1158136e-20
0
0
-9.2819754e-21
-9.5117195e-21
1.0068643e-20
9.425444e-21
0
-9.1000015e-21
2.4175652e-33
9.0444576e-21
-9.1978787e-21
-5.0505735e-33
-1.2208374e-36
-8.1045638e-21
7.9877096e-21
7.9399312e-21
0
0
-6.3838166e-21
1.8504714e-33
6.9850915e-21
0
-6.9652159e-21
-6.6312271e-21
6.3961226e-21
6.340098e-21
0
0
0
0
0
0
-5.9488706e-21
1.6008737e-33
5.6340964e-21
0
0
0
0
0
0
-5.1543538e-21
2.6175359e-51
5.2651319e-21
5.222237e-21
1.4118614e-33
-4.8446285e-21
0
0
0
0
-4.8897459e-21
-1.3298679e-33
4.7176396e-21
-4.639476e-21
-4.507287e-21
4.4410049e-21
-2.4794293e-33
-3.7293409e-33
-3.6583238e-33
1.1807385e-33
-2.3033145e-33
1.1373283e-33
4.0742277e-21
0
-3.8934312e-21
3.1767401e-33
-5.3848123e-37
-3.7185765e-21
3.5928716e-21
3.4935841e-21
-3.4361186e-21
9.431901e-34
-2.7483649e-33
-1.7557711e-33
-1.7068041e-33
8.4803541e-34
-1.6791772e-33
-2.9146689e-21
2.7671396e-21
2.6463496e-21
-2.6134708e-21
7.33944e-34
-2.9236655e-33
-7.0226685e-34
6.6692578e-34
6.4301854e-34
6.4167961e-34
-2.3543833e-21
0
2.3197869e-21
-6.2620045e-34
8.5052577e-51
2.293715e-21
0
-2.3316223e-21
2.3005273e-21
2.3105807e-21
-2.3751558e-21
0
0
0
0
-2.7456237e-21
7.8019695e-34
-1.6250781e-33
3.067735e-21
3.1798904e-21
-3.2421158e-21
0
0
0
0
-3.7806652e-21
-5.3972226e-37
3.8272094e-21
0
0
0
0
0
0
0
-4.4142196e-21
-4.4432927e-21
4.3770715e-21
4.3333614e-21
0
0
0
0
0
0
-4.2288751e-21
-4.1940449e-21
4.0770831e-21
3.9810797e-21
0
0
0
0
0
0
-3.5072819e-21
-3.4605104e-21
3.3296691e-21
3.1835847e-21
0
0
0
0
0
0
-2.8950461e-21
1.5899552e-33
2.8766327e-21
0
0
0
0
0
0
-3.1285712e-21
8.8708036e-34
3.2465858e-21
0
0
0
0
-3.6673589e-21
-5.3208487e-37
3.8887606e-21
-4.0309718e-21
1.2487614e-51
4.1923283e-21
-4.1789196e-21
2.3521497e-33
4.4362184e-21
-4.6236111e-21
-2.6320928e-33
-2.6513559e-33
4.4235049e-50
-2.5601091e-33
-1.3201399e-33
4.9568487e-21
-5.0957733e-21
-5.1443045e-21
1.0065837e-20
-2.7384221e-33
-1.0004155e-20
0
5.205749e-21
-1.4359697e-33
-1.3727785e-33
-3.9283504e-33
-3.9425253e-33
-2.7071841e-33
4.1242248e-33
-2.7365132e-33
1.3476744e-33
4.740423e-21
0
-4.5252537e-21
-6.2160979e-37
-3.5206147e-33
-3.4504851e-33
5.7944892e-37
2.2032665e-33
-1.0625698e-33
-3.7048325e-21
0
3.4450358e-21
-1.822433e-33
-4.379357e-37
2.9473327e-21
0
-2.8634248e-21
2.7791963e-21
2.6570206e-21
-2.5298519e-21
0
0
-2.2378255e-21
2.4021515e-33
-1.157975e-33
1.1164513e-33
-5.4149867e-34
1.9027228e-21
1.8642995e-21
-1.8257171e-21
0
0
0
0
-1.7269332e-21
-4.7883617e-34
-1.9477559e-33
1.8104504e-21
1.8568459e-21
-1.8671901e-21
0
0
0
0
-2.1435867e-21
-2.19511e-21
2.2431773e-21
2.3137608e-21
0
0
0
0
0
0
-2.9058322e-21
-3.0028747e-21
3.0726416e-21
3.1282588e-21
0
0
0
0
0
0
-3.6556772e-21
3.1117076e-33
7.6538327e-21
-3.8874287e-21
-1.1742877e-20
-3.9417831e-21
0
8.1422228e-21
-4.5793685e-33
-1.3828741e-32
-4.1365641e-21
-8.2689521e-21
8.3953154e-21
-4.2665717e-21
-4.2942114e-21
4.2936541e-21
-4.2467731e-21
5.9966388e-37
4.2741001e-21
4.3301028e-21
-4.3445303e-21
-4.3300571e-21
4.2704837e-21
-4.2256429e-21
-6.0441946e-37
4.2958592e-21
0
0
0
8.2842626e-21
-4.1691798e-21
-8.421854e-21
4.2234934e-21
-4.1875958e-21
-4.1280835e-21
8.1463034e-21
2.7106329e-51
-3.9929108e-21
3.9863802e-21
7.9944008e-21
4.0107809e-21
-1.2028906e-20
3.9693035e-21
2.2804522e-49
-1.1477127e-20
7.5583044e-21
3.8054398e-21
3.838688e-21
7.6733734e-21
-7.5964427e-21
-3.748201e-21
-3.7016719e-21
3.6486003e-21
3.6022878e-21
-1.075541e-20
3.5752123e-21
3.5470818e-21
-3.4999819e-21
-3.4320415e-21
-4.7928871e-37
1.0012413e-20
-3.3113432e-21
5.4296405e-33
-5.2905775e-33
-9.2954725e-21
3.0526345e-21
3.0259975e-21
5.9348431e-21
-2.8760218e-21
-5.5640805e-21
5.4203813e-21
-2.6542339e-21
2.5880996e-21
2.4966369e-21
-7.1490529e-21
2.2897503e-21
2.230899e-21
-4.3373625e-21
-2.0756144e-21
1.9602987e-21
5.5260904e-21
-1.7467913e-21
-6.6854223e-21
8.8272838e-34
2.9643638e-21
1.3637123e-21
0
2.3804045e-21
2.4614178e-33
-2.994263e-21
8.8019344e-22
-1.7498716e-33
7.1833482e-22
6.4303984e-22
-1.0818904e-21
0
0
0
-2.3199836e-22
9.6214988e-35
1.7711908e-22
7.7402194e-24
1.6735772e-22
-3.7920637e-22
5.1261168e-34
3.7799477e-22
-2.46186e-22
0
0
0
-7.2719408e-22
3.6630752e-22
7.8073975e-22
-1.2824566e-21
1.2782602e-37
8.9144502e-22
0
0
3.8965929e-22
-2.0029265e-34
-6.5740002e-22
3.0734256e-22
5.9036667e-22
-7.9064632e-22
3.3354835e-34
2.4776753e-22
-5.4120103e-23
6.7014105e-24
4.0553746e-23
5.857432e-23
-4.4008338e-34
-2.311791e-22
-6.6582467e-22
1.2630253e-21
-2.7741739e-37
-5.4147382e-22
3.372065e-34
-7.0132627e-22
-8.1500133e-22
5.1797157e-34
3.1079662e-21
-3.1698601e-37
-3.5499385e-21
2.5272317e-21
-2.9523004e-49
-2.9873399e-21
1.6243268e-21
-1.7340955e-21
3.6331002e-21
1.8918406e-21
-4.3854427e-33
-2.0778972e-21
-4.408346e-21
-2.3408709e-21
-2.4520632e-21
7.5963963e-21
0
-2.6830449e-21
-1.5386866e-33
1.6054699e-33
-1.6746696e-33
3.1209097e-21
-3.5510015e-33
3.269783e-21
-1.1082553e-32
-1.0198933e-20
7.0151219e-21
1.084404e-20
3.691798e-21
-1.1199928e-20
-7.4963928e-21
1.1397782e-20
-3.9083991e-21
-1.2051272e-20
0
0
4.0224489e-21
4.0565723e-21
0
-4.2908966e-21
-4.3508214e-21
8.7283609e-21
-9.5308048e-33
-1.2702259e-20
4.7578488e-33
4.3885316e-21
4.4495154e-21
4.327574e-21
-4.1790803e-21
-4.1947116e-21
4.3009505e-21
1.3172111e-20
-4.4150207e-21
-1.7423964e-20
4.2725714e-21
8.4627156e-21
4.2481532e-21
0
-4.1137797e-21
0
-3.9731914e-21
3.9954456e-21
-8.8302304e-33
3.8486564e-21
-1.2335711e-32
-1.0913913e-20
3.6175881e-21
3.5985451e-21
-3.5392928e-21
-3.3982228e-21
3.2591703e-21
9.5699854e-21
-3.1537285e-21
-1.243865e-20
5.0388634e-33
2.8937751e-21
5.5335258e-21
2.6820469e-21
-5.2470368e-21
-1.4202459e-33
-3.4952706e-37
2.3296164e-21
-4.9177228e-33
-2.1399359e-21
6.2728026e-21
-2.2451281e-33
-3.847673e-21
0
0
-1.6167328e-21
8.6936184e-34
3.0460019e-21
-1.4588939e-21
-2.7387127e-21
-1.2738561e-21
1.3223602e-33
3.413443e-21
1.1075126e-21
-1.0776881e-21
2.057057e-21
-5.4253292e-37
-2.9393024e-33
-8.3931376e-22
-1.65076e-21
2.4729121e-21
-9.0071994e-34
-1.5461471e-21
0
0
1.3396395e-21
-1.5336066e-33
-7.9476795e-34
-2.0638715e-37
-2.1480367e-21
-1.396482e-21
1.1563057e-33
2.1403324e-21
7.4803067e-22
-7.8563714e-22
1.6210667e-21
9.0650944e-34
-2.7263392e-33
-8.3643093e-22
-1.7567678e-21
2.8092263e-21
-9.9557586e-22
-1.0366855e-21
1.0526374e-21
-1.0624295e-21
2.1752879e-21
-1.260675e-33
-1.1994502e-21
-1.7934548e-37
-2.6096401e-21
2.6482617e-21
-2.2357694e-33
-2.7501557e-21
1.4220088e-21
0
-1.5362383e-21
-8.6980167e-34
4.737613e-21
-1.5927422e-21
-3.2311472e-21
-1.6477098e-21
-1.6907079e-21
1.7310244e-21
1.7599716e-21
1.777768e-21
-1.7866139e-21
9.9461853e-34
-9.9782933e-34
1.8069397e-21
-2.0237322e-33
1.8379775e-21
-6.1457171e-33
-5.515258e-21
3.6434921e-21
-6.6767004e-51
-1.823052e-21
-2.0461557e-33
1.0256632e-33
5.4492898e-21
-1.7747749e-21
-5.2248146e-21
0
0
1.7832193e-21
1.7703221e-21
3.4374215e-21
-1.6644769e-21
-3.2420287e-21
3.2167202e-21
-1.6320801e-21
-4.9606821e-21
1.6482962e-21
1.6133364e-21
1.5685243e-21
1.5308357e-21
-3.0177329e-21
-1.5066122e-21
1.5150261e-21
4.5482531e-21
-1.5033277e-21
-9.504372e-50
-2.4463956e-33
-2.9210135e-21
2.9066995e-21
2.8785865e-21
-1.4239232e-21
-2.8297295e-21
2.837233e-21
1.4367207e-21
-4.3499923e-21
-4.3450215e-21
1.4354635e-21
2.8475343e-21
1.4296046e-21
-8.0785031e-34
-2.9787547e-21
-1.5111147e-21
1.5108842e-21
3.0152395e-21
-2.152827e-37
-3.0727746e-21
3.1500918e-21
-2.6879569e-33
-3.280069e-21
1.654589e-21
3.3364562e-21
3.3785701e-21
0
-1.7432735e-21
-5.3349315e-21
-1.8191449e-21
1.8537156e-21
0
0
0
0
-1.9795807e-21
1.1223687e-33
6.1498914e-21
-2.0690455e-21
-6.2258824e-21
-2.0922778e-21
3.5644321e-33
4.3893903e-21
2.2301595e-21
-2.2334059e-21
4.4223483e-21
2.1901215e-21
-7.397849e-33
-2.3010132e-21
-4.7481721e-21
7.2269122e-21
-6.8213967e-37
-2.3835412e-21
3.3288034e-37
-2.3256726e-21
-2.3793132e-21
2.7165782e-33
7.4546639e-21
-7.0797499e-37
-7.440932e-21
-4.8980238e-21
1.3396971e-33
4.8382193e-21
2.462793e-21
-2.4897316e-21
4.9807079e-21
2.4769736e-21
-8.1059756e-33
-2.3960778e-21
-4.8022418e-21
7.2755155e-21
-2.7074008e-33
-2.4208019e-21
-2.3786044e-21
-2.3257985e-21
-1.2746187e-33
1.2831525e-33
4.6439978e-21
1.282096e-33
-4.5617481e-21
4.4698452e-21
-1.0949586e-32
-6.5078676e-21
4.3294818e-21
-2.3885055e-33
-4.2331484e-21
2.0757037e-21
2.0474226e-21
4.0408224e-21
-1.9875103e-21
-5.8419744e-21
0
0
0
5.4734457e-21
5.4329077e-21
-5.3139886e-21
-5.163434e-21
3.345175e-21
-4.6436065e-37
1.6116979e-21
-5.3055302e-33
-4.6778506e-21
4.5374518e-21
-7.3555003e-33
-2.8958036e-21
-7.9527748e-34
7.8290718e-34
2.7314696e-21
-1.3131698e-21
1.2723224e-21
-4.1776742e-33
-3.7626014e-21
3.7375487e-21
1.2178724e-21
-2.6064149e-33
2.2592794e-21
-2.1995878e-21
-1.0880202e-21
-1.0871368e-21
-3.2312812e-21
1.1677795e-33
1.0189143e-21
2.9654816e-21
-6.4689775e-33
-2.9009245e-21
0
9.5377174e-22
1.8560984e-21
-9.0077223e-22
8.8456182e-22
-2.9347146e-33
-1.7715555e-21
2.6500179e-21
-1.9185852e-33
-9.3474604e-34
-9.2022681e-34
-9.2094936e-34
8.4093503e-22
-2.5371788e-21
-2.4950358e-21
8.0132488e-22
1.5489271e-21
0
-7.8249925e-22
8.9221287e-34
-1.8112648e-33
9.0477209e-34
8.0952294e-22
-8.0642089e-22
-8.0553767e-22
2.3978965e-21
1.1675585e-49
-1.2746063e-33
7.5996869e-22
-8.5665561e-34
1.5932856e-21
-1.6333035e-21
-1.6393478e-21
-8.033788e-22
8.6923028e-34
7.7255717e-22
0
0
0
1.6334491e-21
-8.1664558e-22
-1.6045143e-21
2.3548438e-21
-7.7469066e-22
-2.3362417e-21
2.3875944e-21
-2.7157751e-33
-1.6488744e-21
2.4483436e-21
1.5911311e-21
0
-1.5496557e-21
-2.6111773e-33
-8.0007963e-22
-1.6216203e-21
8.1219946e-22
0
1.6122813e-21
2.2863375e-37
8.8906746e-34
-7.9704546e-22
-2.3902911e-21
2.4079162e-21
-1.3556244e-33
-2.4560938e-21
2.4352667e-21
-3.9859914e-33
-1.5750577e-21
7.9203293e-22
-8.0959414e-22
1.6594102e-21
8.4081922e-22
-3.7217803e-33
-8.3134536e-22
-1.6612317e-21
-8.3481297e-22
-8.4108294e-22
1.6929885e-21
8.515933e-22
0
-8.7613769e-22
4.9272528e-34
1.2274308e-51
8.857323e-22
-2.5116421e-37
8.9369553e-22
-5.7652918e-50
-2.8235682e-21
2.8692329e-21
2.8640164e-21
-1.9008007e-21
-1.909564e-21
0
1.99631e-21
-1.0214588e-21
-3.094279e-21
3.0933067e-21
-1.7171863e-33
-2.084828e-21
1.0672435e-21
0
-1.1187027e-21
-1.1160538e-21
1.1080758e-21
-1.8415917e-33
2.2433893e-21
6.5834534e-37
-3.5959116e-21
0
3.6709154e-21
2.4176741e-21
-3.5924502e-21
-2.3987871e-21
3.6656206e-21
1.2596658e-21
-5.1748346e-21
-1.3165745e-21
2.6441627e-21
2.6242029e-21
-1.4456105e-33
-1.2968154e-21
-1.3020468e-21
-1.3249959e-21
1.3552317e-21
-1.5285416e-33
2.7566908e-21
-4.5357792e-33
-4.0346401e-21
0
0
2.7371082e-21
-3.1054558e-33
-1.4050714e-21
4.1492929e-21
-1.3528906e-21
-2.2032785e-33
-4.377981e-33
-4.0048566e-21
1.3618487e-21
-7.6355887e-34
1.5214439e-33
1.3501925e-21
-1.3291551e-21
1.865499e-37
-7.2196143e-34
1.4373124e-33
1.2926323e-21
0
-1.2797523e-21
2.5241234e-21
1.2420877e-21
-2.4441432e-21
0
1.195844e-21
-1.1869544e-21
-2.3428331e-21
3.4381529e-21
-3.7233308e-33
-3.6489209e-33
1.0832079e-21
-3.2344128e-21
1.5155239e-37
1.042043e-21
1.0095659e-21
-9.7818235e-22
-9.5754208e-22
9.4797683e-22
0
-9.2624089e-22
1.7972538e-21
-1.445825e-33
-8.4490077e-22
-1.8442014e-33
-1.824103e-33
-2.2905074e-37
-1.5550548e-21
2.2366694e-21
2.1603297e-21
0
-1.4087637e-21
-2.1017545e-21
-9.6912731e-38
6.4452413e-22
6.0690662e-22
-5.8493495e-22
-5.8252502e-22
5.9233253e-22
0
1.1822054e-21
1.1271267e-21
-1.5603942e-21
-4.8163943e-22
4.6247394e-22
-1.323697e-37
-4.8138704e-22
-9.8564863e-22
-4.9324563e-22
8.0371731e-34
1.8605181e-21
-1.4931288e-33
-1.3007882e-21
4.1940857e-22
4.1030994e-22
4.1174055e-22
-4.221101e-22
-4.3396401e-22
-4.3930498e-22
-1.2271282e-37
4.1311778e-22
-3.978173e-22
1.1877714e-21
8.1393106e-22
-1.2727583e-21
4.3823005e-22
8.8343819e-22
-8.6584076e-22
4.2008923e-22
-4.1545297e-22
-8.4752555e-22
1.3224044e-21
-4.5888635e-22
1.5660919e-33
1.4127947e-21
-9.3051302e-22
-4.6374405e-22
-4.7179209e-22
-9.7309375e-22
5.0233265e-22
-1.4416785e-77
1.0289823e-21
5.1700552e-22
-5.8386637e-34
-5.4047723e-22
-1.1137721e-21
1.1344897e-21
-5.6803085e-22
-1.7055189e-21
1.7296625e-21
5.9248523e-22
9.7517368e-50
6.2998209e-22
-1.910571e-21
-6.3703395e-22
6.3998224e-22
1.300642e-21
-6.6591649e-22
6.8309166e-22
-2.3215056e-33
-1.4127795e-21
2.1436447e-21
8.0425569e-34
-3.258958e-33
1.648818e-33
-1.5036119e-21
1.5251483e-21
-7.7541756e-22
-3.1520295e-21
7.964495e-22
1.5986736e-21
0
1.620333e-21
-1.8307812e-33
-4.7944643e-37
-9.5091787e-34
-8.5682291e-22
-8.541649e-22
8.5688699e-22
8.6751194e-22
-1.773871e-21
1.8113427e-21
-1.0137261e-33
-1.8155119e-21
1.8035547e-21
3.0032668e-33
-1.0092372e-33
-9.2475153e-22
-1.8807525e-21
9.4978734e-22
-9.5198035e-22
5.2754363e-34
9.4886488e-22
1.8972164e-21
-9.4966276e-22
-1.9066959e-21
9.6089881e-22
-9.6704594e-22
1.6127847e-33
-9.6535569e-22
-2.1345591e-33
1.9205896e-21
1.9287899e-21
2.1483609e-33
-3.2170311e-33
3.1950435e-33
-9.5099593e-22
-9.4846367e-22
-9.5405782e-22
9.6190095e-22
0
0
-9.3695986e-22
5.1525818e-34
1.3189004e-37
1.0404526e-33
9.4230438e-22
0
-9.2279628e-22
-1.8175305e-21
9.0315447e-22
1.8160007e-21
1.8365932e-21
1.8437089e-21
-2.7437554e-21
-3.0039791e-33
2.6729143e-21
-1.7745476e-21
-1.7827764e-21
0
-8.9570826e-22
1.7808669e-21
8.8403049e-22
-1.7675536e-21
-8.9127937e-22
9.9856584e-34
2.6977126e-21
-8.8754707e-22
-2.6255549e-21
2.6159667e-21
8.8181831e-22
-2.7058039e-21
1.0199838e-33
9.2267226e-22
1.8275284e-21
1.0054442e-33
-1.8098822e-21
1.8274703e-21
-9.3414525e-22
-2.8697359e-21
0
9.6442907e-22
1.9179956e-21
-5.3283462e-34
9.7005579e-22
1.9870801e-21
-2.042944e-21
-2.0759627e-21
0
-1.0355501e-21
-1.149999e-33
-1.1630054e-33
-1.1926961e-33
3.3206592e-21
2.2553985e-21
0
-2.2649552e-21
-2.5185784e-33
-1.1454363e-21
-3.5128151e-21
1.2036765e-21
-6.8050597e-34
1.753513e-37
1.237193e-21
2.4799525e-21
-1.2487808e-21
-2.5415077e-21
1.3018546e-21
0
2.6632217e-21
-1.3342161e-21
-4.0011662e-21
1.3379764e-21
1.3568952e-21
2.7729406e-21
-1.4095646e-21
-4.2459631e-21
1.4149353e-21
-1.5677476e-33
-2.8260622e-21
1.4292531e-21
1.4543126e-21
2.9452908e-21
4.42257e-21
-2.9378833e-21
-2.9255479e-21
2.9179808e-21
1.6294024e-33
-2.9695235e-21
2.9908023e-21
1.6614557e-33
-2.9847871e-21
0
2.9801429e-21
2.969252e-21
0
-4.3535135e-21
-1.4312516e-21
-4.0969727e-37
-1.4669521e-21
-1.4731664e-21
-1.6157475e-33
2.8591593e-21
2.7478265e-21
-4.4715196e-33
-2.7323972e-21
2.7937053e-21
4.714447e-33
-2.8257082e-21
0
0
0
0
2.5695708e-21
1.4395398e-33
-2.6023138e-21
-1.2970457e-21
2.5612552e-21
-4.1810685e-33
-2.4610169e-21
2.412244e-21
1.3133338e-33
-1.1667772e-21
2.3176322e-21
-3.8419721e-33
-2.2803453e-21
2.2350728e-21
2.1825899e-21
-2.125916e-21
-2.0803068e-21
0
0
0
0
-9.5931243e-22
9.3229931e-22
9.1203193e-22
-1.000972e-33
5.5220445e-77
-8.7766268e-22
-1.7029335e-21
-8.2272523e-22
1.5984423e-21
2.3507982e-21
-7.7483136e-22
-1.5254332e-21
2.2281422e-21
1.4356456e-21
-2.0806977e-21
-1.3518065e-21
-6.6490552e-22
-7.2613735e-34
1.2728927e-21
0
-5.8359817e-22
5.6518773e-22
-1.2336755e-33
-1.5636568e-37
-1.7964759e-33
-5.1887551e-22
-4.9133795e-22
1.3257536e-37
9.026525e-22
8.8861899e-22
-1.4628873e-33
-8.5805735e-22
0
0
0
-3.5348982e-22
-3.4334508e-22
3.3368935e-22
3.2155867e-22
-3.0686775e-22
5.8471557e-22
8.4038263e-22
0
-5.162464e-22
-2.7109963e-34
-2.2842541e-22
-6.4152723e-22
2.0281448e-22
-3.2459296e-34
3.7639429e-22
-1.2010323e-33
-3.3825633e-22
-8.5792881e-35
-1.9926809e-38
1.2935997e-22
-1.2195636e-22
2.3194794e-22
1.0837531e-22
-1.9575578e-22
1.7378042e-22
2.2234982e-38
-7.9790832e-35
-6.5389073e-23
-1.6950848e-22
9.2282984e-23
4.8678145e-52
3.5273848e-23
-5.6434992e-35
-5.9318208e-23
1.8395661e-23
4.7140969e-24
8.9240539e-36
2.166556e-23
-9.1848146e-41
4.4522029e-24
-1.0862534e-24
-2.5488863e-23
-3.1013002e-23
8.1028728e-23
-7.3363039e-23
-3.007366e-35
1.1280572e-34
-4.7322665e-35
6.1541473e-23
-8.4954187e-23
4.7031193e-23
8.5401143e-23
-3.5079982e-23
2.9831206e-23
-6.2818724e-23
6.5277439e-35
1.3437726e-22
0
0
-6.3799072e-23
-1.628894e-23
4.0324346e-23
-5.7476183e-23
-1.7125545e-38
8.5129032e-35
2.1196167e-36
-2.6115616e-23
3.7191031e-23
2.0011557e-23
5.6634255e-24
2.6207629e-23
-9.1316875e-24
3.6750911e-23
0
0
-7.688282e-23
3.7720555e-35
1.7252261e-22
1.6423018e-38
-1.4436391e-22
-9.4627191e-23
1.2973596e-34
4.0410482e-22
3.2809233e-34
-3.1444005e-22
0
-1.654694e-22
3.3102909e-22
1.7165784e-22
-4.1864075e-34
-2.1276183e-22
-4.7504557e-22
2.5756584e-22
0
0
0
0
-2.9021891e-22
1.7538611e-34
1.0234791e-21
-3.6071328e-22
-1.1126545e-21
1.1171607e-21
3.7398102e-22
-7.6527006e-22
-3.9968997e-22
-7.0359689e-34
1.3367475e-21
-2.6318946e-37
-1.570274e-33
-4.735452e-22
-9.5551397e-22
-4.8844907e-22
-5.6131062e-34
5.2738787e-22
5.4664505e-22
5.5724819e-22
5.5875499e-22
-1.2435945e-33
-1.1330098e-21
0
0
-6.1551088e-22
-1.0445227e-33
-8.9678281e-38
8.9953019e-38
6.3789339e-22
1.291021e-21
1.3084654e-21
-1.3238375e-21
-7.4118844e-34
-6.709957e-22
-2.0295013e-21
0
0
7.0037203e-22
6.9583224e-22
0
-6.8691414e-22
3.8249732e-34
6.9725759e-22
-7.0531278e-22
1.416452e-21
-2.3536328e-33
-2.1114703e-21
7.0250004e-22
7.0216081e-22
1.3982744e-21
-6.8991518e-22
-2.0366511e-21
6.7225094e-22
-3.73708e-34
1.3598293e-21
6.8430449e-22
-1.3584761e-21
1.3282986e-21
1.9432855e-50
-1.2743123e-21
0
0
1.2638122e-21
-6.953692e-34
-2.0578698e-33
1.4211351e-50
-1.795147e-21
-6.5350085e-34
5.7647233e-22
1.1274337e-21
1.1059704e-21
-1.0924186e-21
-1.2057359e-33
-5.3774512e-22
-1.7508318e-33
5.0698985e-22
-9.7812693e-22
0
-4.7517487e-22
5.271846e-34
4.6927647e-22
9.0910424e-22
4.8241131e-34
-8.3531648e-22
0
0
-4.0758316e-22
2.2230309e-34
1.1527839e-21
4.0554538e-34
-7.030617e-22
0
3.4698583e-22
-3.4703562e-22
-3.3966295e-22
-3.2272945e-22
-3.0519337e-22
5.9047375e-22
8.8138757e-22
-2.9710153e-22
-5.9651222e-22
8.7355714e-22
7.2166821e-51
-5.2133521e-22
0
0
0
0
5.2241402e-22
4.958187e-22
-2.3495664e-22
-6.9025812e-22
-2.595311e-34
2.4149558e-22
-4.9474148e-22
-4.9267895e-22
2.3831545e-22
9.2372591e-22
4.5982516e-22
-7.0431593e-22
-4.8464561e-22
7.4131818e-22
5.4750733e-34
-4.8846044e-22
0
0
0
5.2726587e-22
2.9025188e-34
-5.670179e-34
2.5417869e-22
-7.9106835e-22
2.8014987e-22
2.9634951e-22
-9.1766766e-22
-6.0930827e-22
2.9563222e-22
5.8034017e-22
5.8959736e-22
-1.0270257e-33
3.6158558e-34
-9.6643585e-38
-6.9753827e-22
0
-3.5548704e-22
-3.5862974e-22
3.6192736e-22
3.6638566e-22
-3.7339681e-22
-3.8363914e-22
7.9265439e-22
4.0797681e-22
-4.1397425e-22
4.1324145e-22
-4.1263912e-22
-8.3396812e-22
0
0
1.3652824e-21
4.5944737e-22
-9.1012934e-22
-4.5102718e-22
-4.537166e-22
9.2861521e-22
-5.3342514e-34
-9.864354e-22
0
4.8956291e-22
1.448448e-21
1.0703858e-33