/*--------------------------------*- C++ -*----------------------------------*\
  =========                 |
  \\      /  F ield         | OpenFOAM: The Open Source CFD Toolbox
   \\    /   O peration     | Website:  https://openfoam.org
    \\  /    A nd           | Version:  7
     \\/     M anipulation  |
\*---------------------------------------------------------------------------*/
FoamFile
{
    version     2.0;
    format      ascii;
    class       volScalarField;
    location    "0.00069";
    object      p;
}
// * * * * * * * * * * * * * * * * * * * * * * * * * * * * * * * * * * * * * //

dimensions      [1 -1 -2 0 0 0 0];

internalField   nonuniform List<scalar> 
5000
(
106261
106272.8
106284.84
106296.96
106309.11
106321.29
106333.49
106345.7
106357.92
106370.15
106382.38
106394.62
106406.86
106419.1
106431.34
106443.58
106455.83
106468.08
106480.33
106492.59
106504.86
106517.13
106529.4
106541.68
106553.96
106566.24
106578.51
106590.79
106603.05
106615.31
106627.55
106639.78
106652
106664.21
106676.39
106688.56
106700.71
106712.84
106724.95
106737.04
106749.11
106761.17
106773.21
106785.23
106797.24
106809.24
106821.23
106833.22
106845.2
106857.18
106869.16
106881.15
106893.14
106905.14
106917.15
106929.16
106941.2
106953.24
106965.3
106977.37
106989.45
107001.55
107013.66
107025.78
107037.92
107050.06
107062.21
107074.37
107086.54
107098.72
107110.9
107123.09
107135.28
107147.48
107159.68
107171.88
107184.08
107196.29
107208.49
107220.7
107232.9
107245.11
107257.31
107269.52
107281.72
107293.93
107306.13
107318.33
107330.53
107342.73
107354.93
107367.12
107379.32
107391.51
107403.7
107415.89
107428.08
107440.27
107452.45
107464.64
107476.82
107489
107501.18
107513.36
107525.54
107537.71
107549.89
107562.06
107574.23
107586.4
107598.57
107610.74
107622.9
107635.07
107647.23
107659.39
107671.55
107683.71
107695.86
107708.02
107720.17
107732.32
107744.47
107756.62
107768.77
107780.91
107793.06
107805.2
107817.34
107829.48
107841.62
107853.76
107865.89
107878.03
107890.16
107902.29
107914.42
107926.55
107938.68
107950.8
107962.92
107975.05
107987.17
107999.29
108011.4
108023.52
108035.64
108047.75
108059.86
108071.97
108084.08
108096.19
108108.29
108120.4
108132.5
108144.6
108156.7
108168.8
108180.9
108193
108205.09
108217.18
108229.28
108241.37
108253.45
108265.54
108277.63
108289.71
108301.79
108313.88
108325.96
108338.03
108350.11
108362.19
108374.26
108386.33
108398.4
108410.47
108422.54
108434.61
108446.68
108458.74
108470.8
108482.86
108494.92
108506.98
108519.04
108531.09
108543.15
108555.2
108567.25
108579.3
108591.35
108603.4
108615.44
108627.49
108639.53
108651.57
108663.61
108675.65
108687.69
108699.72
108711.76
108723.79
108735.82
108747.85
108759.88
108771.9
108783.93
108795.95
108807.98
108820
108832.02
108844.04
108856.05
108868.07
108880.08
108892.1
108904.11
108916.12
108928.13
108940.13
108952.14
108964.14
108976.15
108988.15
109000.15
109012.15
109024.15
109036.14
109048.14
109060.13
109072.12
109084.11
109096.1
109108.09
109120.07
109132.06
109144.04
109156.03
109168.01
109179.99
109191.96
109203.94
109215.91
109227.89
109239.86
109251.83
109263.8
109275.77
109287.74
109299.7
109311.67
109323.63
109335.59
109347.55
109359.51
109371.47
109383.42
109395.38
109407.33
109419.28
109431.23
109443.18
109455.13
109467.07
109479.02
109490.96
109502.9
109514.84
109526.78
109538.72
109550.66
109562.59
109574.53
109586.46
109598.39
109610.32
109622.25
109634.18
109646.1
109658.03
109669.95
109681.87
109693.79
109705.71
109717.63
109729.54
109741.46
109753.37
109765.28
109777.19
109789.1
109801.01
109812.92
109824.82
109836.73
109848.63
109860.53
109872.43
109884.33
109896.23
109908.12
109920.02
109931.91
109943.8
109955.69
109967.58
109979.47
109991.36
110003.24
110015.12
110027.01
110038.89
110050.77
110062.65
110074.52
110086.4
110098.27
110110.15
110122.02
110133.89
110145.76
110157.63
110169.49
110181.36
110193.22
110205.08
110216.94
110228.8
110240.66
110252.52
110264.38
110276.23
110288.08
110299.94
110311.79
110323.64
110335.48
110347.33
110359.18
110371.02
110382.86
110394.7
110406.54
110418.38
110430.22
110442.05
110453.89
110465.72
110477.56
110489.39
110501.22
110513.04
110524.87
110536.7
110548.52
110560.34
110572.16
110583.99
110595.8
110607.62
110619.44
110631.25
110643.07
110654.88
110666.69
110678.5
110690.31
110702.12
110713.92
110725.73
110737.53
110749.33
110761.13
110772.93
110784.73
110796.53
110808.32
110820.12
110831.91
110843.7
110855.49
110867.28
110879.07
110890.86
110902.64
110914.43
110926.21
110937.99
110949.77
110961.55
110973.33
110985.1
110996.88
111008.65
111020.43
111032.2
111043.97
111055.74
111067.5
111079.27
111091.03
111102.8
111114.56
111126.32
111138.08
111149.84
111161.6
111173.35
111185.11
111196.86
111208.61
111220.36
111232.11
111243.86
111255.61
111267.35
111279.1
111290.84
111302.58
111314.32
111326.06
111337.8
111349.53
111361.27
111373
111384.74
111396.47
111408.2
111419.93
111431.66
111443.38
111455.11
111466.83
111478.55
111490.28
111502
111513.72
111525.43
111537.15
111548.87
111560.58
111572.29
111584
111595.72
111607.43
111619.13
111630.84
111642.55
111654.25
111665.96
111677.66
111689.36
111701.06
111712.76
111724.46
111736.15
111747.85
111759.55
111771.24
111782.93
111794.62
111806.31
111818
111829.69
111841.38
111853.07
111864.75
111876.44
111888.12
111899.8
111911.48
111923.17
111934.85
111946.52
111958.2
111969.88
111981.56
111993.23
112004.91
112016.58
112028.25
112039.92
112051.6
112063.27
112074.94
112086.6
112098.27
112109.94
112121.61
112133.27
112144.94
112156.6
112168.26
112179.93
112191.59
112203.25
112214.91
112226.57
112238.23
112249.89
112261.54
112273.2
112284.86
112296.51
112308.17
112319.82
112331.48
112343.13
112354.78
112366.43
112378.08
112389.73
112401.38
112413.03
112424.68
112436.33
112447.98
112459.62
112471.27
112482.91
112494.56
112506.2
112517.84
112529.49
112541.13
112552.77
112564.41
112576.05
112587.69
112599.33
112610.97
112622.6
112634.24
112645.88
112657.51
112669.15
112680.78
112692.42
112704.05
112715.68
112727.32
112738.95
112750.58
112762.21
112773.84
112785.47
112797.09
112808.72
112820.35
112831.98
112843.6
112855.23
112866.85
112878.48
112890.1
112901.72
112913.35
112924.97
112936.59
112948.21
112959.83
112971.45
112983.07
112994.69
113006.31
113017.93
113029.54
113041.16
113052.77
113064.39
113076
113087.62
113099.23
113110.85
113122.46
113134.07
113145.68
113157.29
113168.9
113180.51
113192.12
113203.73
113215.34
113226.95
113238.56
113250.16
113261.77
113273.38
113284.98
113296.59
113308.19
113319.8
113331.4
113343
113354.6
113366.21
113377.81
113389.41
113401.01
113412.61
113424.21
113435.8
113447.4
113459
113470.6
113482.19
113493.79
113505.38
113516.98
113528.57
113540.17
113551.76
113563.35
113574.94
113586.53
113598.12
113609.71
113621.3
113632.89
113644.48
113656.07
113667.65
113679.24
113690.82
113702.41
113713.99
113725.57
113737.15
113748.74
113760.32
113771.9
113783.47
113795.05
113806.63
113818.2
113829.78
113841.35
113852.93
113864.5
113876.07
113887.64
113899.21
113910.78
113922.35
113933.92
113945.48
113957.05
113968.61
113980.18
113991.74
114003.3
114014.86
114026.42
114037.98
114049.53
114061.09
114072.64
114084.2
114095.75
114107.3
114118.85
114130.4
114141.95
114153.5
114165.04
114176.59
114188.13
114199.67
114211.21
114222.75
114234.29
114245.83
114257.36
114268.9
114280.43
114291.96
114303.5
114315.02
114326.55
114338.08
114349.61
114361.13
114372.66
114384.18
114395.7
114407.22
114418.74
114430.25
114441.77
114453.29
114464.8
114476.31
114487.82
114499.33
114510.84
114522.35
114533.85
114545.36
114556.86
114568.36
114579.86
114591.36
114602.86
114614.35
114625.85
114637.34
114648.84
114660.33
114671.82
114683.31
114694.79
114706.28
114717.76
114729.25
114740.73
114752.21
114763.69
114775.17
114786.65
114798.12
114809.6
114821.07
114832.54
114844.01
114855.48
114866.95
114878.42
114889.88
114901.34
114912.81
114924.27
114935.73
114947.19
114958.65
114970.1
114981.56
114993.01
115004.46
115015.91
115027.36
115038.81
115050.26
115061.71
115073.15
115084.59
115096.04
115107.48
115118.92
115130.36
115141.79
115153.23
115164.66
115176.1
115187.53
115198.96
115210.39
115221.82
115233.25
115244.67
115256.1
115267.52
115278.94
115290.36
115301.78
115313.2
115324.62
115336.03
115347.45
115358.86
115370.27
115381.68
115393.09
115404.5
115415.91
115427.31
115438.72
115450.12
115461.52
115472.92
115484.32
115495.72
115507.12
115518.51
115529.91
115541.3
115552.69
115564.08
115575.47
115586.86
115598.24
115609.63
115621.01
115632.4
115643.78
115655.16
115666.54
115677.92
115689.29
115700.67
115712.04
115723.42
115734.79
115746.16
115757.53
115768.9
115780.26
115791.63
115802.99
115814.36
115825.72
115837.08
115848.44
115859.8
115871.15
115882.51
115893.86
115905.22
115916.57
115927.92
115939.27
115950.62
115961.96
115973.31
115984.65
115996
116007.34
116018.68
116030.02
116041.36
116052.7
116064.03
116075.37
116086.7
116098.03
116109.36
116120.69
116132.02
116143.35
116154.67
116166
116177.32
116188.64
116199.96
116211.28
116222.6
116233.92
116245.24
116256.55
116267.86
116279.18
116290.49
116301.8
116313.11
116324.41
116335.72
116347.02
116358.33
116369.63
116380.93
116392.23
116403.53
116414.83
116426.12
116437.42
116448.71
116460.01
116471.3
116482.59
116493.88
116505.16
116516.45
116527.73
116539.02
116550.3
116561.58
116572.86
116584.14
116595.42
116606.7
116617.97
116629.25
116640.52
116651.79
116663.06
116674.33
116685.6
116696.86
116708.13
116719.39
116730.66
116741.92
116753.18
116764.44
116775.7
116786.95
116798.21
116809.46
116820.72
116831.97
116843.22
116854.47
116865.72
116876.96
116888.21
116899.45
116910.7
116921.94
116933.18
116944.42
116955.66
116966.89
116978.13
116989.36
117000.6
117011.83
117023.06
117034.29
117045.52
117056.74
117067.97
117079.19
117090.42
117101.64
117112.86
117124.08
117135.3
117146.52
117157.73
117168.95
117180.16
117191.37
117202.58
117213.79
117225
117236.21
117247.41
117258.62
117269.82
117281.03
117292.23
117303.43
117314.62
117325.82
117337.02
117348.21
117359.41
117370.6
117381.79
117392.98
117404.17
117415.36
117426.54
117437.73
117448.91
117460.09
117471.27
117482.45
117493.63
117504.81
117515.98
117527.16
117538.33
117549.51
117560.68
117571.85
117583.02
117594.18
117605.35
117616.51
117627.68
117638.84
117650
117661.16
117672.32
117683.48
117694.63
117705.79
117716.94
117728.09
117739.24
117750.39
117761.54
117772.69
117783.84
117794.98
117806.12
117817.27
117828.41
117839.55
117850.68
117861.82
117872.96
117884.09
117895.22
117906.36
117917.49
117928.62
117939.74
117950.87
117962
117973.12
117984.24
117995.36
118006.48
118017.6
118028.72
118039.83
118050.95
118062.06
118073.17
118084.28
118095.39
118106.5
118117.6
118128.71
118139.81
118150.91
118162.01
118173.11
118184.2
118195.3
118206.39
118217.48
118228.57
118239.65
118250.74
118261.82
118272.9
118283.98
118295.06
118306.13
118317.2
118328.27
118339.34
118350.41
118361.47
118372.53
118383.58
118394.64
118405.69
118416.74
118427.78
118438.83
118449.87
118460.9
118471.93
118482.96
118493.99
118505.01
118516.02
118527.04
118538.04
118549.05
118560.04
118571.04
118582.02
118593.01
118603.98
118614.96
118625.92
118636.88
118647.83
118658.78
118669.71
118680.65
118691.57
118702.48
118713.39
118724.29
118735.18
118746.06
118756.93
118767.79
118778.64
118789.48
118800.3
118811.12
118821.92
118832.71
118843.49
118854.25
118865.01
118875.74
118886.46
118897.17
118907.85
118918.53
118929.18
118939.82
118950.44
118961.03
118971.61
118982.17
118992.71
119003.22
119013.71
119024.18
119034.63
119045.05
119055.44
119065.81
119076.14
119086.46
119096.74
119106.99
119117.21
119127.4
119137.55
119147.67
119157.76
119167.81
119177.82
119187.8
119197.73
119207.63
119217.48
119227.3
119237.06
119246.79
119256.47
119266.1
119275.68
119285.21
119294.69
119304.12
119313.49
119322.81
119332.08
119341.28
119350.43
119359.51
119368.54
119377.5
119386.39
119395.22
119403.98
119412.67
119421.29
119429.83
119438.3
119446.69
119455.01
119463.24
119471.4
119479.47
119487.45
119495.35
119503.16
119510.88
119518.5
119526.03
119533.46
119540.8
119548.03
119555.16
119562.18
119569.1
119575.91
119582.6
119589.18
119595.65
119601.99
119608.22
119614.32
119620.29
119626.14
119631.85
119637.44
119642.88
119648.19
119653.35
119658.37
119663.24
119667.97
119672.54
119676.95
119681.2
119685.3
119689.23
119692.99
119696.57
119699.99
119703.23
119706.28
119709.15
119711.84
119714.33
119716.63
119718.73
119720.63
119722.32
119723.8
119725.08
119726.13
119726.97
119727.58
119727.96
119728.11
119728.02
119727.7
119727.13
119726.31
119725.24
119723.91
119722.32
119720.47
119718.35
119715.95
119713.28
119710.32
119707.08
119703.54
119699.71
119695.58
119691.15
119686.4
119681.35
119675.97
119670.27
119664.25
119657.89
119651.2
119644.17
119636.79
119629.07
119620.99
119612.55
119603.75
119594.58
119585.04
119575.13
119564.83
119554.15
119543.09
119531.63
119519.77
119507.52
119494.86
119481.79
119468.31
119454.41
119440.09
119425.35
119410.19
119394.59
119378.56
119362.09
119345.18
119327.83
119310.04
119291.79
119273.09
119253.94
119234.33
119214.27
119193.74
119172.74
119151.29
119129.36
119106.96
119084.09
119060.75
119036.94
119012.64
118987.88
118962.63
118936.9
118910.7
118884.01
118856.85
118829.2
118801.07
118772.46
118743.37
118713.8
118683.75
118653.22
118622.2
118590.71
118558.75
118526.3
118493.38
118459.99
118426.12
118391.79
118356.98
118321.71
118285.97
118249.77
118213.11
118176
118138.43
118100.4
118061.93
118023.01
117983.65
117943.85
117903.61
117862.94
117821.84
117780.32
117738.37
117696.01
117653.24
117610.05
117566.46
117522.48
117478.09
117433.32
117388.16
117342.62
117296.71
117250.42
117203.77
117156.76
117109.4
117061.68
117013.63
116965.23
116916.5
116867.45
116818.08
116768.39
116718.4
116668.1
116617.51
116566.63
116515.47
116464.03
116412.32
116360.35
116308.12
116255.64
116202.92
116149.96
116096.77
116043.36
115989.74
115935.9
115881.87
115827.64
115773.23
115718.64
115663.87
115608.94
115553.85
115498.62
115443.24
115387.72
115332.08
115276.32
115220.45
115164.47
115108.4
115052.24
114996
114939.68
114883.3
114826.86
114770.38
114713.85
114657.29
114600.7
114544.09
114487.48
114430.87
114374.26
114317.67
114261.1
114204.56
114148.06
114091.61
114035.21
113978.88
113922.62
113866.45
113810.36
113754.37
113698.48
113642.71
113587.06
113531.54
113476.16
113420.92
113365.85
113310.93
113256.19
113201.62
113147.25
113093.07
113039.1
112985.34
112931.8
112878.49
112825.42
112772.59
112720.02
112667.71
112615.67
112563.9
112512.43
112461.24
112410.36
112359.79
112309.53
112259.6
112210
112160.74
112111.83
112063.28
112015.08
111967.26
111919.81
111872.75
111826.08
111779.8
111733.93
111688.47
111643.43
111598.81
111554.62
111510.87
111467.56
111424.7
111382.29
111340.35
111298.86
111257.85
111217.32
111177.26
111137.69
111098.61
111060.03
111021.94
110984.36
110947.28
110910.71
110874.66
110839.12
110804.1
110769.61
110735.64
110702.2
110669.28
110636.9
110605.05
110573.73
110542.95
110512.71
110483
110453.83
110425.19
110397.1
110369.53
110342.51
110316.02
110290.06
110264.64
110239.74
110215.38
110191.54
110168.22
110145.43
110123.15
110101.39
110080.13
110059.39
110039.15
110019.41
110000.16
109981.41
109963.14
109945.35
109928.03
109911.19
109894.81
109878.89
109863.42
109848.39
109833.81
109819.66
109805.93
109792.63
109779.73
109767.25
109755.16
109743.46
109732.15
109721.21
109710.65
109700.44
109690.59
109681.09
109671.92
109663.09
109654.58
109646.38
109638.49
109630.9
109623.61
109616.59
109609.86
109603.39
109597.19
109591.24
109585.54
109580.08
109574.85
109569.84
109565.05
109560.47
109556.1
109551.92
109547.93
109544.13
109540.51
109537.05
109533.76
109530.63
109527.65
109524.81
109522.12
109519.56
109517.13
109514.83
109512.64
109510.57
109508.61
109506.76
109505
109503.34
109501.77
109500.29
109498.89
109497.57
109496.32
109495.15
109494.05
109493.01
109492.03
109491.11
109490.25
109489.44
109488.67
109487.96
109487.29
109486.66
109486.08
109485.53
109485.01
109484.53
109484.08
109483.66
109483.27
109482.91
109482.57
109482.25
109481.96
109481.68
109481.43
109481.19
109480.97
109480.77
109480.58
109480.41
109480.24
109480.09
109479.95
109479.83
109479.71
109479.6
109479.5
109479.4
109479.32
109479.24
109479.17
109479.1
109479.04
109478.98
109478.93
109478.89
109478.84
109478.8
109478.77
109478.74
109478.71
109478.68
109478.65
109478.63
109478.61
109478.59
109478.58
109478.56
109478.55
109478.54
109478.53
109478.51
109478.5
109478.49
109478.48
109478.47
109478.46
109478.44
109478.43
109478.41
109478.4
109478.38
109478.37
109478.35
109478.34
109478.32
109478.31
109478.29
109478.28
109478.27
109478.25
109478.24
109478.22
109478.21
109478.2
109478.18
109478.17
109478.16
109478.15
109478.14
109478.13
109478.12
109478.11
109478.11
109478.1
109478.09
109478.09
109478.08
109478.07
109478.07
109478.06
109478.05
109478.04
109478.04
109478.03
109478.02
109478.01
109478.01
109478
109477.99
109477.98
109477.97
109477.96
109477.95
109477.94
109477.93
109477.92
109477.91
109477.9
109477.89
109477.88
109477.87
109477.87
109477.86
109477.85
109477.85
109477.84
109477.83
109477.83
109477.82
109477.82
109477.81
109477.81
109477.8
109477.8
109477.79
109477.79
109477.78
109477.78
109477.77
109477.76
109477.76
109477.75
109477.75
109477.74
109477.74
109477.73
109477.72
109477.72
109477.71
109477.71
109477.7
109477.7
109477.69
109477.69
109477.68
109477.67
109477.67
109477.67
109477.66
109477.65
109477.65
109477.64
109477.64
109477.63
109477.63
109477.63
109477.62
109477.62
109477.61
109477.61
109477.6
109477.59
109477.59
109477.58
109477.58
109477.57
109477.57
109477.56
109477.56
109477.55
109477.55
109477.54
109477.54
109477.54
109477.54
109477.54
109477.54
109477.54
109477.54
109477.54
109477.54
109477.54
109477.54
109477.54
109477.54
109477.54
109477.54
109477.53
109477.53
109477.53
109477.53
109477.52
109477.52
109477.52
109477.52
109477.51
109477.51
109477.51
109477.5
109477.5
109477.5
109477.5
109477.49
109477.49
109477.49
109477.49
109477.48
109477.48
109477.48
109477.48
109477.48
109477.47
109477.47
109477.47
109477.47
109477.47
109477.47
109477.47
109477.46
109477.46
109477.46
109477.46
109477.46
109477.46
109477.45
109477.45
109477.45
109477.45
109477.44
109477.44
109477.44
109477.44
109477.43
109477.43
109477.43
109477.43
109477.43
109477.43
109477.43
109477.42
109477.42
109477.42
109477.42
109477.42
109477.42
109477.42
109477.42
109477.43
109477.43
109477.43
109477.43
109477.43
109477.43
109477.43
109477.43
109477.43
109477.43
109477.43
109477.42
109477.42
109477.42
109477.42
109477.42
109477.42
109477.42
109477.42
109477.42
109477.43
109477.43
109477.43
109477.43
109477.43
109477.43
109477.43
109477.43
109477.43
109477.43
109477.44
109477.44
109477.44
109477.44
109477.44
109477.45
109477.45
109477.45
109477.45
109477.46
109477.46
109477.46
109477.46
109477.46
109477.47
109477.47
109477.47
109477.47
109477.47
109477.47
109477.47
109477.48
109477.48
109477.48
109477.48
109477.48
109477.48
109477.48
109477.48
109477.48
109477.48
109477.48
109477.49
109477.49
109477.49
109477.49
109477.49
109477.49
109477.49
109477.49
109477.49
109477.5
109477.5
109477.5
109477.5
109477.5
109477.5
109477.5
109477.51
109477.51
109477.51
109477.51
109477.51
109477.51
109477.51
109477.52
109477.52
109477.52
109477.52
109477.52
109477.52
109477.53
109477.53
109477.53
109477.53
109477.53
109477.54
109477.54
109477.54
109477.54
109477.54
109477.54
109477.55
109477.55
109477.55
109477.55
109477.55
109477.55
109477.55
109477.56
109477.56
109477.56
109477.56
109477.56
109477.56
109477.56
109477.56
109477.56
109477.56
109477.57
109477.57
109477.57
109477.57
109477.57
109477.57
109477.57
109477.57
109477.57
109477.57
109477.57
109477.57
109477.57
109477.58
109477.58
109477.58
109477.58
109477.58
109477.58
109477.58
109477.58
109477.58
109477.58
109477.58
109477.58
109477.59
109477.59
109477.59
109477.59
109477.59
109477.59
109477.59
109477.59
109477.59
109477.6
109477.6
109477.6
109477.6
109477.6
109477.6
109477.6
109477.6
109477.6
109477.61
109477.61
109477.61
109477.61
109477.61
109477.61
109477.61
109477.61
109477.62
109477.62
109477.62
109477.62
109477.62
109477.62
109477.62
109477.62
109477.63
109477.63
109477.63
109477.63
109477.63
109477.63
109477.63
109477.63
109477.63
109477.63
109477.63
109477.63
109477.64
109477.64
109477.64
109477.64
109477.64
109477.64
109477.64
109477.64
109477.64
109477.64
109477.64
109477.64
109477.64
109477.64
109477.64
109477.64
109477.64
109477.65
109477.65
109477.65
109477.65
109477.65
109477.65
109477.65
109477.65
109477.65
109477.65
109477.65
109477.65
109477.65
109477.65
109477.65
109477.65
109477.65
109477.65
109477.66
109477.66
109477.66
109477.66
109477.66
109477.66
109477.66
109477.66
109477.66
109477.66
109477.66
109477.67
109477.67
109477.67
109477.67
109477.67
109477.67
109477.67
109477.67
109477.67
109477.68
109477.68
109477.68
109477.68
109477.68
109477.68
109477.68
109477.68
109477.68
109477.69
109477.69
109477.69
109477.69
109477.69
109477.69
109477.69
109477.69
109477.69
109477.69
109477.7
109477.7
109477.7
109477.7
109477.7
109477.7
109477.7
109477.7
109477.7
109477.7
109477.7
109477.7
109477.7
109477.7
109477.7
109477.7
109477.7
109477.7
109477.71
109477.71
109477.71
109477.71
109477.71
109477.71
109477.71
109477.71
109477.71
109477.71
109477.71
109477.71
109477.71
109477.71
109477.71
109477.71
109477.71
109477.71
109477.71
109477.71
109477.71
109477.71
109477.71
109477.71
109477.71
109477.71
109477.71
109477.71
109477.71
109477.71
109477.71
109477.71
109477.71
109477.71
109477.72
109477.72
109477.72
109477.72
109477.72
109477.72
109477.72
109477.72
109477.72
109477.72
109477.72
109477.72
109477.72
109477.72
109477.72
109477.73
109477.73
109477.73
109477.73
109477.73
109477.73
109477.73
109477.73
109477.73
109477.73
109477.73
109477.73
109477.73
109477.74
109477.74
109477.74
109477.74
109477.74
109477.74
109477.74
109477.74
109477.74
109477.74
109477.74
109477.74
109477.75
109477.75
109477.75
109477.75
109477.75
109477.75
109477.75
109477.75
109477.75
109477.75
109477.75
109477.75
109477.75
109477.75
109477.76
109477.76
109477.76
109477.76
109477.76
109477.76
109477.76
109477.76
109477.76
109477.76
109477.76
109477.76
109477.76
109477.76
109477.76
109477.76
109477.76
109477.77
109477.77
109477.77
109477.77
109477.77
109477.77
109477.77
109477.77
109477.77
109477.77
109477.77
109477.77
109477.77
109477.77
109477.77
109477.77
109477.77
109477.77
109477.77
109477.77
109477.77
109477.77
109477.77
109477.77
109477.77
109477.77
109477.78
109477.78
109477.78
109477.78
109477.78
109477.78
109477.78
109477.78
109477.78
109477.78
109477.78
109477.78
109477.78
109477.78
109477.78
109477.78
109477.78
109477.78
109477.78
109477.78
109477.78
109477.78
109477.78
109477.78
109477.78
109477.78
109477.78
109477.78
109477.78
109477.79
109477.79
109477.79
109477.79
109477.79
109477.79
109477.79
109477.79
109477.79
109477.79
109477.79
109477.79
109477.79
109477.79
109477.79
109477.79
109477.79
109477.79
109477.79
109477.79
109477.79
109477.79
109477.79
109477.79
109477.79
109477.79
109477.79
109477.79
109477.79
109477.79
109477.79
109477.8
109477.8
109477.8
109477.8
109477.8
109477.8
109477.8
109477.8
109477.8
109477.8
109477.8
109477.8
109477.8
109477.8
109477.8
109477.8
109477.8
109477.8
109477.8
109477.8
109477.8
109477.8
109477.8
109477.8
109477.8
109477.8
109477.8
109477.8
109477.8
109477.8
109477.8
109477.8
109477.8
109477.8
109477.8
109477.8
109477.8
109477.8
109477.8
109477.8
109477.8
109477.8
109477.8
109477.8
109477.8
109477.8
109477.8
109477.8
109477.8
109477.8
109477.8
109477.8
109477.8
109477.8
109477.8
109477.8
109477.8
109477.8
109477.8
109477.8
109477.8
109477.8
109477.8
109477.8
109477.8
109477.8
109477.8
109477.8
109477.8
109477.81
109477.81
109477.81
109477.81
109477.81
109477.81
109477.81
109477.81
109477.81
109477.81
109477.81
109477.81
109477.81
109477.81
109477.81
109477.81
109477.81
109477.81
109477.81
109477.81
109477.81
109477.81
109477.81
109477.81
109477.81
109477.81
109477.81
109477.81
109477.81
109477.81
109477.81
109477.81
109477.81
109477.81
109477.81
109477.81
109477.81
109477.81
109477.81
109477.81
109477.81
109477.82
109477.82
109477.82
109477.82
109477.82
109477.82
109477.82
109477.82
109477.82
109477.82
109477.82
109477.82
109477.82
109477.82
109477.82
109477.82
109477.82
109477.82
109477.82
109477.82
109477.82
109477.82
109477.82
109477.82
109477.82
109477.82
109477.82
109477.82
109477.82
109477.82
109477.82
109477.82
109477.82
109477.82
109477.82
109477.82
109477.82
109477.82
109477.83
109477.83
109477.83
109477.83
109477.83
109477.83
109477.83
109477.83
109477.83
109477.83
109477.83
109477.83
109477.83
109477.83
109477.83
109477.83
109477.83
109477.83
109477.83
109477.83
109477.83
109477.83
109477.83
109477.83
109477.83
109477.83
109477.83
109477.83
109477.83
109477.83
109477.83
109477.83
109477.83
109477.83
109477.83
109477.83
109477.83
109477.83
109477.83
109477.83
109477.83
109477.83
109477.83
109477.83
109477.83
109477.83
109477.83
109477.83
109477.83
109477.83
109477.83
109477.83
109477.83
109477.83
109477.83
109477.83
109477.83
109477.83
109477.83
109477.83
109477.83
109477.83
109477.83
109477.83
109477.83
109477.83
109477.83
109477.83
109477.83
109477.83
109477.83
109477.83
109477.83
109477.83
109477.83
109477.83
109477.83
109477.83
109477.83
109477.83
109477.84
109477.84
109477.84
109477.84
109477.84
109477.84
109477.84
109477.84
109477.84
109477.84
109477.84
109477.84
109477.84
109477.84
109477.84
109477.84
109477.84
109477.84
109477.84
109477.84
109477.84
109477.84
109477.84
109477.84
109477.84
109477.84
109477.84
109477.84
109477.84
109477.84
109477.84
109477.84
109477.84
109477.84
109477.84
109477.84
109477.84
109477.84
109477.84
109477.84
109477.84
109477.84
109477.84
109477.84
109477.84
109477.84
109477.84
109477.84
109477.84
109477.84
109477.84
109477.84
109477.84
109477.84
109477.84
109477.85
109477.85
109477.85
109477.84
109477.84
109477.84
109477.83
109477.82
109477.82
109477.81
109477.81
109477.82
109477.83
109477.84
109477.86
109477.89
109477.91
109477.92
109477.92
109477.91
109477.93
109477.68
109477.78
109477.82
109477.8
109477.8
109477.8
109477.81
109477.82
109477.83
109477.84
109477.85
109477.85
109477.85
109477.85
109477.85
109477.85
109477.84
109477.84
109477.84
109477.84
109477.84
109477.84
109477.84
109477.84
109477.84
109477.84
109477.84
109477.84
109477.84
109477.84
109477.84
109477.84
109477.84
109477.84
109477.84
109477.84
109477.84
109477.84
109477.84
109477.84
109477.84
109477.84
109477.84
109477.84
109477.84
109477.84
109477.84
109477.84
109477.84
109477.84
109477.84
109477.84
109477.84
109477.84
109477.84
109477.84
109477.84
109477.84
109477.84
109477.84
109477.84
109477.84
109477.84
109477.84
109477.84
109477.84
109477.84
109477.84
109477.84
109477.84
109477.84
109477.84
109477.84
109477.84
109477.84
109477.84
109477.84
109477.84
109477.84
109477.84
109477.84
109477.84
109477.84
109477.84
109477.84
109477.84
109477.84
109477.84
109477.84
109477.84
109477.84
109477.84
109477.84
109477.84
109477.84
109477.84
109477.84
109477.84
109477.84
109477.84
109477.84
109477.84
109477.84
109477.84
109477.84
109477.84
109477.84
109477.84
109477.84
109477.84
109477.84
109477.84
109477.84
109477.84
109477.84
109477.84
109477.84
109477.84
109477.84
109477.84
109477.84
109477.84
109477.84
109477.84
109477.84
109477.84
109477.84
109477.84
109477.84
109477.84
109477.84
109477.84
109477.84
109477.84
109477.84
109477.84
109477.84
109477.84
109477.84
109477.84
109477.84
109477.84
109477.84
109477.84
109477.84
109477.84
109477.84
109477.84
109477.84
109477.84
109477.84
109477.84
109477.84
109477.84
109477.84
109477.84
109477.84
109477.84
109477.84
109477.84
109477.84
109477.84
109477.84
109477.84
109477.84
109477.84
109477.84
109477.84
109477.84
109477.84
109477.85
109477.85
109477.85
109477.85
109477.85
109477.85
109477.85
109477.85
109477.85
109477.85
109477.85
109477.85
109477.85
109477.85
109477.85
109477.85
109477.85
109477.85
109477.85
109477.85
109477.85
109477.85
109477.85
109477.85
109477.85
109477.85
109477.85
109477.85
109477.85
109477.85
109477.85
109477.85
109477.85
109477.85
109477.85
109477.85
109477.85
109477.85
109477.84
109477.84
109477.84
109477.84
109477.84
109477.84
109477.84
109477.84
109477.84
109477.84
109477.84
109477.84
109477.84
109477.84
109477.84
109477.84
109477.84
109477.84
109477.84
109477.84
109477.84
109477.84
109477.84
109477.84
109477.84
109477.84
109477.84
109477.84
109477.84
109477.84
109477.84
109477.84
109477.84
109477.84
109477.84
109477.83
109477.83
109477.83
109477.83
109477.83
109477.83
109477.83
109477.83
109477.83
109477.83
109477.83
109477.83
109477.83
109477.83
109477.83
109477.83
109477.83
109477.83
109477.83
109477.83
109477.83
109477.83
109477.83
109477.83
109477.83
109477.83
109477.83
109477.83
109477.83
109477.83
109477.83
109477.83
109477.83
109477.83
109477.83
109477.83
109477.83
109477.82
109477.82
109477.82
109477.82
109477.82
109477.82
109477.82
109477.82
109477.82
109477.82
109477.82
109477.82
109477.82
109477.82
109477.82
109477.82
109477.82
109477.82
109477.82
109477.82
109477.82
109477.82
109477.82
109477.82
109477.82
109477.82
109477.82
109477.82
109477.82
109477.81
109477.81
109477.81
109477.81
109477.81
109477.81
109477.81
109477.81
109477.81
109477.81
109477.81
109477.81
109477.81
109477.81
109477.81
109477.81
109477.81
109477.81
109477.81
109477.81
109477.81
109477.81
109477.81
109477.81
109477.81
109477.81
109477.81
109477.81
109477.81
109477.81
109477.81
109477.81
109477.81
109477.81
109477.81
109477.81
109477.81
109477.81
109477.81
109477.81
109477.81
109477.81
109477.81
109477.81
109477.81
109477.81
109477.81
109477.81
109477.81
109477.81
109477.81
109477.81
109477.81
109477.81
109477.81
109477.81
109477.81
109477.81
109477.81
109477.81
109477.81
109477.81
109477.81
109477.81
109477.81
109477.81
109477.81
109477.81
109477.81
109477.81
109477.81
109477.81
109477.81
109477.81
109477.81
109477.81
109477.81
109477.81
109477.81
109477.81
109477.81
109477.81
109477.81
109477.81
109477.81