/*--------------------------------*- C++ -*----------------------------------*\
| =========                 |                                                 |
| \\      /  F ield         | OpenFOAM: The Open Source CFD Toolbox           |
|  \\    /   O peration     | Version:  4.x                                   |
|   \\  /    A nd           | Web:      www.OpenFOAM.org                      |
|    \\/     M anipulation  |                                                 |
\*---------------------------------------------------------------------------*/
FoamFile
{
    version     2.0;
    format      ascii;
    class       volScalarField;
    location    "0.51";
    object      rho;
}
// * * * * * * * * * * * * * * * * * * * * * * * * * * * * * * * * * * * * * //

dimensions      [1 -3 0 0 0 0 0];

internalField   nonuniform List<scalar> 
6398
(
1.158634303
1.158634288
1.158634288
1.158634286
1.158634285
1.158634283
1.158634287
1.158634271
1.158634272
1.158634268
1.158634267
1.158634266
1.158634288
1.158634273
1.158634271
1.158634269
1.158634268
1.158634265
1.158634286
1.158634271
1.158634271
1.158634268
1.158634266
1.158634262
1.158634286
1.158634274
1.158634274
1.15863427
1.158634266
1.158634261
1.158634287
1.158634278
1.158634277
1.158634272
1.158634267
1.158634261
1.158634284
1.158634272
1.158634271
1.158634267
1.158634262
1.158634258
1.158634273
1.158634259
1.158634258
1.158634252
1.158634243
1.158634237
1.158634274
1.158634263
1.158634261
1.158634255
1.158634243
1.158634235
1.158634276
1.158634267
1.158634265
1.158634257
1.158634243
1.158634233
1.158634278
1.158634272
1.158634269
1.158634258
1.158634243
1.158634234
1.158634281
1.158634278
1.158634273
1.15863426
1.158634247
1.158634238
1.158634285
1.158634277
1.158634275
1.158634266
1.158634254
1.158634245
1.158634279
1.158634273
1.158634269
1.158634255
1.158634238
1.158634227
1.158634283
1.15863428
1.158634276
1.15863426
1.158634241
1.158634229
1.158634286
1.158634285
1.15863428
1.158634264
1.158634244
1.158634231
1.158634287
1.158634288
1.158634281
1.158634265
1.158634246
1.158634234
1.158634286
1.158634286
1.158634279
1.158634262
1.158634247
1.158634237
1.158634282
1.158634276
1.158634268
1.158634249
1.158634224
1.158634203
1.15863428
1.158634284
1.158634275
1.158634251
1.158634221
1.158634195
1.158634285
1.158634295
1.158634289
1.158634263
1.158634235
1.158634208
1.158634286
1.1586343
1.158634292
1.158634269
1.158634241
1.158634215
1.158634283
1.158634294
1.15863429
1.158634268
1.158634242
1.158634219
1.158634273
1.158634282
1.158634276
1.158634258
1.158634239
1.158634219
1.158634265
1.158634244
1.15863422
1.158634175
1.158634125
1.158634079
1.158634254
1.158634251
1.158634237
1.158634189
1.158634119
1.158634046
1.158634256
1.158634271
1.158634266
1.158634226
1.158634164
1.158634093
1.158634248
1.15863427
1.158634269
1.158634236
1.158634178
1.158634114
1.158634233
1.158634252
1.158634259
1.158634228
1.158634174
1.158634122
1.158634203
1.158634213
1.158634226
1.1586342
1.158634158
1.15863412
1.158634223
1.158634148
1.158634092
1.158634016
1.158633941
1.158633872
1.158634164
1.158634092
1.158634054
1.15863394
1.158633767
1.158633598
1.15863415
1.158634121
1.158634113
1.158634022
1.158633861
1.158633682
1.158634124
1.158634106
1.158634117
1.158634046
1.1586339
1.158633743
1.158634093
1.158634049
1.158634077
1.158634014
1.158633883
1.158633755
1.158634042
1.158633946
1.158633983
1.158633937
1.158633836
1.15863375
1.158634169
1.158634007
1.158633909
1.158633819
1.158633744
1.158633681
1.158634022
1.158633738
1.158633609
1.158633419
1.158633198
1.15863301
1.158633966
1.158633707
1.158633631
1.158633444
1.158633163
1.158632905
1.158633928
1.158633664
1.158633626
1.158633467
1.158633186
1.158632934
1.158633895
1.158633565
1.158633525
1.158633387
1.158633147
1.158632953
1.158633856
1.158633435
1.158633354
1.158633244
1.158633081
1.158632983
1.158634118
1.15863387
1.158633732
1.158633643
1.158633588
1.158633557
1.15863388
1.158633349
1.158633087
1.158632874
1.158632681
1.15863254
1.158633772
1.158633176
1.15863293
1.158632691
1.158632411
1.158632188
1.158633724
1.158633098
1.158632874
1.158632643
1.158632352
1.158632127
1.158633703
1.158633015
1.158632765
1.158632545
1.158632301
1.158632136
1.158633705
1.158632942
1.15863263
1.158632431
1.158632278
1.158632224
1.158634081
1.158633765
1.158633596
1.158633517
1.158633492
1.158633499
1.158633766
1.158633013
1.158632636
1.158632428
1.158632311
1.158632265
1.15863361
1.158632692
1.158632272
1.158632003
1.158631799
1.158631682
1.158633551
1.158632574
1.158632147
1.158631866
1.158631638
1.1586315
1.158633556
1.15863254
1.15863207
1.158631781
1.158631583
1.158631492
1.158633607
1.158632572
1.158632037
1.158631753
1.158631625
1.158631628
1.15863406
1.1586337
1.158633511
1.158633442
1.158633453
1.158633499
1.158633697
1.158632787
1.158632325
1.158632131
1.158632099
1.158632151
1.1586335
1.15863233
1.158631753
1.158631481
1.158631379
1.158631373
1.158633433
1.158632175
1.158631554
1.158631244
1.158631099
1.158631065
1.158633464
1.158632201
1.158631531
1.15863119
1.158631049
1.158631042
1.158633562
1.158632359
1.158631639
1.158631281
1.158631174
1.158631221
1.158634055
1.15863368
1.158633479
1.158633417
1.158633449
1.158633533
1.158633675
1.158632691
1.158632164
1.158631983
1.158632015
1.158632148
1.158633458
1.158632138
1.158631435
1.15863116
1.158631137
1.158631227
1.158633388
1.158631951
1.158631168
1.158630824
1.158630737
1.158630778
1.158633433
1.158632023
1.158631199
1.158630802
1.158630678
1.158630703
1.158633564
1.158632295
1.158631454
1.158631015
1.158630878
1.158630922
1.158634063
1.158633695
1.158633486
1.158633423
1.158633462
1.158633559
1.158633693
1.158632696
1.158632135
1.15863195
1.158632007
1.15863218
1.158633473
1.158632108
1.158631322
1.158631028
1.15863104
1.158631186
1.158633403
1.158631903
1.158631009
1.15863062
1.158630544
1.158630609
1.158633455
1.158632
1.158631077
1.158630615
1.158630449
1.158630436
1.158633602
1.158632328
1.158631432
1.158630917
1.158630689
1.158630652
1.158634082
1.158633735
1.158633518
1.158633447
1.158633484
1.158633586
1.158633744
1.158632775
1.15863218
1.15863198
1.158632044
1.158632249
1.158633536
1.158632178
1.158631345
1.15863103
1.158631046
1.15863121
1.158633471
1.15863197
1.158631018
1.158630594
1.158630507
1.158630573
1.158633526
1.158632077
1.158631099
1.158630594
1.158630382
1.15863031
1.15863367
1.158632448
1.158631501
1.158630927
1.158630619
1.15863046
1.158634102
1.158633779
1.158633565
1.158633485
1.158633513
1.158633614
1.158633798
1.15863291
1.158632314
1.158632087
1.158632142
1.158632348
1.158633619
1.158632369
1.158631501
1.158631142
1.158631149
1.158631334
1.158633566
1.15863218
1.158631174
1.158630694
1.158630581
1.158630642
1.158633611
1.158632285
1.158631268
1.158630693
1.158630435
1.158630331
1.158633725
1.158632621
1.158631699
1.158631043
1.158630654
1.158630414
1.158634289
1.158634282
1.15863428
1.158634276
1.158634269
1.158634263
1.158634291
1.158634286
1.158634284
1.158634279
1.158634272
1.158634267
1.158634293
1.158634291
1.158634288
1.158634282
1.158634276
1.15863427
1.158634296
1.158634294
1.158634292
1.158634287
1.158634281
1.158634275
1.158634298
1.158634295
1.158634295
1.158634291
1.158634286
1.158634279
1.158634297
1.158634296
1.158634298
1.158634295
1.15863429
1.158634283
1.158634296
1.158634301
1.158634302
1.158634299
1.158634293
1.158634287
1.158634298
1.158634305
1.158634305
1.158634301
1.158634295
1.158634289
1.158634302
1.158634309
1.158634306
1.1586343
1.158634293
1.158634289
1.158634304
1.15863431
1.158634304
1.158634297
1.158634292
1.158634291
1.158634305
1.158634308
1.158634302
1.158634295
1.158634293
1.158634293
1.158634305
1.158634306
1.1586343
1.158634296
1.158634296
1.158634297
1.158634285
1.158634283
1.158634277
1.158634266
1.158634254
1.158634245
1.15863429
1.158634288
1.158634284
1.158634275
1.158634262
1.158634254
1.158634293
1.158634294
1.158634293
1.158634282
1.15863427
1.158634262
1.158634296
1.158634304
1.1586343
1.158634289
1.158634279
1.158634273
1.158634301
1.158634311
1.158634306
1.158634297
1.158634288
1.158634283
1.158634303
1.158634313
1.158634309
1.158634304
1.158634297
1.158634293
1.158634304
1.158634314
1.158634313
1.158634311
1.158634306
1.158634304
1.158634306
1.158634317
1.158634317
1.158634318
1.158634317
1.158634317
1.15863431
1.158634321
1.158634322
1.158634325
1.158634328
1.158634333
1.158634314
1.158634328
1.158634332
1.158634336
1.158634342
1.158634351
1.15863432
1.158634341
1.158634345
1.158634351
1.158634359
1.158634368
1.158634328
1.158634355
1.158634361
1.158634368
1.158634375
1.158634383
1.158634285
1.158634285
1.158634278
1.158634265
1.158634253
1.158634244
1.158634286
1.158634286
1.158634282
1.158634272
1.158634261
1.158634253
1.158634288
1.158634291
1.158634288
1.158634278
1.15863427
1.158634264
1.158634292
1.158634301
1.158634296
1.158634286
1.158634281
1.158634278
1.1586343
1.15863431
1.158634302
1.158634295
1.158634293
1.158634294
1.158634303
1.15863431
1.158634304
1.158634301
1.158634304
1.158634308
1.158634301
1.158634307
1.158634305
1.158634307
1.158634317
1.158634325
1.158634298
1.158634306
1.158634309
1.158634317
1.158634335
1.158634352
1.158634298
1.158634311
1.158634319
1.158634333
1.158634356
1.158634377
1.158634304
1.158634324
1.158634337
1.158634357
1.15863438
1.158634402
1.158634314
1.158634346
1.158634366
1.158634386
1.158634407
1.158634424
1.158634329
1.158634377
1.1586344
1.158634417
1.158634432
1.158634441
1.158634262
1.158634271
1.158634266
1.158634255
1.15863424
1.158634224
1.15863426
1.158634266
1.158634266
1.158634259
1.158634247
1.158634238
1.15863426
1.158634267
1.158634272
1.158634268
1.158634262
1.158634261
1.158634268
1.15863428
1.158634283
1.158634282
1.158634286
1.158634298
1.158634281
1.158634293
1.158634293
1.158634296
1.158634312
1.158634327
1.158634285
1.158634293
1.158634294
1.158634302
1.158634327
1.158634351
1.158634277
1.158634282
1.158634287
1.158634303
1.158634337
1.158634371
1.158634264
1.15863427
1.158634284
1.158634308
1.158634344
1.158634382
1.158634256
1.15863427
1.158634293
1.158634322
1.158634359
1.158634396
1.158634259
1.158634285
1.158634316
1.158634346
1.158634381
1.158634414
1.158634273
1.158634314
1.15863435
1.158634378
1.158634408
1.158634432
1.158634294
1.158634353
1.15863439
1.158634413
1.158634434
1.158634447
1.158634174
1.158634176
1.158634193
1.15863418
1.158634151
1.15863413
1.158634166
1.158634154
1.158634181
1.15863418
1.158634166
1.158634165
1.15863417
1.158634157
1.158634192
1.158634204
1.158634209
1.158634229
1.158634193
1.158634187
1.158634222
1.158634244
1.158634268
1.158634312
1.158634223
1.158634223
1.158634253
1.158634281
1.158634324
1.158634392
1.158634236
1.158634233
1.158634259
1.158634292
1.158634351
1.158634419
1.15863422
1.158634205
1.158634236
1.158634277
1.158634337
1.158634402
1.158634184
1.158634158
1.158634201
1.158634254
1.15863432
1.15863438
1.158634152
1.158634123
1.158634181
1.158634243
1.158634312
1.158634375
1.158634139
1.158634122
1.158634192
1.158634253
1.158634318
1.158634377
1.158634148
1.158634155
1.158634229
1.158634283
1.158634337
1.158634383
1.158634175
1.158634208
1.158634283
1.158634327
1.158634365
1.158634391
1.15863401
1.158633851
1.158633892
1.158633873
1.158633815
1.158633783
1.158634011
1.15863381
1.158633856
1.158633873
1.158633865
1.158633899
1.15863404
1.158633843
1.158633897
1.15863395
1.158634003
1.158634093
1.158634095
1.158633943
1.158634002
1.158634083
1.158634177
1.158634282
1.158634155
1.158634049
1.158634107
1.158634199
1.158634301
1.158634409
1.15863418
1.158634088
1.158634142
1.158634234
1.158634339
1.158634437
1.158634153
1.158634028
1.158634077
1.158634175
1.158634292
1.158634386
1.158634092
1.1586339
1.158633947
1.158634058
1.158634199
1.158634314
1.15863403
1.158633776
1.158633828
1.158633948
1.158634104
1.158634247
1.158633995
1.158633716
1.158633778
1.158633897
1.158634046
1.158634194
1.158633991
1.158633728
1.158633801
1.158633911
1.158634033
1.158634157
1.158634012
1.158633794
1.15863388
1.158633977
1.158634062
1.158634135
1.15863385
1.158633352
1.158633229
1.158633163
1.158633095
1.158633104
1.158633882
1.158633365
1.158633237
1.158633224
1.15863326
1.158633378
1.158633946
1.158633489
1.158633395
1.158633449
1.158633584
1.158633781
1.158634033
1.158633692
1.158633651
1.158633756
1.158633954
1.158634168
1.158634112
1.158633877
1.158633876
1.158634006
1.158634214
1.158634375
1.158634143
1.158633947
1.158633952
1.158634079
1.158634267
1.158634398
1.158634109
1.15863386
1.15863383
1.158633938
1.158634131
1.158634277
1.158634034
1.158633667
1.158633581
1.158633674
1.158633872
1.158634075
1.158633958
1.15863347
1.158633339
1.158633422
1.158633624
1.158633878
1.15863391
1.158633353
1.1586332
1.158633272
1.158633461
1.15863373
1.158633895
1.158633328
1.158633175
1.158633234
1.158633391
1.158633625
1.158633906
1.158633371
1.158633239
1.158633282
1.158633389
1.158633537
1.158633745
1.158632943
1.158632587
1.15863243
1.15863238
1.158632448
1.15863382
1.158633057
1.158632707
1.158632619
1.158632686
1.158632878
1.158633916
1.158633282
1.158633004
1.15863301
1.158633169
1.158633429
1.158634018
1.158633551
1.158633378
1.158633455
1.158633674
1.158633933
1.158634097
1.158633771
1.158633682
1.158633792
1.158634019
1.158634233
1.158634122
1.15863385
1.15863378
1.158633877
1.158634075
1.158634231
1.158634083
1.15863375
1.158633624
1.158633681
1.158633842
1.158633987
1.158634008
1.158633535
1.158633312
1.158633328
1.158633477
1.158633663
1.158633935
1.158633317
1.158633005
1.158632988
1.158633144
1.158633394
1.158633888
1.158633178
1.158632812
1.158632768
1.158632919
1.158633202
1.158633869
1.158633129
1.158632746
1.15863268
1.158632796
1.158633046
1.15863387
1.158633143
1.158632772
1.158632681
1.158632737
1.158632891
1.158633702
1.158632707
1.158632132
1.158631877
1.158631838
1.158631957
1.15863382
1.158632947
1.15863241
1.158632222
1.158632278
1.158632498
1.158633935
1.15863324
1.158632821
1.15863273
1.158632859
1.15863313
1.158634033
1.158633524
1.158633245
1.158633245
1.15863342
1.158633674
1.158634097
1.15863373
1.158633561
1.15863361
1.158633786
1.158633971
1.158634105
1.15863379
1.158633657
1.158633695
1.158633833
1.158633941
1.158634058
1.158633681
1.158633489
1.158633478
1.158633573
1.158633655
1.158633985
1.158633468
1.158633164
1.158633092
1.158633172
1.158633295
1.158633921
1.158633262
1.158632847
1.158632725
1.158632807
1.158632996
1.158633884
1.158633132
1.158632644
1.158632479
1.158632553
1.158632781
1.158633868
1.158633075
1.158632554
1.158632353
1.158632392
1.158632591
1.15863386
1.158633061
1.158632538
1.158632302
1.15863227
1.158632377
1.158633709
1.158632646
1.158631923
1.158631572
1.158631516
1.158631646
1.158633864
1.158632976
1.158632346
1.158632057
1.158632062
1.158632261
1.158633993
1.158633303
1.158632812
1.158632629
1.158632689
1.158632927
1.158634075
1.15863357
1.158633232
1.158633146
1.158633249
1.15863347
1.158634106
1.158633731
1.158633511
1.158633489
1.158633597
1.158633746
1.158634083
1.158633743
1.158633574
1.158633561
1.158633637
1.158633698
1.158634016
1.158633613
1.158633397
1.158633341
1.15863338
1.158633401
1.158633941
1.158633404
1.158633076
1.158632955
1.158632979
1.158633032
1.158633888
1.15863322
1.158632777
1.158632593
1.158632613
1.15863273
1.158633865
1.15863311
1.158632587
1.158632347
1.158632353
1.158632508
1.158633854
1.158633056
1.158632488
1.1586322
1.158632163
1.158632293
1.158633836
1.158633021
1.158632438
1.158632105
1.158631984
1.158632027
1.158633749
1.158632694
1.158631907
1.158631473
1.158631347
1.158631445
1.158633938
1.158633132
1.158632424
1.158632055
1.158631977
1.158632127
1.158634072
1.158633494
1.158632926
1.158632648
1.158632631
1.158632814
1.158634134
1.158633706
1.158633304
1.15863314
1.158633169
1.158633347
1.158634129
1.158633766
1.158633507
1.158633419
1.158633473
1.158633599
1.158634066
1.158633683
1.158633482
1.158633431
1.158633473
1.158633515
1.158633963
1.158633486
1.158633259
1.158633183
1.158633187
1.15863317
1.158633871
1.15863327
1.158632948
1.158632807
1.158632779
1.158632772
1.158633824
1.158633123
1.158632684
1.15863247
1.158632429
1.158632472
1.158633815
1.158633049
1.158632524
1.158632245
1.158632182
1.158632259
1.158633806
1.158633001
1.158632426
1.158632089
1.158631972
1.158632031
1.158633773
1.158632933
1.158632334
1.158631943
1.15863173
1.158631715
1.15863381
1.158632831
1.158632002
1.158631486
1.158631247
1.158631241
1.158634008
1.158633342
1.158632655
1.158632159
1.158631954
1.158632016
1.158634139
1.158633707
1.15863318
1.158632775
1.158632625
1.158632734
1.158634189
1.158633869
1.158633478
1.158633203
1.158633142
1.158633264
1.158634163
1.158633839
1.158633541
1.158633389
1.15863339
1.158633482
1.158634065
1.158633644
1.15863338
1.158633277
1.158633289
1.158633327
1.158633926
1.158633335
1.158633033
1.158632917
1.158632896
1.158632877
1.158633809
1.158633058
1.158632674
1.158632498
1.158632431
1.158632403
1.158633754
1.158632916
1.158632456
1.158632203
1.158632092
1.15863209
1.158633745
1.158632878
1.158632355
1.158632027
1.158631874
1.158631894
1.158633731
1.158632835
1.158632258
1.15863186
1.158631653
1.158631664
1.158633686
1.158632717
1.158632086
1.158631625
1.158631352
1.158631322
1.158633861
1.158632981
1.158632178
1.158631571
1.158631199
1.158631005
1.15863404
1.158633486
1.158632867
1.158632307
1.15863193
1.158631819
1.158634162
1.158633835
1.158633381
1.158632919
1.15863261
1.158632598
1.158634213
1.158633981
1.158633635
1.158633295
1.158633103
1.158633151
1.158634188
1.158633917
1.158633613
1.158633377
1.158633285
1.158633349
1.158634079
1.158633648
1.158633321
1.158633127
1.158633076
1.158633115
1.158633927
1.158633263
1.158632832
1.158632622
1.158632559
1.158632549
1.158633796
1.158632923
1.158632382
1.158632117
1.158632018
1.158631984
1.158633729
1.158632752
1.158632144
1.158631818
1.158631675
1.15863165
1.158633706
1.158632695
1.158632049
1.158631665
1.158631474
1.158631463
1.15863368
1.158632629
1.158631939
1.158631493
1.15863125
1.158631239
1.158633637
1.1586325
1.158631737
1.158631224
1.158630935
1.158630913
1.158633876
1.15863308
1.158632346
1.158631711
1.158631211
1.158630841
1.158634028
1.158633521
1.158632981
1.158632411
1.158631897
1.158631535
1.158634141
1.158633847
1.158633461
1.158632984
1.158632539
1.158632275
1.158634199
1.158634001
1.158633707
1.158633335
1.158633003
1.158632872
1.158634191
1.158633959
1.15863367
1.158633376
1.158633151
1.158633107
1.158634105
1.158633689
1.158633326
1.158633065
1.158632908
1.158632881
1.158633964
1.158633287
1.158632779
1.158632472
1.158632324
1.158632263
1.158633832
1.158632928
1.158632279
1.158631909
1.158631735
1.158631671
1.158633754
1.158632734
1.158632013
1.158631594
1.158631385
1.158631323
1.158633714
1.158632647
1.158631897
1.158631439
1.158631193
1.15863113
1.158633685
1.158632571
1.158631782
1.158631274
1.158630987
1.158630929
1.158633662
1.158632475
1.158631612
1.158631041
1.15863072
1.158630668
1.158634304
1.158634305
1.158634301
1.158634298
1.158634299
1.1586343
1.158634304
1.158634306
1.158634303
1.158634301
1.158634301
1.158634301
1.158634305
1.158634309
1.158634306
1.158634303
1.158634302
1.1586343
1.158634308
1.158634313
1.15863431
1.158634306
1.158634303
1.1586343
1.158634311
1.158634317
1.158634313
1.158634307
1.158634302
1.158634298
1.158634317
1.158634317
1.158634312
1.158634306
1.158634302
1.1586343
1.158634338
1.158634371
1.158634377
1.158634383
1.158634387
1.158634389
1.158634346
1.158634385
1.158634391
1.158634392
1.15863439
1.158634386
1.158634354
1.158634395
1.158634398
1.158634394
1.158634385
1.158634374
1.158634358
1.158634399
1.158634399
1.158634389
1.158634373
1.158634356
1.158634356
1.158634392
1.158634387
1.158634372
1.158634354
1.158634337
1.158634335
1.158634349
1.158634344
1.158634334
1.158634324
1.158634316
1.158634347
1.158634408
1.158634431
1.158634443
1.158634449
1.158634448
1.158634363
1.158634434
1.158634455
1.158634458
1.158634455
1.158634443
1.158634375
1.15863445
1.158634465
1.15863446
1.158634445
1.158634424
1.15863438
1.158634453
1.158634462
1.158634447
1.158634419
1.158634392
1.158634374
1.158634431
1.158634431
1.158634412
1.158634384
1.158634359
1.158634337
1.158634359
1.158634358
1.158634347
1.158634333
1.15863432
1.158634317
1.158634392
1.158634427
1.158634443
1.158634454
1.158634452
1.158634339
1.158634425
1.158634456
1.158634464
1.158634462
1.158634448
1.158634355
1.158634445
1.15863447
1.158634467
1.158634452
1.158634426
1.158634363
1.158634447
1.158634462
1.158634448
1.158634419
1.158634387
1.158634356
1.158634418
1.158634424
1.158634405
1.158634374
1.158634344
1.158634319
1.15863434
1.15863434
1.158634327
1.158634308
1.158634291
1.158634209
1.158634269
1.15863434
1.158634374
1.158634393
1.158634392
1.158634245
1.158634326
1.158634391
1.15863441
1.15863441
1.158634389
1.158634275
1.158634363
1.158634414
1.15863442
1.158634402
1.158634364
1.158634293
1.158634369
1.158634404
1.158634394
1.158634358
1.158634311
1.158634291
1.15863433
1.158634345
1.158634324
1.158634278
1.158634231
1.15863428
1.158634271
1.158634263
1.158634239
1.158634207
1.158634179
1.158634048
1.158633889
1.158633989
1.158634071
1.158634114
1.158634123
1.15863409
1.158633996
1.158634104
1.158634159
1.15863416
1.158634119
1.15863413
1.158634079
1.158634168
1.158634193
1.158634162
1.158634085
1.158634159
1.158634106
1.158634158
1.158634152
1.158634087
1.158633993
1.158634184
1.158634088
1.158634077
1.158634034
1.158633947
1.158633854
1.158634234
1.158634159
1.158634112
1.15863406
1.158634007
1.158633969
1.158633932
1.158633458
1.158633359
1.158633388
1.158633434
1.158633468
1.158633966
1.158633566
1.158633498
1.158633512
1.158633488
1.158633422
1.158634002
1.158633665
1.158633599
1.158633573
1.158633489
1.158633355
1.158634041
1.158633732
1.158633626
1.158633541
1.158633403
1.158633252
1.158634095
1.158633811
1.158633652
1.158633509
1.158633357
1.158633237
1.158634201
1.158634066
1.158633963
1.158633872
1.158633796
1.158633752
1.158633881
1.158633196
1.158632856
1.158632738
1.158632711
1.158632737
1.158633896
1.15863327
1.15863296
1.15863281
1.158632696
1.158632605
1.158633919
1.158633352
1.158633049
1.158632853
1.158632668
1.158632507
1.15863396
1.158633442
1.158633121
1.158632875
1.158632644
1.158632466
1.158634034
1.15863361
1.1586333
1.158633044
1.158632826
1.158632691
1.158634179
1.158633999
1.158633851
1.158633726
1.15863363
1.158633583
1.158633853
1.158633072
1.158632565
1.158632291
1.158632163
1.158632144
1.158633846
1.158633101
1.158632613
1.158632301
1.158632079
1.158631941
1.158633854
1.158633152
1.158632671
1.158632317
1.158632029
1.158631828
1.158633889
1.158633243
1.158632768
1.158632386
1.158632068
1.158631865
1.158633977
1.158633456
1.158633051
1.158632714
1.158632448
1.158632308
1.158634158
1.15863394
1.158633765
1.15863362
1.158633515
1.158633474
1.158633806
1.158632987
1.158632409
1.158632031
1.158631801
1.158631716
1.158633774
1.158632962
1.158632395
1.158631973
1.158631649
1.158631459
1.158633763
1.158632961
1.158632399
1.158631945
1.158631571
1.158631341
1.158633797
1.15863303
1.158632477
1.158632021
1.158631656
1.158631456
1.158633911
1.158633289
1.158632827
1.158632455
1.158632183
1.158632069
1.158634136
1.158633884
1.158633691
1.15863354
1.158633442
1.158633415
1.158633718
1.158632827
1.158632223
1.158631772
1.158631458
1.158631342
1.158633665
1.158632714
1.158632098
1.158631613
1.158631239
1.158631057
1.158633654
1.158632675
1.15863204
1.158631539
1.158631148
1.15863096
1.158633715
1.158632784
1.158632147
1.158631661
1.158631311
1.158631173
1.158633872
1.158633157
1.158632635
1.158632248
1.158631998
1.158631937
1.158634132
1.158633864
1.158633655
1.1586335
1.158633408
1.158633394
1.158633624
1.158632543
1.158631848
1.158631342
1.158631012
1.158630933
1.158633585
1.158632423
1.158631677
1.158631144
1.158630788
1.158630688
1.158633605
1.158632435
1.158631655
1.158631108
1.158630754
1.158630665
1.158633705
1.158632661
1.158631908
1.158631384
1.158631067
1.158631006
1.158633892
1.158633152
1.158632576
1.158632164
1.158631929
1.158631895
1.158634153
1.158633892
1.158633673
1.158633508
1.158633413
1.158633399
1.158633599
1.158632362
1.158631507
1.158630939
1.158630617
1.158630583
1.158633594
1.158632309
1.1586314
1.158630801
1.158630468
1.158630431
1.158633649
1.15863241
1.158631497
1.158630891
1.158630559
1.158630518
1.158633778
1.158632719
1.158631893
1.158631326
1.158631011
1.158630972
1.158633976
1.158633273
1.158632659
1.158632218
1.158631964
1.15863192
1.158634193
1.158633971
1.15863375
1.158633573
1.158633462
1.158633431
1.158633665
1.158632405
1.158631462
1.158630835
1.158630492
1.158630447
1.158633711
1.158632431
1.158631428
1.158630774
1.158630422
1.158630385
1.158633809
1.158632625
1.158631621
1.158630952
1.158630588
1.158630535
1.158633951
1.158633033
1.158632131
1.158631491
1.158631128
1.158631048
1.15863411
1.158633591
1.15863299
1.158632486
1.158632163
1.15863205
1.158634237
1.158634092
1.158633904
1.158633717
1.158633576
1.158633505
1.158634282
1.158634282
1.158634283
1.158634282
1.158634266
1.158634269
1.158634274
1.158634272
1.158634264
1.158634267
1.15863427
1.15863426
1.15863426
1.158634262
1.158634262
1.158634247
1.158634258
1.158634259
1.158634258
1.158634241
1.158634258
1.158634259
1.158634258
1.158634246
1.158634257
1.158634259
1.158634258
1.158634245
1.158634236
1.15863424
1.158634239
1.15863422
1.158634235
1.158634237
1.158634235
1.15863421
1.158634233
1.158634236
1.158634234
1.158634212
1.158634234
1.158634237
1.158634238
1.158634222
1.158634238
1.158634242
1.158634243
1.158634235
1.158634241
1.158634241
1.158634235
1.158634207
1.158634222
1.15863422
1.158634212
1.158634177
1.158634224
1.158634221
1.158634214
1.158634179
1.158634228
1.158634227
1.158634225
1.158634198
1.158634232
1.158634234
1.158634238
1.15863422
1.158634236
1.15863424
1.158634246
1.158634235
1.158634192
1.158634189
1.158634177
1.158634179
1.158634168
1.158634151
1.15863419
1.158634182
1.158634167
1.158634201
1.158634203
1.158634195
1.158634211
1.158634219
1.158634219
1.158634217
1.15863423
1.158634233
1.158634051
1.158634045
1.158634032
1.158633999
1.158633986
1.158633968
1.15863405
1.158634041
1.158634026
1.158634086
1.158634089
1.158634093
1.158634108
1.158634123
1.15863414
1.15863412
1.158634148
1.158634172
1.158633836
1.158633827
1.158633799
1.158633508
1.158633488
1.15863347
1.158633579
1.15863357
1.158633572
1.158633665
1.15863368
1.158633713
1.158633714
1.158633759
1.158633829
1.158633751
1.158633837
1.158633935
1.158633654
1.158633626
1.158632907
1.158632858
1.158632776
1.15863274
1.158632827
1.158632827
1.158632901
1.158632984
1.158633021
1.158633184
1.158632307
1.158632532
1.158631753
1.158632004
1.158631378
1.158631632
1.158631075
1.158631332
1.158630747
1.158631006
1.158630462
1.158630701
1.158634261
1.158634261
1.158634261
1.158634255
1.158634264
1.158634264
1.158634264
1.158634262
1.158634267
1.158634267
1.158634268
1.158634267
1.158634271
1.158634271
1.158634272
1.158634269
1.158634275
1.158634275
1.158634275
1.158634273
1.158634279
1.158634279
1.15863428
1.158634285
1.158634284
1.158634285
1.158634286
1.1586343
1.158634288
1.158634289
1.158634292
1.158634311
1.15863429
1.158634292
1.158634295
1.158634301
1.158634315
1.158634311
1.158634307
1.158634294
1.158634277
1.158634264
1.158634236
1.158634293
1.158634296
1.1586343
1.158634303
1.158634308
1.158634305
1.158634298
1.15863429
1.158634281
1.158634274
1.158634273
1.158634256
1.158634296
1.1586343
1.158634303
1.158634307
1.158634306
1.158634302
1.158634296
1.15863429
1.158634285
1.158634281
1.158634278
1.158634274
1.1586343
1.158634303
1.158634305
1.158634306
1.158634305
1.1586343
1.158634295
1.158634292
1.158634289
1.158634286
1.158634283
1.158634282
1.158634246
1.158634247
1.158634247
1.158634239
1.158634253
1.158634251
1.158634247
1.158634231
1.15863426
1.158634257
1.15863425
1.158634227
1.158634271
1.158634266
1.158634257
1.158634234
1.15863428
1.158634277
1.158634271
1.158634257
1.158634291
1.158634291
1.158634289
1.158634294
1.158634305
1.158634309
1.158634314
1.158634333
1.158634323
1.158634331
1.15863434
1.158634366
1.158634343
1.158634352
1.15863436
1.158634359
1.158634373
1.158634346
1.158634312
1.158634276
1.158634246
1.158634226
1.158634207
1.158634363
1.158634371
1.158634376
1.158634377
1.158634369
1.158634348
1.158634324
1.158634304
1.158634288
1.158634276
1.158634273
1.15863425
1.158634379
1.158634386
1.158634387
1.158634385
1.158634376
1.15863436
1.158634344
1.15863433
1.158634316
1.158634303
1.158634293
1.158634288
1.158634389
1.158634392
1.15863439
1.158634386
1.158634379
1.158634369
1.158634358
1.158634348
1.158634339
1.158634329
1.158634321
1.158634315
1.158634243
1.158634246
1.158634249
1.158634231
1.158634251
1.158634252
1.158634248
1.158634212
1.158634262
1.158634261
1.158634251
1.15863421
1.158634278
1.158634275
1.158634261
1.158634226
1.158634294
1.158634292
1.158634279
1.158634257
1.158634312
1.158634312
1.158634306
1.158634302
1.158634335
1.158634342
1.158634339
1.158634347
1.158634368
1.158634376
1.158634373
1.158634387
1.158634396
1.158634405
1.158634399
1.15863438
1.158634391
1.15863435
1.158634306
1.158634273
1.158634254
1.158634246
1.158634244
1.15863442
1.158634427
1.158634419
1.158634404
1.158634386
1.158634361
1.158634336
1.158634321
1.15863431
1.158634304
1.158634303
1.158634291
1.158634437
1.15863444
1.158634431
1.158634417
1.158634402
1.158634385
1.158634369
1.158634358
1.158634351
1.158634344
1.158634337
1.158634333
1.158634445
1.158634443
1.158634432
1.15863442
1.158634412
1.158634402
1.15863439
1.158634381
1.158634372
1.158634361
1.158634351
1.158634343
1.158634228
1.158634242
1.158634241
1.158634245
1.15863426
1.158634254
1.158634277
1.158634292
1.158634274
1.158634222
1.158634314
1.158634319
1.158634296
1.158634249
1.158634344
1.158634344
1.158634316
1.15863427
1.158634369
1.158634368
1.158634333
1.158634297
1.158634392
1.158634389
1.158634351
1.158634333
1.158634409
1.158634409
1.15863438
1.158634373
1.158634426
1.158634431
1.158634407
1.158634369
1.158634368
1.158634324
1.158634294
1.158634301
1.158634315
1.15863434
1.158634375
1.158634441
1.158634448
1.158634428
1.158634398
1.158634372
1.158634343