/*--------------------------------*- C++ -*----------------------------------*\
  =========                 |
  \\      /  F ield         | OpenFOAM: The Open Source CFD Toolbox
   \\    /   O peration     | Website:  https://openfoam.org
    \\  /    A nd           | Version:  7
     \\/     M anipulation  |
\*---------------------------------------------------------------------------*/
FoamFile
{
    version     2.0;
    format      ascii;
    class       volScalarField;
    location    "0.00022";
    object      Uy;
}
// * * * * * * * * * * * * * * * * * * * * * * * * * * * * * * * * * * * * * //

dimensions      [0 1 -1 0 0 0 0];

internalField   nonuniform List<scalar> 
5000
(
-6.7552933e-29
3.039882e-28
0
0
-2.533235e-28
-5.7599095e-44
-3.039882e-28
0
0
3.546529e-28
7.093058e-28
-1.013294e-28
1.013294e-28
-1.013294e-28
0
5.06647e-29
-3.1224532e-55
-3.039882e-28
0
2.533235e-28
-1.013294e-28
1.013294e-28
-5.06647e-28
5.06647e-29
-5.06647e-29
4.1759344e-43
-2.026588e-28
-5.06647e-28
1.013294e-27
-7.0270896e-42
4.4279304e-42
2.026588e-28
6.079764e-28
-1.013294e-28
-4.391931e-42
4.8469638e-41
1.2297407e-41
-5.06647e-28
4.053176e-28
-3.039882e-28
5.06647e-28
-6.9694905e-42
-5.06647e-28
3.546529e-28
3.039882e-28
5.06647e-29
2.533235e-28
6.9406909e-42
-7.093058e-28
0
4.559823e-28
8.6398642e-44
-7.599705e-28
1.2159528e-27
-8.8558609e-42
-4.053176e-28
6.0147931e-42
1.2247008e-41
5.06647e-28
0
-5.06647e-29
-3.4559457e-42
-1.0079842e-43
-2.026588e-28
5.06647e-29
3.1394626e-56
3.039882e-28
-5.573117e-28
-7.093058e-28
4.559823e-28
-1.013294e-28
2.026588e-28
1.519941e-28
2.6674931e-42
1.519941e-28
-2.026588e-28
0
-2.026588e-28
1.1394681e-58
-1.519941e-28
3.039882e-28
2.8799547e-44
-1.4399774e-43
-4.559823e-28
-2.533235e-28
-8.8198614e-42
3.039882e-28
0
-6.1208531e-42
-5.2559174e-42
-1.7711722e-42
1.013294e-28
-2.026588e-28
2.026588e-28
-1.402538e-41
1.519941e-28
0
0
5.06647e-29
1.7567724e-41
-4.053176e-28
5.06647e-29
-3.039882e-28
0
4.4902447e-43
2.533235e-28
-2.533235e-28
1.013294e-28
0
0
-1.519941e-28
-2.026588e-28
0
1.013294e-28
5.3135165e-42
5.06647e-28
-5.573117e-28
1.4399774e-44
7.0846887e-42
2.9272999e-56
2.026588e-28
8.6398642e-44
1.013294e-28
0
-1.013294e-28
4.053176e-28
7.093058e-28
-4.053176e-28
2.026588e-28
-3.039882e-28
-1.519941e-28
3.039882e-28
4.559823e-28
5.573117e-28
0
-3.546529e-28
1.013294e-28
5.06647e-29
5.2703172e-42
5.06647e-29
1.013294e-28
1.013294e-28
0
3.5034995e-42
-1.519941e-28
1.013294e-28
-1.013294e-28
1.7279728e-43
2.533235e-28
5.06647e-29
-1.519941e-28
3.5279446e-42
-1.013294e-28
-5.06647e-29
1.519941e-28
2.026588e-28
-1.137758e-41
0
0
5.06647e-29
3.039882e-28
-2.034119e-41
1.1217214e-41
3.546529e-28
4.5676082e-41
-9.119646e-28
8.106352e-28
3.546529e-28
0
2.533235e-28
2.026588e-28
0
-7.093058e-28
-3.039882e-28
0
-1.013294e-28
1.0540634e-41
5.2754956e-43
-2.533235e-28
-3.546529e-28
1.519941e-28
-3.499145e-42
1.3938981e-41
2.1599661e-44
5.06647e-29
5.06647e-29
3.5135448e-41
-1.7423726e-41
5.230707e-55
1.519941e-28
0
0
1.013294e-28
4.053176e-28
0
0
1.519941e-28
1.0282191e-69
-5.06647e-29
0
-5.06647e-29
-5.06647e-29
-1.6238743e-54
-4.053176e-28
1.0201563e-41
-4.2076139e-41
7.1998869e-45
-5.06647e-29
3.039882e-28
-3.5999434e-44
-6.3114208e-41
3.8569794e-41
-2.533235e-28
0
-5.06647e-29
-2.9436703e-55
1.4061379e-41
5.06647e-29
0
1.519941e-28
2.026588e-28
0
0
0
7.599705e-28
2.1038069e-41
4.053176e-28
0
0
1.013294e-28
2.026588e-28
-3.039882e-28
-1.519941e-28
0
-5.06647e-29
1.519941e-28
-4.053176e-28
-2.533235e-28
0
-2.533235e-28
1.2661721e-40
2.4594814e-41
-1.519941e-28
5.06647e-29
2.533235e-28
0
-2.533235e-28
2.8165957e-41
-3.546529e-28
-4.9189627e-41
5.06647e-28
-5.06647e-29
-2.1081269e-41
-7.0357295e-41
7.8018717e-55
2.026588e-28
-3.039882e-28
-1.519941e-28
0
2.026588e-28
2.026588e-28
0
5.06647e-29
5.06647e-29
-4.053176e-28
-2.8165131e-41
-3.546529e-28
-2.1284214e-41
1.4054179e-41
1.519941e-28
-2.026588e-28
2.1081269e-41
3.546529e-28
-3.039882e-28
2.8165957e-41
-3.1751501e-41
5.7599095e-44
2.4494015e-41
-4.559823e-28
0
0
-1.519941e-28
1.013294e-28
0
0
0
0
-2.533235e-28
-1.7459726e-41
-4.053176e-28
1.2959796e-43
3.039882e-28
2.533235e-28
-2.1102868e-41
-5.6159118e-41
-6.4798982e-44
-1.013294e-28
3.039882e-28
5.06647e-28
-7.093058e-28
-2.1172882e-41
-5.06647e-29
5.06647e-28
0
5.06647e-29
-3.8633078e-42
-6.8846045e-42
9.7595252e-57
-8.6398642e-44
1.1519819e-43
2.533235e-28
5.06647e-29
-1.0503123e-41
-3.039882e-28
5.06647e-29
-2.9272999e-56
4.559823e-28
1.2635801e-40
-4.053176e-28
0
0
-3.039882e-28
5.6274316e-41
-1.013294e-28
0
-5.06647e-29
-3.546529e-28
4.559823e-28
-2.8799547e-44
2.1102868e-41
-3.4578598e-60
2.533235e-28
-3.546529e-28
-3.546529e-28
0
3.546529e-28
-3.5171447e-41
5.06647e-29
-6.079764e-28
1.2648761e-40
4.053176e-28
7.0342895e-41
7.093058e-28
-7.093058e-28
1.013294e-28
-4.053176e-28
-6.4798982e-44
-1.013294e-28
0
0
-1.519941e-28
2.8108358e-41
4.2764235e-43
-7.1998869e-45
-9.119646e-28
3.546529e-28
-1.519941e-28
4.053176e-28
2.533235e-28
-4.053176e-28
-8.106352e-28
2.026588e-28
-1.519941e-28
-3.546529e-28
5.573117e-28
3.9030665e-56
-2.026588e-28
2.026588e-28
-5.06647e-29
-1.013294e-28
4.2119338e-41
8.6398642e-44
3.546529e-28
5.6197548e-41
-1.519941e-28
5.6274316e-41
-1.1243343e-40
-5.06647e-28
-5.06647e-28
4.559823e-28
1.4054179e-41
8.4325075e-41
2.8079559e-41
-6.079764e-28
4.053176e-28
1.9980836e-54
3.039882e-28
0
0
6.5553921e-42
-9.2504213e-55
-1.519941e-28
-3.039882e-28
5.06647e-29
-1.519941e-28
-1.519941e-28
-1.013294e-28
-7.1998869e-44
5.6524911e-41
0
-2.026588e-28
-4.053176e-28
-3.546529e-28
-1.013294e-27
-3.546529e-28
7.093058e-28
5.06647e-28
-5.06647e-28
-4.053176e-28
0
7.093058e-28
-7.093058e-28
-9.119646e-28
1.013294e-28
5.06647e-29
5.0399208e-44
-3.5171447e-41
-5.06647e-29
5.06647e-29
-3.546529e-28
5.06647e-29
3.5135448e-41
9.2467102e-59
-2.8108358e-41
-2.533235e-28
3.9448528e-44
1.0551434e-40
6.3308605e-41
1.4061379e-40
2.026588e-28
-2.533235e-28
7.0342895e-41
8.4281876e-41
-8.8012751e-56
-1.013294e-28
-2.533235e-28
3.546529e-28
6.079764e-28
-2.8137158e-41
3.039882e-28
1.013294e-28
-1.013294e-28
-1.519941e-28
2.026588e-28
3.039882e-28
1.1249103e-40
-7.093058e-28
0
0
-3.039882e-28
0
-3.039882e-28
1.3933996e-41
-2.8799547e-44
2.8122758e-41
0
5.06647e-29
-1.013294e-28
5.06647e-29
-2.026588e-28
-1.013294e-28
-2.026588e-28
0
0
-3.039882e-28
1.2668201e-40
3.546529e-28
0
0
1.013294e-28
-8.4440273e-41
-2.026588e-28
0
0
0
0
0
0
0
0
1.013294e-28
-8.4368274e-41
1.013294e-28
-1.013294e-28
5.06647e-29
-1.519941e-28
8.4497872e-41
1.013294e-28
-4.2205737e-41
-3.039882e-28
0
0
2.026588e-28
4.2205737e-41
-3.039882e-28
0
0
0
0
0
0
0
-8.106352e-28
-5.2898672e-53
-6.079764e-28
1.013294e-28
7.7693472e-59
-1.519941e-28
8.4281876e-41
-1.013294e-28
3.2679542e-56
4.8788331e-57
1.519941e-28
0
4.053176e-28
0
0
-8.106352e-28
5.6216717e-41
6.079764e-28
-1.013294e-28
-2.7737488e-41
-1.519941e-28
1.013294e-28
-1.519941e-28
-3.8945063e-54
-3.039882e-28
4.053176e-28
0
5.06647e-29
2.533235e-28
8.106352e-28
-2.533235e-28
-1.407298e-41
1.013294e-28
2.026588e-28
-1.013294e-28
4.053176e-28
-5.06647e-28
0
-2.026588e-28
2.026588e-28
4.559823e-28
-9.119646e-28
-1.4399774e-44
-2.026588e-28
2.533235e-28
5.6274316e-41
3.546529e-28
1.9631897e-56
4.053176e-28
-2.026588e-28
0
-8.4411474e-41
-4.3199321e-44
-3.546529e-28
-5.06647e-29
1.1254863e-40
2.8108358e-41
2.8799547e-44
2.533235e-28
-1.519941e-28
-3.4151832e-56
-9.8480053e-41
-2.8799547e-44
2.8169552e-41
7.7297985e-41
-5.573117e-28
0
0
-1.519941e-28
-8.4325075e-41
1.519941e-28
-6.840363e-42
3.5171447e-41
-5.8545997e-56
-6.3308605e-41
4.559823e-28
4.053176e-28
-1.4054179e-41
1.013294e-28
0
0
-2.026588e-28
2.026588e-28
-1.2653081e-40
-9.621953e-44
5.06647e-29
0
5.06647e-28
2.533235e-28
0
2.533235e-28
0
-4.559823e-28
-3.546529e-28
3.039882e-28
1.519941e-28
0
-5.06647e-29
-7.0270896e-42
1.013294e-28
5.6274316e-41
1.013294e-28
0
0
0
-1.013294e-28
-5.06647e-29
0
-1.519941e-28
-2.1059669e-41
1.519941e-28
0
0
-2.026588e-28
-4.2162538e-41
2.1059669e-41
1.519941e-28
-5.06647e-29
-1.0540634e-40
-3.039882e-28
0
5.06647e-29
1.4068579e-41
1.013294e-28
1.013294e-28
1.519941e-28
4.053176e-28
-3.039882e-28
0
-2.533235e-28
-5.06647e-29
1.4178785e-41
-1.519941e-28
0
-3.039882e-28
5.06647e-29
-3.039882e-28
5.573117e-28
6.079764e-28
-1.1254863e-40
-3.039882e-28
-2.4394166e-56
-4.559823e-28
-5.06647e-28
-2.8108358e-41
-6.079764e-28
1.013294e-28
-1.013294e-28
4.053176e-28
3.039882e-28
-4.053176e-28
0
0
-3.039882e-28
-1.9515332e-55
-7.093058e-28
0
0
0
-1.1709199e-55
1.013294e-28
0
0
-2.026588e-28
-4.053176e-28
2.026588e-28
-1.519941e-28
0
1.013294e-28
-5.6274316e-41
4.053176e-28
-3.546529e-28
0
1.013294e-28
-1.519941e-28
-4.3199321e-44
-5.06647e-28
3.039882e-28
-3.039882e-28
-2.026588e-28
2.533235e-28
2.026588e-28
-1.4068579e-41
-5.06647e-29
2.026588e-28
4.2205737e-41
4.559823e-28
-3.039882e-28
2.026588e-28
2.026588e-28
3.039882e-28
2.026588e-28
8.4411474e-41
7.093058e-28
-6.586411e-28
3.5999434e-44
2.026588e-28
-4.559823e-28
3.546529e-28
-3.1431713e-42
1.519941e-28
-5.4460431e-41
1.4075779e-40
4.053176e-28
5.06647e-29
-2.1599661e-44
-6.079764e-28
-1.0079842e-43
2.533235e-28
0
-2.533235e-28
0
-5.06647e-29
0
0
0
-2.8282732e-41
-4.8788331e-57
2.026588e-28
0
4.053176e-28
2.8137158e-41
2.533235e-28
0
0
0
-3.039882e-28
8.4411474e-41
2.026588e-28
0
-1.519941e-28
-7.828843e-54
-2.026588e-28
0
-6.079764e-28
3.039882e-28
-2.8151558e-41
-4.053176e-28
7.093058e-28
0
-1.013294e-28
-1.1254863e-40
6.079764e-28
0
2.7924029e-41
-3.546529e-28
-2.2509726e-40
-1.013294e-28
1.4064979e-40
3.5999434e-44
-7.0378894e-41
2.1599661e-44
3.546529e-28
0
-4.053176e-28
2.8122758e-41
-4.2184137e-41
-1.4636499e-56
-1.4068579e-40
0
-1.1146234e-27
-9.8480053e-41
1.519941e-28
1.013294e-28
-9.8429653e-41
-2.026588e-28
-5.06647e-29
9.8480053e-41
-2.2509726e-40
5.573117e-28
-3.039882e-28
-5.06647e-29
0
1.013294e-28
-1.1254863e-40
-4.053176e-28
0
0
0
-3.039882e-28
-1.1254863e-40
-9.119646e-28
0
0
0
0
0
0
0
-4.053176e-28
1.6890935e-40
6.079764e-28
2.533235e-28
2.533235e-28
1.013294e-28
1.1260623e-40
1.1243343e-40
5.06647e-29
2.026588e-28
-2.533235e-28
1.013294e-28
-3.039882e-28
-2.533235e-28
-2.8122758e-41
-1.013294e-28
1.519941e-28
-8.4325075e-41
-1.519941e-28
-5.06647e-29
1.519941e-28
3.039882e-28
-2.026588e-28
-1.519941e-28
0
4.559823e-28
2.533235e-28
1.4054179e-41
1.013294e-28
-2.533235e-28
1.013294e-28
-5.06647e-29
-1.6995171e-43
-1.519941e-28
-1.4068579e-41
-4.053176e-28
-3.546529e-28
4.3199321e-44
-4.053176e-28
5.6259916e-41
-2.5658541e-43
5.06647e-29
0
2.026588e-28
0
0
0
5.06647e-29
2.026588e-28
-5.06647e-29
1.519941e-28
0
-1.519941e-28
-1.4075779e-41
-3.039882e-28
0
0
-4.053176e-28
1.6873655e-40
5.06647e-29
0
0
-1.519941e-28
1.9685931e-40
2.026588e-28
0
-1.519941e-28
-1.4068579e-41
4.2184137e-41
-5.6274316e-41
-3.039882e-28
0
-2.8042736e-41
-5.6231116e-41
-1.519941e-28
0
1.013294e-28
1.013294e-28
5.06647e-29
-3.039882e-28
-4.2248936e-41
3.039882e-28
-4.2205737e-41
-1.519941e-28
0
0
5.06647e-29
-1.4061379e-41
-3.039882e-28
0
5.06647e-29
-5.06647e-29
-1.013294e-28
1.013294e-28
0
2.026588e-28
-5.06647e-28
-2.2498207e-40
-9.49496e-56
2.533235e-28
-2.5314802e-40
1.013294e-28
1.3728655e-41
-8.4368274e-41
2.2509726e-40
1.013294e-27
-1.8270433e-40
-4.053176e-28
0
0
0
5.06647e-28
1.519941e-28
1.013294e-28
3.546529e-28
0
0
-2.8604569e-41
-9.7576662e-57
-1.81748e-43
0
-6.079764e-28
-2.533235e-28
2.026588e-28
-5.06647e-29
0
-2.026588e-28
-1.1519819e-43
3.039882e-28
-2.8108358e-41
-4.053176e-28
4.053176e-28
3.1679502e-43
-5.06647e-29
-1.2026874e-53
1.4054179e-40
-5.06647e-29
0
-7.599705e-28
2.8129958e-40
3.039882e-28
2.533235e-28
-8.4353875e-41
2.533235e-28
-4.053176e-28
2.1599661e-44
2.8122366e-41
0
0
0
-1.519941e-28
3.546529e-28
1.013294e-27
-2.533235e-28
1.4068579e-41
1.4054179e-41
4.559823e-28
0
-4.559823e-28
2.8799547e-44
-1.013294e-28
4.053176e-28
3.6540866e-40
-4.053176e-28
-3.039882e-28
3.6597025e-40
9.119646e-28
0
4.053176e-28
3.546529e-28
0
6.586411e-28
3.546529e-28
-1.013294e-28
0
3.039882e-28
0
0
-2.026588e-28
4.2191337e-40
3.039882e-28
0
0
-1.519941e-28
-2.026588e-28
2.533235e-28
2.533235e-28
-1.013294e-28
1.519941e-28
-7.093058e-28
-4.559823e-28
1.1260623e-40
3.546529e-28
-1.4054179e-40
-1.5646933e-53
-1.519941e-28
1.519941e-28
5.06647e-29
-1.013294e-28
-4.3199321e-44
1.519941e-28
-2.026588e-28
2.533235e-28
2.026588e-28
5.06647e-28
6.079764e-28
-5.06647e-29
5.06647e-29
-2.533235e-28
1.6882295e-40
2.026588e-28
3.546529e-28
-5.6245516e-41
-4.2227337e-41
-5.06647e-29
0
0
-1.519941e-28
-5.06647e-29
0
-1.4233345e-41
2.533235e-28
0
2.533235e-28
-7.0342895e-41
-2.026588e-28
4.053176e-28
-1.4054179e-41
1.013294e-28
0
2.026588e-28
-5.6259916e-41
1.519941e-28
-5.06647e-29
-8.4281876e-41
-5.573117e-28
-4.559823e-28
-5.6245516e-41
-1.519941e-28
0
-3.039882e-28
2.026588e-28
1.4399774e-44
-5.6274316e-41
-2.533235e-28
3.546529e-28
0
-5.5562716e-41
-1.1249103e-40
-1.519941e-28
-2.8122758e-41
-1.013294e-28
-5.06647e-28
-6.079764e-28
-8.106352e-28
-1.4186116e-27
-1.013294e-28
0
-6.586411e-28
-1.6212704e-27
7.9198756e-44
-5.06647e-28
3.039882e-28
-1.519941e-28
2.026588e-28
1.013294e-28
-1.013294e-28
-5.0629604e-40
6.079764e-28
1.013294e-28
1.6873655e-40
-1.013294e-28
-2.026588e-28
1.519941e-28
1.2650346e-40
5.6216717e-41
-1.1416907e-40
2.026588e-28
-2.026588e-28
6.079764e-28
1.4061379e-41
-2.026588e-28
-1.5585316e-53
-2.026588e-28
-1.4061379e-41
-5.8545997e-56
2.026588e-28
-2.026588e-28
1.519941e-28
4.3909498e-56
1.013294e-28
4.2198537e-40
-1.013294e-28
1.013294e-28
-2.8122758e-41
-1.013294e-28
4.8788331e-57
1.519941e-28
0
0
5.06647e-29
-1.013294e-28
2.026588e-28
0
0
0
4.559823e-28
6.079764e-28
0
1.519941e-28
-2.026588e-28
1.6876535e-40
4.053176e-28
0
0
0
-4.053176e-28
-2.026588e-28
1.519941e-28
-2.533235e-28
-1.6882295e-40
5.06647e-28
0
0
1.013294e-27
-5.7599095e-44
5.06647e-29
-5.3455294e-44
-6.4146353e-44
3.039882e-28
-1.6882295e-40
4.053176e-28
0
0
4.559823e-28
6.586411e-28
0
0
2.533235e-28
4.559823e-28
0
-1.013294e-28
1.013294e-28
-2.533235e-28
3.039882e-28
3.039882e-28
-1.013294e-28
1.013294e-28
-1.6882295e-40
-3.546529e-28
-4.2190181e-41
-1.4061379e-40
4.053176e-28
0
-2.026588e-28
1.4064979e-40
5.06647e-29
-5.06647e-29
8.4389874e-41
5.06647e-29
0
5.06647e-29
-8.4411474e-41
-7.1998869e-44
1.519941e-28
5.06647e-29
1.013294e-28
0
1.013294e-28
-7.1248663e-56
1.013294e-28
7.1998869e-45
-1.013294e-28
6.079764e-28
9.119646e-28
-4.053176e-28
-1.3612159e-41
0
6.079764e-28
-8.4353875e-41
3.039882e-28
0
-2.2412365e-40
-2.8137158e-41
3.546529e-28
8.4411474e-41
1.013294e-28
-1.013294e-28
-6.3272606e-40
9.119646e-28
-4.053176e-28
2.8115558e-41
1.013294e-28
-3.546529e-28
1.2159528e-27
4.053176e-28
-2.026588e-28
2.026588e-28
-1.2654521e-40
2.026588e-28
-2.026588e-28
4.2205737e-41
1.519941e-28
-3.373003e-40
-3.039882e-28
-1.1249103e-40
-6.079764e-28
2.533235e-28
6.079764e-28
-5.06647e-29
-2.2503966e-40
5.573117e-28
2.8137158e-40
1.013294e-28
-2.026588e-28
1.6876535e-40
-2.2501086e-40
-5.6216717e-41
5.06647e-29
0
-3.039882e-28
-2.026588e-28
0
0
0
0
0
4.559823e-28
5.06647e-28
0
-5.06647e-29
1.013294e-28
8.4397074e-41
-3.039882e-28
0
0
0
-5.573117e-28
-7.599705e-28
6.079764e-28
4.559823e-28
-5.06647e-28
8.4411474e-41
-4.053176e-28
0
4.053176e-28
5.0638244e-40
-1.013294e-28
1.4171781e-41
5.06647e-29
1.013294e-28
1.9685931e-40
-4.053176e-28
0
0
5.06647e-29
-5.06647e-29
0
-1.013294e-28
-5.7599095e-44
-1.013294e-28
-5.06647e-29
4.559823e-28
0
-3.039882e-28
-6.079764e-28
0
-3.039882e-28
-1.013294e-28
-1.013294e-28
-1.519941e-28
-4.559823e-28
3.039882e-28
-3.039882e-28
-1.4399774e-44
-3.039882e-28
2.026588e-28
-2.026588e-28
-1.519941e-28
-4.8788331e-57
-2.026588e-28
-3.546529e-28
2.026588e-28
0
-4.053176e-28
-4.053176e-28
0
2.533235e-28
-1.6886249e-40
-8.4346675e-41
-1.013294e-28
-4.053176e-28
-1.1248947e-40
-3.039882e-28
-2.026588e-28
1.519941e-28
0
1.013294e-28
1.519941e-27
-3.546529e-28
1.4450977e-67
-8.4559538e-41
-2.026588e-28
-8.5528471e-44
5.06647e-28
1.1146234e-27
-8.106352e-28
-5.06647e-28
2.533235e-28
-5.7130986e-41
6.079764e-28
-1.9759233e-27
-2.026588e-28
7.599705e-28
1.013294e-28
2.533235e-28
7.093058e-28
-1.519941e-28
3.039882e-28
-6.74831e-40
6.7506139e-40
1.8239292e-27
-3.039882e-28
-5.06647e-29
1.013294e-28
2.533235e-28
-9.119646e-28
-8.6398642e-44
2.026588e-28
-2.533235e-28
-3.039882e-28
-1.519941e-28
-1.519941e-28
-3.039882e-28
0
-1.2829271e-43
-1.013294e-28
3.039882e-28
1.519941e-28
5.06647e-28
2.2498207e-40
-5.0614485e-40
8.427715e-41
0
-4.053176e-28
6.079764e-28
-7.093058e-28
-3.039882e-28
-3.039882e-28
5.06647e-29
-3.039882e-28
1.013294e-28
0
2.026588e-28
-4.053176e-28
3.546529e-28
8.106352e-28
-2.8122758e-41
1.519941e-28
-3.039882e-28
-1.013294e-28
5.0620965e-40
-2.026588e-28
2.533235e-28
0
3.039882e-28
0
1.1250543e-40
-4.559823e-28
-1.3172822e-27
3.3935887e-40
1.0079842e-43
6.079764e-28
0
-5.06647e-28
-5.3455294e-44
7.093058e-28
-6.1877988e-40
-4.053176e-28
-3.039882e-28
5.573117e-28
-6.74831e-40
-1.013294e-28
-2.026588e-28
1.013294e-28
-1.013294e-28
0
0
4.559823e-28
3.039882e-28
-1.2508539e-42
-1.2829271e-43
-1.013294e-28
-2.026588e-28
2.533235e-28
3.039882e-28
-7.093058e-28
5.06647e-28
5.06647e-28
-5.06647e-29
-3.5999434e-44
7.093058e-28
1.013294e-28
-3.039882e-28
3.546529e-28
1.6876535e-40
2.1337908e-42
0
3.039882e-28
3.039882e-28
-5.06647e-29
5.06647e-29
-4.2764235e-44
0
-1.013294e-28
-1.5802055e-53
-1.013294e-28
1.1246223e-40
5.06647e-28
0
4.053176e-28
-5.06647e-28
-3.039882e-28
-1.013294e-28
-3.039882e-28
5.06647e-29
-2.533235e-28
-4.053176e-28
2.533235e-28
-3.546529e-28
-5.06647e-28
6.079764e-28
3.039882e-28
4.053176e-28
-1.8239292e-27
-1.2159528e-27
4.053176e-28
6.079764e-28
-1.1249103e-40
-2.2498207e-40
-3.039882e-28
-3.374731e-40
-1.013294e-28
1.519941e-28
3.039882e-28
4.053176e-28
-5.06647e-28
-4.053176e-28
1.519941e-28
1.013294e-28
1.7105694e-43
-3.039882e-28
-4.3199321e-44
1.519941e-28
-5.06647e-28
-1.519941e-28
0
5.06647e-29
3.039882e-28
1.1146234e-27
-6.079764e-28
1.1811558e-39
6.079764e-28
-1.013294e-28
1.013294e-28
2.026588e-28
-1.519941e-28
5.06647e-29
1.519941e-28
-5.06647e-29
1.1146234e-27
4.2191337e-40
-2.533235e-28
4.053176e-28
9.119646e-28
8.4346675e-41
-1.4061379e-40
-7.9198756e-44
-4.559823e-28
-2.026588e-28
1.519941e-28
-6.079764e-28
3.374731e-40
7.093058e-28
0
0
2.026588e-28
-2.8122758e-41
-5.6231116e-41
-2.805822e-41
2.026588e-28
-5.06647e-29
5.6231116e-41
5.06647e-29
3.039882e-28
-1.013294e-28
0
0
0
-4.559823e-28
2.026588e-28
-1.519941e-28
1.1251983e-40
1.013294e-28
0
0
2.026588e-28
2.2498207e-40
1.6869335e-40
1.013294e-28
-2.533235e-28
-6.079764e-28
2.026588e-28
-1.519941e-28
9.119646e-28
4.559823e-28
0
0
0
-7.599705e-28
-6.079764e-28
1.519941e-28
2.2498207e-40
-5.06647e-29
-1.4399774e-44
2.533235e-28
-7.093058e-28
4.4996413e-40
2.533235e-28
4.053176e-28
0
1.9690971e-40
4.053176e-28
-1.013294e-28
-7.599705e-28
-9.119646e-28
3.039882e-28
1.9680891e-40
-2.026588e-28
3.039882e-28
5.06647e-28
-1.519941e-28
-2.8223379e-41
-1.013294e-28
-3.039882e-28
2.533235e-28
2.533235e-28
-5.6245516e-41
-8.4346675e-41
3.039882e-28
0
4.559823e-28
-3.039882e-28
4.559823e-28
-1.7105694e-42
-2.026588e-28
-3.546529e-28
6.1862148e-40
7.093058e-28
-3.546529e-28
4.559823e-28
2.533235e-28
1.1244228e-40
-1.013294e-28
-5.06647e-29
2.026588e-28
2.026588e-28
1.013294e-28
-3.039882e-28
1.1243343e-40
-3.546529e-28
-4.053176e-28
-7.599705e-28
5.06647e-28
1.013294e-28
-9.119646e-28
3.5999434e-44
3.039882e-28
3.039882e-28
-7.599705e-28
1.0691059e-44
-3.1614839e-54
6.74831e-40
3.039882e-28
3.039882e-28
7.093058e-28
-3.039882e-28
5.6245516e-41
-6.079764e-28
4.053176e-28
6.079764e-28
-2.7971586e-41
2.533235e-28
0
-1.013294e-28
-8.106352e-28
4.3199321e-44
-3.039882e-28
-3.546529e-28
-1.013294e-28
2.1599661e-44
2.5658541e-43
1.013294e-28
-2.5314802e-40
2.026588e-28
-7.599705e-28
-5.1317082e-43
0
0
-3.546529e-28
-1.0639587e-27
-1.519941e-28
9.119646e-28
-3.9371861e-40
2.2515441e-40
1.013294e-28
-1.6762233e-40
2.026588e-28
7.093058e-28
-2.533235e-28
-1.519941e-28
1.6719351e-27
3.039882e-28
8.4382674e-41
2.8108358e-41
-5.06647e-29
3.546529e-28
-6.079764e-28
-1.519941e-28
0
-6.079764e-28
1.013294e-28
-6.079764e-28
-2.8799547e-44
-5.06647e-28
1.2159528e-27
-5.573117e-28
-2.533235e-28
1.898992e-55
-3.2073177e-43
-1.013294e-28
-1.2829271e-43
1.013294e-28
-1.013294e-28
-1.8700244e-52
-2.026588e-28
1.013294e-28
-1.1194533e-40
9.119646e-28
0
-7.599705e-28
1.013294e-28
-1.0639587e-27
3.375595e-40
3.546529e-28
-5.06647e-28
-3.039882e-28
-8.4325075e-41
-8.106352e-28
8.4368274e-41
3.039882e-28
-5.6238316e-40
-6.748598e-40
-8.106352e-28
-6.079764e-28
2.026588e-28
-1.6877975e-40
-8.4344301e-52
-3.546529e-28
-5.06647e-28
-1.2159528e-27
6.079764e-28
-3.039882e-28
2.026588e-28
6.079764e-28
8.6398642e-44
3.039882e-28
6.079764e-28
-5.573117e-28
-1.0639587e-27
1.6875095e-39
5.06647e-28
1.013294e-28
-1.013294e-28
-6.079764e-28
4.559823e-28
-1.013294e-28
-2.2492447e-40
-1.519941e-28
-5.5999944e-41
-1.534853e-53
-1.013294e-28
8.4179081e-41
5.0629604e-40
-1.519941e-28
7.599705e-28
1.0639587e-27
0
0
0
-2.026588e-28
-9.119646e-28
-1.013294e-28
-6.2697396e-53
5.06647e-29
-1.2159528e-27
-3.546529e-28
5.06647e-29
-1.3898376e-43
5.06647e-29
-4.053176e-28
2.026588e-28
-1.013294e-28
-1.6873655e-40
1.013294e-28
-1.2159528e-27
-7.093058e-28
0
-1.1336392e-40
-3.374731e-40
1.519941e-28
6.079764e-28
2.026588e-28
-5.06647e-29
0
0
2.8036838e-41
6.079764e-28
-8.9992826e-40
-2.026588e-28
-1.519941e-28
5.06647e-29
2.533235e-28
-5.06647e-29
2.6345699e-54
7.5944407e-40
-1.0639587e-27
0
0
6.079764e-28
6.079764e-28
6.079764e-28
-4.4990653e-40
1.519941e-28
-1.6877975e-40
-3.039882e-28
0
1.013294e-27
7.093058e-28
-7.093058e-28
5.6367127e-41
-1.013294e-28
4.559823e-28
-5.06647e-29
-3.374731e-40
-3.039882e-28
1.519941e-28
-4.053176e-28
0
0
0
-6.079764e-28
3.039882e-28
-9.119646e-28
-4.053176e-28
0
2.3520329e-43
5.6245516e-41
-5.06647e-29
-1.013294e-28
4.053176e-28
-5.06647e-28
-2.026588e-28
-3.039882e-28
5.06647e-28
6.079764e-28
-5.3344771e-43
-1.013294e-28
1.013294e-28
-3.039882e-28
0
1.519941e-28
-7.093058e-28
4.053176e-28
4.053176e-28
-5.0620965e-40
1.519941e-28
-3.9173395e-55
-2.533235e-28
-2.8129958e-40
2.6742123e-68
1.519941e-28
0
-4.053176e-28
-1.013294e-28
-6.079764e-28
1.519941e-28
8.3950148e-41
0
-8.106352e-28
-3.039882e-28
-2.026588e-28
-5.06647e-29
-4.559823e-28
9.119646e-28
4.053176e-28
3.039882e-28
-2.026588e-28
-7.093058e-28
-4.053176e-28
1.6719351e-27
4.559823e-28
2.5310482e-40
-3.039882e-28
-5.7599095e-44
-6.079764e-28
-3.039882e-28
-1.3679469e-27
-4.053176e-28
1.0639587e-27
-2.026588e-28
3.039882e-28
-2.2501086e-40
-8.106352e-28
-3.039882e-28
8.4368274e-41
5.6781496e-41
-1.1249103e-40
1.519941e-28
-1.519941e-28
3.039882e-28
5.06647e-29
5.6245516e-41
3.039882e-28
1.6873655e-40
1.0639587e-27
-4.053176e-28
2.8137158e-40
4.5030972e-40
2.2501086e-40
-4.559823e-28
1.2159528e-27
3.039882e-28
8.4353875e-40
1.856102e-39
1.6719351e-27
-3.546529e-28
-7.093058e-28
4.4996413e-40
5.06647e-29
3.546529e-28
-5.06647e-28
-5.06647e-28
1.6871495e-40
-3.039882e-28
3.373867e-40
1.013294e-28
1.013294e-28
5.06647e-29
1.519941e-28
-1.4054179e-40
1.6873655e-40
-4.559823e-28
1.3172822e-27
-7.093058e-28
2.3627149e-39
2.1935751e-39
-1.6719351e-27
1.1146234e-27
-2.1599661e-43
-2.2292468e-27
1.0639587e-27
3.4958643e-27
1.6212704e-27
-5.7757758e-27
2.5872937e-39
2.8372232e-27
-7.093058e-27
8.106352e-27
2.2530174e-38
-5.573117e-27
7.0423933e-27
-8.4610049e-27
1.9759233e-26
-1.1703546e-26
-4.1190401e-26
0
0
4.6408865e-26
7.7758778e-42
-6.5154804e-26
3.8505172e-26
1.366427e-25
5.3653917e-26
-1.8968864e-25
-2.1225267e-41
-9.7923444e-38
-2.0934654e-25
3.7040962e-25
7.2493345e-37
-1.7109469e-25
2.0169617e-25
2.3746545e-25
-3.1029658e-37
-3.2840858e-25
7.7263667e-25
-9.0791142e-25
1.7746023e-36
1.2513168e-24
-2.2040664e-24
-1.724525e-24
1.0113181e-24
3.5566619e-24
1.3891247e-24
-1.6268435e-24
0
2.2277775e-24
-2.6051789e-24
-9.1366693e-24
-1.9753425e-36
8.3125573e-24
-4.8518543e-24
-5.6606656e-24
1.3203221e-23
-7.6957652e-24
8.9665879e-24
2.0885104e-23
-3.6467184e-23
4.7100951e-35
-3.6519938e-35
-3.8231785e-23
4.4418148e-23
2.5789751e-23
2.9932654e-23
3.8579554e-35
-4.0264301e-23
9.3327417e-23
-1.0810712e-22
-1.8774934e-22
0
8.3767951e-23
-5.3754374e-35
-3.1803657e-38
3.8769804e-22
1.4917512e-22
-5.1632076e-22
1.984631e-22
-1.6830475e-49
-7.9048985e-22
3.0338002e-22
1.0473568e-21
4.015446e-22
-9.2320284e-22
5.3036279e-22
-6.090471e-22
2.3281074e-33
1.6037906e-21
-2.7582032e-21
-1.1702133e-33
5.3589666e-33
-2.7625e-21
3.1605087e-21
2.0059902e-33
-2.0650449e-21
4.7174302e-21
2.6926714e-21
0
0
-7.9854516e-21
1.0097839e-32
2.9430663e-36
6.5397713e-33
6.6987817e-21
7.6131782e-21
-8.6474822e-21
-9.8167092e-21
2.227531e-20
-2.525819e-20
1.5888494e-32
3.2419552e-20
-3.6697066e-20
-6.9131504e-32
2.6053816e-32
-2.6518569e-20
5.9894207e-20
-3.3798864e-20
8.4645386e-32
8.5950827e-20
0
-1.0902487e-19
-6.1339429e-20
1.3795901e-19
7.7523875e-20
-8.7073275e-20
1.6278523e-31
1.0964309e-19
0
0
-3.0841318e-19
-3.4511422e-19
0
4.3132031e-19
2.4086555e-19
-2.6884508e-19
2.9988236e-19
-3.3428739e-19
0
8.2917086e-19
0
0
-5.698055e-19
7.0238316e-31
7.0205049e-19
0
-8.6268389e-19
-5.3028366e-31
1.0572228e-18
0
-2.5842381e-18
-2.8540083e-18
1.5748868e-18
1.9279703e-30
-1.9142401e-18
4.2164478e-18
4.6404823e-18
-5.103572e-18
-7.9707455e-34
-6.8393258e-30
-9.6068863e-34
7.4137671e-18
-4.0623127e-18
4.9386331e-30
-4.8681112e-18
5.3232941e-18
1.7450349e-17
-1.9054062e-17
-6.9299399e-18
7.5556341e-18
9.1372631e-30
8.961552e-18
-1.9497609e-17
-2.1194458e-17
2.3021561e-17
4.1605809e-29
1.3549982e-17
1.4684446e-17
-3.1803326e-17
1.7206494e-17
-2.0650597e-29
1.1162365e-29
-2.1697924e-17
-4.6810654e-17
5.0454491e-17
5.4339087e-17
0
-3.1439451e-17
-3.7500342e-29
7.2529312e-17
4.3186563e-29
-1.2508953e-16
-8.9312679e-17
0
1.0219413e-16
1.2119382e-28
5.827708e-17
6.2160944e-17
-1.9874841e-16
3.9150094e-29
1.5013242e-16
-7.9806933e-17
-1.6955457e-16
8.9983048e-17
1.9085954e-16
1.0112272e-16
0
-2.2653366e-16
1.1972687e-16
3.7935252e-16
-1.3344217e-16
-1.4070381e-16
-2.9647648e-16
-1.5604739e-16
3.2826534e-16
1.7249488e-16
1.8113425e-16
-2.1098479e-28
-1.9924216e-16
-2.0870792e-16
-4.3689047e-16
-2.28451e-16
0
0
0
5.421426e-16
5.6469498e-16
-5.8771657e-16
-3.3925741e-28
-3.5252888e-28
3.6593732e-28
7.5960198e-28
-7.0923738e-16
0
7.6044561e-16
3.9325524e-16
-4.0642329e-16
4.1971272e-16
4.3310875e-16
0
0
-9.4756155e-16
1.6234146e-27
1.1126717e-27
-1.0296647e-15
1.0570396e-15
1.0843582e-15
0
-1.1386787e-15
6.468341e-28
1.1923268e-15
-1.2188037e-15
-6.9124544e-28
1.2708714e-15
0
-1.3215013e-15
-6.7309046e-16
1.3703861e-15
-6.9703935e-16
-1.5737337e-27
1.4397761e-15
-1.4617065e-15
-1.4829759e-15
0
0
0
1.5607327e-15
1.5781695e-15
-1.5947388e-15
0
1.6251488e-15
0
8.258594e-16
-1.6634918e-15
-8.3711025e-16
8.4193953e-16
-1.6924428e-15
-8.4994417e-16
1.7061935e-15
8.5566884e-16
9.5224451e-28
-8.590335e-16
1.9090367e-27
-4.8883189e-31
-1.7189266e-15
0
8.565296e-16
1.708215e-15
8.5104515e-16
0
0
0
8.3237913e-16
-1.6522307e-15
-8.1921966e-16
8.1169791e-16
8.0355719e-16
-7.9480607e-16
-7.8545445e-16
1.5510274e-15
0
-1.5078355e-15
-1.4845856e-15
0
0
1.4086453e-15
7.6678428e-28
6.766373e-16
6.6215303e-16
-6.4727545e-16
6.3203202e-16
-6.1645156e-16
-1.2011281e-15
-5.8440045e-16
0
1.1027492e-15
5.9331209e-28
-5.1764087e-16
5.0059494e-16
4.8347665e-16
9.326429e-16
-8.9833012e-16
-4.3204292e-16
1.1794733e-31
-3.980418e-16
7.6246332e-16
-3.6459318e-16
3.481586e-16
3.7383917e-44
-3.160247e-16
6.0076727e-16
-5.7012548e-16
-5.4017405e-16
0
2.412621e-16
4.549065e-16
-1.1882525e-28
-2.0112794e-16
-1.8863901e-16
3.5322755e-16
3.3012099e-16
-1.5398501e-16
-2.8678228e-16
-2.6656092e-16
1.236525e-16
2.2900976e-16
-1.0583314e-16
9.763126e-17
-1.4966412e-28
-8.260427e-17
1.515183e-16
-1.3868806e-16
-7.0305586e-29
3.2057617e-28
-1.0508666e-16
9.5416976e-17
1.919676e-28
-3.9091469e-17
7.055201e-17
-3.17669e-17
8.1135784e-33
-1.1367919e-28
-2.2908691e-17
4.0914277e-17
-4.0474648e-29
8.9952769e-30
-1.4383233e-17
3.6196547e-33
2.2505369e-17
-1.9843017e-17
-4.9621122e-33
3.4035634e-29
-1.343145e-17
1.1744769e-17
1.1378339e-29
-8.926791e-18
3.8800948e-18
3.3669002e-18
2.9166377e-18
-2.522456e-18
2.4183971e-30
3.7579556e-18
0
0
-2.3986483e-18
-2.9329444e-34
1.7760542e-18
-7.6466844e-19
7.3153236e-31
-5.6877592e-19
-1.0912215e-30
8.5016427e-19
0
3.176653e-19
-5.4587662e-19
-2.3187214e-19
4.2741471e-31
-1.5254113e-19
2.5330795e-19
-1.231453e-19
1.1364975e-31
1.4902744e-19
0
0
-1.9083701e-19
6.8345949e-32
-4.7647127e-20
6.0549633e-20
4.2046089e-19
-5.2913508e-19
-1.5214189e-19
2.8049515e-19
-1.675316e-19
-3.068871e-31
-1.6727776e-19
8.9052245e-35
5.9087516e-31
-1.8885288e-19
3.4750387e-19
1.6586738e-19
0
1.7410855e-19
-1.9973245e-19
-2.2709116e-19
-2.0497575e-19
3.376635e-31
-1.3990355e-31
1.5257708e-31
2.7078817e-19
-9.7959597e-20
-1.593218e-31
3.0041356e-19
-2.5795985e-35
-1.5237302e-19
-2.4702401e-19
-2.5635627e-19
3.1049852e-19
1.9015681e-31
1.6526811e-19
1.6120898e-19
-3.2669435e-19
2.8209195e-19
9.6409182e-20
-1.8027148e-19
-7.239445e-20
4.1831708e-20
1.2811874e-19
6.3127094e-20
-4.1460889e-20
-6.421907e-20
8.0715035e-20
1.6698109e-19
-7.4864853e-20
-8.6281513e-20
-1.6427581e-19
-7.4441207e-20
1.3986408e-19
8.1984302e-20
1.182748e-19
-2.8625503e-19
-1.5297194e-19
2.9573497e-19
-2.9330162e-19
4.4866785e-47
-4.3492541e-35
-2.7141166e-19
2.2736151e-19
3.3802768e-31
9.9635218e-32
2.9705102e-31
-5.6772925e-47
1.1527339e-19
1.5074348e-33
7.3714369e-21
1.2154136e-20
3.0081886e-20
-6.0691976e-20
-8.1591877e-32
-2.8811884e-20
-6.3382926e-32
1.4406356e-20
-1.9567429e-20
0
-1.3745867e-21
7.8258492e-33
-1.3723578e-20
-4.1113604e-20
5.6469844e-20
9.0492203e-20
0
-1.514697e-19
1.7467973e-31
1.4757517e-19
-1.4248772e-19
-7.4182934e-32
6.3299097e-20
3.1431731e-32
1.4142137e-35
-3.874346e-20
3.0160501e-20
3.3514675e-20
-3.5351908e-20
3.6382475e-32
-3.1849958e-20
1.0300259e-31
-3.2372164e-32
-5.7919109e-20
5.5664996e-20
5.112858e-20
0
-2.7484671e-20
3.6076969e-32
4.6394972e-20
-4.9275056e-20
-4.6677142e-20
2.2709217e-20
4.4495908e-20
1.0521694e-32
1.5605598e-36
1.7636066e-33
7.6187078e-37
6.2216879e-21
-1.2145802e-20
3.0181979e-21
-1.9051378e-20
-1.1244566e-32
2.0456478e-20
-3.175305e-20
-3.9287227e-20
0