/*--------------------------------*- C++ -*----------------------------------*\
  =========                 |
  \\      /  F ield         | OpenFOAM: The Open Source CFD Toolbox
   \\    /   O peration     | Website:  https://openfoam.org
    \\  /    A nd           | Version:  7
     \\/     M anipulation  |
\*---------------------------------------------------------------------------*/
FoamFile
{
    version     2.0;
    format      ascii;
    class       volScalarField;
    location    "0.00306";
    object      Ux;
}
// * * * * * * * * * * * * * * * * * * * * * * * * * * * * * * * * * * * * * //

dimensions      [0 1 -1 0 0 0 0];

internalField   nonuniform List<scalar> 
5000
(
-89.681255
-89.60631
-89.563868
-89.519306
-89.475386
-89.431466
-89.387563
-89.343669
-89.299778
-89.255887
-89.211988
-89.168083
-89.124165
-89.08024
-89.036303
-88.992358
-88.948404
-88.904442
-88.860474
-88.8165
-88.772521
-88.728539
-88.684554
-88.640566
-88.596577
-88.552586
-88.508596
-88.464605
-88.420615
-88.376626
-88.332637
-88.28865
-88.244665
-88.200682
-88.1567
-88.112721
-88.068744
-88.02477
-87.980798
-87.936829
-87.892862
-87.848899
-87.804938
-87.76098
-87.717025
-87.673072
-87.629123
-87.585176
-87.541232
-87.497292
-87.453354
-87.409419
-87.365487
-87.321558
-87.277632
-87.233709
-87.189789
-87.145871
-87.101957
-87.058046
-87.014137
-86.970231
-86.926329
-86.882429
-86.838532
-86.794637
-86.750746
-86.706857
-86.662971
-86.619088
-86.575207
-86.531329
-86.487454
-86.443581
-86.399711
-86.355843
-86.311979
-86.268116
-86.224257
-86.180399
-86.136545
-86.092692
-86.048842
-86.004995
-85.96115
-85.917307
-85.873466
-85.829628
-85.785792
-85.741959
-85.698127
-85.654298
-85.610472
-85.566647
-85.522825
-85.479005
-85.435186
-85.391371
-85.347557
-85.303745
-85.259935
-85.216127
-85.172322
-85.128518
-85.084716
-85.040915
-84.997117
-84.95332
-84.909525
-84.865731
-84.821939
-84.778148
-84.734359
-84.690571
-84.646785
-84.602999
-84.559215
-84.515432
-84.471651
-84.42787
-84.38409
-84.340312
-84.296534
-84.252757
-84.208981
-84.165206
-84.121432
-84.077658
-84.033885
-83.990113
-83.946341
-83.902569
-83.858798
-83.815027
-83.771256
-83.727486
-83.683716
-83.639945
-83.596175
-83.552404
-83.508633
-83.464862
-83.421091
-83.377319
-83.333547
-83.289774
-83.246001
-83.202227
-83.158452
-83.114677
-83.0709
-83.027124
-82.983345
-82.939566
-82.895785
-82.852004
-82.80822
-82.764436
-82.720649
-82.676862
-82.633072
-82.589282
-82.545488
-82.501695
-82.457897
-82.4141
-82.370298
-82.326496
-82.28269
-82.238884
-82.195073
-82.151262
-82.107446
-82.06363
-82.019809
-81.975987
-81.932161
-81.888334
-81.844502
-81.800669
-81.756831
-81.712993
-81.669148
-81.625303
-81.581452
-81.537601
-81.493743
-81.449884
-81.40602
-81.362154
-81.318283
-81.27441
-81.230531
-81.18665
-81.142764
-81.098876
-81.054982
-81.011086
-80.967184
-80.92328
-80.879371
-80.835458
-80.791541
-80.74762
-80.703695
-80.659766
-80.615832
-80.571895
-80.527953
-80.484008
-80.440058
-80.396105
-80.352147
-80.308185
-80.264219
-80.22025
-80.176275
-80.132298
-80.088315
-80.04433
-80.00034
-79.956346
-79.912348
-79.868347
-79.824342
-79.780333
-79.73632
-79.692304
-79.648283
-79.60426
-79.560232
-79.516202
-79.472167
-79.428129
-79.384088
-79.340044
-79.295995
-79.251945
-79.20789
-79.163833
-79.119773
-79.07571
-79.031644
-78.987575
-78.943503
-78.899429
-78.855353
-78.811274
-78.767192
-78.723108
-78.679022
-78.634934
-78.590844
-78.546752
-78.502657
-78.458561
-78.414464
-78.370364
-78.326263
-78.282161
-78.238057
-78.193952
-78.149846
-78.105739
-78.06163
-78.017521
-77.973411
-77.9293
-77.885188
-77.841076
-77.796964
-77.752851
-77.708737
-77.664624
-77.62051
-77.576397
-77.532283
-77.48817
-77.444057
-77.399944
-77.355832
-77.311721
-77.26761
-77.2235
-77.17939
-77.135282
-77.091174
-77.047067
-77.002962
-76.958858
-76.914755
-76.870653
-76.826553
-76.782454
-76.738357
-76.694261
-76.650167
-76.606075
-76.561985
-76.517896
-76.47381
-76.429725
-76.385643
-76.341562
-76.297484
-76.253408
-76.209335
-76.165263
-76.121194
-76.077128
-76.033064
-75.989003
-75.944944
-75.900888
-75.856834
-75.812783
-75.768735
-75.72469
-75.680648
-75.636608
-75.592572
-75.548538
-75.504507
-75.460479
-75.416455
-75.372433
-75.328414
-75.284399
-75.240387
-75.196377
-75.152372
-75.108369
-75.06437
-75.020374
-74.976381
-74.932392
-74.888406
-74.844424
-74.800445
-74.756469
-74.712497
-74.668528
-74.624563
-74.580601
-74.536643
-74.492688
-74.448737
-74.404789
-74.360845
-74.316904
-74.272967
-74.229034
-74.185104
-74.141177
-74.097254
-74.053335
-74.009419
-73.965507
-73.921599
-73.877694
-73.833793
-73.789895
-73.746001
-73.702111
-73.658224
-73.614341
-73.570461
-73.526585
-73.482713
-73.438845
-73.39498
-73.351119
-73.307261
-73.263407
-73.219557
-73.175711
-73.131868
-73.088029
-73.044193
-73.000362
-72.956533
-72.912709
-72.868888
-72.825071
-72.781258
-72.737448
-72.693642
-72.64984
-72.606041
-72.562247
-72.518455
-72.474668
-72.430884
-72.387104
-72.343328
-72.299555
-72.255786
-72.212021
-72.168259
-72.124502
-72.080747
-72.036997
-71.99325
-71.949507
-71.905767
-71.862032
-71.8183
-71.774571
-71.730847
-71.687126
-71.643408
-71.599695
-71.555985
-71.512279
-71.468576
-71.424877
-71.381182
-71.337491
-71.293803
-71.250119
-71.206439
-71.162762
-71.119089
-71.07542
-71.031755
-70.988093
-70.944435
-70.90078
-70.85713
-70.813483
-70.769839
-70.726199
-70.682563
-70.638931
-70.595302
-70.551678
-70.508056
-70.464439
-70.420825
-70.377214
-70.333608
-70.290005
-70.246405
-70.20281
-70.159218
-70.115629
-70.072045
-70.028464
-69.984886
-69.941313
-69.897743
-69.854176
-69.810613
-69.767055
-69.7235
-69.679948
-69.6364
-69.592856
-69.549315
-69.505778
-69.462245
-69.418715
-69.375189
-69.331667
-69.288148
-69.244634
-69.201122
-69.157615
-69.114111
-69.070611
-69.027114
-68.983621
-68.940132
-68.896647
-68.853165
-68.809687
-68.766212
-68.722741
-68.679274
-68.635811
-68.592351
-68.548894
-68.505442
-68.461993
-68.418547
-68.375106
-68.331668
-68.288234
-68.244803
-68.201376
-68.157953
-68.114533
-68.071117
-68.027705
-67.984296
-67.940891
-67.897489
-67.854091
-67.810697
-67.767307
-67.72392
-67.680537
-67.637157
-67.593781
-67.550408
-67.50704
-67.463675
-67.420313
-67.376955
-67.333601
-67.29025
-67.246903
-67.20356
-67.16022
-67.116884
-67.073551
-67.030222
-66.986897
-66.943575
-66.900257
-66.856942
-66.813631
-66.770323
-66.727019
-66.683719
-66.640422
-66.597129
-66.553839
-66.510553
-66.46727
-66.423991
-66.380716
-66.337444
-66.294176
-66.250911
-66.20765
-66.164393
-66.121139
-66.077888
-66.034642
-65.991398
-65.948159
-65.904922
-65.86169
-65.81846
-65.775235
-65.732013
-65.688794
-65.645579
-65.602367
-65.559159
-65.515955
-65.472754
-65.429556
-65.386362
-65.343172
-65.299985
-65.256802
-65.213622
-65.170445
-65.127272
-65.084103
-65.040937
-64.997774
-64.954615
-64.91146
-64.868307
-64.825159
-64.782013
-64.738872
-64.695733
-64.652598
-64.609467
-64.566339
-64.523214
-64.480093
-64.436975
-64.393861
-64.35075
-64.307643
-64.264539
-64.221438
-64.178341
-64.135248
-64.092157
-64.049071
-64.005987
-63.962907
-63.91983
-63.876757
-63.833687
-63.79062
-63.747557
-63.704497
-63.66144
-63.618387
-63.575337
-63.532291
-63.489248
-63.446208
-63.403171
-63.360138
-63.317108
-63.274082
-63.231058
-63.188038
-63.145022
-63.102009
-63.058999
-63.015992
-62.972988
-62.929988
-62.886991
-62.843998
-62.801008
-62.758021
-62.715037
-62.672057
-62.629079
-62.586106
-62.543135
-62.500168
-62.457204
-62.414243
-62.371286
-62.328332
-62.285381
-62.242433
-62.199489
-62.156548
-62.113611
-62.070676
-62.027745
-61.984818
-61.941893
-61.898972
-61.856054
-61.81314
-61.770229
-61.72732
-61.684416
-61.641514
-61.598615
-61.555719
-61.512827
-61.469937
-61.427051
-61.384167
-61.341286
-61.298408
-61.255533
-61.21266
-61.16979
-61.126922
-61.084057
-61.041195
-60.998334
-60.955476
-60.912621
-60.869767
-60.826915
-60.784066
-60.741218
-60.698372
-60.655528
-60.612686
-60.569846
-60.527007
-60.484171
-60.441336
-60.398502
-60.355671
-60.312841
-60.270013
-60.227187
-60.184363
-60.14154
-60.09872
-60.055901
-60.013085
-59.97027
-59.927457
-59.884647
-59.841839
-59.799033
-59.756229
-59.713427
-59.670628
-59.627831
-59.585037
-59.542245
-59.499455
-59.456668
-59.413884
-59.371102
-59.328323
-59.285546
-59.242772
-59.200001
-59.157233
-59.114467
-59.071704
-59.028943
-58.986186
-58.943431
-58.900679
-58.857929
-58.815183
-58.772439
-58.729698
-58.68696
-58.644224
-58.601491
-58.558762
-58.516034
-58.47331
-58.430589
-58.38787
-58.345154
-58.302441
-58.25973
-58.217023
-58.174318
-58.131615
-58.088916
-58.046219
-58.003526
-57.960834
-57.918146
-57.87546
-57.832777
-57.790097
-57.74742
-57.704745
-57.662073
-57.619404
-57.576737
-57.534073
-57.491412
-57.448753
-57.406097
-57.363444
-57.320794
-57.278146
-57.235501
-57.192858
-57.150218
-57.107581
-57.064946
-57.022314
-56.979685
-56.937059
-56.894435
-56.851813
-56.809195
-56.766578
-56.723965
-56.681354
-56.638746
-56.596141
-56.553538
-56.510938
-56.46834
-56.425745
-56.383152
-56.340562
-56.297975
-56.25539
-56.212808
-56.170229
-56.127652
-56.085078
-56.042506
-55.999936
-55.95737
-55.914805
-55.872244
-55.829685
-55.787129
-55.744575
-55.702025
-55.659476
-55.61693
-55.574386
-55.531845
-55.489306
-55.446769
-55.404236
-55.361705
-55.319177
-55.276651
-55.234127
-55.191606
-55.149086
-55.106568
-55.064053
-55.02154
-54.979029
-54.936522
-54.894017
-54.851514
-54.809013
-54.766513
-54.724015
-54.681518
-54.639023
-54.59653
-54.554039
-54.51155
-54.469063
-54.42658
-54.384098
-54.341618
-54.299139
-54.25666
-54.214182
-54.171704
-54.129227
-54.086752
-54.044279
-54.001809
-53.959342
-53.916878
-53.874416
-53.831955
-53.789495
-53.747034
-53.704571
-53.662109
-53.619647
-53.577187
-53.53473
-53.492277
-53.449829
-53.407384
-53.364941
-53.322501
-53.280061
-53.237621
-53.195178
-53.152735
-53.110291
-53.067849
-53.025408
-52.982971
-52.940538
-52.89811
-52.855687
-52.813268
-52.770852
-52.728438
-52.686024
-52.643611
-52.601198
-52.558784
-52.516371
-52.473957
-52.431544
-52.389132
-52.346721
-52.304314
-52.26191
-52.219511
-52.177118
-52.13473
-52.092347
-52.049969
-52.007594
-51.965221
-51.922849
-51.880477
-51.838104
-51.795731
-51.753358
-51.710984
-51.66861
-51.626236
-51.583861
-51.541488
-51.499114
-51.456742
-51.414372
-51.372003
-51.329637
-51.287273
-51.244912
-51.202553
-51.160198
-51.117845
-51.075496
-51.03315
-50.990809
-50.948472
-50.906139
-50.863811
-50.821485
-50.779163
-50.736843
-50.694526
-50.652211
-50.609899
-50.567589
-50.525283
-50.48298
-50.44068
-50.398384
-50.356091
-50.3138
-50.271511
-50.229223
-50.186938
-50.144654
-50.102373
-50.060094
-50.017816
-49.975539
-49.933262
-49.890982
-49.848701
-49.806421
-49.764141
-49.721865
-49.679593
-49.637325
-49.595063
-49.552805
-49.510549
-49.468294
-49.42604
-49.383786
-49.341534
-49.299284
-49.257038
-49.214798
-49.172563
-49.130334
-49.088107
-49.045881
-49.003655
-48.961427
-48.9192
-48.876974
-48.83475
-48.792531
-48.750315
-48.708104
-48.665895
-48.623687
-48.581479
-48.539271
-48.497063
-48.454857
-48.412654
-48.370455
-48.328257
-48.286061
-48.243864
-48.201662
-48.159459
-48.117256
-48.075056
-48.03286
-47.990671
-47.948489
-47.906313
-47.864142
-47.821975
-47.779808
-47.737641
-47.695473
-47.653304
-47.611135
-47.568968
-47.526803
-47.484641
-47.442481
-47.400323
-47.358167
-47.31601
-47.273853
-47.231697
-47.189541
-47.147388
-47.105237
-47.06309
-47.020945
-46.978802
-46.936658
-46.894512
-46.852365
-46.810218
-46.768073
-46.72593
-46.683791
-46.641654
-46.59952
-46.557387
-46.515254
-46.473119
-46.430983
-46.388847
-46.346712
-46.304578
-46.262447
-46.22032
-46.178198
-46.136079
-46.093963
-46.051848
-46.009735
-45.96762
-45.925504
-45.883387
-45.841271
-45.799155
-45.75704
-45.714926
-45.672813
-45.630703
-45.588593
-45.546485
-45.504378
-45.462274
-45.420172
-45.378074
-45.335979
-45.293887
-45.251796
-45.209706
-45.167615
-45.125522
-45.083429
-45.041338
-44.999249
-44.957164
-44.915086
-44.873013
-44.830946
-44.788881
-44.746818
-44.704752
-44.662683
-44.620611
-44.578537
-44.536463
-44.49439
-44.452321
-44.410256
-44.368197
-44.326144
-44.284096
-44.242052
-44.20001
-44.157969
-44.115923
-44.073874
-44.031823
-43.989771
-43.947722
-43.905678
-43.863641
-43.82161
-43.779587
-43.737567
-43.695549
-43.653529
-43.611506
-43.569483
-43.52746
-43.485441
-43.443427
-43.401419
-43.359418
-43.317421
-43.275426
-43.233425
-43.191414
-43.149396
-43.10737
-43.065345
-43.023324
-42.981309
-42.939304
-42.897307
-42.855318
-42.813333
-42.77135
-42.729367
-42.687383
-42.6454
-42.603418
-42.56144
-42.519467
-42.477499
-42.435537
-42.393579
-42.351624
-42.309669
-42.267709
-42.225743
-42.183768
-42.141789
-42.099808
-42.057828
-42.015852
-41.973882
-41.93192
-41.889967
-41.848022
-41.806085
-41.764154
-41.722225
-41.680297
-41.638368
-41.596435
-41.5545
-41.512562
-41.470622
-41.428682
-41.386743
-41.344807
-41.302876
-41.260951
-41.219033
-41.17712
-41.135212
-41.093305
-41.051396
-41.009483
-40.967567
-40.925646
-40.883725
-40.841802
-40.799879
-40.757957
-40.716037
-40.674118
-40.632202
-40.590288
-40.548376
-40.506468
-40.464563
-40.422663
-40.380767
-40.338876
-40.29699
-40.255106
-40.213225
-40.171344
-40.129463
-40.087583
-40.045704
-40.003828
-39.961954
-39.920084
-39.878215
-39.836349
-39.794483
-39.752619
-39.710755
-39.668889
-39.627021
-39.58515
-39.543276
-39.501403
-39.459532
-39.417664
-39.375803
-39.333946
-39.292093
-39.250242
-39.20839
-39.166535
-39.124679
-39.08282
-39.04096
-38.999099
-38.957236
-38.915375
-38.873516
-38.831664
-38.78982
-38.747987
-38.706163
-38.664344
-38.622526
-38.580701
-38.538867
-38.497028
-38.455183
-38.413339
-38.371495
-38.329653
-38.287813
-38.245978
-38.204149
-38.162327
-38.120513
-38.078707
-38.036906
-37.995107
-37.953301
-37.911484
-37.869662
-37.827839
-37.786018
-37.744204
-37.702401
-37.660607
-37.618823
-37.577046
-37.535273
-37.493502
-37.451728
-37.409949
-37.368162
-37.326368
-37.284573
-37.24278
-37.200992
-37.159214
-37.117447
-37.075689
-37.033937
-36.992188
-36.950438
-36.908683
-36.866927
-36.825169
-36.783411
-36.741653
-36.699897
-36.658143
-36.616391
-36.574643
-36.532901
-36.491165
-36.449435
-36.407708
-36.365983
-36.324259
-36.282534
-36.240809
-36.199085
-36.157362
-36.11564
-36.07392
-36.032201
-35.990484
-35.948769
-35.907058
-35.865351
-35.823649
-35.781952
-35.740259
-35.698567
-35.656877
-35.615185
-35.573494
-35.531803
-35.490114
-35.448427
-35.406744
-35.365064
-35.323388
-35.281715
-35.240044
-35.198373
-35.156702
-35.115032
-35.073362
-35.031693
-34.990025
-34.948359
-34.906695
-34.865034
-34.823376
-34.781722
-34.74007
-34.698422
-34.656776
-34.615132
-34.57349
-34.53185
-34.490212
-34.448576
-34.406942
-34.365311
-34.323682
-34.282055
-34.240428
-34.198803
-34.157178
-34.115553
-34.073927
-34.032302
-33.990677
-33.949054
-33.907433
-33.865815
-33.824201
-33.78259
-33.740984
-33.69938
-33.657778
-33.616176
-33.574575
-33.532974
-33.491372
-33.449769
-33.408167
-33.366565
-33.324963
-33.283362
-33.241762
-33.200164
-33.158567
-33.116972
-33.075379
-33.033787
-32.992197
-32.950609
-32.909022
-32.867436
-32.825851
-32.784267
-32.742683
-32.7011
-32.659516
-32.617933
-32.57635
-32.534767
-32.493184
-32.451602
-32.410022
-32.368442
-32.326863
-32.285284
-32.243706
-32.202129
-32.160552
-32.118977
-32.077403
-32.035831
-31.99426
-31.95269
-31.911121
-31.869553
-31.827985
-31.786418
-31.744852
-31.703286
-31.66172
-31.620155
-31.578591
-31.537028
-31.495465
-31.453904
-31.412344
-31.370784
-31.329225
-31.287667
-31.24611
-31.204554
-31.163
-31.121447
-31.079895
-31.038344
-30.996793
-30.955243
-30.913691
-30.872139
-30.830586
-30.789034
-30.747481
-30.70593
-30.664381
-30.622833
-30.581288
-30.539745
-30.498204
-30.456665
-30.415128
-30.373593
-30.33206
-30.290528
-30.248998
-30.207469
-30.165941
-30.124414
-30.082887
-30.041361
-29.999836
-29.958313
-29.91679
-29.875269
-29.833749
-29.79223
-29.750713
-29.709197
-29.667683
-29.62617
-29.584659
-29.543148
-29.501637
-29.460128
-29.418621
-29.377116
-29.335611
-29.294108
-29.252605
-29.211103
-29.169602
-29.128102
-29.086604
-29.045109
-29.003616
-28.962124
-28.920634
-28.879144
-28.837656
-28.796168
-28.754682
-28.713196
-28.671712
-28.630227
-28.588742
-28.547257
-28.505773
-28.46429
-28.422809
-28.38133
-28.339853
-28.298379
-28.256907
-28.215437
-28.173971
-28.132507
-28.091046
-28.049587
-28.00813
-27.966673
-27.925218
-27.883766
-27.842316
-27.80087
-27.759427
-27.717985
-27.676544
-27.6351
-27.593655
-27.55221
-27.510766
-27.469326
-27.427891
-27.386461
-27.345035
-27.303611
-27.262187
-27.220759
-27.179327
-27.137892
-27.096458
-27.055027
-27.013601
-26.972181
-26.930768
-26.88936
-26.847954
-26.806548
-26.765139
-26.723728
-26.682315
-26.640903
-26.599491
-26.55808
-26.516669
-26.475257
-26.433846
-26.392437
-26.351032
-26.309632
-26.268238
-26.226849
-26.185466
-26.144085
-26.102705
-26.06132
-26.019931
-25.978537
-25.937143
-25.895749
-25.854358
-25.81297
-25.771585
-25.730205
-25.688826
-25.64745
-25.606075
-25.564702
-25.52333
-25.481961
-25.440594
-25.399229
-25.357864
-25.316498
-25.275129
-25.233756
-25.192382
-25.151008
-25.109634
-25.068263
-25.026893
-24.985527
-24.944163
-24.902802
-24.861444
-24.820089
-24.778736
-24.737385
-24.696036
-24.654687
-24.613337
-24.571984
-24.53063
-24.489275
-24.447919
-24.406564
-24.365211
-24.323859
-24.28251
-24.241162
-24.199816
-24.158473
-24.117131
-24.07579
-24.034452
-23.993115
-23.951779
-23.910444
-23.86911
-23.827777
-23.786443
-23.745109
-23.703774
-23.662439
-23.621105
-23.579772
-23.538441
-23.497112
-23.455785
-23.414459
-23.373135
-23.331812
-23.290491
-23.249172
-23.207853
-23.166535
-23.125216
-23.083895
-23.042576
-23.001257
-22.95994
-22.918625
-22.877311
-22.835997
-22.794684
-22.753371
-22.712059
-22.670749
-22.629442
-22.588137
-22.546833
-22.505531
-22.464228
-22.422926
-22.381623
-22.340322
-22.299021
-22.257723
-22.216426
-22.175131
-22.133838
-22.092546
-22.051254
-22.009961
-21.968666
-21.927372
-21.886079
-21.84479
-21.803504
-21.76222
-21.720938
-21.679654
-21.638366
-21.597076
-21.555787
-21.5145
-21.473216
-21.431937
-21.390662
-21.349389
-21.308118
-21.266846
-21.22557
-21.184293
-21.143013
-21.101734
-21.060457
-21.019181
-20.977909
-20.936639
-20.895371
-20.854104
-20.812838
-20.771573
-20.730311
-20.689054
-20.647801
-20.606552
-20.565308
-20.524064
-20.482819
-20.44157
-20.400319
-20.359067
-20.317815
-20.276565
-20.235317
-20.194071
-20.152828
-20.111586
-20.070346
-20.029109
-19.987875
-19.946645
-19.905418
-19.864194
-19.822971
-19.781745
-19.740517
-19.699288
-19.658058
-19.616829
-19.575602
-19.534376
-19.493152
-19.451929
-19.410707
-19.369485
-19.328265
-19.287047
-19.245832
-19.20462
-19.163409
-19.122201
-19.080993
-19.039785
-18.998577
-18.95737
-18.916164
-18.874961
-18.833759
-18.79256
-18.751361
-18.710162
-18.668962
-18.627763
-18.586565
-18.545369
-18.504175
-18.462983
-18.421793
-18.380602
-18.339412
-18.298221
-18.25703
-18.215841
-18.174654
-18.13347
-18.092287
-18.051105
-18.009923
-17.968739
-17.927557
-17.886374
-17.845194
-17.804016
-17.76284
-17.721665
-17.680491
-17.639316
-17.59814
-17.556964
-17.51579
-17.474618
-17.433448
-17.39228
-17.351114
-17.309947
-17.268778
-17.227609
-17.18644
-17.145273
-17.104109
-17.062948
-17.021789
-16.98063
-16.939469
-16.898306
-16.857143
-16.815982
-16.774823
-16.733668
-16.692516
-16.651365
-16.610212
-16.569056
-16.527899
-16.486743
-16.44559
-16.40444
-16.363295
-16.322151
-16.281007
-16.239859
-16.198708
-16.157557
-16.116409
-16.075265
-16.034125
-15.992989
-15.951854
-15.910715
-15.86957
-15.828425
-15.787281
-15.746142
-15.705007
-15.663878
-15.622751
-15.581622
-15.540484
-15.499344
-15.458206
-15.41707
-15.375941
-15.334818
-15.293698
-15.252578
-15.21145
-15.170315
-15.129181
-15.088049
-15.046923
-15.005805
-14.964693
-14.923583
-14.882465
-14.841335
-14.800204
-14.759075
-14.717953
-14.676839
-14.635734
-14.594632
-14.553526
-14.512402
-14.471275
-14.430149
-14.389029
-14.347919
-14.306819
-14.265723
-14.224627
-14.183513
-14.142392
-14.10127
-14.060151
-14.019041
-13.977943
-13.936854
-13.895768
-13.854671
-13.813552
-13.772432
-13.731315
-13.690208
-13.649114
-13.60803
-13.56695
-13.525856
-13.484745
-13.443634
-13.402524
-13.361423
-13.320331
-13.279248
-13.238169
-13.197084
-13.155982
-13.114877
-13.073772
-13.032672
-12.991583
-12.950504
-12.909429
-12.868351
-12.827253
-12.786152
-12.745052
-12.703958
-12.662874
-12.621798
-12.580728
-12.539655
-12.498565
-12.457472
-12.416376
-12.375282
-12.334194
-12.293116
-12.252046
-12.210983
-12.169918
-12.128837
-12.087747
-12.046659
-12.005574
-11.964497
-11.923427
-11.88236
-11.841288
-11.800203
-11.75912
-11.718041
-11.67697
-11.635908
-11.594849
-11.553788
-11.512709
-11.471628
-11.430548
-11.389471
-11.3484
-11.307337
-11.266278
-11.225222
-11.184159
-11.143083
-11.102005
-11.060928
-11.019857
-10.978796
-10.937742
-10.896693
-10.855641
-10.81457
-10.7735
-10.732433
-10.691375
-10.650327
-10.609285
-10.56824
-10.527172
-10.486101
-10.445033
-10.403971
-10.362919
-10.321875
-10.280835
-10.239788
-10.198727
-10.157664
-10.116598
-10.075536
-10.034481
-9.993436
-9.9523988
-9.9113656
-9.8703283
-9.8292716
-9.7882149
-9.7471607
-9.7061156
-9.665082
-9.6240562
-9.5830311
-9.5419838
-9.5009272
-9.4598738
-9.4188281
-9.3777939
-9.3367696
-9.2957491
-9.2547182
-9.2136681
-9.1726193
-9.1315714
-9.0905291
-9.0494952
-9.0084702
-8.9674522
-8.9264374
-8.8854168
-8.8443781
-8.8033399
-8.7623044
-8.721278
-8.680263
-8.6392558
-8.5982498
-8.5572242
-8.5161902
-8.4751592
-8.4341338
-8.3931166
-8.3521065
-8.3110998
-8.2700922
-8.2290716
-8.1880439
-8.1470139
-8.1059884
-8.064972
-8.0239669
-7.9829713
-7.9419797
-7.900982
-7.8599656
-7.8189505
-7.7779365
-7.7369277
-7.6959258
-7.6549307
-7.6139403
-7.5729508
-7.5319471
-7.4909266
-7.4499079
-7.4088949
-7.3678942
-7.3269062
-7.2859262
-7.2449476
-7.2039566
-7.1629602
-7.1219639
-7.0809653
-7.039965
-6.9989643
-6.9579669
-6.9169761
-6.8759931
-6.8350167
-6.794043
-6.7530649
-6.712071
-6.6710717
-6.6300712
-6.5890733
-6.5480818
-6.5070983
-6.4661221
-6.4251511
-6.3841829
-6.3432152
-6.3022404
-6.2612551
-6.2202683
-6.1792841
-6.1383045
-6.097329
-6.0563553
-6.0153753
-5.9743861
-5.9333996
-5.8924181
-5.8514445
-5.8104779
-5.7695155
-5.7285545
-5.6875889
-5.6466143
-5.6056407
-5.5646702
-5.5237046
-5.4827422
-5.44178
-5.4008078
-5.3598342
-5.3188647
-5.2779014
-5.2369438
-5.1959891
-5.1550316
-5.1140578
-5.0730781
-5.0321041
-4.9911429
-4.9501973
-4.9092629
-4.8683316
-4.827382
-4.7864078
-4.7454345
-4.7044659
-4.6635108
-4.6225697
-4.5816366
-4.5407046
-4.4997551
-4.4587919
-4.4178269
-4.376864
-4.3359096
-4.2949666
-4.2540326
-4.2131023
-4.1721695
-4.131227
-4.0902832
-4.0493335
-4.0083818
-3.9674346
-3.9264973
-3.88557
-3.844647
-3.8037114
-3.7627557
-3.7218067
-3.6808654
-3.6399315
-3.5990004
-3.5580678
-3.517134
-3.4762015
-3.4352717
-3.3943457
-3.3534219
-3.3124979
-3.2715732
-3.2306513
-3.1897343
-3.1488204
-3.1079058
-3.0669806
-3.0260467
-2.9851138
-2.9441865
-2.9032692
-2.8623596
-2.8214524
-2.7805424
-2.7396272
-2.6987088
-2.6577909
-2.6168774
-2.575969
-2.5350627
-2.4941526
-2.4532363
-2.4123221
-2.3714135
-2.33051
-2.2896088
-2.2487093
-2.2078119
-2.1669151
-2.1260154
-2.0851136
-2.0442111
-2.0033092
-1.9624114
-1.9215209
-1.8806357
-1.8397509
-1.7988627
-1.7579726
-1.7170812
-1.6761906
-1.6353064
-1.5944323
-1.553564
-1.5126913
-1.4718041
-1.4309227
-1.3900525
-1.349192
-1.3083319
-1.2674623
-1.2265936
-1.1857285
-1.1448709
-1.1040202
-1.0631675
-1.0223099
-0.98146064
-0.9406178
-0.89977457
-0.85893401
-0.81809714
-0.77725398
-0.73641506
-0.69558764
-0.65476229
-0.61393143
-0.57310576
-0.53228936
-0.49148118
-0.45066544
-0.40983884
-0.36902902
-0.3282221
-0.2874165
-0.24661804
-0.20582725
-0.16504782
-0.12425103
-0.083471977
-0.042706595
-0.0019095768
0.038863938
0.079632173
0.12040279
0.16115026
0.20188854
0.24268717
0.28351185
0.32427597
0.36503658
0.40579184
0.44654063
0.48728377
0.52802143
0.56875374
0.60948075
0.65020252
0.69091904
0.7316303
0.77233632
0.81303705
0.85373249
0.89442259
0.93510731
0.97578661
1.0164604
1.0571288
1.0977915
1.1384486
1.1791001
1.2197459
1.2603859
1.3010201
1.3416485
1.3822708
1.4228872
1.4634976
1.5041018
1.5446999
1.5852917
1.6258773
1.6664565
1.7070293
1.7475957
1.7881556
1.8287089
1.8692555
1.9097954
1.9503286
1.990855
2.0313746
2.0718872
2.1123929
2.1528915
2.1933829
2.2338671
2.2743442
2.314814
2.3552766
2.3957318
2.4361795
2.4766196
2.5170522
2.5574771
2.5978943
2.6383038
2.6787056
2.7190995
2.7594855
2.7998636
2.8402337
2.8805957
2.9209496
2.9612954
3.001633
3.0419623
3.0822833
3.1225961
3.1629004
3.2031963
3.2434837
3.2837626
3.3240329
3.3642946
3.4045477
3.4447921
3.4850277
3.5252546
3.5654727
3.605682
3.6458824
3.6860739
3.7262564
3.76643
3.8065946
3.8467501
3.8868966
3.9270341
3.9671624
4.0072816
4.0473916
4.0874925
4.1275841
4.1676666
4.2077399
4.2478039
4.2878587
4.3279042
4.3679405
4.4079674
4.447985
4.4879934
4.5279925
4.5679822
4.6079627
4.6479338
4.6878956
4.727848
4.7677912
4.8077251
4.8476497
4.8875651
4.9274711
4.9673678
5.0072553
5.0471336
5.0870026
5.1268625
5.1667132
5.2065547
5.246387
5.2862102
5.3260243
5.3658294
5.4056254
5.4454124
5.4851904
5.5249595
5.5647195
5.6044707
5.644213
5.6839465
5.7236712
5.7633872
5.8030945
5.842793
5.8824829
5.9221642
5.9618369
6.0015012
6.041157
6.0808044
6.1204434
6.160074
6.1996964
6.2393106
6.2789166
6.3185144
6.3581042
6.397686
6.4372598
6.4768257
6.5163837
6.555934
6.5954765
6.6350113
6.6745385
6.7140581
6.7535702
6.7930748
6.8325721
6.8720621
6.9115447
6.9510202
6.9904885
7.0299497
7.069404
7.1088513
7.1482917
7.1877253
7.2271521
7.2665722
7.3059857
7.3453927
7.3847932
7.4241872
7.463575
7.5029564
7.5423316
7.5817007
7.6210637
7.6604207
7.6997717
7.7391169
7.7784564
7.81779
7.8571181
7.8964406
7.9357575
7.9750691
8.0143753
8.0536761
8.0929718
8.1322623
8.1715478
8.2108282
8.2501038
8.2893745
8.3286404
8.3679016
8.4071581
8.4464101
8.4856577
8.5249008
8.5641396
8.6033741
8.6426044
8.6818306
8.7210527
8.7602709
8.7994852
8.8386957
8.8779024
8.9171054
8.9563048
8.9955007
9.0346932
9.0738822
9.113068
9.1522505
9.1914299
9.2306061
9.2697794
9.3089497
9.3481172
9.3872819
9.4264438
9.4656032
9.5047599
9.5439142
9.583066
9.6222155
9.6613627
9.7005078
9.7396507
9.7787916
9.8179305
9.8570676
9.8962028
9.9353363
9.9744681
10.013598
10.052727
10.091854
10.13098
10.170105
10.209228
10.248351
10.287472
10.326592
10.365711
10.40483
10.443948
10.483065
10.522182
10.561298
10.600413
10.639529
10.678644
10.717759
10.756874
10.795989
10.835104
10.874219
10.913334
10.95245
10.991566
11.030683
11.0698
11.108918
11.148037
11.187157
11.226277
11.265399
11.304522
11.343646
11.382771
11.421898
11.461026
11.500156
11.539288
11.578421
11.617557
11.656694
11.695833
11.734974
11.774118
11.813264
11.852412
11.891563
11.930716
11.969872
12.00903
12.048191
12.087354
12.126521
12.16569
12.204863
12.244039
12.283218
12.322403
12.361593
12.400789
12.439991
12.479198
12.518409
12.557623
12.596838
12.636056
12.675277
12.714502
12.753734
12.792972
12.832216
12.871467
12.910724
12.949985
12.989251
13.028523
13.0678
13.107084
13.146376
13.185675
13.224983
13.264299
13.303621
13.342949
13.38228
13.421615
13.460954
13.5003
13.539654
13.579019
13.618394
13.657778
13.697169
13.736566
13.775968
13.815376
13.854792
13.894217
13.933651
13.973094
14.012546
14.052008
14.091478
14.130958
14.170445
14.209942
14.249447
14.288961
14.328485
14.368018
14.407561
14.447114
14.486676
14.526249
14.565833
14.605427
14.64503
14.684643
14.724266
14.763899
14.803544
14.843201
14.882869
14.922547
14.962235
15.001934
15.041644
15.081367
15.121101
15.160847
15.200605
15.240373
15.280153
15.319946
15.35975
15.399567
15.439396
15.479238
15.519091
15.558957
15.598836
15.638728
15.678632
15.71855
15.75848
15.798423
15.83838
15.87835
15.918333
15.95833
15.99834
16.038364
16.078402
16.118454
16.15852
16.1986
16.238695
16.278803
16.318926
16.359064
16.399217
16.439384
16.479566
16.519763
16.559976
16.600204
16.640447
16.680706
16.72098
16.76127
16.801577
16.841899
16.882237
16.922592
16.962963
17.003351
17.043755
17.084175
17.124612
17.165066
17.205537
17.246024
17.286527
17.327047
17.367585
17.408138
17.44871
17.489299
17.529906
17.570533
17.61118
17.65185
17.692544
17.733264
17.774011
17.814788
17.855595
17.896434
17.937305
17.978207
18.019139
18.060098
18.10108
18.142083
18.183101
18.224131
18.265168
18.306208
18.347256
18.388317
18.4294
18.470512
18.511664
18.552862
18.594113
18.635416
18.676768
18.718162
18.75959
18.801043
18.842513
18.883993
18.925477
18.966975
19.008503
19.050075
19.091703
19.133392
19.175144
19.216954
19.258809
19.3007
19.342615
19.384547
19.426495
19.46847
19.510491
19.552576
19.594732
19.636957
19.679245
19.721585
19.763965
19.806376
19.848814
19.891285
19.933807
19.976398
20.019067
20.061813
20.104626
20.147496
20.190412
20.233369
20.276367
20.319418
20.362538
20.40574
20.449025
20.492386
20.535811
20.57929
20.622819
20.666402
20.710047
20.753769
20.797575
20.841465
20.885427
20.929449
20.973526
21.017658
21.061854
21.106123
21.150475
21.194907
21.239411
21.283976
21.328601
21.37329
21.418056
21.462908
21.507847
21.552869
21.59797
21.643146
21.688402
21.733747
21.779183
21.824714
21.870335
21.916044
21.961839
22.007722
22.053694
22.099757
22.145909
22.192149
22.238474
22.284882
22.331375
22.37795
22.424609
22.471349
22.518171
22.565074
22.612056
22.659117
22.706257
22.753475
22.80077
22.848139
22.895583
22.943098
22.990683
23.038338
23.086059
23.133847
23.181699
23.229614
23.27759
23.325626
23.37372
23.42187
23.470074
23.51833
23.566637
23.614993
23.663396
23.711844
23.760334
23.808865
23.857436
23.906043
23.954685
24.00336
24.052065
24.100798
24.149557
24.19834
24.247145
24.295969
24.34481
24.393666
24.442534
24.491412
24.540297
24.589188
24.638082
24.686977
24.73587
24.784759
24.833641
24.882514
24.931376
24.980225
25.029058
25.077873
25.126668
25.175442
25.224191
25.272913
25.321607
25.370271
25.418902
25.467499
25.516059
25.564581
25.613062