/*--------------------------------*- C++ -*----------------------------------*\
  =========                 |
  \\      /  F ield         | OpenFOAM: The Open Source CFD Toolbox
   \\    /   O peration     | Website:  https://openfoam.org
    \\  /    A nd           | Version:  7
     \\/     M anipulation  |
\*---------------------------------------------------------------------------*/
FoamFile
{
    version     2.0;
    format      ascii;
    class       surfaceScalarField;
    location    "0.00244";
    object      phi;
}
// * * * * * * * * * * * * * * * * * * * * * * * * * * * * * * * * * * * * * //

dimensions      [1 0 -1 0 0 0 0];

internalField   nonuniform List<scalar> 
4999
(
1.2358483
1.2358483
1.2358483
1.2358482
1.2358482
1.2358482
1.2358482
1.2358481
1.2358481
1.2358481
1.2358481
1.2358481
1.235848
1.235848
1.235848
1.235848
1.2358479
1.2358479
1.2358479
1.2358479
1.2358479
1.2358478
1.2358478
1.2358478
1.2358478
1.2358477
1.2358477
1.2358477
1.2358477
1.2358477
1.2358476
1.2358476
1.2358476
1.2358476
1.2358475
1.2358475
1.2358475
1.2358475
1.2358475
1.2358474
1.2358474
1.2358474
1.2358474
1.2358474
1.2358473
1.2358473
1.2358473
1.2358473
1.2358473
1.2358472
1.2358472
1.2358472
1.2358472
1.2358471
1.2358471
1.2358471
1.2358471
1.2358471
1.235847
1.235847
1.235847
1.235847
1.2358469
1.2358469
1.2358469
1.2358469
1.2358468
1.2358468
1.2358468
1.2358467
1.2358467
1.2358467
1.2358466
1.2358466
1.2358466
1.2358465
1.2358464
1.2358463
1.2358463
1.2358462
1.235846
1.2358457
1.2358451
1.2358438
1.2358407
1.2358354
1.235828
1.2358181
1.2358052
1.2357886
1.2357675
1.2357408
1.2357079
1.2356678
1.2356203
1.2355654
1.2355038
1.2354367
1.2353655
1.2352921
1.2352186
1.2351469
1.2350786
1.2350152
1.2349576
1.2349066
1.2348622
1.2348243
1.2347927
1.2347667
1.2347457
1.234729
1.2347159
1.2347058
1.234698
1.2346922
1.2346878
1.2346846
1.2346822
1.2346804
1.2346792
1.2346783
1.2346776
1.2346771
1.2346768
1.2346766
1.2346764
1.2346762
1.2346761
1.2346761
1.234676
1.234676
1.2346759
1.2346759
1.2346759
1.2346758
1.2346758
1.2346758
1.2346757
1.2346757
1.2346757
1.2346757
1.2346756
1.2346756
1.2346756
1.2346756
1.2346755
1.2346755
1.2346755
1.2346755
1.2346755
1.2346754
1.2346754
1.2346754
1.2346754
1.2346753
1.2346753
1.2346753
1.2346753
1.2346752
1.2346752
1.2346752
1.2346752
1.2346751
1.2346751
1.2346751
1.2346751
1.234675
1.234675
1.234675
1.234675
1.2346749
1.2346749
1.2346749
1.2346749
1.2346749
1.2346748
1.2346748
1.2346748
1.2346748
1.2346747
1.2346747
1.2346747
1.2346747
1.2346746
1.2346746
1.2346746
1.2346746
1.2346745
1.2346745
1.2346745
1.2346745
1.2346744
1.2346744
1.2346744
1.2346744
1.2346743
1.2346743
1.2346743
1.2346743
1.2346743
1.2346742
1.2346742
1.2346742
1.2346742
1.2346741
1.2346741
1.2346741
1.2346741
1.234674
1.234674
1.234674
1.234674
1.2346739
1.2346739
1.2346739
1.2346739
1.2346738
1.2346738
1.2346738
1.2346738
1.2346738
1.2346737
1.2346737
1.2346737
1.2346737
1.2346736
1.2346736
1.2346736
1.2346736
1.2346735
1.2346735
1.2346735
1.2346735
1.2346734
1.2346734
1.2346734
1.2346734
1.2346734
1.2346733
1.2346733
1.2346733
1.2346733
1.2346732
1.2346732
1.2346732
1.2346732
1.2346732
1.2346731
1.2346731
1.2346731
1.2346731
1.234673
1.234673
1.234673
1.234673
1.2346729
1.2346729
1.2346729
1.2346729
1.2346729
1.2346728
1.2346728
1.2346728
1.2346728
1.2346727
1.2346727
1.2346727
1.2346727
1.2346727
1.2346726
1.2346726
1.2346726
1.2346726
1.2346725
1.2346725
1.2346725
1.2346725
1.2346725
1.2346724
1.2346724
1.2346724
1.2346724
1.2346723
1.2346723
1.2346723
1.2346723
1.2346723
1.2346722
1.2346722
1.2346722
1.2346722
1.2346722
1.2346721
1.2346721
1.2346721
1.2346721
1.234672
1.234672
1.234672
1.234672
1.234672
1.2346719
1.2346719
1.2346719
1.2346719
1.2346718
1.2346718
1.2346718
1.2346718
1.2346718
1.2346717
1.2346717
1.2346717
1.2346717
1.2346717
1.2346716
1.2346716
1.2346716
1.2346716
1.2346716
1.2346715
1.2346715
1.2346715
1.2346715
1.2346715
1.2346714
1.2346714
1.2346714
1.2346714
1.2346714
1.2346713
1.2346713
1.2346713
1.2346713
1.2346712
1.2346712
1.2346712
1.2346712
1.2346712
1.2346711
1.2346711
1.2346711
1.2346711
1.2346711
1.234671
1.234671
1.234671
1.234671
1.234671
1.2346709
1.2346709
1.2346709
1.2346709
1.2346709
1.2346708
1.2346708
1.2346708
1.2346708
1.2346708
1.2346707
1.2346707
1.2346707
1.2346707
1.2346707
1.2346706
1.2346706
1.2346706
1.2346706
1.2346706
1.2346705
1.2346705
1.2346705
1.2346705
1.2346705
1.2346704
1.2346704
1.2346704
1.2346704
1.2346704
1.2346703
1.2346703
1.2346703
1.2346703
1.2346703
1.2346702
1.2346702
1.2346702
1.2346702
1.2346702
1.2346701
1.2346701
1.2346701
1.2346701
1.2346701
1.23467
1.23467
1.23467
1.23467
1.23467
1.2346699
1.2346699
1.2346699
1.2346699
1.2346699
1.2346699
1.2346698
1.2346698
1.2346698
1.2346698
1.2346698
1.2346697
1.2346697
1.2346697
1.2346697
1.2346697
1.2346696
1.2346696
1.2346696
1.2346696
1.2346696
1.2346695
1.2346695
1.2346695
1.2346695
1.2346695
1.2346694
1.2346694
1.2346694
1.2346694
1.2346694
1.2346694
1.2346693
1.2346693
1.2346693
1.2346693
1.2346693
1.2346692
1.2346692
1.2346692
1.2346692
1.2346692
1.2346691
1.2346691
1.2346691
1.2346691
1.2346691
1.2346691
1.234669
1.234669
1.234669
1.234669
1.234669
1.2346689
1.2346689
1.2346689
1.2346689
1.2346689
1.2346688
1.2346688
1.2346688
1.2346688
1.2346688
1.2346687
1.2346687
1.2346687
1.2346687
1.2346687
1.2346687
1.2346686
1.2346686
1.2346686
1.2346686
1.2346686
1.2346685
1.2346685
1.2346685
1.2346685
1.2346685
1.2346685
1.2346684
1.2346684
1.2346684
1.2346684
1.2346684
1.2346684
1.2346683
1.2346683
1.2346683
1.2346683
1.2346683
1.2346682
1.2346682
1.2346682
1.2346682
1.2346682
1.2346681
1.2346681
1.2346681
1.2346681
1.2346681
1.234668
1.234668
1.234668
1.234668
1.234668
1.234668
1.2346679
1.2346679
1.2346679
1.2346679
1.2346679
1.2346678
1.2346678
1.2346678
1.2346678
1.2346678
1.2346678
1.2346678
1.2346677
1.2346677
1.2346677
1.2346677
1.2346677
1.2346676
1.2346676
1.2346676
1.2346676
1.2346676
1.2346675
1.2346675
1.2346675
1.2346675
1.2346675
1.2346675
1.2346674
1.2346674
1.2346674
1.2346674
1.2346674
1.2346674
1.2346673
1.2346673
1.2346673
1.2346673
1.2346673
1.2346672
1.2346672
1.2346672
1.2346672
1.2346672
1.2346672
1.2346672
1.2346671
1.2346671
1.2346671
1.2346671
1.2346671
1.234667
1.234667
1.234667
1.234667
1.234667
1.234667
1.2346669
1.2346669
1.2346669
1.2346669
1.2346669
1.2346669
1.2346668
1.2346668
1.2346668
1.2346668
1.2346668
1.2346668
1.2346668
1.2346667
1.2346667
1.2346667
1.2346667
1.2346667
1.2346666
1.2346666
1.2346666
1.2346666
1.2346666
1.2346666
1.2346665
1.2346665
1.2346665
1.2346665
1.2346665
1.2346665
1.2346664
1.2346664
1.2346664
1.2346664
1.2346664
1.2346664
1.2346663
1.2346663
1.2346663
1.2346663
1.2346663
1.2346663
1.2346662
1.2346662
1.2346662
1.2346662
1.2346662
1.2346662
1.2346661
1.2346661
1.2346661
1.2346661
1.2346661
1.2346661
1.234666
1.234666
1.234666
1.234666
1.234666
1.234666
1.234666
1.2346659
1.2346659
1.2346659
1.2346659
1.2346659
1.2346659
1.2346658
1.2346658
1.2346658
1.2346658
1.2346658
1.2346658
1.2346657
1.2346657
1.2346657
1.2346657
1.2346657
1.2346657
1.2346656
1.2346656
1.2346656
1.2346656
1.2346656
1.2346656
1.2346655
1.2346655
1.2346655
1.2346655
1.2346655
1.2346655
1.2346655
1.2346654
1.2346654
1.2346654
1.2346654
1.2346654
1.2346654
1.2346653
1.2346653
1.2346653
1.2346653
1.2346653
1.2346653
1.2346652
1.2346652
1.2346652
1.2346652
1.2346652
1.2346652
1.2346651
1.2346651
1.2346651
1.2346651
1.2346651
1.2346651
1.2346651
1.234665
1.234665
1.234665
1.234665
1.234665
1.234665
1.2346649
1.2346649
1.2346649
1.2346649
1.2346649
1.2346649
1.2346649
1.2346648
1.2346648
1.2346648
1.2346648
1.2346648
1.2346648
1.2346648
1.2346647
1.2346647
1.2346647
1.2346647
1.2346647
1.2346647
1.2346646
1.2346646
1.2346646
1.2346646
1.2346646
1.2346646
1.2346646
1.2346645
1.2346645
1.2346645
1.2346645
1.2346645
1.2346645
1.2346645
1.2346644
1.2346644
1.2346644
1.2346644
1.2346644
1.2346644
1.2346644
1.2346643
1.2346643
1.2346643
1.2346643
1.2346643
1.2346643
1.2346643
1.2346642
1.2346642
1.2346642
1.2346642
1.2346642
1.2346642
1.2346642
1.2346642
1.2346641
1.2346641
1.2346641
1.2346641
1.2346641
1.2346641
1.2346641
1.234664
1.234664
1.234664
1.234664
1.234664
1.234664
1.234664
1.234664
1.2346639
1.2346639
1.2346639
1.2346639
1.2346639
1.2346639
1.2346639
1.2346638
1.2346638
1.2346638
1.2346638
1.2346638
1.2346638
1.2346638
1.2346638
1.2346637
1.2346637
1.2346637
1.2346637
1.2346637
1.2346637
1.2346637
1.2346636
1.2346636
1.2346636
1.2346636
1.2346636
1.2346636
1.2346636
1.2346636
1.2346635
1.2346635
1.2346635
1.2346635
1.2346635
1.2346635
1.2346635
1.2346635
1.2346634
1.2346634
1.2346634
1.2346634
1.2346634
1.2346634
1.2346634
1.2346634
1.2346633
1.2346633
1.2346633
1.2346633
1.2346633
1.2346633
1.2346633
1.2346633
1.2346632
1.2346632
1.2346632
1.2346632
1.2346632
1.2346632
1.2346632
1.2346632
1.2346631
1.2346631
1.2346631
1.2346631
1.2346631
1.2346631
1.2346631
1.2346631
1.234663
1.234663
1.234663
1.234663
1.234663
1.234663
1.234663
1.2346629
1.2346629
1.2346629
1.2346629
1.2346629
1.2346629
1.2346629
1.2346629
1.2346628
1.2346628
1.2346628
1.2346628
1.2346628
1.2346628
1.2346628
1.2346628
1.2346627
1.2346627
1.2346627
1.2346627
1.2346627
1.2346627
1.2346627
1.2346626
1.2346626
1.2346626
1.2346626
1.2346626
1.2346626
1.2346626
1.2346626
1.2346625
1.2346625
1.2346625
1.2346625
1.2346625
1.2346625
1.2346625
1.2346624
1.2346624
1.2346624
1.2346624
1.2346624
1.2346624
1.2346624
1.2346623
1.2346623
1.2346623
1.2346623
1.2346623
1.2346623
1.2346623
1.2346622
1.2346622
1.2346622
1.2346622
1.2346622
1.2346622
1.2346621
1.2346621
1.2346621
1.2346621
1.2346621
1.2346621
1.2346621
1.234662
1.234662
1.234662
1.234662
1.234662
1.234662
1.2346619
1.2346619
1.2346619
1.2346619
1.2346619
1.2346619
1.2346618
1.2346618
1.2346618
1.2346618
1.2346618
1.2346618
1.2346617
1.2346617
1.2346617
1.2346617
1.2346617
1.2346616
1.2346616
1.2346616
1.2346616
1.2346616
1.2346615
1.2346615
1.2346615
1.2346615
1.2346615
1.2346614
1.2346614
1.2346614
1.2346614
1.2346614
1.2346614
1.2346613
1.2346613
1.2346613
1.2346613
1.2346613
1.2346612
1.2346612
1.2346612
1.2346612
1.2346611
1.2346611
1.2346611
1.2346611
1.2346611
1.234661
1.234661
1.234661
1.234661
1.2346609
1.2346609
1.2346609
1.2346609
1.2346609
1.2346608
1.2346608
1.2346608
1.2346608
1.2346607
1.2346607
1.2346607
1.2346607
1.2346606
1.2346606
1.2346606
1.2346606
1.2346605
1.2346605
1.2346605
1.2346605
1.2346604
1.2346604
1.2346604
1.2346604
1.2346603
1.2346603
1.2346603
1.2346603
1.2346602
1.2346602
1.2346602
1.2346602
1.2346601
1.2346601
1.2346601
1.23466
1.23466
1.23466
1.23466
1.2346599
1.2346599
1.2346599
1.2346598
1.2346598
1.2346598
1.2346598
1.2346597
1.2346597
1.2346597
1.2346597
1.2346596
1.2346596
1.2346596
1.2346595
1.2346595
1.2346595
1.2346595
1.2346594
1.2346594
1.2346594
1.2346593
1.2346593
1.2346593
1.2346592
1.2346592
1.2346592
1.2346591
1.2346591
1.2346591
1.2346591
1.234659
1.234659
1.234659
1.2346589
1.2346589
1.2346589
1.2346588
1.2346588
1.2346588
1.2346587
1.2346587
1.2346587
1.2346586
1.2346586
1.2346586
1.2346585
1.2346585
1.2346585
1.2346585
1.2346584
1.2346584
1.2346584
1.2346583
1.2346583
1.2346583
1.2346582
1.2346582
1.2346582
1.2346581
1.2346581
1.2346581
1.234658
1.234658
1.234658
1.2346579
1.2346579
1.2346579
1.2346578
1.2346578
1.2346578
1.2346577
1.2346577
1.2346577
1.2346576
1.2346576
1.2346575
1.2346575
1.2346575
1.2346574
1.2346574
1.2346574
1.2346573
1.2346573
1.2346573
1.2346572
1.2346572
1.2346572
1.2346571
1.2346571
1.234657
1.234657
1.234657
1.2346569
1.2346569
1.2346569
1.2346568
1.2346568
1.2346567
1.2346567
1.2346567
1.2346566
1.2346566
1.2346566
1.2346565
1.2346565
1.2346564
1.2346564
1.2346564
1.2346563
1.2346563
1.2346562
1.2346562
1.2346562
1.2346561
1.2346561
1.234656
1.234656
1.234656
1.2346559
1.2346559
1.2346558
1.2346558
1.2346557
1.2346557
1.2346557
1.2346556
1.2346556
1.2346555
1.2346555
1.2346554
1.2346554
1.2346553
1.2346553
1.2346552
1.2346552
1.2346552
1.2346551
1.2346551
1.234655
1.234655
1.2346549
1.2346549
1.2346548
1.2346548
1.2346547
1.2346547
1.2346546
1.2346546
1.2346545
1.2346545
1.2346544
1.2346544
1.2346543
1.2346543
1.2346542
1.2346541
1.2346541
1.234654
1.234654
1.2346539
1.2346539
1.2346538
1.2346537
1.2346537
1.2346536
1.2346536
1.2346535
1.2346534
1.2346534
1.2346533
1.2346532
1.2346532
1.2346531
1.234653
1.2346529
1.2346529
1.2346528
1.2346527
1.2346526
1.2346526
1.2346525
1.2346524
1.2346523
1.2346523
1.2346522
1.2346521
1.234652
1.2346519
1.2346518
1.2346517
1.2346516
1.2346515
1.2346514
1.2346513
1.2346512
1.2346511
1.234651
1.2346509
1.2346508
1.2346507
1.2346505
1.2346504
1.2346503
1.2346502
1.23465
1.2346499
1.2346497
1.2346496
1.2346494
1.2346493
1.2346491
1.234649
1.2346488
1.2346487
1.2346485
1.2346483
1.2346481
1.2346479
1.2346477
1.2346476
1.2346473
1.2346471
1.2346469
1.2346467
1.2346465
1.2346462
1.234646
1.2346457
1.2346455
1.2346452
1.2346449
1.2346447
1.2346444
1.2346441
1.2346438
1.2346434
1.2346431
1.2346428
1.2346424
1.2346421
1.2346417
1.2346413
1.2346409
1.2346405
1.2346401
1.2346397
1.2346392
1.2346388
1.2346383
1.2346378
1.2346373
1.2346368
1.2346363
1.2346357
1.2346352
1.2346346
1.234634
1.2346333
1.2346327
1.234632
1.2346314
1.2346307
1.2346299
1.2346292
1.2346284
1.2346276
1.2346268
1.234626
1.2346251
1.2346242
1.2346233
1.2346223
1.2346214
1.2346204
1.2346193
1.2346182
1.2346171
1.234616
1.2346148
1.2346136
1.2346124
1.2346111
1.2346098
1.2346084
1.234607
1.2346056
1.2346041
1.2346026
1.234601
1.2345994
1.2345977
1.234596
1.2345943
1.2345924
1.2345906
1.2345887
1.2345867
1.2345846
1.2345826
1.2345804
1.2345782
1.2345759
1.2345736
1.2345712
1.2345687
1.2345662
1.2345635
1.2345609
1.2345581
1.2345553
1.2345524
1.2345494
1.2345463
1.2345431
1.2345399
1.2345365
1.2345331
1.2345296
1.234526
1.2345223
1.2345185
1.2345146
1.2345106
1.2345065
1.2345023
1.2344979
1.2344935
1.2344889
1.2344843
1.2344795
1.2344746
1.2344695
1.2344643
1.2344591
1.2344536
1.2344481
1.2344424
1.2344365
1.2344305
1.2344244
1.2344181
1.2344117
1.2344051
1.2343984
1.2343915
1.2343844
1.2343771
1.2343697
1.2343622
1.2343544
1.2343465
1.2343383
1.23433
1.2343215
1.2343128
1.2343039
1.2342949
1.2342856
1.2342761
1.2342663
1.2342564
1.2342463
1.2342359
1.2342253
1.2342145
1.2342034
1.2341922
1.2341806
1.2341689
1.2341569
1.2341446
1.2341321
1.2341193
1.2341062
1.2340929
1.2340793
1.2340655
1.2340514
1.2340369
1.2340222
1.2340072
1.2339919
1.2339764
1.2339605
1.2339443
1.2339278
1.233911
1.2338938
1.2338764
1.2338586
1.2338405
1.233822
1.2338032
1.2337841
1.2337646
1.2337447
1.2337246
1.233704
1.2336831
1.2336618
1.2336401
1.2336181
1.2335957
1.2335729
1.2335497
1.2335261
1.2335021
1.2334778
1.233453
1.2334278
1.2334022
1.2333761
1.2333497
1.2333228
1.2332955
1.2332678
1.2332396
1.233211
1.2331819
1.2331524
1.2331224
1.233092
1.2330611
1.2330298
1.232998
1.2329657
1.2329329
1.2328997
1.2328659
1.2328317
1.232797
1.2327618
1.2327261
1.2326899
1.2326532
1.232616
1.2325782
1.23254
1.2325012
1.2324619
1.2324221
1.2323818
1.2323409
1.2322995
1.2322576
1.2322151
1.2321721
1.2321285
1.2320844
1.2320398
1.2319945
1.2319488
1.2319024
1.2318555
1.2318081
1.23176
1.2317114
1.2316623
1.2316125
1.2315622
1.2315113
1.2314599
1.2314078
1.2313552
1.2313019
1.2312481
1.2311937
1.2311387
1.2310831
1.231027
1.2309702
1.2309128
1.2308549
1.2307963
1.2307371
1.2306774
1.230617
1.230556
1.2304945
1.2304323
1.2303695
1.2303061
1.2302422
1.2301776
1.2301124
1.2300466
1.2299801
1.2299131
1.2298455
1.2297773
1.2297084
1.229639
1.2295689
1.2294983
1.229427
1.2293551
1.2292826
1.2292096
1.2291359
1.2290616
1.2289867
1.2289113
1.2288352
1.2287585
1.2286812
1.2286034
1.2285249
1.2284459
1.2283662
1.228286
1.2282052
1.2281238
1.2280418
1.2279593
1.2278761
1.2277924
1.2277081
1.2276233
1.2275378
1.2274519
1.2273653
1.2272782
1.2271905
1.2271023
1.2270135
1.2269242
1.2268343
1.2267439
1.2266529
1.2265614
1.2264694
1.2263769
1.2262838
1.2261902
1.2260961
1.2260014
1.2259063
1.2258106
1.2257145
1.2256178
1.2255207
1.225423
1.2253249
1.2252263
1.2251272
1.2250277
1.2249276
1.2248271
1.2247262
1.2246248
1.2245229
1.2244206
1.2243179
1.2242147
1.2241111
1.224007
1.2239026
1.2237977
1.2236924
1.2235867
1.2234806
1.2233742
1.2232673
1.22316
1.2230524
1.2229444
1.222836
1.2227273
1.2226182
1.2225088
1.222399
1.2222889
1.2221784
1.2220676
1.2219565
1.2218451
1.2217334
1.2216213
1.221509
1.2213964
1.2212835
1.2211703
1.2210568
1.2209431
1.2208291
1.2207149
1.2206004
1.2204857
1.2203707
1.2202555
1.2201401
1.2200245
1.2199086
1.2197926
1.2196764
1.2195599
1.2194433
1.2193265
1.2192096
1.2190924
1.2189751
1.2188577
1.2187401
1.2186224
1.2185045
1.2183865
1.2182684
1.2181502
1.2180319
1.2179135
1.2177949
1.2176763
1.2175576
1.2174389
1.21732
1.2172012
1.2170822
1.2169632
1.2168442
1.2167251
1.216606
1.2164869
1.2163677
1.2162486
1.2161294
1.2160103
1.2158911
1.215772
1.2156529
1.2155338
1.2154148
1.2152958
1.2151768
1.2150579
1.214939
1.2148203
1.2147015
1.2145829
1.2144643
1.2143459
1.2142275
1.2141092
1.2139911
1.213873
1.2137551
1.2136372
1.2135196
1.213402
1.2132846
1.2131673
1.2130502
1.2129333
1.2128165
1.2126998
1.2125834
1.2124671
1.212351
1.2122351
1.2121194
1.2120039
1.2118886
1.2117735
1.2116586
1.211544
1.2114295
1.2113153
1.2112014
1.2110876
1.2109741
1.2108609
1.2107479
1.2106352
1.2105227
1.2104105
1.2102985
1.2101869
1.2100755
1.2099644
1.2098536
1.209743
1.2096328
1.2095229
1.2094133
1.2093039
1.2091949
1.2090862
1.2089779
1.2088698
1.2087621
1.2086547
1.2085476
1.2084409
1.2083345
1.2082284
1.2081227
1.2080173
1.2079123
1.2078076
1.2077033
1.2075994
1.2074958
1.2073926
1.2072897
1.2071872
1.2070851
1.2069834
1.206882
1.206781
1.2066804
1.2065802
1.2064804
1.206381
1.2062819
1.2061833
1.206085
1.2059871
1.2058897
1.2057926
1.2056959
1.2055996
1.2055038
1.2054083
1.2053133
1.2052186
1.2051244
1.2050306
1.2049372
1.2048442
1.2047516
1.2046594
1.2045677
1.2044764
1.2043854
1.204295
1.2042049
1.2041152
1.204026
1.2039372
1.2038488
1.2037608
1.2036733
1.2035862
1.2034995
1.2034132
1.2033274
1.203242
1.203157
1.2030724
1.2029883
1.2029046
1.2028213
1.2027384
1.202656
1.202574
1.2024924
1.2024112
1.2023305
1.2022502
1.2021703
1.2020908
1.2020118
1.2019332
1.201855
1.2017772
1.2016999
1.201623
1.2015464
1.2014704
1.2013947
1.2013195
1.2012446
1.2011702
1.2010962
1.2010227
1.2009495
1.2008768
1.2008045
1.2007325
1.200661
1.20059
1.2005193
1.200449
1.2003792
1.2003097
1.2002407
1.200172
1.2001038
1.200036
1.1999685
1.1999015
1.1998349
1.1997687
1.1997029
1.1996374
1.1995724
1.1995078
1.1994435
1.1993797
1.1993162
1.1992532
1.1991905
1.1991282
1.1990663
1.1990048
1.1989437
1.198883
1.1988226
1.1987627
1.1987031
1.1986438
1.198585
1.1985266
1.1984685
1.1984108
1.1983534
1.1982965
1.1982399
1.1981837
1.1981278
1.1980724
1.1980172
1.1979625
1.1979081
1.1978541
1.1978004
1.1977471
1.1976942
1.1976416
1.1975894
1.1975375
1.197486
1.1974348
1.197384
1.1973335
1.1972834
1.1972337
1.1971843
1.1971352
1.1970865
1.1970381
1.19699
1.1969423
1.196895
1.196848
1.1968013
1.196755
1.196709
1.1966633
1.196618
1.196573
1.1965283
1.196484
1.1964399
1.1963963
1.1963529
1.1963099
1.1962672
1.1962248
1.1961827
1.196141
1.1960996
1.1960585
1.1960177
1.1959772
1.1959371
1.1958973
1.1958578
1.1958185
1.1957797
1.1957411
1.1957028
1.1956648
1.1956272
1.1955898
1.1955528
1.1955161
1.1954796
1.1954435
1.1954077
1.1953722
1.1953369
1.195302
1.1952674
1.195233
1.195199
1.1951652
1.1951318
1.1950986
1.1950657
1.1950331
1.1950009
1.1949688
1.1949371
1.1949057
1.1948745
1.1948437
1.1948131
1.1947828
1.1947527
1.194723
1.1946935
1.1946643
1.1946354
1.1946067
1.1945783
1.1945502
1.1945224
1.1944948
1.1944675
1.1944405
1.1944137
1.1943872
1.194361
1.194335
1.1943093
1.1942839
1.1942587
1.1942337
1.194209
1.1941846
1.1941604
1.1941365
1.1941129
1.1940894
1.1940663
1.1940433
1.1940207
1.1939982
1.193976
1.1939541
1.1939324
1.1939109
1.1938896
1.1938687
1.1938479
1.1938274
1.1938071
1.193787
1.1937672
1.1937476
1.1937282
1.193709
1.1936901
1.1936714
1.1936529
1.1936346
1.1936166
1.1935987
1.1935811
1.1935637
1.1935465
1.1935296
1.1935128
1.1934962
1.1934799
1.1934637
1.1934478
1.193432
1.1934165
1.1934011
1.193386
1.193371
1.1933563
1.1933417
1.1933274
1.1933132
1.1932992
1.1932854
1.1932718
1.1932583
1.1932451
1.193232
1.1932191
1.1932064
1.1931939
1.1931815
1.1931693
1.1931573
1.1931454
1.1931338
1.1931222
1.1931109
1.1930997
1.1930887
1.1930778
1.1930671
1.1930566
1.1930462
1.193036
1.1930259
1.193016
1.1930062
1.1929966
1.1929871
1.1929778
1.1929686
1.1929595
1.1929506
1.1929418
1.1929332
1.1929247
1.1929163
1.1929081
1.1929
1.1928921
1.1928842
1.1928765
1.1928689
1.1928615
1.1928541
1.1928469
1.1928398
1.1928329
1.192826
1.1928193
1.1928126
1.1928061
1.1927997
1.1927934
1.1927872
1.1927812
1.1927752
1.1927693
1.1927636
1.1927579
1.1927523
1.1927469
1.1927415
1.1927363
1.1927311
1.192726
1.192721
1.1927161
1.1927113
1.1927066
1.192702
1.1926975
1.192693
1.1926886
1.1926843
1.1926801
1.192676
1.192672
1.192668
1.1926641
1.1926603
1.1926565
1.1926529
1.1926493
1.1926458
1.1926423
1.1926389
1.1926356
1.1926323
1.1926292
1.192626
1.192623
1.19262
1.192617
1.1926142
1.1926113
1.1926086
1.1926059
1.1926032
1.1926007
1.1925981
1.1925957
1.1925932
1.1925909
1.1925885
1.1925863
1.192584
1.1925819
1.1925797
1.1925777
1.1925756
1.1925736
1.1925717
1.1925698
1.1925679
1.1925661
1.1925643
1.1925626
1.1925609
1.1925592
1.1925576
1.192556
1.1925545
1.192553
1.1925515
1.1925501
1.1925487
1.1925473
1.192546
1.1925446
1.1925434
1.1925421
1.1925409
1.1925397
1.1925386
1.1925374
1.1925363
1.1925352
1.1925342
1.1925332
1.1925322
1.1925312
1.1925302
1.1925293
1.1925284
1.1925275
1.1925267
1.1925258
1.192525
1.1925242
1.1925234
1.1925227
1.192522
1.1925212
1.1925205
1.1925199
1.1925192
1.1925186
1.1925179
1.1925173
1.1925167
1.1925161
1.1925156
1.192515
1.1925145
1.192514
1.1925135
1.192513
1.1925125
1.192512
1.1925116
1.1925111
1.1925107
1.1925103
1.1925099
1.1925095
1.1925091
1.1925087
1.1925084
1.192508
1.1925077
1.1925073
1.192507
1.1925067
1.1925064
1.1925061
1.1925058
1.1925055
1.1925052
1.192505
1.1925047
1.1925045
1.1925042
1.192504
1.1925037
1.1925035
1.1925033
1.1925031
1.1925029
1.1925027
1.1925025
1.1925023
1.1925021
1.1925019
1.1925017
1.1925016
1.1925014
1.1925012
1.1925011
1.1925009
1.1925008
1.1925006
1.1925005
1.1925003
1.1925002
1.1925001
1.1924999
1.1924998
1.1924997
1.1924996
1.1924995
1.1924993
1.1924992
1.1924991
1.192499
1.1924989
1.1924988
1.1924987
1.1924986
1.1924985
1.1924984
1.1924983
1.1924982
1.1924982
1.1924981
1.192498
1.1924979
1.1924978
1.1924978
1.1924977
1.1924976
1.1924975
1.1924975
1.1924974
1.1924973
1.1924972
1.1924972
1.1924971
1.192497
1.192497
1.1924969
1.1924968
1.1924968
1.1924967
1.1924966
1.1924966
1.1924965
1.1924965
1.1924964
1.1924963
1.1924963
1.1924962
1.1924962
1.1924961
1.192496
1.192496
1.1924959
1.1924959
1.1924958
1.1924957
1.1924957
1.1924956
1.1924956
1.1924955
1.1924955
1.1924954
1.1924954
1.1924953
1.1924952
1.1924952
1.1924951
1.1924951
1.192495
1.192495
1.1924949
1.1924949
1.1924948
1.1924948
1.1924947
1.1924946
1.1924946
1.1924945
1.1924945
1.1924944
1.1924944
1.1924943
1.1924943
1.1924942
1.1924941
1.1924941
1.192494
1.192494
1.1924939
1.1924939
1.1924938
1.1924938
1.1924937
1.1924936
1.1924936
1.1924935
1.1924935
1.1924934
1.1924934
1.1924933
1.1924933
1.1924932
1.1924932
1.1924931
1.192493
1.192493
1.1924929
1.1924929
1.1924928
1.1924928
1.1924927
1.1924927
1.1924926
1.1924925
1.1924925
1.1924924
1.1924924
1.1924923
1.1924923
1.1924922
1.1924922
1.1924921
1.192492
1.192492
1.1924919
1.1924919
1.1924918
1.1924918
1.1924917
1.1924916
1.1924916
1.1924915
1.1924915
1.1924914
1.1924914
1.1924913
1.1924913
1.1924912
1.1924912
1.1924911
1.192491
1.192491
1.1924909
1.1924909
1.1924908
1.1924908
1.1924907
1.1924907
1.1924906
1.1924906
1.1924905
1.1924904
1.1924904
1.1924903
1.1924903
1.1924902
1.1924902
1.1924901
1.1924901
1.19249
1.1924899
1.1924899
1.1924898
1.1924898
1.1924897
1.1924897
1.1924896
1.1924896
1.1924895
1.1924895
1.1924894
1.1924893
1.1924893
1.1924892
1.1924892
1.1924891
1.1924891
1.192489
1.192489
1.1924889
1.1924889
1.1924888
1.1924888
1.1924887
1.1924887
1.1924886
1.1924885
1.1924885
1.1924884
1.1924884
1.1924883
1.1924883
1.1924882
1.1924881
1.1924881
1.192488
1.192488
1.1924879
1.1924879
1.1924878
1.1924878
1.1924877
1.1924877
1.1924876
1.1924875
1.1924875
1.1924874
1.1924874
1.1924873
1.1924873
1.1924872
1.1924871
1.1924871
1.192487
1.192487
1.1924869
1.1924868
1.1924868
1.1924867
1.1924867
1.1924866
1.1924866
1.1924865
1.1924864
1.1924864
1.1924863
1.1924862
1.1924862
1.1924861
1.1924861
1.192486
1.1924859
1.1924859
1.1924858
1.1924858
1.1924857
1.1924856
1.1924856
1.1924855
1.1924854
1.1924854
1.1924853
1.1924852
1.1924852
1.1924851
1.192485
1.192485
1.1924849
1.1924848
1.1924848
1.1924847
1.1924846
1.1924846
1.1924845
1.1924844
1.1924844
1.1924843
1.1924842
1.1924841
1.1924841
1.192484
1.1924839
1.1924839
1.1924838
1.1924837
1.1924836
1.1924836
1.1924835
1.1924834
1.1924833
1.1924833
1.1924832
1.1924831
1.192483
1.192483
1.1924829
1.1924828
1.1924827
1.1924826
1.1924826
1.1924825
1.1924824
1.1924823
1.1924822
1.1924821
1.1924821
1.192482
1.1924819
1.1924818
1.1924817
1.1924817
1.1924816
1.1924815
1.1924814
1.1924813
1.1924812
1.1924811
1.1924811
1.192481
1.1924809
1.1924808
1.1924807
1.1924806
1.1924805
1.1924804
1.1924804
1.1924803
1.1924802
1.1924801
1.19248
1.1924799
1.1924798
1.1924797
1.1924796
1.1924795
1.1924794
1.1924793
1.1924792
1.1924791
1.192479
1.1924789
1.1924788
1.1924787
1.1924786
1.1924785
1.1924784
1.1924783
1.1924782
1.1924781
1.192478
1.1924779
1.1924778
1.1924777
1.1924776
1.1924775
1.1924774
1.1924773
1.1924772
1.1924771
1.192477
1.1924769
1.1924767
1.1924766
1.1924765
1.1924764
1.1924763
1.1924762
1.1924761
1.1924759
1.1924758
1.1924757
1.1924756
1.1924755
1.1924754
1.1924753
1.1924751
1.192475
1.1924749
1.1924748
1.1924747
1.1924745
1.1924744
1.1924743
1.1924742
1.192474
1.1924739
1.1924738
1.1924736
1.1924735
1.1924734
1.1924732
1.1924731
1.192473
1.1924728
1.1924727
1.1924725
1.1924724
1.1924723
1.1924721
1.192472
1.1924719
1.1924717
1.1924716
1.1924715
1.1924713
1.1924712
1.192471
1.1924709
1.1924707
1.1924706
1.1924704
1.1924703
1.1924701
1.19247
1.1924698
1.1924697
1.1924695
1.1924693
1.1924692
1.192469
1.1924688
1.1924687
1.1924685
1.1924683
1.1924682
1.192468
1.1924678
1.1924677
1.1924675
1.1924673
1.1924671
1.1924669
1.1924668
1.1924666
1.1924664
1.1924662
1.192466
1.1924658
1.1924656
1.1924654
1.1924653
1.1924651
1.1924649
1.1924647
1.1924645
1.1924643
1.1924641
1.1924639
1.1924636
1.1924634
1.1924632
1.192463
1.1924628
1.1924626
1.1924623
1.1924621
1.1924619
1.1924617
1.1924614
1.1924612
1.1924609
1.1924607
1.1924605
1.1924602
1.19246
1.1924597
1.1924595
1.1924592
1.192459
1.1924587
1.1924584
1.1924582
1.1924579
1.1924576
1.1924574
1.1924571
1.1924568
1.1924566
1.1924563
1.192456
1.1924557
1.1924554
1.1924551
1.1924548
1.1924545
1.1924542
1.1924538
1.1924535
1.1924532
1.1924528
1.1924525
1.1924522
1.1924518
1.1924515
1.1924511
1.1924508
1.1924504
1.19245
1.1924497
1.1924493
1.1924489
1.1924485
1.1924481
1.1924477
1.1924473
1.1924469
1.1924465
1.1924461
1.1924456
1.1924452
1.1924448
1.1924443
1.1924439
1.1924434
1.192443
1.1924425
1.192442
1.1924416
1.1924411
1.1924406
1.1924401
1.1924396
1.1924391
1.1924387
1.1924382
1.1924377
1.1924372
1.1924367
1.1924362
1.1924357
1.1924353
1.1924348
1.1924344
1.1924339
1.1924335
1.1924331
1.1924327
1.1924324
1.192432
1.1924317
1.1924315
1.1924312
1.192431
1.1924308
1.1924307
1.1924306
1.1924305
1.1924304
1.1924304
1.1924304
1.1924303
1.1924303
1.1924304
1.1924304
1.1924305
1.1924305
1.1924306
1.1924306
1.1924306
1.1924306
1.1924306
1.1924306
1.1924306
1.1924305
1.1924303
1.19243
1.1924295
1.192429
1.1924284
1.1924277
1.192427
1.1924262
1.1924253
1.1924243
1.1924234
1.1924223
1.1924213
1.1924202
1.1924191
1.192418
1.192417
1.1924159
1.1924149
1.192414
1.1924131
1.1924123
1.1924116
1.1924109
1.1924103
1.1924098
1.1924094
1.192409
1.1924086
1.1924083
1.1924078
1.1924072
1.192406
1.1924037
1.1923983
1.1923851
1.1923523
1.1922708
1.1920686
1.1915731
1.190427
1.1888502
1.1868809
1.1845392
1.181859
1.178889
1.1756886
1.1723245
1.1688665
1.1653835
1.1619405
1.1585958
1.1553989
1.1523896
1.1495974
1.147042
1.1447335
1.1426739
1.1408583
1.1392762
1.1379127
1.1367503
1.1357697
1.1349509
1.1342741
1.13372
1.1332708
1.1329101
1.1326233
1.1323974
1.1322213
1.1320852
1.1319812
1.1319026
1.1318438
1.1318005
1.131769
1.1317464
1.1317307
1.1317199
1.1317129
1.1317085
1.1317061
1.1317049
1.1317045
1.1317045
1.1317049
1.1317064
1.1317081
1.1317098
1.1317115
1.131713
1.1317146
1.131716
1.1317175
1.1317189
1.1317203
1.1317217
1.1317231
1.1317245
1.131726
1.1317275
1.131729
1.1317306
1.1317322
1.1317339
1.1317356
1.1317374
1.1317391
1.131741
1.1317428
1.1317446
1.1317464
1.1317482
1.13175
1.1317517
1.1317535
1.1317551
1.1317567
1.1317583
1.1317598
1.1317612
1.1317626
1.1317639
1.1317652
1.1317664
1.1317676
1.1317686
1.1317697
1.1317707
1.1317716
1.1317725
1.1317734
1.1317742
1.131775
1.1317757
1.1317765
1.1317771
1.1317778
1.1317785
1.1317791
1.1317797
1.1317803
1.1317809
1.1317814
1.131782
1.1317825
1.131783
1.1317835
1.131784
1.1317845
1.131785
1.1317854
1.1317859
1.1317863
1.1317868
1.1317872
1.1317876
1.131788
1.1317884
1.1317888
1.1317892
1.1317896
1.13179
1.1317904
1.1317908
1.1317911
1.1317915
1.1317918
1.1317922
1.1317925
1.1317929
1.1317932
1.1317936
1.1317939
1.1317942
1.1317945
1.1317949
1.1317952
1.1317955
1.1317958
1.1317961
1.1317964
1.1317967
1.131797
1.1317972
1.1317975
1.1317978
1.1317981
1.1317983
1.1317986
1.1317989
1.1317991
1.1317994
1.1317996
1.1317999
1.1318001
1.1318004
1.1318006
1.1318009
1.1318011
1.1318014
1.1318016
1.1318018
1.1318021
1.1318023
1.1318025
1.1318028
1.131803
1.1318032
1.1318034
1.1318037
1.1318039
1.1318041
1.1318043
1.1318045
1.1318047
1.131805
1.1318052
1.1318054
1.1318056
1.1318058
1.131806
1.1318062
1.1318064
1.1318067
1.1318069
1.1318071
1.1318073
1.1318075
1.1318077
1.1318079
1.1318081
1.1318084
1.1318086
1.1318088
1.131809
1.1318092
1.1318094
1.1318097
1.1318099
1.1318101
1.1318103
1.1318105