/*--------------------------------*- C++ -*----------------------------------*\
  =========                 |
  \\      /  F ield         | OpenFOAM: The Open Source CFD Toolbox
   \\    /   O peration     | Website:  https://openfoam.org
    \\  /    A nd           | Version:  7
     \\/     M anipulation  |
\*---------------------------------------------------------------------------*/
FoamFile
{
    version     2.0;
    format      ascii;
    class       volVectorField;
    location    "0.00109";
    object      U;
}
// * * * * * * * * * * * * * * * * * * * * * * * * * * * * * * * * * * * * * //

dimensions      [0 1 -1 0 0 0 0];

internalField   nonuniform List<vector> 
5000
(
(-46.435053 8.7530086e-17 0)
(-46.395103 9.61012e-17 0)
(-46.371983 0 0)
(-46.343521 0 0)
(-46.316347 -5.0902487e-17 0)
(-46.288602 5.791089e-32 -5.0938958e-17)
(-46.260923 5.0981194e-17 -1.0867295e-31)
(-46.232906 0 1.5303405e-16)
(-46.204896 0 5.1035442e-17)
(-46.176623 -5.1055618e-17 -1.0211124e-16)
(-46.148361 -1.021392e-16 -1.021392e-16)
(-46.119925 5.1079329e-17 5.1079329e-17)
(-46.091498 5.1084007e-17 -4.3556844e-31)
(-46.062973 -5.108563e-17 -4.5010169e-31)
(-46.034454 0 1.0216727e-16)
(-46.005886 -5.1079947e-17 -1.0215989e-16)
(-45.977321 -1.5071049e-48 -7.5355245e-49)
(-45.94874 5.1067564e-17 -4.4994252e-31)
(-45.920157 0 -5.1059146e-17)
(-45.891573 5.1050533e-17 1.0210107e-16)
(-45.86299 -5.1040461e-17 5.1040461e-17)
(-45.83441 -5.1031297e-17 0)
(-45.805833 1.0204187e-16 0)
(-45.777261 -5.1011607e-17 -5.1011607e-17)
(-45.748693 -5.100124e-17 4.3486273e-31)
(-45.720131 -4.2029154e-31 -4.2029154e-31)
(-45.691574 5.098195e-17 -5.098195e-17)
(-45.663023 5.097315e-17 5.097315e-17)
(-45.634477 -1.0192707e-16 5.0963536e-17)
(-45.605936 8.8342346e-31 -5.0955246e-17)
(-45.5774 -8.9050427e-31 8.9050427e-31)
(-45.548871 5.0938011e-17 -4.343236e-31)
(-45.520345 1.0185737e-16 -5.0928683e-17)
(-45.491826 -1.0183982e-16 5.0919912e-17)
(-45.463312 8.826244e-31 5.0909156e-17)
(-45.434805 -4.4266321e-30 0)
(-45.406304 -1.7643846e-30 0)
(-45.377812 1.0173849e-16 -5.0869246e-17)
(-45.349329 -1.0170146e-16 -5.0850732e-17)
(-45.320858 -1.0166153e-16 5.0830766e-17)
(-45.292399 1.0161448e-16 -8.519769e-31)
(-45.263954 -3.4928622e-30 -5.0782712e-17)
(-45.235523 -1.01511e-16 5.0755502e-17)
(-45.207108 5.0728576e-17 -8.5786674e-31)
(-45.178709 1.5210209e-16 -5.0700697e-17)
(-45.150326 -5.0674913e-17 5.0674913e-17)
(-45.121957 -5.065035e-17 -1.7418791e-30)
(-45.093602 -3.467943e-30 1.7339715e-30)
(-45.065258 -1.0122427e-16 -1.7405649e-30)
(-45.036925 0 8.6287754e-31)
(-45.008596 5.0590863e-17 5.0590863e-17)
(-44.980276 7.1889848e-33 0)
(-44.95195 -5.0588385e-17 0)
(-44.923631 1.0118989e-16 0)
(-44.8953 -1.7690524e-30 0)
(-44.866971 -1.0123614e-16 0)
(-44.838626 5.0633209e-17 0)
(-44.810281 -1.7491041e-30 0)
(-44.781919 -5.066889e-17 0)
(-44.753554 0 0)
(-44.725172 5.0705223e-17 0)
(-44.696787 1.7299446e-30 0)
(-44.668388 1.4420345e-32 0)
(-44.639987 5.0750794e-17 -5.0750794e-17)
(-44.611575 -5.0761229e-17 -5.0761229e-17)
(-44.583162 1.77487e-30 5.0770476e-17)
(-44.554741 5.0776354e-17 -8.7310623e-31)
(-44.526321 -5.0780883e-17 3.4300625e-49)
(-44.497898 -5.0782383e-17 5.0782383e-17)
(-44.469476 5.0782836e-17 0)
(-44.441054 5.0780391e-17 0)
(-44.412634 -5.0777559e-17 -5.0777559e-17)
(-44.384216 -5.0772322e-17 -5.0772322e-17)
(-44.355803 1.0153421e-16 0)
(-44.327392 5.0759851e-17 5.0759851e-17)
(-44.298987 -5.0752938e-17 1.7526196e-30)
(-44.270585 0 -5.0744275e-17)
(-44.24219 5.0736193e-17 -5.0736193e-17)
(-44.213799 -7.2086786e-33 5.0726566e-17)
(-44.185415 -5.0717685e-17 1.0143537e-16)
(-44.157035 5.070739e-17 -1.0141478e-16)
(-44.128663 -1.4409222e-32 2.8818444e-32)
(-44.100295 1.4406155e-32 1.5206146e-16)
(-44.071935 5.067726e-17 -1.0135452e-16)
(-44.04358 5.0666044e-17 -5.270457e-30)
(-44.015233 1.7636602e-30 1.0131147e-16)
(-43.986891 -5.0644094e-17 -1.5193228e-16)
(-43.958557 0 5.063335e-17)
(-43.930229 -5.0621254e-17 5.0621254e-17)
(-43.901909 -5.2502466e-30 -5.0610036e-17)
(-43.873595 -1.7688211e-30 5.0597446e-17)
(-43.845289 5.0585725e-17 5.0585725e-17)
(-43.816989 5.0572632e-17 1.7607668e-30)
(-43.788698 -1.0112085e-16 -1.0112085e-16)
(-43.760414 -3.4981912e-30 -3.4981912e-30)
(-43.732139 5.0534289e-17 -5.0534289e-17)
(-43.70387 0 -5.0520454e-17)
(-43.67561 0 -1.7728605e-30)
(-43.647358 -5.0493805e-17 3.5160446e-30)
(-43.619114 -3.500817e-30 1.0096234e-16)
(-43.590877 1.0093527e-16 5.0467637e-17)
(-43.562648 -5.0455559e-17 -5.0455559e-17)
(-43.534427 -1.0088559e-16 7.1683526e-33)
(-43.506213 0 5.0431764e-17)
(-43.478005 5.0420345e-17 0)
(-43.449805 5.0410816e-17 -5.0410816e-17)
(-43.421609 -5.0401072e-17 -1.7547936e-30)
(-43.393421 -5.0393538e-17 5.0393538e-17)
(-43.365236 0 -5.0386179e-17)
(-43.337056 0 -5.038081e-17)
(-43.308877 5.0375174e-17 1.0075035e-16)
(-43.280704 5.0372364e-17 5.0372364e-17)
(-43.252532 0 -1.5110973e-16)
(-43.224362 -5.0369249e-17 -5.0369249e-17)
(-43.196191 1.7608186e-30 1.511056e-16)
(-43.168023 5.0370051e-17 -5.0370051e-17)
(-43.139852 -5.0371424e-17 -5.0371424e-17)
(-43.111683 1.4317353e-32 -2.8634705e-32)
(-43.08351 -1.7611398e-30 -5.0377721e-17)
(-43.055338 4.0393177e-49 1.5114657e-16)
(-43.027161 1.0077252e-16 -3.5228766e-30)
(-42.998986 -2.1483102e-32 -1.007826e-16)
(-42.970805 -5.0395823e-17 1.0079165e-16)
(-42.942624 0 5.0400722e-17)
(-42.91444 -5.0405061e-17 -5.0405061e-17)
(-42.886255 5.0409347e-17 5.0409347e-17)
(-42.858067 5.0412987e-17 -5.0412987e-17)
(-42.829878 -1.0083254e-16 -1.0083254e-16)
(-42.801688 -5.0418825e-17 5.0418825e-17)
(-42.773497 1.0084158e-16 1.7411497e-30)
(-42.745306 5.042191e-17 5.042191e-17)
(-42.717115 -5.0422249e-17 1.008445e-16)
(-42.688924 -5.0421753e-17 -5.0421753e-17)
(-42.660734 -5.0420515e-17 -5.0420515e-17)
(-42.632546 0 -5.0418495e-17)
(-42.604359 5.0415748e-17 -1.7553046e-30)
(-42.576174 5.0412279e-17 -1.7480198e-30)
(-42.547992 -5.0408139e-17 1.7550397e-30)
(-42.519813 -1.7477105e-30 1.0080672e-16)
(-42.491637 5.0397987e-17 5.0397987e-17)
(-42.463464 -5.0392067e-17 -5.0392067e-17)
(-42.435296 -5.0385647e-17 -1.0077129e-16)
(-42.407131 0 -5.0378772e-17)
(-42.378971 5.0371489e-17 -5.0371489e-17)
(-42.350816 5.0363839e-17 3.4926804e-30)
(-42.322665 -5.0355865e-17 1.0071173e-16)
(-42.294519 5.0347605e-17 -1.430965e-32)
(-42.266379 -2.8614462e-32 1.4307231e-32)
(-42.238244 -5.0330365e-17 1.983643e-48)
(-42.210114 5.0321447e-17 5.0321447e-17)
(-42.18199 -5.0312367e-17 -3.4891109e-30)
(-42.153871 3.5027686e-30 7.0055372e-30)
(-42.125758 5.0293811e-17 5.0293811e-17)
(-42.09765 -5.0284374e-17 -5.0284374e-17)
(-42.069549 5.0274852e-17 5.0274852e-17)
(-42.041453 5.0265259e-17 1.742922e-30)
(-42.013363 -5.0255606e-17 -5.0255606e-17)
(-41.985279 0 5.0245903e-17)
(-41.957201 0 -7.1389873e-33)
(-41.929129 -5.0226375e-17 -5.0226375e-17)
(-41.901062 -5.0216562e-17 0)
(-41.873002 5.0206722e-17 5.0206722e-17)
(-41.844947 5.0196857e-17 3.473967e-30)
(-41.816899 -5.018697e-17 -1.0037394e-16)
(-41.788857 -3.4797276e-30 5.0177062e-17)
(-41.76082 5.0167133e-17 -1.4258357e-32)
(-41.73279 -5.0157183e-17 -5.0157183e-17)
(-41.704766 -5.014721e-17 5.014721e-17)
(-41.676747 0 -5.0137214e-17)
(-41.648735 5.0127192e-17 5.0127192e-17)
(-41.620729 5.0117141e-17 -2.0881921e-29)
(-41.592729 0 -1.3899492e-29)
(-41.564735 -5.0096941e-17 5.0096941e-17)
(-41.536747 -5.0086784e-17 -1.0017357e-16)
(-41.508765 0 0)
(-41.48079 5.0066337e-17 -3.4720489e-30)
(-41.45282 1.0414004e-29 -1.0414004e-29)
(-41.424857 -5.0045681e-17 5.0045681e-17)
(-41.396901 5.0035264e-17 5.0035264e-17)
(-41.36895 5.0024782e-17 3.4478403e-30)
(-41.341006 -5.001423e-17 -5.001423e-17)
(-41.313068 -3.4534868e-30 5.0003606e-17)
(-41.285137 3.4385391e-30 3.4385391e-30)
(-41.257212 2.1308665e-32 2.1308665e-32)
(-41.229293 4.9971284e-17 6.9238129e-30)
(-41.201381 -4.9960359e-17 -9.9920718e-17)
(-41.173476 -6.9278737e-30 4.9949362e-17)
(-41.145577 3.434783e-30 4.9938298e-17)
(-41.117685 -3.4340179e-30 -3.4340179e-30)
(-41.0898 4.9916e-17 3.4403428e-30)
(-41.061921 0 -1.0375445e-29)
(-41.034049 0 3.4458857e-30)
(-41.006184 -4.9882303e-17 -4.9882303e-17)
(-40.978326 -4.987107e-17 0)
(-40.950474 0 0)
(-40.922629 0 0)
(-40.894791 4.9837678e-17 0)
(-40.866959 3.2566877e-49 -4.982674e-17)
(-40.839134 -4.9815951e-17 1.0385293e-29)
(-40.811315 0 4.9805342e-17)
(-40.783503 4.9794949e-17 4.9794949e-17)
(-40.755697 -4.9784805e-17 -4.9784805e-17)
(-40.727897 -1.3793219e-29 -4.9774947e-17)
(-40.700103 9.9530819e-17 9.9530819e-17)
(-40.672314 -4.9756226e-17 3.4434723e-30)
(-40.644531 -1.0328591e-29 -1.0328591e-29)
(-40.616754 -7.0683443e-33 -4.9739051e-17)
(-40.588981 -4.9731118e-17 -4.9731118e-17)
(-40.561213 4.9723655e-17 4.9723655e-17)
(-40.53345 -7.0651657e-33 0)
(-40.505691 -6.8805769e-30 4.9710221e-17)
(-40.477936 3.4398772e-30 3.4398772e-30)
(-40.450185 -4.9698867e-17 -4.9698867e-17)
(-40.422437 0 -4.9693985e-17)
(-40.394692 4.9689632e-17 6.920095e-30)
(-40.36695 3.4385983e-30 4.96858e-17)
(-40.33921 1.3788774e-29 -9.9364949e-17)
(-40.311473 4.9679639e-17 4.9679639e-17)
(-40.283737 0 4.9677269e-17)
(-40.256004 -4.9675337e-17 -4.9675337e-17)
(-40.228271 -4.9673811e-17 4.9673811e-17)
(-40.20054 0 0)
(-40.17281 0 0)
(-40.145081 0 0)
(-40.117353 4.9670996e-17 4.9670996e-17)
(-40.089625 3.4375671e-30 -4.96709e-17)
(-40.061898 -4.9670954e-17 -9.9341908e-17)
(-40.034171 0 4.9671111e-17)
(-40.006444 0 -3.4517139e-30)
(-39.978718 4.9671545e-17 4.9671545e-17)
(-39.950992 4.967173e-17 4.967173e-17)
(-39.923266 -4.9671833e-17 -9.9343666e-17)
(-39.895541 -4.9671815e-17 1.4117579e-32)
(-39.867816 0 -1.4117528e-32)
(-39.840092 4.9671258e-17 4.9671258e-17)
(-39.812369 4.9670652e-17 4.9670652e-17)
(-39.784646 -4.9669787e-17 -9.9339573e-17)
(-39.756924 -4.9668637e-17 7.0583378e-33)
(-39.729204 0 -1.034722e-29)
(-39.701485 4.96654e-17 4.96654e-17)
(-39.673767 -1.3790504e-29 -2.7581009e-29)
(-39.646051 -3.4439259e-30 -6.8878519e-30)
(-39.618337 4.9657979e-17 4.9657979e-17)
(-39.590625 -4.9654788e-17 -4.9654788e-17)
(-39.562915 -4.9651232e-17 0)
(-39.535208 0 -4.9647314e-17)
(-39.507503 4.9643038e-17 4.9643038e-17)
(-39.479802 -6.8988534e-30 4.963841e-17)
(-39.452103 4.9633438e-17 -4.9633438e-17)
(-39.424408 6.8833199e-30 0)
(-39.396716 -9.9245012e-17 -4.9622506e-17)
(-39.369028 4.961657e-17 4.961657e-17)
(-39.341343 -6.8808519e-30 4.9610339e-17)
(-39.313663 -1.7221019e-29 -1.7221019e-29)
(-39.285986 -3.4324562e-30 -9.9194099e-17)
(-39.258314 -4.9590022e-17 -9.9180044e-17)
(-39.230646 4.958276e-17 1.4874828e-16)
(-39.202983 4.9575278e-17 9.9150557e-17)
(-39.175325 0 0)
(-39.147671 -4.9559718e-17 -9.9119436e-17)
(-39.120022 -4.9551669e-17 -4.9551669e-17)
(-39.092378 0 4.9543458e-17)
(-39.064738 4.9535101e-17 4.9535101e-17)
(-39.037104 4.9526608e-17 4.9526608e-17)
(-39.009476 -9.9035986e-17 -9.9035986e-17)
(-38.981852 -4.9509266e-17 -9.9018532e-17)
(-38.954234 4.9500438e-17 4.9500438e-17)
(-38.926621 4.9491518e-17 9.8983036e-17)
(-38.899013 1.3726246e-29 1.3726246e-29)
(-38.871411 -4.947344e-17 -9.8946879e-17)
(-38.843814 4.9464297e-17 4.9464297e-17)
(-38.816223 -3.4296599e-30 -6.8593198e-30)
(-38.788637 -4.9445838e-17 -4.9445838e-17)
(-38.761057 4.9436534e-17 9.8873068e-17)
(-38.733482 -3.4347486e-30 -4.9427187e-17)
(-38.705913 3.4411191e-30 6.8822381e-30)
(-38.678349 -1.4042707e-32 4.9408381e-17)
(-38.650791 -3.411725e-30 -4.939893e-17)
(-38.623238 4.9389451e-17 4.9389451e-17)
(-38.595692 0 -9.8759892e-17)
(-38.56815 0 2.0598854e-29)
(-38.540615 -4.9360869e-17 9.8721737e-17)
(-38.513085 -4.9351299e-17 -9.8702598e-17)
(-38.48556 0 -3.414785e-30)
(-38.458042 0 4.9332105e-17)
(-38.430528 0 0)
(-38.403021 0 0)
(-38.375519 4.9303187e-17 4.9303187e-17)
(-38.348023 3.3974395e-30 -4.9293516e-17)
(-38.320532 -9.8567655e-17 -9.8567655e-17)
(-38.293047 2.1006822e-32 4.9274122e-17)
(-38.265567 4.92644e-17 -1.4001785e-32)
(-38.238093 4.925466e-17 4.925466e-17)
(-38.210624 -6.8371646e-30 4.9244901e-17)
(-38.183162 -6.8218135e-30 -4.9235123e-17)
(-38.155704 -6.9953392e-33 0)
(-38.128252 -4.9215502e-17 -4.9215502e-17)
(-38.100806 -4.9205656e-17 -4.9205656e-17)
(-38.073365 -4.9195786e-17 0)
(-38.04593 9.8371775e-17 9.8371775e-17)
(-38.0185 1.4752788e-16 4.917596e-17)
(-37.991076 -4.9166001e-17 -9.8332002e-17)
(-37.963657 -9.8312016e-17 3.4019331e-30)
(-37.936243 0 -1.3968127e-32)
(-37.908835 4.9135909e-17 4.9135909e-17)
(-37.881433 4.9125798e-17 4.9125798e-17)
(-37.854036 -4.9115641e-17 -4.9115641e-17)
(-37.826644 1.3956604e-32 4.9105434e-17)
(-37.799258 -2.0930532e-32 -4.9095175e-17)
(-37.771877 1.3950756e-32 2.7901512e-32)
(-37.744501 4.9074483e-17 9.8148966e-17)
(-37.717131 4.9064042e-17 -4.9064042e-17)
(-37.689766 -4.9053531e-17 -4.9053531e-17)
(-37.662407 -9.8085893e-17 -4.9042946e-17)
(-37.635053 4.9032283e-17 -6.8006767e-30)
(-37.607704 3.2784588e-49 4.9021536e-17)
(-37.58036 4.9010701e-17 0)
(-37.553022 1.3578408e-29 0)
(-37.525689 -9.7977489e-17 -4.8988744e-17)
(-37.498361 0 6.8000543e-30)
(-37.471038 0 -1.3590029e-29)
(-37.443721 9.7910041e-17 -6.8038744e-30)
(-37.416408 -2.7181299e-29 4.8943549e-17)
(-37.389101 -9.7863908e-17 -4.8931954e-17)
(-37.361799 0 6.951983e-33)
(-37.334502 4.8908377e-17 4.8908377e-17)
(-37.307211 4.8896388e-17 0)
(-37.279924 -4.8884259e-17 0)
(-37.252642 6.9451274e-33 0)
(-37.225366 -6.7836657e-30 0)
(-37.198094 6.9415779e-33 0)
(-37.170827 4.8834302e-17 0)
(-37.143565 -4.8821442e-17 0)
(-37.116308 -4.8808432e-17 -4.8808432e-17)
(-37.089055 0 0)
(-37.061808 4.8781964e-17 4.8781964e-17)
(-37.034564 -6.7710221e-30 0)
(-37.007325 -4.8754905e-17 -4.8754905e-17)
(-36.980091 9.7482319e-17 -1.3520597e-29)
(-36.952861 -1.3516745e-29 4.8727272e-17)
(-36.925635 -4.8713248e-17 0)
(-36.898413 -1.3522768e-29 0)
(-36.871194 -9.7369604e-17 -4.8684802e-17)
(-36.84398 9.7340777e-17 -6.7573992e-30)
(-36.816769 4.8655853e-17 4.8655853e-17)
(-36.789561 -4.8641201e-17 0)
(-36.762357 -6.9102323e-33 0)
(-36.735155 -4.8611563e-17 -4.8611563e-17)
(-36.707957 0 -4.8596584e-17)
(-36.68076 0 4.8581503e-17)
(-36.653566 4.8566323e-17 4.8566323e-17)
(-36.626374 -6.7339301e-30 0)
(-36.599184 -9.7071334e-17 -4.8535667e-17)
(-36.571995 6.8951333e-33 6.8951333e-33)
(-36.544807 1.4551385e-16 4.8504617e-17)
(-36.51762 -4.8488957e-17 -4.8488957e-17)
(-36.490433 -4.8473148e-17 -4.8473148e-17)
(-36.463246 9.6914334e-17 4.8457167e-17)
(-36.436059 -4.8441048e-17 4.8441048e-17)
(-36.408871 4.8424795e-17 0)
(-36.381682 9.6816793e-17 -4.8408396e-17)
(-36.354491 -4.8391835e-17 -4.8391835e-17)
(-36.327299 -4.8375093e-17 4.8375093e-17)
(-36.300104 -4.8358154e-17 4.8358154e-17)
(-36.272906 4.8340995e-17 0)
(-36.245705 1.3156691e-48 -4.8323593e-17)
(-36.2185 -4.8305922e-17 -4.8305922e-17)
(-36.191291 4.8287953e-17 4.8287953e-17)
(-36.164078 -4.8269654e-17 4.8269654e-17)
(-36.136859 4.8250994e-17 0)
(-36.109634 1.3365632e-29 0)
(-36.082403 1.37028e-32 0)
(-36.055165 4.8192468e-17 0)
(-36.02792 -9.6343957e-17 0)
(-36.000667 4.8150925e-17 0)
(-35.973406 1.3364538e-29 0)
(-35.946136 -1.3344668e-29 0)
(-35.918856 -4.8083914e-17 -4.8083914e-17)
(-35.891566 -9.6120254e-17 -1.5681184e-47)
(-35.864266 1.4410658e-16 4.8035528e-17)
(-35.836955 1.3317794e-29 0)
(-35.809631 -2.6620949e-29 0)
(-35.782296 1.3289253e-29 0)
(-35.754947 -9.5855821e-17 -4.792791e-17)
(-35.727585 9.579683e-17 -6.6434116e-30)
(-35.700209 -1.3278321e-29 4.7867766e-17)
(-35.672817 -9.5671807e-17 -4.7835904e-17)
(-35.645411 0 6.6369386e-30)
(-35.617988 0 -6.7882831e-33)
(-35.590548 4.7732428e-17 -6.6271728e-30)
(-35.563091 -6.6152127e-30 4.7695103e-17)
(-35.535615 -4.7656258e-17 -4.7656258e-17)
(-35.50812 -4.7615832e-17 4.7615832e-17)
(-35.480606 4.7573761e-17 -2.6434095e-29)
(-35.453071 1.4258995e-16 -4.7529984e-17)
(-35.425515 -4.7484438e-17 4.7484438e-17)
(-35.397937 -4.7437059e-17 0)
(-35.370335 -1.3468419e-32 0)
(-35.34271 -4.7336555e-17 -4.7336555e-17)
(-35.315061 0 -6.5648161e-30)
(-35.287385 9.445593e-17 4.7227965e-17)
(-35.259683 9.4340959e-17 -4.717048e-17)
(-35.231953 -4.7110781e-17 -4.7110781e-17)
(-35.204195 -9.4097613e-17 0)
(-35.176407 -4.698449e-17 4.698449e-17)
(-35.148588 9.3835533e-17 4.6917766e-17)
(-35.120737 9.369714e-17 -4.684857e-17)
(-35.092853 -9.3553669e-17 -1.2982349e-29)
(-35.064935 -9.3404987e-17 1.3876524e-47)
(-35.036982 0 -6.4734838e-30)
(-35.008991 9.3091442e-17 4.6545721e-17)
(-34.980962 -4.6463152e-17 -4.6463152e-17)
(-34.952894 -9.2755404e-17 -6.4209388e-47)
(-34.924785 4.6289299e-17 -6.4268086e-30)
(-34.896634 4.6197871e-17 -4.6197871e-17)
(-34.868438 -6.5516793e-33 0)
(-34.840197 6.3874262e-30 0)
(-34.811909 4.59047e-17 4.59047e-17)
(-34.783573 -4.580043e-17 6.5086326e-33)
(-34.755186 -4.5692759e-17 -1.9012475e-29)
(-34.726746 4.5581606e-17 4.5581606e-17)
(-34.698253 -6.3061645e-30 0)
(-34.669704 -6.4444149e-33 0)
(-34.641096 -6.2728167e-30 -4.5226458e-17)
(-34.61243 -4.510057e-17 1.2504303e-29)
(-34.583701 4.4970788e-17 4.4970788e-17)
(-34.554909 -1.8675525e-29 0)
(-34.52605 -6.2060389e-30 0)
(-34.497124 -1.2366319e-29 0)
(-34.468127 -4.4410982e-17 -4.4410982e-17)
(-34.439058 4.4260415e-17 6.2897833e-33)
(-34.409913 -6.1235986e-30 4.4105419e-17)
(-34.380691 -1.2184167e-29 -4.3945901e-17)
(-34.351389 -6.2217634e-33 4.3781768e-17)
(-34.322005 -8.7225847e-17 -1.2122837e-29)
(-34.292536 -4.3439273e-17 -8.6878545e-17)
(-34.262979 4.3260719e-17 4.3260719e-17)
(-34.233332 8.6154328e-17 1.7942507e-29)
(-34.203592 -5.9546429e-30 5.9546429e-30)
(-34.173756 -8.5389319e-17 -5.9277287e-30)
(-34.143822 -4.2495513e-17 -4.2495513e-17)
(-34.113785 8.458194e-17 0)
(-34.083645 4.2080931e-17 0)
(-34.053396 -4.1865297e-17 4.1865297e-17)
(-34.023037 -4.1643966e-17 5.7818504e-30)
(-33.992564 -1.1494746e-29 -1.1494746e-29)
(-33.961974 4.1183815e-17 1.122749e-47)
(-33.931264 0 -4.0944794e-17)
(-33.90043 0 4.0699676e-17)
(-33.86947 4.0448361e-17 4.0448361e-17)
(-33.838378 0 0)
(-33.807153 -3.9926748e-17 -3.9926748e-17)
(-33.775791 3.9656252e-17 -5.5058761e-30)
(-33.744287 5.5961164e-33 3.9379168e-17)
(-33.712639 -1.0850459e-29 0)
(-33.680842 0 0)
(-33.648894 -3.8507431e-17 -3.8507431e-17)
(-33.616789 3.8203044e-17 1.0857958e-32)
(-33.584525 3.78916e-17 1.5051672e-47)
(-33.552096 -7.514602e-17 -3.757301e-17)
(-33.519501 -3.7247186e-17 3.7247186e-17)
(-33.486733 3.6914042e-17 -5.1146559e-30)
(-33.45379 0 5.0778657e-30)
(-33.420667 0 -1.0053941e-29)
(-33.38736 -3.5869858e-17 -3.5869858e-17)
(-33.353865 9.8645257e-30 3.5506613e-17)
(-33.320177 3.5135648e-17 -9.7564704e-30)
(-33.286293 0 9.6562365e-30)
(-33.252208 0 -9.5488251e-30)
(-33.217917 -3.3975723e-17 -3.3975723e-17)
(-33.183416 1.3988677e-29 3.357318e-17)
(-33.148701 3.3162579e-17 -9.2085884e-30)
(-33.113768 0 4.5554661e-30)
(-33.078611 0 0)
(-33.043226 0 -3.1881867e-17)
(-33.007608 0 3.1438485e-17)
(-32.971754 0 -4.3022067e-30)
(-32.935658 0 4.3381082e-33)
(-32.899315 0 -4.1732905e-30)
(-32.862722 0 4.111282e-30)
(-32.825872 5.8192006e-17 2.9096003e-17)
(-32.788762 1.5876365e-29 -2.8602147e-17)
(-32.751386 -2.8099772e-17 -2.8099772e-17)
(-32.71374 2.7588858e-17 2.7588858e-17)
(-32.675819 -2.7069389e-17 2.7069389e-17)
(-32.637618 2.6541353e-17 0)
(-32.599133 -7.2283898e-30 -2.600474e-17)
(-32.560357 -2.5459546e-17 -2.5459546e-17)
(-32.521288 -6.9158369e-30 0)
(-32.481919 -2.4343416e-17 2.4343416e-17)
(-32.442245 0 -3.3005738e-30)
(-32.402263 0 3.2959243e-33)
(-32.361967 2.2604975e-17 3.1352635e-30)
(-32.321352 6.1113e-30 -2.2008419e-17)
(-32.280413 -2.1403361e-17 2.1403361e-17)
(-32.239146 0 2.8835063e-30)
(-32.197545 0 -5.6002108e-30)
(-32.155606 0 -1.9537465e-17)
(-32.113324 0 -1.889871e-17)
(-32.070694 0 3.6503258e-17)
(-32.027711 0 -2.5005801e-33)
(-31.984371 0 2.3485277e-30)
(-31.940669 3.2521832e-17 1.6260916e-17)
(-31.8966 -1.2970776e-29 -1.5581038e-17)
(-31.85216 -2.9786213e-17 2.0677596e-30)
(-31.807343 1.4197188e-17 1.4197188e-17)
(-31.762146 1.9175207e-33 0)
(-31.716564 1.2781673e-17 0)
(-31.670591 -6.6885955e-30 0)
(-31.624225 -2.2670187e-17 -1.1335094e-17)
(-31.57746 -1.0600359e-17 -1.0600359e-17)
(-31.530291 -3.5909667e-47 9.8581108e-18)
(-31.482716 2.7325319e-17 9.1084397e-18)
(-31.434729 0 0)
(-31.386326 -1.5174426e-17 -7.5872129e-18)
(-31.337504 0 -6.8158609e-18)
(-31.288257 0 6.0374926e-18)
(-31.238583 1.0504443e-17 5.2522213e-18)
(-31.188477 -1.2372331e-30 0)
(-31.137935 -1.0984508e-17 -3.6615026e-18)
(-31.086954 2.8567398e-18 -2.8567398e-18)
(-31.035528 2.0435298e-18 2.0435298e-18)
(-30.983639 -1.2030559e-18 3.3406467e-31)
(-30.931302 3.708767e-19 -3.708767e-19)
(-30.878517 4.5015718e-19 0)
(-30.825268 3.5756626e-31 0)
(-30.771559 -2.1311468e-18 0)
(-30.717392 2.9794058e-18 0)
(-30.662756 0 -3.8322267e-18)
(-30.607643 4.690855e-18 1.3012239e-30)
(-30.552066 -5.5550249e-18 5.5550249e-18)
(-30.496014 -1.2848019e-17 -6.4240096e-18)
(-30.439476 7.2980434e-18 -1.0132607e-30)
(-30.38246 8.1771362e-18 1.136476e-30)
(-30.324964 9.0605916e-18 4.2625757e-47)
(-30.266977 9.9483719e-18 -9.9483719e-18)
(-30.208498 -2.1681932e-17 -1.0840966e-17)
(-30.149537 -1.173782e-17 2.3475641e-17)
(-30.090081 1.2638272e-17 1.7546983e-30)
(-30.030123 0 -1.8783455e-30)
(-29.969673 -1.4451099e-17 1.4451099e-17)
(-29.908725 1.5362717e-17 0)
(-29.847272 1.6277598e-17 -1.6277598e-17)
(-29.785314 -5.158816e-17 -1.7196053e-17)
(-29.72286 -5.1492785e-33 1.8117413e-17)
(-29.659897 3.8082364e-17 5.2819455e-30)
(-29.596422 -1.9967767e-17 -1.9967767e-17)
(-29.532443 -2.901344e-30 0)
(-29.467957 -2.1828258e-17 0)
(-29.402954 6.4692187e-33 2.276154e-17)
(-29.33744 4.7394182e-17 -3.2867378e-30)
(-29.27142 -2.4634255e-17 -2.4634255e-17)
(-29.204883 0 0)
(-29.137829 7.362004e-30 2.6512537e-17)
(-29.070263 3.9014284e-33 -3.9014284e-33)
(-29.002186 2.8395898e-17 7.8849759e-30)
(-28.933587 -2.9338682e-17 4.0692148e-30)
(-28.864474 8.4088199e-30 -3.02824e-17)
(-28.794851 4.3310414e-30 3.1226429e-17)
(-28.724708 4.5716904e-33 -4.5716904e-33)
(-28.654045 3.3114742e-17 9.1953049e-30)
(-28.582872 -3.4059208e-17 3.4059208e-17)
(-28.511187 4.5325501e-47 -3.5003038e-17)
(-28.438981 9.981567e-30 -9.981567e-30)
(-28.36626 5.2422714e-33 -5.2422714e-33)
(-28.293031 7.5662504e-17 5.2524929e-30)
(-28.219286 5.3776e-30 3.8772025e-17)
(-28.145025 -3.9711828e-17 -3.9711828e-17)
(-28.070255 0 0)
(-27.994979 0 2.3090043e-29)
(-27.919187 4.2522334e-17 5.8977602e-30)
(-27.842885 1.8081693e-29 1.8081693e-29)
(-27.766081 -4.438729e-17 6.3078133e-33)
(-27.688772 4.531624e-17 4.531624e-17)
(-27.610951 -6.4203637e-30 -4.6242879e-17)
(-27.53263 1.7708934e-46 1.7708934e-46)
(-27.453811 6.676651e-30 6.676651e-30)
(-27.374488 -4.9007304e-17 -1.3608353e-29)
(-27.294665 -4.9923006e-17 6.9313126e-30)
(-27.214348 -7.050807e-30 -1.016714e-16)
(-27.133539 5.1744866e-17 5.1744866e-17)
(-27.052234 0 5.2650436e-17)
(-26.970437 0 7.4352495e-30)
(-26.888154 -5.4451166e-17 -7.5600026e-30)
(-26.805386 5.5345553e-17 -1.1069111e-16)
(-26.722131 -4.6814736e-29 5.6235817e-17)
(-26.638393 -5.7122168e-17 5.7122168e-17)
(-26.55418 5.8004275e-17 4.2096412e-47)
(-26.469491 0 0)
(-26.384324 -5.9754522e-17 4.1638637e-47)
(-26.298686 -6.0622819e-17 6.0622819e-17)
(-26.212584 6.148612e-17 -6.148612e-17)
(-26.126011 6.2344375e-17 4.0901677e-47)
(-26.038973 0 8.7654038e-30)
(-25.951483 -6.4045887e-17 9.1014679e-33)
(-25.863529 -6.4888538e-17 6.4888538e-17)
(-25.775119 1.3145204e-16 -1.3145204e-16)
(-25.686268 6.6557809e-17 -1.8481779e-29)
(-25.59696 -6.7383824e-17 6.7383824e-17)
(-25.507208 -6.8204347e-17 -9.4598026e-30)
(-25.417024 -9.5727694e-30 9.5727694e-30)
(-25.326391 -6.9827243e-17 -6.9827243e-17)
(-25.235327 -1.9612504e-29 7.062985e-17)
(-25.143839 1.4285219e-16 -1.5108662e-46)
(-25.051914 0 3.0089681e-29)
(-24.959568 0 -2.0280963e-29)
(-24.866808 0 2.0475901e-29)
(-24.773622 -7.4547473e-17 2.070035e-29)
(-24.680028 -7.5311606e-17 3.6183202e-47)
(-24.586029 0 0)
(-24.491617 7.6819223e-17 -7.6819223e-17)
(-24.396808 1.0746795e-29 0)
(-24.301606 -7.8299456e-17 0)
(-24.206002 0 7.902896e-17)
(-24.110014 0 2.2145399e-29)
(-24.013643 8.046662e-17 -8.046662e-17)
(-23.916885 1.125874e-29 0)
(-23.819755 -1.1344284e-29 0)
(-23.722252 8.2568252e-17 1.651365e-16)
(-23.624376 -8.3253896e-17 6.9306526e-29)
(-23.526141 3.4923602e-29 -1.6786407e-16)
(-23.427545 8.4602404e-17 8.4602404e-17)
(-23.32859 0 -1.2116908e-32)
(-23.229289 8.5920174e-17 1.1929161e-29)
(-23.129639 1.2019e-29 8.6567238e-17)
(-23.029644 -8.7206511e-17 0)
(-22.929316 8.7837822e-17 0)
(-22.828652 -8.8461017e-17 0)
(-22.727657 -8.9076244e-17 8.9076244e-17)
(-22.626343 8.9683304e-17 2.487778e-29)
(-22.524705 0 -9.0282088e-17)
(-22.422752 -9.0872735e-17 0)
(-22.320492 -9.1455024e-17 0)
(-22.217922 9.2028882e-17 9.2028882e-17)
(-22.115051 9.2594438e-17 -1.3158461e-32)
(-22.011888 0 -9.315146e-17)
(-21.908428 9.36999e-17 0)
(-21.804682 -9.423988e-17 0)
(-21.700657 -9.4771161e-17 9.4771161e-17)
(-21.59635 9.5293713e-17 2.6434084e-29)
(-21.491771 1.9161531e-16 2.6617495e-29)
(-21.386928 -5.3488266e-29 -2.6744133e-29)
(-21.281817 -2.9042689e-16 -9.6808962e-17)
(-21.176448 2.2505522e-47 9.7296428e-17)
(-21.07083 9.7774896e-17 -2.7136248e-29)
(-20.964959 1.964887e-16 2.726654e-29)
(-20.858844 -5.4760679e-29 -2.7380339e-29)
(-20.752494 -1.9831272e-16 -9.9156359e-17)
(-20.645906 9.9598648e-17 0)
(-20.539089 -1.0003193e-16 0)
(-20.432053 1.0045594e-16 1.0045594e-16)
(-20.324792 1.0087068e-16 -4.7349759e-46)
(-20.217318 -2.0255258e-16 -1.0127629e-16)
(-20.109639 0 0)
(-20.001751 0 0)
(-19.893664 2.0487386e-16 1.0243693e-16)
(-19.785388 -1.3316767e-46 -2.6633535e-46)
(-19.676917 -2.0632717e-16 -1.0316359e-16)
(-19.568262 0 0)
(-19.459434 0 0)
(-19.350426 2.083649e-16 1.0418245e-16)
(-19.241249 -1.1468491e-46 -2.2936982e-46)
(-19.131915 -2.0962771e-16 -1.0481385e-16)
(-19.022415 0 0)
(-18.912762 0 0)
(-18.802968 2.1137705e-16 1.0568853e-16)
(-18.693024 1.059605e-16 -1.5057893e-32)
(-18.582942 -2.1244562e-16 -1.0622281e-16)
(-18.472732 -1.0647534e-16 1.0647534e-16)
(-18.362389 0 -2.964864e-29)
(-18.251927 2.1390178e-16 2.9713333e-29)
(-18.141348 -5.9520062e-29 -2.9760031e-29)
(-18.030652 -2.1477378e-16 -1.0738689e-16)
(-17.919856 1.075901e-16 0)
(-17.808957 0 0)
(-17.697959 -1.0796644e-16 0)
(-17.586874 1.0813968e-16 0)
(-17.475699 -1.5390776e-32 0)
(-17.36445 -1.0845619e-16 1.0845619e-16)
(-17.253124 1.0859924e-16 -3.0140416e-29)
(-17.141725 -1.0873229e-16 -1.0873229e-16)
(-17.030269 -1.0885529e-16 0)
(-16.91875 1.0896811e-16 0)
(-16.807181 1.090708e-16 0)
(-16.695565 -3.0312473e-29 0)
(-16.583902 -1.0924567e-16 0)
(-16.47221 1.0931786e-16 0)
(-16.360484 3.0372575e-29 0)
(-16.248731 -1.0943139e-16 1.0943139e-16)
(-16.136963 1.0947283e-16 -6.0765739e-29)
(-16.025176 -1.09504e-16 -1.09504e-16)
(-15.913386 -1.0952467e-16 0)
(-15.801591 1.0953455e-16 0)
(-15.689797 1.0953438e-16 0)
(-15.578017 -3.0412583e-29 0)
(-15.466248 -1.0950262e-16 0)
(-15.354501 1.0947122e-16 0)
(-15.242779 -1.5550826e-32 0)
(-15.131089 -1.0937704e-16 1.0937704e-16)
(-15.019439 1.0931434e-16 -3.0338882e-29)
(-14.907831 -1.0924089e-16 -1.0924089e-16)
(-14.796272 -1.0915718e-16 0)
(-14.68477 1.090629e-16 0)
(-14.573329 2.1791613e-16 1.0895806e-16)
(-14.461956 -6.0477788e-29 -3.0238894e-29)
(-14.350655 -2.1743294e-16 -1.0871647e-16)
(-14.239433 1.0857992e-16 0)
(-14.128298 -1.5409206e-32 0)
(-14.017254 -2.165491e-16 0)
(-13.906306 -3.072552e-32 1.0810581e-16)
(-13.795462 1.0792641e-16 2.9984354e-29)
(-13.684727 0 -1.0773633e-16)
(-13.57411 -1.0753535e-16 0)
(-13.463612 0 0)
(-13.353243 1.0710098e-16 0)
(-13.243008 0 0)
(-13.132914 0 0)
(-13.022966 0 0)
(-12.91317 1.0610184e-16 0)
(-12.803533 1.4494621e-47 1.0582481e-16)
(-12.694063 -1.0553671e-16 -1.4997669e-32)
(-12.584763 0 -1.0523756e-16)
(-12.47564 -1.0492745e-16 0)
(-12.366702 2.9047091e-29 0)
(-12.257955 1.0427406e-16 0)
(-12.149404 0 0)
(-12.041055 0 0)
(-11.932917 0 0)
(-11.824995 1.0283381e-16 0)
(-11.717295 -2.8447152e-29 1.0244577e-16)
(-11.609822 -1.0204655e-16 1.4501686e-32)
(-11.502585 0 -1.0163616e-16)
(-11.39559 -1.0121452e-16 0)
(-11.288843 -2.7970711e-29 0)
(-11.182349 1.0033732e-16 0)
(-11.076116 0 9.9881845e-17)
(-10.970151 -9.9415057e-17 -5.5197038e-29)
(-10.86446 9.8936902e-17 -9.8936902e-17)
(-10.759048 -5.4701758e-29 0)
(-10.653922 -9.7946649e-17 9.7946649e-17)
(-10.54909 9.743455e-17 2.7069482e-29)
(-10.444558 0 -9.6911056e-17)
(-10.340331 9.6376205e-17 0)
(-10.236416 2.6610097e-29 0)
(-10.13282 -9.5272552e-17 9.5272552e-17)
(-10.02955 0 9.4703681e-17)
(-9.9266113 -9.4123458e-17 -9.4123458e-17)
(-9.8240105 9.3531945e-17 -9.3531945e-17)
(-9.7217548 5.1609143e-29 0)
(-9.6198502 -9.2314984e-17 0)
(-9.5183027 5.0907683e-29 0)
(-9.4171186 1.2939385e-32 0)
(-9.3163051 -2.5116493e-29 -9.0404915e-17)
(-9.2158684 1.2753639e-32 1.2753639e-32)
(-9.1158143 8.9075388e-17 1.7815078e-16)
(-9.0161492 0 8.839389e-17)
(-8.9168802 -8.7701292e-17 -1.7540258e-16)
(-8.8180132 2.4145134e-29 -1.7399517e-16)
(-8.7195539 2.3946754e-29 8.6282796e-17)
(-8.6215084 -3.579446e-47 8.5557033e-17)
(-8.5238836 2.3552927e-29 0)
(-8.426686 0 0)
(-8.3299211 1.6662869e-16 0)
(-8.2335948 2.2921142e-29 0)
(-8.1377136 -8.1765245e-17 8.1765245e-17)
(-8.0422838 8.0974709e-17 2.2496573e-29)
(-7.9473108 -2.2251215e-29 -8.0173581e-17)
(-7.8528003 -7.9361971e-17 0)
(-7.7587586 -7.8539989e-17 0)
(-7.665192 -2.157788e-29 0)
(-7.5721058 2.1343924e-29 0)
(-7.4795053 -7.6012494e-17 0)
(-7.3873967 7.514984e-17 0)
(-7.2957858 7.4277283e-17 0)
(-7.2046778 0 0)
(-7.114078 7.2502868e-17 0)
(-7.0239919 -1.9882256e-29 0)
(-6.9344254 -7.0690322e-17 0)
(-6.8453834 0 0)
(-6.7568706 0 0)
(-6.6688922 0 0)
(-6.5814538 1.3391008e-16 6.6955041e-17)
(-6.4945602 -7.3306618e-29 -3.6653309e-29)
(-6.408216 -1.3006954e-16 -6.5034769e-17)
(-6.3224256 0 0)
(-6.2371938 0 0)
(-6.1525254 0 -6.209235e-17)
(-6.068425 0 1.6965075e-29)
(-5.9848968 0 -8.5395258e-33)
(-5.9019447 0 5.9080003e-17)
(-5.8195727 0 5.8061263e-17)
(-5.7377848 1.1407114e-16 3.166718e-29)
(-5.6565848 -3.1117835e-29 -1.5558917e-29)
(-5.5759767 -1.0992842e-16 -5.4964211e-17)
(-5.4959641 -5.3918997e-17 0)
(-5.4165503 5.286773e-17 0)
(-5.3377384 5.1810652e-17 0)
(-5.2595315 -1.4098927e-29 0)
(-5.1819328 -2.7562104e-29 0)
(-5.1049453 -4.8607112e-17 4.8607112e-17)
(-5.0285719 4.7529358e-17 -2.6389159e-29)
(-4.9528151 -4.6447092e-17 -4.6447092e-17)
(-4.8776776 -4.5360582e-17 0)