/*--------------------------------*- C++ -*----------------------------------*\
  =========                 |
  \\      /  F ield         | OpenFOAM: The Open Source CFD Toolbox
   \\    /   O peration     | Website:  https://openfoam.org
    \\  /    A nd           | Version:  7
     \\/     M anipulation  |
\*---------------------------------------------------------------------------*/
FoamFile
{
    version     2.0;
    format      ascii;
    class       volScalarField;
    location    "0.00333";
    object      p;
}
// * * * * * * * * * * * * * * * * * * * * * * * * * * * * * * * * * * * * * //

dimensions      [1 -1 -2 0 0 0 0];

internalField   nonuniform List<scalar> 
5000
(
59772.372
59775.462
59778.748
59782.046
59785.347
59788.645
59791.941
59795.235
59798.527
59801.817
59805.106
59808.393
59811.679
59814.964
59818.249
59821.532
59824.814
59828.096
59831.376
59834.655
59837.933
59841.21
59844.486
59847.761
59851.034
59854.306
59857.577
59860.846
59864.114
59867.381
59870.646
59873.909
59877.172
59880.432
59883.691
59886.949
59890.205
59893.46
59896.713
59899.965
59903.215
59906.463
59909.71
59912.955
59916.199
59919.441
59922.682
59925.921
59929.158
59932.394
59935.628
59938.861
59942.092
59945.321
59948.549
59951.775
59955
59958.223
59961.445
59964.665
59967.883
59971.1
59974.315
59977.529
59980.741
59983.951
59987.16
59990.367
59993.573
59996.777
59999.98
60003.181
60006.38
60009.578
60012.774
60015.968
60019.161
60022.353
60025.543
60028.731
60031.918
60035.103
60038.286
60041.468
60044.648
60047.827
60051.004
60054.18
60057.354
60060.526
60063.697
60066.867
60070.034
60073.2
60076.365
60079.528
60082.689
60085.849
60089.007
60092.164
60095.319
60098.472
60101.624
60104.774
60107.923
60111.07
60114.216
60117.36
60120.502
60123.643
60126.782
60129.919
60133.056
60136.19
60139.323
60142.454
60145.584
60148.712
60151.839
60154.963
60158.087
60161.209
60164.329
60167.448
60170.565
60173.68
60176.794
60179.906
60183.017
60186.126
60189.234
60192.34
60195.444
60198.547
60201.648
60204.748
60207.846
60210.942
60214.037
60217.13
60220.222
60223.312
60226.401
60229.488
60232.573
60235.657
60238.739
60241.82
60244.899
60247.976
60251.052
60254.127
60257.199
60260.27
60263.34
60266.408
60269.474
60272.539
60275.602
60278.664
60281.724
60284.782
60287.839
60290.894
60293.948
60297
60300.051
60303.099
60306.147
60309.193
60312.237
60315.279
60318.32
60321.36
60324.397
60327.434
60330.468
60333.501
60336.533
60339.563
60342.591
60345.617
60348.642
60351.666
60354.688
60357.708
60360.727
60363.744
60366.759
60369.773
60372.786
60375.796
60378.806
60381.813
60384.819
60387.823
60390.826
60393.827
60396.827
60399.825
60402.821
60405.816
60408.809
60411.801
60414.791
60417.779
60420.766
60423.751
60426.735
60429.717
60432.698
60435.676
60438.654
60441.629
60444.603
60447.576
60450.547
60453.516
60456.484
60459.45
60462.414
60465.377
60468.338
60471.298
60474.256
60477.213
60480.168
60483.121
60486.073
60489.023
60491.971
60494.918
60497.863
60500.807
60503.749
60506.69
60509.629
60512.566
60515.501
60518.436
60521.368
60524.299
60527.228
60530.156
60533.082
60536.007
60538.929
60541.851
60544.77
60547.688
60550.605
60553.52
60556.433
60559.345
60562.255
60565.163
60568.07
60570.975
60573.879
60576.781
60579.681
60582.58
60585.477
60588.373
60591.267
60594.159
60597.05
60599.939
60602.827
60605.713
60608.597
60611.48
60614.361
60617.241
60620.119
60622.995
60625.87
60628.743
60631.614
60634.484
60637.352
60640.219
60643.084
60645.948
60648.809
60651.67
60654.528
60657.385
60660.241
60663.095
60665.947
60668.797
60671.646
60674.494
60677.339
60680.184
60683.026
60685.867
60688.706
60691.544
60694.38
60697.214
60700.047
60702.879
60705.708
60708.536
60711.363
60714.187
60717.011
60719.832
60722.652
60725.47
60728.287
60731.102
60733.916
60736.728
60739.538
60742.347
60745.154
60747.959
60750.763
60753.565
60756.366
60759.165
60761.962
60764.758
60767.552
60770.345
60773.135
60775.925
60778.712
60781.499
60784.283
60787.066
60789.847
60792.627
60795.405
60798.181
60800.956
60803.729
60806.501
60809.271
60812.039
60814.806
60817.571
60820.334
60823.096
60825.857
60828.615
60831.372
60834.128
60836.882
60839.634
60842.385
60845.134
60847.881
60850.627
60853.372
60856.114
60858.855
60861.595
60864.333
60867.069
60869.804
60872.537
60875.269
60877.999
60880.727
60883.454
60886.179
60888.903
60891.625
60894.346
60897.065
60899.782
60902.498
60905.212
60907.925
60910.636
60913.346
60916.054
60918.761
60921.466
60924.169
60926.871
60929.571
60932.27
60934.968
60937.663
60940.358
60943.05
60945.742
60948.431
60951.12
60953.806
60956.492
60959.175
60961.858
60964.538
60967.218
60969.895
60972.572
60975.246
60977.92
60980.592
60983.262
60985.931
60988.599
60991.265
60993.93
60996.593
60999.255
61001.915
61004.574
61007.232
61009.888
61012.543
61015.196
61017.849
61020.499
61023.149
61025.797
61028.443
61031.089
61033.733
61036.375
61039.017
61041.657
61044.296
61046.933
61049.57
61052.205
61054.838
61057.471
61060.102
61062.732
61065.361
61067.989
61070.615
61073.24
61075.864
61078.487
61081.109
61083.73
61086.35
61088.968
61091.585
61094.202
61096.817
61099.431
61102.044
61104.657
61107.268
61109.878
61112.487
61115.095
61117.702
61120.308
61122.914
61125.518
61128.122
61130.724
61133.326
61135.927
61138.527
61141.126
61143.724
61146.322
61148.918
61151.514
61154.109
61156.704
61159.298
61161.891
61164.483
61167.074
61169.665
61172.256
61174.845
61177.434
61180.023
61182.61
61185.198
61187.784
61190.37
61192.956
61195.541
61198.126
61200.71
61203.293
61205.876
61208.459
61211.041
61213.623
61216.205
61218.786
61221.367
61223.947
61226.527
61229.107
61231.686
61234.265
61236.844
61239.422
61242.001
61244.579
61247.156
61249.734
61252.311
61254.888
61257.465
61260.042
61262.618
61265.195
61267.771
61270.347
61272.923
61275.499
61278.075
61280.65
61283.226
61285.801
61288.376
61290.951
61293.527
61296.102
61298.676
61301.251
61303.826
61306.401
61308.976
61311.55
61314.125
61316.699
61319.273
61321.848
61324.422
61326.996
61329.57
61332.144
61334.718
61337.292
61339.866
61342.44
61345.013
61347.587
61350.16
61352.733
61355.306
61357.88
61360.452
61363.025
61365.598
61368.17
61370.742
61373.314
61375.886
61378.458
61381.029
61383.601
61386.172
61388.742
61391.313
61393.883
61396.453
61399.023
61401.592
61404.161
61406.73
61409.298
61411.866
61414.433
61417
61419.567
61422.133
61424.699
61427.264
61429.829
61432.393
61434.957
61437.52
61440.083
61442.645
61445.207
61447.768
61450.328
61452.887
61455.446
61458.004
61460.562
61463.119
61465.675
61468.23
61470.784
61473.338
61475.891
61478.443
61480.994
61483.544
61486.094
61488.642
61491.189
61493.736
61496.282
61498.826
61501.37
61503.912
61506.453
61508.994
61511.533
61514.071
61516.608
61519.144
61521.679
61524.212
61526.744
61529.276
61531.805
61534.334
61536.861
61539.387
61541.912
61544.436
61546.958
61549.478
61551.998
61554.516
61557.032
61559.548
61562.062
61564.574
61567.085
61569.594
61572.103
61574.609
61577.114
61579.618
61582.12
61584.62
61587.119
61589.617
61592.113
61594.607
61597.1
61599.591
61602.081
61604.569
61607.056
61609.54
61612.024
61614.505
61616.985
61619.463
61621.94
61624.415
61626.888
61629.36
61631.83
61634.298
61636.765
61639.23
61641.693
61644.155
61646.615
61649.073
61651.529
61653.984
61656.437
61658.888
61661.338
61663.785
61666.232
61668.676
61671.118
61673.559
61675.998
61678.436
61680.871
61683.305
61685.737
61688.168
61690.597
61693.023
61695.449
61697.872
61700.293
61702.713
61705.131
61707.548
61709.962
61712.375
61714.786
61717.196
61719.603
61722.009
61724.413
61726.815
61729.216
61731.614
61734.011
61736.407
61738.8
61741.192
61743.582
61745.97
61748.356
61750.741
61753.124
61755.505
61757.884
61760.262
61762.638
61765.012
61767.385
61769.755
61772.124
61774.491
61776.857
61779.221
61781.583
61783.943
61786.301
61788.658
61791.013
61793.366
61795.718
61798.068
61800.416
61802.762
61805.107
61807.45
61809.791
61812.13
61814.468
61816.804
61819.138
61821.471
61823.802
61826.131
61828.458
61830.784
61833.108
61835.43
61837.75
61840.069
61842.386
61844.701
61847.015
61849.327
61851.637
61853.946
61856.253
61858.558
61860.861
61863.163
61865.463
61867.761
61870.057
61872.352
61874.645
61876.937
61879.226
61881.514
61883.801
61886.085
61888.368
61890.649
61892.929
61895.207
61897.483
61899.757
61902.029
61904.3
61906.57
61908.837
61911.103
61913.367
61915.629
61917.89
61920.149
61922.406
61924.661
61926.915
61929.167
61931.417
61933.666
61935.913
61938.158
61940.402
61942.643
61944.883
61947.122
61949.358
61951.593
61953.826
61956.057
61958.287
61960.515
61962.741
61964.965
61967.188
61969.409
61971.628
61973.846
61976.061
61978.275
61980.487
61982.698
61984.907
61987.114
61989.319
61991.522
61993.724
61995.924
61998.122
62000.319
62002.513
62004.706
62006.897
62009.086
62011.274
62013.46
62015.644
62017.826
62020.007
62022.186
62024.363
62026.538
62028.711
62030.883
62033.053
62035.22
62037.386
62039.551
62041.713
62043.874
62046.033
62048.191
62050.346
62052.5
62054.652
62056.802
62058.951
62061.097
62063.242
62065.384
62067.525
62069.664
62071.801
62073.937
62076.07
62078.202
62080.332
62082.461
62084.588
62086.713
62088.836
62090.957
62093.076
62095.194
62097.31
62099.423
62101.535
62103.645
62105.753
62107.859
62109.964
62112.066
62114.167
62116.266
62118.363
62120.459
62122.552
62124.644
62126.735
62128.823
62130.91
62132.995
62135.078
62137.16
62139.239
62141.317
62143.394
62145.468
62147.54
62149.611
62151.68
62153.747
62155.812
62157.875
62159.936
62161.995
62164.053
62166.108
62168.162
62170.214
62172.264
62174.312
62176.359
62178.403
62180.446
62182.487
62184.526
62186.563
62188.598
62190.631
62192.663
62194.693
62196.72
62198.746
62200.771
62202.793
62204.814
62206.834
62208.851
62210.867
62212.881
62214.893
62216.904
62218.912
62220.919
62222.924
62224.928
62226.929
62228.929
62230.927
62232.924
62234.918
62236.911
62238.901
62240.89
62242.878
62244.863
62246.847
62248.829
62250.809
62252.787
62254.764
62256.739
62258.712
62260.683
62262.653
62264.621
62266.587
62268.552
62270.515
62272.476
62274.435
62276.392
62278.348
62280.302
62282.255
62284.206
62286.155
62288.103
62290.049
62291.993
62293.936
62295.877
62297.816
62299.753
62301.689
62303.623
62305.555
62307.485
62309.414
62311.341
62313.266
62315.19
62317.111
62319.032
62320.95
62322.867
62324.782
62326.696
62328.608
62330.518
62332.426
62334.333
62336.238
62338.142
62340.043
62341.944
62343.842
62345.739
62347.635
62349.528
62351.42
62353.31
62355.199
62357.086
62358.972
62360.855
62362.738
62364.618
62366.498
62368.375
62370.251
62372.126
62373.999
62375.87
62377.74
62379.608
62381.475
62383.34
62385.203
62387.066
62388.926
62390.785
62392.643
62394.499
62396.354
62398.208
62400.06
62401.91
62403.76
62405.608
62407.454
62409.299
62411.143
62412.985
62414.825
62416.665
62418.502
62420.339
62422.174
62424.008
62425.84
62427.671
62429.501
62431.329
62433.156
62434.981
62436.804
62438.626
62440.446
62442.265
62444.083
62445.899
62447.715
62449.528
62451.34
62453.151
62454.96
62456.767
62458.573
62460.377
62462.18
62463.981
62465.78
62467.578
62469.375
62471.17
62472.964
62474.756
62476.546
62478.334
62480.121
62481.906
62483.689
62485.471
62487.252
62489.031
62490.808
62492.584
62494.357
62496.129
62497.899
62499.667
62501.434
62503.199
62504.962
62506.725
62508.485
62510.244
62512.002
62513.758
62515.512
62517.265
62519.015
62520.764
62522.512
62524.257
62526.001
62527.743
62529.484
62531.223
62532.96
62534.695
62536.428
62538.16
62539.889
62541.617
62543.343
62545.068
62546.791
62548.513
62550.233
62551.952
62553.669
62555.384
62557.098
62558.81
62560.52
62562.229
62563.935
62565.64
62567.343
62569.044
62570.743
62572.441
62574.137
62575.831
62577.524
62579.215
62580.905
62582.593
62584.279
62585.963
62587.646
62589.327
62591.006
62592.683
62594.359
62596.033
62597.705
62599.376
62601.045
62602.712
62604.378
62606.042
62607.705
62609.366
62611.026
62612.683
62614.34
62615.994
62617.647
62619.298
62620.947
62622.594
62624.24
62625.884
62627.526
62629.167
62630.806
62632.443
62634.079
62635.713
62637.345
62638.976
62640.605
62642.232
62643.857
62645.481
62647.104
62648.725
62650.344
62651.962
62653.579
62655.194
62656.807
62658.419
62660.029
62661.638
62663.245
62664.851
62666.455
62668.057
62669.658
62671.258
62672.856
62674.454
62676.049
62677.644
62679.237
62680.828
62682.418
62684.006
62685.593
62687.178
62688.761
62690.343
62691.924
62693.503
62695.081
62696.658
62698.234
62699.809
62701.382
62702.954
62704.524
62706.092
62707.659
62709.225
62710.789
62712.351
62713.912
62715.472
62717.031
62718.589
62720.145
62721.7
62723.253
62724.804
62726.354
62727.902
62729.449
62730.994
62732.537
62734.08
62735.621
62737.16
62738.699
62740.236
62741.771
62743.305
62744.837
62746.368
62747.897
62749.425
62750.951
62752.475
62753.998
62755.519
62757.039
62758.558
62760.075
62761.591
62763.105
62764.617
62766.128
62767.638
62769.146
62770.652
62772.156
62773.659
62775.161
62776.661
62778.159
62779.656
62781.151
62782.645
62784.137
62785.628
62787.117
62788.605
62790.09
62791.575
62793.057
62794.539
62796.018
62797.496
62798.972
62800.447
62801.92
62803.392
62804.862
62806.33
62807.797
62809.262
62810.726
62812.188
62813.648
62815.107
62816.564
62818.02
62819.474
62820.926
62822.377
62823.827
62825.274
62826.72
62828.165
62829.608
62831.049
62832.488
62833.926
62835.363
62836.797
62838.23
62839.662
62841.091
62842.519
62843.946
62845.37
62846.794
62848.215
62849.635
62851.053
62852.47
62853.885
62855.298
62856.71
62858.12
62859.528
62860.935
62862.34
62863.744
62865.146
62866.546
62867.944
62869.341
62870.736
62872.129
62873.521
62874.911
62876.299
62877.686
62879.071
62880.455
62881.837
62883.217
62884.595
62885.972
62887.348
62888.721
62890.093
62891.463
62892.832
62894.199
62895.564
62896.927
62898.289
62899.649
62901.008
62902.365
62903.72
62905.074
62906.426
62907.777
62909.126
62910.473
62911.818
62913.162
62914.505
62915.846
62917.185
62918.523
62919.859
62921.193
62922.526
62923.857
62925.187
62926.515
62927.841
62929.166
62930.49
62931.812
62933.132
62934.451
62935.769
62937.084
62938.399
62939.712
62941.023
62942.333
62943.641
62944.948
62946.254
62947.557
62948.86
62950.161
62951.46
62952.758
62954.055
62955.35
62956.644
62957.936
62959.227
62960.516
62961.804
62963.091
62964.376
62965.659
62966.942
62968.222
62969.502
62970.779
62972.056
62973.331
62974.604
62975.876
62977.146
62978.415
62979.683
62980.949
62982.213
62983.477
62984.738
62985.998
62987.257
62988.514
62989.77
62991.024
62992.277
62993.529
62994.778
62996.027
62997.274
62998.519
62999.763
63001.005
63002.246
63003.486
63004.724
63005.96
63007.195
63008.429
63009.661
63010.891
63012.12
63013.348
63014.573
63015.798
63017.021
63018.242
63019.462
63020.681
63021.898
63023.113
63024.327
63025.539
63026.75
63027.96
63029.168
63030.375
63031.58
63032.783
63033.985
63035.186
63036.385
63037.583
63038.779
63039.973
63041.166
63042.358
63043.548
63044.736
63045.923
63047.108
63048.292
63049.474
63050.655
63051.834
63053.012
63054.189
63055.364
63056.537
63057.709
63058.88
63060.049
63061.216
63062.382
63063.546
63064.709
63065.87
63067.03
63068.189
63069.346
63070.501
63071.655
63072.808
63073.959
63075.108
63076.256
63077.402
63078.547
63079.69
63080.832
63081.972
63083.111
63084.248
63085.384
63086.519
63087.652
63088.784
63089.914
63091.042
63092.169
63093.294
63094.418
63095.54
63096.66
63097.779
63098.897
63100.013
63101.128
63102.241
63103.352
63104.463
63105.571
63106.678
63107.784
63108.888
63109.991
63111.092
63112.191
63113.289
63114.385
63115.48
63116.574
63117.665
63118.756
63119.845
63120.932
63122.018
63123.103
63124.186
63125.268
63126.348
63127.427
63128.504
63129.58
63130.654
63131.727
63132.798
63133.868
63134.936
63136.003
63137.068
63138.132
63139.195
63140.256
63141.316
63142.374
63143.431
63144.487
63145.541
63146.594
63147.645
63148.695
63149.743
63150.79
63151.836
63152.88
63153.923
63154.965
63156.005
63157.043
63158.081
63159.117
63160.151
63161.184
63162.216
63163.247
63164.276
63165.304
63166.33
63167.355
63168.379
63169.401
63170.422
63171.441
63172.459
63173.476
63174.491
63175.505
63176.518
63177.529
63178.539
63179.547
63180.555
63181.56
63182.565
63183.568
63184.569
63185.57
63186.568
63187.566
63188.562
63189.556
63190.55
63191.542
63192.532
63193.521
63194.509
63195.495
63196.48
63197.463
63198.445
63199.426
63200.405
63201.383
63202.36
63203.335
63204.308
63205.281
63206.251
63207.221
63208.189
63209.155
63210.121
63211.085
63212.047
63213.008
63213.968
63214.926
63215.882
63216.838
63217.792
63218.744
63219.695
63220.645
63221.593
63222.54
63223.486
63224.43
63225.372
63226.314
63227.254
63228.192
63229.129
63230.065
63230.999
63231.932
63232.863
63233.793
63234.721
63235.648
63236.574
63237.498
63238.421
63239.343
63240.263
63241.181
63242.099
63243.015
63243.929
63244.842
63245.754
63246.664
63247.573
63248.48
63249.386
63250.291
63251.194
63252.096
63252.996
63253.895
63254.793
63255.689
63256.584
63257.477
63258.37
63259.26
63260.15
63261.037
63261.924
63262.809
63263.693
63264.575
63265.456
63266.335
63267.213
63268.09
63268.965
63269.839
63270.712
63271.583
63272.453
63273.321
63274.188
63275.053
63275.918
63276.78
63277.642
63278.502
63279.36
63280.217
63281.073
63281.928
63282.781
63283.633
63284.483
63285.332
63286.179
63287.026
63287.87
63288.714
63289.556
63290.397
63291.236
63292.074
63292.911
63293.746
63294.58
63295.412
63296.244
63297.074
63297.902
63298.729
63299.555
63300.38
63301.203
63302.025
63302.845
63303.664
63304.482
63305.299
63306.114
63306.928
63307.741
63308.552
63309.362
63310.17
63310.978
63311.784
63312.589
63313.392
63314.194
63314.995
63315.794
63316.592
63317.389
63318.185
63318.979
63319.772
63320.564
63321.355
63322.144
63322.931
63323.718
63324.503
63325.287
63326.07
63326.851
63327.631
63328.41
63329.187
63329.964
63330.738
63331.512
63332.284
63333.055
63333.825
63334.593
63335.36
63336.126
63336.89
63337.653
63338.415
63339.175
63339.935
63340.692
63341.449
63342.204
63342.957
63343.71
63344.461
63345.211
63345.959
63346.706
63347.452
63348.196
63348.939
63349.681
63350.421
63351.16
63351.898
63352.634
63353.369
63354.102
63354.834
63355.565
63356.294
63357.022
63357.749
63358.474
63359.198
63359.92
63360.641
63361.361
63362.08
63362.797
63363.512
63364.227
63364.939
63365.651
63366.36
63367.069
63367.776
63368.482
63369.187
63369.89
63370.592
63371.292
63371.991
63372.688
63373.384
63374.079
63374.773
63375.465
63376.155
63376.844
63377.532
63378.218
63378.903
63379.587
63380.269
63380.95
63381.63
63382.307
63382.984
63383.659
63384.333
63385.006
63385.677
63386.347
63387.015
63387.682
63388.347
63389.011
63389.674
63390.335
63390.995
63391.654
63392.311
63392.967
63393.622
63394.275
63394.926
63395.576
63396.225
63396.873
63397.519
63398.164
63398.807
63399.449
63400.09
63400.729
63401.367
63402.003
63402.638
63403.272
63403.904
63404.535
63405.164
63405.793
63406.419
63407.045
63407.669
63408.292
63408.913
63409.533
63410.151
63410.768
63411.384
63411.999
63412.612
63413.224
63413.834
63414.443
63415.05
63415.657
63416.262
63416.865
63417.467
63418.068
63418.668
63419.266
63419.862
63420.458
63421.052
63421.645
63422.236
63422.826
63423.415
63424.002
63424.588
63425.173
63425.756
63426.338
63426.919
63427.499
63428.077
63428.653
63429.229
63429.803
63430.376
63430.947
63431.517
63432.086
63432.654
63433.22
63433.785
63434.349
63434.911
63435.472
63436.032
63436.591
63437.148
63437.704
63438.259
63438.812
63439.364
63439.915
63440.465
63441.013
63441.561
63442.106
63442.651
63443.194
63443.736
63444.277
63444.816
63445.355
63445.891
63446.427
63446.961
63447.495
63448.027
63448.557
63449.087
63449.615
63450.142
63450.667
63451.191
63451.715
63452.236
63452.757
63453.276
63453.794
63454.311
63454.827
63455.341
63455.853
63456.365
63456.875
63457.385
63457.892
63458.399
63458.904
63459.408
63459.91
63460.412
63460.912
63461.411
63461.908
63462.404
63462.899
63463.393
63463.885
63464.376
63464.865
63465.353
63465.84
63466.326
63466.81
63467.293
63467.775
63468.255
63468.734
63469.212
63469.688
63470.163
63470.637
63471.109
63471.58
63472.05
63472.518
63472.985
63473.45
63473.914
63474.377
63474.838
63475.298
63475.757
63476.214
63476.67
63477.125
63477.578
63478.03
63478.48
63478.929
63479.377
63479.823
63480.268
63480.712
63481.154
63481.594
63482.034
63482.472
63482.908
63483.343
63483.777
63484.209
63484.64
63485.07
63485.498
63485.925
63486.35
63486.774
63487.196
63487.618
63488.037
63488.456
63488.873
63489.288
63489.702
63490.115
63490.526
63490.936
63491.344
63491.751
63492.157
63492.561
63492.963
63493.365
63493.765
63494.163
63494.56
63494.956
63495.35
63495.743
63496.134
63496.524
63496.913
63497.3
63497.686
63498.07
63498.453
63498.835
63499.215
63499.593
63499.97
63500.346
63500.721
63501.094
63501.465
63501.836
63502.204
63502.572
63502.938
63503.302
63503.665
63504.027
63504.387
63504.746
63505.104
63505.46
63505.814
63506.168
63506.52
63506.87
63507.219
63507.567
63507.913
63508.258
63508.601
63508.944
63509.284
63509.623
63509.961
63510.298
63510.633
63510.967
63511.299
63511.63
63511.959
63512.288
63512.614
63512.94
63513.264
63513.586
63513.908
63514.227
63514.546
63514.863
63515.179
63515.493
63515.806
63516.117
63516.427
63516.736
63517.043
63517.349
63517.654
63517.957
63518.259
63518.559
63518.858
63519.155
63519.451
63519.746
63520.039
63520.331
63520.621
63520.91
63521.198
63521.484
63521.768
63522.051
63522.333
63522.613
63522.892
63523.169
63523.444
63523.718
63523.991
63524.262
63524.531
63524.799
63525.066
63525.33
63525.593
63525.855
63526.115
63526.373
63526.629
63526.884
63527.137
63527.389
63527.638
63527.886
63528.132
63528.376
63528.618
63528.859
63529.097
63529.334
63529.569
63529.803
63530.034
63530.263
63530.49
63530.714
63530.937
63531.157
63531.376
63531.592
63531.805
63532.017
63532.226
63532.432
63532.637
63532.839
63533.038
63533.235
63533.428
63533.619
63533.807
63533.992
63534.175
63534.354
63534.531
63534.704
63534.874
63535.042
63535.205
63535.366
63535.523
63535.677
63535.827
63535.973
63536.115
63536.254
63536.389
63536.52
63536.646
63536.769
63536.887
63537.001
63537.11
63537.214
63537.314
63537.409
63537.499
63537.584
63537.664
63537.738
63537.807
63537.871
63537.929
63537.981
63538.026
63538.066
63538.1
63538.127
63538.148
63538.162
63538.169
63538.169
63538.162
63538.147
63538.125
63538.096
63538.058
63538.013
63537.959
63537.897
63537.826
63537.747
63537.658
63537.561
63537.454
63537.338
63537.212
63537.076
63536.931
63536.774
63536.608
63536.43
63536.242
63536.043
63535.832
63535.61
63535.376
63535.13
63534.872
63534.602
63534.319
63534.023
63533.714
63533.392
63533.057
63532.708
63532.345
63531.968
63531.577
63531.171
63530.75
63530.315
63529.865
63529.399
63528.917
63528.42
63527.908
63527.379
63526.833
63526.272
63525.693
63525.098
63524.486
63523.857
63523.21
63522.546
63521.865
63521.165
63520.448
63519.712
63518.959
63518.187
63517.396
63516.588
63515.76
63514.914
63514.049
63513.165
63512.262
63511.34
63510.399
63509.439
63508.459
63507.461
63506.443
63505.406
63504.35
63503.274
63502.179
63501.065
63499.932
63498.779
63497.608
63496.417
63495.208
63493.98
63492.732
63491.467
63490.182
63488.88
63487.559
63486.219
63484.862
63483.487
63482.095
63480.685
63479.257
63477.813
63476.352
63474.874
63473.38
63471.87
63470.344
63468.802
63467.245
63465.673
63464.087
63462.486
63460.87
63459.242
63457.599
63455.944
63454.276
63452.596
63450.903
63449.199
63447.484
63445.758
63444.022
63442.275
63440.519
63438.754
63436.98
63435.197
63433.407
63431.609
63429.804
63427.993
63426.175
63424.352
63422.523
63420.69
63418.853
63417.011
63415.167
63413.319
63411.469
63409.617
63407.763
63405.909
63404.053
63402.198
63400.343
63398.489
63396.637
63394.786
63392.937
63391.091
63389.248
63387.409
63385.573
63383.743
63381.916
63380.096
63378.281
63376.471
63374.669
63372.873
63371.085
63369.304
63367.532
63365.767
63364.012
63362.266
63360.529
63358.802
63357.085
63355.378
63353.682
63351.997
63350.324
63348.662
63347.012
63345.374
63343.748
63342.135
63340.535
63338.947
63337.373
63335.812
63334.265
63332.732
63331.212
63329.707
63328.215
63326.738
63325.275
63323.827
63322.393
63320.974
63319.57
63318.181
63316.806
63315.446
63314.102
63312.772
63311.457
63310.157
63308.871
63307.601
63306.346
63305.105
63303.879
63302.668
63301.472
63300.29
63299.122
63297.969
63296.83
63295.706
63294.595
63293.499
63292.416
63291.347
63290.292
63289.25
63288.221
63287.205
63286.203
63285.213
63284.236
63283.271
63282.319
63281.378
63280.45
63279.533
63278.628
63277.735
63276.852
63275.981
63275.12
63274.27
63273.43
63272.601
63271.781
63270.972
63270.172
63269.381
63268.6
63267.827
63267.064
63266.309
63265.562
63264.824
63264.094
63263.371
63262.656
63261.949
63261.249
63260.556
63259.87
63259.19
63258.517
63257.85
63257.19
63256.535
63255.886
63255.243
63254.605
63253.973
63253.345
63252.723
63252.105
63251.492
63250.884
63250.279
63249.679
63249.083
63248.491
63247.902
63247.317
63246.736
63246.158
63245.583
63245.011
63244.442
63243.876
63243.312
63242.751
63242.193
63241.636
63241.083
63240.531
63239.981
63239.433
63238.887
63238.343
63237.8
63237.259
63236.719
63236.18
63235.643
63235.107
63234.572
63234.038
63233.505
63232.972
63232.441
63231.91
63231.38
63230.85
63230.32
63229.791
63229.263
63228.734
63228.206
63227.678
63227.15
63226.622
63226.094
63225.566
63225.038
63224.509
63223.98
63223.451
63222.922
63222.392
63221.862
63221.331
63220.799
63220.267
63219.735
63219.201
63218.667
63218.132
63217.597
63217.06
63216.523
63215.984
63215.445
63214.905
63214.363
63213.821
63213.277
63212.733
63212.187
63211.64
63211.092
63210.542
63209.991
63209.439
63208.886
63208.331
63207.775
63207.217
63206.658
63206.098
63205.535
63204.972
63204.407
63203.84
63203.271
63202.701
63202.13
63201.556
63200.981
63200.404
63199.826
63199.246
63198.663
63198.079
63197.494
63196.906
63196.317
63195.725
63195.132
63194.537
63193.939
63193.34
63192.739
63192.136
63191.531
63190.924
63190.314
63189.703
63189.09
63188.474
63187.856
63187.237
63186.615
63185.991
63185.364
63184.736
63184.105
63183.472
63182.837
63182.199
63181.559
63180.916
63180.271
63179.623
63178.973
63178.32
63177.665
63177.008
63176.347
63175.685
63175.02
63174.352
63173.683
63173.011
63172.337
63171.661
63170.982
63170.301
63169.617
63168.931
63168.241
63167.549
63166.853
63166.155
63165.454
63164.75
63164.043
63163.334
63162.622
63161.908
63161.192
63160.473
63159.751
63159.027
63158.299
63157.568
63156.834
63156.097
63155.357
63154.614
63153.868
63153.12
63152.37
63151.617
63150.86
63150.101
63149.339
63148.573
63147.804
63147.031
63146.256
63145.478
63144.697
63143.914
63143.128
63142.339
63141.546
63140.75
63139.951
63139.148
63138.342
63137.534
63136.722
63135.908
63135.091
63134.27
63133.447
63132.619
63131.789
63130.955
63130.118
63129.278
63128.435
63127.59
63126.741
63125.889
63125.033
63124.175
63123.312
63122.447
63121.58
63120.709
63119.835
63118.958
63118.077
63117.193
63116.306
63115.416
63114.522
63113.625
63112.725
63111.822
63110.915
63110.004
63109.09
63108.172
63107.251
63106.327
63105.399
63104.467
63103.532
63102.593
63101.65
63100.704
63099.755
63098.802
63097.846
63096.886
63095.922
63094.955
63093.985
63093.011
63092.033
63091.052
63090.067
63089.079
63088.087
63087.092
63086.093
63085.091
63084.085
63083.076
63082.063
63081.047
63080.027
63079.003
63077.976
63076.946
63075.912
63074.875
63073.834
63072.789
63071.741
63070.69
63069.635
63068.577
63067.515
63066.449
63065.381
63064.308
63063.233
63062.153
63061.071
63059.985
63058.895
63057.802
63056.706
63055.606
63054.503
63053.396
63052.286
63051.173
63050.056
63048.936
63047.813
63046.686
63045.556
63044.422
63043.285
63042.145
63041.002
63039.855
63038.705
63037.552
63036.395
63035.236
63034.073
63032.907
63031.737
63030.565
63029.389
63028.21
63027.028
63025.843
63024.654
63023.463
63022.268
63021.071
63019.87
63018.666
63017.46
63016.25
63015.037
63013.822
63012.603
63011.381
63010.156
63008.929
63007.699
63006.465
63005.229
63003.99
63002.748
63001.503
63000.256
62999.005
62997.752
62996.496
62995.238
62993.976
62992.712
62991.446
62990.176
62988.904
62987.63
62986.353
62985.073
62983.79
62982.505
62981.218
62979.928
62978.636
62977.341
62976.043
62974.743
62973.441
62972.137
62970.83
62969.52
62968.209
62966.895
62965.578
62964.26
62962.939
62961.616
62960.291
62958.963
62957.634
62956.302
62954.968
62953.632
62952.294
62950.954
62949.611
62948.267
62946.921
62945.572
62944.222
62942.87
62941.516
62940.16
62938.802
62937.442
62936.08
62934.716
62933.351
62931.984
62930.615
62929.244
62927.871
62926.497
62925.121
62923.743
62922.364
62920.982
62919.6
62918.215
62916.829
62915.441
62914.052
62912.661
62911.269
62909.875
62908.479
62907.082
62905.684
62904.284
62902.882
62901.479
62900.075
62898.67
62897.262
62895.854
62894.444
62893.033
62891.62
62890.206
62888.791
62887.375
62885.957
62884.538
62883.117
62881.696
62880.273
62878.849
62877.423
62875.997
62874.57
62873.142
62871.712
62870.282
62868.85
62867.417
62865.983
62864.549
62863.114
62861.678
62860.241
62858.803
62857.364
62855.923
62854.481
62853.038
62851.594
62850.149
62848.704
62847.259
62845.812
62844.364
62842.914
62841.463
62840.011
62838.558
62837.105
62835.653
62834.201
62832.749
62831.296
62829.841
62828.384
62826.924
62825.464
62824.004
62822.547
62821.092
62819.639
62818.185
62816.728
62815.267
62813.801
62812.333
62810.867
62809.404
62807.948
62806.497
62805.047
62803.594
62802.134
62800.663
62799.186
62797.707
62796.235
62794.777
62793.332
62791.896
62790.459
62789.007
62787.535
62786.043
62784.544
62783.053
62781.583
62780.141
62778.735
62777.35
62775.936
62774.442
62772.937
62771.374
62769.975
62768.523
62767.038
62765.609
62764.212
62762.8
62761.372
62759.938
62758.5
62757.065
62755.638
62754.224
62752.821
62751.425
62750.032
62748.64
62747.246
62745.852
62744.46
62743.07
62741.685
62740.304
62738.928
62737.554
62736.182
62734.811
62733.441
62732.072
62730.704
62729.338
62727.974
62726.612
62725.252
62723.894