/*--------------------------------*- C++ -*----------------------------------*\
  =========                 |
  \\      /  F ield         | OpenFOAM: The Open Source CFD Toolbox
   \\    /   O peration     | Website:  https://openfoam.org
    \\  /    A nd           | Version:  7
     \\/     M anipulation  |
\*---------------------------------------------------------------------------*/
FoamFile
{
    version     2.0;
    format      ascii;
    class       volScalarField;
    location    "0.00268";
    object      mag(U);
}
// * * * * * * * * * * * * * * * * * * * * * * * * * * * * * * * * * * * * * //

dimensions      [0 1 -1 0 0 0 0];

internalField   nonuniform List<scalar> 
5000
(
82.696695
82.641953
82.616028
82.586366
82.557694
82.528812
82.499976
82.471089
82.442202
82.413271
82.384339
82.355369
82.326398
82.297397
82.268396
82.239373
82.210351
82.181315
82.152279
82.123237
82.094194
82.065151
82.036107
82.007064
81.978023
81.948984
81.919947
81.890913
81.861883
81.832857
81.803835
81.774818
81.745805
81.716798
81.687796
81.658799
81.629808
81.600822
81.571842
81.542868
81.513899
81.484937
81.45598
81.427029
81.398084
81.369145
81.340212
81.311285
81.282364
81.253449
81.22454
81.195637
81.16674
81.137849
81.108963
81.080084
81.051211
81.022343
80.993482
80.964627
80.935777
80.906934
80.878097
80.849266
80.82044
80.791621
80.762808
80.734001
80.705199
80.676404
80.647614
80.61883
80.590052
80.561281
80.532515
80.503755
80.475001
80.446253
80.41751
80.388774
80.360043
80.331319
80.3026
80.273887
80.24518
80.216479
80.187783
80.159094
80.130409
80.101731
80.073059
80.044392
80.015731
79.987077
79.958427
79.929784
79.901146
79.872515
79.843889
79.815269
79.786654
79.758046
79.729443
79.700847
79.672256
79.643671
79.615091
79.586517
79.557949
79.529387
79.50083
79.472279
79.443733
79.415194
79.386659
79.358131
79.329607
79.30109
79.272578
79.244071
79.21557
79.187075
79.158584
79.1301
79.101621
79.073147
79.044679
79.016217
78.98776
78.959308
78.930862
78.902421
78.873985
78.845556
78.817131
78.788711
78.760297
78.731888
78.703485
78.675087
78.646693
78.618305
78.589922
78.561545
78.533172
78.504804
78.476441
78.448083
78.41973
78.391383
78.36304
78.334702
78.306368
78.27804
78.249716
78.221397
78.193083
78.164774
78.136468
78.108168
78.079872
78.05158
78.023293
77.99501
77.966731
77.938457
77.910186
77.88192
77.853657
77.825399
77.797145
77.768895
77.74065
77.712409
77.684172
77.65594
77.627713
77.59949
77.571273
77.54306
77.514851
77.486647
77.458447
77.430252
77.402059
77.373869
77.345682
77.317496
77.289312
77.261128
77.232943
77.204759
77.176573
77.148386
77.120196
77.092007
77.063813
77.035619
77.007421
76.979223
76.951021
76.922819
76.894615
76.86641
76.838202
76.809995
76.781786
76.753576
76.725365
76.697154
76.668941
76.640728
76.612513
76.584298
76.556081
76.527864
76.499644
76.471424
76.4432
76.414977
76.386749
76.358522
76.330289
76.302056
76.273818
76.245579
76.217334
76.189089
76.160836
76.132583
76.104322
76.07606
76.047789
76.019518
75.991236
75.962955
75.934661
75.906368
75.878061
75.849755
75.821435
75.793115
75.764779
75.736444
75.708092
75.679741
75.651371
75.623002
75.594614
75.566226
75.537818
75.509409
75.48098
75.45255
75.424097
75.395644
75.367167
75.338689
75.310186
75.281683
75.253152
75.224621
75.196062
75.167501
75.138911
75.11032
75.081697
75.053074
75.024417
74.995759
74.967068
74.938374
74.909644
74.880913
74.852145
74.823374
74.794565
74.765752
74.7369
74.708045
74.679148
74.650248
74.621305
74.592358
74.563366
74.53437
74.505328
74.476281
74.447187
74.418087
74.388938
74.359783
74.330578
74.301366
74.272102
74.242832
74.213507
74.184175
74.154789
74.125394
74.095941
74.066482
74.036963
74.007434
73.977846
73.948249
73.918589
73.888921
73.859191
73.82945
73.799636
73.76982
73.73994
73.710044
73.68008
73.650104
73.620059
73.589999
73.559872
73.529724
73.499514
73.469276
73.438979
73.40865
73.378264
73.34784
73.317361
73.28684
73.256267
73.225647
73.194975
73.164254
73.133481
73.102657
73.07178
73.04085
73.009868
72.97883
72.947739
72.916592
72.885391
72.854132
72.822819
72.791447
72.76002
72.728534
72.696992
72.665389
72.63373
72.602011
72.570234
72.538396
72.5065
72.474542
72.442526
72.410448
72.37831
72.34611
72.31385
72.281526
72.249142
72.216694
72.184185
72.151611
72.118976
72.086276
72.053513
72.020685
71.987794
71.954837
71.921816
71.88873
71.855578
71.822361
71.789078
71.755729
71.722314
71.688832
71.655284
71.621669
71.587986
71.554237
71.52042
71.486536
71.452584
71.418565
71.384477
71.350322
71.316097
71.281806
71.247446
71.213018
71.178521
71.143956
71.109322
71.07462
71.039849
71.00501
70.970101
70.935125
70.900079
70.864965
70.829782
70.794531
70.759211
70.723824
70.688367
70.652842
70.617249
70.581588
70.545858
70.510062
70.474196
70.438264
70.402263
70.366195
70.33006
70.293858
70.257588
70.221253
70.18485
70.148382
70.111846
70.075245
70.038578
70.001846
69.965047
69.928185
69.891256
69.854264
69.817206
69.780085
69.7429
69.705651
69.668339
69.630964
69.593526
69.556026
69.518463
69.480839
69.443153
69.405406
69.367598
69.32973
69.291801
69.253813
69.215764
69.177658
69.139491
69.101268
69.062985
69.024645
68.986247
68.947793
68.909282
68.870716
68.832093
68.793416
68.754683
68.715896
68.677054
68.63816
68.599212
68.560212
68.521158
68.482054
68.442896
68.403689
68.364431
68.325123
68.285764
68.246357
68.206899
68.167394
68.12784
68.088239
68.048589
68.008894
67.96915
67.929361
67.889526
67.849645
67.809718
67.769747
67.729731
67.689672
67.649567
67.60942
67.569229
67.528996
67.48872
67.448403
67.408044
67.367644
67.327202
67.286722
67.2462
67.205639
67.165039
67.124401
67.083724
67.043011
67.002259
66.961472
66.920647
66.879789
66.838893
66.797965
66.757001
66.716004
66.674974
66.633912
66.592816
66.55169
66.510532
66.469344
66.428125
66.386878
66.3456
66.304294
66.262959
66.221597
66.180206
66.13879
66.097346
66.055876
66.01438
65.97286
65.931314
65.889744
65.84815
65.806532
65.764891
65.723227
65.68154
65.639832
65.598101
65.55635
65.514577
65.472783
65.43097
65.389136
65.347283
65.30541
65.263519
65.221609
65.179681
65.137735
65.095772
65.053791
65.011793
64.969779
64.927748
64.885702
64.84364
64.801563
64.75947
64.717363
64.675242
64.633107
64.590958
64.548795
64.50662
64.464431
64.42223
64.380016
64.33779
64.295552
64.253303
64.211043
64.168771
64.126489
64.084196
64.041892
63.999579
63.957256
63.914924
63.872582
63.830232
63.787872
63.745504
63.703128
63.660744
63.618351
63.575951
63.533544
63.491129
63.448707
63.406279
63.363844
63.321402
63.278954
63.2365
63.19404
63.151574
63.109103
63.066627
63.024145
62.981659
62.939168
62.896672
62.854171
62.811667
62.769158
62.726646
62.68413
62.64161
62.599086
62.55656
62.51403
62.471497
62.428961
62.386423
62.343882
62.301338
62.258792
62.216244
62.173693
62.131141
62.088586
62.04603
62.003472
61.960912
61.918351
61.875788
61.833224
61.790658
61.748091
61.705523
61.662953
61.620383
61.577811
61.535238
61.492664
61.450089
61.407513
61.364936
61.322358
61.279779
61.237199
61.194619
61.152038
61.109456
61.066873
61.02429
60.981706
60.939121
60.896536
60.853951
60.811365
60.768778
60.726192
60.683605
60.641018
60.598431
60.555844
60.513257
60.470671
60.428084
60.385499
60.342913
60.300328
60.257744
60.215161
60.172578
60.129996
60.087415
60.044835
60.002256
59.959679
59.917102
59.874527
59.831954
59.789382
59.746811
59.704242
59.661675
59.619109
59.576545
59.533984
59.491424
59.448866
59.406309
59.363755
59.321204
59.278654
59.236106
59.193561
59.151018
59.108477
59.065938
59.023401
58.980867
58.938336
58.895806
58.853279
58.810755
58.768232
58.725713
58.683195
58.64068
58.598168
58.555658
58.513151
58.470646
58.428143
58.385644
58.343146
58.300652
58.25816
58.21567
58.173183
58.130699
58.088217
58.045738
58.003261
57.960787
57.918316
57.875847
57.833381
57.790917
57.748457
57.705998
57.663543
57.62109
57.57864
57.536192
57.493747
57.451305
57.408865
57.366428
57.323994
57.281562
57.239133
57.196707
57.154283
57.111862
57.069444
57.027029
56.984616
56.942205
56.899798
56.857393
56.81499
56.772591
56.730194
56.6878
56.645408
56.603019
56.560632
56.518249
56.475868
56.43349
56.391114
56.348741
56.306371
56.264003
56.221638
56.179275
56.136916
56.094559
56.052205
56.009853
55.967504
55.925157
55.882813
55.840472
55.798134
55.755798
55.713465
55.671133
55.628804
55.586478
55.544154
55.501833
55.459516
55.4172
55.374886
55.332575
55.290265
55.247957
55.205652
55.163351
55.121052
55.078755
55.036459
54.994165
54.951872
54.90958
54.867292
54.825006
54.782723
54.740442
54.698163
54.655883
54.613605
54.571327
54.529052
54.486779
54.444509
54.402242
54.359975
54.317709
54.275443
54.233178
54.190914
54.148652
54.106392
54.064135
54.021881
53.979627
53.937374
53.895122
53.85287
53.810618
53.768369
53.726121
53.683876
53.641633
53.599392
53.557153
53.514917
53.472681
53.430446
53.38821
53.345975
53.303741
53.261509
53.219281
53.177057
53.134838
53.092623
53.050408
53.008194
52.965976
52.923757
52.881538
52.839321
52.797109
52.754903
52.712703
52.670508
52.628316
52.586125
52.543935
52.501742
52.459548
52.417351
52.375153
52.332957
52.290765
52.24858
52.206404
52.164236
52.122075
52.079919
52.037763
51.995602
51.953434
51.911261
51.869086
51.826911
51.784739
51.742572
51.700411
51.658257
51.61611
51.573969
51.531835
51.489704
51.447577
51.405451
51.363325
51.321197
51.279068
51.236936
51.194802
51.152666
51.110529
51.06839
51.02625
50.984111
50.941973
50.899838
50.857706
50.815579
50.773456
50.731337
50.689222
50.647108
50.604996
50.562886
50.520779
50.478676
50.436579
50.394487
50.352401
50.310319
50.268239
50.226161
50.184084
50.142009
50.099936
50.057867
50.015802
49.97374
49.93168
49.889621
49.847563
49.805505
49.763449
49.721396
49.679348
49.637304
49.595263
49.553223
49.511183
49.469138
49.427092
49.385044
49.342997
49.300952
49.25891
49.216871
49.174834
49.132799
49.090766
49.048735
49.006707
48.964683
48.922664
48.880649
48.83864
48.796635
48.754632
48.712631
48.670629
48.628625
48.586619
48.544614
48.50261
48.460611
48.418618
48.376632
48.334651
48.292673
48.250694
48.208706
48.166713
48.124715
48.08272
48.040728
47.998744
47.956767
47.914797
47.87283
47.830862
47.788884
47.7469
47.704908
47.662918
47.62093
47.578948
47.536973
47.495004
47.45304
47.411078
47.369116
47.327151
47.285187
47.243224
47.201266
47.159314
47.117368
47.075426
47.033485
46.991536
46.949576
46.907608
46.865636
46.823668
46.781708
46.739758
46.697819
46.655888
46.61396
46.572025
46.530077
46.488125
46.44617
46.40422
46.362276
46.320339
46.278409
46.236482
46.194555
46.152623
46.110688
46.068752
46.026818
45.984886
45.942957
45.901033
45.859114
45.817198
45.775285
45.733372
45.69146
45.649543
45.607626
45.56571
45.523798
45.481893
45.439996
45.398106
45.356219
45.314331
45.272431
45.230524
45.188611
45.1467
45.104794
45.062897
45.021009
44.979128
44.937249
44.895371
44.85349
44.811609
44.76973
44.727853
44.685978
44.644105
44.602232
44.56036
44.51849
44.476622
44.434757
44.392895
44.351035
44.309175
44.267316
44.22546
44.183608
44.141761
44.099918
44.058077
44.01623
43.974374
43.932516
43.890656
43.848799
43.806949
43.765108
43.723277
43.681454
43.639637
43.597822
43.556005
43.51418
43.472349
43.430511
43.388674
43.34684
43.305012
43.263193
43.221383
43.179581
43.137785
43.095992
43.0542
43.012405
42.970609
42.928807
42.887001
42.845192
42.803384
42.761579
42.719778
42.677983
42.636192
42.594403
42.552613
42.510814
42.469008
42.427199
42.385393
42.343596
42.301811
42.260043
42.21829
42.176547
42.134809
42.093069
42.051313
42.009547
41.967771
41.925996
41.884224
41.84246
41.800706
41.758958
41.717215
41.675472
41.633718
41.591955
41.55018
41.508403
41.466629
41.424864
41.383112
41.341377
41.299656
41.257945
41.216238
41.17453
41.132812
41.091092
41.049364
41.007633
40.965891
40.924147
40.882404
40.840663
40.798929
40.757205
40.715489
40.67378
40.632073
40.590367
40.548656
40.506943
40.465226
40.423508
40.381783
40.340052
40.298317
40.256581
40.214847
40.173118
40.131395
40.089679
40.04797
40.006267
39.964568
39.922873
39.881179
39.839486
39.797793
39.756101
39.714411
39.672725
39.631044
39.589367
39.547691
39.506015
39.464331
39.422646
39.380963
39.339282
39.297607
39.255935
39.214265
39.172595
39.130921
39.089247
39.047572
39.005896
38.96422
38.922544
38.880869
38.839198
38.797533
38.755875
38.714223
38.672574
38.630925
38.589266
38.547604
38.50594
38.464277
38.422617
38.380959
38.339306
38.297659
38.256018
38.214386
38.172762
38.131144
38.08953
38.04791
38.006275
37.964631
37.922982
37.881333
37.839686
37.798043
37.756404
37.714771
37.673146
37.63153
37.589927
37.548332
37.506743
37.465154
37.423549
37.381934
37.340308
37.298685
37.257068
37.215461
37.173865
37.132278
37.090694
37.049113
37.007534
36.965961
36.924393
36.882829
36.84126
36.799669
36.758065
36.716457
36.674855
36.633266
36.591696
36.550145
36.508606
36.467073
36.425534
36.383978
36.342419
36.300851
36.259284
36.217717
36.176151
36.134587
36.093027
36.051476
36.009935
35.968405
35.926883
35.885365
35.843842
35.802304
35.760764
35.719224
35.677687
35.636157
35.594631
35.553108
35.511582
35.470054
35.428528
35.387007
35.345496
35.303993
35.262495
35.220998
35.179493
35.137984
35.096477
35.054972
35.013471
34.971973
34.930477
34.888979
34.847479
34.80598
34.764485
34.722995
34.681511
34.64003
34.598549
34.557061
34.515568
34.474076
34.432584
34.391098
34.349617
34.308142
34.266672
34.225204
34.183737
34.14227
34.100804
34.059337
34.017872
33.976407
33.934944
33.893482
33.85202
33.81056
33.7691
33.727641
33.686182
33.644723
33.603265
33.561806
33.520348
33.478891
33.437434
33.39598
33.354528
33.313081
33.271639
33.230199
33.188762
33.147325
33.105887
33.064447
33.023006
32.981563
32.940119
32.898674
32.85723
32.815788
32.774348
32.732912
32.691478
32.650048
32.608619
32.567192
32.525766
32.484341
32.442916
32.401493
32.360072
32.318651
32.277232
32.235813
32.194394
32.152975
32.111557
32.070139
32.028723
31.987308
31.945895
31.904483
31.863073
31.821665
31.780259
31.738854
31.697451
31.65605
31.61465
31.573252
31.531855
31.490459
31.449065
31.407672
31.366282
31.324893
31.283505
31.242118
31.200731
31.159344
31.117958
31.076574
31.035191
30.993811
30.952433
30.911056
30.869681
30.828307
30.786934
30.745561
30.70419
30.66282
30.621451
30.580083
30.538715
30.497348
30.455981
30.414614
30.373248
30.331881
30.290516
30.249152
30.207789
30.166429
30.125072
30.083718
30.042368
30.001021
29.959677
29.918333
29.87699
29.835648
29.794306
29.752965
29.711625
29.670286
29.628948
29.587612
29.546276
29.50494
29.463606
29.422272
29.38094
29.33961
29.298282
29.256955
29.215629
29.174304
29.132981
29.091658
29.050335
29.009014
28.967692
28.926372
28.885054
28.843737
28.802421
28.761106
28.719791
28.678476
28.637164
28.595853
28.554544
28.513236
28.471929
28.430621
28.389314
28.348007
28.306702
28.265398
28.224094
28.182787
28.141478
28.10017
28.058864
28.017561
27.976261
27.934962
27.893664
27.852366
27.81107
27.769777
27.728487
27.687202
27.645919
27.604636
27.563352
27.522066
27.480782
27.439499
27.398218
27.356939
27.315661
27.274384
27.233105
27.191824
27.150544
27.109265
27.067986
27.026709
26.985432
26.944155
26.902879
26.861604
26.820331
26.779061
26.737793
26.696524
26.655246
26.613962
26.57268
26.531402
26.490132
26.448868
26.407611
26.366356
26.325101
26.283836
26.242566
26.20129
26.16001
26.118729
26.077452
26.036179
25.994913
25.953652
25.912395
25.87114
25.829885
25.78863
25.747377
25.706126
25.664876
25.623627
25.582377
25.541123
25.499863
25.458598
25.417334
25.376074
25.334821
25.293577
25.252341
25.211109
25.169879
25.128649
25.087415
25.046179
25.004944
24.963709
24.922477
24.881246
24.840016
24.798787
24.757557
24.716327
24.675097
24.63387
24.592647
24.551431
24.510221
24.469019
24.427823
24.386629
24.345437
24.304245
24.263053
24.221862
24.180673
24.139486
24.098301
24.057118
24.015936
23.974757
23.933581
23.892411
23.851247
23.81009
23.768939
23.727794
23.686653
23.645516
23.604382
23.563251
23.522123
23.481
23.439881
23.398767
23.357656
23.31655
23.275447
23.234348
23.193253
23.152164
23.111081
23.070005
23.028937
22.987875
22.94682
22.90577
22.864725
22.823686
22.782651
22.741622
22.700597
22.659578
22.618563
22.577556
22.536556
22.495563
22.454577
22.413598
22.372625
22.33166
22.290704
22.249756
22.208815
22.167881
22.126953
22.086031
22.045118
22.004215
21.963322
21.922436
21.881556
21.84068
21.79981
21.758951
21.718103
21.677268
21.636441
21.595621
21.554804
21.513993
21.473191
21.432399
21.391618
21.350849
21.310089
21.269337
21.228593
21.187857
21.14713
21.106411
21.0657
21.024998
20.98431
20.943635
20.902975
20.862326
20.821683
20.781043
20.740406
20.699775
20.659154
20.618549
20.57796
20.537386
20.496825
20.456276
20.415738
20.375209
20.334692
20.294185
20.253691
20.213208
20.172739
20.132281
20.091834
20.051395
20.010962
19.970535
19.930116
19.889706
19.84931
19.80893
19.768568
19.728222
19.687889
19.647566
19.607252
19.566948
19.526654
19.486372
19.446102
19.405843
19.365594
19.325352
19.285116
19.244889
19.204673
19.16447
19.124282
19.084108
19.043949
19.0038
18.963661
18.923531
18.883411
18.843303
18.803208
18.763126
18.723057
18.682998
18.642949
18.602908
18.562875
18.522853
18.482842
18.442845
18.402859
18.362885
18.322921
18.282965
18.243017
18.203078
18.16315
18.123234
18.08333
18.043437
18.003555
17.963681
17.923814
17.883956
17.844106
17.804268
17.76444
17.724625
17.68482
17.645023
17.605234
17.565451
17.525677
17.485911
17.446156
17.406412
17.366679
17.326955
17.287238
17.247526
17.207821
17.168124
17.128436
17.088758
17.049091
17.009434
16.969784
16.930138
16.890497
16.850863
16.811236
16.771619
16.732012
16.692416
16.652827
16.613242
16.57366
16.534082
16.494511
16.454949
16.415396
16.375854
16.33632
16.29679
16.257262
16.217736
16.178214
16.138701
16.099197
16.059702
16.020216
15.980736
15.941257
15.901776
15.862298
15.822827
15.783365
15.743912
15.704468
15.66503
15.625595
15.586155
15.546714
15.507278
15.467851
15.428435
15.389027
15.349625
15.310227
15.270825
15.231414
15.192008
15.15261
15.113222
15.073844
15.034473
14.995104
14.955733
14.916349
14.876966
14.83759
14.798225
14.75887
14.719523
14.680179
14.640832
14.601474
14.562105
14.522744
14.483394
14.444057
14.404729
14.365405
14.326076
14.286736
14.247377
14.208025
14.168684
14.129358
14.090044
14.050734
14.011416
13.972089
13.932738
13.893388
13.85405
13.814727
13.775419
13.736117
13.696806
13.657482
13.61814
13.578788
13.539447
13.500119
13.460806
13.4215
13.382194
13.342873
13.303537
13.264174
13.224821
13.185482
13.146162
13.106855
13.067547
13.028206
12.988852
12.949482
12.910122
12.870775
12.831441
12.792112
12.75277
12.713419
12.67406
12.634676
12.595295
12.555922
12.516561
12.47721
12.437859
12.39848
12.359089
12.319675
12.280265
12.240864
12.201478
12.1621
12.122717
12.083308
12.043894
12.004459
11.965016
11.925572
11.886127
11.84669
11.807256
11.767817
11.728366
11.688896
11.649413
11.609923
11.570439
11.530963
11.491489
11.451989
11.412467
11.372931
11.333386
11.293848
11.254321
11.214798
11.175257
11.135687
11.096106
11.056509
11.016907
10.977308
10.937711
10.898114
10.858503
10.818882
10.779244
10.739584
10.699913
10.660233
10.620556
10.580883
10.541204
10.501495
10.461759
10.422008
10.382248
10.342494
10.302747
10.263002
10.223225
10.18341
10.143583
10.103741
10.063899
10.024062
9.9842275
9.9443799
9.904505
9.864616
9.8247081
9.7847781
9.7448424
9.7048939
9.6649455
9.6249981
9.5850363
9.5450414
9.5050172
9.4649773
9.4249275
9.3848814
9.3448389
9.3047935
9.2647073
9.2245805
9.1844403
9.1442884
9.1041397
9.0639945
9.023851
8.9836848
8.9434796
8.90326
8.8630206
8.8227618
8.7825007
8.7422234
8.7019467
8.661662
8.6213587
8.5810189
8.5406509
8.5002684
8.4598777
8.4194873
8.3790976
8.3386943
8.2982471
8.2577685
8.2172813
8.1767794
8.1362774
8.0957711
8.0552586
8.014728
7.9741762
7.9336011
7.892991
7.8523634
7.8117291
7.7710886
7.7304478
7.6897973
7.6491132
7.6083957
7.5676648
7.5269106
7.4861484
7.4453791
7.4046072
7.3638343
7.3230544
7.2822397
7.24138
7.2005042
7.1596134
7.1187163
7.0778136
7.0369026
6.9959734
6.9550244
6.9140678
6.8731005
6.8321166
6.7910961
6.7500465
6.7089878
6.6679204
6.626851
6.5857784
6.5446996
6.5036041
6.4624861
6.4213534
6.3801951
6.3390152
6.2978224
6.2566114
6.2153935
6.1741657
6.1329298
6.0916768
6.050398
6.0091033
5.9678018
5.9264965
5.8851892
5.8438772
5.8025446
5.7611788
5.7198025
5.678412
5.6370118
5.5956023
5.5541845
5.5127579
5.4713143
5.4298454
5.3883672
5.346884
5.3053976
5.2639058
5.2223914
5.1808451
5.1392944
5.0977388
5.0561859
5.0146364
4.9730878
4.9315249
4.8899125
4.8482731
4.8066311
4.7649923
4.7233615
4.6817354
4.6401074
4.5984514
4.5567571
4.515046
4.4733314
4.4316209
4.3899158
4.3482123
4.3065039
4.2647809
4.2230446
4.1812812
4.1395044
4.0977283
4.0559512
4.0141708
3.9723829
3.9305931
3.8888015
3.8469896
3.8051374
3.7632924
3.7214575
3.6796315
3.6378044
3.5959462
3.5540827
3.5122208
3.4703588
3.4284926
3.3866173
3.3447395
3.3028558
3.2609632
3.2190677
3.1771705
3.1352627
3.0933274
3.0513923
3.0094596
2.9675328
2.9256096
2.8836863
2.8417524
2.7997995
2.7578421
2.7158821
2.6739213
2.6319598
2.589997
2.5480302
2.5060495
2.4640621
2.4220785
2.3801006
2.3381252
2.2961418
2.2541481
2.2121572
2.1701624
2.1281519
2.0861428
2.0441337
2.0021241
1.9601159
1.9181103
1.8761045
1.8340824
1.7920546
1.7500291
1.7080012
1.6659749
1.6239545
1.581938
1.5399109
1.49786
1.4558179
1.413786
1.3717633
1.3297362
1.287681
1.2456379
1.2035972
1.1615559
1.1195211
1.0774851
1.0354222
0.99338023
0.95134918
0.90929068
0.86724442
0.82520071
0.78313442
0.74108125
0.69904093
0.65698271
0.61492613
0.5728699
0.53082162
0.48878023
0.44669382
0.40463384
0.36257653
0.32051015
0.2784536
0.23639118
0.19434927
0.1522777
0.11021881
0.068180708
0.026089341
0.016055776
0.058201076
0.10029415
0.14237751
0.18445562
0.22653184
0.2686075
0.31068292
0.35275807
0.39483296
0.4369076
0.47898202
0.52105628
0.56313041
0.60520444
0.6472784
0.68935231
0.7314262
0.77350011
0.81557409
0.8576482
0.89972253
0.94179715
0.98387209
1.0259473
1.0680228
1.1100983
1.1521739
1.1942492
1.2363244
1.2783994
1.3204742
1.362549
1.4046239
1.446699
1.4887743
1.5308499
1.5729259
1.6150022
1.6570788
1.6991558
1.7412332
1.7833109
1.8253889
1.8674672
1.909546
1.9516251
1.9937047
2.0357848
2.0778653
2.1199462
2.1620274
2.2041089
2.2461906
2.2882725
2.3303547
2.3724371
2.4145198
2.4566027
2.4986858
2.5407693
2.5828532
2.6249374
2.6670221
2.7091072
2.7511929
2.793279
2.8353657
2.8774528
2.9195404
2.9616286
3.0037172
3.0458063
3.0878959
3.1299861
3.1720767
3.2141677
3.2562592
3.2983511
3.3404434
3.3825361
3.4246293
3.4667228
3.5088168
3.5509111
3.5930057
3.6351008
3.6771964
3.7192923
3.7613887
3.8034855
3.8455827
3.8876803
3.9297784
3.971877
4.013976
4.0560755
4.0981754
4.1402757
4.1823763
4.2244773
4.2665788
4.3086806
4.3507827
4.392885
4.4349876
4.4770905
4.5191935
4.5612968
4.6034004
4.6455042
4.6876082
4.7297124
4.7718167
4.8139212
4.856026
4.898131
4.9402363
4.9823418
5.0244475
5.0665533
5.1086594
5.1507656
5.1928721
5.2349788
5.2770856
5.3191926
5.3612997
5.4034068
5.445514
5.4876214
5.5297288
5.5718364
5.6139439
5.6560515
5.6981591
5.7402667
5.7823744
5.8244821
5.8665898
5.9086976
5.9508054
5.9929132
6.0350211
6.0771289
6.1192368
6.1613446
6.2034526
6.2455605
6.2876684
6.3297763
6.3718842
6.413992
6.4560999
6.4982077
6.5403154
6.5824231
6.6245308
6.6666384
6.7087459
6.7508534
6.7929608
6.8350682
6.8771754
6.9192827
6.9613899
7.003497
7.0456042
7.0877112
7.1298182
7.1719252
7.2140321
7.256139
7.2982459
7.3403528
7.3824596
7.4245664
7.4666732
7.5087799
7.5508866
7.5929933
7.6350999
7.6772066
7.7193132
7.7614197
7.8035263
7.8456329
7.8877395
7.9298461
7.9719528
8.0140595
8.0561662
8.0982729
8.1403798
8.1824867
8.2245937
8.2667008
8.308808
8.3509153
8.3930228
8.4351303
8.4772381
8.519346
8.561454
8.6035623
8.6456707
8.6877792
8.729888
8.7719971
8.8141064
8.8562159
8.8983257
8.9404358
8.9825462
9.0246569
9.0667679
9.1088793
9.150991
9.1931032
9.2352157
9.2773286
9.3194419
9.3615557
9.40367
9.4457847
9.4878999
9.5300156
9.5721318
9.6142485
9.6563658
9.6984837
9.7406021
9.7827211
9.8248408
9.866961
9.9090818
9.9512033
9.9933255
10.035448
10.077572
10.119696
10.161821
10.203947
10.246073
10.288201
10.330329
10.372458
10.414587
10.456718
10.498849
10.540981
10.583114
10.625248
10.667383
10.709518
10.751655
10.793792
10.835931
10.87807
10.92021
10.962351
11.004493
11.046636
11.088779
11.130924
11.17307
11.215216
11.257364
11.299512
11.341662
11.383812
11.425964
11.468116
11.510269
11.552423
11.594578
11.636734
11.678891
11.721049
11.763208
11.805368
11.847529
11.88969
11.931853
11.974017
12.016181
12.058347
12.100513
12.14268
12.184848
12.227018
12.269188
12.311358
12.35353
12.395703
12.437876
12.48005
12.522225
12.564401
12.606577
12.648754
12.690931
12.733109
12.775288
12.817468
12.859649
12.90183
12.944014
12.986198
13.028384
13.070571
13.112758
13.154946
13.197134
13.239322
13.28151
13.323697
13.365884
13.408073
13.450264
13.492456
13.53465
13.576845
13.619039
13.661232
13.703424
13.745616
13.78781
13.830008
13.872211
13.914417
13.956625
13.99883
14.041029
14.083229
14.125428
14.167628
14.209828
14.252029
14.294232
14.336437
14.378642
14.420849
14.463051
14.505253
14.547455
14.589658
14.631861
14.674065
14.716268
14.75847
14.800674
14.842879
14.885086
14.927293
14.969498
15.011701
15.053904
15.096108
15.138313
15.180519
15.222726
15.264932
15.307137
15.349341
15.391546
15.433751
15.475957
15.518163
15.560369
15.602574
15.644779
15.686984
15.72919
15.771395
15.813601
15.855807
15.898012
15.940218
15.982423
16.024629
16.066835
16.109041
16.151247
16.193453
16.235659
16.277865
16.320071
16.362278
16.404484
16.446691
16.488898
16.531105
16.573312
16.615519
16.657727
16.699934
16.742142
16.78435
16.826559
16.868767
16.910976
16.953186
16.995395
17.037605
17.079815
17.122026
17.164237
17.206448
17.24866
17.290872
17.333084
17.375297
17.417511
17.459725
17.501939
17.544154
17.58637
17.628586
17.670802
17.713019
17.755237
17.797455
17.839673
17.881892
17.924112
17.966332
18.008552
18.050772
18.092993
18.135214
18.177434
18.219653
18.261873
18.304091
18.346308
18.388523
18.430737
18.472949
18.515161
18.557371
18.599581
18.641793
18.684009
18.726229
18.768457
18.810694
18.852942
18.895202
18.937475
18.979759
19.022054
19.064354
19.106655
19.148955
19.191242
19.23351
19.275757
19.317977
19.360178
19.402362
19.444549
19.486746
19.528963
19.571206
19.613476
19.655769
19.698076
19.740385
19.782694
19.824966
19.867213
19.909424
19.951621
19.993825
20.036049
20.078301
20.120582
20.162883
20.205194
20.247501
20.289779
20.332028
20.374241
20.416456
20.458686
20.50094
20.54322
20.585519
20.627827
20.670122
20.712398
20.754631
20.796858
20.839094
20.88135
20.923629
20.965925
21.008224
21.050519
21.092783
21.135019
21.177259
21.219513
21.261787
21.304075
21.346367
21.388661
21.430923
21.473168
21.515419
21.55768
21.599954
21.642235
21.684518
21.72679
21.769037
21.811283
21.853532
21.895786
21.938041
21.980293
22.022529
22.064746
22.106953
22.149155
22.191356
22.233547
22.275725
22.317884
22.360032
22.402172
22.44431
22.486443
22.528568
22.570685
22.6128
22.654915
22.697032
22.739152
22.781276
22.823404
22.865538
22.90768
22.949831
22.99199
23.034156
23.07633
23.118508
23.160691
23.202877
23.245066
23.287256
23.329448
23.371644
23.413842
23.456045
23.498252
23.540464
23.582681
23.624902
23.667127
23.709355
23.751586
23.793819
23.836053
23.878288
23.920525
23.962762
24.005001
24.04724
24.08948
24.13172
24.173961
24.216201
24.258441
24.30068
24.342919
24.385158
24.427396
24.469634
24.511872
24.55411
24.596347
24.638583
24.68082
24.723056
24.765292
24.807527
24.849763
24.891998
24.934233
24.976467
25.018701
25.060935
25.103169
25.145403
25.187637
25.22987
25.272104
25.314337
25.356571
25.398804
25.441037
25.48327
25.525502
25.567734
25.609965
25.652195
25.694426
25.736656
25.778886
25.821117
25.863348
25.905579
25.94781
25.990041
26.032272
26.074502
26.11673
26.158958
26.201185
26.243412
26.285639
26.327867
26.370096
26.412326
26.454556
26.496786
26.539016
26.581244
26.623472
26.665699
26.707926
26.750153
26.792381
26.83461
26.876841
26.919072
26.961302
27.003532
27.045759
27.087985
27.130211
27.172436
27.214662
27.256891
27.299123
27.341357
27.383592
27.425826
27.468056
27.510282
27.552505
27.594725
27.636945
27.679168
27.721397
27.763633
27.805874
27.848117
27.890358
27.932592
27.974817
28.017032
28.05924
28.101448
28.14366
28.185882
28.228116
28.270362
28.312614
28.354862
28.397097
28.439315
28.481514
28.523699
28.565883
28.608078
28.650293
28.692534
28.734797
28.777068
28.819329
28.861563
28.903758
28.945914
28.988046
29.030176
29.072333
29.114541
29.156807
29.199117
29.241441
29.283748
29.326013
29.368213
29.410329
29.452377
29.494482
29.53692
29.58021
29.626165
29.667221
29.705484
29.747464
29.791174
29.833758
29.876492
29.919539
29.962518
30.005352
30.04817
30.090963
30.133715
30.176449
30.219173
30.261884
30.304576
30.347237
30.389857
30.43243
30.474953
30.517432
30.559873
30.602286
30.64468
30.68706
30.72943
30.771791
30.814141
30.85648
30.898804
30.941115
30.983414
31.025702
31.067985
31.110263
31.15254
31.194817
31.237094
31.279371
31.321646
31.363918
31.406188
31.448455
31.490719
31.532982
31.575245
31.617508
31.65977
31.702028
31.744284
31.786556
31.82883
31.871088
31.913348
31.955609
31.997868
32.040127
32.082387
32.124646
32.166904
32.209163
32.251422
32.29368
32.335937
32.378195
32.420452
32.462708
32.504964
32.54722
32.589475
32.631731
32.673986
32.71624
32.758495
32.800749
32.843003
32.885257
32.92751
32.969763
33.012016
33.054269
33.096522
33.138774
33.181026
33.223278
33.26553
33.307781
33.350033
33.392284
33.434535
33.476786
33.519037
33.561288
33.603538
33.645789
33.688039
33.73029
33.77254
33.81479
33.857041
33.899291
33.941541
33.983791
34.026041
34.068291
34.110542
34.152792
34.195042
34.237292
34.279543
34.321793
34.364043
34.406294
34.448545
34.490795
34.533046
34.575297
34.617548
34.6598
34.702051
34.744303
34.786555
34.828807
34.871059
34.913311
34.955564
34.997817
35.04007
35.082324
35.124577
35.166831
35.209086
35.251341