/*--------------------------------*- C++ -*----------------------------------*\
  =========                 |
  \\      /  F ield         | OpenFOAM: The Open Source CFD Toolbox
   \\    /   O peration     | Website:  https://openfoam.org
    \\  /    A nd           | Version:  7
     \\/     M anipulation  |
\*---------------------------------------------------------------------------*/
FoamFile
{
    version     2.0;
    format      ascii;
    class       volScalarField;
    location    "0.00268";
    object      rho;
}
// * * * * * * * * * * * * * * * * * * * * * * * * * * * * * * * * * * * * * //

dimensions      [1 -3 0 0 0 0 0];

internalField   nonuniform List<scalar> 
5000
(
0.96846915
0.96853176
0.9686292
0.96870845
0.96880585
0.96888561
0.96898304
0.96906283
0.96916028
0.96924008
0.96933756
0.96941738
0.96951488
0.96959469
0.96969221
0.96977202
0.96986955
0.96994935
0.97004688
0.97012666
0.97022418
0.97030394
0.97040146
0.9704812
0.97057871
0.97065842
0.97075592
0.97083561
0.9709331
0.97101275
0.97111023
0.97118985
0.97128731
0.9713669
0.97146435
0.97154391
0.97164135
0.97172087
0.97181829
0.97189778
0.97199519
0.97207465
0.97217204
0.97225146
0.97234884
0.97242823
0.97252559
0.97260495
0.97270229
0.97278162
0.97287895
0.97295824
0.97305556
0.97313482
0.97323212
0.97331134
0.97340862
0.97348782
0.97358508
0.97366425
0.9737615
0.97384063
0.97393787
0.97401696
0.97411418
0.97419324
0.97429045
0.97436947
0.97446667
0.97454565
0.97464285
0.97472179
0.97481897
0.97489788
0.97499504
0.97507392
0.97517107
0.97524992
0.97534705
0.97542586
0.97552298
0.97560176
0.97569886
0.97577761
0.9758747
0.97595341
0.97605048
0.97612916
0.97622622
0.97630487
0.97640191
0.97648052
0.97657756
0.97665613
0.97675315
0.9768317
0.9769287
0.97700721
0.9771042
0.97718267
0.97727965
0.97735809
0.97745505
0.97753346
0.97763041
0.97770877
0.97780571
0.97788404
0.97798097
0.97805927
0.97815618
0.97823444
0.97833134
0.97840957
0.97850645
0.97858464
0.97868152
0.97875967
0.97885653
0.97893465
0.9790315
0.97910958
0.97920641
0.97928446
0.97938128
0.9794593
0.9795561
0.97963408
0.97973087
0.97980881
0.97990558
0.97998349
0.98008025
0.98015812
0.98025486
0.98033271
0.98042943
0.98050723
0.98060394
0.98068171
0.9807784
0.98085613
0.98095281
0.9810305
0.98112717
0.98120482
0.98130147
0.98137908
0.98147572
0.98155329
0.98164992
0.98172744
0.98182405
0.98190154
0.98199813
0.98207558
0.98217216
0.98224957
0.98234613
0.9824235
0.98252003
0.98259736
0.98269388
0.98277117
0.98286767
0.98294492
0.9830414
0.9831186
0.98321506
0.98329222
0.98338866
0.98346578
0.98356219
0.98363926
0.98373564
0.98381266
0.98390902
0.98398598
0.98408231
0.98415921
0.98425551
0.98433235
0.98442862
0.98450541
0.98460164
0.98467838
0.98477459
0.98485128
0.98494747
0.98502412
0.98512029
0.9851969
0.98529306
0.98536963
0.98546579
0.98554233
0.98563847
0.98571497
0.9858111
0.98588757
0.98598368
0.9860601
0.98615619
0.98623257
0.98632863
0.98640495
0.98650098
0.98657724
0.98667324
0.98674944
0.98684539
0.98692152
0.98701743
0.98709349
0.98718936
0.98726534
0.98736116
0.98743706
0.98753283
0.98760865
0.98770436
0.9877801
0.98787576
0.98795141
0.98804701
0.98812258
0.98821811
0.98829359
0.98838905
0.98846444
0.98855983
0.98863512
0.98873045
0.98880564
0.98890089
0.98897598
0.98907115
0.98914613
0.98924122
0.98931609
0.9894111
0.98948585
0.98958078
0.98965541
0.98975025
0.98982476
0.9899195
0.98999389
0.99008853
0.99016278
0.99025732
0.99033145
0.99042587
0.99049986
0.99059418
0.99066803
0.99076222
0.99083593
0.99093
0.99100355
0.9910975
0.9911709
0.99126472
0.99133795
0.99143164
0.9915047
0.99159825
0.99167114
0.99176455
0.99183726
0.99193052
0.99200304
0.99209615
0.99216849
0.99226143
0.99233358
0.99242635
0.9924983
0.9925909
0.99266264
0.99275507
0.99282659
0.99291884
0.99299014
0.9930822
0.99315329
0.99324513
0.99331601
0.99340763
0.99347828
0.99356972
0.99364007
0.99373135
0.99380141
0.99389249
0.9939623
0.99405311
0.99412274
0.99421321
0.99428267
0.99437283
0.99444206
0.99453197
0.9946008
0.99469063
0.99475913
0.99484864
0.99491688
0.99500608
0.9950741
0.99516294
0.99523065
0.99531921
0.9953868
0.99547447
0.99554273
0.99562887
0.99569821
0.99578252
0.99585311
0.9959355
0.99600734
0.99608787
0.99616083
0.99623969
0.99631352
0.99639096
0.99646538
0.99654168
0.99661643
0.99669183
0.99676667
0.99684135
0.99691612
0.99699023
0.9970648
0.99713842
0.9972127
0.9972859
0.99735985
0.99743264
0.99750623
0.99757862
0.99765183
0.99772384
0.99779665
0.99786826
0.99794067
0.99801189
0.99808388
0.99815469
0.99822628
0.99829666
0.99836784
0.99843779
0.99850855
0.99857805
0.9986484
0.99871746
0.99878737
0.998856
0.99892545
0.99899366
0.99906262
0.99913043
0.99919888
0.99926631
0.99933423
0.99940128
0.99946865
0.99953533
0.99960214
0.99966844
0.99973471
0.99980062
0.99986635
0.99993185
0.99999704
1.0000621
1.0001268
1.0001914
1.0002556
1.0003198
1.0003835
1.0004472
1.0005103
1.0005736
1.0006363
1.0006991
1.0007612
1.0008235
1.0008852
1.000947
1.0010082
1.0010696
1.0011303
1.0011911
1.0012513
1.0013117
1.0013714
1.0014313
1.0014905
1.0015499
1.0016087
1.0016676
1.0017258
1.0017842
1.001842
1.0018999
1.0019572
1.0020146
1.0020714
1.0021284
1.0021847
1.0022412
1.002297
1.002353
1.0024083
1.0024638
1.0025187
1.0025737
1.0026281
1.0026827
1.0027366
1.0027907
1.0028441
1.0028977
1.0029507
1.0030038
1.0030563
1.003109
1.0031611
1.0032133
1.0032649
1.0033166
1.0033677
1.003419
1.0034697
1.0035206
1.0035708
1.0036212
1.003671
1.0037209
1.0037703
1.0038198
1.0038687
1.0039177
1.0039662
1.0040149
1.0040629
1.0041111
1.0041587
1.0042065
1.0042537
1.0043011
1.0043479
1.0043948
1.0044412
1.0044878
1.0045337
1.0045799
1.0046254
1.0046712
1.0047164
1.0047617
1.0048065
1.0048515
1.0048959
1.0049405
1.0049845
1.0050287
1.0050723
1.0051161
1.0051594
1.0052029
1.0052458
1.0052889
1.0053314
1.0053742
1.0054164
1.0054588
1.0055007
1.0055427
1.0055842
1.005626
1.0056672
1.0057086
1.0057494
1.0057906
1.0058311
1.0058719
1.0059121
1.0059526
1.0059925
1.0060327
1.0060723
1.0061122
1.0061515
1.0061911
1.0062302
1.0062695
1.0063082
1.0063473
1.0063857
1.0064245
1.0064627
1.0065012
1.0065392
1.0065774
1.0066151
1.0066531
1.0066905
1.0067282
1.0067653
1.0068028
1.0068397
1.006877
1.0069136
1.0069506
1.0069871
1.0070238
1.00706
1.0070965
1.0071325
1.0071687
1.0072046
1.0072405
1.0072762
1.0073119
1.0073473
1.0073828
1.007418
1.0074533
1.0074884
1.0075234
1.0075583
1.0075931
1.0076278
1.0076624
1.0076969
1.0077313
1.0077656
1.0077998
1.007834
1.007868
1.007902
1.0079358
1.0079696
1.0080033
1.0080369
1.0080704
1.0081039
1.0081372
1.0081705
1.0082037
1.0082368
1.0082699
1.0083028
1.0083357
1.0083685
1.0084013
1.0084339
1.0084665
1.008499
1.0085315
1.0085639
1.0085962
1.0086284
1.0086606
1.0086927
1.0087247
1.0087567
1.0087886
1.0088205
1.0088523
1.008884
1.0089156
1.0089473
1.0089788
1.0090103
1.0090417
1.0090731
1.0091044
1.0091357
1.0091669
1.009198
1.0092291
1.0092601
1.0092911
1.0093221
1.009353
1.0093838
1.0094146
1.0094453
1.009476
1.0095066
1.0095372
1.0095678
1.0095983
1.0096287
1.0096591
1.0096895
1.0097198
1.0097501
1.0097803
1.0098105
1.0098407
1.0098708
1.0099008
1.0099309
1.0099608
1.0099908
1.0100207
1.0100505
1.0100804
1.0101101
1.0101399
1.0101696
1.0101993
1.0102289
1.0102585
1.0102881
1.0103176
1.0103471
1.0103766
1.010406
1.0104354
1.0104648
1.0104941
1.0105234
1.0105526
1.0105819
1.0106111
1.0106403
1.0106694
1.0106985
1.0107276
1.0107567
1.0107857
1.0108147
1.0108437
1.0108727
1.0109016
1.0109305
1.0109594
1.0109882
1.011017
1.0110458
1.0110746
1.0111034
1.0111321
1.0111608
1.0111895
1.0112182
1.0112468
1.0112754
1.011304
1.0113326
1.0113611
1.0113896
1.0114181
1.0114466
1.0114751
1.0115035
1.0115319
1.0115603
1.0115886
1.011617
1.0116453
1.0116736
1.0117019
1.0117301
1.0117583
1.0117865
1.0118147
1.0118429
1.011871
1.0118991
1.0119272
1.0119553
1.0119833
1.0120114
1.0120394
1.0120673
1.0120953
1.0121232
1.0121511
1.012179
1.0122069
1.0122347
1.0122626
1.0122904
1.0123181
1.0123459
1.0123736
1.0124013
1.012429
1.0124567
1.0124843
1.012512
1.0125396
1.0125671
1.0125947
1.0126222
1.0126497
1.0126772
1.0127047
1.0127322
1.0127596
1.012787
1.0128144
1.0128417
1.0128691
1.0128964
1.0129237
1.012951
1.0129782
1.0130055
1.0130327
1.0130599
1.0130871
1.0131142
1.0131414
1.0131685
1.0131956
1.0132226
1.0132497
1.0132767
1.0133037
1.0133307
1.0133577
1.0133846
1.0134115
1.0134384
1.0134653
1.0134922
1.013519
1.0135458
1.0135726
1.0135994
1.0136262
1.0136529
1.0136796
1.0137063
1.013733
1.0137596
1.0137863
1.0138129
1.0138395
1.013866
1.0138926
1.0139191
1.0139456
1.0139721
1.0139986
1.014025
1.0140514
1.0140778
1.0141042
1.0141306
1.0141569
1.0141832
1.0142095
1.0142358
1.0142621
1.0142883
1.0143145
1.0143407
1.0143669
1.014393
1.0144192
1.0144453
1.0144714
1.0144974
1.0145235
1.0145495
1.0145755
1.0146015
1.0146275
1.0146534
1.0146794
1.0147053
1.0147312
1.0147571
1.0147829
1.0148087
1.0148345
1.0148603
1.0148861
1.0149119
1.0149376
1.0149633
1.014989
1.0150147
1.0150404
1.015066
1.0150916
1.0151172
1.0151428
1.0151684
1.015194
1.0152195
1.015245
1.0152705
1.015296
1.0153215
1.0153469
1.0153723
1.0153977
1.0154231
1.0154485
1.0154739
1.0154992
1.0155245
1.0155498
1.0155751
1.0156004
1.0156257
1.0156509
1.0156761
1.0157013
1.0157265
1.0157516
1.0157768
1.0158019
1.015827
1.0158521
1.0158771
1.0159022
1.0159272
1.0159522
1.0159772
1.0160022
1.0160271
1.016052
1.0160769
1.0161018
1.0161267
1.0161515
1.0161764
1.0162012
1.016226
1.0162507
1.0162755
1.0163002
1.0163249
1.0163496
1.0163742
1.0163989
1.0164235
1.0164481
1.0164727
1.0164973
1.0165218
1.0165463
1.0165708
1.0165952
1.0166197
1.0166441
1.0166686
1.016693
1.0167173
1.0167417
1.016766
1.0167903
1.0168146
1.0168389
1.0168631
1.0168873
1.0169115
1.0169357
1.0169599
1.016984
1.0170081
1.0170322
1.0170563
1.0170803
1.0171044
1.0171284
1.0171524
1.0171764
1.0172003
1.0172243
1.0172482
1.0172721
1.017296
1.0173198
1.0173437
1.0173675
1.0173913
1.017415
1.0174388
1.0174625
1.0174862
1.0175099
1.0175335
1.0175572
1.0175808
1.0176044
1.0176279
1.0176515
1.017675
1.0176985
1.017722
1.0177455
1.0177689
1.0177923
1.0178157
1.0178391
1.0178625
1.0178858
1.0179091
1.0179324
1.0179557
1.0179789
1.0180022
1.0180254
1.0180485
1.0180717
1.0180949
1.018118
1.0181411
1.0181642
1.0181873
1.0182103
1.0182333
1.0182563
1.0182793
1.0183023
1.0183252
1.0183481
1.018371
1.0183939
1.0184168
1.0184396
1.0184624
1.0184852
1.0185079
1.0185307
1.0185534
1.0185761
1.0185988
1.0186215
1.0186441
1.0186668
1.0186894
1.018712
1.0187345
1.0187571
1.0187796
1.0188021
1.0188246
1.0188471
1.0188696
1.018892
1.0189144
1.0189368
1.0189592
1.0189815
1.0190039
1.0190262
1.0190485
1.0190708
1.0190931
1.0191153
1.0191376
1.0191598
1.019182
1.0192041
1.0192263
1.0192484
1.0192706
1.0192927
1.0193147
1.0193368
1.0193588
1.0193809
1.0194029
1.0194249
1.0194469
1.0194688
1.0194908
1.0195127
1.0195346
1.0195565
1.0195783
1.0196002
1.019622
1.0196438
1.0196656
1.0196874
1.0197091
1.0197309
1.0197526
1.0197743
1.0197959
1.0198176
1.0198392
1.0198608
1.0198824
1.019904
1.0199256
1.0199471
1.0199686
1.0199901
1.0200116
1.020033
1.0200545
1.0200759
1.0200973
1.0201187
1.02014
1.0201614
1.0201827
1.020204
1.0202252
1.0202465
1.0202677
1.0202889
1.0203101
1.0203313
1.0203525
1.0203736
1.0203947
1.0204158
1.0204369
1.0204579
1.020479
1.0205
1.020521
1.0205419
1.0205629
1.0205838
1.0206047
1.0206256
1.0206465
1.0206673
1.0206882
1.020709
1.0207298
1.0207505
1.0207713
1.020792
1.0208127
1.0208334
1.020854
1.0208747
1.0208953
1.0209159
1.0209365
1.0209571
1.0209776
1.0209981
1.0210186
1.0210391
1.0210596
1.02108
1.0211004
1.0211208
1.0211412
1.0211615
1.0211819
1.0212022
1.0212225
1.0212428
1.0212631
1.0212833
1.0213035
1.0213237
1.0213439
1.021364
1.0213841
1.0214042
1.0214243
1.0214444
1.0214645
1.0214845
1.0215045
1.0215245
1.0215445
1.0215644
1.0215844
1.0216043
1.0216242
1.0216441
1.0216639
1.0216838
1.0217036
1.0217234
1.0217431
1.0217629
1.0217826
1.0218023
1.021822
1.0218416
1.0218613
1.0218809
1.0219005
1.0219201
1.0219397
1.0219592
1.0219788
1.0219983
1.0220178
1.0220372
1.0220567
1.0220761
1.0220956
1.022115
1.0221344
1.0221537
1.0221731
1.0221924
1.0222117
1.0222309
1.0222502
1.0222694
1.0222886
1.0223078
1.022327
1.0223462
1.0223654
1.0223845
1.0224036
1.0224227
1.0224418
1.0224609
1.0224799
1.0224989
1.0225179
1.0225369
1.0225559
1.0225748
1.0225938
1.0226127
1.0226316
1.0226505
1.0226694
1.0226883
1.0227071
1.0227259
1.0227447
1.0227635
1.0227823
1.022801
1.0228198
1.0228385
1.0228572
1.0228759
1.0228945
1.0229132
1.0229318
1.0229504
1.022969
1.0229876
1.0230061
1.0230247
1.0230432
1.0230617
1.0230802
1.0230987
1.0231171
1.0231356
1.023154
1.0231724
1.0231908
1.0232091
1.0232275
1.0232458
1.0232641
1.0232824
1.0233007
1.023319
1.0233372
1.0233554
1.0233736
1.0233918
1.02341
1.0234281
1.0234463
1.0234644
1.0234825
1.0235006
1.0235186
1.0235367
1.0235547
1.0235727
1.0235907
1.0236086
1.0236266
1.0236445
1.0236624
1.0236803
1.0236982
1.0237161
1.0237339
1.0237517
1.0237695
1.0237873
1.0238051
1.0238228
1.0238406
1.0238583
1.0238759
1.0238936
1.0239113
1.0239289
1.0239465
1.0239641
1.0239817
1.0239993
1.0240168
1.0240344
1.0240519
1.0240693
1.0240868
1.0241043
1.0241217
1.0241391
1.0241565
1.0241739
1.0241912
1.0242086
1.0242259
1.0242432
1.0242605
1.0242778
1.024295
1.0243122
1.0243295
1.0243466
1.0243638
1.024381
1.0243981
1.0244152
1.0244324
1.0244494
1.0244665
1.0244836
1.0245006
1.0245176
1.0245346
1.0245516
1.0245685
1.0245855
1.0246024
1.0246193
1.0246362
1.0246531
1.0246699
1.0246867
1.0247035
1.0247203
1.0247371
1.0247539
1.0247706
1.0247873
1.024804
1.0248207
1.0248374
1.024854
1.0248707
1.0248873
1.0249039
1.0249205
1.024937
1.0249536
1.0249701
1.0249866
1.0250031
1.0250196
1.0250361
1.0250525
1.0250689
1.0250853
1.0251017
1.0251181
1.0251345
1.0251508
1.0251671
1.0251834
1.0251997
1.025216
1.0252322
1.0252485
1.0252647
1.0252809
1.0252971
1.0253133
1.0253294
1.0253456
1.0253617
1.0253778
1.0253939
1.02541
1.025426
1.0254421
1.0254581
1.0254741
1.0254901
1.0255061
1.025522
1.025538
1.0255539
1.0255698
1.0255857
1.0256016
1.0256175
1.0256333
1.0256491
1.025665
1.0256808
1.0256965
1.0257123
1.0257281
1.0257438
1.0257595
1.0257752
1.0257909
1.0258066
1.0258222
1.0258378
1.0258535
1.0258691
1.0258846
1.0259002
1.0259157
1.0259313
1.0259468
1.0259623
1.0259778
1.0259932
1.0260087
1.0260241
1.0260395
1.0260549
1.0260703
1.0260856
1.026101
1.0261163
1.0261316
1.0261469
1.0261622
1.0261774
1.0261926
1.0262079
1.0262231
1.0262382
1.0262534
1.0262685
1.0262837
1.0262988
1.0263139
1.0263289
1.026344
1.026359
1.026374
1.026389
1.026404
1.026419
1.0264339
1.0264489
1.0264638
1.0264787
1.0264935
1.0265084
1.0265232
1.0265381
1.0265529
1.0265676
1.0265824
1.0265972
1.0266119
1.0266266
1.0266413
1.026656
1.0266706
1.0266853
1.0266999
1.0267145
1.0267291
1.0267437
1.0267582
1.0267727
1.0267872
1.0268017
1.0268162
1.0268306
1.0268451
1.0268595
1.0268739
1.0268883
1.0269027
1.026917
1.0269313
1.0269457
1.0269599
1.0269742
1.0269885
1.0270027
1.0270169
1.0270311
1.0270453
1.0270595
1.0270736
1.0270877
1.0271019
1.027116
1.02713
1.0271441
1.0271581
1.0271722
1.0271861
1.0272002
1.0272141
1.0272281
1.027242
1.0272559
1.0272698
1.0272837
1.0272975
1.0273113
1.0273252
1.027339
1.0273527
1.0273665
1.0273802
1.027394
1.0274077
1.0274214
1.0274351
1.0274488
1.0274624
1.027476
1.0274896
1.0275032
1.0275168
1.0275303
1.0275438
1.0275574
1.0275709
1.0275843
1.0275978
1.0276112
1.0276246
1.0276381
1.0276514
1.0276648
1.0276782
1.0276915
1.0277048
1.0277181
1.0277314
1.0277447
1.0277579
1.0277711
1.0277843
1.0277975
1.0278107
1.0278239
1.027837
1.0278501
1.0278632
1.0278763
1.0278894
1.0279024
1.0279155
1.0279285
1.0279415
1.0279544
1.0279674
1.0279803
1.0279933
1.0280062
1.0280191
1.0280319
1.0280448
1.0280576
1.0280704
1.0280832
1.028096
1.0281088
1.0281215
1.0281343
1.028147
1.0281596
1.0281723
1.028185
1.0281976
1.0282102
1.0282228
1.0282353
1.0282479
1.0282604
1.0282729
1.0282854
1.0282979
1.0283103
1.0283228
1.0283352
1.0283476
1.0283599
1.0283723
1.0283846
1.0283969
1.0284091
1.0284214
1.0284336
1.0284458
1.028458
1.0284702
1.0284823
1.0284944
1.0285065
1.0285186
1.0285306
1.0285427
1.0285547
1.0285666
1.0285786
1.0285905
1.0286024
1.0286142
1.0286261
1.0286379
1.0286497
1.0286614
1.0286731
1.0286849
1.0286965
1.0287082
1.0287198
1.0287314
1.028743
1.0287545
1.028766
1.0287775
1.0287889
1.0288003
1.0288117
1.0288231
1.0288344
1.0288457
1.0288569
1.0288682
1.0288794
1.0288905
1.0289016
1.0289127
1.0289238
1.0289348
1.0289458
1.0289568
1.0289677
1.0289786
1.0289895
1.0290003
1.0290111
1.0290218
1.0290325
1.0290432
1.0290538
1.0290644
1.029075
1.0290855
1.029096
1.0291065
1.0291169
1.0291272
1.0291376
1.0291479
1.0291581
1.0291683
1.0291785
1.0291886
1.0291987
1.0292088
1.0292188
1.0292288
1.0292387
1.0292486
1.0292584
1.0292682
1.0292779
1.0292876
1.0292973
1.0293069
1.0293165
1.029326
1.0293355
1.029345
1.0293544
1.0293637
1.029373
1.0293823
1.0293915
1.0294006
1.0294098
1.0294188
1.0294279
1.0294368
1.0294458
1.0294547
1.0294635
1.0294723
1.029481
1.0294897
1.0294983
1.0295069
1.0295155
1.0295239
1.0295324
1.0295408
1.0295491
1.0295574
1.0295656
1.0295738
1.0295819
1.02959
1.0295981
1.029606
1.029614
1.0296218
1.0296297
1.0296374
1.0296451
1.0296528
1.0296604
1.029668
1.0296755
1.029683
1.0296904
1.0296977
1.029705
1.0297123
1.0297195
1.0297266
1.0297337
1.0297407
1.0297477
1.0297546
1.0297615
1.0297683
1.0297751
1.0297818
1.0297884
1.0297951
1.0298016
1.0298081
1.0298146
1.029821
1.0298273
1.0298336
1.0298398
1.029846
1.0298522
1.0298582
1.0298643
1.0298702
1.0298762
1.029882
1.0298878
1.0298936
1.0298993
1.029905
1.0299106
1.0299162
1.0299217
1.0299271
1.0299326
1.0299379
1.0299432
1.0299485
1.0299537
1.0299589
1.029964
1.029969
1.029974
1.029979
1.0299839
1.0299888
1.0299936
1.0299984
1.0300031
1.0300078
1.0300124
1.030017
1.0300215
1.030026
1.0300304
1.0300348
1.0300392
1.0300435
1.0300477
1.0300519
1.0300561
1.0300602
1.0300643
1.0300683
1.0300723
1.0300763
1.0300802
1.030084
1.0300879
1.0300916
1.0300954
1.0300991
1.0301027
1.0301063
1.0301099
1.0301134
1.0301169
1.0301204
1.0301238
1.0301272
1.0301305
1.0301338
1.030137
1.0301402
1.0301434
1.0301466
1.0301497
1.0301527
1.0301558
1.0301588
1.0301617
1.0301646
1.0301675
1.0301704
1.0301732
1.030176
1.0301787
1.0301814
1.0301841
1.0301868
1.0301894
1.030192
1.0301945
1.030197
1.0301995
1.030202
1.0302044
1.0302068
1.0302092
1.0302115
1.0302138
1.0302161
1.0302183
1.0302205
1.0302227
1.0302249
1.030227
1.0302291
1.0302312
1.0302332
1.0302352
1.0302372
1.0302392
1.0302412
1.0302431
1.030245
1.0302468
1.0302487
1.0302505
1.0302523
1.0302541
1.0302558
1.0302575
1.0302592
1.0302609
1.0302625
1.0302642
1.0302658
1.0302674
1.030269
1.0302705
1.030272
1.0302735
1.030275
1.0302765
1.0302779
1.0302794
1.0302808
1.0302822
1.0302836
1.0302849
1.0302863
1.0302876
1.0302889
1.0302902
1.0302915
1.0302927
1.030294
1.0302952
1.0302964
1.0302976
1.0302988
1.0303
1.0303012
1.0303023
1.0303035
1.0303046
1.0303057
1.0303068
1.0303079
1.030309
1.0303101
1.0303111
1.0303122
1.0303132
1.0303143
1.0303153
1.0303163
1.0303173
1.0303183
1.0303193
1.0303203
1.0303213
1.0303223
1.0303233
1.0303243
1.0303252
1.0303262
1.0303272
1.0303281
1.0303291
1.0303301
1.030331
1.030332
1.0303329
1.0303339
1.0303349
1.0303358
1.0303368
1.0303378
1.0303388
1.0303397
1.0303407
1.0303417
1.0303427
1.0303437
1.0303447
1.0303457
1.0303467
1.0303478
1.0303488
1.0303499
1.0303509
1.030352
1.0303531
1.0303541
1.0303552
1.0303564
1.0303575
1.0303586
1.0303598
1.0303609
1.0303621
1.0303633
1.0303645
1.0303658
1.030367
1.0303683
1.0303696
1.0303709
1.0303722
1.0303735
1.0303749
1.0303763
1.0303777
1.0303791
1.0303805
1.030382
1.0303835
1.030385
1.0303865
1.0303881
1.0303897
1.0303913
1.0303929
1.0303946
1.0303963
1.030398
1.0303997
1.0304015
1.0304033
1.0304051
1.030407
1.0304088
1.0304107
1.0304127
1.0304146
1.0304166
1.0304187
1.0304207
1.0304228
1.0304249
1.0304271
1.0304293
1.0304315
1.0304338
1.030436
1.0304384
1.0304407
1.0304431
1.0304455
1.030448
1.0304504
1.0304529
1.0304555
1.0304581
1.0304607
1.0304634
1.030466
1.0304688
1.0304715
1.0304743
1.0304771
1.03048
1.0304829
1.0304858
1.0304888
1.0304918
1.0304948
1.0304979
1.030501
1.0305042
1.0305073
1.0305106
1.0305138
1.0305171
1.0305204
1.0305238
1.0305272
1.0305306
1.0305341
1.0305376
1.0305411
1.0305447
1.0305483
1.0305519
1.0305556
1.0305593
1.030563
1.0305668
1.0305706
1.0305744
1.0305783
1.0305822
1.0305862
1.0305902
1.0305942
1.0305982
1.0306023
1.0306064
1.0306105
1.0306147
1.0306189
1.0306231
1.0306274
1.0306317
1.030636
1.0306404
1.0306448
1.0306492
1.0306536
1.0306581
1.0306626
1.0306671
1.0306717
1.0306763
1.0306809
1.0306855
1.0306902
1.0306949
1.0306996
1.0307043
1.0307091
1.0307139
1.0307187
1.0307236
1.0307284
1.0307333
1.0307382
1.0307432
1.0307481
1.0307531
1.0307581
1.0307631
1.0307681
1.0307732
1.0307783
1.0307833
1.0307885
1.0307936
1.0307987
1.0308039
1.0308091
1.0308143
1.0308195
1.0308247
1.03083
1.0308352
1.0308405
1.0308458
1.0308511
1.0308564
1.0308617
1.0308671
1.0308724
1.0308778
1.0308832
1.0308885
1.0308939
1.0308993
1.0309048
1.0309102
1.0309156
1.030921
1.0309265
1.0309319
1.0309374
1.0309429
1.0309483
1.0309538
1.0309593
1.0309648
1.0309703
1.0309758
1.0309813
1.0309868
1.0309923
1.0309978
1.0310033
1.0310088
1.0310143
1.0310198
1.0310254
1.0310309
1.0310364
1.0310419
1.0310475
1.031053
1.0310585
1.031064
1.0310695
1.0310751
1.0310806
1.0310861
1.0310916
1.0310971
1.0311026
1.0311081
1.0311136
1.0311191
1.0311246
1.0311301
1.0311356
1.0311411
1.0311465
1.031152
1.0311575
1.0311629
1.0311684
1.0311738
1.0311793
1.0311847
1.0311901
1.0311956
1.031201
1.0312064
1.0312118
1.0312172
1.0312226
1.031228
1.0312334
1.0312387
1.0312441
1.0312494
1.0312548
1.0312601
1.0312654
1.0312707
1.031276
1.0312813
1.0312866
1.0312918
1.0312971
1.0313023
1.0313076
1.0313128
1.031318
1.0313233
1.0313285
1.0313337
1.0313389
1.031344
1.0313492
1.0313543
1.0313595
1.0313646
1.0313697
1.0313748
1.0313799
1.031385
1.0313901
1.0313951
1.0314002
1.0314052
1.0314102
1.0314153
1.0314203
1.0314252
1.0314302
1.0314352
1.0314401
1.031445
1.03145
1.0314549
1.0314598
1.0314647
1.0314695
1.0314744
1.0314793
1.0314841
1.031489
1.0314938
1.0314985
1.0315033
1.0315081
1.0315128
1.0315176
1.0315223
1.031527
1.0315317
1.0315364
1.0315411
1.0315457
1.0315504
1.031555
1.0315596
1.0315642
1.0315688
1.0315734
1.031578
1.0315825
1.031587
1.0315915
1.031596
1.0316005
1.031605
1.0316095
1.0316139
1.0316183
1.0316227
1.0316271
1.0316315
1.0316359
1.0316402
1.0316445
1.0316489
1.0316532
1.0316575
1.0316617
1.031666
1.0316702
1.0316745
1.0316787
1.0316829
1.031687
1.0316912
1.0316954
1.0316995
1.0317036
1.0317077
1.0317118
1.0317159
1.0317199
1.031724
1.031728
1.031732
1.031736
1.0317399
1.0317439
1.0317478
1.0317517
1.0317556
1.0317595
1.0317634
1.0317673
1.0317711
1.0317749
1.0317787
1.0317825
1.0317863
1.03179
1.0317938
1.0317975
1.0318012
1.0318049
1.0318086
1.0318122
1.0318159
1.0318195
1.0318231
1.0318267
1.0318302
1.0318338
1.0318373
1.0318408
1.0318444
1.0318478
1.0318513
1.0318548
1.0318582
1.0318616
1.031865
1.0318684
1.0318718
1.0318752
1.0318785
1.0318818
1.0318851
1.0318884
1.0318917
1.0318949
1.0318981
1.0319013
1.0319045
1.0319077
1.0319109
1.031914
1.0319171
1.0319202
1.0319233
1.0319264
1.0319295
1.0319325
1.0319356
1.0319386
1.0319416
1.0319446
1.0319475
1.0319505
1.0319534
1.0319563
1.0319592
1.0319621
1.031965
1.0319678
1.0319706
1.0319734
1.0319762
1.031979
1.0319818
1.0319845
1.0319873
1.03199
1.0319927
1.0319954
1.031998
1.0320007
1.0320033
1.0320059
1.0320085
1.0320111
1.0320137
1.0320163
1.0320188
1.0320214
1.0320239
1.0320264
1.0320289
1.0320313
1.0320338
1.0320362
1.0320386
1.032041
1.0320434
1.0320458
1.0320482
1.0320505
1.0320528
1.0320552
1.0320575
1.0320597
1.032062
1.0320643
1.0320665
1.0320688
1.032071
1.0320732
1.0320754
1.0320775
1.0320797
1.0320818
1.0320839
1.0320861
1.0320882
1.0320902
1.0320923
1.0320944
1.0320964
1.0320984
1.0321004
1.0321024
1.0321044
1.0321064
1.0321083
1.0321103
1.0321122
1.0321141
1.032116
1.0321179
1.0321197
1.0321216
1.0321234
1.0321252
1.0321271
1.0321288
1.0321306
1.0321324
1.0321341
1.0321359
1.0321376
1.0321393
1.032141
1.0321426
1.0321443
1.0321459
1.0321476
1.0321492
1.0321508
1.0321524
1.0321539
1.0321555
1.032157
1.0321585
1.03216
1.0321615
1.032163
1.0321644
1.0321659
1.0321673
1.0321687
1.0321701
1.0321715
1.0321728
1.0321742
1.0321755
1.0321768
1.0321781
1.0321794
1.0321807
1.032182
1.0321832
1.0321844
1.0321856
1.0321868
1.032188
1.0321891
1.0321903
1.0321914
1.0321925
1.0321936
1.0321947
1.0321957
1.0321968
1.0321978
1.0321988
1.0321998
1.0322008
1.0322017
1.0322027
1.0322036
1.0322045
1.0322054
1.0322062
1.0322071
1.0322079
1.0322088
1.0322096
1.0322103
1.0322111
1.0322119
1.0322126
1.0322133
1.0322141
1.0322147
1.0322154
1.0322161
1.0322167
1.0322173
1.0322179
1.0322185
1.0322191
1.0322196
1.0322202
1.0322207
1.0322212
1.0322217
1.0322222
1.0322226
1.0322231
1.0322235
1.0322239
1.0322243
1.0322246
1.032225
1.0322253
1.0322256
1.0322259
1.0322262
1.0322265
1.0322267
1.032227
1.0322272
1.0322274
1.0322276
1.0322277
1.0322279
1.032228
1.0322281
1.0322282
1.0322283
1.0322284
1.0322284
1.0322285
1.0322285
1.0322285
1.0322285
1.0322284
1.0322284
1.0322283
1.0322283
1.0322282
1.032228
1.0322279
1.0322278
1.0322276
1.0322274
1.0322272
1.032227
1.0322268
1.0322266
1.0322263
1.0322261
1.0322258
1.0322255
1.0322251
1.0322248
1.0322245
1.0322241
1.0322237
1.0322233
1.0322229
1.0322225
1.032222
1.0322216
1.0322211
1.0322206
1.0322201
1.0322195
1.032219
1.0322185
1.0322179
1.0322173
1.0322167
1.0322161
1.0322155
1.0322148
1.0322142
1.0322135
1.0322128
1.0322121
1.0322114
1.0322107
1.0322099
1.0322091
1.0322084
1.0322076
1.0322067
1.0322059
1.0322051
1.0322042
1.0322034
1.0322025
1.0322016
1.0322007
1.0321997
1.0321988
1.0321978
1.0321969
1.0321959
1.0321949
1.0321939
1.0321928
1.0321918
1.0321907
1.0321897
1.0321886
1.0321875
1.0321864
1.0321852
1.0321841
1.0321829
1.0321817
1.0321805
1.0321793
1.0321781
1.0321769
1.0321756
1.0321743
1.032173
1.0321717
1.0321704
1.0321691
1.0321677
1.0321664
1.032165
1.0321636
1.0321622
1.0321607
1.0321593
1.0321578
1.0321564
1.0321549
1.0321534
1.0321519
1.0321503
1.0321488
1.0321473
1.0321457
1.0321441
1.0321425
1.0321409
1.0321393
1.0321376
1.032136
1.0321343
1.0321326
1.0321309
1.0321291
1.0321274
1.0321256
1.0321239
1.0321221
1.0321202
1.0321185
1.0321166
1.0321147
1.0321129
1.032111
1.0321091
1.0321072
1.0321052
1.0321033
1.0321013
1.0320993
1.0320973
1.0320953
1.0320933
1.0320913
1.0320892
1.0320871
1.032085
1.0320829
1.0320808
1.0320786
1.0320765
1.0320743
1.0320721
1.0320699
1.0320677
1.0320654
1.0320632
1.0320609
1.0320586
1.0320563
1.032054
1.0320516
1.0320493
1.032047
1.0320446
1.0320422
1.0320398
1.0320374
1.0320349
1.0320325
1.03203
1.0320275
1.032025
1.0320225
1.0320199
1.0320174
1.0320149
1.0320123
1.0320097
1.0320071
1.0320045
1.0320018
1.0319992
1.0319965
1.0319938
1.0319911
1.0319884
1.0319856
1.0319829
1.0319802
1.0319774
1.0319746
1.0319718
1.0319689
1.0319661
1.0319632
1.0319604
1.0319575
1.0319546
1.0319517
1.0319488
1.0319458
1.0319429
1.0319399
1.0319369
1.0319339
1.0319309
1.0319279
1.0319249
1.0319218
1.0319187
1.0319157
1.0319126
1.0319094
1.0319063
1.0319032
1.0319
1.0318968
1.0318936
1.0318904
1.0318872
1.031884
1.0318807
1.0318775
1.0318742
1.0318709
1.0318676
1.0318643
1.031861
1.0318576
1.0318543
1.0318509
1.0318475
1.0318441
1.0318407
1.0318373
1.0318339
1.0318304
1.0318269
1.0318235
1.03182
1.0318165
1.0318129
1.0318094
1.0318058
1.0318022
1.0317986
1.031795
1.0317914
1.0317877
1.031784
1.0317803
1.0317766
1.0317729
1.0317691
1.0317654
1.0317616
1.0317578
1.031754
1.0317502
1.0317463
1.0317424
1.0317386
1.0317347
1.0317308
1.0317268
1.0317229
1.0317189
1.0317149
1.0317109
1.0317069
1.0317028
1.0316987
1.0316946
1.0316906
1.0316864
1.0316823
1.0316781
1.0316739
1.0316697
1.0316655
1.0316613
1.031657
1.0316527
1.0316484
1.0316441
1.0316398
1.0316355
1.0316311
1.0316267
1.0316223
1.031618
1.0316136
1.0316091
1.0316046
1.0316001
1.0315956
1.0315911
1.0315866
1.0315821
1.0315775
1.0315729
1.0315683
1.0315637
1.0315591
1.0315545
1.0315499
1.0315452
1.0315405
1.0315358
1.0315312
1.0315265
1.0315218
1.0315171
1.0315124
1.0315077
1.031503
1.0314984
1.0314937
1.031489
1.0314842
1.0314795
1.0314747
1.03147
1.0314654
1.0314608
1.0314561
1.0314514
1.0314467
1.0314419
1.0314372
1.0314326
1.031428
1.0314233
1.0314186
1.0314138
1.031409
1.0314043
1.0313996
1.0313949
1.0313903
1.0313857
1.031381
1.0313762
1.0313713
1.0313663
1.0313614
1.0313565
1.0313516
1.0313466
1.0313416
1.0313364
1.031331
1.0313255
1.03132
1.0313144
1.0313089
1.0313035
1.0312981
1.0312926
1.031287
1.0312812
1.0312752
1.031269
1.0312628
1.0312567
1.0312506
1.0312447
1.0312389
1.0312331
1.0312273
1.0312215
1.0312155
1.0312094
1.0312031
1.0311967
1.0311904
1.0311841
1.0311779
1.031172
1.0311662
1.0311607
1.0311553
1.03115
1.0311447
1.0311394
1.0311341
1.0311288
1.0311234
1.0311179
1.0311122
1.0311061
1.0310996
1.0310925
1.0310849
1.0310769
1.0310687
1.0310603
1.0310517
1.0310425
1.0310311
1.0310131
1.0309754
1.030881
1.030625
1.0299077
1.0280591
1.0255719
1.0229089
1.0201103
1.0172234
1.014294
1.011365
1.0084761
1.005662
1.0029525
1.000372
0.99793943
0.9956684
0.99356773
0.9916417
0.98989067
0.98831161
0.98689877
0.98564416
0.98453819
0.98357014
0.98272861
0.98200191
0.98137839
0.98084669
0.980396
0.98001617
0.97969785
0.97943252
0.9792125
0.97903097
0.97888192
0.97876011
0.97866101
0.97858069
0.97851583
0.9784636
0.97842165
0.97838798
0.9783609
0.97833903
0.97832125
0.97830661
0.97829435
0.97828384
0.97827453
0.97826596
0.97825771
0.97824981
0.9782432
0.97823911
0.97823532
0.97823132
0.97822714
0.9782228
0.97821831
0.9782137
0.97820898
0.97820416
0.97819925
0.97819426
0.9781892
0.97818407
0.97817888
0.97817365
0.97816837
0.97816305
0.97815771
0.97815235
0.97814698
0.9781416
0.97813623
0.97813086
0.9781255
0.97812016
0.97811483
0.97810953
0.97810424
0.97809898
0.97809373
0.9780885
0.97808328
0.97807808
0.97807288
0.97806768
0.97806248
0.97805727
0.97805205
0.97804681
0.97804155
0.97803627
0.97803096