/*--------------------------------*- C++ -*----------------------------------*\
  =========                 |
  \\      /  F ield         | OpenFOAM: The Open Source CFD Toolbox
   \\    /   O peration     | Website:  https://openfoam.org
    \\  /    A nd           | Version:  7
     \\/     M anipulation  |
\*---------------------------------------------------------------------------*/
FoamFile
{
    version     2.0;
    format      ascii;
    class       volScalarField;
    location    "0.00207";
    object      rho;
}
// * * * * * * * * * * * * * * * * * * * * * * * * * * * * * * * * * * * * * //

dimensions      [1 -3 0 0 0 0 0];

internalField   nonuniform List<scalar> 
5000
(
1.0361836
1.0362477
1.036347
1.0364264
1.0365258
1.0366057
1.0367052
1.0367851
1.0368846
1.0369646
1.0370642
1.0371442
1.0372438
1.0373238
1.0374235
1.0375035
1.0376031
1.0376831
1.0377827
1.0378627
1.0379623
1.0380423
1.0381419
1.0382218
1.0383215
1.0384013
1.038501
1.0385808
1.0386804
1.0387602
1.0388598
1.0389396
1.0390392
1.0391189
1.0392185
1.0392982
1.0393978
1.0394775
1.0395771
1.0396567
1.0397563
1.0398358
1.0399354
1.040015
1.0401145
1.040194
1.0402936
1.0403731
1.0404726
1.040552
1.0406516
1.040731
1.0408305
1.0409099
1.0410094
1.0410887
1.0411882
1.0412675
1.041367
1.0414463
1.0415458
1.041625
1.0417245
1.0418037
1.0419031
1.0419823
1.0420818
1.0421609
1.0422603
1.0423394
1.0424389
1.0425179
1.0426173
1.0426963
1.0427958
1.0428748
1.0429742
1.0430531
1.0431525
1.0432314
1.0433308
1.0434097
1.0435091
1.0435879
1.0436873
1.0437661
1.0438655
1.0439443
1.0440436
1.0441224
1.0442217
1.0443004
1.0443998
1.0444784
1.0445778
1.0446564
1.0447557
1.0448344
1.0449336
1.0450122
1.0451116
1.0451899
1.0452894
1.0453677
1.0454671
1.0455457
1.0456447
1.0457234
1.0458224
1.0459009
1.0460003
1.0460782
1.0461782
1.0462557
1.0463556
1.0464337
1.0465324
1.0466121
1.0467087
1.0467909
1.0468848
1.0469695
1.0470611
1.0471478
1.0472376
1.0473258
1.0474144
1.0475034
1.0475915
1.0476807
1.0477686
1.0478579
1.0479457
1.048035
1.0481229
1.048212
1.0482999
1.048389
1.0484769
1.0485659
1.0486539
1.0487428
1.0488308
1.0489197
1.0490077
1.0490966
1.0491845
1.0492734
1.0493614
1.0494503
1.0495382
1.0496272
1.0497151
1.049804
1.0498919
1.0499809
1.0500688
1.0501577
1.0502457
1.0503345
1.0504225
1.0505114
1.0505993
1.0506882
1.050776
1.0508649
1.0509528
1.0510417
1.0511295
1.0512183
1.0513062
1.0513949
1.0514829
1.0515715
1.0516596
1.051748
1.0518362
1.0519245
1.0520127
1.0521009
1.0521892
1.0522773
1.0523657
1.0524537
1.0525421
1.0526301
1.0527184
1.0528064
1.0528947
1.0529827
1.053071
1.0531589
1.0532472
1.0533351
1.0534234
1.0535113
1.0535995
1.0536874
1.0537756
1.0538635
1.0539517
1.0540395
1.0541277
1.0542155
1.0543037
1.0543914
1.0544796
1.0545673
1.0546555
1.0547432
1.0548313
1.054919
1.0550071
1.0550948
1.0551829
1.0552706
1.0553586
1.0554463
1.0555343
1.0556219
1.05571
1.0557976
1.0558856
1.0559731
1.0560611
1.0561487
1.0562366
1.0563242
1.0564121
1.0564996
1.0565876
1.0566751
1.056763
1.0568504
1.0569383
1.0570258
1.0571136
1.0572011
1.0572889
1.0573763
1.0574641
1.0575516
1.0576393
1.0577267
1.0578145
1.0579019
1.0579896
1.058077
1.0581647
1.058252
1.0583397
1.058427
1.0585147
1.058602
1.0586897
1.0587769
1.0588646
1.0589518
1.0590395
1.0591267
1.0592143
1.0593015
1.0593891
1.0594763
1.0595638
1.059651
1.0597385
1.0598257
1.0599132
1.0600003
1.0600878
1.0601749
1.0602624
1.0603495
1.0604369
1.060524
1.0606114
1.0606985
1.0607859
1.0608729
1.0609603
1.0610473
1.0611346
1.0612216
1.0613089
1.0613959
1.0614832
1.0615701
1.0616574
1.0617443
1.0618316
1.0619185
1.0620058
1.0620927
1.06218
1.0622668
1.0623541
1.0624409
1.0625282
1.062615
1.0627023
1.0627891
1.0628764
1.0629632
1.0630505
1.0631373
1.0632245
1.0633113
1.0633986
1.0634854
1.0635726
1.0636594
1.0637466
1.0638334
1.0639206
1.0640074
1.0640946
1.0641813
1.0642685
1.0643553
1.0644425
1.0645292
1.0646164
1.0647031
1.0647902
1.0648769
1.064964
1.0650507
1.0651378
1.0652245
1.0653116
1.0653982
1.0654853
1.0655719
1.065659
1.0657456
1.0658326
1.0659192
1.0660062
1.0660928
1.0661797
1.0662664
1.0663532
1.0664399
1.0665267
1.0666134
1.0667002
1.0667868
1.0668736
1.0669602
1.0670469
1.0671336
1.0672203
1.0673069
1.0673935
1.0674802
1.0675668
1.0676534
1.06774
1.0678266
1.0679132
1.0679998
1.0680864
1.0681729
1.0682595
1.068346
1.0684325
1.068519
1.0686056
1.0686921
1.0687785
1.068865
1.0689515
1.069038
1.0691244
1.0692109
1.0692973
1.0693837
1.0694701
1.0695565
1.0696429
1.0697293
1.0698157
1.0699021
1.0699884
1.0700748
1.0701611
1.0702475
1.0703338
1.0704201
1.0705064
1.0705927
1.070679
1.0707652
1.0708515
1.0709378
1.071024
1.0711102
1.0711965
1.0712827
1.0713689
1.0714551
1.0715413
1.0716275
1.0717136
1.0717998
1.0718859
1.0719721
1.0720582
1.0721443
1.0722304
1.0723165
1.0724026
1.0724887
1.0725748
1.0726608
1.0727469
1.0728329
1.072919
1.073005
1.073091
1.073177
1.073263
1.073349
1.073435
1.0735209
1.0736069
1.0736929
1.0737788
1.0738647
1.0739507
1.0740366
1.0741225
1.0742084
1.0742943
1.0743802
1.0744661
1.074552
1.0746378
1.0747237
1.0748096
1.0748954
1.0749813
1.0750671
1.075153
1.0752388
1.0753247
1.0754105
1.0754963
1.0755821
1.075668
1.0757538
1.0758396
1.0759254
1.0760112
1.076097
1.0761828
1.0762686
1.0763544
1.0764401
1.0765259
1.0766117
1.0766974
1.0767832
1.076869
1.0769547
1.0770404
1.0771262
1.0772119
1.0772976
1.0773833
1.077469
1.0775547
1.0776404
1.0777261
1.0778117
1.0778974
1.077983
1.0780687
1.0781543
1.07824
1.0783256
1.0784112
1.0784968
1.0785824
1.078668
1.0787536
1.0788391
1.0789247
1.0790102
1.0790958
1.0791813
1.0792668
1.0793524
1.0794379
1.0795234
1.0796089
1.0796943
1.0797798
1.0798653
1.0799507
1.0800362
1.0801216
1.0802071
1.0802925
1.0803779
1.0804633
1.0805487
1.0806341
1.0807195
1.0808049
1.0808902
1.0809756
1.0810609
1.0811463
1.0812316
1.0813169
1.0814022
1.0814875
1.0815728
1.0816581
1.0817434
1.0818287
1.0819139
1.0819992
1.0820844
1.0821697
1.0822549
1.0823401
1.0824253
1.0825105
1.0825957
1.0826809
1.0827661
1.0828512
1.0829364
1.0830216
1.0831067
1.0831918
1.083277
1.0833621
1.0834472
1.0835323
1.0836174
1.0837025
1.0837876
1.0838726
1.0839577
1.0840428
1.0841278
1.0842129
1.0842979
1.0843829
1.0844679
1.0845529
1.0846379
1.0847229
1.0848079
1.0848929
1.0849778
1.0850628
1.0851477
1.0852327
1.0853176
1.0854025
1.0854875
1.0855724
1.0856573
1.0857421
1.085827
1.0859119
1.0859968
1.0860816
1.0861665
1.0862513
1.0863361
1.086421
1.0865058
1.0865906
1.0866754
1.0867602
1.086845
1.0869298
1.0870145
1.0870993
1.087184
1.0872688
1.0873535
1.0874383
1.087523
1.0876077
1.0876924
1.0877771
1.0878618
1.0879465
1.0880312
1.0881159
1.0882006
1.0882852
1.0883699
1.0884546
1.0885392
1.0886239
1.0887085
1.0887932
1.0888778
1.0889624
1.0890471
1.0891317
1.0892163
1.0893009
1.0893855
1.0894701
1.0895547
1.0896393
1.0897239
1.0898085
1.0898931
1.0899776
1.0900622
1.0901467
1.0902313
1.0903158
1.0904004
1.0904849
1.0905694
1.0906539
1.0907384
1.0908229
1.0909074
1.0909919
1.0910763
1.0911608
1.0912452
1.0913297
1.0914141
1.0914985
1.0915829
1.0916673
1.0917516
1.091836
1.0919203
1.0920047
1.092089
1.0921733
1.0922576
1.0923418
1.0924261
1.0925103
1.0925946
1.0926788
1.0927629
1.0928471
1.0929313
1.0930154
1.0930995
1.0931836
1.0932677
1.0933517
1.0934357
1.0935198
1.0936037
1.0936877
1.0937717
1.0938556
1.0939395
1.0940233
1.0941072
1.094191
1.0942748
1.0943586
1.0944423
1.094526
1.0946097
1.0946934
1.094777
1.0948606
1.0949442
1.0950277
1.0951112
1.0951947
1.0952782
1.0953616
1.095445
1.0955283
1.0956116
1.0956949
1.0957782
1.0958614
1.0959446
1.0960277
1.0961108
1.0961939
1.0962769
1.0963599
1.0964428
1.0965257
1.0966086
1.0966914
1.0967742
1.096857
1.0969397
1.0970224
1.097105
1.0971876
1.0972701
1.0973526
1.097435
1.0975174
1.0975998
1.0976821
1.0977644
1.0978466
1.0979287
1.0980109
1.0980929
1.098175
1.0982569
1.0983389
1.0984207
1.0985026
1.0985843
1.0986661
1.0987477
1.0988293
1.0989109
1.0989924
1.0990739
1.0991553
1.0992367
1.099318
1.0993992
1.0994804
1.0995615
1.0996426
1.0997236
1.0998046
1.0998855
1.0999664
1.1000472
1.1001279
1.1002086
1.1002893
1.1003698
1.1004503
1.1005308
1.1006112
1.1006915
1.1007718
1.100852
1.1009322
1.1010123
1.1010924
1.1011723
1.1012523
1.1013321
1.101412
1.1014917
1.1015714
1.101651
1.1017306
1.1018101
1.1018896
1.1019689
1.1020483
1.1021276
1.1022068
1.1022859
1.102365
1.1024441
1.102523
1.102602
1.1026808
1.1027596
1.1028384
1.1029171
1.1029957
1.1030743
1.1031528
1.1032313
1.1033097
1.1033881
1.1034664
1.1035447
1.1036228
1.103701
1.1037791
1.1038571
1.1039351
1.104013
1.1040909
1.1041688
1.1042465
1.1043243
1.104402
1.1044796
1.1045572
1.1046347
1.1047122
1.1047896
1.104867
1.1049444
1.1050217
1.1050989
1.1051761
1.1052533
1.1053304
1.1054075
1.1054845
1.1055615
1.1056385
1.1057154
1.1057922
1.1058691
1.1059458
1.1060226
1.1060993
1.1061759
1.1062526
1.1063291
1.1064057
1.1064822
1.1065587
1.1066351
1.1067115
1.1067879
1.1068642
1.1069405
1.1070168
1.107093
1.1071692
1.1072453
1.1073215
1.1073976
1.1074736
1.1075497
1.1076257
1.1077016
1.1077776
1.1078535
1.1079294
1.1080052
1.1080811
1.1081569
1.1082327
1.1083084
1.1083842
1.1084598
1.1085355
1.1086112
1.1086868
1.1087624
1.108838
1.1089136
1.1089891
1.1090646
1.1091401
1.1092156
1.1092911
1.1093665
1.109442
1.1095174
1.1095928
1.1096681
1.1097435
1.1098188
1.1098941
1.1099694
1.1100447
1.11012
1.1101953
1.1102705
1.1103458
1.110421
1.1104962
1.1105714
1.1106466
1.1107218
1.1107969
1.1108721
1.1109473
1.1110224
1.1110976
1.1111727
1.1112478
1.111323
1.1113981
1.1114732
1.1115483
1.1116234
1.1116985
1.1117736
1.1118486
1.1119237
1.1119988
1.1120739
1.1121489
1.112224
1.1122991
1.1123741
1.1124492
1.1125242
1.1125993
1.1126744
1.1127494
1.1128245
1.1128995
1.1129746
1.1130497
1.1131247
1.1131998
1.1132749
1.11335
1.1134251
1.1135002
1.1135754
1.1136505
1.1137256
1.1138008
1.1138759
1.1139511
1.1140263
1.1141015
1.1141767
1.1142519
1.1143272
1.1144024
1.1144777
1.114553
1.1146284
1.1147037
1.114779
1.1148544
1.1149298
1.1150053
1.1150807
1.1151562
1.1152317
1.1153072
1.1153828
1.1154584
1.115534
1.1156096
1.1156853
1.115761
1.1158368
1.1159126
1.1159884
1.1160643
1.1161402
1.1162161
1.1162921
1.1163681
1.1164442
1.1165203
1.1165964
1.1166726
1.1167488
1.1168251
1.1169014
1.1169778
1.1170542
1.1171307
1.1172072
1.1172838
1.1173604
1.1174371
1.1175138
1.1175906
1.1176675
1.1177443
1.1178213
1.1178983
1.1179754
1.1180525
1.1181296
1.1182069
1.1182841
1.1183615
1.1184389
1.1185164
1.1185939
1.1186715
1.1187492
1.1188269
1.1189047
1.1189825
1.1190604
1.1191384
1.1192164
1.1192945
1.1193727
1.119451
1.1195293
1.1196077
1.1196861
1.1197646
1.1198432
1.1199218
1.1200005
1.1200793
1.1201582
1.1202371
1.1203161
1.1203952
1.1204743
1.1205535
1.1206328
1.1207121
1.1207915
1.120871
1.1209506
1.1210302
1.1211099
1.1211897
1.1212696
1.1213495
1.1214295
1.1215095
1.1215896
1.1216698
1.1217501
1.1218305
1.1219109
1.1219914
1.122072
1.1221526
1.1222333
1.1223141
1.122395
1.1224759
1.1225569
1.122638
1.1227191
1.1228003
1.1228816
1.1229629
1.1230443
1.1231258
1.1232073
1.123289
1.1233707
1.1234524
1.1235342
1.1236161
1.1236981
1.1237801
1.1238622
1.1239444
1.1240266
1.1241088
1.1241912
1.1242736
1.1243561
1.1244386
1.1245212
1.1246039
1.1246866
1.1247693
1.1248522
1.124935
1.125018
1.125101
1.1251841
1.1252672
1.1253503
1.1254335
1.1255168
1.1256001
1.1256835
1.1257669
1.1258504
1.1259339
1.1260175
1.1261011
1.1261848
1.1262685
1.1263522
1.126436
1.1265198
1.1266037
1.1266876
1.1267716
1.1268556
1.1269397
1.1270238
1.1271079
1.127192
1.1272763
1.1273605
1.1274447
1.127529
1.1276134
1.1276977
1.1277821
1.1278665
1.127951
1.1280355
1.12812
1.1282045
1.1282891
1.1283737
1.1284583
1.128543
1.1286276
1.1287124
1.1287971
1.1288819
1.1289666
1.1290514
1.1291362
1.1292211
1.1293059
1.1293908
1.1294757
1.1295606
1.1296455
1.1297305
1.1298155
1.1299005
1.1299855
1.1300705
1.1301555
1.1302405
1.1303256
1.1304106
1.1304957
1.1305808
1.130666
1.1307511
1.1308363
1.1309214
1.1310065
1.1310917
1.1311769
1.131262
1.1313472
1.1314324
1.1315176
1.1316028
1.1316881
1.1317733
1.1318585
1.1319438
1.132029
1.1321143
1.1321995
1.1322848
1.13237
1.1324553
1.1325405
1.1326258
1.132711
1.1327963
1.1328816
1.1329669
1.1330521
1.1331374
1.1332227
1.133308
1.1333933
1.1334785
1.1335638
1.1336491
1.1337344
1.1338197
1.133905
1.1339903
1.1340755
1.1341608
1.1342461
1.1343314
1.1344167
1.134502
1.1345873
1.1346726
1.1347578
1.1348431
1.1349284
1.1350137
1.135099
1.1351842
1.1352695
1.1353548
1.1354401
1.1355253
1.1356106
1.1356959
1.1357811
1.1358664
1.1359517
1.1360369
1.1361222
1.1362074
1.1362927
1.1363779
1.1364631
1.1365484
1.1366336
1.1367189
1.1368041
1.1368894
1.1369746
1.1370598
1.137145
1.1372303
1.1373155
1.1374007
1.1374859
1.1375711
1.1376563
1.1377415
1.1378267
1.1379119
1.1379971
1.1380822
1.1381674
1.1382526
1.1383378
1.1384229
1.1385081
1.1385933
1.1386784
1.1387635
1.1388487
1.1389338
1.139019
1.1391041
1.1391893
1.1392744
1.1393595
1.1394446
1.1395298
1.1396149
1.1397
1.1397851
1.1398702
1.1399552
1.1400403
1.1401254
1.1402105
1.1402956
1.1403807
1.1404658
1.1405509
1.1406359
1.140721
1.140806
1.1408911
1.1409761
1.1410612
1.1411462
1.1412312
1.1413163
1.1414013
1.1414864
1.1415714
1.1416564
1.1417414
1.1418264
1.1419114
1.1419964
1.1420814
1.1421664
1.1422514
1.1423364
1.1424214
1.1425063
1.1425913
1.1426763
1.1427612
1.1428462
1.1429311
1.1430161
1.143101
1.1431859
1.1432709
1.1433558
1.1434407
1.1435256
1.1436105
1.1436954
1.1437803
1.1438652
1.1439501
1.1440349
1.1441198
1.1442047
1.1442895
1.1443744
1.1444592
1.1445441
1.1446289
1.1447137
1.1447985
1.1448833
1.1449681
1.1450529
1.1451377
1.1452225
1.1453073
1.145392
1.1454768
1.1455616
1.1456463
1.1457311
1.1458158
1.1459005
1.1459852
1.1460699
1.1461547
1.1462393
1.146324
1.1464087
1.1464934
1.146578
1.1466627
1.1467473
1.146832
1.1469166
1.1470012
1.1470859
1.1471705
1.1472551
1.1473396
1.1474243
1.1475088
1.1475934
1.1476779
1.1477625
1.147847
1.1479315
1.148016
1.1481005
1.148185
1.1482695
1.1483539
1.1484384
1.1485228
1.1486073
1.1486916
1.1487761
1.1488604
1.1489449
1.1490292
1.1491135
1.1491979
1.1492821
1.1493665
1.1494507
1.149535
1.1496192
1.1497034
1.1497876
1.1498718
1.149956
1.1500401
1.1501242
1.1502083
1.1502924
1.1503764
1.1504604
1.1505444
1.1506284
1.1507123
1.1507962
1.1508801
1.150964
1.1510478
1.1511316
1.1512154
1.1512991
1.1513828
1.1514664
1.1515501
1.1516337
1.1517172
1.1518007
1.1518842
1.1519676
1.1520511
1.1521344
1.1522177
1.152301
1.1523842
1.1524674
1.1525505
1.1526336
1.1527166
1.1527996
1.1528825
1.1529653
1.1530482
1.1531309
1.1532136
1.1532962
1.1533788
1.1534613
1.1535438
1.1536262
1.1537085
1.1537907
1.1538729
1.153955
1.154037
1.154119
1.1542008
1.1542826
1.1543643
1.154446
1.1545275
1.154609
1.1546903
1.1547716
1.1548528
1.1549339
1.1550149
1.1550958
1.1551766
1.1552573
1.1553379
1.1554183
1.1554987
1.155579
1.1556591
1.1557391
1.155819
1.1558988
1.1559785
1.156058
1.1561374
1.1562167
1.1562959
1.1563749
1.1564538
1.1565325
1.1566111
1.1566895
1.1567678
1.156846
1.156924
1.1570018
1.1570795
1.157157
1.1572343
1.1573115
1.1573885
1.1574654
1.1575421
1.1576186
1.1576949
1.157771
1.1578469
1.1579227
1.1579983
1.1580736
1.1581488
1.1582238
1.1582986
1.1583731
1.1584475
1.1585217
1.1585956
1.1586693
1.1587428
1.1588161
1.1588892
1.158962
1.1590346
1.159107
1.1591791
1.159251
1.1593227
1.1593941
1.1594653
1.1595362
1.1596068
1.1596772
1.1597474
1.1598173
1.1598869
1.1599563
1.1600254
1.1600942
1.1601628
1.1602311
1.1602991
1.1603668
1.1604343
1.1605014
1.1605683
1.1606349
1.1607012
1.1607672
1.1608329
1.1608983
1.1609634
1.1610282
1.1610927
1.1611569
1.1612208
1.1612843
1.1613476
1.1614105
1.1614732
1.1615355
1.1615975
1.1616591
1.1617205
1.1617815
1.1618422
1.1619026
1.1619626
1.1620224
1.1620818
1.1621408
1.1621995
1.1622579
1.162316
1.1623737
1.162431
1.1624881
1.1625448
1.1626011
1.1626572
1.1627128
1.1627682
1.1628231
1.1628778
1.1629321
1.1629861
1.1630397
1.163093
1.1631459
1.1631985
1.1632507
1.1633026
1.1633541
1.1634053
1.1634562
1.1635067
1.1635569
1.1636067
1.1636562
1.1637053
1.1637541
1.1638025
1.1638507
1.1638984
1.1639458
1.1639929
1.1640397
1.1640861
1.1641322
1.1641779
1.1642233
1.1642683
1.1643131
1.1643575
1.1644015
1.1644453
1.1644887
1.1645317
1.1645745
1.1646169
1.164659
1.1647008
1.1647422
1.1647834
1.1648242
1.1648647
1.1649049
1.1649448
1.1649843
1.1650236
1.1650625
1.1651011
1.1651395
1.1651775
1.1652152
1.1652526
1.1652898
1.1653266
1.1653631
1.1653994
1.1654353
1.165471
1.1655064
1.1655415
1.1655763
1.1656109
1.1656451
1.1656791
1.1657128
1.1657463
1.1657795
1.1658124
1.1658451
1.1658774
1.1659096
1.1659415
1.1659731
1.1660045
1.1660356
1.1660665
1.1660971
1.1661275
1.1661576
1.1661876
1.1662172
1.1662467
1.1662759
1.1663049
1.1663337
1.1663622
1.1663905
1.1664186
1.1664465
1.1664742
1.1665017
1.1665289
1.1665559
1.1665828
1.1666094
1.1666359
1.1666621
1.1666882
1.166714
1.1667397
1.1667652
1.1667905
1.1668156
1.1668405
1.1668653
1.1668899
1.1669143
1.1669386
1.1669626
1.1669866
1.1670103
1.1670339
1.1670573
1.1670805
1.1671036
1.1671266
1.1671494
1.167172
1.1671945
1.1672169
1.1672391
1.1672611
1.1672831
1.1673049
1.1673266
1.1673481
1.1673695
1.1673908
1.1674119
1.1674329
1.1674538
1.1674746
1.1674952
1.1675157
1.1675362
1.1675565
1.1675766
1.1675967
1.1676167
1.1676365
1.1676563
1.1676759
1.1676955
1.1677149
1.1677342
1.1677535
1.1677726
1.1677917
1.1678106
1.1678295
1.1678483
1.1678669
1.1678855
1.167904
1.1679225
1.1679408
1.1679591
1.1679772
1.1679954
1.1680134
1.1680313
1.1680492
1.168067
1.1680847
1.1681023
1.1681199
1.1681374
1.1681548
1.1681722
1.1681895
1.1682067
1.1682239
1.168241
1.1682581
1.1682751
1.168292
1.1683089
1.1683257
1.1683424
1.1683591
1.1683758
1.1683924
1.1684089
1.1684254
1.1684418
1.1684582
1.1684745
1.1684908
1.1685071
1.1685233
1.1685394
1.1685555
1.1685716
1.1685876
1.1686036
1.1686195
1.1686354
1.1686513
1.1686671
1.1686828
1.1686986
1.1687143
1.1687299
1.1687456
1.1687611
1.1687767
1.1687922
1.1688077
1.1688231
1.1688386
1.1688539
1.1688693
1.1688846
1.1688999
1.1689152
1.1689304
1.1689456
1.1689608
1.1689759
1.168991
1.1690061
1.1690211
1.1690362
1.1690512
1.1690661
1.1690811
1.169096
1.1691109
1.1691258
1.1691406
1.1691555
1.1691703
1.169185
1.1691998
1.1692145
1.1692292
1.1692439
1.1692585
1.1692732
1.1692878
1.1693024
1.1693169
1.1693315
1.169346
1.1693605
1.169375
1.1693894
1.1694038
1.1694183
1.1694327
1.169447
1.1694614
1.1694757
1.16949
1.1695043
1.1695185
1.1695328
1.169547
1.1695612
1.1695754
1.1695895
1.1696036
1.1696178
1.1696318
1.1696459
1.16966
1.169674
1.169688
1.169702
1.169716
1.1697299
1.1697438
1.1697577
1.1697716
1.1697855
1.1697993
1.1698131
1.1698269
1.1698407
1.1698545
1.1698682
1.1698819
1.1698956
1.1699093
1.1699229
1.1699365
1.1699501
1.1699637
1.1699773
1.1699908
1.1700044
1.1700179
1.1700313
1.1700448
1.1700582
1.1700716
1.170085
1.1700984
1.1701117
1.170125
1.1701383
1.1701516
1.1701649
1.1701781
1.1701913
1.1702045
1.1702177
1.1702308
1.170244
1.170257
1.1702701
1.1702832
1.1702962
1.1703092
1.1703222
1.1703352
1.1703481
1.170361
1.1703739
1.1703868
1.1703997
1.1704125
1.1704253
1.1704381
1.1704509
1.1704636
1.1704763
1.170489
1.1705017
1.1705143
1.1705269
1.1705395
1.1705521
1.1705646
1.1705772
1.1705897
1.1706022
1.1706147
1.1706271
1.1706395
1.1706519
1.1706643
1.1706767
1.170689
1.1707013
1.1707136
1.1707258
1.1707381
1.1707503
1.1707625
1.1707747
1.1707868
1.1707989
1.170811
1.1708231
1.1708352
1.1708472
1.1708592
1.1708712
1.1708832
1.1708951
1.1709071
1.170919
1.1709309
1.1709427
1.1709546
1.1709664
1.1709782
1.17099
1.1710017
1.1710134
1.1710251
1.1710368
1.1710485
1.1710601
1.1710718
1.1710834
1.1710949
1.1711065
1.171118
1.1711296
1.1711411
1.1711525
1.171164
1.1711754
1.1711869
1.1711982
1.1712096
1.171221
1.1712323
1.1712436
1.1712549
1.1712662
1.1712774
1.1712887
1.1712999
1.1713111
1.1713222
1.1713334
1.1713445
1.1713557
1.1713667
1.1713778
1.1713889
1.1713999
1.1714109
1.1714219
1.1714329
1.1714438
1.1714548
1.1714657
1.1714766
1.1714874
1.1714983
1.1715091
1.1715199
1.1715307
1.1715415
1.1715522
1.171563
1.1715737
1.1715844
1.171595
1.1716057
1.1716163
1.1716269
1.1716375
1.1716481
1.1716586
1.1716692
1.1716797
1.1716902
1.1717006
1.1717111
1.1717215
1.1717319
1.1717423
1.1717526
1.171763
1.1717733
1.1717836
1.1717939
1.1718042
1.1718144
1.1718246
1.1718348
1.171845
1.1718551
1.1718653
1.1718754
1.1718855
1.1718955
1.1719056
1.1719156
1.1719256
1.1719356
1.1719456
1.1719555
1.1719654
1.1719753
1.1719852
1.171995
1.1720048
1.1720146
1.1720244
1.1720342
1.1720439
1.1720536
1.1720633
1.172073
1.1720826
1.1720923
1.1721018
1.1721114
1.172121
1.1721305
1.17214
1.1721495
1.1721589
1.1721684
1.1721778
1.1721872
1.1721965
1.1722059
1.1722152
1.1722245
1.1722338
1.172243
1.1722523
1.1722615
1.1722706
1.1722798
1.1722889
1.172298
1.1723071
1.1723162
1.1723252
1.1723342
1.1723432
1.1723522
1.1723611
1.1723701
1.1723789
1.1723878
1.1723967
1.1724055
1.1724143
1.172423
1.1724318
1.1724405
1.1724492
1.1724579
1.1724666
1.1724752
1.1724838
1.1724924
1.172501
1.1725095
1.172518
1.1725265
1.172535
1.1725434
1.1725519
1.1725603
1.1725686
1.172577
1.1725853
1.1725936
1.1726019
1.1726102
1.1726184
1.1726267
1.1726348
1.172643
1.1726512
1.1726593
1.1726674
1.1726754
1.1726835
1.1726915
1.1726996
1.1727075
1.1727155
1.1727235
1.1727314
1.1727393
1.1727471
1.1727549
1.172763
1.1727707
1.1727785
1.1727863
1.172794
1.1728017
1.1728094
1.1728171
1.1728248
1.1728324
1.17284
1.1728476
1.1728552
1.1728628
1.1728703
1.1728778
1.1728853
1.1728928
1.1729002
1.1729077
1.1729151
1.1729225
1.1729298
1.1729372
1.1729445
1.1729518
1.1729591
1.1729663
1.1729736
1.1729808
1.172988
1.1729952
1.1730023
1.1730095
1.1730166
1.1730237
1.1730308
1.1730378
1.1730448
1.1730519
1.1730588
1.1730658
1.1730728
1.1730797
1.1730866
1.1730935
1.1731004
1.1731072
1.1731141
1.1731209
1.1731277
1.1731344
1.1731412
1.1731479
1.1731546
1.1731613
1.173168
1.1731746
1.1731813
1.1731879
1.1731944
1.173201
1.1732076
1.1732141
1.1732206
1.1732271
1.1732335
1.17324
1.1732464
1.1732528
1.1732591
1.1732655
1.1732718
1.1732782
1.1732844
1.1732907
1.173297
1.1733032
1.1733094
1.1733156
1.1733218
1.1733279
1.173334
1.1733401
1.1733462
1.1733523
1.1733583
1.1733644
1.1733704
1.1733763
1.1733823
1.1733882
1.1733941
1.1734
1.1734059
1.1734117
1.1734175
1.1734233
1.1734291
1.1734349
1.1734406
1.1734463
1.173452
1.1734577
1.1734633
1.1734689
1.1734745
1.1734801
1.1734856
1.1734912
1.1734967
1.1735022
1.1735076
1.1735131
1.1735185
1.1735239
1.1735292
1.1735346
1.1735399
1.1735452
1.1735505
1.1735558
1.173561
1.1735662
1.1735714
1.1735766
1.1735818
1.1735869
1.173592
1.1735971
1.1736021
1.1736071
1.1736121
1.1736171
1.1736221
1.173627
1.1736319
1.1736368
1.1736417
1.1736465
1.1736513
1.1736561
1.1736609
1.1736657
1.1736704
1.1736751
1.1736798
1.1736845
1.1736891
1.1736938
1.1736984
1.1737029
1.1737075
1.173712
1.1737165
1.173721
1.1737254
1.1737299
1.1737343
1.1737387
1.173743
1.1737474
1.1737517
1.173756
1.1737603
1.1737645
1.1737688
1.173773
1.1737772
1.1737814
1.1737855
1.1737896
1.1737937
1.1737978
1.1738019
1.1738059
1.1738099
1.1738139
1.1738179
1.1738219
1.1738258
1.1738297
1.1738336
1.1738374
1.1738413
1.1738451
1.1738489
1.1738527
1.1738565
1.1738602
1.1738639
1.1738676
1.1738713
1.173875
1.1738786
1.1738823
1.1738859
1.1738894
1.173893
1.1738966
1.1739001
1.1739036
1.1739071
1.1739105
1.173914
1.1739174
1.1739208
1.1739242
1.1739276
1.1739309
1.1739343
1.1739376
1.1739409
1.1739442
1.1739474
1.1739507
1.1739539
1.1739571
1.1739603
1.1739635
1.1739666
1.1739697
1.1739728
1.1739759
1.173979
1.1739821
1.1739851
1.1739882
1.1739912
1.1739942
1.1739971
1.1740001
1.174003
1.1740059
1.1740088
1.1740117
1.1740146
1.1740174
1.1740202
1.1740231
1.1740258
1.1740286
1.1740314
1.1740341
1.1740369
1.1740396
1.1740423
1.1740449
1.1740476
1.1740502
1.1740529
1.1740555
1.1740581
1.1740606
1.1740632
1.1740657
1.1740682
1.1740707
1.1740732
1.1740757
1.1740781
1.1740805
1.1740829
1.1740853
1.1740877
1.1740901
1.1740924
1.1740947
1.174097
1.1740993
1.1741015
1.1741038
1.174106
1.1741082
1.1741104
1.1741126
1.1741147
1.1741169
1.174119
1.1741211
1.1741231
1.1741252
1.1741272
1.1741292
1.1741312
1.1741332
1.1741352
1.1741371
1.1741391
1.174141
1.1741428
1.1741447
1.1741465
1.1741484
1.1741502
1.1741519
1.1741537
1.1741554
1.1741571
1.1741588
1.1741605
1.1741622
1.1741638
1.1741655
1.1741671
1.1741686
1.1741702
1.1741717
1.1741732
1.1741747
1.1741762
1.1741777
1.1741791
1.1741805
1.1741819
1.1741833
1.1741846
1.1741859
1.1741872
1.1741885
1.1741898
1.174191
1.1741922
1.1741934
1.1741946
1.1741957
1.1741969
1.174198
1.1741991
1.1742001
1.1742012
1.1742022
1.1742032
1.1742042
1.1742051
1.174206
1.1742069
1.1742078
1.1742087
1.1742095
1.1742103
1.1742111
1.1742119
1.1742126
1.1742133
1.174214
1.1742147
1.1742154
1.174216
1.1742166
1.1742172
1.1742178
1.1742183
1.1742188
1.1742193
1.1742198
1.1742202
1.1742206
1.174221
1.1742214
1.1742217
1.1742221
1.1742224
1.1742226
1.1742229
1.1742231
1.1742234
1.1742235
1.1742237
1.1742238
1.174224
1.1742241
1.1742241
1.1742242
1.1742242
1.1742242
1.1742242
1.1742241
1.174224
1.1742239
1.1742238
1.1742237
1.1742235
1.1742233
1.1742231
1.1742228
1.1742225
1.1742222
1.1742219
1.1742216
1.1742212
1.1742208
1.1742204
1.1742199
1.1742194
1.1742189
1.1742184
1.1742179
1.1742173
1.1742167
1.1742161
1.1742154
1.1742148
1.1742141
1.1742134
1.1742127
1.1742119
1.1742111
1.1742103
1.1742095
1.1742086
1.1742077
1.1742068
1.1742059
1.1742049
1.174204
1.1742029
1.1742019
1.1742009
1.1741998
1.1741987
1.1741975
1.1741964
1.1741952
1.174194
1.1741927
1.1741915
1.1741902
1.1741889
1.1741875
1.1741862
1.1741848
1.1741834
1.1741819
1.1741805
1.174179
1.1741775
1.174176
1.1741744
1.1741728
1.1741712
1.1741696
1.1741679
1.1741663
1.1741646
1.1741628
1.1741611
1.1741593
1.1741575
1.1741557
1.1741538
1.174152
1.1741501
1.1741482
1.1741462
1.1741442
1.1741422
1.1741402
1.1741382
1.1741361
1.174134
1.1741319
1.1741297
1.1741276
1.1741254
1.1741231
1.1741209
1.1741186
1.1741163
1.1741139
1.1741116
1.1741092
1.1741068
1.1741043
1.1741019
1.1740994
1.1740969
1.1740943
1.1740917
1.1740891
1.1740865
1.1740838
1.1740812
1.1740785
1.1740758
1.174073
1.1740702
1.1740674
1.1740646
1.1740617
1.1740589
1.1740559
1.174053
1.17405
1.174047
1.1740439
1.1740408
1.1740377
1.1740346
1.1740315
1.1740284
1.1740252
1.174022
1.1740188
1.1740156
1.1740123
1.174009
1.1740056
1.1740022
1.1739988
1.1739954
1.173992
1.1739885
1.1739851
1.1739815
1.1739781
1.1739744
1.1739709
1.1739672
1.1739636
1.1739599
1.1739562
1.1739525
1.1739487
1.1739449
1.1739411
1.1739372
1.1739334
1.1739295
1.1739256
1.1739217
1.1739177
1.1739137
1.1739097
1.1739056
1.1739016
1.1738975
1.1738933
1.1738892
1.173885
1.1738808
1.1738766
1.1738722
1.1738679
1.1738636
1.1738592
1.1738548
1.1738504
1.1738459
1.1738414
1.173837
1.1738324
1.1738278
1.1738232
1.1738186
1.1738139
1.1738092
1.1738045
1.1737998
1.173795
1.1737902
1.1737854
1.1737806
1.1737757
1.1737708
1.1737659
1.1737609
1.1737559
1.173751
1.1737459
1.1737408
1.1737358
1.1737308
1.1737257
1.1737206
1.1737155
1.1737104
1.1737052
1.1737
1.1736949
1.1736898
1.1736846
1.1736795
1.1736743
1.1736692
1.1736641
1.173659
1.1736537
1.1736485
1.1736433
1.1736382
1.173633
1.1736277
1.1736225
1.1736175
1.1736125
1.1736073
1.173602
1.1735967
1.1735915
1.1735864
1.1735812
1.1735758
1.1735704
1.1735651
1.1735599
1.1735548
1.1735494
1.1735438
1.1735381
1.1735324
1.1735268
1.173521
1.173515
1.1735088
1.1735023
1.1734959
1.1734896
1.1734835
1.1734773
1.1734707
1.1734637
1.1734565
1.1734494
1.1734427
1.1734361
1.1734294
1.1734224
1.173415
1.1734074
1.1734
1.173393
1.1733863
1.17338
1.1733735
1.1733667
1.1733594
1.1733517
1.173344
1.1733366
1.1733297
1.1733234
1.1733176
1.1733122
1.1733068
1.1733011
1.1732949
1.173288
1.1732805
1.1732723
1.1732636
1.1732545
1.1732453
1.1732359
1.1732257
1.1732125
1.17319
1.1731409
1.1730172
1.1726829
1.1717503
1.1692854
1.1657864
1.1620343
1.1581099
1.1541015
1.1500935
1.1461623
1.1423743
1.1387838
1.1354322
1.1323481
1.1295481
1.1270379
1.1248143
1.1228669
1.1211802
1.1197348
1.1185092
1.1174806
1.1166259
1.1159225
1.1153489
1.1148852
1.1145133
1.1142173
1.1139832
1.1137994
1.1136559
1.1135446
1.1134587
1.1133929
1.1133426
1.1133044
1.1132753
1.1132532
1.1132361
1.1132225
1.1132112
1.1132012
1.1131916
1.113183
1.1131774
1.1131737
1.1131697
1.1131653
1.1131606
1.1131557
1.1131506
1.1131453
1.1131398
1.1131342
1.1131285
1.1131227
1.1131168
1.1131108
1.1131047
1.1130986
1.1130924
1.1130861
1.1130799
1.1130736
1.1130672
1.1130609
1.1130547
1.1130484
1.1130422
1.113036
1.1130298
1.1130237
1.1130176
1.1130115
1.1130055
1.1129995
1.1129935
1.1129875
1.1129815
1.1129756
1.1129695
1.1129635
1.1129574
1.1129513
1.1129451
1.1129388
1.1129325
1.1129262
1.1129198
1.1129133
1.1129067
1.1129
1.1128933
1.1128865
1.1128797
1.1128728
1.1128658
1.1128587
1.1128516
1.1128444
1.1128372
1.1128299
1.1128226
1.1128152
1.1128078
1.1128004
1.1127929
1.1127853
1.1127778
1.1127702
1.1127625
1.1127549
1.1127472
1.1127394
1.1127317
1.1127239
1.1127161
1.1127082
1.1127004
1.1126925
1.1126845
1.1126766
1.1126686
1.1126606
1.1126526
1.1126446
1.1126365
1.1126284
1.1126203
1.1126122
1.1126041
1.1125959
1.1125877
1.1125795
1.1125713
1.112563
1.1125547
1.1125465
1.1125381
1.1125298
1.1125214
1.1125131
1.1125046
1.1124962
1.1124878
1.1124793
1.1124708
1.1124623
1.1124538
1.1124452
1.1124367
1.1124281
1.1124195
1.1124109
1.1124022
1.1123936
1.1123849
1.1123762
1.1123675
1.1123587
1.11235
1.1123412
1.1123324
1.1123236
1.1123147
1.1123058
1.112297
1.112288
1.1122791
1.1122702
1.1122612
1.1122522
1.1122432
1.1122342
1.1122251
1.112216
1.1122069
1.1121978
1.1121887
1.1121795
1.1121703
1.1121611
1.1121519
1.1121427
1.1121334
1.1121241
1.1121148
1.1121055
1.1120961
1.1120868
1.1120774
1.112068
1.1120585
1.1120491
1.1120396
1.1120301
1.1120205
1.112011
1.1120014
1.1119918
1.1119822
1.1119726
1.1119629
1.1119533
1.1119436
1.1119338
1.1119241
1.1119143
1.1119045
1.1118947
1.1118849
1.111875
1.1118651
1.1118552
1.1118453
1.1118354
1.1118254
1.1118154
1.1118054
1.1117954
1.1117853
1.1117752
1.1117651
1.111755
1.1117449
1.1117347