/*--------------------------------*- C++ -*----------------------------------*\
  =========                 |
  \\      /  F ield         | OpenFOAM: The Open Source CFD Toolbox
   \\    /   O peration     | Website:  https://openfoam.org
    \\  /    A nd           | Version:  7
     \\/     M anipulation  |
\*---------------------------------------------------------------------------*/
FoamFile
{
    version     2.0;
    format      ascii;
    class       volScalarField;
    location    "0.00107";
    object      Uy;
}
// * * * * * * * * * * * * * * * * * * * * * * * * * * * * * * * * * * * * * //

dimensions      [0 1 -1 0 0 0 0];

internalField   nonuniform List<scalar> 
5000
(
6.7552933e-29
4.053176e-28
0
0
1.519941e-28
-5.7599095e-44
1.519941e-28
0
0
-4.053176e-28
-7.093058e-28
4.053176e-28
3.039882e-28
9.0874e-43
0
2.026588e-28
2.3418399e-55
3.546529e-28
0
4.559823e-28
-1.013294e-28
5.06647e-29
-1.013294e-28
-5.06647e-29
-1.519941e-28
4.1759344e-43
1.519941e-28
3.546529e-28
-7.093058e-28
7.0270896e-42
-1.7711722e-42
-3.546529e-28
-5.06647e-28
1.013294e-28
-6.1487034e-42
1.7625323e-41
-3.5135448e-42
3.039882e-28
-3.039882e-28
1.013294e-28
-2.026588e-28
-6.9694905e-42
-2.026588e-28
-1.013294e-28
1.519941e-28
-2.533235e-28
1.013294e-28
2.4292418e-41
8.106352e-28
0
-4.053176e-28
-2.8799547e-44
1.519941e-28
-5.06647e-28
8.8558609e-42
-1.013294e-28
4.053176e-28
-1.2247008e-41
-2.026588e-28
0
1.013294e-28
3.4559457e-42
7.1998869e-44
2.533235e-28
-1.519941e-28
7.0846887e-42
4.053176e-28
-4.559823e-28
-2.533235e-28
3.039882e-28
-7.3277308e-42
5.06647e-28
6.079764e-28
-4.053176e-28
-3.9097597e-42
2.026588e-28
0
1.519941e-28
-1.4399774e-44
-4.0070845e-42
-5.06647e-29
8.6398642e-44
-8.6398642e-44
-5.06647e-29
-5.06647e-29
3.5279446e-42
-2.533235e-28
0
-4.053176e-28
-1.2686649e-54
8.8558609e-42
-3.546529e-28
-1.013294e-28
-2.026588e-28
-7.0126898e-42
-1.013294e-28
0
0
-2.026588e-28
-1.0230178e-54
-6.079764e-28
5.7080681e-42
-1.013294e-28
0
-1.013294e-28
-2.533235e-28
3.039882e-28
4.559823e-28
0
0
-3.546529e-28
-5.06647e-28
0
4.559823e-28
-1.0627033e-41
-1.519941e-28
1.519941e-28
-1.0079842e-43
1.0627033e-41
-1.9515332e-56
-7.093058e-28
1.5119762e-43
4.053176e-28
0
5.573117e-28
-6.079764e-28
-4.053176e-28
3.039882e-28
1.519941e-28
-1.013294e-28
-3.039882e-28
3.039882e-28
5.06647e-29
5.06647e-29
0
-6.079764e-28
-8.612999e-28
8.106352e-28
2.6351586e-41
-8.106352e-28
9.119646e-28
1.1652881e-27
0
-1.9252586e-27
-1.7732645e-27
2.026588e-27
-2.2292468e-27
1.1231824e-42
2.0772527e-27
-2.533235e-27
2.9385526e-27
-2.1167667e-40
-3.4451996e-27
3.9011819e-27
-4.1038407e-27
-4.6104877e-27
4.9144759e-27
0
0
6.079764e-27
6.7384051e-27
-7.6503697e-27
-8.5116696e-27
8.9676519e-27
6.7811415e-40
-1.0842246e-26
1.1804875e-26
1.2919498e-26
0
-1.5402069e-26
-1.6567357e-26
0
1.9860562e-26
2.1836486e-26
0
-2.609232e-26
-5.9659991e-39
3.1108126e-26
-3.3894684e-26
-3.7137225e-26
4.0886413e-26
3.0897451e-39
-3.3279317e-39
-2.2506846e-41
-5.745377e-26
6.2317581e-26
9.4444084e-39
-5.0912128e-39
5.5477144e-39
-8.8055248e-26
0
0
1.1404624e-25
1.2392586e-25
0
0
-1.5923915e-25
7.3182497e-55
1.8923265e-25
0
-2.2333e-25
2.4319056e-25
7.3428046e-38
-5.7676694e-25
3.1310784e-25
7.061428e-38
5.2537575e-41
4.0151775e-25
-4.361724e-25
6.7347742e-41
7.1255941e-38
-3.8657453e-38
6.0655779e-25
0
-7.1543623e-25
-5.3727723e-38
-2.3377043e-37
-9.1373786e-25
0
1.0748009e-24
1.1656427e-24
0
0
0
-1.6098202e-24
-1.2071294e-37
1.88954e-24
0
0
-2.4023681e-24
-2.601075e-24
2.8158427e-24
3.048495e-24
0
-3.5704934e-24
-3.8631834e-24
4.1792298e-24
4.5206592e-24
0
-5.2873681e-24
1.5873437e-36
4.2852949e-37
-6.6791274e-24
7.2183518e-24
7.7998812e-24
0
-9.1011533e-24
1.3661123e-36
-1.0614964e-23
-1.5896331e-36
2.4744943e-23
-1.3354455e-23
1.9989259e-36
5.3988846e-36
1.1611296e-36
1.8098089e-23
-1.9519437e-23
-2.1049156e-23
0
2.4465984e-23
2.637123e-23
0
-3.0623974e-23
-3.2993055e-23
7.1079939e-23
3.8277079e-23
-4.1219077e-23
-4.4380757e-23
-1.3253147e-35
5.1424924e-23
-5.5342673e-23
4.1297011e-36
6.4066526e-23
-6.8915138e-23
5.1505854e-36
-5.5499895e-36
2.4355993e-38
6.3623939e-36
-9.9015948e-23
0
0
1.2283347e-22
1.3194157e-22
0
0
0
0
-1.8822478e-22
-1.3921652e-35
4.3345252e-22
-9.9121124e-38
-2.4938371e-22
-2.6744973e-22
3.9816365e-35
4.2599646e-35
4.6834587e-38
3.5321762e-22
3.7850153e-22
4.0553009e-22
-8.6883779e-22
-1.3958711e-21
4.9827496e-22
1.0670233e-21
0
-6.1134033e-22
-6.5425521e-22
7.0006826e-22
-2.1286939e-37
3.4155179e-37
-2.4352671e-37
-9.1623569e-22
-9.7959625e-22
1.0471668e-21
2.2384298e-21
-1.1960247e-21
4.0675271e-51
-1.3651477e-21
-4.0406143e-34
3.1143265e-21
0
0
-3.7893058e-21
1.1229477e-33
4.3151718e-21
0
-2.455383e-21
-2.618707e-21
2.792431e-21
-4.2308346e-37
4.4062767e-34
-4.8067995e-37
-3.604477e-21
3.8403982e-21
4.0910774e-21
0
-4.6402636e-21
6.8596314e-34
5.259646e-21
-1.1196546e-20
1.6526415e-33
6.3391369e-21
1.8726353e-33
1.4346418e-20
-1.5257213e-20
-8.1115441e-21
8.623595e-21
1.3026261e-36
9.7417541e-21
0
0
-1.1681732e-20
1.7207565e-33
2.634799e-20
-1.9876122e-36
-4.454023e-20
1.5757113e-20
1.6720439e-20
-3.5479235e-20
1.8817688e-20
-1.9957845e-20
-4.2326883e-20
2.2437999e-20
2.3785214e-20
2.5208966e-20
-2.6713324e-20
1.5722942e-49
2.9981144e-20
-3.1753778e-20
3.362538e-20
-3.5601107e-20
-1.0443331e-32
-1.1336513e-35
-4.2208371e-20
8.9314518e-20
-4.7239969e-20
-1.3873815e-32
1.4656038e-32
5.5860625e-20
1.1809968e-19
-1.8723049e-19
-1.8294286e-32
3.865708e-32
-2.0396742e-32
1.5547702e-19
-1.6417976e-19
2.4041753e-32
1.8297662e-19
0
0
-1.0749821e-19
1.5727578e-32
1.1959279e-19
1.2610741e-19
-1.3295313e-19
-4.2043616e-19
1.4770025e-19
1.5563445e-19
4.660177e-35
1.7271124e-19
0
-3.8304756e-19
-4.0326099e-19
2.1223219e-19
4.4670182e-19
2.3500956e-19
-4.9446386e-19
-5.2008549e-19
5.469353e-19
5.7506658e-19
0
-6.3539669e-19
3.3385617e-19
7.015432e-19
-3.684766e-19
-3.8700429e-19
5.7751346e-35
-5.9238356e-32
-4.4787275e-19
4.7004672e-19
4.9322752e-19
-5.1745593e-19
7.5281654e-32
8.0891836e-35
8.2782659e-32
6.2571075e-19
-6.5583891e-19
2.8627009e-31
9.9980797e-32
2.0936552e-31
7.9010084e-19
-8.2737262e-19
1.2026887e-31
2.5140384e-31
1.3486185e-34
1.9860575e-18
1.0388984e-18
-1.0866822e-18
-2.272899e-18
1.6497971e-31
2.4844448e-18
1.2983769e-18
-2.7136258e-18
-1.4176101e-18
1.4808504e-18
1.5466179e-18
4.4822356e-31
-1.6860821e-18
0
0
-1.916465e-18
0
2.0852924e-18
-2.1745787e-18
-3.2219597e-34
6.5593932e-31
0
2.5666881e-18
-2.6740127e-18
-2.7852874e-18
5.8012642e-18
3.0201693e-18
-3.144024e-18
0
0
3.54278e-18
-1.0238316e-30
-3.8326085e-18
0
0
4.3061124e-18
-1.8645054e-30
-4.6493122e-18
0
0
0
0
0
0
0
0
-1.3003805e-17
-3.7423939e-30
6.9898532e-18
-7.2452503e-18
7.5084971e-18
-7.779772e-18
2.2401854e-30
8.3471282e-18
2.4001485e-30
8.9487765e-18
0
0
-9.9187854e-18
-2.8492422e-30
1.0612669e-17
0
0
0
0
0
0
0
-2.7597587e-17
1.1859724e-29
2.9411192e-17
-1.5176582e-17
-2.2253547e-33
-1.6154661e-17
9.2392743e-30
3.4364237e-17
1.7714822e-17
-2.6569535e-47
-5.6457244e-17
0
3.995264e-17
0
0
-4.3629042e-17
6.2289832e-30
6.9330446e-17
-2.3779489e-17
-2.4463383e-17
2.5161982e-17
-2.5875428e-17
2.6603863e-17
7.5860621e-30
-2.8106236e-17
2.8880432e-17
0
3.0475455e-17
-3.1296508e-17
-6.4266801e-17
3.2986231e-17
3.3855095e-17
3.4740081e-17
3.5641273e-17
-7.311749e-17
-3.7492568e-17
3.8442807e-17
0
-4.0392749e-17
4.1392546e-17
4.2408944e-17
-1.3032591e-16
-1.2645288e-32
9.1115991e-17
-4.6641013e-17
-6.6283214e-30
-4.8857053e-17
1.4208027e-32
1.0227935e-16
-5.2305885e-17
0
1.5185745e-29
7.944383e-33
5.713572e-17
-5.8384125e-17
1.6563274e-29
8.4508014e-30
8.8428976e-33
6.3539122e-17
-6.4867713e-17
6.493203e-47
1.8763368e-29
9.7979864e-33
1.4067562e-16
9.9506849e-30
-7.3164302e-17
0
0
7.7514679e-17
3.2868741e-29
-8.0486545e-17
8.1993366e-17
-1.1595064e-29
2.9556356e-46
1.2022826e-29
-8.8154839e-17
-8.9727599e-17
-1.2664902e-29
9.291028e-17
0
0
-9.7773296e-17
9.941695e-17
-8.4139147e-29
-1.0273654e-16
1.0441189e-16
0
-1.077922e-16
-1.0949655e-16
1.1120995e-16
1.1293208e-16
0
-1.1640124e-16
-1.1814761e-16
2.3980281e-16
1.2166228e-16
-1.2342991e-16
-1.2520394e-16
-1.7612425e-29
-1.2876985e-16
-3.6254199e-29
2.6471444e-16
0
0
0
-1.3958511e-16
-1.4140108e-16
0
1.4504133e-16
2.0348987e-29
-1.4869026e-16
0
0
1.5417365e-16
2.1637251e-29
-2.1868509e-29
1.5966047e-16
-1.6148851e-16
6.795458e-29
1.6514114e-16
0
1.6878681e-16
2.368697e-29
-1.7242276e-16
1.7423623e-16
-1.7604625e-16
-1.7785247e-16
1.7965457e-16
0
-1.8324507e-16
-1.8503282e-16
1.8681513e-16
1.8859169e-16
0
1.921263e-16
-1.9388373e-16
-1.9563416e-16
1.973773e-16
3.9822568e-16
-1.1153882e-28
-6.076799e-16
8.0471174e-47
2.0597324e-16
4.1533294e-16
-1.1614588e-28
-4.2204951e-16
2.1268927e-16
-2.1434368e-16
2.1598773e-16
2.1762116e-16
-4.3848746e-16
0
0
4.4808756e-16
-5.8828528e-46
-4.5437013e-16
0
0
4.6360866e-16
-5.6279696e-46
-4.6963903e-16
0
0
4.7848333e-16
2.4068809e-16
-4.8424076e-16
-2.4353835e-16
0
4.926612e-16
-1.3756524e-28
-4.9812688e-16
2.5040715e-16
0
-2.5304835e-16
2.5434551e-16
-3.632676e-32
-2.568922e-16
2.5814144e-16
-2.593744e-16
-2.6059096e-16
2.6179096e-16
2.6297429e-16
-7.3346644e-29
-2.6529037e-16
2.6642287e-16
7.4290029e-29
-2.6863618e-16
2.6971675e-16
-2.7077977e-16
-2.7182513e-16
2.7285272e-16
2.7386244e-16
-7.6321534e-29
-2.7582782e-16
2.7678327e-16
-3.9466448e-32
-2.7863922e-16
2.7953951e-16
-2.8042123e-16
-2.8128428e-16
2.8212857e-16
5.6590803e-16
-1.5766995e-28
-5.6909602e-16
2.8531639e-16
-4.0652364e-32
-5.7359101e-16
-8.1714142e-32
2.8819722e-16
0
-2.8952092e-16
0
2.9076597e-16
0
0
0
2.9301782e-16
-2.057707e-47
-2.9402347e-16
0
-2.949482e-16
8.2021161e-29
2.9579146e-16
0
0
0
2.9723145e-16
-8.2620856e-29
-2.9782714e-16
0
-2.9833927e-16
-8.2862812e-29
2.9876735e-16
0
-2.9911087e-16
2.9925077e-16
-1.6634291e-28
-2.9946653e-16
2.9954228e-16
0
2.996292e-16
8.3204123e-29
-2.9962908e-16
0
-2.9953897e-16
2.9946084e-16
1.6625304e-28
-2.9923865e-16
1.6606268e-28
4.2480255e-32
-8.2996542e-29
4.2423534e-32
2.9829612e-16
0
-2.9776312e-16
8.2557282e-29
8.2467742e-29
-2.0849192e-47
8.2312004e-29
0
5.9124797e-16
8.1967883e-29
-2.947296e-16
2.9424821e-16
-8.1525107e-29
-2.9321681e-16
-2.9266672e-16
-8.11086e-29
8.0943086e-29
-2.9087851e-16
2.9023635e-16
2.8957109e-16
0
2.8817118e-16
-7.981539e-29
-2.866786e-16
0
0
0
5.6682989e-16
-3.1382401e-28
-5.6328748e-16
0
0
0
0
0
0
0
5.4726169e-16
-1.5142709e-28
-5.4279296e-16
-2.7024484e-16
2.6907028e-16
2.6787288e-16
-7.4082039e-29
-1.4724716e-28
-2.6414425e-16
2.6285616e-16
-2.615456e-16
-2.6021268e-16
2.5885749e-16
2.5748014e-16
-1.4214428e-28
-2.5465947e-16
-2.5321639e-16
6.9834878e-29
2.5026546e-16
2.4875791e-16
-2.4722918e-16
-2.4567945e-16
2.441089e-16
-2.4251772e-16
0
2.3927425e-16
2.3762239e-16
-6.5451767e-29
-2.3425955e-16
2.3254906e-16
-2.308195e-16
-2.2907117e-16
2.2730431e-16
-2.2551923e-16
-6.2121542e-29
2.2189557e-16
2.2005761e-16
3.1008463e-32
-4.326621e-16
-1.1906271e-28
2.1253926e-16
2.106198e-16
0
-2.0673564e-16
0
0
0
-1.9879756e-16
-1.9678014e-16
1.9475044e-16
1.9270892e-16
0
-1.8859231e-16
5.1818898e-29
1.844342e-16
0
0
-1.7812804e-16
9.7698753e-29
1.7388409e-16
0
0
-1.6746932e-16
9.1765324e-29
1.6316685e-16
0
-1.5884905e-16
4.3508556e-29
-4.2885366e-29
4.2305698e-29
1.5018665e-16
0
1.4585182e-16
-7.9736048e-29
-1.4152121e-16
0
-1.3719982e-16
1.3504417e-16
1.3289272e-16
-2.6149222e-16
-3.5747591e-29
2.5293984e-16
-3.4527188e-29
-1.2222063e-16
0
0
-1.1590808e-16
3.159013e-29
1.117478e-16
0
-1.0763164e-16
1.0559158e-16
1.035643e-16
-1.0155039e-16
0
9.7564865e-17
-9.5594353e-17
-5.1976974e-29
5.0900735e-29
-8.9778151e-17
7.3176684e-29
-8.598518e-17
8.4115495e-17
-2.2831466e-29
4.4668736e-29
1.5723815e-16
-2.1311191e-29
-7.5052905e-17
0
0
0
1.3633984e-16
6.6503139e-17
-1.2971713e-16
-6.3236489e-17
0
0
-5.8507759e-17
-7.3223966e-47
5.54721e-17
0
1.0506331e-16
5.1097521e-17
-9.9375213e-17
-4.8302018e-17
0
9.1208253e-17
1.2588526e-32
-1.290129e-16
1.1578845e-29
8.100543e-17
-3.928874e-17
-2.1656925e-32
3.6934234e-17
-9.9442507e-30
-1.9238629e-29
-3.3585025e-17
0
-3.1472728e-17
1.6907688e-29
5.8911146e-17
-2.8482265e-17
4.5839603e-29
2.6605252e-17
-5.1402269e-17
3.5270845e-33
2.3960565e-17
0
0
0
2.0743144e-17
-1.9992172e-17
-3.8523967e-17
1.8552279e-17
4.9601309e-30
4.7692935e-30
1.6542982e-17
0
-1.5300101e-17
2.0899434e-33
2.8262921e-17
-1.3574132e-17
-7.231347e-30
1.2511746e-17
1.200599e-17
-6.3992043e-30
-2.2087201e-17
0
-1.0144356e-17
-9.717533e-18
0
8.9077179e-18
8.5240244e-18
-8.1540078e-18
0
7.4536182e-18
0
0
-6.4970153e-18
5.1646366e-30
5.9180086e-18
0
0
-5.1310498e-18
-4.889206e-18
4.6570816e-18
4.4343756e-18
-4.2207885e-18
-4.0160304e-18
7.6396219e-18
3.6318503e-18
-9.5900675e-31
-3.2796039e-18
1.7280557e-30
1.6406004e-30
-2.8064447e-18
2.662428e-18
-2.524855e-18
2.3934909e-18
1.9339013e-33
-2.1484713e-18
4.0687464e-18
1.9256e-18
1.8219444e-18
-3.4464101e-18
-3.2583772e-18
1.5397037e-18
-1.4545703e-18
1.3736072e-18
-7.2010447e-31
-2.4470302e-18
1.1540567e-18
-3.0199302e-31
2.8491617e-31
9.6617406e-19
0
0
-8.0601066e-19
-7.5815694e-19
0
6.7000476e-19
6.294741e-19
0
5.5494537e-19
-1.4459887e-31
-4.8843483e-19
4.5793697e-19
-1.1904429e-31
-4.0198366e-19
0
-3.5216358e-19
-1.8285631e-31
3.0780087e-19
-2.8746508e-19
7.4374982e-32
2.501006e-19
2.3292881e-19
6.0133678e-32
-2.0125561e-19
0
1.7271538e-19
-1.5947086e-19
4.1733612e-35
-7.4845208e-32
-1.2322021e-19
1.1215855e-19
0
1.8278219e-19
-1.8132451e-31
-7.2391155e-20
-3.530474e-32
-1.1075455e-19
9.577943e-20
8.2772261e-20
-7.199116e-20
-7.1590406e-20
-4.2331561e-20
0
4.2738385e-20
1.0117301e-19
-9.262629e-36
6.680724e-20
-5.948655e-20
-6.4514492e-20
7.8666274e-20
-1.6480999e-19
1.4802078e-19
1.1955273e-31
-1.5835376e-19
1.6475834e-19
-4.2490061e-32
7.3214936e-20
-7.863565e-20
-8.2814455e-20
7.9376517e-20
2.0508089e-32
1.4853448e-19
-1.5465441e-19
-1.5481081e-19
1.4771539e-19
1.9996149e-32
7.3345316e-20
-4.0721056e-32
-7.0380864e-20
-1.8974629e-32
5.0971912e-49
-6.8717475e-20
-1.2965199e-19
6.0422453e-20
1.1240893e-48
5.4625525e-20
8.5065676e-32
-4.7042344e-20
8.5677139e-20
-2.1134731e-32
-6.4958445e-20
-2.8272128e-49
2.3152983e-20
0
0
2.0035308e-20
-1.7527514e-20
-5.7379385e-20
0
0
0
4.1356032e-20
5.2534486e-20
0
-4.2763971e-20
5.0788772e-20
9.708418e-32
-1.0879406e-19
0
0
0
5.8078567e-20
5.053071e-20
-4.9586915e-20
5.4165844e-20
3.0820073e-32
-1.0085332e-19
0
0
8.8058109e-20
-1.2209009e-35
-3.988381e-20
3.7804625e-20
-3.761789e-20
3.6947761e-20
-1.9448745e-32
-6.658949e-20
0
0
3.2772347e-20
3.3265183e-20
0
0
-3.0200477e-20
-3.3278177e-20
0
3.1549738e-20
3.0074625e-20
-3.3902086e-20
3.6521355e-20
3.4614319e-20
-3.5038922e-20
-3.8875145e-20
2.1600493e-32
3.6611984e-20
-3.8377488e-20
-1.1216978e-32
4.3124753e-20
0
4.7815913e-20
-2.6573536e-32
-4.5510955e-20
3.8347858e-20
-1.7411497e-32
-3.4588209e-20
0
4.2031288e-20
-9.112663e-33
-2.6656992e-36
1.5188474e-20
-2.6342257e-20
-3.4320689e-20
0
3.232661e-20
-1.7714716e-32
-2.3870494e-20
-3.8214397e-36
-4.1476639e-20
3.5246753e-20
4.5040713e-20
-5.2404679e-20
-2.2749768e-20
0
4.0096016e-20
-3.8353907e-32
-4.5317579e-20
0
4.0653229e-20
1.196297e-32
-2.2015238e-20
-6.2137051e-33
-4.7079658e-20
4.8739427e-20
6.0487174e-32
-4.8650014e-20
5.0169117e-20
-1.4286745e-32
-5.2470459e-20
-2.7093528e-20
5.8163905e-20
3.1382067e-20
-6.4012292e-20
6.5288224e-20
8.8044277e-32
-7.4570098e-20
7.1197923e-20
-8.9019332e-33
3.0195109e-20
-3.2640825e-32
-8.3803138e-20
1.4091572e-32
4.7588396e-20
-2.3081109e-20
-4.3719441e-20
2.049649e-20
-1.0830354e-32
1.9025221e-20
2.1187763e-32
-1.9970655e-20
4.4226141e-20
-2.0569325e-32
3.089992e-32
-1.7371061e-32
-3.2376692e-20
0
-2.189148e-20
-1.9178621e-20
0
0
0
0
0
4.8644403e-21
2.1665879e-21
0
-4.8519327e-21
2.9929607e-21
2.2494895e-33
-2.5577751e-21
0
0
0
4.8883874e-21
5.6054851e-21
-6.28138e-21
-8.0969205e-21
1.9571436e-20
1.6487273e-32
-2.0011905e-20
0
2.5873533e-20
2.1286051e-32
-1.1912817e-20
1.3236712e-20
-1.5767254e-20
1.5483752e-20
7.0761223e-33
-2.1789119e-20
0
0
5.387924e-21
5.5975708e-21
0
-1.3561065e-21
-6.7037596e-38
5.9990953e-22
3.1591806e-22
3.2347599e-21
0
3.0712964e-22
-7.825233e-22
0
3.9070406e-21
3.381448e-21
-3.9632181e-21
2.1581081e-21
2.3318906e-21
-7.8178902e-21
-2.7997884e-21
-3.8708879e-37
-2.5172303e-21
2.4043933e-21
2.4328274e-21
2.3454261e-21
3.6837386e-50
1.3357134e-21
1.3492422e-21
-1.576187e-21
0
-4.8940174e-21
-4.8777701e-21
0
2.3604966e-21
5.9423762e-21
1.4620839e-33
2.3440386e-21
6.7401192e-21
-7.8518079e-21
-7.2709871e-21
-3.4816732e-21
-3.5629921e-21
0
2.5886877e-21
8.0338271e-21
-2.4123101e-21
-8.2551788e-48
3.1625351e-22
8.0067339e-22
2.3329465e-22
-1.561548e-22
-4.8291408e-22
-6.6827403e-22
-1.354641e-21
2.1847619e-21
1.9961789e-21
1.8808122e-21
-8.4579118e-21
-3.8331916e-21
9.999795e-21
2.6782279e-21
-3.3234611e-21
-8.6640907e-21
3.9063925e-21
-3.0696507e-21
5.8206642e-33
-7.1403336e-33
-1.1370893e-20
3.0560995e-21
3.4896775e-21
8.4322981e-21
4.3490499e-21
-8.147494e-21
-1.1758501e-36
-4.3376169e-21
3.9606606e-21
9.5423292e-21
-8.8759888e-21
-3.3682714e-21
1.1613943e-20
0
-1.2554441e-20
-4.1723126e-21
1.3202219e-20
-4.9039469e-21
-1.0765135e-20
-3.050852e-33
5.8513635e-33
5.7190276e-21
0
1.4545954e-20
1.4621845e-20
-7.4519321e-21
-8.1792945e-21
-1.7502567e-20
8.4366803e-21
8.5039211e-21
-1.8472194e-20
0
2.0250794e-20
1.8329039e-20
-9.0488288e-21
-1.8643956e-20
5.1515767e-33
1.0004778e-20
-2.0786318e-20
1.0677127e-20
-3.5493203e-32
-2.0038672e-20
9.5304082e-21
0
2.0205013e-20
0
-2.0635937e-32
-8.7924804e-21
-1.8323858e-20
2.8070885e-20
-2.4837315e-36
-1.6675486e-20
0
1.6951616e-20
8.2206304e-21
-1.4819416e-20
7.8517651e-33
7.3305751e-21
-1.4842127e-20
7.1917345e-21
-1.1326507e-32
-1.2636574e-20
6.1844801e-21
-6.3701969e-21
1.276891e-20
1.7777088e-20
0
-1.4680509e-20
-1.0727265e-20
1.7031752e-20
1.1252973e-20
-5.4061782e-21
-1.0722435e-20
5.5073173e-21
5.5943543e-21
-1.1069878e-20
5.5322171e-21
1.1346708e-20
-5.7631826e-21
8.063709e-37
-1.1323287e-20
-1.1925913e-20
1.9105717e-20
-6.5622806e-21
-1.0705629e-32
1.7787902e-20
0
-1.9839737e-20
-1.4090253e-20
7.1771767e-21
7.1355507e-21
7.1370225e-21
0
7.3044648e-21
-4.0394275e-33
-1.3979931e-20
3.8178197e-33
7.1053121e-21
0
7.3042819e-21
-1.4335554e-20
-2.0565535e-20
1.3548281e-20
2.105139e-20
7.2106632e-21
-7.1557516e-21
-1.3929261e-20
6.7613623e-21
-6.6820947e-21
-6.8141141e-21
1.3725978e-20
-1.3520184e-20
-6.6313038e-21
1.9748675e-20
1.3096867e-20
-6.3874822e-21
-1.8897639e-20
1.4091083e-32
-1.3983001e-32
-6.0893678e-21
-6.5229201e-33
-5.8655509e-21
5.9464311e-21
5.9130608e-21
5.7307913e-21
-5.4302687e-21
-5.3045931e-21
1.6191504e-20
-5.4453045e-21
-1.0473834e-20
1.4664849e-20
1.3166533e-36
-4.6425057e-21
9.6058657e-21
4.8715775e-21
0
-4.5148407e-21
-4.2665467e-21
-8.1507637e-21
4.0724662e-21
-1.4080677e-32
-1.3044571e-20
4.4074789e-21
4.3788115e-21
4.2658013e-21
-4.1428632e-21
-4.0550247e-21
1.2402851e-20
-4.3878801e-21
-9.2502857e-21
-7.8325225e-33
-4.7082628e-21
9.532636e-21
1.4860131e-20
2.8870715e-33
-2.9860048e-33
-7.7640092e-37
-5.4678464e-21
-1.121074e-20
-5.9193079e-21
1.8690981e-20
-7.0565961e-33
-1.271058e-20
0
0
6.7973446e-21
-3.8923747e-33
3.9449245e-33
7.0509341e-21
-1.4099331e-20
-7.1673594e-21
-8.1368944e-33
7.3882876e-21
2.1581065e-20
7.0686798e-21
0
0
0
-2.1478638e-20
-1.3654784e-20
2.0011483e-20
-7.5875232e-33
-1.3817306e-20
0
0
1.245484e-20
-1.3221241e-32
-6.6130605e-33
1.2105559e-20
-6.0690352e-21
-1.2007802e-20
-1.1688328e-20
5.6361917e-21
1.6344044e-20
5.369012e-21
0
0
0
-1.5221758e-20
-1.0045816e-20
1.5366402e-20
-1.1574608e-32
-5.1765848e-21
7.2160358e-37
-5.0207848e-21
1.0124028e-20
-5.7540486e-33
-5.2828144e-21
1.0581621e-20
0
-2.9012049e-33
-1.0687451e-20
-1.099878e-20
1.6795752e-20
1.1235442e-20
-5.5603184e-21
-3.0886354e-33
5.6961535e-21
-1.762333e-20
-1.1917209e-20
5.9634881e-21
5.950389e-21
-5.9614473e-21
-5.971634e-21
5.901455e-21
5.8366526e-21
-3.2444921e-33
3.2828724e-33
5.9038126e-21
0
5.6526129e-21
-1.1173893e-20
-1.6696027e-20
1.0954842e-20
1.0548358e-20
5.1189636e-21
-5.6001675e-33
-9.9555046e-21
4.8288043e-21
-4.5902702e-21
-4.4158282e-21
8.6207974e-21
-8.3785173e-21
-3.96889e-21
3.6798039e-21
6.988869e-21
3.4232449e-21
-6.6533949e-21
1.7382609e-33
-2.8791621e-21
-2.6402413e-21
7.4860278e-21
-2.4083267e-21
-2.2859759e-21
6.2260207e-21
-2.6395256e-37
-5.2178719e-21
-1.6970023e-21
4.9186379e-21
-1.504496e-21
-1.1145003e-48
-1.9238288e-33
-2.2516613e-21
2.3223069e-21
2.3424966e-21
-1.1230741e-21
1.1809739e-33
2.1010503e-21
-1.0891151e-21
-3.4182979e-21
-1.1671921e-21
1.1913664e-21
0
1.3647873e-21
2.9953592e-21
-2.2913158e-37
-5.0812756e-21
-1.7861367e-21
3.8471724e-21
-2.9784558e-37
-4.5790016e-21
4.9306964e-21
-4.3391483e-33
-5.4828753e-21
8.7078763e-21
6.2059125e-21
0
0
-3.7183607e-21
-1.154341e-20
-3.9965846e-21
1.2551292e-20
-4.8824e-33
-9.1843632e-21
9.439985e-21
9.5652852e-21
-4.8793597e-21
-1.0146341e-20
5.2789671e-21
5.4229002e-21
-1.6483866e-20
-5.4643275e-21
-9.1123104e-33
3.1164909e-33
5.7807758e-21
-5.87917e-21
1.1801636e-20
1.745839e-20
0
-1.7385084e-20
-1.1796956e-20
1.7758504e-20
-1.6630938e-36
-5.7212226e-21
1.1272581e-20
-5.6436667e-21
-5.6569243e-21
-6.2044428e-33
5.420103e-21
1.0510918e-20
-5.1854184e-21
-1.0365726e-20
-1.0319286e-20
5.6378087e-33
4.9467135e-21
-4.8235493e-21
9.4848559e-21
1.3962746e-20
0
-1.3187617e-20
-8.6437256e-21
1.280005e-20
-4.6545931e-33
-4.0916773e-21
3.9670065e-21
3.8820927e-21
-2.138974e-33
-7.6792336e-21
2.0938409e-33
7.3343436e-21
-3.9877753e-33
-3.9674873e-33
-7.1499572e-21
-1.065521e-20
6.994334e-21
-3.8016871e-33
-1.130193e-32
3.4272431e-21
3.4479939e-21
6.8360906e-21
-1.0067232e-20
-3.2785756e-21
6.5357934e-21
-6.6807052e-21
-1.9423872e-36
1.031594e-20
3.3921443e-21
-3.3335623e-21
-9.8873963e-21
1.0999274e-32
6.7286561e-21
3.4059012e-21
-6.7834725e-21
-1.0062789e-20
9.9459919e-21
3.3054271e-21
3.7095227e-33
3.3703146e-21
-6.6695145e-21
1.816192e-33
-3.2131521e-21
3.2019615e-21
-1.0833798e-32
-9.8700093e-21
9.764865e-21
9.5544854e-21
0
0
0
-3.1779266e-21
-9.4201931e-21
-3.0748744e-21
-3.3722574e-33
-3.0490446e-21
9.2597409e-21
3.0913197e-21
-3.0216428e-21
-2.9252204e-21
-2.8682855e-21
5.7936757e-21
-2.9889311e-21
3.0619083e-21
-1.0234061e-32
-6.02401e-21
8.7852326e-21
5.7197127e-21
0
-5.7771126e-21
-3.3009359e-33
3.0453567e-21
-9.1810592e-21
-3.0156868e-21
2.9594314e-21
0
0
2.9810563e-21
6.1382445e-21
-6.9427226e-33
-6.272323e-21
-3.1014759e-21
3.0604405e-21
-3.0376459e-21
3.0334781e-21
-2.2207123e-49
-5.1637586e-33
9.433061e-21
0
0
-6.3264564e-21
-6.2676798e-21
-3.1071453e-21
3.4440832e-33
9.4320616e-21
-3.5296653e-33
-6.3519714e-21
0
6.1982607e-21
3.0763354e-21
-6.1669614e-21
3.1050796e-21
3.1129578e-21
-9.3149487e-21
3.0927955e-21
-1.0254713e-32
-6.0728159e-21
8.9165525e-21
5.8438382e-21
0
0
0
-8.8255222e-21
-5.7402564e-21
8.352809e-21
5.5049344e-21
0
-5.7006844e-21
3.1717549e-33
2.8056443e-21
-5.4599119e-21
2.6513954e-21
-2.618935e-21
-2.6503916e-21
8.1054508e-21
-5.4310864e-21
-5.3654594e-21
2.6272495e-21
-2.5710768e-21
5.0953547e-21
7.7056704e-21
0
-7.8341906e-21
-5.1666445e-21
2.5414824e-21
2.5206921e-21
-2.812644e-33
2.5617249e-21
-8.5728504e-33
-2.5536317e-21
-1.3986057e-33
6.5060229e-51
2.5363261e-21
0
2.5807515e-21
-5.1376109e-21
-7.6451767e-21
7.65311e-21
7.7271872e-21
0
-5.1954244e-21
-5.1361433e-21
5.1232868e-21
-2.5972718e-21
-2.6384544e-21
7.9522246e-21
-5.2517995e-21
-5.1563972e-21
2.5701914e-21
5.2402367e-21
2.6915238e-21
-8.1516774e-21
-2.6843508e-21
-4.3868385e-33
5.1633812e-21
1.4610954e-36
-7.8588016e-21
5.3568691e-21
8.0888811e-21
2.6512165e-21
-7.7698805e-21
-5.0783648e-21
7.5931251e-21
-5.7240505e-33
-5.224739e-21
-2.5973587e-21
1.4056677e-33
4.9173327e-21
-2.6680583e-33
2.3927557e-21
2.4241055e-21
-7.2991549e-21
-2.3987646e-21
-2.592338e-33
4.5318605e-21
-7.3969149e-33
-6.6281216e-21
4.4195982e-21
-2.4322387e-33
-2.3692033e-33
-4.5812563e-33
-2.0111038e-21
5.9573345e-21
-1.9792108e-21
-3.2641242e-33
-6.359879e-33
-5.5454716e-21
1.8036725e-21
3.5594718e-21
-1.9644736e-33
1.7520002e-21
1.7162602e-21
-3.3541981e-21
-3.2959796e-21
1.8025166e-33
4.8031996e-21
-1.7592541e-33
-1.5855758e-21
3.1967552e-21
-1.6003309e-21
-1.5714414e-21
8.5393037e-34
-8.5074632e-34
1.5600335e-21
-3.2257674e-21
1.6482227e-21
-5.4941171e-33
-5.4582283e-33
4.930769e-21
-3.3685851e-21
4.9897364e-37
3.6358508e-21
-1.8511298e-21
-5.5943217e-21
-1.8823029e-21
5.8090043e-21
-2.2511285e-33
-2.1265863e-21
4.3930621e-21
-4.4514262e-21
-1.1255352e-32
2.2944095e-21
-2.3675782e-21
2.4849604e-21
-5.1924983e-21
2.6676785e-21
8.1024438e-21
0
0
-5.6665033e-21
-8.4054539e-37
6.1602725e-21
-3.1669294e-21
-9.6463557e-21
-3.2523149e-21
9.8963061e-21
9.5328817e-37
3.7711877e-33
6.853929e-21
-1.0428183e-20
-1.7778313e-32
3.6164045e-21
-3.6442518e-21
-3.6574582e-21
3.964927e-33
3.5138425e-21
-7.1914891e-21
7.4348571e-21
-1.2634279e-32
-7.561705e-21
1.1183542e-20
7.0692611e-21
-3.445763e-21
-1.0716195e-20
-3.6790419e-21
3.7038687e-21
0
-3.5612112e-21
3.340721e-21
9.6496873e-21
1.8255982e-33
-6.6925823e-21
3.341935e-21
3.2833589e-21
-6.3782673e-21
3.0595268e-21
-2.9316615e-21
-5.7162725e-21
8.4843916e-21
-9.2475057e-33
5.9809729e-33
5.1681159e-21
-4.8933206e-21
-2.3285263e-21
-2.2554126e-21
-2.4412385e-33
2.1212818e-21
-4.0156837e-21
3.7521756e-21
5.2790657e-21
0
-1.5952089e-21
8.3892118e-34
3.994598e-37
-3.876469e-21
-1.1968793e-21
3.359589e-21
-1.0433356e-21
-5.6079844e-49
2.5463218e-21
-7.6891242e-22
-2.1347385e-21
-6.5958979e-22
1.1801426e-21
-4.9613286e-22
4.0939198e-22
-1.199954e-33
-6.7998453e-22
9.678606e-22
3.1518736e-34
-9.6875167e-34
3.0704179e-22
-2.39135e-22
-1.289581e-34
1.2258114e-22
-2.3445949e-22
-9.3776229e-23
0
0
1.5591492e-22
-2.1662093e-34
-6.1367609e-38
-1.2100918e-34
-1.2024648e-22
-1.5258256e-22
1.9587079e-22
2.3320229e-22
-5.0781069e-22
5.3760127e-22
-3.3434976e-34
-7.1363571e-22
8.426866e-22
1.5803363e-33
-5.6123541e-34
5.2978327e-22
-1.144345e-21
6.3839161e-22
-1.5872384e-33
-1.5642232e-21
0
1.7269015e-21
9.062807e-22
-1.9306623e-21
-1.032974e-21
1.0940323e-21
-1.8910709e-33
-1.1722652e-21
0
0
2.7121485e-21
2.8558807e-21
0
-3.0031578e-21
-1.5183887e-21
1.5439072e-21
-1.5725699e-21
1.6014259e-21
0
-3.359185e-21
0
0
1.8491143e-21
-2.0729106e-33
-1.8520756e-21
0
1.8196535e-21
1.0176437e-33
-1.8897395e-21
0
4.0013435e-21
4.0133874e-21
-1.9706697e-21
-2.1457109e-33
1.8984062e-21
-3.7997851e-21
-3.9073779e-21
4.0122691e-21
5.7558973e-37
4.4546584e-33
5.5875309e-37
-3.8464639e-21
1.895669e-21
-2.1119646e-33
1.934233e-21
-1.9512904e-21
-5.827577e-21
5.7442277e-21
1.8810202e-21
-1.8564707e-21
-2.0522493e-33
-1.846686e-21
3.6705078e-21
3.6212885e-21
-3.5525643e-21
-5.8363598e-33
-1.7486148e-21
-1.7458154e-21
3.4573269e-21
-1.6955782e-21
1.8389392e-33
-9.0493409e-34
1.6180051e-21
3.2251878e-21
-3.1931269e-21
-3.1399355e-21
0
1.5230947e-21
1.6722931e-33
-2.9539604e-21
-1.598589e-33
4.2297171e-21
2.7877024e-21
0
-2.7571617e-21
-2.9813778e-33
-1.2996535e-21
-1.2675297e-21
3.7577262e-21
-6.9495097e-34
-2.4889046e-21
1.212325e-21
2.3447377e-21
-1.1438044e-21
-2.2606859e-21
-1.1250523e-21
0
2.1577676e-21
-1.0428979e-21
-3.0722408e-21
1.022995e-21
1.0235731e-21
2.0115496e-21
9.6275377e-22
-1.8378391e-21
-9.0227909e-22
-9.1252827e-22
1.033593e-33
9.2835171e-22
8.9566198e-22
1.6978206e-21
8.1471081e-22
0
0
0
-1.6960942e-21
-1.644425e-21
1.5767816e-21
8.5096057e-34
8.4984201e-34
-8.6413196e-34
-1.7556933e-33
1.5762186e-21
0
-1.4977385e-21
-7.4409688e-22
7.5355915e-22
-7.6917455e-22
-7.724341e-22
0
0
1.4508389e-21
-2.4615409e-33
-1.6969862e-33
1.5624497e-21
-1.5508307e-21
-1.4975998e-21
0
1.4488333e-21
-8.252016e-34
-1.5431596e-21
1.5825624e-21
8.8014559e-34
-1.5541706e-21
0
1.5145263e-21
7.6560725e-22
-1.564222e-21
7.9535386e-22
1.7713746e-33
-1.581235e-21
1.5702339e-21
1.5792562e-21
0
0
0
-1.597162e-21
-1.5754325e-21
1.5818448e-21
0
-1.6481183e-21
0
-8.2848978e-22
1.6402898e-21
8.1770987e-22
-8.1916004e-22
1.6382078e-21
8.1780367e-22
-1.6426898e-21
-8.32744e-22
-9.4230364e-34
8.5260941e-22
-1.8564779e-33
4.6046927e-37
1.5897215e-21
0
-8.4326897e-22
-1.7532989e-21
-8.9249793e-22
0
0
0
-8.5619163e-22
1.7078729e-21
8.691537e-22
-9.0175665e-22
-9.3828375e-22
9.5963325e-22
9.5395068e-22
-1.8493194e-21
0
1.8272907e-21
1.9214298e-21
0
0
-2.144684e-21
-1.1926868e-33
-1.0603791e-21
-1.0481303e-21
1.0513212e-21
-1.0751634e-21
1.1170296e-21
2.3207142e-21
1.195126e-21
0
-2.4878061e-21
-1.3935335e-33
1.26001e-21
-1.2683534e-21
-1.2868265e-21
-2.6396245e-21
2.7324597e-21
1.4069452e-21
-4.0626623e-37
1.4355838e-21
-2.8835896e-21
1.4587402e-21
-1.4928963e-21
8.7564956e-50
1.5845759e-21
-3.2091464e-21
3.2314149e-21
3.2523536e-21
0
-1.6861617e-21
-3.4539533e-21
9.7498207e-34
1.7725602e-21
1.7810048e-21
-3.5914502e-21
-3.6534288e-21
1.8623884e-21
3.7796233e-21
3.8101571e-21
-1.9056605e-21
-3.8257548e-21
1.9444484e-21
-1.9811873e-21
3.340676e-33
2.0120832e-21
-3.9858862e-21
3.9612804e-21
2.2268015e-33
-1.1449915e-32
4.1931027e-21
-4.1928828e-21
-9.2560823e-33
2.0439149e-21
-4.0507323e-21
2.0654737e-21
-6.0271453e-37
9.5433565e-33
2.1375646e-21
-4.2261021e-21
4.5963633e-33
-1.133946e-33
2.067763e-21
-5.9837016e-37
-4.2468652e-21
4.2135254e-21
1.180423e-36
-9.0379923e-33
4.008912e-21
-4.0267324e-21
-4.4945242e-33
4.0366313e-21
-1.9925174e-21
-1.9458312e-21
-1.9029544e-21
1.8868745e-21
-2.0978277e-33
-3.7705223e-21
0
0
3.5012845e-21
4.8745455e-37
-3.4137701e-21
1.6915691e-21
-1.8355454e-33
1.6033795e-21
3.4268293e-33
-2.9953497e-21
0
-1.4602234e-21
2.8470655e-21
1.3650681e-21
-2.8787782e-33
1.2432624e-21
-2.429809e-21
1.1989294e-21
-1.2922346e-33
-2.2031582e-21
0
0
9.2226267e-22
-5.0275982e-34
8.8812578e-22
-8.441918e-22
-2.2936228e-21
2.0370774e-21
6.1696514e-22
-1.1784605e-21
5.8103236e-22
9.3918674e-34
5.2026204e-22
-2.5316489e-37
-1.1867639e-33
2.8749774e-22
-5.1952057e-22
-2.5517829e-22
0
-2.1807638e-22
1.6695564e-22
9.3023899e-23
1.9180479e-23
6.0033069e-35
-4.6162483e-35
4.9579405e-35
1.1239437e-22
-8.3175779e-23
-2.1242948e-34
3.6982634e-22
-3.3669878e-38
-2.6576371e-22
-5.4521718e-22
-5.4831441e-22
5.6867969e-22
3.4182011e-34
3.4374016e-22
3.822138e-22
-8.1083804e-22
8.2008374e-22
4.0853566e-22
-1.2364703e-21
-8.5734238e-22
4.5620665e-22
9.5704256e-22
4.8244606e-22
-4.7275964e-22
-9.2892057e-22
9.3339818e-22