/*--------------------------------*- C++ -*----------------------------------*\
  =========                 |
  \\      /  F ield         | OpenFOAM: The Open Source CFD Toolbox
   \\    /   O peration     | Website:  https://openfoam.org
    \\  /    A nd           | Version:  7
     \\/     M anipulation  |
\*---------------------------------------------------------------------------*/
FoamFile
{
    version     2.0;
    format      ascii;
    class       volScalarField;
    location    "0.00253";
    object      Uz;
}
// * * * * * * * * * * * * * * * * * * * * * * * * * * * * * * * * * * * * * //

dimensions      [0 1 -1 0 0 0 0];

internalField   nonuniform List<scalar> 
5000
(
0
0
0
0
0
-1.9558866e-17
-4.1668141e-32
5.8629319e-17
1.9555402e-17
-3.9163249e-17
-3.9220229e-17
1.9632431e-17
-1.6750419e-31
-1.7313809e-31
3.9303969e-17
-3.9303232e-17
1.2589468e-49
-1.7311832e-31
-1.9646407e-17
3.9288689e-17
1.9641713e-17
0
0
-1.9633462e-17
1.6737726e-31
-1.6177343e-31
-1.9623796e-17
1.962065e-17
1.9617077e-17
-1.9613813e-17
3.4277254e-31
-1.6717759e-31
-1.9603057e-17
1.9599658e-17
1.9595876e-17
0
0
-1.9585185e-17
-1.9581362e-17
1.95779e-17
-3.2823384e-31
-1.9570603e-17
1.956677e-17
-3.3083335e-31
-1.9559465e-17
1.9555995e-17
-6.7240398e-31
6.6950659e-31
-6.7215271e-31
3.3323971e-31
1.953755e-17
0
0
0
0
0
0
0
0
0
0
0
0
-1.9490418e-17
-1.9486596e-17
1.9483147e-17
-3.349498e-31
-9.6579894e-50
1.9472102e-17
0
0
-1.9461474e-17
-1.945769e-17
0
1.9450486e-17
6.715534e-31
-1.9443276e-17
-1.9439855e-17
1.9436067e-17
3.8865302e-17
-3.8857741e-17
1.1042097e-32
5.8265077e-17
-3.8836593e-17
-2.0195671e-30
3.8822298e-17
-5.822219e-17
1.9404016e-17
1.9400267e-17
-1.9396889e-17
1.939314e-17
1.938976e-17
6.7495475e-31
-3.8765248e-17
-1.3411507e-30
-1.9375482e-17
-1.9371723e-17
-6.798443e-31
1.3484172e-30
3.872238e-17
1.9357432e-17
-1.9354047e-17
2.7498418e-33
1.934691e-17
0
-1.9339786e-17
-6.7321518e-31
1.9332679e-17
-1.9328947e-17
-1.9325592e-17
3.8643736e-17
1.9318519e-17
-5.7944394e-17
-1.9311449e-17
5.792318e-17
-1.9304376e-17
-1.9300651e-17
-1.0969245e-32
-1.9293576e-17
5.7870674e-17
-1.3484619e-30
-3.8566285e-17
3.8558809e-17
1.9276029e-17
-1.9272263e-17
1.9268851e-17
-1.9265037e-17
-3.8523135e-17
1.9257687e-17
6.6489131e-31
1.925018e-17
3.8493092e-17
-1.9242491e-17
-1.923877e-17
-1.923464e-17
-6.6955333e-31
-6.6667682e-31
6.6927926e-31
3.843793e-17
1.9215429e-17
-1.9211679e-17
-3.8417026e-17
-1.9205218e-17
-1.9202577e-17
1.3314902e-30
3.8395624e-17
-5.4557414e-33
5.45532e-33
-2.0078508e-49
1.9191509e-17
-1.3308207e-30
2.6724307e-30
1.9188134e-17
-1.9187265e-17
1.9185934e-17
6.6522507e-31
-1.9183244e-17
1.9181828e-17
-2.7256188e-33
-1.9178025e-17
0
1.9173439e-17
1.3267433e-30
-3.8336332e-17
1.9165128e-17
-5.4462692e-33
-1.9159108e-17
1.9156162e-17
-1.915277e-17
1.9149707e-17
-7.9775078e-30
-5.3102128e-30
1.913954e-17
-3.8272719e-17
0
-1.3266169e-30
-3.9791041e-30
1.9122787e-17
1.9119198e-17
1.3175247e-30
-1.9112404e-17
1.9109199e-17
1.3140942e-30
8.143846e-33
2.6462528e-30
-3.8191232e-17
1.9092031e-17
1.9088833e-17
-1.3126942e-30
1.3151867e-30
-3.9665127e-30
1.3174329e-30
-1.9071772e-17
0
0
0
0
-1.9055152e-17
3.9717473e-30
1.9048419e-17
1.904486e-17
-1.9041688e-17
-1.9038133e-17
3.8069937e-17
1.317105e-30
-3.9506597e-30
-1.9024728e-17
-1.902158e-17
1.9018047e-17
0
1.9011372e-17
1.3154998e-30
-1.9004696e-17
-1.9001553e-17
2.6457856e-30
1.899488e-17
-3.7982702e-17
1.8988214e-17
1.898469e-17
-1.8981558e-17
1.897804e-17
0
0
0
1.896477e-17
-1.8961652e-17
-3.7916287e-17
1.8955026e-17
-1.3169615e-30
1.8948403e-17
1.8944896e-17
-3.7883568e-17
5.3825833e-33
-5.3817001e-33
1.8931677e-17
1.8928574e-17
-3.7850164e-17
2.6889756e-33
-3.9413113e-30
1.8915399e-17
-1.0502923e-29
-2.6226144e-30
1.8905332e-17
-1.8902242e-17
0
-1.8895665e-17
1.8892181e-17
1.8889088e-17
-1.8885608e-17
0
-1.8879037e-17
1.887595e-17
1.8872471e-17
-6.5509099e-30
-3.7731827e-17
-3.7725695e-17
5.6578101e-17
3.7712616e-17
0
-3.7699546e-17
-1.8846313e-17
1.884324e-17
1.8839802e-17
1.8836706e-17
-3.7666592e-17
-3.7660336e-17
1.8826788e-17
3.7647245e-17
5.2206646e-30
-3.7634116e-17
1.8813713e-17
-2.6089713e-30
-1.8807104e-17
3.7607582e-17
-1.8800419e-17
2.6177975e-30
1.8793652e-17
-1.8790236e-17
1.8786802e-17
-3.7566683e-17
7.8355404e-30
3.7552762e-17
-3.7545788e-17
-1.2989704e-30
1.8765905e-17
0
0
1.8755594e-17
-1.8752275e-17
-3.7498031e-17
1.8745866e-17
-5.3270241e-33
1.8739865e-17
1.8737031e-17
-1.8734341e-17
0
-1.8729328e-17
-1.8727003e-17
0
3.7445472e-17
1.8720777e-17
-3.7437794e-17
1.295353e-30
-5.319233e-33
1.8713727e-17
1.8712079e-17
-1.8710464e-17
1.8708825e-17
-1.8707184e-17
1.0632837e-32
3.7407501e-17
-1.8701933e-17
-1.8700058e-17
-1.8698084e-17
-2.5931022e-30
1.8693893e-17
0
0
-1.8686957e-17
2.5941537e-30
-5.1849442e-30
-2.5960895e-30
1.867661e-17
-1.8673859e-17
2.6533159e-33
1.8668195e-17
0
0
0
0
0
0
0
-1.864411e-17
0
1.8637892e-17
0
-1.8631642e-17
-5.1674709e-30
1.8625375e-17
0
0
-1.8615964e-17
-2.5842068e-30
1.8609698e-17
0
0
-1.8600321e-17
-1.8597195e-17
1.8594078e-17
1.8590955e-17
0
-1.8584717e-17
2.6406044e-33
1.8578478e-17
-1.8575361e-17
-1.8572236e-17
1.8569119e-17
1.8565995e-17
0
-1.8559759e-17
-1.8556649e-17
1.8553534e-17
1.8550429e-17
0
-1.8544218e-17
-1.854111e-17
1.8538009e-17
1.8534902e-17
0
0
0
0
0
0
0
0
-1.8506981e-17
-1.1913829e-48
1.8500779e-17
0
0
0
-1.8488384e-17
-2.5638706e-30
1.8482187e-17
-1.8479084e-17
2.5652067e-30
-2.6251537e-33
-2.5643442e-30
1.846666e-17
-1.8463552e-17
1.8460436e-17
-1.0255711e-29
-1.8454211e-17
1.8451104e-17
0
0
-1.8441767e-17
-2.5600241e-30
1.8435537e-17
-1.843242e-17
-1.8429291e-17
0
1.8423024e-17
1.8419886e-17
-1.8416734e-17
-5.1104689e-30
3.1313096e-49
-2.5556645e-30
1.8404081e-17
-1.8400905e-17
-1.2761886e-48
-2.5538962e-30
-1.839131e-17
0
0
1.8381619e-17
2.6117219e-33
-7.6457636e-30
1.8371813e-17
0
0
-1.8361939e-17
5.0900008e-30
1.8355336e-17
0
0
0
-1.8342161e-17
2.6061126e-33
1.8335637e-17
-1.8332399e-17
1.8329193e-17
-5.0939765e-30
-3.6645729e-17
1.8319749e-17
7.6292663e-30
2.5426675e-30
-2.5422533e-30
-1.8307717e-17
0
0
1.8299167e-17
2.5402729e-30
-5.0771903e-30
5.6067936e-50
-1.8288327e-17
1.8285689e-17
1.8283078e-17
0
-1.8277877e-17
-2.5373397e-30
1.8272664e-17
0
0
-1.8264681e-17
5.1903589e-33
6.249756e-50
-1.8256333e-17
1.8253431e-17
-2.5287091e-30
2.5334739e-30
-5.0634917e-30
-1.824112e-17
1.8237845e-17
-5.0633506e-30
5.0649826e-30
-5.0639953e-30
-1.8223829e-17
1.8220089e-17
-5.0582937e-30
2.5337781e-30
0
-1.820422e-17
1.8200028e-17
-2.5262977e-30
2.5851492e-33
-2.5250712e-30
2.5270238e-30
1.8177724e-17
-1.8173003e-17
-1.8168194e-17
1.8163301e-17
1.815832e-17
0
-1.81481e-17
-1.8142859e-17
0
1.8132113e-17
-2.5166989e-30
2.5751505e-33
2.5125582e-30
-1.8109546e-17
1.8103675e-17
2.5101151e-30
-5.0236909e-30
-1.808549e-17
-1.807923e-17
3.6145734e-17
-2.5673897e-33
2.5048601e-30
1.8053134e-17
-1.8046333e-17
2.5045933e-30
1.8032378e-17
0
0
0
-1.800299e-17
-1.7995322e-17
1.798752e-17
1.7979582e-17
0
-1.7963282e-17
-1.7954914e-17
1.7946396e-17
1.7937724e-17
0
-1.7919908e-17
-1.7910758e-17
1.7901442e-17
4.9682404e-30
-1.7882299e-17
0
0
0
0
1.7831291e-17
-4.9433384e-30
-1.7809547e-17
1.7798373e-17
2.4695472e-30
-2.4704644e-30
5.0470608e-49
1.7751593e-17
1.773936e-17
-3.5453807e-17
-2.4594433e-30
2.4551349e-30
-1.7688159e-17
0
1.7661142e-17
1.7647267e-17
-1.7633141e-17
-4.8873717e-30
1.7604124e-17
0
0
-1.755863e-17
2.4331675e-30
1.7526941e-17
0
-1.7494121e-17
2.4836702e-33
-4.8483319e-30
-2.4192658e-30
1.7424951e-17
-1.7406903e-17
2.4710612e-33
-4.8232699e-30
-1.7350898e-17
1.7331598e-17
4.8071916e-30
2.4573454e-33
-2.3980114e-30
-1.7251147e-17
1.7230203e-17
0
-9.5426985e-30
-2.380796e-30
-7.133104e-30
-2.4329492e-33
-1.7097349e-17
1.7073988e-17
4.348606e-48
-2.3639197e-30
4.7210583e-30
-2.3570894e-30
3.3903767e-17
-1.6926399e-17
-1.6900561e-17
-2.3428384e-30
2.339153e-30
3.3641857e-17
-1.6793678e-17
-1.6766073e-17
1.2939897e-48
0
1.3287216e-48
-1.6652097e-17
1.662271e-17
1.3811832e-48
-2.297234e-30
-2.3493934e-33
-1.6501553e-17
3.2940706e-17
4.5647232e-30
-1.6406843e-17
2.2711133e-30
-2.2665787e-30
1.6308758e-17
-1.6275296e-17
-6.3282877e-48
-6.7529291e-30
4.4930967e-30
-4.4787752e-30
-4.4712266e-30
1.6799605e-48
0
1.5993296e-17
0
0
-1.588077e-17
-4.3991243e-30
1.5803642e-17
0
0
-3.1369523e-17
-1.3023427e-29
3.1206769e-17
-1.5562061e-17
2.2055697e-33
-2.1489875e-30
-1.5435572e-17
0
0
0
-1.5261138e-17
-4.2210007e-30
1.5171513e-17
0
0
-1.503417e-17
2.1298707e-33
1.4940724e-17
0
0
-1.4797833e-17
-4.0914508e-30
-4.0842165e-30
4.0685192e-30
1.4602487e-17
-1.4552832e-17
4.0250951e-30
-4.0111406e-30
3.9950553e-30
1.4351118e-17
0
0
-1.4196748e-17
-6.1687754e-47
1.4092454e-17
0
0
-1.3934072e-17
-4.0472584e-47
1.3827269e-17
0
0
-1.3665381e-17
-4.1330422e-47
1.3556418e-17
0
0
-1.3391553e-17
1.8951946e-33
1.3280774e-17
-1.3225143e-17
3.658741e-30
-3.6432033e-30
3.6257721e-30
1.3001178e-17
0
0
0
0
0
-1.2661698e-17
3.4983105e-30
1.2547827e-17
0
0
0
0
0
0
0
-1.2090367e-17
6.6792755e-30
1.19758e-17
0
0
0
0
0
0
0
-1.151845e-17
3.1810017e-30
1.1404621e-17
0
0
-1.1234479e-17
3.1054834e-30
1.1121529e-17
0
0
0
-1.0897008e-17
-3.011927e-30
1.0785541e-17
0
0
0
0
0
0
0
-1.0346086e-17
1.4625776e-33
1.0238064e-17
0
0
0
0
0
0
0
-9.8147377e-18
-1.3873919e-33
9.711326e-18
0
0
0
-9.5077161e-18
5.250984e-30
9.4076076e-18
0
-9.3086881e-18
-2.5725467e-30
9.210997e-18
0
0
-9.0668313e-18
-9.0194227e-18
8.9723438e-18
8.9255983e-18
0
0
0
0
8.6969609e-18
-1.2295611e-33
-1.7215845e-17
-8.5639252e-18
1.7040549e-17
1.6953937e-17
-8.4340092e-18
-8.3913985e-18
0
0
0
0
-8.1835856e-18
-2.2623196e-30
8.1028532e-18
0
0
0
0
0
0
0
0
0
0
0
0
0
0
-7.5400525e-18
4.1680566e-30
7.4705907e-18
0
0
7.3688356e-18
-2.0369165e-30
1.0377373e-33
-7.2697113e-18
-7.2373693e-18
-4.0005736e-30
1.9930357e-30
7.1424167e-18
0
0
0
0
0
-6.9604962e-18
3.8484676e-30
6.9026256e-18
0
0
0
0
0
0
0
-6.6827815e-18
3.6949461e-30
6.6306812e-18
0
0
0
0
0
0
0
-6.4350751e-18
5.3394239e-30
6.3886396e-18
0
0
0
0
0
0
0
0
-6.1953539e-18
8.7753105e-34
6.1550105e-18
0
0
0
0
-6.0595413e-18
6.0414343e-18
6.0235239e-18
-1.2011318e-17
-1.6626853e-30
5.9699243e-18
0
0
0
0
-5.8858173e-18
1.6292574e-30
1.1710132e-17
-5.8396388e-18
-5.8240658e-18
5.80843e-18
0
0
0
-5.7474585e-18
-1.5903366e-30
5.7192305e-18
5.7058741e-18
-5.692915e-18
-5.6802295e-18
5.6676591e-18
0
0
-5.628689e-18
-5.6152041e-18
5.6017481e-18
5.5885954e-18
5.5759187e-18
3.0899115e-30
-5.5521804e-18
0
0
0
-5.5083671e-18
-5.4977838e-18
5.4873363e-18
5.4770358e-18
5.4668621e-18
1.5144481e-30
-5.4465468e-18
0
0
0
-5.4063606e-18
1.4977349e-30
5.3867051e-18
0
0
0
0
0
0
0
-5.3137056e-18
1.4723688e-30
1.0593032e-17
1.4683562e-30
-5.2794432e-18
0
0
-5.2554629e-18
7.4579853e-34
-1.4552719e-30
1.4525081e-30
5.2262637e-18
5.2189369e-18
-1.4471412e-30
-5.2042356e-18
0
0
-5.1840456e-18
4.3117632e-30
1.435252e-30
-7.3399264e-34
5.1586045e-18
-5.1522046e-18
-5.1459967e-18
1.0280248e-17
-2.8486201e-30
-5.1292156e-18
5.1238733e-18
0
-5.112572e-18
-1.4187209e-30
5.1005214e-18
0
-5.0887984e-18
5.0833299e-18
-5.6389334e-30
-5.073007e-18
5.0677319e-18
0
-5.0567327e-18
0
5.0461022e-18
0
-5.0363386e-18
5.0316344e-18
-2.7889765e-30
-5.0224897e-18
5.0176267e-18
0
-5.0071306e-18
-1.3889206e-30
4.9968239e-18
0
-4.9873017e-18
4.9827859e-18
-1.414998e-33
-4.9745538e-18
4.9702931e-18
0
-4.9605778e-18
-4.9553238e-18
4.9499563e-18
4.9446582e-18
-4.9397053e-18
4.9353995e-18
4.9317803e-18
-4.9283172e-18
0
0
0
0
0
0
-4.8926952e-18
-2.0216408e-49
9.7680724e-18
-4.880193e-18
-4.8760521e-18
4.8715528e-18
0
0
-4.8570884e-18
-4.8523009e-18
4.8478728e-18
4.843981e-18
0
-4.8366326e-18
-1.3425436e-30
4.8276762e-18
0
0
-4.8115159e-18
-4.8062914e-18
4.8018049e-18
4.7982222e-18
0
-4.7919048e-18
1.329555e-30
4.783582e-18
-4.7784316e-18
-2.6506681e-30
-6.7748581e-34
-4.7624174e-18
4.7582489e-18
4.7547939e-18
0
0
-4.7436035e-18
1.3151959e-30
4.7336452e-18
0
-4.7235982e-18
-4.7191887e-18
4.7152264e-18
4.7114582e-18
0
0
0
0
0
0
-4.6805979e-18
1.2977981e-30
4.6718256e-18
0
0
0
0
0
0
-4.6427592e-18
-2.5962866e-49
4.6320521e-18
4.6273547e-18
1.2825064e-30
-4.6199568e-18
0
0
0
0
-4.599006e-18
-1.2750591e-30
4.589669e-18
-4.5855537e-18
-4.5816823e-18
4.5777485e-18
-2.5386469e-30
-3.80482e-30
-3.799599e-30
1.2667743e-30
-2.5299002e-30
1.2632238e-30
4.5477388e-18
0
-4.5395809e-18
3.7762093e-30
-6.43929e-34
-4.5273065e-18
4.5234145e-18
4.5192607e-18
-4.5146367e-18
1.25158e-30
-3.7491437e-30
-2.4982383e-30
-2.4940399e-30
1.2461012e-30
-2.4918663e-30
-4.4861773e-18
4.4827027e-18
4.4787495e-18
-4.4743786e-18
1.2398819e-30
-4.9567178e-30
-1.2378427e-30
1.2371917e-30
1.234738e-30
1.2342969e-30
-4.4438268e-18
0
4.4375825e-18
-1.230718e-30
-6.9309774e-49
4.4270923e-18
0
-4.4190129e-18
4.4149771e-18
4.4110199e-18
-4.4071317e-18
0
0
0
0
-4.3888322e-18
1.2170217e-30
-2.4323059e-30
4.3760411e-18
4.370928e-18
-4.3658265e-18
0
0
0
0
-4.3488164e-18
-6.176283e-34
4.3428371e-18
0
0
0
0
0
0
0
-4.309975e-18
-4.3068359e-18
4.3032359e-18
4.2989598e-18
0
0
0
0
0
0
-4.2651386e-18
-4.2621195e-18
4.2592699e-18
4.2562429e-18
0
0
0
0
0
0
-4.2251568e-18
-4.2205775e-18
4.2159381e-18
4.2113449e-18
0
0
0
0
0
0
-4.1844343e-18
2.3207356e-30
4.1753119e-18
0
0
0
0
0
0
-4.1417565e-18
1.1488886e-30
4.1335056e-18
0
0
0
0
-4.1117118e-18
-5.8367078e-34
4.1028532e-18
-4.0985678e-18
-2.017887e-49
4.090048e-18
-4.0858512e-18
2.2668371e-30
4.0776241e-18
-4.0733318e-18
-2.2590736e-30
-2.2564732e-30
-3.4798087e-48
-2.2508761e-30
-1.1237565e-30
4.0473686e-18
-4.0435033e-18
-4.0392542e-18
8.0692864e-18
-2.235716e-30
-8.0500565e-18
0
4.0160121e-18
-1.1139861e-30
-1.113382e-30
-3.3326261e-30
-3.3297079e-30
-2.216436e-30
3.323123e-30
-2.2126425e-30
1.1065394e-30
3.9781625e-18
0
-3.9679297e-18
-5.6317415e-34
-3.2952932e-30
-3.2924088e-30
5.613828e-34
2.190599e-30
-1.094778e-30
-3.938738e-18
0
3.9313984e-18
-2.180062e-30
-5.5751037e-34
3.9182513e-18
0
-3.9076044e-18
3.9024687e-18
3.8977895e-18
-3.8935656e-18
0
0
-3.8815809e-18
4.3052502e-30
-2.1491409e-30
2.1487955e-30
-1.0741767e-30
3.8621337e-18
3.8572148e-18
-3.8517851e-18
0
0
0
0
-3.8298209e-18
-1.0624936e-30
-4.2435898e-30
3.8185053e-18
3.8143676e-18
-3.8102892e-18
0
0
0
0
-3.7873469e-18
-3.781799e-18
3.7768759e-18
3.7731501e-18
0
0
0
0
0
0
-3.7470334e-18
-3.7423131e-18
3.7380093e-18
3.7340042e-18
0
0
0
0
0
0
-3.7075127e-18
3.0843296e-30
7.3989238e-18
-3.6947923e-18
-1.1070125e-17
-3.6855241e-18
0
7.3554328e-18
-4.0798362e-30
-1.2222135e-29
-3.6657364e-18
-7.3222074e-18
7.3130145e-18
-3.6522633e-18
-3.6485798e-18
3.6452271e-18
-3.6416086e-18
5.1690771e-34
3.6327523e-18
3.6279085e-18
-3.6232084e-18
-3.618857e-18
3.6148618e-18
-3.6109345e-18
-5.1254068e-34
3.602044e-18
0
0
0
7.1673547e-18
-3.5795768e-18
-7.1503319e-18
3.5702462e-18
-3.5649307e-18
-3.5594767e-18
7.1082974e-18
1.8767249e-48
-3.5442906e-18
3.5396686e-18
7.0700383e-18
3.5301328e-18
-1.05749e-17
3.5196136e-18
2.7903266e-47
-1.052645e-17
7.0069862e-18
3.4981816e-18
3.4928131e-18
6.974689e-18
-6.9635587e-18
-3.4761486e-18
-3.4704726e-18
3.4647385e-18
3.4589114e-18
-1.0358898e-17
3.4469055e-18
3.4407561e-18
-3.4345397e-18
-3.428261e-18
-4.8628438e-34
1.0246645e-17
-3.4091949e-18
5.6656637e-30
-5.6572597e-30
-1.0171532e-17
3.3842244e-18
3.3777506e-18
6.7421082e-18
-3.3641765e-18
-6.7143742e-18
6.7002713e-18
-3.3430306e-18
3.3358543e-18
3.3285968e-18
-9.9638301e-18
3.3139324e-18
3.3065942e-18
-6.5985195e-18
-3.2918919e-18
3.2844398e-18
9.8306009e-18
-3.269169e-18
-1.3045488e-17
1.805948e-30
6.4912554e-18
3.2377159e-18
0
6.4434386e-18
7.1341743e-30
-9.6158279e-18
3.1968679e-18
-7.0791504e-30
3.1798157e-18
3.1712238e-18
-6.3251819e-18
0
0
0
-3.1273113e-18
1.7313354e-30
6.2184623e-18
-3.1001129e-18
-6.1818657e-18
9.2450301e-18
-1.023228e-29
-6.1258287e-18
3.0534265e-18
0
0
0
6.0300499e-18
-3.0052558e-18
-5.9907442e-18
8.9561105e-18
-8.4562251e-34
-5.9302125e-18
0
0
-2.9345135e-18
1.6236085e-30
5.8279262e-18
-2.9035648e-18
-5.7861427e-18
8.647495e-18
-4.7815046e-30
-5.722432e-18
2.8505413e-18
-2.8398366e-18
5.6581487e-18
2.8182231e-18
-9.3486692e-30
-2.7961941e-18
-5.5700642e-18
8.3213984e-18
-1.5703068e-33
-2.7511797e-18
1.5207982e-30
-2.728387e-18
-2.7169515e-18
1.5017681e-30
8.0823007e-18
-7.6246728e-34
-8.0138134e-18
5.3195936e-18
2.6740447e-47
-5.2731856e-18
2.6248714e-18
-2.6131084e-18
5.2026697e-18
2.5895633e-18
-5.7242008e-30
-2.5659792e-18
-5.1082441e-18
-2.5422064e-18
-2.5302405e-18
7.5547348e-18
0
-2.4942473e-18
-1.3778479e-30
1.3712047e-30
-1.3642093e-30
2.4463276e-18
-2.702428e-30
2.4222046e-18
-8.0267372e-30
-7.1940102e-18
4.7718473e-18
7.1215587e-18
2.3617709e-18
-7.0490122e-18
-4.6751421e-18
6.9765001e-18
-2.3134643e-18
-6.9043134e-18
0
0
2.2652748e-18
2.2533244e-18
0
-2.2296823e-18
-2.2178404e-18
4.4118214e-18
-4.8712201e-30
-6.5461247e-18
2.4093274e-30
2.1585737e-18
2.1468309e-18
2.1349477e-18
-2.1229653e-18
-2.111046e-18
2.0993481e-18
6.2636662e-18
-2.0765209e-18
-8.2602155e-18
2.0534163e-18
4.0834437e-18
2.0301821e-18
0
-2.0079585e-18
0
-1.98599e-18
1.9747455e-18
-4.3594131e-30
1.9522459e-18
-6.4654932e-30
-5.7919505e-18
1.9200922e-18
1.9094974e-18
-1.8987909e-18
-1.8880118e-18
1.8772711e-18
5.6000046e-18
-1.8562277e-18
-7.3836115e-18
3.0572671e-30
1.8253934e-18
3.6304247e-18
1.8051214e-18
-3.5902543e-18
-9.9092961e-31
-2.5229476e-34
1.7655615e-18
-3.8982836e-30
-1.7458301e-18
5.2074004e-18
-1.9158902e-30
-3.4321675e-18
0
0
-1.6897611e-18
9.3304839e-31
3.34346e-18
-1.6622718e-18
-3.3055133e-18
-1.6433954e-18
1.8138506e-30
4.8762383e-18
1.6166375e-18
-1.6079228e-18
3.198688e-18
-9.0437128e-34
-5.2718986e-30
-1.574616e-18
-3.1326455e-18
4.6740334e-18
-1.7210458e-30
-3.0840552e-18
0
0
3.0375234e-18
-3.3542443e-30
-1.6676386e-30
-4.2474293e-34
-4.4595193e-18
-2.9578537e-18
2.4512095e-30
4.3944698e-18
1.45794e-18
-1.4510011e-18
2.8880005e-18
1.5948103e-30
-4.7616379e-30
-1.4228299e-18
-2.8320007e-18
4.2281628e-18
-1.402904e-18
-1.3964306e-18
1.3898981e-18
-1.3833024e-18
2.753375e-18
-1.5210428e-30
-1.3636727e-18
-1.928976e-34
-2.7026246e-18
2.6907895e-18
-2.2303738e-30
-2.667925e-18
1.3284337e-18
0
-1.3173467e-18
-7.2791442e-31
3.9183508e-18
-1.3006632e-18
-2.5907262e-18
-1.2901387e-18
-1.2849208e-18
1.2796903e-18
1.274459e-18
1.2692705e-18
-1.2642045e-18
6.9902274e-31
-6.9624193e-31
1.2500749e-18
-1.3831193e-30
1.2410748e-18
-4.1184784e-30
-3.6965589e-18
2.4556315e-18
1.6364932e-48
-1.2193168e-18
-1.3489086e-30
6.7249046e-31
3.6217913e-18
-1.2033283e-18
-3.5982247e-18
0
0
1.1879842e-18
1.1843794e-18
2.3617787e-18
-1.1775164e-18
-2.3484705e-18
2.3420537e-18
-1.1678884e-18
-3.4944255e-18
1.1617724e-18
1.1587808e-18
1.1558501e-18
1.1529989e-18
-2.30047e-18
-1.147539e-18
1.1448933e-18
3.4269451e-18
-1.1398395e-18
-1.1858605e-47
-1.8901286e-30
-2.2661628e-18
2.2618896e-18
2.2577317e-18
-1.1269131e-18
-2.2502341e-18
2.2468872e-18
1.1218088e-18
-3.3605124e-18
-3.3558019e-18
1.1171875e-18
2.2319485e-18
1.1149278e-18
-6.1829964e-31
-2.225601e-18
-1.1117384e-18
1.1108445e-18
2.2203096e-18
-1.5769987e-34
-2.2190186e-18
2.2186131e-18
-1.8469146e-30
-2.2169927e-18
1.1082601e-18
2.2165394e-18
2.2170719e-18
0
-1.1096097e-18
-3.3303697e-18
-1.1106094e-18
1.1112324e-18
0
0
0
0
-1.116608e-18
6.2067907e-31
3.3599212e-18
-1.1219108e-18
-3.3717069e-18
-1.125753e-18
1.8777286e-30
2.2583272e-18
1.1312134e-18
-1.1335759e-18
2.2724059e-18
1.1390359e-18
-3.8035069e-30
-1.1448133e-18
-2.2954801e-18
3.4524534e-18
-3.2799919e-34
-1.1574491e-18
1.6499466e-34
-1.1647983e-18
-1.1686747e-18
1.3018376e-30
3.5302438e-18
-3.3562607e-34
-3.5550765e-18
-2.3782764e-18
6.6201588e-31
2.3951488e-18
1.2021165e-18
-1.2068938e-18
2.4238044e-18
1.2170715e-18
-4.0704361e-30
-1.2275051e-18
-2.46551e-18
3.7143598e-18
-1.3810014e-30
-1.2493493e-18
-1.25516e-18
-1.2610598e-18
-7.0291711e-31
7.0638265e-31
2.5576227e-18
7.1295509e-31
-2.5817353e-18
2.5943389e-18
-6.5128628e-30
-3.9306266e-18
2.633755e-18
-1.4697276e-30
-2.6604485e-18
1.3369099e-18
1.3436974e-18
2.7012832e-18
-1.3577194e-18
-4.0946951e-18
0
0
0
4.1818427e-18
4.2037591e-18
-4.2260351e-18
-4.2486833e-18
2.8477311e-18
-4.0687676e-34
1.4393095e-18
-4.8201532e-30
-4.3643108e-18
4.3874778e-18
-7.3463056e-30
-2.9563508e-18
-8.2472118e-31
8.2961113e-31
3.0045832e-18
-1.510378e-18
1.5184385e-18
-5.0847069e-30
-4.6035265e-18
4.6278715e-18
1.5508343e-18
-3.4616824e-30
3.1347965e-18
-3.1513889e-18
-1.5839605e-18
-1.5921812e-18
-4.8011121e-18
1.7857745e-30
1.6168763e-18
4.8756852e-18
-1.0881287e-29
-4.9259287e-18
0
1.658603e-18
3.3336457e-18
-1.6750079e-18
1.6832294e-18
-5.6335528e-30
-3.3997181e-18
5.1245392e-18
-3.8105704e-30
-1.9156176e-30
-1.9236443e-30
-1.9325691e-30
1.7488451e-18
-5.2708129e-18
-5.295244e-18
1.7732123e-18
3.5625762e-18
0
-1.7971572e-18
2.0032294e-30
-4.0245894e-30
2.0208787e-30
1.8281651e-18
-1.8359751e-18
-1.843718e-18
5.5540704e-18
-3.8723426e-47
-3.1082177e-30
1.8734755e-18
-2.0868113e-30
3.7760595e-18
-3.7907544e-18
-3.8053101e-18
-1.9098099e-18
2.1276788e-30
1.9236389e-18
0
0
0
3.9007241e-18
-1.9570633e-18
-3.927247e-18
5.9100109e-18
-1.9761824e-18
-5.9465426e-18
5.9642182e-18
-6.64091e-30
-4.000047e-18
6.0181554e-18
4.0238668e-18
0
-4.0460989e-18
-6.7545335e-30
-2.0333782e-18
-4.0769349e-18
2.0436839e-18
0
4.1082025e-18
5.852055e-34
2.2909722e-30
-2.0680701e-18
-6.2169596e-18
6.2295885e-18
-3.466893e-30
-6.255992e-18
6.2691187e-18
-1.0461905e-29
-4.1953268e-18
2.1012295e-18
-2.104608e-18
4.2158205e-18
2.111323e-18
-9.3916244e-30
-2.1185662e-18
-4.2438746e-18
-2.1249619e-18
-2.1276586e-18
4.2602439e-18
2.1325114e-18
0
-2.1378289e-18
1.1885573e-30
-4.7232408e-49
2.1455597e-18
-6.1033243e-34
2.1490091e-18
-3.6024918e-48
-6.4565988e-18
6.4624769e-18
6.4688157e-18
-4.3163531e-18
-4.3193595e-18
0
4.3231759e-18
-2.1623143e-18
-6.4894849e-18
6.492812e-18
-3.6067775e-30
-4.3335118e-18
2.1676377e-18
0
-2.1682635e-18
-2.168188e-18
2.168169e-18
-3.6110041e-30
4.3383226e-18
1.2334091e-33
-6.5101093e-18
0
6.5070513e-18
4.3366229e-18
-6.5034791e-18
-4.3353156e-18
6.502832e-18
2.1673453e-18
-8.6670703e-18
-2.1659307e-18
4.32976e-18
4.3274367e-18
-2.400793e-30
-2.1616217e-18
-2.1609083e-18
-2.1602203e-18
2.1592233e-18
-2.3954874e-30
4.3121264e-18
-7.1745533e-30
-6.457564e-18
0
0
4.2974966e-18
-4.7680863e-30
-2.1454172e-18
6.4302742e-18
-2.1413306e-18
-3.5616956e-30
-7.1177464e-30
-6.40556e-18
2.1332963e-18
-1.1827962e-30
2.3639519e-30
2.1271216e-18
-2.1246402e-18
3.015696e-34
-1.1765963e-30
2.3504926e-30
2.1154873e-18
0
-2.1105845e-18
4.2153984e-18
2.1047608e-18
-4.2039875e-18
0
2.0972495e-18
-2.0948037e-18
-4.1840735e-18
6.2670337e-18
-6.9480979e-30
-6.9366482e-30
2.0798596e-18
-6.2311954e-18
2.9477681e-34
2.0715003e-18
2.0686199e-18
-2.0656122e-18
-2.0624453e-18
2.0591801e-18
0
-2.05285e-18
4.0999556e-18
-3.4095444e-30
-2.0440721e-18
-4.5315182e-30
-4.5224217e-30
-5.7797757e-34
-4.060621e-18
6.0821037e-18
6.0735262e-18
0
-4.0357608e-18
-6.0425327e-18
-2.8570449e-34
2.0069403e-18
2.0036827e-18
-2.0005662e-18
-1.9973615e-18
1.9940026e-18
0
3.9739727e-18
3.9667639e-18
-5.9393003e-18
-1.9762153e-18
1.9728205e-18
-5.5978936e-34
-1.9663142e-18
-3.9256125e-18
-1.9590487e-18
3.2563814e-30
7.8056359e-18
-6.4874278e-30
-5.8340928e-18
1.9414807e-18
1.9379394e-18
1.9340589e-18
-1.9300282e-18
-1.9260878e-18
-1.9224217e-18
-5.4542353e-34
1.9157255e-18
-1.9122367e-18
5.7256389e-18
3.8095008e-18
-5.702792e-18
1.8971426e-18
3.7868155e-18
-3.7794942e-18
1.8862074e-18
-1.8827534e-18
-3.7584203e-18
5.6263569e-18
-1.8715158e-18
6.2208361e-30
5.5911598e-18
-3.7203366e-18
-1.8567719e-18
-1.8532321e-18
-3.6988483e-18
1.8454337e-18
5.3588891e-75
3.6750379e-18
1.8338088e-18
-2.0318194e-30
-1.8266283e-18
-3.6460696e-18
3.6388253e-18
-1.8156526e-18
-5.4352335e-18
5.423378e-18
1.8039396e-18
-1.8103163e-47
1.7968333e-18
-5.3798336e-18
-1.7895431e-18
1.7856868e-18
3.5635448e-18
-1.7778372e-18
1.7739172e-18
-5.8951727e-30
-3.5328291e-18
5.2887334e-18
1.954167e-30
-7.7969646e-30
3.8887096e-30
-3.4952873e-18
3.4873979e-18
-1.7398863e-18
-6.9445948e-18
1.7323728e-18
3.4570855e-18
0
3.4421171e-18
-3.8132154e-30
-9.7411956e-34
-1.8981138e-30
-1.7057614e-18
-1.7017414e-18
1.6978144e-18
1.6940173e-18
-3.3805804e-18
3.3730875e-18
-1.8681323e-30
-3.3579704e-18
3.3503165e-18
5.5661222e-30
-1.8510149e-30
-1.6633998e-18
-3.3189234e-18
1.6555793e-18
-1.6517535e-18
9.1471841e-31
1.6439925e-18
3.2799607e-18
-1.6359412e-18
-3.2639376e-18
1.6281428e-18
-1.6244177e-18
2.6992037e-30
-1.6167683e-18
-3.5819126e-30
3.2178318e-18
3.2100348e-18
3.5545545e-30
-5.3201047e-30
5.3073558e-30
-1.5895974e-18
-1.5856445e-18
-1.5816227e-18
1.5776405e-18
0
0
-1.5660617e-18
8.6704096e-31
2.2139427e-34
1.7250032e-30
1.5498525e-18
0
-1.5422953e-18
-3.0771709e-18
1.5347009e-18
3.061305e-18
3.0531383e-18
3.045141e-18
-4.5561842e-18
-5.0457332e-30
4.5341305e-18
-3.0153225e-18
-3.0076232e-18
0
-1.49585e-18
2.9838502e-18
1.4881061e-18
-2.9686747e-18
-1.4805633e-18
1.6394851e-30
4.4191269e-18
-1.4691641e-18
-4.3956826e-18
4.3840155e-18
1.4575229e-18
-4.3611692e-18
1.609417e-30
1.4461883e-18
2.8850967e-18
1.5968963e-30
-2.8698943e-18
2.8621967e-18
-1.4274251e-18
-4.2716584e-18
0
1.4166362e-18
2.8259538e-18
-7.827154e-31
1.4058063e-18
2.8043847e-18
-2.7971292e-18
-2.7898755e-18
0
-1.3876021e-18
-1.5363983e-30
-1.5325636e-30
-1.528271e-30
4.1186416e-18
2.7382494e-18
0
-2.7234773e-18
-3.0150466e-30
-1.3545141e-18
-4.0526861e-18
1.3472608e-18
-7.4563133e-31
1.9043321e-34
1.3365146e-18
2.6660574e-18
-1.3295972e-18
-2.6523865e-18
1.3227816e-18
0
2.6319573e-18
-1.312614e-18
-3.9276212e-18
1.3057312e-18
1.3022325e-18
2.5974192e-18
-1.2951336e-18
-3.8746362e-18
1.2879809e-18
-1.4257319e-30
-2.5618104e-18
1.2774295e-18
1.2739881e-18
2.5410692e-18
3.8012266e-18
-2.5272502e-18
-2.520325e-18
2.5133785e-18
1.3909336e-30
-2.4996741e-18
2.492906e-18
1.3800228e-30
-2.4795811e-18
0
2.4669973e-18
2.460893e-18
0
-3.6725874e-18
-1.2209273e-18
-3.4604616e-34
-1.2141147e-18
-1.2106819e-18
-1.3399118e-30
2.4078923e-18
2.4013645e-18
-3.9879961e-30
-2.3884085e-18
2.3819728e-18
3.9557998e-30
-2.369117e-18
0
0
0
0
2.3372287e-18
1.2942141e-30
-2.3283232e-18
-1.1614482e-18
2.3137604e-18
-3.8426909e-30
-2.3008507e-18
2.2945639e-18
1.2705159e-30
-1.1410503e-18
2.2759033e-18
-3.7802535e-30
-2.2635634e-18
2.2574279e-18
2.2513452e-18
-2.2453602e-18
-2.2395011e-18
0
0
0
0
-1.1047742e-18
1.101511e-18
1.0982287e-18
-1.2155965e-30
6.0522754e-75
-1.0887042e-18
-2.1713396e-18
-1.0826805e-18
2.1594292e-18
3.230266e-18
-1.0737923e-18
-2.1416435e-18
3.2035354e-18
2.1297353e-18
-3.1856881e-18
-2.117872e-18
-1.0559897e-18
-1.1690493e-30
2.1002338e-18
0
-1.0441811e-18
1.0411503e-18
-2.3048183e-30
-2.9414295e-34
-3.4358598e-30
-1.0285186e-18
-1.0252877e-18
2.9048725e-34
2.0377052e-18
2.0313404e-18
-3.3718541e-30
-2.0187796e-18
0
0
0
-9.9704072e-19
-9.9396515e-19
9.9088604e-19
9.8780023e-19
-9.8470417e-19
1.9631868e-18
2.9353875e-18
0
-1.9442342e-18
-1.0753428e-30
-9.6563043e-19
-2.8869921e-18
9.5899659e-19
-1.5913474e-30
1.9044953e-18
-6.3207241e-30
-1.8908755e-18
-5.2289628e-31
-1.3338556e-34
9.3521317e-19
-9.3181441e-19
1.8568408e-18
9.2502905e-19
-1.843275e-18
1.8364845e-18
2.6001307e-34
-1.0120804e-30
-9.0799784e-19
-2.7136564e-18
1.8021726e-18
3.3665362e-49
8.9408641e-19
-1.4832218e-30
-1.7739773e-18
8.8340304e-19
1.7595888e-18
-9.7242683e-31
-2.617548e-18
2.4694233e-34
8.6517242e-19
-8.614824e-19
1.7155664e-18
8.5407679e-19
-1.7007291e-18
1.6932948e-18
9.3553585e-31
-4.6584278e-30
1.8552241e-30
-1.6634484e-18
1.6559478e-18
-8.2421243e-19
-1.6408762e-18
8.1664897e-19
-8.1284338e-19
1.6180398e-18
-1.3410333e-30
-2.4039508e-18
0
0
2.3689031e-18
7.8571271e-19
-1.5635616e-18
1.555682e-18
4.3990885e-34
-3.4190365e-30
-8.5037563e-31
-1.5241035e-18
1.5162125e-18
1.5083258e-18
-7.5022156e-19
-2.2388454e-18
-7.4234323e-19
7.3840521e-19
0
0
-7.2658595e-19
4.0112069e-31
2.1560771e-18
2.0314133e-34
-1.421569e-18
-7.0682674e-19
7.8009007e-31
2.096724e-18
1.5429976e-30
-1.3819826e-18
0
-6.8308732e-19
1.3582886e-18
6.7520888e-19
-1.4906407e-30
-6.6736355e-19
-1.3269078e-18
6.5955294e-19
0
0
0
0
-6.4017303e-19
3.5320517e-31
1.8974104e-18
-6.2862765e-19
-1.874374e-18
1.862885e-18
6.1713914e-19
-1.2266489e-18
-6.0951841e-19
-1.0085794e-30
1.8058111e-18
-3.4001694e-34
-1.9798069e-30
-5.9065893e-19
-1.173856e-18
-5.832123e-19
-6.4318198e-31
5.7582826e-19
5.7216034e-19
5.6850824e-19
5.648714e-19
-1.2461438e-30
-1.1152822e-18
0
0
-5.4689862e-19
-9.0471455e-31
-7.6710487e-35
7.6208867e-35
5.3275452e-19
1.0584983e-18
1.051513e-18
-1.0445538e-18
-5.7625343e-31
-5.1535733e-19
-1.535752e-18
0
0
5.0167725e-19
4.9829082e-19
0
-4.9155702e-19
2.7099289e-31
4.8487201e-19
-4.8154688e-19
9.5646614e-19
-1.5817346e-30
-1.4149152e-18
4.6835669e-19
4.6508487e-19
9.2364548e-19
-4.5857037e-19
-1.365984e-18
4.520958e-19
-2.4922284e-31
8.9132341e-19
4.4245929e-19
-8.7853277e-19
8.7216607e-19
4.8810707e-48
-8.5949068e-19
0
0
8.4061464e-19
-4.6265599e-31
-1.3792262e-30
4.7939074e-48
-1.2234906e-18
-4.4936683e-31
4.0163111e-19
7.9707932e-19
7.9090581e-19
-7.8474121e-19
-8.643481e-31
-3.8621911e-19
-1.2762809e-30
3.8008397e-19
-7.5404314e-19
0
-3.7090526e-19
4.0826593e-31
3.6479905e-19
7.2349823e-19
3.9811025e-31
-7.1130576e-19
0
0
-3.4650864e-19
1.9064578e-31
1.0212227e-18
3.7451431e-31
-6.6859555e-19
0
3.2817442e-19
-3.2510668e-19
-3.2203455e-19
-3.1895774e-19
-3.1587581e-19
6.255765e-19
9.2908382e-19
-3.0659453e-19
-6.0697559e-19
9.0112272e-19
1.2032623e-48
-5.8825102e-19
0
0
0
0
5.5670712e-19
5.5034016e-19
-2.7197592e-19
-8.0631144e-19
-2.949553e-31
2.6232346e-19
-5.1816218e-19
-5.116516e-19
2.5255731e-19
9.9710082e-19
4.9195788e-19
-7.2800382e-19
-4.7868339e-19
7.079997e-19
5.1647067e-31
-4.5853808e-19
0
0
0
4.3122649e-19
2.3552656e-31
-4.6339997e-31
2.0519243e-19
-6.0505228e-19
1.981586e-19
1.9461608e-19
-5.7316995e-19
-3.7496086e-19
1.8388752e-19
3.6055613e-19
3.5330466e-19
-5.7630256e-31
1.8805607e-31
-4.7089364e-35
-3.2398794e-19
0
-1.5457774e-19
-1.5084911e-19
1.4710712e-19
1.4335208e-19
-1.3958431e-19
-1.3580429e-19
2.6402509e-19
1.2820953e-19
-1.243957e-19
1.2057149e-19
-1.1673727e-19
-2.2578686e-19
0
0
3.0392224e-19
9.7426642e-20
-1.8706993e-19
-8.9629631e-20
-8.570901e-20
1.6354758e-19
-8.6441475e-32
-1.4772644e-19
0
6.5922863e-20
1.8587025e-19
1.2876424e-31