-1.25 	300.0274067980881 	1.073197725040752 	101354.3892626147
-1.247497497497497 	300.0295363362362 	1.082273359821851 	101359.9526605373
-1.244994994994995 	300.0334477255471 	1.096577740118873 	101364.5334788191
-1.242492492492492 	300.036708348094 	1.106121097868833 	101368.4027905979
-1.23998998998999 	300.0393108494811 	1.113664518797573 	101371.4800449591
-1.237487487487487 	300.0411927250935 	1.119095343160266 	101373.7056422943
-1.234984984984985 	300.0423195266009 	1.122351783743991 	101375.03831704
-1.232482482482482 	300.0426719652055 	1.123369190155891 	101375.4548940668
-1.22997997997998 	300.0422433326917 	1.122128572620976 	101374.9479469614
-1.227477477477477 	300.0410402436859 	1.118651809462275 	101373.5257326677
-1.224974974974975 	300.0390854669886 	1.113002349288402 	101371.2144699787
-1.222472472472472 	300.0364153005043 	1.105284001834767 	101368.0568981664
-1.21996996996997 	300.0330780518246 	1.095637299369475 	101364.1104629455
-1.217467467467467 	300.0291341060208 	1.084237406533708 	101359.4467666484
-1.214964964964965 	300.0246555569687 	1.071292272033219 	101354.1510425177
-1.212462462462462 	300.0197241547562 	1.057038131832946 	101348.3200743606
-1.20995995995996 	300.0144296389294 	1.04173484827301 	101342.0600799727
-1.207457457457457 	300.0088691541841 	1.025662773002646 	101335.4858238742
-1.204954954954955 	300.0031449205137 	1.009117385721934 	101328.7183495841
-1.202452452452452 	299.9973620394455 	0.9924022983531965 	101321.8818361282
-1.19994994994995 	299.9916264315196 	0.9758242051496928 	101315.1015591116
-1.197447447447447 	299.9860439070707 	0.9596888203564835 	101308.5025756602
-1.194944944944945 	299.9807178888958 	0.9442944023300268 	101302.2069874991
-1.192442442442442 	299.9757462171495 	0.9299243872769212 	101296.3305403582
-1.18993993993994 	299.9712201891917 	0.9168428469080709 	101290.9810397716
-1.187437437437437 	299.967223267612 	0.9052909499950115 	101286.2571052738
-1.184934934934935 	299.9638293245079 	0.8954820093381979 	101282.2459212284
-1.182432432432432 	299.9611008862531 	0.8875966051864854 	101279.0212709877
-1.17992992992993 	299.9590877181134 	0.8817787465655752 	101276.6420311226
-1.177427427427427 	299.957825987189 	0.8781329760074992 	101275.1508625337
-1.174924924924925 	299.9573375232746 	0.8767234607843805 	101274.5737818206
-1.172422422422422 	299.9576311330518 	0.8775750882615938 	101274.9210155965
-1.16991991991992 	299.9587023192447 	0.8806719541924197 	101276.1865744621
-1.167417417417417 	299.9605297205633 	0.8859544889531688 	101278.3458837661
-1.164914914914915 	299.9630782167479 	0.8933223964549046 	101281.3576810783
-1.162412412412412 	299.9663010720574 	0.9026392562708676 	101285.1665055678
-1.15990990990991 	299.9701390332624 	0.913733759124806 	101289.7024653601
-1.157407407407407 	299.9745214138046 	0.9264017444019872 	101294.8820832861
-1.154904904904904 	299.9793678575636 	0.9404109661407775 	101300.6104089395
-1.152402402402403 	299.9845901282006 	0.9555059988539896 	101306.7831377904
-1.1498998998999 	299.9900930683428 	0.9714120154769446 	101313.2879964235
-1.147397397397397 	299.9957763523112 	0.98783887345927 	101320.0063314812
-1.144894894894895 	300.0015361427727 	1.004486515111752 	101326.8154058668
-1.142392392392392 	300.0072671779183 	1.021051085888827 	101333.5908974817
-1.13988988988989 	300.0128652164868 	1.037231035623627 	101340.2094211853
-1.137387387387387 	300.0182286047383 	1.052732452638107 	101346.5508011321
-1.134884884884885 	300.0232597701577 	1.067273285481485 	101352.4996781864
-1.132382382382382 	300.027866687032 	1.080587737165126 	101357.9471747647
-1.12987987987988 	300.0319649326273 	1.092431932329587 	101362.7933656247
-1.127377377377377 	300.0354796794365 	1.102589446307484 	101366.9496599561
-1.124874874874875 	300.038346739884 	1.110874987373256 	101370.3402172739
-1.122372372372372 	300.0405137446666 	1.117137025350477 	101372.9029598277
-1.11986986986987 	300.0419408558884 	1.12126055860758 	101374.5907650973
-1.117367367367367 	300.042601938133 	1.123169134993438 	101375.3723976456
-1.114864864864865 	300.0424840946412 	1.122824687714158 	101375.2324340781
-1.112362362362362 	300.0415861653651 	1.120228608439939 	101374.17080065
-1.10985985985986 	300.039924076287 	1.115425451940495 	101372.2058742264
-1.107357357357357 	300.0375290032394 	1.108502276671307 	101369.3737278597
-1.104854854854855 	300.0344438992943 	1.099584404290831 	101365.7255064113
-1.102352352352353 	300.0307244373776 	1.088833056097789 	101361.3272190808
-1.09984984984985 	300.0264379835522 	1.076443072643346 	101356.2586521533
-1.097347347347347 	300.0216625178278 	1.062639854257462 	101350.6120143465
-1.094844844844845 	300.0164854889605 	1.047676295148635 	101344.4908036507
-1.092342342342342 	300.0110024924274 	1.031828580610899 	101338.0081383653
-1.08983983983984 	300.0053152006385 	1.015390321887751 	101331.2842275869
-1.087337337337337 	299.999529017967 	0.9986662050993509 	101324.4437236763
-1.084834834834835 	299.9937512096715 	0.9819662540435474 	101317.613429132
-1.082332332332332 	299.9880889762903 	0.9656003075920052 	101310.9200404207
-1.07982982982983 	299.9826473348767 	0.9498721357661464 	101304.4877520085
-1.077327327327327 	299.9775272820405 	0.935073571065742 	101298.4358667771
-1.074824824824825 	299.972823794204 	0.9214789298802721 	101292.876502886
-1.072322322322323 	299.9686237180211 	0.9093395153073368 	101287.9123696913
-1.06981981981982 	299.9650042962823 	0.8988784274794412 	101283.6346512851
-1.067317317317317 	299.9620314424125 	0.8902861424899308 	101280.1211438012
-1.064814814814815 	299.9597584867043 	0.8837171560545816 	101277.4349149026
-1.062312312312312 	299.9582258059884 	0.8792879078392178 	101275.623500097
-1.05980980980981 	299.9574599432186 	0.8770755929582182 	101274.7183906213
-1.057307307307307 	299.9574734354974 	0.877117659318176 	101274.7347541834
-1.054804804804805 	299.9582664460297 	0.8794107574756056 	101275.6717425
-1.052302302302302 	299.9598225860685 	0.8839084962245836 	101277.5102917146
-1.0497997997998 	299.9621105990528 	0.8905229812288569 	101280.2141411405
-1.047297297297297 	299.9650877898718 	0.8991296801230637 	101283.7325743023
-1.044794794794795 	299.9686992913271 	0.9095698712571907 	101288.0008593454
-1.042292292292292 	299.9728790361583 	0.9216522303862369 	101292.9408573485
-1.03978978978979 	299.9775506545254 	0.9351560244831705 	101298.4623853722
-1.037287287287287 	299.9826290125476 	0.9498353685526459 	101304.4649565571
-1.034784784784785 	299.9880219630603 	0.9654238641294082 	101310.8397009802
-1.032282282282283 	299.9936319616119 	0.981639216089876 	101317.4712402955
-1.02977977977978 	299.9993573383759 	0.998187924297774 	101324.2395629842
-1.027277277277277 	300.0050944996983 	1.014770351351083 	101331.0221114493
-1.024774774774775 	300.010739480171 	1.031086131979776 	101337.6960325903
-1.022272272272272 	300.0161899477441 	1.046839489049938 	101344.1403261078
-1.01976976976977 	300.0213470166041 	1.061744382066889 	101350.2379221936
-1.017267267267267 	300.026116778319 	1.075529843064629 	101355.8778900686
-1.014764764764765 	300.0304126059291 	1.08794527763934 	101360.9576447491
-1.012262262262262 	300.0341563955376 	1.098764902983362 	101365.3847762054
-1.00975975975976 	300.0372798301909 	1.107791222021813 	101369.0784378582
-1.007257257257257 	300.0397254192858 	1.114858162321945 	101371.9705884554
-1.004754754754755 	300.0414475816466 	1.119834188200956 	101374.0073108042
-1.002252252252252 	300.0424138238976 	1.122625071736702 	101375.150012174
-0.9997497497497498 	300.0426053904998 	1.123175170000976 	101375.3761392596
-0.9972472472472473 	300.0420153993627 	1.121467616278672 	101374.6783510433
-0.9947447447447449 	300.0406521807182 	1.117527507026079 	101373.0667108802
-0.9922422422422421 	300.038540492234 	1.111423514038859 	101370.5697802499
-0.9897397397397399 	300.0357178889676 	1.103264025781816 	101367.2319546144
-0.9872372372372376 	300.032234382028 	1.093194541861156 	101363.1126643716
-0.9847347347347346 	300.0281527570212 	1.081396587553138 	101358.2862156078
-0.9822322322322323 	300.0235474016438 	1.068085265681315 	101352.8406815916
-0.9797297297297296 	300.0185031345242 	1.053505578476966 	101346.8763800645
-0.9772272272272275 	300.0131134545923 	1.037927677009666 	101340.5039209149
-0.9747247247247248 	300.0074786620073 	1.021641433216516 	101333.8419673017
-0.9722222222222224 	300.0017040025651 	1.004950877340479 	101327.0149182143
-0.9697197197197196 	299.9958974837368 	0.9881684794984554 	101320.1505997223
-0.9672172172172175 	299.9901681378323 	0.9716090274194102 	101313.3777958952
-0.9647147147147147 	299.9846234396522 	0.9555830425249395 	101306.8235153597
-0.9622122122122124 	299.9793668650793 	0.9403900543791489 	101300.6102175984
-0.9597097097097099 	299.9744963354299 	0.9263124622440835 	101294.8533279578
-0.9572072072072073 	299.9701016425819 	0.9136103194661327 	101289.6590916312
-0.9547047047047047 	299.9662633532029 	0.9025166526614049 	101285.122716716
-0.9522022022022023 	299.9630514234006 	0.8932330851317497 	101281.3265922166
-0.9496996996996998 	299.9605232319337 	0.8859260816671318 	101278.3387041558
-0.9471971971971973 	299.9587233096913 	0.8807241474734603 	101276.2115064157
-0.9446946946946947 	299.9576823848196 	0.8777160875839182 	101274.9812619997
-0.9421921921921923 	299.9574167458031 	0.8769505612729924 	101274.6676477175
-0.93968968968969 	299.9579301935284 	0.8784365555065946 	101275.2745717294
-0.9371871871871872 	299.9592121681071 	0.882141694090953 	101276.7890920662
-0.9346846846846848 	299.9612358550861 	0.8879916292499749 	101279.1804705785
-0.9321821821821823 	299.9639624497628 	0.8958739482940564 	101282.4027570299
-0.9296796796796799 	299.9673413277843 	0.9056414907338547 	101286.3959841135
-0.9271771771771771 	299.9713101479107 	0.9171144560176548 	101291.0867035593
-0.9246746746746748 	299.9757967423851 	0.9300836139106066 	101296.3894298222
-0.9221721721721724 	299.9807197092368 	0.9443141962741999 	101302.2082586261
-0.9196696696696698 	299.9859904549645 	0.9595497863918347 	101308.4384453653
-0.9171671671671672 	299.9915142827763 	0.9755162190397284 	101314.9679481682
-0.9146646646646649 	299.9971914293506 	0.9919259043920119 	101321.6791860181
-0.9121621621621623 	300.0029197507487 	1.008482921687953 	101328.4511242489
-0.9096596596596597 	300.0085957812948 	1.024888654509885 	101335.1615934934
-0.9071571571571573 	300.0141171476798 	1.040847397197703 	101341.6896299116
-0.9046546546546547 	300.0193846092344 	1.056071591383932 	101347.9175933761
-0.9021521521521524 	300.0243029214399 	1.070286664126128 	101353.7331247709
-0.8996496496496498 	300.0287832827316 	1.083235550703702 	101359.0310147335
-0.8971471471471473 	300.0327443552293 	1.094683020796563 	101363.7149774096
-0.894644644644645 	300.036113572286 	1.104419786096752 	101367.6992915173
-0.892142142142142 	300.0388289333503 	1.112266311802643 	101370.9104163246
-0.8896396396396397 	300.0408397165824 	1.118076204065499 	101373.2883760088
-0.8871371371371374 	300.0421075705054 	1.121738917032738 	101374.7878854893
-0.8846346346346349 	300.0426077360572 	1.123181389075556 	101375.3791430575
-0.8821321321321324 	300.0423278279138 	1.122368182036509 	101375.0476621374
-0.8796296296296297 	300.0412678897204 	1.119304129635197 	101373.7946599736
-0.8771271271271271 	300.0394461999913 	1.114038412539854 	101371.6407328142
-0.8746246246246248 	300.0368947522866 	1.10666270033241 	101368.6236312736
-0.8721221221221224 	300.0336584078387 	1.097307260547404 	101364.7965275219
-0.8696196196196196 	300.0297948802131 	1.086139457602165 	101360.2279123653
-0.8671171171171175 	300.025374150139 	1.073361837179999 	101355.0006807968
-0.8646146146146148 	300.0204776192787 	1.059209045264014 	101349.2108958077
-0.8621121121121121 	300.0151960363001 	1.04394395157121 	101342.9661802517
-0.8596096096096097 	300.0096285824059 	1.027852716799023 	101336.3836980555
-0.857107107107107 	300.0038802761695 	1.0112388770228 	101329.5877188641
-0.8546046046046049 	299.9980599005893 	0.9944167764601961 	101322.7068944596
-0.8521021021021022 	299.9922776665632 	0.977704718517508 	101315.871440458
-0.8495995995995997 	299.9866427513942 	0.9614182310019752 	101309.2104163214
-0.8470970970970974 	299.9812610535095 	0.9458636217469243 	101302.8490586167
-0.8445945945945946 	299.9762332562372 	0.9313318219913352 	101296.9062876345
-0.8420920920920922 	299.9716527676081 	0.9180925733187365 	101291.4923527654
-0.8395895895895897 	299.9676035933446 	0.9063891230221663 	101286.7066596856
-0.8370870870870872 	299.9641592858364 	0.8964336264165566 	101282.635868411
-0.8345845845845846 	299.9613810466549 	0.8884035330756599 	101279.3524402457
-0.8320820820820823 	299.9593173761588 	0.8824390179005792 	101276.9135847712
-0.8295795795795798 	299.9580034004215 	0.8786411866820236 	101275.3605651119
-0.8270770770770772 	299.9574596730117 	0.8770709883960488 	101274.7181994718
-0.8245745745745746 	299.9576936726491 	0.877749622168677 	101274.9950501931
-0.8220720720720721 	299.9586998531125 	0.8806577409699218 	101276.1837963132
-0.8195695695695699 	299.9604560432175 	0.8857338189352579 	101278.2589093416
-0.817067067067067 	299.9629271592269 	0.892877269360163 	101281.1791355865
-0.8145645645645651 	299.9660665801823 	0.9019530514275864 	101284.8894478811
-0.8120620620620621 	299.9698167130381 	0.9127939168523077 	101289.3215745651
-0.8095595595595597 	299.9741093438006 	0.9252027282694604 	101294.3950205962
-0.8070570570570572 	299.9788669530948 	0.9389555643557094 	101300.0183298443
-0.8045545545545546 	299.9840041582966 	0.9538052013715221 	101306.0904972223
-0.8020520520520523 	299.989428707117 	0.9694851422899929 	101312.502620104
-0.7995495495495494 	299.9950433064652 	0.9857142686826164 	101319.1397613621
-0.7970470470470474 	300.0007475185577 	1.0022018908138 	101325.8830457984
-0.7945445445445446 	300.0064390449689 	1.018652909313563 	101332.6117840519
-0.7920420420420423 	300.0120161664898 	1.034772914436266 	101339.2055486246
-0.7895395395395397 	300.0173789886276 	1.050273133168741 	101345.5462065499
-0.7870370370370371 	300.0224311683955 	1.064875348411397 	101351.5199309847
-0.7845345345345348 	300.0270819227365 	1.078316747009932 	101357.0191525566
-0.7820320320320323 	300.031247046345 	1.09035437909012 	101361.9444142643
-0.7795295295295296 	300.0348508239727 	1.100769105624161 	101366.2060223299
-0.7770270270270272 	300.0378269551132 	1.109369184048576 	101369.7254579514
-0.7745245245245247 	300.0401195362557 	1.115993577460553 	101372.4367500769
-0.7720220220220222 	300.0416847314235 	1.120515088271946 	101374.2877696644
-0.7695195195195199 	300.0424910578473 	1.122843118435227 	101375.2413888528
-0.767017017017017 	300.0425210192726 	1.122924819617303 	101375.2762272545
-0.7645145145145147 	300.0417679828362 	1.120746283350607 	101374.3858575701
-0.7620120120120122 	300.0402425510912 	1.116337005554849 	101372.5824619722
-0.7595095095095097 	300.0379711744471 	1.109770453683121 	101369.896519945
-0.7570070070070072 	300.0349925919948 	1.101159951477439 	101366.374292021
-0.7545045045045048 	300.0313591976332 	1.090657250100968 	101362.077803086
-0.7520020020020022 	300.0271364857202 	1.07845161266788 	101357.084534516
-0.7494994994994997 	300.0224019050282 	1.064767180284629 	101351.4862563368
-0.7469969969969972 	300.0172438004662 	1.049859031986178 	101345.3874070455
-0.7444944944944945 	300.0117594512951 	1.034008202838225 	101338.9030577043
-0.7419919919919924 	300.0060529888117 	1.017515811579089 	101332.1564934156
-0.7394894894894897 	300.0002335272678 	1.000696548909626 	101325.2765431753
-0.7369869869869872 	299.9944121697882 	0.9838717218990272 	101318.3946953324
-0.7344844844844846 	299.9886998109709 	0.9673620681172904 	101311.6421618855
-0.7319819819819822 	299.9832050999395 	0.9514806782066744 	101305.1469802549
-0.7294794794794797 	299.9780311135907 	0.9365263797174825 	101299.0313212141
-0.7269769769769773 	299.9732743324831 	0.9227777255954531 	101293.4090359351
-0.7244744744744747 	299.9690224020387 	0.9104876878570493 	101288.3834836075
-0.721971971971972 	299.9653520688688 	0.8998791834443308 	101284.0457032584
-0.7194694694694695 	299.9623291297955 	0.8911413793065621 	101280.4729472271
-0.7169669669669674 	299.960006056094 	0.8844266064646801 	101277.727435896
-0.7144644644644647 	299.9584219583431 	0.8798480217912301 	101275.8553680449
-0.711961961961962 	299.9576021246602 	0.8774782964895262 	101274.886367247
-0.7094594594594597 	299.9575569132855 	0.8773499603656387 	101274.8334392364
-0.7069569569569573 	299.958285507737 	0.8794561576864733 	101275.6942915131
-0.7044544544544545 	299.9597708973977 	0.8837490113770324 	101277.4492710553
-0.7019519519519523 	299.9619820410612 	0.8901409356796803 	101280.0622758294
-0.6994494494494495 	299.9648768336731 	0.8985093000020812 	101283.4833429836
-0.6969469469469471 	299.968401608885 	0.9086987537653539 	101287.6490892322
-0.6944444444444446 	299.9724920566684 	0.9205232916363079 	101292.4835260843
-0.6919419419419421 	299.9770743266772 	0.9337694317028682 	101297.8994900892
-0.6894394394394396 	299.9820663677877 	0.9481996946665988 	101303.7999865095
-0.6869369369369374 	299.9873789414521 	0.9635563372751 	101310.0796656355
-0.6844344344344344 	299.9929174482156 	0.9795656731369626 	101316.6266603658
-0.6819319319319321 	299.998583239019 	0.9959427275506563 	101323.3244805921
-0.6794294294294296 	300.0042754358045 	1.012395956753689 	101330.053886795
-0.6769269269269272 	300.0098928162562 	1.02863243768671 	101336.6950409729
-0.6744244244244245 	300.0153352591292 	1.044363392222372 	101343.129819566
-0.6719219219219222 	300.0205061631744 	1.059308908537977 	101349.2437359625
-0.6694194194194195 	300.0253130200683 	1.073201857516254 	101354.9275109594
-0.6669169169169172 	300.0296692956202 	1.085792141700227 	101360.0787588156
-0.6644144144144146 	300.033496082172 	1.096851189369187 	101364.6038958923
-0.661911911911912 	300.036722725293 	1.106175679834939 	101368.4197061153
-0.6594094094094097 	300.039289070142 	1.113590852486302 	101371.4545816208
-0.656906906906907 	300.0411454932263 	1.118954177516213 	101373.6500586769
-0.6544044044044046 	300.0422550784505 	1.122158735771109 	101374.9623739371
-0.6519019019019021 	300.0425943116602 	1.123134772048217 	101375.3631661323
-0.6493993993993996 	300.0421511332052 	1.121849491482018 	101374.8387853631
-0.6468968968968971 	300.0409272450345 	1.118311490108246 	101373.3919873599
-0.6443943943943946 	300.0389429844579 	1.112575211137896 	101371.0457763699
-0.6418918918918921 	300.036231858296 	1.104737366989581 	101367.8397979752
-0.6393893893893897 	300.0328404367261 	1.094933491788708 	101363.8293290076
-0.6368868868868871 	300.0288287873249 	1.083338106721672 	101359.0856980179
-0.6343843843843846 	300.0242706838077 	1.070163745858442 	101353.6959681732
-0.6318818818818821 	300.0192513432983 	1.055656640662249 	101347.7610773554
-0.6293793793793795 	300.0138655479279 	1.040090913004633 	101341.3932104534
-0.6268768768768773 	300.0082161992601 	1.023763798003553 	101334.7139455786
-0.6243743743743745 	300.0024126299223 	1.006990405517288 	101327.8523860724
-0.6218718718718721 	299.9965669811518 	0.9900952140368375 	101320.9415326592
-0.6193693693693696 	299.9907910673024 	0.9734024565802736 	101314.1139854462
-0.6168668668668671 	299.9851951696504 	0.9572297296954533 	101307.4994411595
-0.6143643643643645 	299.9798856188826 	0.9418837737249479 	101301.223342518
-0.6118618618618621 	299.9749622331732 	0.9276537477754027 	101295.4040983426
-0.6093593593593596 	299.9705162655356 	0.9148026615391029 	101290.1492035523
-0.6068568568568571 	299.9666276218153 	0.9035625758770331 	101285.5532070511
-0.6043543543543546 	299.963365459168 	0.8941338584066476 	101281.6978704499
-0.6018518518518521 	299.9607877007055 	0.8866824255568763 	101278.6512323313
-0.5993493493493496 	299.95893740381 	0.8813336690276654 	101276.4646022864
-0.5968468468468471 	299.9578430281741 	0.8781697361698676 	101275.1711502754
-0.5943443443443446 	299.9575186889389 	0.8772336846964179 	101274.7880470695
-0.591841841841842 	299.9579677179824 	0.8785338976361698 	101275.319068306
-0.5893393393393397 	299.9591809495756 	0.882038794827031 	101276.7521828458
-0.5868368368368371 	299.9611297456494 	0.8876713120846809 	101279.0551192054
-0.5843343343343346 	299.9637744099054 	0.8953166448814023 	101282.1805033835
-0.5818318318318321 	299.9670658419905 	0.9048325617768527 	101286.0704304496
-0.5793293293293297 	299.9709460535248 	0.9160496849379848 	101290.6563907764
-0.5768268268268271 	299.9753453420128 	0.9287657501942584 	101295.8559098105
-0.5743243243243245 	299.9801822281963 	0.9427473464537046 	101301.5729807505
-0.5718218218218221 	299.9853694128929 	0.9577426312550853 	101307.7042980988
-0.5693193193193196 	299.9908171205357 	0.9734909186674195 	101314.1438824501
-0.5668168168168171 	299.9964314692729 	0.9897190044715798 	101320.7807623462
-0.5643143143143147 	300.0021116079233 	1.00613615113818 	101327.4957446047
-0.5618118118118121 	300.0077535268591 	1.022444058128511 	101334.1658349951
-0.5593093093093094 	300.0132576272852 	1.038355251312276 	101340.6733618783
-0.5568068068068072 	300.0185310807769 	1.05359840788653 	101346.9084466033
-0.5543043043043046 	300.0234823960385 	1.067907482101119 	101352.7628916139
-0.551801801801802 	300.0280189416771 	1.081017145989128 	101358.1272308185
-0.5492992992992995 	300.0320542289932 	1.09267977310788 	101362.8988964706
-0.5467967967967969 	300.035516024339 	1.10268653719437 	101366.9926871171
-0.5442942942942947 	300.0383464733803 	1.110865909195784 	101370.3399097656
-0.5417917917917919 	300.040492976742 	1.117064528565396 	101372.8783210854
-0.5392892892892895 	300.0419058312488 	1.121143052729295 	101374.5493553644
-0.536786786786787 	300.0425491430668 	1.123000167066662 	101375.3099998054
-0.5342842842842846 	300.042409712034 	1.122595242966931 	101375.1445401593
-0.531781781781782 	300.0414913344445 	1.119939947647724 	101374.0588985926
-0.5292792792792794 	300.039808924508 	1.115072049822375 	101372.0696801931
-0.526776776776777 	300.0373799797286 	1.108046370697124 	101369.1975362142
-0.5242742742742745 	300.0342366816802 	1.098961174128732 	101365.480394961
-0.521771771771772 	300.0304386844845 	1.087988365663523 	101360.9893207642
-0.5192692692692695 	300.02606882963 	1.075359915756234 	101355.8221747724
-0.516766766766767 	300.0212133534405 	1.061321608762942 	101350.0808549914
-0.5142642642642645 	300.0159521422383 	1.046110861856168 	101343.8603098621
-0.511761761761762 	300.0103725379957 	1.02998622421464 	101337.2633349719
-0.5092592592592596 	300.0045849653173 	1.013267169095202 	101330.4208911519
-0.506756756756757 	299.9987203697175 	0.9963232360143449 	101323.4878154009
-0.5042542542542544 	299.9929050148876 	0.9795117721236097 	101316.6130334384
-0.5017517517517521 	299.9872399481568 	0.9631302518520506 	101309.9165192932
-0.4992492492492494 	299.9818111791959 	0.9474365981384649 	101303.4993766905
-0.496746746746747 	299.9767134603062 	0.9327099256548569 	101297.473886907
-0.4942442442442445 	299.9720605962161 	0.9192714588417419 	101291.9745349858
-0.4917417417417421 	299.9679631102127 	0.9074280893936455 	101287.131551557
-0.4892392392392395 	299.9644951348873 	0.8973933344225342 	101283.0329409264
-0.486736736736737 	299.9616899565148 	0.8892737485564062 	101279.717583409
-0.4842342342342345 	299.95956740218 	0.883139652288669 	101277.2090475964
-0.481731731731732 	299.9581661290926 	0.8791024396700735 	101275.5530452244
-0.4792292292292296 	299.9575413560282 	0.877307483505787 	101274.8146564966
-0.4767267267267268 	299.9577271988639 	0.8778427827866774 	101275.0348363008
-0.4742242242242246 	299.958707057135 	0.8806573612404809 	101276.1923774618
-0.471721721721722 	299.9604148732724 	0.8855808873207014 	101278.2102316963
-0.4692192192192195 	299.9627846805435 	0.8924374876000061 	101281.0108598345
-0.4667167167167169 	299.9657875946402 	0.9011378380664324 	101284.5597334375
-0.4642142142142145 	299.9694187255785 	0.9116486287255801 	101288.8511973575
-0.461711711711712 	299.9736478178437 	0.9238673131005251 	101293.8495804903
-0.4592092092092094 	299.9783812420831 	0.9375277727345702 	101299.4441771703
-0.456706706706707 	299.983476232927 	0.9522389972282339 	101305.4665146222
-0.4542042042042045 	299.9887990281984 	0.9676311675740626 	101311.7582985722
-0.451701701701702 	299.9942714255175 	0.9834748556630355 	101318.2272485688
-0.4491991991991995 	299.9998626139784 	0.9996584931422545 	101324.8369494702
-0.4466966966966969 	300.0055310767286 	1.01604106276816 	101331.5382922299
-0.4441941941941945 	300.0111708249249 	1.03231666064756 	101338.2060731896
-0.441691691691692 	300.0166142598115 	1.04802258457489 	101344.6420382855
-0.4391891891891895 	300.0216924902386 	1.062695624039743 	101350.6464353871
-0.436686686686687 	300.0263034564449 	1.076047101952528 	101356.0986966339
-0.4341841841841846 	300.0304293583187 	1.088005605941741 	101360.9774420898
-0.431681681681682 	300.0340852650766 	1.098586446122175 	101365.3007273586
-0.4291791791791794 	300.037243727589 	1.107695071670445 	101369.035744751
-0.426676676676677 	300.0397964829908 	1.115031609783657 	101372.054638533
-0.4241741741741744 	300.0415904407842 	1.120183943619375 	101374.1762739599
-0.421671671671672 	300.0425105523247 	1.122843829950512 	101375.2644257383
-0.4191691691691694 	300.0425464547819 	1.122978477657016 	101375.3063168843
-0.4166666666666669 	300.041786506627 	1.120822179272273 	101374.4078135658
-0.4141641641641645 	300.0403525237948 	1.116692887564084 	101372.7124971025
-0.411661661661662 	300.0383101196409 	1.110763763103952 	101370.2974100207
-0.4091591591591594 	300.0356284917268 	1.102961584422226 	101367.1262149804
-0.406656656656657 	300.0322229376009 	1.093076714800655 	101363.0991909606
-0.4041541541541545 	300.0280478944699 	1.08100605020665 	101358.1622688659
-0.401651651651652 	300.0231739981535 	1.066958038203178 	101352.3991878855
-0.3991491491491494 	300.0177972721215 	1.051474999139444 	101346.0418659895
-0.396646646646647 	300.0121707998347 	1.035251283227062 	101339.3894112298
-0.3941441441441444 	300.0065022775984 	1.018862785506557 	101332.6876431859
-0.3916416416416419 	300.000884651161 	1.002580245216763 	101326.0463164551
-0.3891391391391395 	299.9953005218708 	0.9863811664408014 	101319.4448692815
-0.3866366366366368 	299.9896966195921 	0.9701477885467749 	101312.8204683292
-0.3841341341341344 	299.9840809952594 	0.9539253488650503 	101306.1823695183
-0.381631631631632 	299.978582384892 	0.938083214034563 	101299.6829703144
-0.3791291291291294 	299.9734392953477 	0.9232838661359669 	101293.6040365171
-0.3766266266266269 	299.9689232145463 	0.910276696199627 	101288.2663217508
-0.3741241241241244 	299.9652387078231 	0.8996283291777074 	101283.911741455
-0.371621621621622 	299.962453269705 	0.8915308276072004 	101280.6196376612
-0.3691191191191194 	299.9604900077416 	0.8857845108515698 	101278.2994085674
-0.366616616616617 	299.9591890173099 	0.8819610536589931 	101276.761855636
-0.3641141141141143 	299.9584021587336 	0.879662225072087 	101275.8318755485
-0.3616116116116119 	299.958076022562 	0.8787460761970975 	101275.4465748487
-0.3591091091091095 	299.9582845182876 	0.8794158841920403 	101275.693357038
-0.356606606606607 	299.9591988728758 	0.8821349347259742 	101276.7736033418
-0.3541041041041044 	299.9610045344426 	0.8874094619104549 	101278.9071561576
-0.3516016016016019 	299.9638138822501 	0.895541879628601 	101282.2270920592
-0.3490990990990994 	299.9676027213532 	0.9064565412876592 	101286.7049394843
-0.346596596596597 	299.9721968337822 	0.9196631317516381 	101292.1345618347
-0.3440940940940944 	299.977313171024 	0.9343715576934577 	101298.1817523759
-0.3415915915915919 	299.9826399748885 	0.9497102936982661 	101304.4780541986
-0.3390890890890895 	299.9879221451808 	0.9649622848115842 	101310.7217775589
-0.3365865865865869 	299.9930212567344 	0.9797333188703289 	101316.7495233646
-0.3340840840840844 	299.9979332894183 	0.9940008193281545 	101322.5562287047
-0.3315815815815819 	300.0027597589603 	1.00803716756917 	101328.2620532776
-0.3290790790790794 	300.0076478998744 	1.022242795665804 	101334.0410669546
-0.3265765765765769 	300.0127195288373 	1.036948115621446 	101340.0371255656
-0.3240740740740744 	300.0180103684851 	1.052245083613417 	101346.2927644019
-0.3215715715715718 	300.023437694272 	1.067893711862004 	101352.7099776425
-0.3190690690690695 	300.0288003294434 	1.08332304628807 	101359.051041734
-0.3165665665665668 	300.0338103933036 	1.097717577811717 	101364.975573733
-0.3140640640640644 	300.0381441256688 	1.11015941048904 	101370.1004421511
-0.311561561561562 	300.0414980856056 	1.119788643492414 	101374.0669622501
-0.3090590590590593 	300.0436406355461 	1.125946711755679 	101376.6008691179
-0.3065565565565568 	300.044446726266 	1.12827595770275 	101377.5539501545
-0.3040540540540545 	300.0439118140305 	1.126759281391235 	101376.9202856101
-0.3015515515515518 	300.0421415344944 	1.121706879479072 	101374.8279609371
-0.2990490490490494 	300.0393442956971 	1.113698765023563 	101371.5204278164
-0.2965465465465469 	300.0357835000211 	1.103485892699427 	101367.3096431639
-0.2940440440440444 	300.0317438906359 	1.091882300623251 	101362.532729479
-0.2915415415415418 	300.0274997549324 	1.079673449353423 	101357.5141100724
-0.2890390390390395 	300.0232897566176 	1.067545283667157 	101352.5360154873
-0.2865365365365368 	300.0193020000703 	1.056040887550326 	101347.8208570086
-0.2840340340340343 	300.015668805679 	1.04554438398694 	101343.5250611975
-0.2815315315315318 	300.0124688705136 	1.036286304131752 	101339.7416387673
-0.2790290290290295 	300.0097343818813 	1.028363397964724 	101336.5086067573
-0.2765265265265269 	300.007460822527 	1.02176636159163 	101333.8205895988
-0.2740240240240244 	300.0056175450864 	1.016409964487163 	101331.6413255137