/*--------------------------------*- C++ -*----------------------------------*\
| =========                 |                                                 |
| \\      /  F ield         | OpenFOAM: The Open Source CFD Toolbox           |
|  \\    /   O peration     | Version:  4.x                                   |
|   \\  /    A nd           | Web:      www.OpenFOAM.org                      |
|    \\/     M anipulation  |                                                 |
\*---------------------------------------------------------------------------*/
FoamFile
{
    version     2.0;
    format      ascii;
    class       volVectorField;
    location    "0.36";
    object      U;
}
// * * * * * * * * * * * * * * * * * * * * * * * * * * * * * * * * * * * * * //

dimensions      [0 1 -1 0 0 0 0];

internalField   nonuniform List<vector> 
25344
(
(0.02692661342 0.00306545087 0.003065452294)
(0.03062477118 0.00414373759 0.003665139455)
(0.03067928733 0.002100379413 0.003709973831)
(0.03036021721 0.001616039741 0.003752340644)
(0.03020664883 0.0009276844526 0.003756707571)
(0.03012430669 0.0006814092349 0.003762901951)
(0.03062477136 0.00366513799 0.004143742366)
(0.03535403347 0.005045076546 0.005045081702)
(0.03534689055 0.002584614308 0.005120975056)
(0.03500010298 0.00186010261 0.005117901439)
(0.03487349661 0.001022006615 0.005107991755)
(0.03483096019 0.0007221420539 0.005105109467)
(0.03067928742 0.00370997242 0.002100387142)
(0.03534689031 0.005120970053 0.002584622679)
(0.03533471121 0.002597478266 0.002597486011)
(0.03502944179 0.001885849482 0.002581332896)
(0.03493177298 0.001050061492 0.002561811938)
(0.03489899976 0.0007567166912 0.002555516206)
(0.0303602175 0.00375233925 0.001616049856)
(0.03500010317 0.005117896744 0.001860113539)
(0.03502944174 0.002581325503 0.00188585959)
(0.03476110705 0.001867045289 0.001867055169)
(0.03467694559 0.001044343319 0.001847086923)
(0.03464969413 0.0007579832998 0.001830546922)
(0.03020664906 0.00375670613 0.00092769631)
(0.03487349689 0.005107987085 0.001022019142)
(0.03493177315 0.002561804689 0.001050072828)
(0.03467694574 0.001847077314 0.001044354471)
(0.03460127545 0.001029562927 0.001029573791)
(0.03457811685 0.0007500547104 0.001015261617)
(0.03012430695 0.00376290049 0.0006814219629)
(0.03483096059 0.00510510464 0.0007221555594)
(0.03489900013 0.002555509038 0.0007567292399)
(0.03464969447 0.001830537462 0.0007579959005)
(0.03457811707 0.001015250828 0.0007500669228)
(0.03455817334 0.0007383470001 0.0007383590103)
(0.02264190554 0.002100177473 0.002100179203)
(0.02826533885 0.004004941017 0.003017659411)
(0.02880093266 0.002804583538 0.003083875022)
(0.02815383214 0.002409681398 0.003113004126)
(0.02773645654 0.001656912928 0.003106037361)
(0.02743734939 0.001325456941 0.003122455908)
(0.028265339 0.003017657664 0.004004944947)
(0.0370924356 0.005608442624 0.005608444759)
(0.03849240272 0.004162303535 0.00586625066)
(0.03776260382 0.003574097174 0.005900639317)
(0.03712275916 0.002511297543 0.005901340363)
(0.03667149595 0.001992250856 0.005917719882)
(0.02880093262 0.003083872872 0.00280458985)
(0.03849240212 0.005866247987 0.0041623066)
(0.03987908806 0.004255632225 0.00425563842)
(0.03901570362 0.003551722874 0.004275390665)
(0.03833046502 0.002398512737 0.004280639614)
(0.03789654272 0.001873175951 0.004302004566)
(0.02815383217 0.003113002246 0.002409689943)
(0.03776260272 0.005900636139 0.003574102149)
(0.03901570368 0.004275384524 0.003551730586)
(0.03805819297 0.003541787957 0.003541795719)
(0.03734703376 0.002367141083 0.003538454909)
(0.03691304765 0.001841898617 0.003544899659)
(0.02773645646 0.003106035601 0.001656923648)
(0.03712275746 0.005901336613 0.002511304454)
(0.03833046402 0.004280633326 0.002398521884)
(0.03734703315 0.003538447212 0.002367150433)
(0.03661951087 0.002362573787 0.002362583311)
(0.03617704985 0.001837691755 0.002363736982)
(0.02743734957 0.003122454353 0.001325468887)
(0.03667149443 0.005917715824 0.00199225929)
(0.03789654138 0.004301998142 0.001873186421)
(0.03691304677 0.003544892174 0.001841909546)
(0.03617704924 0.002363727679 0.001837702959)
(0.03573028499 0.001836108211 0.001836119214)
(0.01379973537 0.001340236124 0.001340237527)
(0.02137418558 0.003413019284 0.002132335136)
(0.02301389565 0.002809520736 0.002221270784)
(0.02247602196 0.002615194651 0.00223001075)
(0.02190113234 0.001967499836 0.002205568666)
(0.02142041753 0.001619402749 0.00221037157)
(0.02137418494 0.002132333736 0.003413022485)
(0.03484189415 0.005366156829 0.005366158217)
(0.03765555688 0.004558674335 0.005696566627)
(0.0372180448 0.004142555076 0.005728295277)
(0.0365418744 0.003080504543 0.005735560195)
(0.03595961063 0.002474028911 0.005744974936)
(0.02301389419 0.002221269411 0.002809525497)
(0.03765555543 0.005696565191 0.004558674538)
(0.04115959253 0.005021764079 0.005021765173)
(0.04076315058 0.004628223202 0.005123535602)
(0.03998192606 0.003432537643 0.005106977268)
(0.03932793129 0.002736645111 0.005092258588)
(0.0224760199 0.002230009377 0.002615201087)
(0.03721804132 0.005728292832 0.004142556638)
(0.04076314942 0.005123528228 0.004628232779)
(0.04038564165 0.004656997155 0.004657010584)
(0.03955318071 0.003473917815 0.004653635599)
(0.03887512166 0.002769573085 0.004643807542)
(0.02190113006 0.002205567388 0.001967508557)
(0.03654186999 0.005735556839 0.003080508698)
(0.0399819237 0.005106968118 0.003432551183)
(0.03955317965 0.004653620037 0.003473936208)
(0.03869476615 0.003474563029 0.00347458485)
(0.03799642658 0.002775731363 0.003468990154)
(0.0214204157 0.002210370403 0.001619413557)
(0.03595960689 0.00574497126 0.002474035777)
(0.0393279282 0.00509224766 0.002736661845)
(0.03887511961 0.004643790694 0.002769595357)
(0.03799642588 0.003468966706 0.002775757668)
(0.0372824657 0.002775353032 0.002775381125)
(0.009957312247 0.0006809447971 0.0006809456741)
(0.01681099915 0.002189609124 0.001216925776)
(0.01898143185 0.0022831695 0.001301352769)
(0.01883272139 0.00229387507 0.001283918353)
(0.01837836254 0.001903603286 0.001248137532)
(0.01788944777 0.001621990284 0.001229001693)
(0.01681099884 0.001216925166 0.002189609736)
(0.03130802484 0.004126432755 0.00412643095)
(0.03603404747 0.004356963383 0.00465974008)
(0.03616244266 0.004208224336 0.0047256647)
(0.035495778 0.003453380338 0.004654225762)
(0.03473155931 0.002838203667 0.004588863745)
(0.01898143029 0.001301352629 0.002283169494)
(0.03603404512 0.004659741993 0.004356958426)
(0.04126948459 0.004836989082 0.004836982086)
(0.04170217121 0.00473734857 0.004893121094)
(0.04107320392 0.003954977262 0.00495166418)
(0.04025740813 0.003256539846 0.004925035333)
(0.01883271947 0.001283918123 0.002293875617)
(0.03616243898 0.004725665175 0.00420821848)
(0.04170216866 0.004893120276 0.004737341307)
(0.04209518447 0.0048874922 0.004887500422)
(0.04142817268 0.00405023499 0.004887853887)
(0.04059527169 0.003357624653 0.004864115791)
(0.01837836146 0.00124813703 0.001903605422)
(0.03549577427 0.004654224375 0.003453377577)
(0.04107320364 0.00495165506 0.003954980935)
(0.0414281736 0.004887840002 0.004050248689)
(0.04073731488 0.004075892008 0.004075910565)
(0.03989262718 0.003382551703 0.004068304197)
(0.01788944776 0.001229001335 0.001621994838)
(0.03473155793 0.004588861907 0.002838206575)
(0.04025741061 0.004925027928 0.003256551216)
(0.04059527598 0.004864102398 0.003357643739)
(0.03989263127 0.004068285145 0.003382574971)
(0.03903785403 0.003384242984 0.003384267256)
(0.007109070121 0.0003881429199 0.0003881444666)
(0.01337803264 0.001416501056 0.0006797236859)
(0.01576811115 0.001648315178 0.0007195004499)
(0.01600588102 0.001752381776 0.0006839507342)
(0.01574012505 0.001584645663 0.0006368825496)
(0.01535028782 0.00142828628 0.0006122385639)
(0.01337803194 0.0006797225212 0.001416501371)
(0.02776935123 0.002895269547 0.0028952624)
(0.03348348541 0.003566709735 0.003407794904)
(0.03436802278 0.003684442628 0.003397211378)
(0.03396007879 0.003286084877 0.003283011212)
(0.03324768544 0.002850467348 0.003182984664)
(0.01576810903 0.0007195002031 0.001648312513)
(0.03348348144 0.003407804131 0.00356669287)
(0.04055958272 0.004316806169 0.004316787242)
(0.04162827592 0.004428701317 0.004353236135)
(0.04124592115 0.003955733984 0.004210608439)
(0.04047193507 0.003415827602 0.004114556152)
(0.01600587841 0.0006839508715 0.001752377697)
(0.03436801759 0.003397220931 0.003684420584)
(0.04162827198 0.004353253418 0.00442867715)
(0.04290782793 0.004550167056 0.004550145467)
(0.04254923074 0.0041142307 0.004507457509)
(0.04175843841 0.003571342901 0.004433260671)
(0.01574012276 0.0006368825787 0.001584641271)
(0.03396007463 0.003283020982 0.003286060936)
(0.04124591549 0.004210622087 0.003955706249)
(0.04254923055 0.004507477373 0.004114207201)
(0.04217478094 0.004101964361 0.004101941608)
(0.04137651333 0.003591094015 0.004059685848)
(0.01535028558 0.0006122392585 0.001428282722)
(0.03324768359 0.003182994658 0.002850444261)
(0.04047193757 0.004114573235 0.003415802749)
(0.04175844556 0.004433281554 0.003571319099)
(0.04137652099 0.004059710118 0.003591069764)
(0.04057808161 0.003578466352 0.003578440646)
(0.005450337097 0.0002179648856 0.0002179673938)
(0.01106642788 0.0008707331264 0.0003775317168)
(0.01349995814 0.001118464821 0.0003905419443)
(0.01403880145 0.001267985134 0.0003586982444)
(0.01397354619 0.001244821819 0.0003180934581)
(0.01373381637 0.001197112845 0.0002988353368)
(0.01106642582 0.000377529948 0.0008707373816)
(0.02472173346 0.001878641306 0.001878636514)
(0.03087232355 0.002626229946 0.002263397776)
(0.03240156036 0.002931597793 0.002244515446)
(0.0323313815 0.002816406695 0.002131169118)
(0.03182531216 0.002602964377 0.00204157788)
(0.01349995328 0.0003905411106 0.001118467156)
(0.03087231733 0.002263408945 0.002626212454)
(0.03878273782 0.003305086259 0.003305057312)
(0.04077378458 0.003720900277 0.003383058812)
(0.04069695212 0.003552103312 0.003239663084)
(0.0400876506 0.003246129686 0.003116588231)
(0.01403879387 0.0003586984702 0.001267985481)
(0.0324015484 0.002244530737 0.002931570221)
(0.04077377891 0.003383095018 0.003720858936)
(0.04287164742 0.003847593952 0.003847543983)
(0.04283839812 0.003736836912 0.003778618833)
(0.0422308511 0.003441465066 0.003692997285)
(0.01397353665 0.0003180943014 0.001244820277)
(0.03233136682 0.002131186011 0.002816371602)
(0.04069694456 0.003239704213 0.00355205219)
(0.04283839636 0.003778671627 0.003736776463)
(0.04281949559 0.003715507921 0.003715444145)
(0.04222351298 0.003461703694 0.003663765634)
(0.01373380381 0.0002988360723 0.001197110781)
(0.03182529419 0.00204159483 0.002602926032)
(0.04008763999 0.00311662585 0.003246071857)
(0.04223084974 0.003693050393 0.003441398946)
(0.04222351421 0.003663829795 0.00346163401)
(0.04164888533 0.003445963438 0.003445893476)
(0.004439417651 0.0001240417255 0.000124044332)
(0.009603976568 0.0005377880878 0.0002082456582)
(0.01201811506 0.000759084061 0.0002096293602)
(0.01274083861 0.0009266933989 0.000186016216)
(0.01283318489 0.000990468656 0.0001589258911)
(0.01272769378 0.001012313809 0.0001472797664)
(0.009603974055 0.0002082431304 0.0005377962618)
(0.0224725672 0.001168300136 0.001168304493)
(0.0287055168 0.001829965563 0.001422343628)
(0.03063657662 0.002222845554 0.001412291206)
(0.03087041612 0.002309910979 0.001331726846)
(0.03059488018 0.00226723245 0.001273624525)
(0.01201810858 0.0002096275925 0.0007590943364)
(0.02870550849 0.001422346184 0.001829962933)
(0.03687825572 0.002346688334 0.002346670377)
(0.03942094463 0.002886991247 0.002424860421)
(0.03971543686 0.00298323058 0.002341851047)
(0.03935221816 0.002890844451 0.002266310194)
(0.0127408268 0.0001860153674 0.0009267039192)
(0.03063655727 0.001412298927 0.002222834907)
(0.03942093221 0.002424887705 0.00288695921)
(0.04216005584 0.00304365346 0.003043609703)
(0.04248843319 0.003183468585 0.003006266712)
(0.04211791628 0.003100689472 0.002947805334)
(0.01283316751 0.0001589254201 0.0009904778949)
(0.03087038724 0.00133173719 0.002309893175)
(0.03971541586 0.002341882752 0.002983187265)
(0.04248842537 0.003006314592 0.003183412585)
(0.04284855822 0.003188325268 0.003188265706)
(0.04250514732 0.003138851203 0.003158552408)
(0.01272767029 0.0001472796337 0.001012322327)
(0.03059484201 0.00127363643 0.002267212593)
(0.039352188 0.002266342641 0.002890796787)
(0.04211790004 0.002947853505 0.003100629385)
(0.04250513995 0.003158611198 0.003138789855)
(0.04219627907 0.003138511078 0.003138451454)
(0.003816412498 7.258003239e-05 7.258191765e-05)
(0.008658261241 0.0003544725095 0.0001195812592)
(0.01102844086 0.0005602070646 0.0001190030074)
(0.01185370326 0.0007390478829 0.0001043924658)
(0.01205729123 0.000850878166 8.94938872e-05)
(0.01205676332 0.0009139766433 8.475502903e-05)
(0.008658259348 0.0001195791773 0.0003544811802)
(0.02086431403 0.0007497278921 0.0007497393033)
(0.02701428827 0.00130527272 0.0009139571954)
(0.02916510121 0.001718809167 0.0009174415587)
(0.0296323719 0.001925034539 0.000877118546)
(0.02955722454 0.001991482749 0.0008534866058)
(0.01102843499 0.0001190005991 0.0005602212824)
(0.02701428069 0.0009139486453 0.001305287642)
(0.035162011 0.001681945293 0.001681951025)
(0.03801059696 0.002242640819 0.001766423951)
(0.03859936677 0.002493243336 0.001740557561)
(0.03847123917 0.002544327653 0.00171604871)
(0.01185369149 0.0001043905231 0.0007390649506)
(0.02916508121 0.0009174367856 0.001718823481)
(0.03801058271 0.001766425759 0.002242640537)
(0.04111029703 0.002405431743 0.002405421783)
(0.04176029831 0.002698316219 0.002418635079)
(0.04163571754 0.002761420873 0.00241119273)
(0.0120572725 8.949278085e-05 0.0008508948366)
(0.02963233773 0.0008771162646 0.001925045945)
(0.038599337 0.001740563239 0.00249323665)
(0.04176028322 0.002418648473 0.002698299048)
(0.04245575035 0.002748522596 0.002748503356)
(0.04236216141 0.00283817656 0.002765886664)
(0.01205673758 8.475460815e-05 0.0009139949094)
(0.02955717599 0.0008534861466 0.00199149545)
(0.03847119317 0.001716055633 0.002544321371)
(0.04163568625 0.002411206352 0.002761403725)
(0.04236214674 0.002765903054 0.002838158692)
(0.04229214382 0.002879717325 0.00287970586)
(0.003388086592 4.631047723e-05 4.631143678e-05)
(0.007977903276 0.0002700205049 7.563074498e-05)
(0.01029426689 0.0004804018663 7.575817571e-05)
(0.0111718523 0.0006750128037 7.003574357e-05)
(0.01144874854 0.0008187400288 6.58385185e-05)
(0.01152857828 0.0009078860381 6.858099667e-05)
(0.007977902472 7.562891662e-05 0.0002700266674)
(0.01962972096 0.0005407378418 0.0005407500994)
(0.02564040329 0.001033607042 0.0006540285813)
(0.02790086044 0.001452032648 0.0006752329921)
(0.02853506434 0.001723275229 0.0006747238385)
(0.02862937739 0.001860948372 0.0006882357934)
(0.01029426373 7.575579679e-05 0.0004804143269)
(0.0256403991 0.000654014693 0.0010336296)
(0.03363755274 0.001312042355 0.001312065238)
(0.03664198312 0.001861353744 0.001406423892)
(0.03745366351 0.002193389999 0.001435727449)
(0.03753781587 0.002340762061 0.001470362374)
(0.01117184473 7.003335505e-05 0.0006750297386)
(0.02790084681 0.0006752201966 0.001452061308)
(0.03664197163 0.001406403871 0.001861380647)
(0.03993804483 0.002027685733 0.002027708892)
(0.04084020211 0.00240382246 0.002098614003)
(0.04094813155 0.00257015357 0.002162281782)
(0.01144873545 6.583655682e-05 0.0008187583648)
(0.02853503716 0.0006747122459 0.00172330477)
(0.03745363548 0.001435709656 0.002193416185)
(0.04084018504 0.002098593024 0.002403844808)
(0.04180186077 0.002512505431 0.002512526082)
(0.04195358781 0.00270597182 0.002605172143)
(0.01152855954 6.857975658e-05 0.000907905782)
(0.02862933453 0.0006882250543 0.001860978817)
(0.03753776658 0.001470345677 0.002340789163)
(0.04094809075 0.002162261056 0.002570176551)
(0.04195356348 0.002605151219 0.002705991633)
(0.04214063784 0.002829338129 0.002829357134)
(0.003041897329 3.499767344e-05 3.499787256e-05)
(0.007399868103 0.0002449852104 5.497072723e-05)
(0.009655433373 0.0004782170046 5.702148978e-05)
(0.01055675863 0.0006991723942 5.842421746e-05)
(0.01088219552 0.0008725540882 6.29889664e-05)
(0.01102133628 0.0009835267528 7.258569951e-05)
(0.007399868078 5.496985834e-05 0.0002449882509)
(0.01854804025 0.0004620908634 0.0004620991252)
(0.02440856047 0.0009477975606 0.0005538154146)
(0.02672059173 0.001385162965 0.0005943539057)
(0.02747200408 0.001704098412 0.0006293218551)
(0.02770238182 0.00188979928 0.0006773738293)
(0.009655432744 5.701990616e-05 0.0004782250007)
(0.02440855945 0.0005538034897 0.0009478165383)
(0.03222593849 0.001172789717 0.001172814612)
(0.03530828481 0.001723853959 0.001282994847)
(0.03628311857 0.002108929068 0.001362958619)
(0.03654910716 0.002319283804 0.001453249234)
(0.01055675584 5.842244913e-05 0.0006991847053)
(0.02672058556 0.000594341046 0.001385190119)
(0.03530827803 0.001282968682 0.001723888423)
(0.03871293974 0.001900616283 0.001900652612)
(0.03980666863 0.002330205651 0.002027544834)
(0.04012266231 0.002562391586 0.00215893427)
(0.01088218929 6.298767726e-05 0.0008725682799)
(0.02747198811 0.0006293097637 0.001704128414)
(0.03628309788 0.001362933798 0.002108966998)
(0.03980665285 0.002027509166 0.002330246372)
(0.04097934151 0.002495935692 0.002495976381)
(0.04136406285 0.002754141182 0.00266338238)
(0.01102132618 7.258562599e-05 0.0009835431879)
(0.02770235248 0.0006773633209 0.001889830747)
(0.036549065 0.001453226098 0.002319323331)
(0.0401226205 0.002158899849 0.002562434304)
(0.04136403523 0.002663342922 0.00275418263)
(0.04184731878 0.002940617928 0.002940652755)
(0.002713453194 3.04392724e-05 3.04392547e-05)
(0.006827707498 0.0002521781483 4.616749279e-05)
(0.009012941541 0.0005239718517 4.952719121e-05)
(0.00992095573 0.0007840067091 5.586706873e-05)
(0.01027976692 0.0009931396422 6.725373033e-05)
(0.01046430739 0.001129127532 8.307606316e-05)
(0.00682770803 4.616719171e-05 0.0002521794349)
(0.01746403068 0.0004580480575 0.0004580521868)
(0.02316921314 0.0009840895633 0.0005468268096)
(0.02550503263 0.001468388729 0.0006077859112)
(0.02634478486 0.001840752377 0.0006756940002)
(0.02668698286 0.002070971894 0.0007586161984)
(0.009012942115 4.952628969e-05 0.0005239763636)
(0.0231692136 0.0005468190779 0.0009841010634)
(0.03080731587 0.001193596796 0.001193615102)
(0.0339361101 0.001782118765 0.001328514925)
(0.03504165077 0.002223266158 0.001459905148)
(0.03546673961 0.002487152065 0.001609826163)
(0.009920955568 5.586596777e-05 0.00078401447)
(0.02550503129 0.0006077766813 0.001468406415)
(0.03393610743 0.001328494015 0.001782145229)
(0.03741692474 0.001983606075 0.001983636656)
(0.03867452224 0.002471862106 0.002172021267)
(0.03918530401 0.002761248734 0.002379232462)
(0.01027976515 6.725313162e-05 0.0009931492821)
(0.02634477755 0.0006756858752 0.001840772376)
(0.0350416381 0.001459885374 0.002223295788)
(0.03867450973 0.002171990376 0.002471897031)
(0.04004191546 0.002704197005 0.002704233443)
(0.04065581665 0.003021377245 0.002958371904)
(0.01046430349 8.307637297e-05 0.001129138864)
(0.02668696575 0.0007586098325 0.002070993235)
(0.03546670865 0.001609808296 0.002487181856)
(0.03918526843 0.00237920222 0.002761283655)
(0.04065579217 0.002958334674 0.003021413951)
(0.04140049384 0.003303039104 0.003303075522)
(0.002368812184 2.86815188e-05 2.868164021e-05)
(0.006207067062 0.0002754866578 4.16500806e-05)
(0.008305339938 0.0005983239223 4.532313013e-05)
(0.009206322323 0.0009110152981 5.489558808e-05)
(0.009586434607 0.0011672052 7.216560832e-05)
(0.00980499523 0.001336991431 9.467130287e-05)
(0.006207067786 4.164996309e-05 0.0002754872928)
(0.01627119592 0.0004938722699 0.0004938738884)
(0.02180158817 0.00109948043 0.0005915511308)
(0.02414268342 0.001664501728 0.0006752718893)
(0.02505105356 0.002111896068 0.0007783268554)
(0.02548596207 0.002399102857 0.0009024516942)
(0.008305341072 4.532276395e-05 0.0005983266542)
(0.02180158869 0.0005915464679 0.00109948654)
(0.02925081524 0.00132399266 0.001324004453)
(0.03241146194 0.001996957639 0.001496857105)
(0.0336285866 0.002521201615 0.001690598613)
(0.03419504141 0.002852338089 0.001916822733)
(0.009206322877 5.489537773e-05 0.0009110208502)
(0.02414268272 0.0006752662035 0.001664512564)
(0.03241146047 0.001496842916 0.001996975601)
(0.03595848234 0.002247025945 0.002247047441)
(0.03736661366 0.002829232023 0.002519692138)
(0.03806168099 0.003196759683 0.002833961134)
(0.009586433932 7.216596248e-05 0.001167213104)
(0.02505104873 0.0007783229159 0.002111909564)
(0.0336285773 0.001690585963 0.002521222379)
(0.03736660325 0.002519670756 0.002829257454)
(0.0389230481 0.003164529268 0.003164556321)
(0.0397618304 0.003576613243 0.00355030945)
(0.009804993406 9.467225045e-05 0.001337001109)
(0.02548595028 0.0009024500515 0.00239911819)
(0.03419501696 0.001916813192 0.002852359512)
(0.0380616503 0.002833942403 0.003196785615)
(0.03976180731 0.003550283374 0.003576642487)
(0.04076014496 0.004017370772 0.004017397877)
(0.001994875174 2.678084733e-05 2.6781252e-05)
(0.005510236791 0.0003031774251 3.617871111e-05)
(0.007496864324 0.0006865100571 3.853954136e-05)
(0.008375879233 0.001065063132 4.954386691e-05)
(0.008765672974 0.001381937242 7.175851221e-05)
(0.009007523614 0.001597134188 0.0001011336639)
(0.005510237467 3.61787836e-05 0.0003031779592)
(0.01489858796 0.0005459184118 0.0005459179819)
(0.02021125868 0.001262706532 0.000658873415)
(0.02253584185 0.0019433854 0.0007671130983)
(0.02349543656 0.002495545084 0.0009083913224)
(0.02400642356 0.002861197802 0.001080998458)
(0.007496865288 3.853985818e-05 0.0006865115715)
(0.02021125881 0.0006588721663 0.001262707826)
(0.02743272238 0.001525126292 0.001525130994)
(0.03060848028 0.002332475034 0.001748773748)
(0.0319222402 0.002979201419 0.002017723043)
(0.03261545999 0.003403650334 0.002339382122)
(0.008375879357 4.954461371e-05 0.001065067324)
(0.02253583985 0.0007671113943 0.001943390894)
(0.03060847784 0.001748767398 0.002332484756)
(0.03421105699 0.002655612521 0.002655624461)
(0.03576054906 0.003381074743 0.003036536064)
(0.0366319112 0.003859078018 0.003490314772)
(0.008765672187 7.175963859e-05 0.001381944185)
(0.02349543096 0.000908391003 0.002495554315)
(0.03192223101 0.002017717647 0.002979214139)
(0.03576054013 0.003036524188 0.003381089787)
(0.03750473676 0.003855015678 0.003855030254)
(0.03857233557 0.00439907632 0.004423190621)
(0.009007522859 0.0001011348074 0.001597142361)
(0.02400641442 0.001080999434 0.002861208937)
(0.03261544082 0.002339378067 0.003403663779)
(0.0366318872 0.003490302467 0.003859093378)
(0.03857231817 0.004423174317 0.004399090511)
(0.03986723682 0.005052602531 0.005052619861)
(0.001592806869 2.262016522e-05 2.262076788e-05)
(0.004729237951 0.0003262050681 2.59711334e-05)
(0.006571069007 0.0007763905784 2.465110941e-05)
(0.007409265045 0.00123322958 3.482155953e-05)
(0.007795661186 0.00162589012 6.084591907e-05)
(0.008049020195 0.001900740469 9.715169614e-05)
(0.004729238235 2.597159324e-05 0.0003262059074)
(0.01330069105 0.0005965003157 0.0005964993095)
(0.01832390944 0.001449603223 0.0007267434845)
(0.0205983713 0.002281282016 0.0008598692714)
(0.02158820347 0.002974125738 0.001042705766)
(0.02215737432 0.003448366576 0.001272329635)
(0.006571069536 2.465158195e-05 0.0007763918565)
(0.01832390958 0.0007267438306 0.001449602675)
(0.02523820712 0.001767256775 0.001767258005)
(0.02839744844 0.002761293111 0.002053594325)
(0.02978960943 0.003580443098 0.002412673831)
(0.03059520602 0.004138631364 0.002852664834)
(0.007409264318 3.482261639e-05 0.001233233433)
(0.02059836864 0.0008598697338 0.002281285167)
(0.028397445 0.002053592521 0.002761298472)
(0.03203038685 0.003183069106 0.003183075672)
(0.03371043438 0.004114474829 0.003702070469)
(0.034755186 0.004753766348 0.004336019986)
(0.007795658324 6.08473814e-05 0.001625897331)
(0.02158819636 0.001042707088 0.002974133284)
(0.02978959978 0.002412672627 0.00358045242)
(0.03371042668 0.003702064007 0.00411448515)
(0.03564068803 0.00477281232 0.004772822395)
(0.03695000011 0.005521025359 0.005581945401)
(0.008049016246 9.715178728e-05 0.001900747055)
(0.02215736342 0.001272330882 0.003448376194)
(0.03059518843 0.002852663976 0.004138642397)
(0.0347551657 0.004336012886 0.00475377869)
(0.03694998118 0.005581934382 0.005521039693)
(0.03858878832 0.006461133395 0.006461140696)
(0.03008364635 0.003760735549 0.0004554955096)
(0.03481710599 0.005103507083 0.0004671862233)
(0.03488472954 0.002552797575 0.0004968775126)
(0.03463605175 0.001819945587 0.0005029555437)
(0.03456618902 0.001004948377 0.0004995778538)
(0.03454814572 0.0007292856056 0.0004917958739)
(0.03006351298 0.003760882857 0.0003298133778)
(0.03481478221 0.005104456188 0.0003318488924)
(0.03488026535 0.002553301095 0.0003567998849)
(0.03463116764 0.001813839773 0.0003646482816)
(0.03456186175 0.0009985249592 0.000364337622)
(0.03454491455 0.0007230323555 0.0003596027257)
(0.030053533 0.003759997787 0.0002302737458)
(0.03481601357 0.005105673984 0.0002280217421)
(0.03487894811 0.002554581397 0.0002469965422)
(0.03462860306 0.00181078951 0.0002548206839)
(0.03455915383 0.0009949305347 0.0002559087133)
(0.03454275024 0.000719234427 0.0002533519715)
(0.03004873206 0.003759683445 0.0001539518168)
(0.03481829934 0.005106868953 0.0001510671793)
(0.03487945866 0.002555802474 0.0001643304608)
(0.03462777803 0.001809417578 0.0001707291645)
(0.0345579809 0.0009930579682 0.00017212629)
(0.03454183408 0.0007170864381 0.000170896654)
(0.03004659062 0.003759449143 8.847697967e-05)
(0.03482033645 0.005107697494 8.629161717e-05)
(0.03488042917 0.002556707754 9.411418557e-05)
(0.03462761833 0.001808981738 9.827168722e-05)
(0.03455747445 0.0009922348981 9.93450077e-05)
(0.03454141884 0.0007160325162 9.885678296e-05)
(0.03004577609 0.003759358581 2.893642284e-05)
(0.03482147208 0.005108120514 2.815303222e-05)
(0.0348810957 0.002557172093 3.073817733e-05)
(0.03462764591 0.001808897671 3.217214249e-05)
(0.03455729732 0.0009919432574 3.256522528e-05)
(0.03454126401 0.0007156186978 3.244285864e-05)
(0.03004577579 0.003759358444 -2.892521374e-05)
(0.03482147228 0.005108120846 -2.814025193e-05)
(0.03488109585 0.0025571733 -3.072464548e-05)
(0.03462764586 0.001808899062 -3.215613572e-05)
(0.03455729714 0.0009919445951 -3.25463866e-05)
(0.03454126376 0.0007156198175 -3.242170352e-05)
(0.03004659053 0.003759448944 -8.846391749e-05)
(0.03482033646 0.005107698412 -8.627628454e-05)
(0.03488042914 0.002556710506 -9.40986254e-05)
(0.03462761821 0.001808985448 -9.825457961e-05)
(0.03455747387 0.0009922387233 -9.932590921e-05)
(0.03454141808 0.000716035679 -9.883560482e-05)
(0.03004873194 0.003759683668 -0.0001539366047)
(0.03481829917 0.005106870694 -0.0001510492629)
(0.03487945838 0.002555806045 -0.0001643127762)
(0.03462777783 0.001809422389 -0.0001707106752)
(0.03455798032 0.000993063427 -0.0001721067591)
(0.03454183302 0.0007170912339 -0.0001708756957)
(0.03005353289 0.003759998396 -0.0002302580337)
(0.03481601317 0.005105676519 -0.0002280033205)
(0.03487894757 0.002554585645 -0.0002469783903)
(0.03462860264 0.001810795077 -0.0002548015804)
(0.03455915307 0.00099493685 -0.0002558889)
(0.03454274911 0.0007192402004 -0.0002533313866)
(0.03006351315 0.003760883923 -0.0003297981103)
(0.03481478216 0.005104459825 -0.00033183118)
(0.03488026499 0.002553306519 -0.000356782279)
(0.03463116726 0.001813846135 -0.0003646295569)
(0.03456186096 0.0009985317569 -0.0003643183064)
(0.03454491349 0.0007230382994 -0.0003595832627)
(0.03008364667 0.003760736795 -0.0004554809832)
(0.03481710632 0.005103511464 -0.0004671695812)
(0.03488472946 0.002552804032 -0.0004968610503)
(0.03463605136 0.001819952835 -0.0005029380816)
(0.03456618807 0.001004955333 -0.0004995602811)
(0.03454814449 0.0007292910957 -0.0004917786606)
(0.02727418567 0.00312757744 0.0009865669332)
(0.03642609175 0.005930402375 0.00149093306)
(0.03767589489 0.004313519109 0.001373494571)
(0.03669858493 0.003548600257 0.001344342397)
(0.03596005082 0.00236290471 0.001340387476)
(0.03551239594 0.001832886133 0.001338985877)
(0.02717503454 0.003135933135 0.0007566941649)
(0.03628156343 0.005943318218 0.001139455234)
(0.03755071307 0.004324831337 0.001040406913)
(0.03657979768 0.003552706999 0.001016355708)
(0.03584070201 0.002362217824 0.001013746302)
(0.03539345176 0.001829742099 0.00101340399)
(0.02711788596 0.00314045802 0.0005560366322)
(0.03619931197 0.005952964724 0.0008367752783)
(0.03748132222 0.004333833612 0.0007575738768)
(0.03651574371 0.003556390591 0.0007384321637)
(0.03577708859 0.002361988029 0.0007369389773)
(0.03533046228 0.00182742494 0.0007375134202)
(0.02708426597 0.003144064761 0.0003828550952)
(0.03615140983 0.005960158418 0.0005755671844)
(0.03744115739 0.004341335965 0.0005183511088)
(0.03647985074 0.003559613152 0.0005045984644)
(0.03574205848 0.002362236061 0.0005040439373)
(0.03529599895 0.001826046993 0.0005050238898)
(0.02706582928 0.003146288187 0.0002243816233)
(0.03612519583 0.0059648341 0.0003371108611)
(0.03741918088 0.00434668255 0.0003024995548)
(0.03646087354 0.003561877546 0.0002942245026)
(0.03572390743 0.002362616143 0.0002941649892)
(0.03527823448 0.001825344886 0.0002950049759)
(0.02705760437 0.003147377515 7.398246931e-05)
(0.03611349716 0.005967155688 0.000111109256)
(0.037409296 0.004349491717 9.953528324e-05)
(0.0364525488 0.003563016287 9.677746821e-05)
(0.03571608547 0.002362863749 9.681093779e-05)
(0.03527060917 0.001825053571 9.713332857e-05)
(0.02705760473 0.003147377958 -7.397415077e-05)
(0.0361134977 0.0059671557 -0.0001111084417)
(0.03740929653 0.004349492528 -9.952517024e-05)
(0.03645254904 0.003563017406 -9.676291e-05)
(0.03571608552 0.002362864815 -9.679284193e-05)
(0.03527060919 0.001825054424 -9.711299863e-05)
(0.0270658299 0.003146288324 -0.0002243711048)
(0.03612519708 0.005964835051 -0.0003371079952)
(0.0374191815 0.004346684471 -0.0003024874442)
(0.03646087356 0.003561880494 -0.0002942085708)
(0.03572390723 0.002362619216 -0.0002941460661)
(0.0352782342 0.001825347313 -0.0002949841267)
(0.02708426615 0.003144065023 -0.0003828424318)
(0.03615141064 0.005960159666 -0.0005755622875)
(0.03744115729 0.004341338397 -0.0005183368837)