/*--------------------------------*- C++ -*----------------------------------*\
  =========                 |
  \\      /  F ield         | OpenFOAM: The Open Source CFD Toolbox
   \\    /   O peration     | Website:  https://openfoam.org
    \\  /    A nd           | Version:  7
     \\/     M anipulation  |
\*---------------------------------------------------------------------------*/
FoamFile
{
    version     2.0;
    format      ascii;
    class       volScalarField;
    location    "0.00305";
    object      Uz;
}
// * * * * * * * * * * * * * * * * * * * * * * * * * * * * * * * * * * * * * //

dimensions      [0 1 -1 0 0 0 0];

internalField   nonuniform List<scalar> 
5000
(
0
0
0
0
0
-8.6239455e-18
-1.8369694e-32
2.5837741e-17
8.6086684e-18
-1.7211046e-17
-1.7206096e-17
8.6007981e-18
-7.3317855e-32
-7.574362e-32
1.7189367e-17
-1.7184811e-17
-8.8263075e-49
-7.5661517e-32
-8.5847095e-18
1.716345e-17
8.5786453e-18
0
0
-8.5683258e-18
7.302685e-32
-7.0560964e-32
-8.5569919e-18
8.5529349e-18
8.5489037e-18
-8.5447817e-18
1.492858e-31
-7.2785518e-32
-8.5321223e-18
8.5278898e-18
8.5236723e-18
0
0
-8.5104057e-18
-8.5060283e-18
8.5015574e-18
-1.4248773e-31
-8.4927209e-18
8.4883328e-18
-1.4346986e-31
-8.4794741e-18
8.4750107e-18
-2.913072e-31
2.8995086e-31
-2.9100334e-31
1.4422334e-31
8.45297e-18
0
0
0
0
0
0
0
0
0
0
0
0
-8.3965168e-18
-8.3922428e-18
8.3879777e-18
-1.4415911e-31
-1.9114462e-49
8.3752247e-18
0
0
-8.3625905e-18
-8.3583663e-18
0
8.3500085e-18
2.8820334e-31
-8.341702e-18
-8.3376227e-18
8.3334889e-18
1.665891e-17
-1.6650671e-17
4.7301178e-33
2.4951706e-17
-1.6626542e-17
-8.6435566e-31
1.6610618e-17
-2.4903939e-17
8.2974218e-18
8.2934645e-18
-8.2896132e-18
8.2856975e-18
8.2818893e-18
2.8821242e-31
-1.6548515e-17
-5.7237089e-31
-8.266724e-18
-8.2629531e-18
-2.8990789e-31
5.7486203e-31
1.6503939e-17
8.2483078e-18
-8.2447604e-18
1.1711392e-33
8.2376756e-18
0
-8.2307252e-18
-2.8644518e-31
8.2239152e-18
-8.2205216e-18
-8.2172477e-18
1.6427851e-17
8.2107227e-18
-2.4622416e-17
-8.2043416e-18
2.4603494e-17
-8.1981092e-18
-8.1950088e-18
-4.6566303e-33
-8.1890085e-18
2.4558329e-17
-5.7214585e-31
-1.6360702e-17
1.6354987e-17
8.1747617e-18
-8.1719929e-18
8.1693465e-18
-8.1666537e-18
-1.6328167e-17
8.1614721e-18
2.8174928e-31
8.1564685e-18
1.6308154e-17
-8.1516493e-18
-8.1493518e-18
-8.1470201e-18
-2.8357489e-31
-2.8234002e-31
2.8342402e-31
1.6276707e-17
8.1363519e-18
-8.134317e-18
-1.6264826e-17
-8.1304749e-18
-8.1286668e-18
5.6358689e-31
1.6250222e-17
-2.3087989e-33
2.3083394e-33
4.9330435e-49
8.1185793e-18
-5.6290764e-31
1.1302319e-30
8.1141633e-18
-8.1128469e-18
8.1114988e-18
2.8121986e-31
-8.1090328e-18
8.1079138e-18
-1.1520401e-33
-8.1057381e-18
0
8.1037518e-18
5.6076853e-31
-1.6203903e-17
8.1010786e-18
-2.302253e-33
-8.0995484e-18
8.0988894e-18
-8.0981917e-18
8.0976147e-18
-3.3737118e-30
-2.2459347e-30
8.0959534e-18
-1.6191063e-17
0
-5.6136019e-31
-1.6839981e-30
8.0940388e-18
8.0937113e-18
5.5782534e-31
-8.0932373e-18
8.0930886e-18
5.5663321e-31
3.4501672e-33
1.1212841e-30
-1.6185222e-17
8.0925102e-18
8.09251e-18
-5.5660271e-31
5.5775484e-31
-1.6824565e-30
5.5890579e-31
-8.0924677e-18
0
0
0
0
-8.0926473e-18
1.6870968e-30
8.0926884e-18
8.0926584e-18
-8.092701e-18
-8.0926521e-18
1.6185347e-17
5.6006349e-31
-1.6801894e-30
-8.0924941e-18
-8.0924583e-18
8.092324e-18
0
8.0920803e-18
5.6001973e-31
-8.0917522e-18
-8.0915935e-18
1.1268499e-30
8.0911159e-18
-1.6181587e-17
8.0905219e-18
8.0901362e-18
-8.0897977e-18
8.089342e-18
0
0
0
8.0872931e-18
-8.0867178e-18
-1.6172035e-17
8.0853532e-18
-5.6180491e-31
8.0838037e-18
8.0829155e-18
-1.6164116e-17
2.2967776e-33
-2.2965042e-33
8.0790091e-18
8.0779385e-18
-1.6153462e-17
1.1476043e-33
-1.6821123e-30
8.0729235e-18
-4.4825799e-30
-1.1193009e-30
8.0684991e-18
-8.0669565e-18
0
-8.0636036e-18
8.0617919e-18
8.059997e-18
-8.0580576e-18
0
-8.0540693e-18
8.0520216e-18
8.0498314e-18
-2.7939155e-30
-1.6090691e-17
-1.6086097e-17
2.4121827e-17
1.6076373e-17
0
-1.6066148e-17
-8.0303859e-18
8.0277128e-18
8.0248879e-18
8.0220704e-18
-1.6038215e-17
-1.6032328e-17
8.0130809e-18
1.6020037e-17
2.2210581e-30
-1.6007273e-17
8.0003175e-18
-1.1091702e-30
-7.9935851e-18
1.5980345e-17
-7.9866235e-18
1.1117771e-30
7.9794384e-18
-7.9758042e-18
7.9720388e-18
-1.5936603e-17
3.3230071e-30
1.5921201e-17
-1.5913279e-17
-5.5038214e-31
7.9486567e-18
0
0
7.9363803e-18
-7.9321471e-18
-1.5855898e-17
7.9236304e-18
-2.2508143e-33
7.91495e-18
7.9105906e-18
-7.9061166e-18
0
-7.8971408e-18
-7.8926412e-18
0
1.5766938e-17
7.8787982e-18
-1.5748349e-17
5.4461952e-31
-2.2352996e-33
7.8599733e-18
7.8552341e-18
-7.8503914e-18
7.845599e-18
-7.8407051e-18
4.4541728e-33
1.5661847e-17
-7.8260373e-18
-7.8210548e-18
-7.8161284e-18
-1.0833845e-30
7.8061439e-18
0
0
-7.791001e-18
1.0810047e-30
-2.1594822e-30
-1.0806966e-30
7.7706461e-18
-7.7655596e-18
1.102817e-33
7.7552718e-18
0
0
0
0
0
0
0
-7.7136372e-18
0
7.7031326e-18
0
-7.6926033e-18
-2.1324239e-30
7.6820547e-18
0
0
-7.6661657e-18
-1.0636412e-30
7.6555796e-18
0
0
-7.6397119e-18
-7.6343684e-18
7.6290945e-18
7.6237461e-18
0
-7.6131161e-18
1.0811384e-33
7.6024812e-18
-7.5971986e-18
-7.5918443e-18
7.5865615e-18
7.5812075e-18
0
-7.5705719e-18
-7.5652899e-18
7.5599371e-18
7.5546552e-18
0
-7.5440205e-18
-7.5386682e-18
7.5333869e-18
7.5280361e-18
0
0
0
0
0
0
0
0
-7.4803158e-18
-3.7805803e-48
7.4697239e-18
0
0
0
-7.4485577e-18
-1.0323616e-30
7.4379866e-18
-7.4326708e-18
1.0312242e-30
-1.0547462e-33
-1.0297597e-30
7.4115742e-18
-7.4063417e-18
7.4010445e-18
-4.1094451e-30
-7.3905274e-18
7.3853075e-18
0
0
-7.3695318e-18
-1.0224632e-30
7.359053e-18
-7.3538519e-18
-7.3485872e-18
0
7.3381355e-18
7.3329486e-18
-7.327699e-18
-2.0322774e-30
9.3069273e-49
-1.015213e-30
7.3068687e-18
-7.3017011e-18
-3.717023e-48
-1.0123252e-30
-7.2860783e-18
0
0
7.2705472e-18
1.0324663e-33
-3.0209225e-30
7.2549952e-18
0
0
-7.2395572e-18
2.0057578e-30
7.2292607e-18
0
0
0
-7.208687e-18
1.0236816e-33
7.1984171e-18
-7.1932619e-18
7.1881839e-18
-1.99663e-30
-1.4355938e-17
7.172841e-18
2.9855282e-30
9.9446477e-31
-9.9376093e-31
-7.1524678e-18
0
0
7.1372232e-18
9.9022293e-31
-1.978033e-30
2.259446e-49
-7.1169551e-18
7.1120093e-18
7.106977e-18
0
-7.0966679e-18
-9.8460594e-31
7.0867176e-18
0
0
-7.0715521e-18
2.0084357e-33
2.2709374e-49
-7.0565317e-18
7.0515013e-18
-9.7633401e-31
9.7764002e-31
-1.9528936e-30
-7.0314871e-18
7.0264968e-18
-1.9497315e-30
1.9493439e-30
-1.9479593e-30
-7.0065522e-18
7.0015791e-18
-1.9428186e-30
9.7270737e-31
0
-6.9817271e-18
6.9767716e-18
-9.6796876e-31
9.9005294e-34
-9.665961e-31
9.6689856e-31
6.9520654e-18
-6.9471286e-18
-6.9422022e-18
6.9372714e-18
6.9323516e-18
0
-6.9225155e-18
-6.9175993e-18
0
6.9077866e-18
-9.5839761e-31
9.8026325e-34
9.5605879e-31
-6.8882067e-18
6.883324e-18
9.5402516e-31
-1.9086512e-30
-6.8686824e-18
-6.8638122e-18
1.3717881e-17
-9.7402283e-34
9.4997157e-31
6.8443534e-18
-6.8394957e-18
9.4892216e-31
6.8297917e-18
0
0
0
-6.8104216e-18
-6.8055873e-18
6.8007581e-18
6.7959314e-18
0
-6.7862909e-18
-6.7814771e-18
6.7766642e-18
6.7718565e-18
0
-6.7622463e-18
-6.7574435e-18
6.7526459e-18
1.8737431e-30
-6.7430557e-18
0
0
0
0
6.7191225e-18
-1.8625313e-30
-6.7095638e-18
6.7047886e-18
9.3023006e-31
-9.3051909e-31
2.1934932e-49
6.6857041e-18
6.6809385e-18
-1.3352358e-17
-9.2626027e-31
9.2465298e-31
-6.661914e-18
0
6.6524196e-18
6.6476774e-18
-6.6429345e-18
-1.8414084e-30
6.6334572e-18
0
0
-6.6192539e-18
9.1742035e-31
6.6097909e-18
0
-6.6003335e-18
9.3729199e-34
-1.8301572e-30
-9.1348688e-31
6.5814425e-18
-6.5767246e-18
9.3393913e-34
-1.8236085e-30
-6.5625932e-18
6.5578859e-18
1.8196886e-30
9.3059495e-34
-9.0853878e-31
-6.5390789e-18
6.534381e-18
0
-3.6227893e-30
-9.0435016e-31
-2.7110968e-30
-9.2525351e-34
-6.5061994e-18
6.5015043e-18
8.6723374e-49
-9.0136635e-31
1.8014308e-30
-9.0006424e-31
1.2956113e-17
-6.4733694e-18
-6.4686869e-18
-8.9746255e-31
8.968129e-31
1.2909288e-17
-6.4499682e-18
-6.445291e-18
2.1611802e-49
0
2.1606389e-49
-6.426598e-18
6.421928e-18
2.154165e-49
-8.8941263e-31
-9.1061963e-34
-6.4032481e-18
1.2797155e-17
1.7754615e-30
-6.3892388e-18
8.8552672e-31
-8.8487863e-31
6.3752263e-18
-6.3705508e-18
-8.6588977e-49
-2.6504708e-30
1.7659821e-30
-1.7628755e-30
-1.7624776e-30
2.1655124e-49
0
6.3330739e-18
0
0
-6.3189613e-18
-1.7533405e-30
6.3095294e-18
0
0
-1.2590709e-17
-5.2367711e-30
1.2571798e-17
-6.2811748e-18
8.9193729e-34
-8.7076797e-31
-6.2670228e-18
0
0
0
-6.2482971e-18
-1.7319654e-30
6.2390407e-18
0
0
-6.2253577e-18
8.8403743e-34
6.2164042e-18
0
0
-6.2032801e-18
-1.7195761e-30
-1.7210409e-30
1.7189968e-30
6.1864176e-18
-6.1823169e-18
1.7147013e-30
-1.7135867e-30
1.7116059e-30
6.1663243e-18
0
0
-6.1546906e-18
-4.3853131e-48
6.1470555e-18
0
0
-6.1357009e-18
-2.7754751e-48
6.1281454e-18
0
0
-6.116749e-18
-2.8260773e-48
6.109065e-18
0
0
-6.0973472e-18
8.6592146e-34
6.0893808e-18
-6.0853468e-18
1.6895141e-30
-1.6883738e-30
1.6863608e-30
6.0688603e-18
0
0
0
0
0
-6.0431297e-18
1.6759795e-30
6.0343228e-18
0
0
0
0
0
0
0
-5.9982848e-18
3.3269671e-30
5.9891342e-18
0
0
0
0
0
0
0
-5.9522399e-18
1.6506867e-30
5.94297e-18
0
0
-5.9290515e-18
1.6459325e-30
5.9197653e-18
0
0
0
-5.9011763e-18
-1.6381865e-30
5.8918801e-18
0
0
0
0
0
0
0
-5.8546769e-18
8.3133893e-34
5.845376e-18
0
0
0
0
0
0
0
-5.8081471e-18
-8.2472551e-34
5.7988301e-18
0
0
0
-5.7802087e-18
3.2066942e-30
5.7709035e-18
0
-5.7615799e-18
-1.5993986e-30
5.7522503e-18
0
0
-5.7382863e-18
-5.7336322e-18
5.7289715e-18
5.724303e-18
0
0
0
0
5.7009564e-18
-8.0949236e-34
-1.1383261e-17
-5.6869558e-18
1.1364544e-17
1.1355165e-17
-5.6728936e-18
-5.668211e-18
0
0
0
0
-5.6448663e-18
-1.5669682e-30
5.6354956e-18
0
0
0
0
0
0
0
0
0
0
0
0
0
0
-5.5661568e-18
3.0887296e-30
5.5572005e-18
0
0
5.5438322e-18
-1.5381787e-30
7.8656765e-34
-5.5306084e-18
-5.5262942e-18
-3.0659339e-30
1.532973e-30
5.5136295e-18
0
0
0
0
0
-5.488506e-18
3.0450512e-30
5.4804034e-18
0
0
0
0
0
0
0
-5.4483442e-18
3.02199e-30
5.4402569e-18
0
0
0
0
0
0
0
-5.4083259e-18
4.5002351e-30
5.3997033e-18
0
0
0
0
0
0
0
0
-5.3623472e-18
7.6138515e-34
5.3531012e-18
0
0
0
0
-5.3306807e-18
5.3265254e-18
5.3223924e-18
-1.0636409e-17
-1.4755637e-30
5.3094351e-18
0
0
0
0
-5.2853358e-18
1.4655561e-30
1.0551835e-17
-5.2714067e-18
-5.2669998e-18
5.2626556e-18
0
0
0
-5.24524e-18
-1.4537702e-30
5.2362402e-18
5.2316064e-18
-5.2268598e-18
-5.2219973e-18
5.2170385e-18
0
0
-5.2020764e-18
-5.1972524e-18
5.1925745e-18
5.188044e-18
5.183634e-18
2.8763769e-30
-5.1749933e-18
0
0
0
-5.1576588e-18
-5.1532936e-18
5.1489057e-18
5.1444824e-18
5.1400109e-18
1.4252922e-30
-5.1309075e-18
0
0
0
-5.112332e-18
1.4175691e-30
5.1029612e-18
0
0
0
0
0
0
0
-5.064615e-18
1.404326e-30
1.0110616e-17
1.4024756e-30
-5.0460557e-18
0
0
-5.0319626e-18
7.1441093e-34
-1.3946441e-30
1.3926244e-30
5.0131219e-18
5.0085174e-18
-1.3894983e-30
-4.999403e-18
0
0
-4.9856408e-18
4.148017e-30
1.3811923e-30
-7.0659541e-34
4.9679662e-18
-4.9637469e-18
-4.9594636e-18
9.910104e-18
-2.7464857e-30
-4.9457373e-18
4.9408552e-18
0
-4.931026e-18
-1.36863e-30
4.9217072e-18
0
-4.9128774e-18
4.9084396e-18
-5.4454423e-30
-4.8991497e-18
4.8942699e-18
0
-4.8843527e-18
0
4.8749449e-18
0
-4.8663224e-18
4.8620667e-18
-2.6950144e-30
-4.8531899e-18
4.8485245e-18
0
-4.8389826e-18
-1.3423922e-30
4.8298249e-18
0
-4.8213065e-18
4.817069e-18
-1.3678624e-33
-4.8082948e-18
4.8037771e-18
0
-4.7949149e-18
-4.7907689e-18
4.7868362e-18
4.7829937e-18
-4.7790587e-18
4.7749091e-18
4.7705114e-18
-4.7658959e-18
0
0
0
0
0
0
-4.7355081e-18
-1.7732318e-49
9.455798e-18
-4.7239704e-18
-4.7199354e-18
4.7158288e-18
0
0
-4.7036291e-18
-4.6997344e-18
4.6959288e-18
4.6921512e-18
0
-4.6843388e-18
-1.3002778e-30
4.6760982e-18
0
0
-4.6640276e-18
-4.6602591e-18
4.656547e-18
4.6527648e-18
0
-4.6447235e-18
1.2885728e-30
4.6362199e-18
-4.6319879e-18
-2.5701255e-30
-6.5708532e-34
-4.619889e-18
4.6159947e-18
4.6120712e-18
0
0
-4.5995858e-18
1.275327e-30
4.5906145e-18
0
-4.581585e-18
-4.577217e-18
4.5729782e-18
4.5688417e-18
0
0
0
0
0
0
-4.5393064e-18
1.2586129e-30
4.530537e-18
0
0
0
0
0
0
-4.4990483e-18
-2.1004662e-49
4.4901666e-18
4.4859031e-18
1.2432121e-30
-4.4775471e-18
0
0
0
0
-4.4544637e-18
-1.2349363e-30
4.4449073e-18
-4.4404284e-18
-4.4361981e-18
4.4321592e-18
-2.4579782e-30
-3.684239e-30
-3.6795204e-30
1.226771e-30
-2.4497858e-30
1.2229708e-30
4.4017067e-18
0
-4.392e-18
3.6528834e-30
-6.2281478e-34
-4.3783124e-18
4.3741741e-18
4.3701824e-18
-4.3662045e-18
1.2106489e-30
-3.6270996e-30
-2.4169544e-30
-2.4124113e-30
1.2048234e-30
-2.4081228e-30
-4.3335617e-18
4.3290164e-18
4.3247363e-18
-4.3206405e-18
1.1973981e-30
-4.7873666e-30
-1.19561e-30
1.194926e-30
1.192359e-30
1.1916102e-30
-4.2887169e-18
0
4.2801142e-18
-1.1868684e-30
-6.4808501e-49
4.269369e-18
0
-4.2611671e-18
4.2564256e-18
4.2513682e-18
-4.246184e-18
0
0
0
0
-4.2232053e-18
1.1709249e-30
-2.3400388e-30
4.2101438e-18
4.2055102e-18
-4.2007657e-18
0
0
0
0
-4.1783798e-18
-5.932472e-34
4.1709804e-18
0
0
0
0
0
0
0
-4.135566e-18
-4.1306561e-18
4.1259205e-18
4.12142e-18
0
0
0
0
0
0
-4.093837e-18
-4.0898046e-18
4.0856157e-18
4.0812676e-18
0
0
0
0
0
0
-4.0517068e-18
-4.048164e-18
4.0446248e-18
4.0410293e-18
0
0
0
0
0
0
-4.0140862e-18
2.2264893e-30
4.0061391e-18
0
0
0
0
0
0
-3.977732e-18
1.1034811e-30
3.9702026e-18
0
0
0
0
-3.9509641e-18
-5.6090324e-34
3.9430953e-18
-3.9392451e-18
-1.7844359e-49
3.9316939e-18
-3.9279951e-18
2.1794414e-30
3.9208266e-18
-3.9172841e-18
-2.1729261e-30
-2.1708038e-30
-3.1328658e-48
-2.1656654e-30
-1.0810873e-30
3.893044e-18
-3.8889957e-18
-3.8851573e-18
7.762944e-18
-2.1513892e-30
-7.7483254e-18
0
3.866708e-18
-1.0726614e-30
-1.0721456e-30
-3.2092702e-30
-3.2062828e-30
-2.1339237e-30
3.1986104e-30
-2.1292426e-30
1.0647304e-30
3.8282893e-18
0
-3.8213021e-18
-5.4257807e-34
-3.1755927e-30
-3.1731027e-30
5.4102886e-34
2.111036e-30
-1.0549218e-30
-3.7948797e-18
0
3.7861814e-18
-2.0991039e-30
-5.367582e-34
3.772687e-18
0
-3.7649143e-18
3.7616034e-18
3.7583811e-18
-3.754953e-18
0
0
-3.7423754e-18
4.1498953e-30
-2.0710121e-30
2.0700936e-30
-1.0346591e-30
3.7201968e-18
3.7164601e-18
-3.7129407e-18
0
0
0
0
-3.6951921e-18
-1.0248584e-30
-4.0922065e-30
3.6815363e-18
3.6771002e-18
-3.6729887e-18
0
0
0
0
-3.6549492e-18
-3.6512046e-18
3.6474077e-18
3.6435672e-18
0
0
0
0
0
0
-3.6152058e-18
-3.6114217e-18
3.6077461e-18
3.6040909e-18
0
0
0
0
0
0
-3.5776536e-18
2.9760666e-30
7.1395594e-18
-3.5657404e-18
-1.0685053e-17
-3.557678e-18
0
7.1000472e-18
-3.938019e-30
-1.1797987e-29
-3.5391074e-18
-7.0707698e-18
7.063149e-18
-3.5276834e-18
-3.523745e-18
3.5198077e-18
-3.5159191e-18
4.9910091e-34
3.5083863e-18
3.5047237e-18
-3.5010856e-18
-3.4974424e-18
3.4937776e-18
-3.4900817e-18
-4.9543988e-34
3.4825757e-18
0
0
0
6.9344806e-18
-3.4634171e-18
-6.9192546e-18
3.455875e-18
-3.4521549e-18
-3.4484534e-18
6.8895075e-18
1.4107817e-48
-3.4373212e-18
3.4335976e-18
6.8597793e-18
3.4262124e-18
-1.0267722e-17
3.4189784e-18
1.8082531e-47
-1.0235739e-17
6.8168418e-18
3.4049278e-18
3.4014115e-18
6.7957049e-18
-6.788468e-18
-3.3905499e-18
-3.3868089e-18
3.3830389e-18
3.3792805e-18
-1.012672e-17
3.3719399e-18
3.3683806e-18
-3.3648809e-18
-3.3614218e-18
-4.7719795e-34
1.006362e-17
-3.3510824e-18
5.5735671e-30
-5.5696242e-30
-1.0021656e-17
3.3369854e-18
3.3333926e-18
6.6595547e-18
-3.3261438e-18
-6.6449948e-18
6.6376859e-18
-3.3151839e-18
3.3115219e-18
3.3078576e-18
-9.9125742e-18
3.3005251e-18
3.2968617e-18
-6.5864085e-18
-3.2895539e-18
3.2859075e-18
9.8467714e-18
-3.2785914e-18
-1.3099597e-17
1.8157497e-30
6.5348254e-18
3.2636235e-18
0
6.5119945e-18
7.219889e-30
-9.7450237e-18
3.2444932e-18
-7.1951618e-30
3.2367156e-18
3.2327786e-18
-6.457629e-18
0
0
0
-3.2128667e-18
1.7816292e-30
6.4097897e-18
-3.2009015e-18
-6.3937941e-18
9.578633e-18
-1.0620293e-29
-6.3695689e-18
3.1807089e-18
0
0
0
6.3285244e-18
-3.1601378e-18
-6.3120191e-18
9.4556038e-18
-8.946311e-34
-6.2870286e-18
0
0
-3.1309358e-18
1.7360473e-30
6.245314e-18
-3.1185496e-18
-6.2289098e-18
9.3310689e-18
-5.1717079e-30
-6.2041606e-18
3.0978834e-18
-3.0936463e-18
6.1787527e-18
3.0850857e-18
-1.025955e-29
-3.0764909e-18
-6.1444017e-18
9.2037468e-18
-1.7414731e-33
-3.0593497e-18
1.6957985e-30
-3.050816e-18
-3.0465822e-18
1.6887488e-30
9.114549e-18
-8.6231323e-34
-9.0893933e-18
6.0511751e-18
9.6546288e-48
-6.0343077e-18
3.0129457e-18
-3.008743e-18
6.0090724e-18
3.0003171e-18
-6.6530733e-30
-2.9918552e-18
-5.9752834e-18
-2.9834569e-18
-2.9792975e-18
8.925437e-18
0
-2.9667922e-18
-1.644463e-30
1.6421369e-30
-1.6394089e-30
2.9501206e-18
-3.270529e-30
2.9419101e-18
-9.7841158e-30
-8.8007909e-18
5.8588078e-18
8.7756484e-18
2.9210552e-18
-8.7507924e-18
-5.8256799e-18
8.7263096e-18
-2.904704e-18
-8.7018946e-18
0
0
2.8884813e-18
2.8845129e-18
0
-2.8765911e-18
-2.8725757e-18
5.7370418e-18
-6.3599327e-30
-8.5810941e-18
3.1709308e-30
2.8522562e-18
2.8482073e-18
2.8441442e-18
-2.8400725e-18
-2.8360153e-18
2.8319999e-18
8.484114e-18
-2.8241187e-18
-1.1280847e-17
2.8162822e-18
5.6246171e-18
2.808299e-18
0
-2.80037e-18
0
-2.7928663e-18
2.7892253e-18
-6.1847722e-30
2.7817964e-18
-9.2518257e-30
-8.3220256e-18
2.770027e-18
2.7660744e-18
-2.7622313e-18
-2.7585501e-18
2.7550309e-18
8.2548648e-18
-2.7482245e-18
-1.0978953e-17
4.5653426e-30
2.7373185e-18
5.4668411e-18
2.7294887e-18
-5.4512472e-18
-1.5108663e-30
-3.8630459e-34
2.7149907e-18
-6.0207286e-30
-2.7083357e-18
8.1148615e-18
-2.9991006e-30
-5.396154e-18
0
0
-2.6878805e-18
1.4900778e-30
5.3619053e-18
-2.6773509e-18
-5.3473489e-18
-2.6699808e-18
2.9592867e-30
7.9884672e-18
2.6594608e-18
-2.6562599e-18
5.306345e-18
-1.5064121e-33
-8.8163956e-30
-2.6437309e-18
-5.2807321e-18
7.9107394e-18
-2.9242397e-30
-5.25984e-18
0
0
5.2393442e-18
-5.8089792e-30
-2.8999816e-30
-7.4166179e-34
-7.8181907e-18
-5.2053092e-18
4.3291535e-30
7.7880104e-18
2.5927924e-18
-2.589617e-18
5.1728247e-18
2.8669408e-30
-8.5911007e-30
-2.5763376e-18
-5.1456833e-18
7.7079431e-18
-2.5657729e-18
-2.562222e-18
2.5586595e-18
-2.5550861e-18
5.1030215e-18
-2.8286099e-30
-2.5444146e-18
-3.6108627e-34
-5.0749276e-18
5.0680986e-18
-4.2133984e-30
-5.0544813e-18
2.523775e-18
0
-2.5166527e-18
-1.3945551e-30
7.5280223e-18
-2.505659e-18
-5.0039503e-18
-2.4982882e-18
-2.494593e-18
2.4908875e-18
2.4871749e-18
2.4834598e-18
-2.479745e-18
1.3743862e-30
-1.3719776e-30
2.468632e-18
-2.7371704e-30
2.4612769e-18
-8.1849407e-30
-7.3617526e-18
4.900397e-18
1.4486883e-48
-2.4426228e-18
-2.707072e-30
1.3519188e-30
7.2932768e-18
-2.4272595e-18
-7.2702635e-18
0
0
2.4118593e-18
2.4080426e-18
4.8085184e-18
-2.4004924e-18
-4.7934109e-18
4.7857345e-18
-2.3889753e-18
-7.1551616e-18
2.3811386e-18
2.3772557e-18
2.3734061e-18
2.3695627e-18
-4.7313733e-18
-2.361753e-18
2.3577701e-18
7.061324e-18
-2.3498065e-18
-2.0156322e-47
-3.8992917e-30
-4.6762451e-18
4.6684829e-18
4.6606787e-18
-2.3264093e-18
-4.6448982e-18
4.6369248e-18
2.3144625e-18
-6.9314146e-18
-6.9195375e-18
2.3025987e-18
4.5974575e-18
2.2948761e-18
-1.2716749e-30
-4.574083e-18
-2.2830176e-18
2.2789494e-18
4.5497825e-18
-3.2271398e-34
-4.5340052e-18
4.5263881e-18
-3.7630582e-30
-4.5110829e-18
2.2515876e-18
4.4950867e-18
4.4868737e-18
0
-2.2352383e-18
-6.6937186e-18
-2.2273378e-18
2.2235165e-18
0
0
0
0
-2.2041404e-18
1.2212342e-30
6.5882888e-18
-2.1921001e-18
-6.564447e-18
-2.1842322e-18
3.6313412e-30
4.352716e-18
2.17234e-18
-2.1682713e-18
4.3283835e-18
2.1601577e-18
-7.1818083e-30
-2.1524005e-18
-4.2973474e-18
6.4349412e-18
-6.0858384e-34
-2.1374897e-18
3.0321056e-34
-2.129781e-18
-2.1259007e-18
2.3557872e-30
6.354621e-18
-6.0094507e-34
-6.3316816e-18
-4.2134251e-18
1.1666419e-30
4.1979695e-18
2.0951661e-18
-2.0914316e-18
4.1755968e-18
2.0842364e-18
-6.929054e-30
-2.0771172e-18
-4.1470043e-18
6.2095616e-18
-2.2943777e-30
-2.0625493e-18
-2.0589357e-18
-2.0553571e-18
-1.1383209e-30
1.1366361e-30
4.0893146e-18
1.132654e-30
-4.0749287e-18
4.0677747e-18
-1.0143557e-29
-6.0805843e-18
4.046849e-18
-2.2430918e-30
-4.0331648e-18
2.0131333e-18
2.0096703e-18
4.0124172e-18
-2.0027681e-18
-5.9980984e-18
0
0
0
5.9580542e-18
5.9479473e-18
-5.9377944e-18
-5.9276557e-18
3.945062e-18
-5.5968475e-34
1.9659397e-18
-6.5377452e-30
-5.8782448e-18
5.8683531e-18
-9.7571911e-30
-3.8988961e-18
-1.0799641e-30
1.0786829e-30
3.8790933e-18
-1.9363159e-18
1.9330887e-18
-6.4283248e-30
-5.779615e-18
5.7696221e-18
1.9198641e-18
-4.2552981e-30
3.8265034e-18
-3.8200112e-18
-1.9067783e-18
-1.9035333e-18
-5.700734e-18
2.1058538e-30
1.8935306e-18
5.6704542e-18
-1.2567833e-29
-5.650513e-18
0
1.8769804e-18
3.747351e-18
-1.8703075e-18
1.8668837e-18
-6.2060839e-30
-3.7200011e-18
5.5698481e-18
-4.1143309e-30
-2.0548093e-30
-2.0500535e-30
-2.0462752e-30
1.8397611e-18
-5.5086934e-18
-5.4980934e-18
1.8292097e-18
3.6515778e-18
0
-1.8190435e-18
2.0150785e-30
-4.023352e-30
2.0076747e-30
1.8048344e-18
-1.8012329e-18
-1.7977083e-18
5.3827909e-18
1.7728056e-47
-2.9768966e-30
1.783806e-18
-1.975213e-30
3.5528315e-18
-3.5454081e-18
-3.5381336e-18
-1.7655359e-18
1.9559195e-30
1.7585835e-18
0
0
0
3.487316e-18
-1.7399111e-18
-3.4725622e-18
5.19827e-18
-1.7292484e-18
-5.1769415e-18
5.1657228e-18
-5.7218843e-30
-3.4282732e-18
5.1308119e-18
3.4130589e-18
0
-3.3988292e-18
-5.6473847e-30
-1.6920777e-18
-3.3763471e-18
1.6841725e-18
0
3.3526424e-18
4.7539506e-34
1.8529704e-30
-1.6655516e-18
-4.9854544e-18
4.9736477e-18
-2.7553704e-30
-4.9491208e-18
4.9371931e-18
-8.204176e-30
-3.2768228e-18
1.6348707e-18
-1.6311621e-18
3.2544518e-18
1.6231091e-18
-7.189059e-30
-1.6148674e-18
-3.222026e-18
-1.6073752e-18
-1.6038223e-18
3.2003304e-18
1.5963038e-18
0
-1.5880275e-18
8.7937182e-31
7.4881736e-49
1.5760777e-18
-4.4695376e-34
1.5690463e-18
9.1009115e-48
-4.6835144e-18
4.6707605e-18
4.6580554e-18
-3.0973093e-18
-3.0898554e-18
0
3.0756378e-18
-1.5340175e-18
-4.5900045e-18
4.5775659e-18
-2.5344275e-30
-3.0354003e-18
1.5139095e-18
0
-1.5067386e-18
-1.5030321e-18
1.4991217e-18
-2.4895932e-30
2.9818595e-18
8.4521928e-34
-4.4494445e-18
0
4.4282507e-18
2.9448327e-18
-4.4056313e-18
-2.92906e-18
4.3814739e-18
1.4565623e-18
-5.8113303e-18
-1.4492907e-18
2.8916023e-18
2.8844631e-18
-1.5970054e-30
-1.4347368e-18
-1.4308182e-18
-1.4268706e-18
1.42301e-18
-1.5756791e-30
2.831748e-18
-4.7042609e-30
-4.2270413e-18
0
0
2.7955421e-18
-3.0956317e-30
-1.3905254e-18
4.1613869e-18
-1.3837022e-18
-2.2978295e-30
-4.5840646e-30
-4.1179482e-18
1.3689767e-18
-7.5775396e-31
1.5122121e-30
1.3588767e-18
-1.355475e-18
1.9212361e-34
-7.4843304e-31
1.492634e-30
1.3410925e-18
0
-1.3342013e-18
2.6618868e-18
1.3276887e-18
-2.6486607e-18
0
1.3172259e-18
-1.3135968e-18
-2.6201167e-18
3.9200909e-18
-4.3419946e-30
-4.3306252e-30
1.2969535e-18
-3.8802583e-18
1.8329326e-34
1.2862744e-18
1.2829317e-18
-1.2797959e-18
-1.2766959e-18
1.27343e-18
0
-1.2664256e-18
2.5257485e-18
-2.0975869e-30
-1.2561358e-18
-2.7823412e-30
-2.7746274e-30
-3.5429967e-34
-2.4864671e-18
3.7193494e-18
3.7087822e-18
0
-2.4585792e-18
-3.6780075e-18
-1.737796e-34
1.2197317e-18
1.2164462e-18
-1.2129863e-18
-1.209426e-18
1.2058959e-18
0
2.398797e-18
2.3926775e-18
-3.5793875e-18
-1.1897136e-18
1.1861708e-18
-3.3611958e-34
-1.1791764e-18
-2.3518685e-18
-1.1728278e-18
1.9481151e-30
4.6655682e-18
-3.8732713e-30
-3.4785104e-18
1.1559912e-18
1.1524971e-18
1.1490792e-18
-1.1457935e-18
-1.1426276e-18
-1.1394509e-18
-3.2290872e-34
1.1326646e-18
-1.1291088e-18
3.3767338e-18
2.2443799e-18
-3.3569599e-18
1.115844e-18
2.2251575e-18
-2.2183226e-18
1.1056627e-18
-1.1021549e-18
-2.1974068e-18
3.2860368e-18
-1.0920823e-18
3.6270294e-30
3.2567906e-18
-2.164428e-18
-1.0787103e-18
-1.0751326e-18
-2.1431142e-18
1.0680661e-18
6.6714928e-75
2.1229568e-18
1.0582161e-18
-1.1710341e-30
-1.0513706e-18
-2.0956973e-18
2.0886223e-18
-1.0407978e-18
-3.1120752e-18
3.10212e-18
1.0308059e-18
-1.7503308e-47
1.0240474e-18
-3.0613223e-18
-1.0167775e-18
1.0131598e-18
2.0193169e-18
-1.0062728e-18
1.0029193e-18
-3.3288408e-30
-1.99214e-18
2.9778697e-18
1.0986881e-30
-4.3775117e-30
2.1802799e-30
-1.9569836e-18
1.9497728e-18
-9.713311e-19
-3.8714511e-18
9.6447657e-19
1.9222047e-18
0
1.9083026e-18
-2.1105443e-30
-5.3827012e-34
-1.0472029e-30
-9.3968032e-19
-9.3609775e-19
9.3255683e-19
9.2907023e-19
-1.8512588e-18
1.8443432e-18
-1.0198294e-30
-1.830094e-18
1.8228868e-18
3.0236302e-30
-1.0039844e-30
-9.0090275e-19
-1.794808e-18
8.9382636e-19
-8.901925e-19
4.9210352e-31
8.8294173e-19
1.7587563e-18
-8.7586792e-19
-1.7447977e-18
8.6891608e-19
-8.653737e-19
1.4353249e-30
-8.5822108e-19
-1.8981732e-30
1.7024612e-18
1.695552e-18
1.8742849e-30
-2.8001518e-30
2.7882628e-30
-8.3359692e-19
-8.3012978e-19
-8.2674087e-19
8.2337452e-19
0
0
-8.1273685e-19
4.491351e-31
1.1448987e-34
8.9067556e-31
7.990442e-19
0
-7.9234768e-19
-1.5776621e-18
7.8527931e-19
1.563553e-18
1.5567392e-18
1.5501264e-18
-2.3154272e-18
-2.5595594e-30
2.2955706e-18
-1.523564e-18
-1.5166637e-18
0
-7.5150511e-19
1.4963606e-18
7.4489913e-19
-1.4832574e-18
-7.3835721e-19
8.1605348e-31
2.195314e-18
-7.284023e-19
-2.1750447e-18
2.1650265e-18
7.1843171e-19
-2.1457336e-18
7.903312e-31
7.0867603e-19
1.4106467e-18
7.791269e-31
-1.397419e-18
1.3908592e-18
-6.9213928e-19
-2.0664894e-18
0
6.8218537e-19
1.3577557e-18
-3.7518695e-31
6.7225014e-19
1.3377994e-18
-1.3310928e-18
-1.3244281e-18
0
-6.5561047e-19
-7.2413313e-31
-7.2046458e-31
-7.1655517e-31
1.926018e-18
1.2771466e-18
0
-1.2634906e-18
-1.3948849e-30
-6.2486805e-19
-1.8641162e-18
6.1784472e-19
-3.4090295e-31
8.6798087e-35
6.0725689e-19
1.2073856e-18
-6.0007856e-19
-1.1928666e-18
5.9277736e-19
0
1.1708163e-18
-5.8169273e-19
-1.7338855e-18
5.742096e-19
5.7042949e-19
1.1332311e-18
-5.6275873e-19
-1.6765714e-18
5.5492754e-19
-6.1159964e-31
-1.0940544e-18
5.4304116e-19
5.390231e-19
1.0699325e-18
1.5925715e-18
-1.0533933e-18
-1.0450203e-18
1.0366395e-18
5.7059881e-31
-1.0197118e-18
1.0110531e-18
5.5635605e-31
-9.9353005e-19
0
9.7582611e-19
9.6682992e-19
0
-1.422813e-18
-4.696554e-19
-1.3216269e-34
-4.6030147e-19
-4.5554968e-19
-5.0028954e-31
8.9187711e-19
8.8213773e-19
-1.4526246e-30
-8.6242134e-19
8.5240354e-19
1.4026363e-30
-8.3214506e-19
0
0
0
0
7.7991853e-19
4.2707161e-31
-7.5837881e-19
-3.7373756e-19
7.364748e-19
-1.2081208e-30
-7.1417987e-19
7.0289652e-19
3.8394358e-31
-3.4001947e-19
6.6846697e-19
-1.0939187e-30
-6.4504242e-19
6.331783e-19
6.2122462e-19
-6.0917275e-19
-5.9699847e-19
0
0
0
0
-2.6741854e-19
2.6105248e-19
2.5463587e-19
-2.755053e-31
2.3029402e-74
-2.3508524e-19
-4.569372e-19
-2.2180227e-19
4.301727e-19
6.2496274e-19
-2.0150609e-19
-3.8928393e-19
5.6318605e-19
3.615327e-19
-5.212654e-19
-3.3339034e-19
-1.5958663e-19
-1.6922014e-31
2.9044918e-19
0
-1.3067052e-19
1.2332192e-19
-2.5739061e-31
-3.0832587e-35
-3.3632156e-31
-9.3455385e-20
-8.5872217e-20
2.2238021e-35
1.4113685e-19
1.256975e-19
-1.8344065e-31
-9.4551527e-20
0
0
0
-1.5605527e-20
-7.5846016e-21
-4.3864252e-22
-8.5379134e-21
1.6724532e-20
-4.985015e-20
-9.9471994e-20
0
9.9457807e-20
6.4451893e-32
6.6451713e-20
2.2460487e-19
-8.332073e-20
1.5288168e-31
-2.0066035e-19
7.2534019e-31
2.349485e-19
6.9992307e-32
1.9148728e-35
-1.4343008e-19
1.5214279e-19
-3.2176911e-19
-1.6965449e-19
3.5690352e-19
-3.7455098e-19
-5.5742027e-35
2.2763822e-31
2.1389689e-19
6.6845357e-19
-4.6352176e-19
8.6418788e-49
-2.4970936e-19
4.3088937e-31
5.3546903e-19
-2.7677343e-19
-5.7165726e-19
3.2729897e-31
9.1195125e-19
-8.8983159e-35
-3.2219177e-19
3.3131313e-19
-6.8088958e-19
-3.4958587e-19
7.1747073e-19
-7.3578467e-19
-4.1848202e-31
2.1439499e-30
-8.7801609e-31
8.0914962e-19
-8.2750831e-19
4.2293491e-19
8.6423204e-19
-4.4129628e-19
4.5047457e-19
-9.192996e-19
7.8082698e-31
1.4339612e-18
0
0
-1.5163352e-18
-5.1458086e-19
1.047413e-18
-1.0656424e-18
-3.0804823e-34
2.4468396e-30
6.2178664e-31
1.1383077e-18
-1.1564016e-18
-1.1744624e-18
5.9624429e-19
1.8157178e-18
6.1421547e-19
-6.2317199e-19
0
0
6.4991444e-19
-3.6567471e-31
-2.0028834e-18
-1.9225804e-34
1.370485e-18
6.9401105e-19
-7.7996246e-31
-2.1343989e-18
-1.5989549e-30
1.4576143e-18
0
7.4602875e-19
-1.5091868e-18
-7.6312638e-19
1.7134655e-30
7.800941e-19
1.5770549e-18
-7.9692653e-19
0
0
0
0
8.3839039e-19
-4.6991213e-31
-2.56415e-18
8.6282216e-19
2.6126665e-18
-2.6367487e-18
-8.8690391e-19
1.7897026e-18
9.0275789e-19
1.5162661e-30
-2.7553421e-18
5.2650055e-34
3.1108103e-30
9.4166736e-19
1.8986445e-18
9.5693398e-19
1.07047e-30
-9.7202705e-19
-9.7950784e-19
-9.8694441e-19
-9.9433642e-19
2.2240419e-30
2.017971e-18
0
0
1.030618e-18
1.727921e-30
1.4847634e-34
-1.4947475e-34
-1.0588137e-18
-2.1314904e-18
-2.145259e-18
2.1589329e-18
1.2065265e-30
1.0929975e-18
3.2990738e-18
0
0
-1.1194835e-18
-1.1259845e-18
0
1.1388415e-18
-6.3567144e-31
-1.1515041e-18
1.1577623e-18
-2.3279435e-18
3.8970747e-30
3.5287336e-18
-1.1823077e-18
-1.188322e-18
-2.3885744e-18
1.2002034e-18
3.6182122e-18
-1.2118892e-18
6.760662e-31
-2.446759e-18
-1.2290513e-18
2.4693481e-18
-2.4804956e-18
8.4637083e-48
2.5024973e-18
0
0
-2.5347673e-18
1.4114035e-30
4.2566996e-30
7.934621e-48
3.86463e-18
1.4359365e-30
-1.2983287e-18
-2.6066288e-18
-2.6165016e-18
2.6262755e-18
2.9263058e-30
1.3227635e-18
4.421943e-30
-1.3321922e-18
2.6736652e-18
0
1.3459652e-18
-1.4988289e-30
-1.3548998e-18
-2.7185859e-18
-1.5134565e-30
2.7358625e-18
0
0
1.3805171e-18
-7.6856539e-31
-4.1659773e-18
-1.5460593e-30
2.7932043e-18
0
-1.4043452e-18
1.4081414e-18
1.4118871e-18
1.4155824e-18
1.4192271e-18
-2.8456424e-18
-4.2790931e-18
1.4298564e-18
2.866594e-18
-4.3100582e-18
1.2718513e-48
2.8866178e-18
0
0
0
0
-2.9178974e-18
-2.9238344e-18
1.464832e-18
4.4030781e-18
1.6333137e-30
-1.4732523e-18
2.9519016e-18
2.9571886e-18
-1.4811822e-18
-5.9348575e-18
-2.972381e-18
4.4658309e-18
2.9819467e-18
-4.4798376e-18
-3.3201005e-30
2.9954357e-18
0
0
0
-3.0117873e-18
-1.6738749e-30
3.3522529e-30
-1.5113979e-18
4.5393325e-18
-1.5147623e-18
-1.516352e-18
4.5536382e-18
3.0386881e-18
-1.5207453e-18
-3.0441651e-18
-3.0467108e-18
5.0783577e-30
-1.6941993e-30
4.3393796e-34
3.0555896e-18
0
1.5296177e-18
1.5304281e-18
-1.5311703e-18
-1.531844e-18
1.5324485e-18
1.5329836e-18
-3.0668975e-18
-1.5338435e-18
1.5341672e-18
-1.5344194e-18
1.5345995e-18
3.0694136e-18
0
0
-4.6037618e-18
-1.5343988e-18
3.0682706e-18
1.5337965e-18
1.5333826e-18
-3.0657898e-18
1.7019971e-30
3.0634227e-18
0
-1.5302817e-18
-4.5884324e-18
-3.393526e-30
8.4804124e-30
-3.053128e-18
4.5761248e-18