/*--------------------------------*- C++ -*----------------------------------*\
  =========                 |
  \\      /  F ield         | OpenFOAM: The Open Source CFD Toolbox
   \\    /   O peration     | Website:  https://openfoam.org
    \\  /    A nd           | Version:  7
     \\/     M anipulation  |
\*---------------------------------------------------------------------------*/
FoamFile
{
    version     2.0;
    format      ascii;
    class       volScalarField;
    location    "0.00096";
    object      Uy;
}
// * * * * * * * * * * * * * * * * * * * * * * * * * * * * * * * * * * * * * //

dimensions      [0 1 -1 0 0 0 0];

internalField   nonuniform List<scalar> 
5000
(
1.3510587e-28
3.039882e-28
0
0
2.533235e-28
0
3.039882e-28
0
0
3.039882e-28
9.119646e-28
-1.013294e-28
5.06647e-29
-5.06647e-29
0
-1.013294e-28
2.3418399e-55
4.053176e-28
0
4.053176e-28
-5.573117e-28
-1.519941e-28
2.026588e-28
-2.026588e-28
-1.013294e-28
4.5932217e-56
5.06647e-29
5.06647e-29
3.06725e-43
-4.391931e-42
5.3135165e-42
-1.519941e-28
-5.06647e-28
7.093058e-28
-6.1487034e-42
2.6437985e-41
1.331598e-55
6.079764e-28
-4.053176e-28
-3.039882e-28
2.026588e-28
-1.0454236e-41
1.013294e-28
-2.026588e-28
-4.559823e-28
-5.06647e-29
-1.013294e-28
-6.9406909e-42
-1.013294e-28
0
-3.546529e-28
-5.0136598e-59
-4.559823e-28
1.013294e-27
-1.7711722e-41
-6.079764e-28
-5.06647e-29
-6.99829e-42
-4.559823e-28
0
5.06647e-29
6.9118914e-42
7.1998869e-44
5.06647e-29
-3.039882e-28
1.2398205e-41
-2.026588e-28
1.013294e-28
-1.519941e-28
5.06647e-29
-1.013294e-28
1.519941e-28
5.06647e-29
-5.06647e-28
5.06647e-29
-4.559823e-28
0
-5.06647e-29
4.3199321e-44
3.546529e-28
-1.519941e-28
-7.1998869e-44
1.1519819e-43
1.519941e-28
1.519941e-28
8.8198614e-42
-1.519941e-28
0
2.533235e-28
5.7815092e-41
1.0627033e-41
-5.06647e-29
-1.519941e-28
8.106352e-28
1.7531725e-41
-1.013294e-28
0
0
4.053176e-28
1.7567724e-41
-4.053176e-28
3.546529e-28
5.06647e-28
0
-1.013294e-28
-2.533235e-28
2.026588e-28
-1.013294e-28
0
0
1.013294e-28
3.546529e-28
0
-5.06647e-28
-1.7711722e-42
-2.533235e-28
4.053176e-28
-1.5839751e-43
1.2398205e-41
3.4151832e-56
9.119646e-28
-4.3199321e-44
1.519941e-28
0
2.026588e-28
5.06647e-29
1.013294e-28
-6.079764e-28
-1.519941e-28
-6.6457135e-42
2.533235e-28
-2.1153711e-41
3.039882e-28
2.026588e-28
0
-3.546529e-28
-3.546529e-28
2.026588e-28
-1.7567724e-42
-5.06647e-29
-5.06647e-29
-4.053176e-28
0
1.519941e-28
1.013294e-28
2.026588e-28
-1.013294e-28
-8.6398642e-44
6.9491882e-43
-3.546529e-28
1.519941e-28
-7.0558891e-42
-1.519941e-28
1.7753423e-42
-1.7576479e-42
-5.06647e-29
-1.013294e-28
0
0
5.06647e-29
1.013294e-28
-1.519941e-28
-2.026588e-28
2.026588e-28
-1.0540634e-41
4.053176e-28
-4.053176e-28
-3.546529e-28
0
2.026588e-28
1.013294e-28
0
-1.519941e-28
-2.026588e-28
0
2.533235e-28
-6.9335982e-54
-1.013294e-28
-5.06647e-29
-1.013294e-28
5.06647e-29
-1.399658e-41
3.1362707e-41
1.7279728e-43
-5.06647e-29
1.013294e-28
-4.9189627e-41
1.7423726e-41
1.516025e-55
-1.013294e-28
0
0
-1.519941e-28
5.06647e-29
0
0
1.013294e-28
-9.7576662e-57
-2.026588e-28
0
3.546529e-28
-4.053176e-28
-1.1231824e-40
9.119646e-28
-6.079764e-28
-7.3633243e-41
1.7573878e-55
-1.013294e-28
1.519941e-28
7.1998869e-45
1.402538e-41
7.0126898e-42
-4.559823e-28
0
5.06647e-29
-3.5063449e-42
-1.1249103e-40
-5.06647e-28
0
-2.026588e-28
-5.573117e-28
0
0
0
1.519941e-28
-1.0519035e-41
2.533235e-28
0
0
3.039882e-28
-1.519941e-28
1.0443036e-41
-1.519941e-28
0
-2.533235e-28
1.013294e-28
-5.573117e-28
-4.559823e-28
0
1.519941e-28
1.1874777e-56
1.4054179e-41
-1.013294e-28
-2.026588e-28
-1.519941e-28
0
5.06647e-29
-4.2248936e-41
2.533235e-28
5.6216717e-41
-9.119646e-28
2.1050116e-41
2.8108358e-41
8.7946618e-41
2.4544414e-41
1.519941e-28
6.9487508e-42
1.013294e-28
0
-6.079764e-28
-6.079764e-28
0
-4.559823e-28
-4.053176e-28
1.2159528e-27
8.612999e-28
-9.119646e-28
-9.626293e-28
-1.6865015e-40
3.039882e-28
-1.519941e-28
7.0270896e-42
1.013294e-28
-5.06647e-29
3.5207447e-42
-2.1167667e-41
7.1998869e-44
3.499145e-42
-5.06647e-29
0
0
1.013294e-28
1.013294e-28
0
0
0
0
-4.053176e-28
-1.3967781e-41
2.5002788e-41
8.6398642e-44
1.013294e-28
5.06647e-29
-7.0342895e-42
1.4039779e-41
2.8799547e-44
1.519941e-28
2.533235e-28
2.533235e-28
-6.079764e-28
-1.3679469e-27
1.519941e-28
-6.079764e-28
0
4.053176e-28
1.519941e-28
-5.06647e-28
7.1998869e-44
4.3199321e-44
-1.4399774e-44
5.06647e-29
3.039882e-28
-5.06647e-29
1.013294e-28
2.533235e-28
4.8788331e-57
2.026588e-28
1.4039779e-41
1.2159528e-27
0
0
-3.039882e-28
2.8137158e-41
1.013294e-28
0
-7.093058e-28
-5.573117e-28
5.06647e-28
-5.7599095e-44
2.8137158e-41
-3.5999434e-44
-2.533235e-28
3.039882e-28
4.559823e-28
0
-3.039882e-28
-1.5585645e-55
4.053176e-28
-1.6212704e-27
1.8270433e-40
4.559823e-28
8.4411474e-41
1.013294e-27
-1.2159528e-27
-1.013294e-28
-1.519941e-28
6.4798982e-44
6.586411e-28
0
0
-1.013294e-27
1.335147e-40
1.6212704e-27
-1.3679785e-43
-2.7358938e-27
9.119646e-28
1.2666175e-27
-2.7358938e-27
1.6719351e-27
-2.1279174e-27
-4.3571642e-27
2.2799115e-27
2.4319056e-27
2.7865585e-27
-2.9892173e-27
1.9515332e-56
3.4958643e-27
-3.7998525e-27
3.7998525e-27
-4.5091583e-27
-1.5022564e-39
-1.655974e-42
-6.1810934e-27
1.357814e-26
-7.599705e-27
-2.3353841e-39
2.6140773e-39
1.0234269e-26
2.1684491e-26
-3.4654655e-26
-3.4994906e-39
7.8141236e-39
-4.3523316e-39
3.5262631e-26
-3.9113148e-26
5.8887011e-39
4.6206206e-26
0
0
-3.0753473e-26
4.6167979e-39
3.6529249e-26
4.0329101e-26
-4.4179618e-26
-1.4606633e-25
5.3197935e-26
5.7859087e-26
1.7999717e-41
6.9461303e-26
0
-1.6668686e-25
-1.8158228e-25
9.9657464e-26
2.1846619e-25
1.1921404e-25
-2.6031523e-25
-2.8493827e-25
3.1138524e-25
3.3955482e-25
0
-4.0521627e-25
2.2150607e-25
4.8445586e-25
-2.6487505e-25
-2.8929544e-25
4.4833696e-41
-4.7748757e-38
-3.7537476e-25
4.0987742e-25
4.472173e-25
-4.8739441e-25
7.366498e-38
8.2366706e-41
8.7698078e-38
6.8909058e-25
-7.5115484e-25
3.4079022e-37
1.2365577e-37
2.6924729e-37
1.0565616e-24
-1.1504433e-24
1.7392281e-37
3.7813064e-37
2.1099268e-40
3.2310906e-24
1.7574064e-24
-1.9117818e-24
-4.1584572e-24
3.1394737e-37
4.9171104e-24
2.6725629e-24
-5.8104304e-24
-3.1574241e-24
3.4308108e-24
3.7271993e-24
1.123687e-36
-4.397088e-24
0
0
-5.6263149e-24
0
6.6256761e-24
-7.1889156e-24
-1.1082138e-39
2.3474066e-36
0
9.9446699e-24
-1.0780992e-23
-1.1685306e-23
2.5327689e-23
1.3721622e-23
-1.486477e-23
0
0
1.8880302e-23
-5.6785915e-36
-2.2124008e-23
0
0
2.8028877e-23
-1.2632645e-35
-3.2789586e-23
0
0
0
0
0
0
0
0
-1.3173106e-22
-3.9472738e-35
7.6763607e-23
-8.2850109e-23
8.9403791e-23
-9.6459154e-23
2.8923115e-35
1.1222662e-22
3.3604897e-35
1.3047959e-22
0
0
-1.6336371e-22
-4.8875017e-35
1.896062e-22
0
0
0
0
0
0
0
-6.8334308e-22
3.0591844e-34
7.90345e-22
-4.2487488e-22
-6.490513e-38
-4.9088516e-22
2.9250418e-34
1.1335028e-21
6.0881247e-22
-2.2446243e-51
-2.106471e-21
0
1.6184775e-21
0
0
-1.9998152e-21
2.9753126e-34
3.4510309e-21
-1.2335164e-21
-1.3224655e-21
1.4175748e-21
-1.5192513e-21
1.6279279e-21
4.8379621e-34
-1.8681483e-21
2.0006998e-21
0
2.2934424e-21
-2.4548376e-21
-5.2542293e-21
2.8109719e-21
3.0071496e-21
3.216433e-21
3.4396546e-21
-7.3553956e-21
-3.9314971e-21
4.2020435e-21
0
-4.7976351e-21
5.1249673e-21
5.4736274e-21
-1.75348e-20
-1.7735937e-36
1.3322271e-20
-7.1090646e-21
-1.0532009e-33
-8.0928249e-21
2.4534295e-36
1.8411795e-20
-9.8158583e-21
0
3.0970993e-33
1.6890804e-36
1.2663941e-20
-1.3490454e-20
3.9897697e-33
2.122112e-33
2.3149003e-36
1.7339814e-20
-1.8454198e-20
5.8606921e-50
5.800912e-33
3.1577454e-36
4.7261807e-20
3.4849108e-33
-2.6710425e-20
0
0
3.2052661e-20
1.4167223e-32
-3.6160976e-20
3.8397594e-20
-5.6597827e-33
4.9602105e-49
6.3754755e-33
-4.8722488e-20
-5.1686578e-20
-7.6034849e-33
5.8133173e-20
0
0
-6.9241404e-20
7.3368905e-20
-6.4705875e-32
-8.2328857e-20
8.7185798e-20
0
-9.7719178e-20
-1.0342368e-19
1.0943984e-19
1.1578334e-19
0
-1.295187e-19
-1.3694557e-19
2.8953978e-19
1.5301117e-19
-1.6168977e-19
-1.7082693e-19
-2.5027327e-32
-1.9056657e-19
-5.5873752e-32
4.2483802e-19
0
0
0
-2.6330064e-19
-2.7768364e-19
0
3.0866458e-19
4.5076427e-32
-3.4282736e-19
0
0
4.0068614e-19
5.8516146e-32
-6.1538123e-32
4.6746101e-19
-4.9190755e-19
2.1534007e-31
5.4437173e-19
0
6.0194212e-19
8.7854993e-32
-6.6505882e-19
6.9884318e-19
-7.341936e-19
-7.7117426e-19
8.0985154e-19
0
-8.9257264e-19
-9.3676059e-19
9.829335e-19
1.0311694e-18
0
1.1341551e-18
-1.1890736e-18
-1.2463928e-18
1.3062038e-18
2.7372003e-18
-7.96208e-31
-4.504615e-18
3.4767581e-48
1.6460141e-18
3.4456869e-18
-1.0002235e-30
-3.7724818e-18
1.9730406e-18
-2.0634004e-18
2.1574441e-18
2.2552983e-18
-4.7141861e-18
0
0
5.3749409e-18
-4.6684656e-47
-5.8599133e-18
0
0
6.6600055e-18
-5.6359675e-47
-7.2454783e-18
0
0
8.2084104e-18
4.2766812e-18
-8.9108972e-18
-4.640691e-18
0
1.0062703e-17
-2.9085063e-30
-1.0900392e-17
5.6706812e-18
0
-6.1347896e-18
6.3788275e-18
-9.4234105e-34
-6.8919284e-18
7.1614229e-18
-7.4398389e-18
-7.7273985e-18
8.0243266e-18
8.3308501e-18
-2.4011549e-30
-8.9736026e-18
9.3102963e-18
2.6816996e-30
-1.0015494e-17
1.0384474e-17
-1.0764693e-17
-1.1156393e-17
1.1559816e-17
1.1975206e-17
-3.4440123e-30
-1.284286e-17
1.3295613e-17
-1.9555999e-33
-1.4240198e-17
1.4732519e-17
-1.5238519e-17
-1.5758441e-17
1.6292528e-17
3.3682045e-17
-9.6705264e-30
-3.5964382e-17
1.8575342e-17
-2.7261892e-33
-3.9615903e-17
-5.8116351e-33
2.1103844e-17
0
-2.2464827e-17
0
2.3892654e-17
0
0
0
2.6955548e-17
-3.9408107e-47
-2.8593785e-17
0
-3.030519e-17
8.6604982e-30
3.2091128e-17
0
0
0
3.589154e-17
-1.0243636e-29
-3.7908198e-17
0
-4.0003739e-17
-1.1401632e-29
4.2178935e-17
0
-4.4434416e-17
4.5592422e-17
-2.5987861e-29
-4.7969193e-17
4.9188021e-17
0
5.1686648e-17
1.4707729e-29
-5.426656e-17
0
-5.6927598e-17
5.8288444e-17
3.3138029e-29
-6.1070504e-17
3.4696451e-29
9.0853612e-33
-1.8167719e-29
9.5033394e-33
6.8373856e-17
0
-7.1432123e-17
2.0257509e-29
2.0695154e-29
7.7054255e-47
2.159709e-29
0
1.6212083e-16
2.2972267e-29
-8.4415826e-17
8.6119894e-17
-2.4379272e-29
-8.9579496e-17
-9.1334495e-17
-2.5853661e-29
2.635003e-29
-9.6696862e-17
9.851577e-17
1.0034988e-16
0
1.0406238e-16
-2.9417454e-29
-1.0783163e-16
0
0
0
2.3105762e-16
-1.3049183e-28
-2.3890133e-16
0
0
0
0
0
0
0
2.7110138e-16
-7.6458102e-29
-2.7932348e-16
-1.4172774e-16
1.4380011e-16
1.4587841e-16
-4.1107177e-29
-8.3247021e-29
-1.5214423e-16
1.542416e-16
-1.5634258e-16
-1.584467e-16
1.6055349e-16
1.6266248e-16
-9.1461653e-29
-1.6688521e-16
-1.68998e-16
4.7465523e-29
1.7322412e-16
1.7533651e-16
-1.7744783e-16
-1.7955763e-16
1.8166544e-16
-1.837708e-16
0
1.8797237e-16
1.9006766e-16
-5.3304035e-29
-1.9424505e-16
1.9632625e-16
-1.9840187e-16
-2.0047148e-16
2.0253464e-16
-2.0459093e-16
-5.7379794e-29
2.086812e-16
2.1071436e-16
3.0232026e-32
-4.2950929e-16
-1.2034962e-28
2.1875758e-16
2.2074404e-16
0
-2.2468506e-16
0
0
0
-2.3242893e-16
-2.34334e-16
2.36226e-16
2.3810459e-16
0
-2.418202e-16
6.7693203e-29
2.4547819e-16
0
0
-2.5085159e-16
1.4021841e-28
2.5435458e-16
0
0
-2.5948431e-16
1.4496356e-28
2.6281773e-16
0
-2.6607955e-16
7.4330233e-29
-7.4732024e-29
7.5205097e-29
2.7238031e-16
0
2.7541543e-16
-1.5366306e-28
-2.7837128e-16
0
-2.8124614e-16
2.8265268e-16
2.8403836e-16
-5.7080595e-16
-7.9705251e-29
5.7613654e-16
-8.0351896e-29
-2.9064708e-16
0
0
-2.9435004e-16
8.202347e-29
2.9670653e-16
0
-2.9897179e-16
3.0006983e-16
3.0114459e-16
-3.0219595e-16
0
3.0422785e-16
-3.0520811e-16
-1.6994451e-28
1.7046194e-28
-3.0800453e-16
2.5722846e-28
-3.097472e-16
3.1058167e-16
-8.6422944e-29
1.7337027e-28
6.2587231e-16
-8.7011029e-29
-3.1438052e-16
0
0
0
6.3392895e-16
3.1754633e-16
-6.3620462e-16
-3.1863232e-16
0
0
-3.2006547e-16
1.5476191e-47
3.2088917e-16
0
6.4321316e-16
3.2192518e-16
-6.4443383e-16
-3.2248169e-16
0
6.4586004e-16
9.1834348e-32
-9.698083e-16
8.9709294e-29
6.4699843e-16
-3.2357278e-16
-1.8395592e-31
3.2363678e-16
-8.9910643e-29
-1.7952346e-28
-3.2351884e-16
0
-3.2329785e-16
1.7941593e-28
6.4592744e-16
-3.2275404e-16
5.3697074e-28
3.2224908e-16
-6.4390732e-16
4.5706304e-32
3.212766e-16
0
0
0
3.1957577e-16
-3.1907798e-16
-6.371021e-16
3.1799493e-16
8.8138317e-29
8.7877599e-29
3.161509e-16
0
-3.1477474e-16
4.4628126e-32
6.2656164e-16
-3.1248962e-16
-1.7291134e-28
3.1081864e-16
3.0993882e-16
-1.7171048e-28
-6.1618098e-16
0
-3.061239e-16
-3.0509626e-16
0
3.0295241e-16
3.0183624e-16
-3.0069062e-16
0
2.9831118e-16
0
0
-2.9452236e-16
2.4416501e-28
2.9185084e-16
0
0
-2.8762686e-16
-2.8616151e-16
2.8466768e-16
2.8314551e-16
-2.8159516e-16
-2.8001677e-16
5.5682102e-16
2.7677656e-16
-7.6433089e-29
-2.7342636e-16
1.5074276e-28
1.4977591e-28
-2.6819844e-16
2.6640269e-16
-2.6458081e-16
2.6273306e-16
2.2242238e-31
-2.589611e-16
5.1407501e-16
2.5508925e-16
2.5311667e-16
-5.0224025e-16
-4.9819993e-16
2.4705657e-16
-2.4499033e-16
2.4290165e-16
-1.3372571e-28
-4.7731734e-16
2.3650525e-16
-6.5035795e-29
6.449277e-29
2.2992283e-16
0
0
-2.2316766e-16
-2.2088001e-16
0
2.1625418e-16
2.1391717e-16
0
2.0919798e-16
-5.7428982e-29
-2.0442278e-16
2.0201579e-16
-5.5367325e-29
-1.9716642e-16
0
-1.9227448e-16
-1.0538835e-28
1.8734568e-16
-1.848693e-16
5.0567189e-29
1.7989634e-16
1.7740129e-16
4.8541832e-29
-1.7239797e-16
0
1.673823e-16
-1.6487184e-16
4.6145694e-32
-8.8774202e-29
-1.573398e-16
1.5483163e-16
0
2.9964812e-16
-3.2710919e-28
-1.4483371e-16
-7.9013441e-29
-2.7973448e-16
2.7479009e-16
2.6986262e-16
-2.6495372e-16
-2.6006502e-16
-1.2759907e-16
0
1.2276817e-16
2.4074457e-16
-1.6767457e-32
1.1562356e-16
-1.1327226e-16
-1.1093733e-16
1.0861951e-16
-2.1263904e-16
2.0807615e-16
1.6950894e-28
-1.9906713e-16
1.9462369e-16
-5.2794021e-29
9.2932682e-17
-9.0776479e-17
-8.8643316e-17
8.6533762e-17
2.3425629e-29
1.647753e-16
-1.6070425e-16
-1.5668453e-16
1.5271707e-16
2.0649207e-29
7.2471183e-17
-3.9190859e-29
-6.869327e-17
-1.8552374e-29
-3.4824303e-46
-6.3237658e-17
-1.2295328e-16
5.9744804e-17
7.326554e-46
5.636951e-17
9.1163052e-29
-5.3113193e-17
1.0305996e-16
-2.7740956e-29
-9.6907803e-17
-7.1243013e-47
4.5498587e-17
0
0
4.1292022e-17
-3.9950011e-17
-7.727589e-17
0
0
0
3.3686369e-17
3.2521782e-17
0
-3.027909e-17
2.9200492e-17
4.6884213e-29
-5.4254819e-17
0
0
0
2.3309056e-17
2.2420794e-17
-2.1558332e-17
2.0721292e-17
1.105682e-29
-3.8243768e-17
0
0
3.3806582e-17
-4.6072152e-33
-1.5539597e-17
1.4891043e-17
-1.4264088e-17
1.3658283e-17
-7.2603167e-30
-2.5016577e-17
0
0
1.0930465e-17
1.0441927e-17
0
0
-9.082108e-18
-8.6625779e-18
0
7.8714255e-18
7.4989098e-18
-7.1411857e-18
6.7978135e-18
6.4683647e-18
-6.1524153e-18
-5.8495467e-18
3.08744e-30
5.281406e-18
-5.0153306e-18
-1.3212817e-30
4.5171989e-18
0
4.0618903e-18
-2.1372414e-30
-3.6464649e-18
3.4528238e-18
-1.814512e-30
-3.0919794e-18
0
2.7642074e-18
-7.2528356e-31
-3.505832e-34
2.3291306e-18
-2.1980164e-18
-2.0733888e-18
0
3.6850657e-18
-1.9279803e-30
-1.6345131e-18
-2.186281e-34
-2.8947997e-18
2.722225e-18
2.5587692e-18
-2.4040085e-18
-1.1287752e-18
0
1.9879923e-18
-1.5518607e-30
-1.7471529e-18
0
1.5323035e-18
3.9814502e-31
-6.7045819e-19
-1.7400584e-31
-1.1706555e-18
1.0927662e-18
1.2730438e-30
-9.5022679e-19
8.8510201e-19
-2.2857369e-31
-7.660679e-19
-3.5587601e-19
6.6064984e-19
3.0629823e-19
-5.6742162e-19
5.2497208e-19
6.0583575e-31
-4.4771038e-19
4.1264067e-19
-5.2729958e-32
1.7453118e-19
-1.7773595e-31
-4.404137e-19
7.4582257e-32
2.4564616e-19
-1.1215331e-19
-2.0464886e-19
9.3313792e-20
-4.7249316e-32
7.7662217e-20
7.8854649e-32
-6.5152592e-20
1.2181525e-19
-4.9758955e-32
6.7069666e-32
-3.2881651e-32
-5.9652386e-20
0
-7.6448957e-20
-7.5875382e-20
0
0
0
0
0
8.4506076e-20
9.0933719e-20
0
-8.5363396e-20
8.5182204e-20
1.4924842e-31
-1.7948759e-19
0
0
0
8.3544688e-20
7.9368649e-20
-7.5657613e-20
-7.5546463e-20
1.5037361e-19
1.195285e-31
-1.3481827e-19
0
1.248085e-19
9.9082205e-32
-5.5664029e-20
5.1379443e-20
-4.6917107e-20
4.2121892e-20
2.0395133e-32
-6.6201183e-20
0
0
2.359335e-20
3.312622e-20
0
2.7407471e-20
7.7338583e-36
4.1902994e-20
-4.4408516e-20
-1.0628083e-19
0
-1.1803181e-19
-1.1761935e-19
0
1.3972212e-19
1.1856093e-19
-1.2555549e-19
5.3360731e-20
5.0441463e-20
-1.7219619e-19
-5.9160694e-20
-7.4550907e-36
-5.0668249e-20
5.716407e-20
6.0038902e-20
5.3900785e-20
-1.6710914e-50
5.2643795e-20
5.6004966e-20
-5.1066669e-20
0
-8.5494733e-20
-9.0854124e-20
0
4.1765133e-20
9.0030477e-20
2.846229e-32
4.9764574e-20
8.1363644e-20
-7.4690817e-20
-8.7887568e-20
-4.8576328e-20
-4.1215518e-20
0
3.3546815e-20
1.2233604e-19
-3.9512738e-20
-4.8678633e-47
8.8149913e-20
-7.1424453e-20
-3.675255e-20
-3.0535175e-20
-5.837482e-20
6.9694036e-20
3.6502952e-20
-3.063426e-20
-2.7220036e-20
-3.057021e-20
9.9117354e-20
2.9526847e-20
-7.7216216e-20
-2.741312e-20
2.9946286e-20
5.6085874e-20
-2.6185129e-20
2.9460064e-20
-5.4496118e-32
5.0773985e-32
8.6251702e-20
-3.2796261e-20
-3.6049118e-20
-6.5158346e-20
-2.8079634e-20
5.5390096e-20
8.005102e-36
2.7314464e-20
-2.7345724e-20
-8.4427657e-20
8.0772985e-20
2.5137071e-20
-7.4587347e-20
0
1.1185297e-19
4.4181061e-20
-1.3124344e-19
3.7593496e-20
6.2743641e-20
1.6464795e-32
-3.4069403e-32
-3.0203625e-20
0
-6.0662706e-20
-5.1422381e-20
1.616555e-20
9.1631683e-21
1.7869295e-20
-1.6665327e-20
-2.0359088e-20
2.6190448e-20
0
-1.7481196e-20
-2.228844e-20
1.1533273e-20
2.2386182e-20
-6.4640053e-33
-1.2581896e-20
2.6997943e-20
-1.4285886e-20
4.9970449e-32
3.1897625e-20
-1.7097032e-20
0
-3.6772523e-20
0
4.6708939e-32
2.190418e-20
4.4344223e-20
-6.6928055e-20
6.2878669e-36
4.3141087e-20
0
-4.2950736e-20
-2.1839107e-20
4.3452628e-20
-2.4498237e-32
-2.1283384e-20
4.1833921e-20
-2.1702152e-20
3.5817346e-32
4.3166654e-20
-2.1561152e-20
2.1624324e-20
-3.9496686e-20
-5.2280564e-20
0
5.4390371e-20
3.7285327e-20
-5.8931346e-20
-4.3620304e-20
2.19225e-20
3.9004988e-20
-1.8287553e-20
-1.9000914e-20
3.9522595e-20
-2.0761346e-20
-4.3457743e-20
2.3129206e-20
-3.1102192e-36
4.224397e-20
4.3198163e-20
-6.602659e-20
2.2047114e-20
3.3159905e-32
-5.6633866e-20
0
5.9650023e-20
3.8158555e-20
-1.6899274e-20
-1.4340881e-20
-1.2553687e-20
0
-9.4150391e-21
3.0542893e-33
5.1687694e-21
-6.2341563e-34
1.0138973e-21
0
4.4127705e-21
-1.1420433e-20
-1.9889121e-20
1.5283172e-20
2.5786334e-20
9.6170937e-21
-1.0418766e-20
-2.1252629e-20
1.0913641e-20
-1.1131963e-20
-1.0917262e-20
2.1381789e-20
-2.0785315e-20
-9.9955419e-21
2.9296826e-20
1.9155505e-20
-9.1158927e-21
-2.4729894e-20
1.6127944e-32
-1.4678809e-32
-6.0256532e-21
-5.5274242e-33
-3.9972381e-21
2.8797522e-21
2.1966861e-21
1.9344789e-21
-4.5704428e-22
6.4630132e-22
-2.4103593e-21
1.1589729e-21
3.0570643e-21
-4.6702302e-21
-3.5547238e-37
6.8024371e-22
-2.0833216e-21
-3.1081034e-21
0
4.5407753e-21
4.0565989e-21
6.928779e-21
-2.6705231e-21
6.2412753e-33
4.7556672e-21
-1.4487105e-21
-9.8207113e-22
-3.1788111e-22
-1.3456897e-22
-3.7953361e-22
1.9542853e-21
-1.0348934e-21
-3.5629195e-21
-4.8404715e-33
-3.9436861e-21
9.3323948e-21
1.5867818e-20
3.4393973e-33
-4.046296e-33
-1.1433373e-36
-8.6242559e-21
-1.8481881e-20
-9.3855856e-21
2.8722314e-20
-1.1495346e-32
-2.2187508e-20
0
0
1.0287115e-20
-6.2617922e-33
6.791481e-33
1.1308523e-20
-2.1957534e-20
-1.0994594e-20
-1.1631355e-32
1.1001989e-20
3.4183461e-20
1.1159283e-20
0
0
0
-2.6292645e-20
-1.7382828e-20
2.4717878e-20
-8.7581664e-33
-1.4983816e-20
0
0
1.186319e-20
-1.3409533e-32
-6.3631327e-33
1.0328479e-20
-4.9349685e-21
-1.0017534e-20
-1.0141671e-20
4.9137471e-21
1.4119144e-20
4.7273256e-21
0
0
0
-1.6181649e-20
-1.1078586e-20
1.6577532e-20
-1.2909788e-32
-6.4021593e-21
9.8146017e-37
-7.1653714e-21
1.45203e-20
-8.0324373e-33
-7.4759376e-21
1.6108098e-20
0
-4.7525731e-33
-1.7039406e-20
-1.7348564e-20
2.7197151e-20
1.8452824e-20
-8.9269811e-21
-4.949987e-33
9.2697478e-21
-2.8426659e-20
-1.8799323e-20
8.9000715e-21
8.7030396e-21
-8.9627175e-21
-9.0511447e-21
8.7014934e-21
8.2276356e-21
-4.5865443e-33
4.743155e-33
8.5271447e-21
0
7.7647672e-21
-1.5306406e-20
-2.3611651e-20
1.574373e-20
1.5237295e-20
7.0116035e-21
-7.7563621e-33
-1.5072985e-20
7.7076986e-21
-7.5022543e-21
-7.1832011e-21
1.3498965e-20
-1.3485328e-20
-7.1211632e-21
7.305299e-21
1.4398888e-20
6.8734171e-21
-1.3469967e-20
3.8228791e-33
-7.0509199e-21
-6.8715547e-21
1.9202234e-20
-6.0869632e-21
-6.2446572e-21
1.9728347e-20
-9.488248e-37
-1.9629677e-20
-6.3389638e-21
1.8553999e-20
-6.1018796e-21
-4.7651617e-49
-1.0093675e-32
-1.1799711e-20
1.1622536e-20
1.1675322e-20
-5.9099346e-21
6.5251765e-33
1.1536353e-20
-5.7246079e-21
-1.7295082e-20
-5.8119193e-21
5.8128191e-21
0
5.8478327e-21
1.1722053e-20
-8.2699688e-37
-1.7464713e-20
-5.9236591e-21
1.2151387e-20
-8.6093381e-37
-1.1797761e-20
1.166319e-20
-9.9805458e-33
-1.2449481e-20
1.8972023e-20
1.2569179e-20
0
0
-6.4110846e-21
-1.9784332e-20
-6.5766758e-21
1.938782e-20
-6.9434916e-33
-1.2527579e-20
1.3125946e-20
1.3515637e-20
-6.7684323e-21
-1.3374699e-20
6.5169207e-21
6.4915956e-21
-2.0045069e-20
-6.8732625e-21
-1.1475448e-32
3.7584131e-33
6.6787013e-21
-6.7050572e-21
1.3603702e-20
2.049898e-20
0
-1.9810193e-20
-1.3053654e-20
1.9910642e-20
-1.9162442e-36
-6.7137093e-21
1.3200058e-20
-6.4489911e-21
-6.3396072e-21
-7.0516314e-33
6.3028934e-21
1.2235345e-20
-5.9558724e-21
-1.1784181e-20
-1.1723447e-20
6.3493113e-33
5.4828843e-21
-5.2493954e-21
1.0239273e-20
1.5191604e-20
0
-1.4250853e-20
-8.944597e-21
1.2851743e-20
-4.6747838e-33
-4.1390435e-21
3.9512227e-21
3.7030784e-21
-1.9458455e-33
-6.8255441e-21
1.875293e-33
6.587738e-21
-3.4592135e-33
-3.2522018e-33
-5.6349803e-21
-8.3906595e-21
5.6725594e-21
-3.1496127e-33
-9.1582695e-33
2.6122563e-21
2.5251067e-21
5.1617971e-21
-8.2034514e-21
-2.8878077e-21
5.9552481e-21
-6.0286052e-21
-1.734514e-36
9.3936961e-21
3.2879263e-21
-3.5001527e-21
-1.110274e-20
1.271794e-32
7.8193435e-21
4.0798809e-21
-8.6914321e-21
-1.3924527e-20
1.4642875e-20
5.0296016e-21
5.7002827e-33
5.3069024e-21
-1.1208661e-20
3.3010307e-33
-6.1989702e-21
6.3748538e-21
-2.1674528e-32
-1.9972848e-20
2.0745604e-20
2.1563009e-20
0
0
0
-7.5584183e-21
-2.3470531e-20
-8.1991656e-21
-9.4232404e-33
-8.5031623e-21
2.3375602e-20
7.3390143e-21
-7.7281271e-21
-8.236411e-21
-8.5818883e-21
1.7615807e-20
-9.0213686e-21
9.1031381e-21
-3.0018878e-32
-1.7753388e-20
2.535164e-20
1.6384743e-20
0
-1.7069773e-20
-9.4575576e-33
7.6828152e-21
-2.0920593e-20
-6.9123327e-21
7.0210131e-21
0
0
7.5958489e-21
1.491788e-20
-1.6010124e-32
-1.3946248e-20
-6.7223649e-21
6.4003224e-21
-6.0586284e-21
5.8321573e-21
9.9159771e-49
-9.3077393e-33
1.6038588e-20
0
0
-8.9504477e-21
-8.6189254e-21
-4.1169646e-21
4.2930404e-33
1.0781029e-20
-3.7239189e-33
-6.2970514e-21
0
5.2087274e-21
2.4070504e-21
-4.6063115e-21
2.2160929e-21
2.0498918e-21
-5.3055139e-21
1.4750693e-21
-4.2854382e-33
-2.4631228e-21
3.7013216e-21
2.4052109e-21
0
0
0
-1.7356045e-21
-1.244975e-21
2.1257538e-21
1.5096996e-21
0
-1.2806703e-21
6.1750835e-34
5.574155e-22
-1.3054004e-21
7.8810134e-22
-9.0461565e-22
-9.6687165e-22
2.9490819e-21
-2.0499996e-21
-2.2852924e-21
1.3123704e-21
-1.4759613e-21
3.1711987e-21
4.9624161e-21
0
-5.7778319e-21
-4.2874092e-21
2.3337583e-21
2.4480201e-21
-2.8193674e-33
2.6695365e-21
-9.498221e-33
-3.0530663e-21
-1.7890643e-33
1.4736116e-50
3.4291185e-21
0
3.7592675e-21
-7.8582904e-21
-1.2083891e-20
1.2233824e-20
1.2261167e-20
0
-8.8000914e-21
-9.2266544e-21
9.454227e-21
-4.7117845e-21
-4.6426765e-21
1.3742934e-20
-9.3292285e-21
-9.7779846e-21
5.047526e-21
1.0197797e-20
5.0569448e-21
-1.4905962e-20
-4.8793411e-21
-8.1539529e-33
1.0065329e-20
2.9009752e-36
-1.5254957e-20
9.9886214e-21
1.4322817e-20
4.6624318e-21
-1.4300153e-20
-9.8145179e-21
1.482109e-20
-1.0812024e-32
-9.5160796e-21
-4.5968748e-21
2.4982307e-33
9.0708593e-21
-5.0858647e-33
4.5758749e-21
4.5013791e-21
-1.3135933e-20
-4.2803441e-21
-4.7228081e-33
8.524371e-21
-1.4146638e-32
-1.255045e-20
8.1576793e-21
-4.4478685e-33
-4.4318112e-33
-8.8902198e-33
-3.9722711e-21
1.1705924e-20
-3.8406245e-21
-6.3246255e-33
-1.261486e-32
-1.1283084e-20
3.7014995e-21
7.313742e-21
-4.0378882e-33
3.6289825e-21
3.5751494e-21
-6.956148e-21
-6.8333138e-21
3.8090312e-33
1.046571e-20
-3.8909774e-33
-3.4349269e-21
6.6666348e-21
-3.2553943e-21
-3.2453897e-21
1.8355995e-33
-1.8506532e-33
3.289405e-21
-6.4284938e-21
3.1322998e-21
-1.0323953e-32
-1.0434472e-32
9.4512442e-21
-6.2237193e-21
8.591544e-37
5.8217802e-21
-2.8644036e-21
-8.7018446e-21
-2.9548005e-21
8.8615312e-21
-3.1950568e-33
-2.7812695e-21
5.4036245e-21
-5.3309835e-21
-1.338132e-32
2.7000026e-21
-2.6865721e-21
2.6217302e-21
-5.081579e-21
2.4756596e-21
7.3201977e-21
0
0
-4.8322936e-21
-6.785537e-37
4.7266923e-21
-2.3319735e-21
-6.8317355e-21
-2.2162361e-21
6.506272e-21
6.1759612e-37
2.4703844e-33
4.5099355e-21
-6.6792371e-21
-1.0726404e-32
2.0697535e-21
-2.0626463e-21
-2.1263614e-21
2.4534818e-33
2.2432922e-21
-4.4218644e-21
4.2725319e-21
-6.8999872e-33
-4.1612872e-21
6.4854204e-21
4.5151576e-21
-2.3197304e-21
-6.968589e-21
-2.2790926e-21
2.2415864e-21
0
-2.2559824e-21
2.3209732e-21
7.1801382e-21
1.3485384e-33
-4.8402829e-21
2.3962206e-21
2.3805179e-21
-4.7994514e-21
2.4575767e-21
-2.5075931e-21
-5.0377465e-21
7.4732571e-21
-8.1722821e-33
5.4433219e-33
4.984326e-21
-5.0773593e-21
-2.553947e-21
-2.5338654e-21
-2.7791352e-33
2.4916525e-21
-5.0162444e-21
5.0560256e-21
7.5247213e-21
0
-2.4354432e-21
1.3516595e-33
6.9470453e-37
-7.29463e-21
-2.3820255e-21
6.9460451e-21
-2.2887228e-21
1.2770126e-49
7.0084767e-21
-2.3202049e-21
-6.7525554e-21
-2.1693768e-21
4.2547712e-21
-2.1364169e-21
2.1699083e-21
-7.2430623e-33
-4.255188e-21
6.2018753e-21
2.2516196e-33
-8.9468617e-33
4.0418755e-21
-4.0340134e-21
-2.2047971e-33
1.9465962e-21
-3.8649346e-21
-1.945645e-21
0
0
3.7947939e-21
-4.1621458e-33
-1.0728299e-36
-2.1439493e-33
-1.960543e-21
-1.9413657e-21
1.9103783e-21
1.9041283e-21
-3.8672738e-21
3.9891107e-21
-2.2619934e-33
-4.0688035e-21
4.0380048e-21
6.7397107e-33
-2.2874792e-33
2.1256221e-21
-4.3692891e-21
2.20978e-21
-4.9350851e-33
-4.501267e-21
0
4.7102772e-21
2.4004194e-21
-4.8431725e-21
-2.4367099e-21
2.4699638e-21
-4.2079471e-33
-2.6010305e-21
0
0
5.5379547e-21
5.6267339e-21
0
-5.767289e-21
-2.8909749e-21
2.9112576e-21
-2.9369157e-21
2.9752492e-21
0
-6.2402043e-21
0
0
3.2328268e-21
-3.5686719e-33
-3.1210148e-21
0
3.2927867e-21
1.9021514e-33
-3.509898e-21
0
7.0161053e-21
6.9497113e-21
-3.3969283e-21
-3.7522943e-33
3.4937654e-21
-7.2207267e-21
-7.3262906e-21
7.3207226e-21
1.0347223e-36
7.9549489e-33
1.0072146e-36
-7.1783666e-21
3.6568068e-21
-4.105682e-33
3.7045539e-21
-3.6691689e-21
-1.0909346e-20
1.0944479e-20
3.6834686e-21
-3.683498e-21
-4.053522e-33
-3.5853755e-21
7.0746294e-21
7.1233535e-21
-7.2150024e-21
-1.2011737e-32
-3.5635561e-21
-3.5110724e-21
6.9406148e-21
-3.4724507e-21
3.8357557e-33
-1.8831048e-33
3.3156188e-21
6.5504024e-21
-6.5397929e-21
-6.5292102e-21
0
3.1212715e-21
3.3641561e-33
-5.9874465e-21
-3.3214683e-33
8.9321083e-21
5.8322508e-21
0
-5.4473699e-21
-5.9294307e-33
-2.6428523e-21
-2.6039271e-21
7.5915948e-21
-1.3460625e-33
-4.6767953e-21
2.2914074e-21
4.4946916e-21
-2.1783232e-21
-4.1585336e-21
-1.9613507e-21
0
3.7022371e-21
-1.82576e-21
-5.2823728e-21
1.636984e-21
1.5010821e-21
2.8068937e-21
1.3609708e-21
-2.6948008e-21
-1.3107807e-21
-1.2308037e-21
1.2350729e-33
9.9703774e-22
9.1746049e-22
1.7506178e-21
8.4805015e-22
0
0
0
-1.1214321e-21
-1.0113988e-21
9.4294576e-22
4.8702251e-34
4.2938471e-34
-3.4612451e-34
-5.3985226e-34
4.1331287e-22
0
-3.7133705e-22
-1.5264458e-22
8.7782992e-23
-1.795234e-23
1.7170194e-23
0
0
2.1509484e-23
2.0441079e-35
9.8579699e-35
-1.7469e-22
2.2105836e-22
2.0957333e-22
0
-1.160673e-22
5.1108882e-35
1.0171751e-22
-1.2952127e-22
-7.3242407e-35
9.1088772e-23
0
1.6629257e-23
1.5157335e-23
-3.0842551e-23
3.1526756e-23
1.536137e-34
-2.2708191e-22
2.9343947e-22
3.1903062e-22
0
0
0
-5.1157529e-22
-5.7682287e-22
6.282986e-22
0
-7.6002474e-22
0
-4.4250731e-22
8.9974185e-22
4.6173668e-22
-4.9710251e-22
1.1019122e-21
6.0713254e-22
-1.2881551e-21
-6.4982941e-22
-7.1075023e-34
6.4467275e-22
-1.4900028e-33
4.0243822e-37
1.4917592e-21
0
-8.2054594e-22
-1.7194926e-21
-8.7921512e-22
0
0
0
-8.8505699e-22
1.9168179e-21
1.0249733e-21
-1.0592964e-21
-1.0414929e-21
9.8239322e-22
9.3668928e-22
-1.8995939e-21
0
2.1978465e-21
2.3018874e-21
0
0
-2.3495675e-21
-1.3010952e-33
-1.17323e-21
-1.1803187e-21
1.1952617e-21
-1.2228513e-21
1.2636732e-21
2.6122395e-21
1.3301584e-21
0
-2.6375152e-21
-1.4617395e-33
1.3392224e-21
-1.3837068e-21
-1.4333288e-21
-2.9239365e-21
2.9137936e-21
1.4457213e-21
-4.1209585e-37
1.4762412e-21
-3.0496279e-21
1.5639701e-21
-1.5777748e-21
-1.2654653e-50
1.5774846e-21
-3.1913401e-21
3.268283e-21
3.3362831e-21
0
-1.6812726e-21
-3.3552545e-21
9.3847045e-34
1.7271099e-21
1.7563647e-21
-3.5224201e-21
-3.5005012e-21
1.7314491e-21
3.4742094e-21
3.5556553e-21
-1.8188784e-21
-3.6614739e-21
1.8042658e-21
-1.7639858e-21
2.9005502e-33
1.7614182e-21
-3.6237529e-21
3.6837277e-21
2.0351783e-33
-9.9608189e-33
3.4921303e-21
-3.4370408e-21
-7.6891223e-33
1.7695747e-21
-3.5762931e-21
1.7737319e-21
-4.9250521e-37
7.4851246e-33
1.6544793e-21
-3.3069411e-21
3.7166226e-33
-9.2983134e-34
1.6485665e-21
-4.568743e-37
-3.1271969e-21
3.0790148e-21
8.7625677e-37
-6.8558786e-33
3.0534671e-21
-2.9701014e-21
-3.1875681e-33
2.8095106e-21
-1.3994445e-21
-1.4064405e-21
-1.3974477e-21
1.3563316e-21
-1.450616e-33
-2.5425032e-21
0
0
2.5244299e-21
3.4923728e-37
-2.3629181e-21
1.1395424e-21
-1.2506496e-33
1.1404081e-21
2.5584812e-33
-2.2773113e-21
0
-1.0445455e-21
2.0462767e-21
1.0343046e-21
-2.3592254e-33
1.0711556e-21
-2.0913668e-21
9.9369957e-22
-1.0514523e-33
-1.8899404e-21
0
0
1.0440093e-21
-5.6808438e-34
9.6838486e-22
-9.1830631e-22
-2.7428187e-21
2.8761182e-21
1.0170408e-21
-2.1144072e-21
1.0624325e-21
1.715043e-33
9.8419054e-22
-5.422646e-37
-3.2352028e-33
1.0284689e-21
-2.1713785e-21
-1.1251975e-21
0
-1.1118637e-21
1.0834121e-21
1.0716727e-21
1.0930777e-21
-2.5415018e-33
1.3295126e-33
-1.3705197e-33
-2.4928958e-21
1.2366073e-21
2.0474302e-33
-2.4699733e-21
1.7889081e-37
1.3034131e-21
2.68974e-21
2.7342111e-21
-2.7392708e-21
-1.5210445e-33
-1.3803692e-21
-1.4081539e-21
2.9023049e-21
-2.9673695e-21
-1.4874917e-21
4.4475895e-21
2.9665008e-21
-1.5009264e-21
-3.0868894e-21
-1.5801719e-21
1.5950087e-21
3.1813988e-21
-3.1581693e-21
-4.7451879e-21
1.6090149e-21
1.650137e-21
3.3551273e-21
1.6750214e-21
-3.3248243e-21
-1.6529311e-21
-1.6562695e-21