/*--------------------------------*- C++ -*----------------------------------*\
  =========                 |
  \\      /  F ield         | OpenFOAM: The Open Source CFD Toolbox
   \\    /   O peration     | Website:  https://openfoam.org
    \\  /    A nd           | Version:  7
     \\/     M anipulation  |
\*---------------------------------------------------------------------------*/
FoamFile
{
    version     2.0;
    format      ascii;
    class       volScalarField;
    location    "0.0013";
    object      Uz;
}
// * * * * * * * * * * * * * * * * * * * * * * * * * * * * * * * * * * * * * //

dimensions      [0 1 -1 0 0 0 0];

internalField   nonuniform List<scalar> 
5000
(
0
0
0
0
0
2.0472838e-18
4.5139727e-33
-6.5704274e-18
-2.2649148e-18
4.6839816e-18
4.8428569e-18
-2.5032869e-18
2.2063429e-32
2.3564371e-32
-5.527991e-18
5.7123032e-18
-3.7081085e-47
2.6861547e-32
3.1492878e-18
-6.5055591e-18
-3.3592759e-18
0
0
3.697502e-18
-3.2543415e-32
3.2469122e-32
4.0653716e-18
-4.194934e-18
-4.3280954e-18
4.4649348e-18
-8.0501722e-32
4.050068e-32
4.8983292e-18
-5.0506938e-18
-5.2071479e-18
0
0
5.7019066e-18
5.8755826e-18
-6.0537847e-18
1.045804e-31
6.4241286e-18
-6.6164534e-18
1.1522541e-31
7.0158722e-18
-7.2231541e-18
2.5571266e-31
-2.6211278e-31
2.708727e-31
-1.3821468e-31
-8.339118e-18
0
0
0
0
0
0
0
0
0
0
0
0
1.1934518e-17
1.2257097e-17
-1.2586764e-17
2.2222341e-31
-1.674199e-47
-1.3619324e-17
0
0
1.4719389e-17
1.5101558e-17
0
-1.5889729e-17
-5.6273734e-31
1.6710353e-17
1.7133086e-17
-1.7564231e-17
-3.6007776e-17
3.6904308e-17
-1.0748594e-32
-5.8124701e-17
3.9699143e-17
2.1151333e-30
-4.165196e-17
6.3983704e-17
-2.1839089e-17
-2.2359631e-17
2.2889616e-17
-2.3429131e-17
-2.3978259e-17
-8.5429771e-31
5.0211377e-17
1.7775196e-30
2.6272552e-17
2.6870965e-17
9.6455153e-31
-1.9565621e-30
-5.7454036e-17
-2.9366209e-17
3.0015764e-17
-4.3592862e-33
-3.1346225e-17
0
3.2718885e-17
1.1636117e-30
-3.4134189e-17
3.4857962e-17
3.5592544e-17
-7.2675963e-17
-3.7094314e-17
1.1358474e-16
3.8639817e-17
-1.1828717e-16
4.0229329e-17
4.1040661e-17
2.3796404e-32
4.2696597e-17
-1.3062372e-16
3.1041242e-30
9.0527886e-17
-9.228405e-17
-4.7031267e-17
4.7931672e-17
-4.8843236e-17
4.9765956e-17
1.0139964e-16
-5.1644821e-17
-1.8164354e-30
-5.3568156e-17
-1.090929e-16
5.5535795e-17
5.6536161e-17
5.7547515e-17
2.0392017e-30
2.0667047e-30
-2.1115262e-30
-1.2340405e-16
-6.2767699e-17
6.3844087e-17
1.2986226e-16
6.6028769e-17
6.7136937e-17
-4.7334533e-30
-1.3876917e-16
2.0044102e-32
-2.0370827e-32
5.032482e-46
-7.4002969e-17
5.2138444e-30
-1.0636101e-29
-7.7571774e-17
7.8780878e-17
-7.9999564e-17
-2.8165296e-30
8.2465253e-17
-8.3712033e-17
1.2074672e-32
8.6232884e-17
0
-8.8789313e-17
-6.2341925e-30
1.8276061e-16
-9.2688433e-17
2.6717771e-32
9.5329267e-17
-9.666169e-17
9.8001925e-17
-9.9349824e-17
4.1960072e-29
2.8313246e-29
-1.0343799e-16
2.0963004e-16
0
7.4612265e-30
2.2674364e-29
-1.1039038e-16
-1.1180021e-16
-7.8031529e-30
1.1463787e-16
-1.1606535e-16
-8.0816008e-30
-5.0705784e-32
-1.6679393e-29
2.4365771e-16
-1.2328223e-16
-1.2474023e-16
8.6802888e-30
-8.7993136e-30
2.684887e-29
-9.0208857e-30
1.3209328e-16
0
0
0
0
1.3953407e-16
-2.9401116e-29
-1.4252959e-16
-1.4403069e-16
1.4553376e-16
1.4703861e-16
-2.9709007e-16
-1.0384687e-29
3.146736e-29
1.5307184e-16
1.5458264e-16
-1.5609405e-16
0
-1.5911789e-16
-1.1116695e-29
1.6214184e-16
1.6365336e-16
-2.3001838e-29
-1.6667455e-16
3.3636768e-16
-1.69692e-16
-1.7119884e-16
1.7270417e-16
-1.7420781e-16
0
0
0
-1.802017e-16
1.8169408e-16
3.6636732e-16
-1.8467026e-16
1.2936021e-29
-1.876338e-16
-1.8911038e-16
3.8116656e-16
-5.4584549e-32
5.5000925e-32
-1.9497808e-16
-1.9643449e-16
3.957727e-16
-2.8326994e-32
4.1827843e-29
-2.02213e-16
1.1309634e-28
2.8443021e-29
-2.0649283e-16
2.079083e-16
0
2.1072158e-16
-2.1211908e-16
-2.135103e-16
2.1489508e-16
0
2.1764475e-16
-2.1900935e-16
-2.2036694e-16
7.6973885e-29
4.4612106e-16
4.4879251e-16
-6.7717328e-16
-4.5408981e-16
0
4.5932454e-16
2.309589e-16
-2.3224734e-16
-2.3352744e-16
-2.3479911e-16
4.7212442e-16
4.7463325e-16
-2.3856225e-16
-4.7959791e-16
-6.6859797e-29
4.8449037e-16
-2.4345449e-16
3.3933067e-29
2.4584493e-16
-4.9405173e-16
2.4819713e-16
-3.4727274e-29
-2.5051028e-16
2.5165196e-16
-2.5278359e-16
5.0781013e-16
-1.0640063e-28
-5.122344e-16
5.1441535e-16
1.7875277e-29
-2.5935701e-16
0
0
-2.6250069e-16
2.6352684e-16
5.2908396e-16
-2.6554603e-16
7.5754918e-32
-2.6752058e-16
-2.6849092e-16
2.6944988e-16
0
2.7133336e-16
2.7225775e-16
0
-5.4814293e-16
-2.7496067e-16
5.5167602e-16
-1.9149776e-29
7.8886406e-32
-2.7839826e-16
-2.7922754e-16
2.8004466e-16
-2.8084956e-16
2.8164218e-16
-1.6053858e-31
-5.6638071e-16
2.839458e-16
2.8468874e-16
2.8541913e-16
3.9686602e-29
-2.8684205e-16
0
0
2.8888099e-16
-4.0199053e-29
8.0534889e-29
4.0416601e-29
-2.9141939e-16
2.920215e-16
-4.1582457e-32
-2.9318641e-16
0
0
0
0
0
0
0
2.9731554e-16
0
-2.9821351e-16
0
2.990571e-16
8.3068528e-29
-2.9984599e-16
0
0
3.0092612e-16
4.1826743e-29
-3.0157694e-16
0
0
3.0244855e-16
3.0271103e-16
-3.0295943e-16
-3.0319371e-16
0
3.0361976e-16
-4.3174206e-32
-3.039889e-16
3.0415205e-16
3.0430085e-16
-3.0443529e-16
-3.0455533e-16
0
3.0475206e-16
3.0482869e-16
-3.0489077e-16
-3.0493829e-16
0
3.0498947e-16
3.0499303e-16
-3.0498141e-16
-3.0495426e-16
0
0
0
0
0
0
0
0
3.0403717e-16
1.9146651e-46
-3.0366835e-16
0
0
0
3.027489e-16
4.1953491e-29
-3.0219782e-16
3.0189934e-16
-4.1872151e-29
4.2811107e-32
4.1778617e-29
-3.0055193e-16
3.0017658e-16
-2.9978578e-16
1.6634856e-28
2.9895776e-16
-2.9852049e-16
0
0
2.9711541e-16
4.1182166e-29
-2.9610078e-16
2.9557004e-16
2.9502367e-16
0
-2.9388396e-16
-2.932906e-16
2.9268156e-16
8.1056865e-29
-1.3627023e-46
4.0369167e-29
-2.9008838e-16
2.8940081e-16
5.9269558e-46
3.998295e-29
2.8724377e-16
0
0
-2.8494528e-16
-4.0379818e-32
1.1789371e-28
-2.825055e-16
0
0
2.7992473e-16
-7.7363012e-29
-2.781261e-16
0
0
0
2.7434224e-16
-3.8846447e-32
-2.7235747e-16
2.7134201e-16
-2.703112e-16
7.4846089e-29
5.3640751e-16
-2.6712721e-16
-1.1080916e-28
-3.6782721e-29
3.6626969e-29
2.6267016e-16
0
0
-2.5917069e-16
-3.5817223e-29
7.1261804e-29
-6.1544057e-47
2.5429947e-16
-2.5304556e-16
-2.5177739e-16
0
2.4919865e-16
3.4416821e-29
-2.4656406e-16
0
0
2.425094e-16
-6.8533531e-32
-6.9274814e-47
2.3833434e-16
-2.369165e-16
3.2627934e-29
-3.2494465e-29
6.4551597e-29
2.311182e-16
-2.2963765e-16
6.3351335e-29
-6.2965765e-29
6.2544515e-29
2.2359643e-16
-2.2205725e-16
6.1230373e-29
-3.0460634e-29
0
2.1579058e-16
-2.1419742e-16
2.9516572e-29
-2.9982169e-32
2.9067231e-29
-2.8870079e-29
-2.0608317e-16
2.0443219e-16
2.0277238e-16
-2.0110398e-16
-1.9942723e-16
0
1.960497e-16
1.9434943e-16
0
-1.909272e-16
2.6269341e-29
-2.6642207e-32
-2.5762273e-29
1.8400365e-16
-1.8225792e-16
-2.5035926e-29
4.9635507e-29
1.7698976e-16
1.7522439e-16
-3.4690973e-16
2.4397407e-32
-2.3565416e-29
-1.6812446e-16
1.6634144e-16
-2.2846942e-29
-1.62768e-16
0
0
0
1.5560066e-16
1.5380651e-16
-1.5201209e-16
-1.5021776e-16
0
1.4663071e-16
1.4483867e-16
-1.4304808e-16
-1.4125929e-16
0
1.3768847e-16
1.3590713e-16
-1.3412897e-16
-3.6752163e-29
1.3058355e-16
0
0
0
0
-1.2179967e-16
3.330395e-29
1.1832513e-16
-1.1659757e-16
-1.5949517e-29
1.5727708e-29
-8.2374928e-47
-1.0975971e-16
-1.0806996e-16
2.1277748e-16
1.4538824e-29
-1.4293254e-29
1.0139932e-16
0
-9.8121283e-17
-9.6497628e-17
9.488459e-17
2.5876169e-29
-9.1691504e-17
0
0
8.6988394e-17
-1.1851018e-29
-8.3913685e-17
0
8.0889832e-17
-1.1283071e-32
2.1636465e-29
1.060393e-29
-7.5001951e-17
7.356452e-17
-1.0251895e-32
1.9640999e-29
6.9338219e-17
-6.7958711e-17
-1.8491859e-29
-9.2718117e-33
8.8733018e-30
6.2591267e-17
-6.1287773e-17
0
3.2606686e-29
7.9711606e-30
2.3397353e-29
7.8169021e-33
5.3798271e-17
-5.2606158e-17
-2.2526315e-46
6.9795917e-30
-1.3641739e-29
6.6644245e-30
-9.3780753e-17
4.5796478e-17
4.4719064e-17
6.0615001e-30
-5.9164934e-30
-8.3171641e-17
4.0574397e-17
3.9579437e-17
-4.6769995e-47
0
-4.5188994e-47
3.5763687e-17
-3.4850558e-17
-4.2836324e-47
4.5871371e-30
4.5770539e-33
3.1359438e-17
-6.1053252e-17
-8.2497737e-30
2.890835e-17
-3.9005576e-30
3.7937374e-30
-2.6597735e-17
2.5858222e-17
1.3814376e-46
1.0176769e-29
-6.5927289e-30
6.3973334e-30
6.2159142e-30
-3.0999742e-47
0
-2.0475853e-17
0
0
1.8692397e-17
5.0329837e-30
-1.7571156e-17
0
0
3.1974885e-17
1.2890826e-29
-2.9989969e-17
1.4517218e-17
-1.9968391e-33
1.8879007e-30
1.3155514e-17
0
0
0
1.1499925e-17
3.0827916e-30
-1.0737274e-17
0
0
9.670397e-18
-1.326521e-33
-9.0083028e-18
0
0
8.0850879e-18
2.1623678e-30
2.0875618e-30
-2.0107492e-30
-6.9767325e-18
6.7202944e-18
-1.7961562e-30
1.729318e-30
-1.663718e-30
-5.7716943e-18
0
0
5.1363037e-18
2.3466512e-46
-4.746347e-18
0
0
4.2085416e-18
1.2670011e-46
-3.8795548e-18
0
0
3.427307e-18
1.0619386e-46
-3.1515626e-18
0
0
2.7737374e-18
-3.7755332e-34
-2.5441291e-18
2.4356135e-18
-6.4763867e-31
6.1969305e-31
-5.9249492e-31
-2.0405936e-18
0
0
0
0
0
1.5524287e-18
-4.1127099e-31
-1.4140948e-18
0
0
0
0
0
0
0
9.624385e-19
-5.0845697e-31
-8.7156296e-19
0
0
0
0
0
0
0
5.7859975e-19
-1.5233203e-31
-5.2047429e-19
0
0
4.42798e-19
-1.1647486e-31
-3.9678079e-19
0
0
0
3.1696628e-19
8.3156956e-32
-2.8251645e-19
0
0
0
0
0
0
0
1.7447866e-19
-2.3279674e-35
-1.5368973e-19
0
0
0
0
0
0
0
8.9318896e-20
1.1800363e-35
-7.7087041e-20
0
0
0
5.6334566e-20
-2.8809733e-32
-4.7923866e-20
0
4.6124135e-20
1.2978829e-32
-4.4006254e-20
0
0
5.8386548e-20
5.3551449e-20
-5.0148299e-20
-5.7949473e-20
0
0
0
0
-6.6194032e-20
8.7469701e-36
1.1249047e-19
6.0892714e-20
-1.3416295e-19
-1.2835448e-19
5.7175914e-20
5.8110414e-20
0
0
0
0
5.6014581e-20
1.5704668e-32
-5.1113285e-20
0
0
0
0
0
0
0
0
0
0
0
0
0
0
4.7599764e-20
-2.7309911e-32
-4.4388994e-20
0
0
-4.6519763e-20
1.2054668e-32
-5.6144861e-36
4.2321425e-20
4.7065399e-20
2.5200459e-32
-1.074605e-32
-3.803065e-20
0
0
0
0
0
4.1066261e-20
-2.0136906e-32
-3.0664346e-20
0
0
0
0
0
0
0
2.8329886e-20
-1.6656941e-32
-3.4863505e-20
0
0
0
0
0
0
0
3.1598427e-20
-2.7937946e-32
-2.8821267e-20
0
0
0
0
0
0
0
0
2.3620949e-20
-3.6734969e-36
-2.7729707e-20
0
0
0
0
2.0656669e-20
-2.0832466e-20
-2.7129114e-20
6.2457285e-20
7.8749925e-33
-2.4046275e-20
0
0
0
0
2.0248569e-20
-6.3773621e-33
-4.80861e-20
1.9059723e-20
1.4850173e-20
-1.5626671e-20
0
0
0
1.1963861e-20
3.3869327e-33
-1.245035e-20
-1.26267e-20
1.3063712e-20
1.3920965e-20
-1.4932575e-20
0
0
1.5486327e-20
1.5977076e-20
-1.6270004e-20
-1.8191649e-20
-2.0522504e-20
-1.2851478e-32
2.3310887e-20
0
0
0
2.2260988e-20
1.8974914e-20
-1.2735466e-20
-8.1074985e-21
-7.963981e-21
-2.7032254e-33
8.2587806e-21
0
0
0
3.2400253e-21
-9.641633e-34
-3.8931575e-21
0
0
0
0
0
0
0
5.0719486e-21
-1.6297335e-33
-1.3064718e-20
-2.1459638e-33
9.4493707e-21
0
0
1.0229035e-20
-1.3918008e-36
2.4018891e-33
-2.0886864e-33
-8.0254118e-21
-7.9555191e-21
1.8388925e-33
5.2383841e-21
0
0
2.99676e-21
-1.1470149e-33
-2.3569806e-34
1.5589182e-37
-1.7200201e-21
2.1005063e-21
2.5665054e-21
-6.3258316e-21
2.0641993e-33
4.4575415e-21
-4.6663543e-21
0
3.1649417e-21
6.0204425e-34
-1.678829e-21
0
-1.7701598e-22
1.6123157e-21
-1.9090637e-33
-8.9031268e-22
5.7000729e-22
0
-2.4121442e-22
0
5.7821502e-22
0
-3.0021753e-22
-2.8797836e-22
-2.2155033e-34
-4.8473708e-22
2.435421e-22
0
-1.2713422e-21
-3.2507424e-34
2.0064312e-21
0
-1.905185e-21
2.6836367e-21
-1.0277199e-36
-3.4841323e-21
3.6991566e-21
0
-5.812296e-21
-5.8829502e-21
5.2829254e-21
5.1248934e-21
-6.0172565e-21
7.0373205e-21
7.6024376e-21
-6.7353109e-21
0
0
0
0
0
0
-8.6595092e-21
-1.7839463e-50
1.6659522e-20
-8.0033679e-21
-8.9515399e-21
9.8461451e-21
0
0
-8.3221343e-21
-9.4070361e-21
1.0195231e-20
1.0338631e-20
0
-1.0146668e-20
-2.5989546e-33
9.2098623e-21
0
0
-1.0163098e-20
-9.9906415e-21
9.8908093e-21
9.458324e-21
0
-9.4171207e-21
2.6497633e-33
8.9802622e-21
-8.777522e-21
-5.1338268e-33
-1.3292764e-36
-8.7545819e-21
8.5011882e-21
8.7675557e-21
0
0
-8.5579891e-21
2.3787852e-33
9.1047054e-21
0
-9.2678441e-21
-8.4394619e-21
8.3383164e-21
9.1417649e-21
0
0
0
0
0
0
-9.0519961e-21
2.6874656e-33
1.0283121e-20
0
0
0
0
0
0
-9.8526318e-21
-1.6889567e-50
9.8364718e-21
9.0832708e-21
2.4927556e-33
-9.6790399e-21
0
0
0
0
-8.783218e-21
-2.5857323e-33
9.7406914e-21
-9.7960493e-21
-9.4632208e-21
9.0602872e-21
-4.7311217e-33
-6.9632505e-33
-7.2727151e-33
2.5356576e-33
-5.0709442e-33
2.4122562e-33
8.4887136e-21
0
-9.0639395e-21
7.5719261e-33
-1.267684e-36
-8.5933012e-21
8.5296247e-21
8.7699224e-21
-8.9504084e-21
2.4656954e-33
-7.0630521e-33
-4.6449444e-33
-4.8711781e-33
2.481749e-33
-4.7443398e-33
-8.3708546e-21
8.6746532e-21
9.0276017e-21
-9.0740763e-21
2.4679768e-33
-9.4790565e-33
-2.345015e-33
2.421371e-33
2.501846e-33
2.5224524e-33
-8.797255e-21
0
8.9827034e-21
-2.580301e-33
-8.0516894e-50
8.6803037e-21
0
-8.6436868e-21
9.1925429e-21
9.519841e-21
-9.4208441e-21
0
0
0
0
-9.0355931e-21
2.5632894e-33
-5.0811109e-33
8.9333496e-21
8.5655204e-21
-8.4471109e-21
0
0
0
0
-8.060832e-21
-1.1760421e-36
8.479857e-21
0
0
0
0
0
0
0
-7.6951488e-21
-7.5611128e-21
7.2426671e-21
7.0030978e-21
0
0
0
0
0
0
-6.8486943e-21
-6.8967855e-21
6.8084605e-21
6.6160218e-21
0
0
0
0
0
0
-6.5411449e-21
-6.8388618e-21
6.9777148e-21
6.8939026e-21
0
0
0
0
0
0
-7.0071401e-21
3.8623414e-33
7.016629e-21
0
0
0
0
0
0
-7.4209473e-21
2.0321592e-33
7.2354016e-21
0
0
0
0
-7.3414855e-21
-1.0413704e-36
7.3010253e-21
-7.10365e-21
5.4500258e-51
7.1094608e-21
-7.278449e-21
4.0384998e-33
7.0936968e-21
-6.9391475e-21
-3.7974735e-33
-3.8164689e-33
-1.5974874e-49
-3.6346478e-33
-1.7788523e-33
6.5617599e-21
-6.7415104e-21
-6.7042485e-21
1.3006008e-20
-3.5114923e-33
-1.2587957e-20
0
6.4604234e-21
-1.7540196e-33
-1.6868691e-33
-4.8554795e-33
-4.8282548e-33
-3.3324127e-33
5.1392399e-33
-3.4303739e-33
1.6746286e-33
5.8525858e-21
0
-5.640187e-21
-8.2669255e-37
-4.9835788e-33
-5.0071985e-33
8.3793211e-37
3.2041735e-33
-1.5674998e-33
-5.621044e-21
0
5.9325207e-21
-3.3150855e-33
-8.3031332e-37
5.5520012e-21
0
-5.6235627e-21
5.9267846e-21
6.0986635e-21
-6.1585845e-21
0
0
-5.9543749e-21
6.4394354e-33
-3.1677495e-33
3.235132e-33
-1.6818834e-33
6.1691969e-21
6.1635883e-21
-6.0871311e-21
0
0
0
0
-6.220789e-21
-1.7058345e-33
-6.6324565e-33
5.8200672e-21
5.8121178e-21
-5.9685994e-21
0
0
0
0
-5.6263637e-21
-5.5094444e-21
5.6522268e-21
5.8499941e-21
0
0
0
0
0
0
-5.5121871e-21
-5.5781286e-21
5.5632065e-21
5.4746913e-21
0
0
0
0
0
0
-5.1182065e-21
4.209431e-33
1.0319401e-20
-5.2518892e-21
-5.2411839e-21
5.1612167e-21
0
9.9577489e-21
-5.6557628e-33
-1.7419548e-32
-5.2515136e-21
-1.0357918e-20
1.0262252e-20
-5.1651848e-21
-5.229679e-21
5.2520669e-21
-5.2148303e-21
7.2563374e-37
5.0729853e-21
5.1827628e-21
-5.342611e-21
-5.4250706e-21
5.4138992e-21
-5.3787954e-21
-7.5751604e-37
5.3071589e-21
0
0
0
1.0947999e-20
-5.3992818e-21
-1.0746124e-20
5.465004e-21
-5.5894245e-21
-5.6247476e-21
1.1180271e-20
1.0567007e-51
-5.5475563e-21
5.5508531e-21
1.1013069e-20
5.4687615e-21
-1.6491986e-20
5.5693377e-21
3.1552137e-49
-1.6576864e-20
1.0947561e-20
5.4347668e-21
5.4503591e-21
1.0893174e-20
-1.0728908e-20
-5.3006492e-21
-5.2953013e-21
5.3335156e-21
5.3064207e-21
-1.5537849e-20
5.0793383e-21
5.0900318e-21
-5.1329538e-21
-5.1325313e-21
-7.195474e-37
1.471801e-20
-4.8177712e-21
8.1110496e-33
-8.2223435e-33
-1.4792862e-20
4.863239e-21
4.7505752e-21
9.3739097e-21
-4.6936987e-21
-9.4525228e-21
9.4025899e-21
-4.6065394e-21
4.5444443e-21
4.5580896e-21
-1.3807685e-20
4.580025e-21
4.507267e-21
-8.860439e-21
-4.4072771e-21
4.433061e-21
1.3344936e-20
-4.4079119e-21
-1.7210383e-20
2.3651877e-33
8.6667493e-21
4.4106941e-21
0
8.7632085e-21
9.5613626e-33
-1.2853272e-20
4.3413545e-21
-9.8158828e-33
4.4260449e-21
4.374581e-21
-8.6807664e-21
0
0
0
-4.4364545e-21
2.4314755e-33
8.731817e-21
-4.4401676e-21
-9.0463223e-21
1.3550223e-20
-1.4857472e-32
-8.7899182e-21
4.387611e-21
0
0
0
9.0375006e-21
-4.4849428e-21
-9.0260012e-21
1.3631369e-20
-1.2861647e-36
-8.9421079e-21
0
0
-4.418271e-21
2.5148916e-33
9.1088254e-21
-4.4729064e-21
-8.7232901e-21
1.2764228e-20
-7.0483074e-33
-8.6616052e-21
4.3967822e-21
-4.3850655e-21
8.6179178e-21
4.1942828e-21
-1.3709943e-32
-4.1282236e-21
-8.3630797e-21
1.2613753e-20
-2.3668669e-36
-4.0831812e-21
2.2330978e-33
-4.0056622e-21
-4.0219652e-21
2.2172691e-33
1.1770854e-20
-1.0976555e-36
-1.1515106e-20
7.6802244e-21
1.6859963e-49
-7.5439171e-21
3.7036954e-21
-3.6694879e-21
7.3549091e-21
3.688252e-21
-8.1207291e-33
-3.5887046e-21
-7.1001554e-21
-3.5637956e-21
-3.5961231e-21
1.0695593e-20
0
-3.4430593e-21
-1.9127995e-33
1.9500353e-33
-1.9775237e-33
3.5339798e-21
-3.8569839e-33
3.4308497e-21
-1.1420542e-32
-1.0450914e-20
7.0805545e-21
1.0614327e-20
3.4995069e-21
-1.0444832e-20
-7.0228166e-21
1.0697817e-20
-3.6005953e-21
-1.0760885e-20
0
0
3.5887244e-21
3.6826188e-21
0
-3.7460882e-21
-3.7285041e-21
7.4597275e-21
-8.3311384e-33
-1.1374312e-20
4.2320969e-33
3.8185133e-21
3.8480524e-21
3.8772896e-21
-3.8909559e-21
-3.8833487e-21
3.8366422e-21
1.1470275e-20
-3.8901071e-21
-1.5847001e-20
3.9905595e-21
7.9411815e-21
3.9057252e-21
0
-3.9211109e-21
0
-4.0191465e-21
3.9981619e-21
-8.7171023e-33
3.8826753e-21
-1.3049413e-32
-1.193281e-20
4.0035724e-21
3.9694832e-21
-3.8849846e-21
-3.8249449e-21
3.8416035e-21
1.1717553e-20
-3.942068e-21
-1.5615298e-20
6.3758408e-33
3.7584234e-21
7.4726437e-21
3.778576e-21
-7.6324067e-21
-2.1044385e-33
-5.3011592e-37
3.6752395e-21
-8.1012332e-33
-3.6547503e-21
1.0976116e-20
-4.0340234e-33
-7.1633687e-21
0
0
-3.5245164e-21
1.9424004e-33
6.8869135e-21
-3.4022369e-21
-6.7966274e-21
-3.4125663e-21
3.7669525e-33
1.0044451e-20
3.3000111e-21
-3.277998e-21
6.5633e-21
-1.8648188e-36
-1.0809168e-32
-3.1799587e-21
-6.2820063e-21
9.4632395e-21
-3.5496491e-33
-6.4266857e-21
0
0
6.1471486e-21
-6.7879686e-33
-3.429197e-33
-8.8555496e-37
-9.3132039e-21
-6.1465056e-21
5.0539934e-33
9.058905e-21
3.0496435e-21
-3.0728939e-21
6.1221613e-21
3.3479288e-33
-9.8218202e-33
-2.9242067e-21
-5.9440018e-21
9.1704386e-21
-3.0893843e-21
-3.0486963e-21
2.9673922e-21
-2.8612718e-21
5.6650995e-21
-3.2417322e-33
-3.0375457e-21
-4.4316476e-37
-6.2662844e-21
6.1311169e-21
-4.9354218e-33
-5.7466579e-21
2.8319285e-21
0
-2.9865568e-21
-1.6990068e-33
9.3206417e-21
-3.1144686e-21
-6.1706421e-21
-3.0475406e-21
-3.0156031e-21
3.0015348e-21
3.0216958e-21
3.0565532e-21
-3.078944e-21
1.7065058e-33
-1.6923121e-33
3.0382897e-21
-3.3956411e-33
3.0972182e-21
-1.0399897e-32
-9.3359768e-21
6.176308e-21
1.2683288e-51
-3.0758595e-21
-3.4055033e-33
1.6982702e-33
9.2039235e-21
-3.103137e-21
-9.3635122e-21
0
0
3.0308879e-21
3.016892e-21
6.1237796e-21
-3.1081121e-21
-6.2385229e-21
6.1820877e-21
-3.038139e-21
-9.0289516e-21
3.0347532e-21
3.093096e-21
3.1304074e-21
3.112055e-21
-6.1459246e-21
-3.0384287e-21
3.0277296e-21
9.1592642e-21
-3.0820154e-21
-2.435602e-49
-5.0377648e-33
-5.9892028e-21
6.0240659e-21
6.1350545e-21
-3.0973926e-21
-6.1073172e-21
5.9758243e-21
2.9201221e-21
-8.7186235e-21
-8.9438384e-21
3.0508464e-21
6.1281219e-21
3.0199501e-21
-1.6476502e-33
-5.842514e-21
-2.9069383e-21
2.9526315e-21
5.9875984e-21
-4.2603379e-37
-5.935053e-21
5.8442239e-21
-4.8139528e-33
-5.7898643e-21
2.9302128e-21
5.9071282e-21
5.8620948e-21
0
-2.8503013e-21
-8.5177623e-21
-2.8723159e-21
2.9034641e-21
0
0
0
0
-2.8205101e-21
1.5791584e-33
8.4721289e-21
-2.7778672e-21
-8.2161125e-21
-2.7315122e-21
4.6121144e-33
5.5954343e-21
2.77291e-21
-2.7266219e-21
5.3636615e-21
2.6644877e-21
-8.9923109e-33
-2.7251672e-21
-5.4260803e-21
8.0314464e-21
-7.4598349e-37
-2.5990107e-21
3.7289352e-37
-2.6703206e-21
-2.6857498e-21
2.9308676e-33
7.7354369e-21
-7.1730531e-37
-7.5181135e-21
-5.098603e-21
1.4403195e-33
5.2246562e-21
2.5993026e-21
-2.5793894e-21
5.1311238e-21
2.5510844e-21
-8.4162787e-33
-2.4974937e-21
-4.9387695e-21
7.3928244e-21
-2.7708575e-33
-2.5335113e-21
-2.5341283e-21
-2.4808419e-21
-1.3440577e-33
1.3147727e-33
4.7185466e-21
1.3415381e-33
-4.9685684e-21
5.02048e-21
-1.2394746e-32
-7.2606025e-21
4.7170611e-21
-2.5797484e-33
-4.6855669e-21
2.4023751e-21
2.4477885e-21
4.9352742e-21
-2.4618616e-21
-7.3000402e-21
0
0
0
7.1372638e-21
7.2556736e-21
-7.3186919e-21
-7.2820614e-21
4.8050988e-21
-6.7428808e-37
2.3634204e-21
-7.9759068e-33
-7.2679419e-21
7.2732947e-21
-1.1993398e-32
-4.7112504e-21
-1.2974853e-33
1.3169614e-33
4.858767e-21
-2.4551646e-21
2.4167265e-21
-7.8689396e-33
-6.9348359e-21
6.9215354e-21
2.3727807e-21
-5.415097e-33
4.9202559e-21
-4.8489226e-21
-2.375032e-21
-2.3358365e-21
-6.9627096e-21
2.604849e-33
2.382774e-21
7.1878546e-21
-1.5893746e-32
-7.1168412e-21
0
2.3677375e-21
4.7016624e-21
-2.3239362e-21
2.2822586e-21
-7.5373995e-33
-4.574774e-21
6.9681676e-21
-5.1749968e-33
-2.5501376e-33
-2.4959071e-33
-2.453532e-33
2.2017434e-21
-6.7017687e-21
-6.7627266e-21
2.2413909e-21
4.4101479e-21
0
-2.1345173e-21
2.3769389e-33
-4.8055696e-33
2.4106606e-33
2.1447709e-21
-2.1058811e-21
-2.0756668e-21
6.1941611e-21
-1.8900613e-50
-3.4774375e-33
2.067624e-21
-2.2560152e-33
4.0124828e-21
-3.991174e-21
-3.9952849e-21
-1.9949434e-21
2.1893868e-33
1.9352776e-21
0
0
0
3.8956581e-21
-1.9062941e-21
-3.7067135e-21
5.4667944e-21
-1.831525e-21
-5.6247877e-21
5.7045365e-21
-6.2933768e-33
-3.6968287e-21
5.4172759e-21
3.5731498e-21
0
-3.6757717e-21
-6.1902354e-33
-1.8499122e-21
-3.6449172e-21
1.7951377e-21
0
3.6035087e-21
5.207465e-37
2.0532394e-33
-1.8371928e-21
-5.4489522e-21
5.4107098e-21
-3.0090935e-33
-5.4910443e-21
5.5506661e-21
-9.2418838e-33
-3.671641e-21
1.8204359e-21
-1.8214131e-21
3.6891766e-21
1.8678146e-21
-8.3115452e-33
-1.8639543e-21
-3.7072268e-21
-1.8590807e-21
-1.8904559e-21
3.8208075e-21
1.9012041e-21
0
-1.8457568e-21
1.0254597e-33
-8.4415801e-51
1.9503532e-21
-5.6118222e-37
1.950608e-21
7.612241e-50
-5.6504101e-21
5.6493116e-21
5.7746501e-21
-3.9578688e-21
-4.0064427e-21
0
3.9248567e-21
-1.9358979e-21
-5.7905733e-21
5.8711288e-21
-3.3319147e-33
-4.0425295e-21
2.0070557e-21
0
-1.9579889e-21
-1.9534997e-21
1.9806249e-21
-3.3524113e-33
4.0512075e-21
1.1421576e-36
-5.9525404e-21
0
5.9151975e-21
3.9962086e-21
-6.0555444e-21
-4.0169158e-21
5.9598361e-21
1.9686794e-21
-7.8557626e-21
-1.9843519e-21
3.9989321e-21
3.9753428e-21
-2.1812212e-33
-1.9412211e-21
-1.9334551e-21
-1.9541597e-21
1.9727875e-21
-2.1871234e-33
3.8948974e-21
-6.3835749e-33
-5.7015091e-21
0
0
3.905876e-21
-4.3148746e-33
-1.9218809e-21
5.7223117e-21
-1.9011495e-21
-3.1676677e-33
-6.3069108e-33
-5.6244341e-21
1.8585321e-21
-1.0310607e-33
2.0862747e-33
1.8981602e-21
-1.8933407e-21
2.6465177e-37
-1.0152947e-33
2.0049567e-33
1.8042362e-21
0
-1.8530557e-21
3.7286955e-21
1.8605372e-21
-3.6902679e-21
0
1.8077003e-21
-1.7937289e-21
-3.5835778e-21
5.4272146e-21
-6.0830382e-33
-6.0800885e-33
1.8027284e-21
-5.3237153e-21
2.4966879e-37
1.7604658e-21
1.7869839e-21
-1.8049366e-21
-1.800453e-21
1.7822901e-21
0
-1.7532066e-21
3.5205328e-21
-2.9492755e-33
-1.7717336e-21
-3.9103373e-33
-3.8742899e-33
-4.9357316e-37
-3.4792031e-21
5.2480715e-21
5.2669782e-21
0
-3.4678361e-21
-5.1608574e-21
-2.4284362e-37
1.7007133e-21
1.7008044e-21
-1.7083648e-21
-1.7092359e-21
1.6960951e-21
0
3.3181715e-21
3.2991055e-21
-4.962023e-21
-1.660618e-21
1.6574185e-21
-4.6754207e-37
-1.6297849e-21
-3.2415203e-21
-1.6137737e-21
2.6717684e-33
6.3515873e-21
-5.214377e-33
-4.6624068e-21
1.5604811e-21
1.5690819e-21
1.5635494e-21
-1.5382792e-21
-1.5072139e-21
-1.4894311e-21
-4.2362525e-37
1.5005746e-21
-1.4992274e-21
4.423934e-21
2.8842581e-21
-4.2703944e-21
1.4257385e-21
2.8880159e-21
-2.8929999e-21
1.4215985e-21
-1.384373e-21
-2.7013703e-21
4.0214656e-21
-1.3562724e-21
4.5964357e-33
4.1490651e-21
-2.7141961e-21
-1.3184051e-21
-1.2857796e-21
-2.5492573e-21
1.2866514e-21
-2.6695665e-77
2.6284362e-21
1.2989247e-21
-1.4137888e-33
-1.2515499e-21
-2.488816e-21
2.5055146e-21
-1.2634274e-21
-3.7791562e-21
3.7056002e-21
1.2079642e-21
8.3001129e-50
1.2074953e-21
-3.6990119e-21
-1.2481488e-21
1.2375385e-21
2.4113614e-21
-1.1765029e-21
1.1678275e-21
-3.940608e-33
-2.4269274e-21
3.7052506e-21
1.3693137e-33
-5.3694808e-33
2.635709e-33
-2.3578911e-21
2.3765745e-21
-1.2148445e-21
-4.9505057e-21
1.2397341e-21
2.4407534e-21
0
2.3931614e-21
-2.6884728e-33
-7.0557049e-37
-1.4039253e-33
-1.2663421e-21
-1.2491328e-21
1.2330274e-21
1.231525e-21
-2.4948296e-21
2.5536174e-21
-1.439125e-33
-2.5923433e-21
2.5756914e-21
4.272701e-33
-1.4322228e-33
-1.3107451e-21
-2.6585415e-21
1.3338163e-21
-1.325026e-21
7.296701e-34
1.3178164e-21
2.6778359e-21
-1.3708241e-21
-2.7821782e-21
1.3888524e-21
-1.3740889e-21
2.2700973e-33
-1.3642491e-21
-3.0631124e-33
2.8072102e-21
2.850362e-21
3.1903044e-33
-4.7990455e-33
4.8023226e-33
-1.4409699e-21
-1.4397064e-21
-1.4403707e-21
1.44437e-21
0
0
-1.4827012e-21
8.2440036e-34
2.1016406e-37
1.6347433e-33
1.4706683e-21
0
-1.4959392e-21
-3.0231738e-21
1.5130029e-21
3.0001745e-21
2.9703942e-21
2.9572007e-21
-4.4605718e-21
-5.0298408e-33
4.5881566e-21
-3.0625759e-21
-3.0366284e-21
0
-1.4983781e-21
2.9986863e-21
1.5106141e-21
-3.046049e-21
-1.529528e-21
1.6956388e-33
4.5571415e-21
-1.5108804e-21
-4.5125365e-21
4.5017324e-21
1.5043986e-21
-4.5300643e-21
1.6751129e-33
1.4965842e-21
2.9596565e-21
1.630471e-33
-2.9418374e-21
2.9728513e-21
-1.4955602e-21
-4.4636621e-21
0
1.4486986e-21
2.8767133e-21
-8.0043098e-34
1.4530171e-21
2.9209924e-21
-2.9088646e-21
-2.8831979e-21
0
-1.4208088e-21
-1.5669006e-33
-1.5540662e-33
-1.5442021e-33
4.1729311e-21
2.797299e-21
0
-2.7727883e-21
-3.0335675e-33
-1.3489755e-21
-4.0204749e-21
1.340773e-21
-7.455441e-34
1.8969424e-37
1.3179164e-21
2.6123891e-21
-1.3053935e-21
-2.6280781e-21
1.3126335e-21
0
2.5082434e-21
-1.2309885e-21
-3.6804804e-21
1.2465772e-21
1.2700832e-21
2.5396915e-21
-1.2378342e-21
-3.5932812e-21
1.1664356e-21
-1.2853646e-33
-2.3514379e-21
1.2011086e-21
1.2155731e-21
2.4064941e-21
3.4953271e-21
-2.2568541e-21
-2.2091524e-21
2.2048402e-21
1.2474118e-33
-2.2946216e-21
2.3048326e-21
1.2577347e-33
-2.2010595e-21
0
2.1205273e-21
2.1288516e-21
0
-3.2689418e-21
-1.0828433e-21
-3.0161212e-37
-1.0397502e-21
-1.027369e-21
-1.1392572e-33
2.0725216e-21
2.0786429e-21
-3.4223052e-33
-2.0147718e-21
1.9778662e-21
3.2754515e-33
-1.9841192e-21
0
0
0
0
1.8749941e-21
1.047562e-33
-1.9268591e-21
-9.7313395e-22
1.9195593e-21
-3.093232e-33
-1.7991848e-21
1.784973e-21
1.0087406e-33
-9.3315944e-22
1.8875081e-21
-3.0988708e-33
-1.7994521e-21
1.7454006e-21
1.7283554e-21
-1.7510074e-21
-1.7938162e-21
0
0
0
0
-8.5020664e-22
8.5571693e-22
8.712604e-22
-9.7824195e-34
6.5428676e-77
-8.573557e-22
-1.6802061e-21
-8.3421021e-22
1.6807555e-21
2.5620729e-21
-8.5945638e-22
-1.699236e-21
2.5051659e-21
1.652196e-21
-2.4851284e-21
-1.6818022e-21
-8.4965319e-22
-9.3675553e-34
1.6490773e-21
0
-8.0517519e-22
8.2015125e-22
-1.8692575e-33
-2.4206253e-37
-2.8024051e-33
-8.1897457e-22
-8.0101492e-22
2.2748757e-37
1.6326162e-21
1.6769056e-21
-2.8358894e-33
-1.6954626e-21
0
0
0
-8.2256337e-22
-8.3979517e-22
8.5345571e-22
8.5484216e-22
-8.4484034e-22
1.6712044e-21
2.5031127e-21
0
-1.7132324e-21
-9.6152382e-34
-8.65061e-22
-2.5728216e-21
8.5246314e-22
-1.4258777e-33
1.7371585e-21
-5.8797959e-33
-1.7779678e-21
-4.9057741e-34
-1.2467546e-37
8.7731896e-22
-8.8445878e-22
1.7943761e-21
9.0668565e-22
-1.8128438e-21
1.8062408e-21
2.5721683e-37
-1.0143759e-33
-9.2671792e-22
-2.8030347e-21
1.8579012e-21
3.377013e-52
9.1948334e-22
-1.5430014e-33
-1.8852277e-21
9.563126e-22
1.9187067e-21
-1.0622578e-33
-2.8698953e-21
2.7322872e-37
9.6951656e-22
-9.7407268e-22
1.9373787e-21
9.6058214e-22
-1.9191805e-21
1.938758e-21
1.0969085e-33
-5.5654422e-33
2.2242988e-33
-1.9750547e-21
1.948868e-21
-9.6984413e-22
-1.9522246e-21
9.9275569e-22
-1.0094659e-21
2.0269754e-21
-1.6693548e-33
-2.9615273e-21
0
0
2.9511499e-21
9.9837669e-22
-2.0104808e-21
1.997376e-21
5.5911735e-37
-4.3045682e-33
-1.0701674e-33
-1.9376278e-21
1.957235e-21
1.962242e-21
-9.6896376e-22
-2.8591127e-21
-9.4252082e-22
9.4027903e-22
0
0
-9.4194226e-22
5.131931e-34
2.7226558e-21
2.5551257e-37
-1.7984456e-21
-9.0270285e-22
9.9965457e-34
2.6670763e-21
1.9418421e-33
-1.7279667e-21
0
-8.5280551e-22
1.6921503e-21
8.3614333e-22
-1.8326863e-33
-8.1662473e-22
-1.6170748e-21
7.9822896e-22
0
0
0
0
-7.5992455e-22
4.1363745e-34
2.1741711e-21
-7.0698851e-22
-2.1007893e-21
2.1108504e-21
7.0898734e-22
-1.4063053e-21
-6.7977819e-22
-1.0884793e-33
1.9149923e-21
-3.6138628e-37
-2.1391234e-33
-6.4499893e-22
-1.2736841e-21
-6.2115352e-22
-6.7408282e-34
6.0189184e-22
6.0251401e-22
5.998613e-22
5.8712717e-22
-1.2596891e-33
-1.1035903e-21
0
0
-5.6414597e-22
-9.3404735e-34
-7.7387859e-38
7.5000098e-38
5.2144206e-22
1.050391e-21
1.0668876e-21
-1.0648128e-21
-5.725451e-34
-4.9517369e-22
-1.4576737e-21
0
0
5.2065408e-22
5.1764917e-22
0
-4.7172381e-22
2.5701299e-34
4.7146448e-22
-4.8988418e-22
1.0114097e-21
-1.689418e-33
-1.4750604e-21
4.7102887e-22
4.6037083e-22
9.3071983e-22
-4.8079727e-22
-1.4903718e-21
5.0242443e-22
-2.7396398e-34
9.5392276e-22
4.6695098e-22
-9.4189727e-22
9.7039729e-22
-1.5489809e-50
-1.0158547e-21
0
0
9.6891816e-22
-5.418329e-34
-1.6698534e-33
-8.4179e-51
-1.5412519e-21
-5.6191047e-34
4.9967333e-22
1.006826e-21
1.0319893e-21
-1.0626135e-21
-1.1904868e-33
-5.2407587e-22
-1.6944286e-33
5.044669e-22
-1.0304285e-21
0
-5.5428428e-22
6.2013088e-34
5.4500385e-22
1.0563889e-21
5.7976797e-34
-1.0595836e-21
0
0
-5.6823873e-22
3.1167941e-34
1.6537635e-21
6.0723832e-34
-1.0986194e-21
0
5.6282707e-22
-5.6711468e-22
-5.6797448e-22
-5.6715969e-22
-5.6522708e-22
1.1237988e-21
1.6774941e-21
-5.5857764e-22
-1.1217259e-21
1.6972803e-21
5.3416104e-52
-1.1289453e-21
0
0
0
0
1.1313479e-21
1.1261318e-21
-5.5282357e-22
-1.6303778e-21
-6.0264959e-34
5.497838e-22
-1.1206588e-21
-1.1266034e-21
5.5390455e-22
2.1639546e-21
1.0682231e-21
-1.611224e-21
-1.0951824e-21
1.6725281e-21
1.2386263e-33
-1.0939624e-21
0
0
0
1.0922691e-21
6.1613544e-34
-1.2386873e-33
5.5469342e-22
-1.6516825e-21
5.482121e-22
5.4719352e-22
-1.6425225e-21
-1.1003431e-21
5.559865e-22
1.1264305e-21
1.1343606e-21
-1.8803402e-33
6.2240463e-34
-1.5927015e-37
-1.130517e-21
0
-5.797817e-22
-5.7612373e-22
5.6986471e-22
5.6823031e-22
-5.7484889e-22
-5.8838015e-22
1.1971704e-21
5.9735681e-22
-5.8546657e-22
5.7485338e-22
-5.7585441e-22
-1.1762889e-21
0
0
1.8140939e-21
5.8876164e-22
-1.1543436e-21
-5.7865813e-22
-5.9104907e-22
1.2117933e-21
-6.805665e-34
-1.2117432e-21
0
5.7705129e-22
1.7133235e-21
1.267963e-33