/*--------------------------------*- C++ -*----------------------------------*\
  =========                 |
  \\      /  F ield         | OpenFOAM: The Open Source CFD Toolbox
   \\    /   O peration     | Website:  https://openfoam.org
    \\  /    A nd           | Version:  7
     \\/     M anipulation  |
\*---------------------------------------------------------------------------*/
FoamFile
{
    version     2.0;
    format      ascii;
    class       volScalarField;
    location    "0.00269";
    object      Uy;
}
// * * * * * * * * * * * * * * * * * * * * * * * * * * * * * * * * * * * * * //

dimensions      [0 1 -1 0 0 0 0];

internalField   nonuniform List<scalar> 
5000
(
2.0250964e-21
2.7512613e-21
0
0
-1.3319386e-21
1.445962e-36
1.154571e-21
0
0
-1.313243e-21
-2.6718862e-21
1.3392071e-21
1.3369792e-21
-1.3342963e-21
0
-1.3253105e-21
-4.7659566e-51
1.3141467e-21
0
1.309588e-21
-1.3073306e-21
-1.3056993e-21
2.6119092e-21
-1.3087523e-21
-1.3133611e-21
-1.0865294e-35
1.3209069e-21
1.3189405e-21
-2.6274046e-21
2.2682771e-35
-2.2798903e-35
1.2999643e-21
2.5930556e-21
-2.5962443e-21
2.261078e-35
-1.140588e-34
-4.5602426e-35
2.6192069e-21
-2.5931478e-21
-2.5714768e-21
2.5458789e-21
-8.7078891e-35
-2.5540008e-21
1.2942527e-21
3.9205536e-21
-1.3111067e-21
-1.3062744e-21
-8.8782431e-35
-2.5756822e-21
0
1.275841e-21
1.8144815e-37
-1.2836137e-21
2.5845285e-21
-4.530803e-35
-2.5837996e-21
1.2847767e-21
-4.4153402e-35
-1.2731839e-21
0
1.2775074e-21
4.3816329e-35
3.6613315e-37
1.2863267e-21
-1.282925e-21
4.4755038e-35
1.278659e-21
-1.2791182e-21
-1.2801036e-21
1.2791621e-21
1.2765733e-21
-1.2741631e-21
-1.2733404e-21
2.5505546e-21
1.2766169e-21
-1.2756053e-21
0
1.2704359e-21
-1.8023966e-37
-1.2681801e-21
1.2693292e-21
-3.6082125e-37
3.6026529e-37
1.2649771e-21
1.262883e-21
4.3922672e-35
-1.2619573e-21
0
-1.260523e-21
-1.3097367e-34
-4.414224e-35
1.263135e-21
1.2645613e-21
-2.5323198e-21
-8.7617173e-35
1.2637557e-21
0
0
-1.2447039e-21
-8.5530452e-35
2.4460164e-21
-1.2161691e-21
-2.4224192e-21
0
1.2164418e-21
1.2328373e-21
-1.2577505e-21
-1.2923754e-21
0
0
1.3216862e-21
1.36592e-21
0
-5.1839966e-22
4.984003e-35
1.1626297e-21
-1.1011274e-21
3.4238561e-37
-4.4645227e-35
-7.5923248e-52
2.4100921e-21
-5.1654649e-37
-1.2164748e-21
0
-1.1947312e-21
1.1854947e-21
1.1843118e-21
-2.395688e-21
-1.2135955e-21
2.4380734e-21
1.2123035e-21
-1.2038056e-21
-1.1942936e-21
-1.1886142e-21
0
1.2081581e-21
1.2129376e-21
-1.2049704e-21
-4.1414492e-35
1.1836364e-21
-1.1770381e-21
-1.1827553e-21
0
1.2008461e-21
1.1943177e-21
-1.1848661e-21
1.1743885e-21
-6.6382759e-37
-1.1723423e-21
1.1839917e-21
-1.1896389e-21
8.2542919e-35
1.1776207e-21
-1.168096e-21
1.1615806e-21
1.1638e-21
-1.1730418e-21
0
0
-1.1698931e-21
-1.1623554e-21
1.1570609e-21
1.1581399e-21
-1.1640169e-21
-8.1002215e-35
1.1652502e-21
-1.1598813e-21
-1.1543024e-21
0
1.1542512e-21
1.1572473e-21
0
-1.1513747e-21
-1.1443338e-21
0
1.1412449e-21
2.3866304e-34
-1.1502355e-21
1.1461155e-21
1.1393915e-21
-1.1325818e-21
-7.7978104e-35
7.802071e-35
4.8564602e-37
1.1384821e-21
-1.1338912e-21
-1.5620355e-34
7.7073956e-35
-7.7154881e-35
1.1291959e-21
0
0
-1.1239471e-21
-1.1174886e-21
0
0
1.1198618e-21
1.0101232e-52
-1.1225144e-21
0
1.1169735e-21
-1.1146647e-21
-3.0820465e-34
2.2185956e-21
-1.1075932e-21
-2.3026709e-34
-1.5778147e-37
-1.1093789e-21
1.1063101e-21
-1.5648073e-37
-1.5182154e-34
7.5905011e-35
-1.1007459e-21
0
1.1011677e-21
7.58689e-35
3.0284397e-34
1.088155e-21
0
-1.095362e-21
-1.094596e-21
0
0
0
1.0849162e-21
7.5271313e-35
-1.0873212e-21
0
0
1.0724137e-21
1.0733064e-21
-1.0793954e-21
-1.08399e-21
0
1.076429e-21
1.0717946e-21
-1.0689198e-21
-1.0709383e-21
0
1.0764844e-21
-2.9836889e-34
-7.4377727e-35
1.0721678e-21
-1.0717095e-21
-1.0682755e-21
0
1.0584617e-21
-1.4653499e-34
1.0576393e-21
1.4776477e-34
-2.1376984e-21
1.0637843e-21
-1.4657173e-34
-3.6447782e-34
-7.2337029e-35
-1.0483679e-21
1.0566317e-21
1.0614106e-21
0
-1.0534949e-21
-1.047351e-21
0
1.0415894e-21
1.04719e-21
-2.1040761e-21
-1.0524815e-21
1.0491379e-21
1.0438402e-21
2.8838142e-34
-1.0394171e-21
1.0428974e-21
-7.2539897e-35
-1.0448005e-21
1.0402143e-21
-7.1995741e-35
7.2091883e-35
-2.9523221e-37
-7.1950192e-35
1.0394259e-21
0
0
-1.0262088e-21
-1.031701e-21
0
0
0
0
1.0195853e-21
7.0489e-35
-2.0572083e-21
4.3966808e-37
1.0279337e-21
1.021102e-21
-1.4090788e-34
-1.4046481e-34
-1.4506987e-37
-1.0258162e-21
-1.0245074e-21
-1.0198247e-21
2.0242864e-21
3.0201569e-21
-1.0089077e-21
-2.0345767e-21
0
1.0200562e-21
1.0137039e-21
-1.0073596e-21
2.85119e-37
-4.2899141e-37
2.876653e-37
1.0152941e-21
1.0133346e-21
-1.0091042e-21
-2.0119685e-21
1.0047943e-21
3.2078032e-53
1.0083807e-21
2.7864332e-34
-2.0052054e-21
0
0
2.0031551e-21
-5.5360173e-34
-1.9723379e-21
0
9.8286009e-22
9.9645424e-22
-1.0029858e-21
1.4188019e-37
-1.3725182e-34
1.3827577e-37
9.6315302e-22
-9.6977459e-22
-9.8602053e-22
0
9.9941768e-22
-1.3747625e-34
-9.8104083e-22
1.9427074e-21
-2.6791228e-34
-9.7266581e-22
-2.7345666e-34
-1.9828647e-21
1.9778748e-21
9.8174675e-22
-9.7393338e-22
-1.3741238e-37
-9.6591374e-22
0
0
9.8384461e-22
-1.356828e-34
-1.9434511e-21
1.3706225e-37
2.8807017e-21
-9.6579418e-22
-9.7360366e-22
1.9529377e-21
-9.7251103e-22
9.6602734e-22
1.9192124e-21
-9.5731686e-22
-9.6354381e-22
-9.6951222e-22
9.695099e-22
8.5698747e-52
-9.5551258e-22
9.4812745e-22
-9.4756043e-22
9.5594706e-22
2.6727442e-34
2.7461082e-37
9.6077851e-22
-1.9093069e-21
9.4823146e-22
2.6219081e-34
-2.6312562e-34
-9.5538814e-22
-1.9159417e-21
2.8627057e-21
2.6309329e-34
-5.227502e-34
2.6031442e-34
-1.8897791e-21
1.9004736e-21
-2.6360488e-34
-1.8896672e-21
0
0
9.2782396e-22
-1.3017141e-34
-9.4585285e-22
-9.4469041e-22
9.3738443e-22
2.7773646e-21
-9.167411e-22
-9.1872798e-22
-2.6459273e-37
-9.4026703e-22
0
1.8659577e-21
1.8465324e-21
-9.1417112e-22
-1.8252612e-21
-9.2235288e-22
1.8647192e-21
1.8688882e-21
-1.85572e-21
-1.8392779e-21
0
1.8136018e-21
-9.1489027e-22
-1.8511003e-21
9.2888097e-22
9.2238395e-22
-1.2993794e-37
1.2569639e-34
9.002382e-22
-9.0698395e-22
-9.1802107e-22
9.2285661e-22
-1.2728907e-34
-1.2937046e-37
-1.2522833e-34
-8.9811859e-22
9.0197708e-22
-3.7895753e-34
-1.2693111e-34
-2.5298094e-34
-9.0653792e-22
9.0150815e-22
-1.2471649e-34
-2.4993719e-34
-1.2863668e-37
-1.8100928e-21
-9.0240196e-22
8.9750022e-22
1.7880667e-21
-1.2443856e-34
-1.7982995e-21
-8.9925056e-22
1.7937198e-21
8.9074884e-22
-8.863297e-22
-8.8910307e-22
-2.4789038e-34
8.9416374e-22
0
0
8.7214163e-22
0
-8.8602277e-22
8.929431e-22
1.265501e-37
-2.4490538e-34
0
-8.5967245e-22
8.6380909e-22
8.7772157e-22
-1.7788294e-21
-8.9118266e-22
8.837661e-22
0
0
-8.6263686e-22
2.411666e-34
8.7852578e-22
0
0
-8.7733289e-22
3.6282564e-34
8.6485984e-22
0
0
0
0
0
0
0
0
1.7414277e-21
4.8639794e-34
-8.7593005e-22
8.7270166e-22
-8.6864266e-22
8.6610605e-22
-2.4172578e-34
-8.7360421e-22
-2.4249679e-34
-8.7071824e-22
0
0
8.6665995e-22
2.4201864e-34
-8.7316312e-22
0
0
0
0
0
0
0
1.7393244e-21
-7.1946327e-34
-1.7228704e-21
8.6752544e-22
1.2412792e-37
8.745836e-22
-4.838228e-34
-1.7332827e-21
-8.6280034e-22
2.2941952e-52
2.619092e-21
0
-1.7486802e-21
0
0
1.7248109e-21
-2.4246557e-34
-2.6421655e-21
8.7877979e-22
8.7349334e-22
-8.6256432e-22
8.5622234e-22
-8.637034e-22
-2.4373958e-34
8.8672053e-22
-8.8488574e-22
0
-8.6994389e-22
8.6382494e-22
1.7370461e-21
-8.8088217e-22
-8.8999441e-22
-8.914908e-22
-8.8761164e-22
1.7641377e-21
8.769015e-22
-8.7693956e-22
0
8.9323885e-22
-8.9621099e-22
-8.9399688e-22
2.6689122e-21
2.5164976e-37
-1.770624e-21
8.9251332e-22
1.2480315e-34
9.0072458e-22
-2.5561297e-37
-1.7908409e-21
8.927482e-22
0
-2.5013076e-34
-1.2870655e-37
-9.0675349e-22
9.0467797e-22
-2.507865e-34
-1.2545848e-34
-1.2900686e-37
-9.0986005e-22
9.1016338e-22
-1.0261158e-52
-2.5166707e-34
-1.2935242e-37
-1.8297642e-21
-1.2695228e-34
9.1348657e-22
0
0
-9.1218453e-22
-3.8200166e-34
9.2039847e-22
-9.193856e-22
1.269705e-34
-9.5751451e-52
-1.269832e-34
9.2084459e-22
9.2527775e-22
1.2829327e-34
-9.2028146e-22
0
0
9.2456341e-22
-9.3043173e-22
7.7387804e-34
9.2481613e-22
-9.1933986e-22
0
9.2585637e-22
9.3223711e-22
-9.3264908e-22
-9.2979003e-22
0
9.1750565e-22
9.221195e-22
-1.8649121e-21
-9.3941653e-22
9.3722166e-22
9.3184126e-22
1.282296e-34
9.2006578e-22
2.574726e-34
-1.8787932e-21
0
0
0
9.0970535e-22
9.0327317e-22
0
-9.3588377e-22
-1.310924e-34
9.4541396e-22
0
0
-9.3317998e-22
-1.2933822e-34
1.2914262e-34
-9.3062211e-22
9.3002866e-22
-3.8804524e-34
-9.3839262e-22
0
-9.3657219e-22
-1.2931785e-34
9.2439291e-22
-9.1946539e-22
9.2306685e-22
9.3177106e-22
-9.3676286e-22
0
9.2742932e-22
9.2111519e-22
-9.1739838e-22
-9.2189801e-22
0
-9.30644e-22
9.2904118e-22
9.2617935e-22
-9.240373e-22
-1.8467777e-21
5.1328262e-34
2.7741394e-21
5.1622616e-53
-9.2268259e-22
-1.8427524e-21
5.1099825e-34
1.8424649e-21
-9.2119121e-22
9.2070808e-22
-9.1985501e-22
-9.1878136e-22
1.8351021e-21
0
0
-1.8254487e-21
-5.5054806e-52
1.8193786e-21
0
0
-1.812135e-21
-3.0901135e-52
1.8091943e-21
0
0
-1.8038472e-21
-9.0037467e-22
1.7959179e-21
8.9499276e-22
0
-1.7777915e-21
4.9212601e-34
1.7664797e-21
-8.8136536e-22
0
8.8246508e-22
-8.8363702e-22
1.2560783e-37
8.824922e-22
-8.7992436e-22
8.7696087e-22
8.73701e-22
-8.7068737e-22
-8.671129e-22
2.3980488e-34
8.6293774e-22
-8.6513125e-22
-2.4090237e-34
8.6633313e-22
-8.6170279e-22
8.5738293e-22
8.5297375e-22
-8.4946802e-22
-8.4975308e-22
2.3667051e-34
8.5393088e-22
-8.5269019e-22
1.207651e-37
8.4709816e-22
-8.4498615e-22
8.4313375e-22
8.4157871e-22
-8.4042559e-22
-1.6785621e-21
4.6551003e-34
1.6718696e-21
-8.3417555e-22
1.1829664e-37
1.6615952e-21
2.3577476e-37
-8.2857907e-22
0
8.2649935e-22
0
-8.2428973e-22
0
0
0
-8.1970143e-22
-6.5213416e-53
8.1700489e-22
0
8.1392269e-22
-2.2554532e-34
-8.1055643e-22
0
0
0
-8.0509315e-22
2.2329428e-34
8.0320364e-22
0
8.0120296e-22
2.2206742e-34
-7.9900407e-22
0
7.9648271e-22
-7.9498373e-22
4.4083571e-34
7.9173336e-22
-7.9015049e-22
0
-7.876294e-22
-2.1843131e-34
7.8595375e-22
0
7.8468067e-22
-7.8400388e-22
-4.3505288e-34
7.8275418e-22
-4.3425629e-34
-1.1106146e-37
2.1695869e-34
-1.1089226e-37
-7.7974978e-22
0
7.7860234e-22
-2.1593367e-34
-2.1577344e-34
3.0812403e-53
-2.1553747e-34
0
-1.5499288e-21
-2.1502837e-34
7.7381814e-22
-7.7329672e-22
2.1448161e-34
7.7232288e-22
7.7186521e-22
2.1421275e-34
-2.1410098e-34
7.7065017e-22
-7.7029517e-22
-7.6997344e-22
0
-7.6939923e-22
2.1357568e-34
7.6890596e-22
0
0
0
-1.5362374e-21
8.5298256e-34
1.5355969e-21
0
0
0
0
0
0
0
-1.5329012e-21
4.2575159e-34
1.5319704e-21
7.6570953e-22
-7.6537256e-22
-7.649897e-22
2.1241677e-34
4.2395095e-34
7.6384567e-22
-7.636717e-22
7.6357769e-22
7.6360149e-22
-7.637284e-22
-7.6384225e-22
4.2404803e-34
7.6407236e-22
7.6421441e-22
-2.1202987e-34
-7.6450454e-22
-7.6465496e-22
7.6480802e-22
7.6496063e-22
-7.6511232e-22
7.6526219e-22
0
-7.6555198e-22
-7.6569126e-22
2.1243353e-34
7.6593007e-22
-7.6600855e-22
7.6606733e-22
7.6612645e-22
-7.6615409e-22
7.6615242e-22
2.1273274e-34
-7.660211e-22
-7.6587957e-22
-1.0881355e-37
1.5311318e-21
4.25028e-34
-7.6553841e-22
-7.6562168e-22
0
7.6598736e-22
0
0
0
7.666876e-22
7.6685897e-22
-7.6702731e-22
-7.6719235e-22
0
7.6750399e-22
-2.1327036e-34
-7.6779026e-22
0
0
7.6814607e-22
-4.2642571e-34
-7.6830755e-22
0
0
7.6860324e-22
-4.2670056e-34
-7.6884933e-22
0
7.6909299e-22
-2.1359658e-34
2.1352184e-34
-2.1366549e-34
-7.6958891e-22
0
-7.6982905e-22
4.2726856e-34
7.7005778e-22
0
7.7027158e-22
-7.7037147e-22
-7.7046642e-22
1.5411121e-21
2.1420998e-34
-1.541419e-21
2.1402565e-34
7.707915e-22
0
0
7.7069122e-22
-2.1387584e-34
-7.7053723e-22
0
7.7040542e-22
-7.7038551e-22
-7.7040236e-22
7.7044339e-22
0
-7.7055924e-22
7.7060829e-22
4.2777402e-34
-4.2780317e-34
7.7076164e-22
-6.4189677e-34
7.7085781e-22
-7.7090353e-22
2.1396685e-34
-4.2817502e-34
-1.5420455e-21
2.1388737e-34
7.7108139e-22
0
0
0
-1.5422612e-21
-7.711225e-22
1.5422039e-21
7.7106475e-22
0
0
7.7078694e-22
7.9266081e-54
-7.7046497e-22
0
-1.5402653e-21
-7.6998885e-22
1.5397393e-21
7.6977694e-22
0
-1.5392965e-21
-2.1873055e-37
2.3085824e-21
-2.1344613e-34
-1.5388007e-21
7.6933439e-22
4.3727577e-37
-7.6918885e-22
2.1367609e-34
4.2665116e-34
7.6894401e-22
0
7.687618e-22
-4.2677567e-34
-1.537118e-21
7.6844891e-22
-1.2792281e-33
-7.6820587e-22
1.5361449e-21
-1.0912946e-37
-7.6777751e-22
0
0
0
-7.6706191e-22
7.6685497e-22
1.5332709e-21
-7.6640276e-22
-2.127464e-34
-2.1245615e-34
-7.656188e-22
0
7.6504309e-22
-1.0867859e-37
-1.5289446e-21
7.6418109e-22
4.2379512e-34
-7.6357342e-22
-7.6325728e-22
4.2391925e-34
1.5251982e-21
0
7.6190339e-22
7.6154019e-22
0
-7.607802e-22
-7.6038277e-22
7.5997325e-22
0
-7.5911626e-22
0
0
7.5772453e-22
-6.3058452e-34
-7.5670513e-22
0
0
7.5503024e-22
7.5445134e-22
-7.5386672e-22
-7.5327729e-22
7.5268388e-22
7.5208619e-22
-1.5029656e-21
-7.5087156e-22
2.084363e-34
7.4961893e-22
-4.1552573e-34
-4.151635e-34
7.4766244e-22
-7.4699771e-22
7.4633094e-22
-7.4566028e-22
-6.3521093e-37
7.4429872e-22
-1.4872135e-21
-7.4290726e-22
-7.4219984e-22
1.4829696e-21
1.481524e-21
-7.4003089e-22
7.392919e-22
-7.3854459e-22
4.0973863e-34
1.4740494e-21
-7.362514e-22
2.0412064e-34
-2.0410926e-34
-7.3386784e-22
0
0
7.3135706e-22
7.3050304e-22
0
-7.2878815e-22
-7.2792976e-22
0
-7.2621163e-22
2.0141583e-34
7.244929e-22
-7.2363413e-22
2.0049506e-34
7.2191892e-22
0
7.2020991e-22
3.9940112e-34
-7.1851132e-22
7.1766778e-22
-1.9874348e-34
-7.1599493e-22
-7.1516699e-22
-1.9825786e-34
7.1352863e-22
0
-7.1191349e-22
7.1111382e-22
-2.0188484e-37
3.9404436e-34
7.0874436e-22
-7.0796418e-22
0
-1.4128401e-21
1.5667727e-33
7.0490062e-22
3.908583e-34
1.4068284e-21
-1.4053718e-21
-1.4039381e-21
1.402528e-21
1.4011431e-21
6.9989218e-22
0
-6.9857391e-22
-1.3958696e-21
9.9093519e-38
-6.9669672e-22
6.9609925e-22
6.9551636e-22
-6.949482e-22
1.3887906e-21
-1.387717e-21
-1.1547635e-33
1.3856701e-21
-1.3846979e-21
3.8404664e-34
-6.914319e-22
6.9100138e-22
6.9059024e-22
-6.901987e-22
-1.913551e-34
-1.378949e-21
1.378284e-21
1.3776577e-21
-1.3770704e-21
-1.9101853e-34
-6.880051e-22
3.8195893e-34
6.875491e-22
1.907653e-34
3.3307365e-53
6.8700233e-22
1.3737138e-21
-6.8673013e-22
-4.2710148e-53
-6.8653339e-22
-1.1435102e-33
6.8641572e-22
-1.3727734e-21
3.8099164e-34
1.3727759e-21
-1.8971893e-54
-6.8646674e-22
0
0
-6.8672492e-22
6.868468e-22
1.3739721e-21
0
0
0
-6.8771578e-22
-6.8794038e-22
0
6.8843865e-22
-6.887115e-22
-1.1475367e-33
1.3786027e-21
0
0
0
-6.9064497e-22
-6.9101229e-22
6.9139099e-22
-6.9178092e-22
-3.8441017e-34
1.3851856e-21
0
0
-1.3877626e-21
1.9733952e-37
6.9477876e-22
-6.9523675e-22
6.9569945e-22
-6.9616619e-22
3.8688436e-34
1.3942216e-21
0
0
-6.9854588e-22
-6.9902859e-22
0
0
7.0048851e-22
7.0097841e-22
0
-7.0196117e-22
-7.0245263e-22
7.0294307e-22
-7.0343134e-22
-7.0391719e-22
7.0439991e-22
7.0487944e-22
-3.9172611e-34
-7.0582653e-22
7.062937e-22
1.9615166e-34
-7.0721417e-22
0
-7.081164e-22
3.9340547e-34
7.089986e-22
-7.0943118e-22
3.9412551e-34
7.1027608e-22
0
-7.1109076e-22
1.9756532e-34
1.0116288e-37
-7.1224609e-22
7.1261135e-22
7.1296598e-22
0
-1.4272885e-21
7.9301825e-34
7.1427968e-22
1.0154809e-37
1.4297437e-21
-1.4303035e-21
-1.4308412e-21
1.431357e-21
7.1592518e-22
0
-1.4327691e-21
1.1930932e-33
1.4335938e-21
0
-1.4343205e-21
-3.9837294e-34
7.1747385e-22
1.9926649e-34
1.4354737e-21
-1.4356968e-21
-1.7932159e-33
1.4360644e-21
-1.4362084e-21
3.9853279e-34
1.4364145e-21
7.1823754e-22
-1.4365058e-21
-7.1825363e-22
1.4364782e-21
-1.4364171e-21
-1.7937523e-33
1.4361964e-21
-1.4360346e-21
1.9935165e-34
-7.1780181e-22
7.9631147e-34
2.1525416e-21
-3.9817958e-34
-1.4343045e-21
7.1694343e-22
1.4334328e-21
-7.1647179e-22
3.9765272e-34
-7.1593089e-22
-7.9487051e-34
7.1532247e-22
-1.4299852e-21
5.951257e-34
-7.9306358e-34
3.9606685e-34
7.1350422e-22
0
7.1265987e-22
7.1221445e-22
0
0
0
0
0
-7.0927586e-22
-7.0874452e-22
0
7.0764183e-22
-7.0706887e-22
-1.1768531e-33
1.4117526e-21
0
0
0
-7.03285e-22
-7.0259043e-22
7.0187621e-22
7.0114154e-22
-1.4007725e-21
-1.1656066e-33
1.3976245e-21
0
-1.3943087e-21
-1.1598863e-33
6.9541769e-22
-6.9452184e-22
6.9360796e-22
-6.9267643e-22
-3.8396146e-34
1.3815225e-21
0
0
-6.8774944e-22
-6.8670645e-22
0
-6.8455887e-22
-1.9424896e-37
-6.8232435e-22
6.811748e-22
2.0400141e-21
0
1.3551954e-21
1.3527264e-21
0
-2.0214566e-21
-1.3450205e-21
1.3423545e-21
-6.6981995e-22
-6.6843859e-22
2.0010999e-21
6.6560378e-22
9.4381389e-38
6.6267166e-22
-6.6116889e-22
-6.5964173e-22
-6.5808923e-22
-7.549895e-53
-6.5490867e-22
-6.5327941e-22
6.5162449e-22
0
1.2964677e-21
1.2929938e-21
0
-6.4293936e-22
-1.2822365e-21
-3.5475159e-34
-6.3738976e-22
-1.2709652e-21
1.2670957e-21
1.2631714e-21
6.2959585e-22
6.2757994e-22
0
-6.2347273e-22
-1.8641459e-21
6.1926719e-22
1.1010647e-50
-1.8448999e-21
1.2255598e-21
6.1056859e-22
6.0833239e-22
1.2121401e-21
-1.2075618e-21
-6.014644e-22
5.9911981e-22
5.9674653e-22
5.9434442e-22
-1.7757398e-21
-5.8945307e-22
1.760892e-21
5.8444605e-22
-5.8189928e-22
-1.1586473e-21
5.7671902e-22
-5.7408551e-22
9.5138618e-34
-9.4722576e-34
-1.6980218e-21
5.632562e-22
5.6047612e-22
1.115334e-21
5.5482942e-22
-1.1039274e-21
-1.5605508e-37
-5.4614851e-22
5.4319878e-22
1.6206609e-21
-1.6116382e-21
-5.3417623e-22
1.5933306e-21
0
-1.5746569e-21
-5.217267e-22
1.5556059e-21
-5.1531097e-22
-1.0241079e-21
-2.8240273e-34
5.6104498e-34
5.020866e-22
0
9.9056218e-22
9.8365977e-22
-4.8834595e-22
-4.8482935e-22
-9.6255931e-22
4.7769596e-22
4.740779e-22
-9.4084958e-22
0
9.2601814e-22
9.1848973e-22
-4.5544144e-22
-9.0319806e-22
2.4851734e-34
4.437975e-22
-8.7967862e-22
4.3584397e-22
-1.4381302e-33
-8.5548445e-22
4.2363355e-22
0
8.3058854e-22
0
-9.0330573e-34
-4.0247008e-22
-7.9622601e-22
1.1811514e-21
-1.1064129e-37
-7.6963171e-22
0
7.5153821e-22
3.7118856e-22
-7.3313323e-22
4.018162e-34
3.5718937e-22
-7.0486405e-22
3.4762953e-22
-5.7071701e-34
-6.757986e-22
3.3297544e-22
-3.2801466e-22
6.4603205e-22
9.5392982e-22
0
-9.2329095e-22
-6.0517042e-22
8.9207101e-22
5.8415945e-22
-2.8675564e-22
-5.6277581e-22
2.7598029e-22
2.7053525e-22
-5.3010812e-22
2.5953618e-22
5.0795657e-22
-2.4837658e-22
3.4493616e-38
-4.7405596e-22
-4.6255865e-22
6.7645446e-22
-2.1964827e-22
-3.5604185e-34
6.2358523e-22
0
-5.8777556e-22
-3.7978822e-22
1.8381804e-22
1.7769741e-22
1.7153482e-22
0
1.5909631e-22
-8.4828877e-35
-2.9303047e-22
7.7783963e-35
1.3378029e-22
0
1.2088485e-22
-2.2876018e-22
-3.2352612e-22
2.0254466e-22
2.840079e-22
8.8033611e-23
-8.1364199e-23
-1.493181e-22
6.7916305e-23
-6.1136652e-23
-5.432405e-23
9.4963123e-23
-8.1228198e-23
-3.37229e-23
8.0410997e-23
3.9722267e-23
-1.28929e-23
-1.7626222e-23
-2.5330374e-36
1.8201642e-35
1.533339e-23
2.4928466e-35
2.95737e-23
-3.6723229e-23
-4.3904426e-23
-5.1118569e-23
5.8361547e-23
6.5623654e-23
-2.1868897e-22
8.0178382e-23
1.7495099e-22
-2.843879e-22
-2.9030808e-38
1.0951201e-22
-2.3378613e-22
-1.242783e-22
0
1.3907112e-22
1.4650045e-22
3.0792268e-22
-1.614481e-22
5.6266934e-34
5.2932933e-22
-1.8393261e-22
-1.9142178e-22
-1.9892103e-22
2.0643399e-22
2.1395462e-22
-6.644185e-22
2.2898594e-22
4.730149e-22
4.0649115e-34
2.5167814e-22
-5.187032e-22
-8.0116493e-22
-1.5246196e-34
1.5673185e-34
4.119888e-38
2.9741838e-22
6.0986781e-22
3.125031e-22
-9.604266e-22
3.6394712e-34
6.7109836e-22
0
0
-3.5858241e-22
2.0327729e-34
-2.0745113e-34
-3.8142954e-22
7.7805009e-22
3.9664599e-22
4.487516e-34
-4.1209633e-22
-1.2598065e-21
-4.2779699e-22
0
0
0
1.3758655e-21
9.3256218e-22
-1.4220803e-21
5.3507966e-34
9.7952246e-22
0
0
-1.0268545e-21
1.1573921e-33
5.8726967e-34
-1.0740493e-21
5.4495998e-22
1.1058887e-21
1.1219404e-21
-5.6901831e-22
-1.7312003e-21
-5.8510936e-22
0
0
0
1.8536695e-21
1.2526314e-21
-1.9041682e-21
1.4277598e-33
6.5130545e-22
-9.3734914e-38
6.6806341e-22
-1.3535279e-21
7.6118386e-34
6.9460157e-22
-1.4068981e-21
0
4.0020043e-34
1.4591462e-21
1.4772495e-21
-2.2439515e-21
-1.5150993e-21
7.6716303e-22
4.3102223e-34
-7.8618659e-22
2.3870861e-21
1.6107159e-21
-8.1524192e-22
-8.253377e-22
8.3559401e-22
8.4597316e-22
-8.5647769e-22
-8.6713405e-22
4.8733362e-34
-4.9330294e-34
-9.000595e-22
0
-9.2277337e-22
1.8689331e-21
2.8392603e-21
-1.9171883e-21
-1.9418524e-21
-9.8340085e-22
1.1056718e-33
2.0182541e-21
-1.0225915e-21
1.0364431e-21
1.0505225e-21
-2.1293442e-21
2.1577646e-21
1.0933378e-21
-1.1083056e-21
-2.2478835e-21
-1.1401677e-21
2.313453e-21
-6.5098914e-34
1.1901849e-21
1.2073754e-21
-3.6758693e-21
1.2440292e-21
1.2633645e-21
-3.8487125e-21
1.8508667e-37
3.9664272e-21
1.3425516e-21
-4.0923807e-21
1.3869361e-21
-1.2327962e-49
2.3883487e-33
2.9167399e-21
-2.9649304e-21
-3.0148074e-21
1.53371e-21
-1.7334152e-33
-3.1801808e-21
1.6191708e-21
4.9455291e-21
1.6785325e-21
-1.7099334e-21
0
-1.7778126e-21
-3.6265468e-21
2.6273431e-37
5.6536129e-21
1.9212818e-21
-3.9203691e-21
2.8447548e-37
4.0915449e-21
-4.1817621e-21
3.5575947e-33
4.3621708e-21
-6.6811829e-21
-4.5509649e-21
0
0
2.439149e-21
7.4897074e-21
2.5540612e-21
-7.8374638e-21
2.9679163e-33
5.4761713e-21
-5.6130454e-21
-5.7555892e-21
2.9506874e-21
6.0492887e-21
-3.1001798e-21
-3.1784339e-21
9.7808001e-21
3.3456759e-21
5.7193325e-33
-1.9554013e-33
-3.6176274e-21
3.7141737e-21
-7.6306924e-21
-1.1764385e-20
0
1.2432138e-20
8.5155044e-21
-1.3119813e-20
1.2769225e-36
4.6187372e-21
-9.5048707e-21
4.8931293e-21
5.0384612e-21
5.7571436e-33
-5.3345585e-21
-1.0971903e-20
5.6431046e-21
1.1617109e-20
1.1965835e-20
-6.8456375e-33
-6.3519977e-21
6.5428695e-21
-1.3475202e-20
-2.0813895e-20
0
2.2090069e-20
1.5179109e-20
-2.3470803e-20
8.9549474e-33
8.3114858e-21
-8.5656522e-21
-8.8280233e-21
5.0484794e-33
1.8763342e-20
-5.3697546e-33
-1.9952398e-20
1.141972e-32
1.1775615e-32
2.1876008e-20
3.3831249e-20
-2.3254713e-20
1.3314655e-32
4.1185526e-32
-1.2757781e-20
-1.3160249e-20
-2.7146712e-20
4.1990669e-20
1.4432327e-20
-2.9764752e-20
3.0698519e-20
9.0002242e-36
-4.9000529e-20
-1.6847549e-20
1.7374833e-20
5.3748897e-20
-6.1534352e-32
-3.8105249e-20
-1.9650021e-20
4.0534302e-20
6.2701835e-20
-6.4661898e-20
-2.2223625e-20
-2.542646e-32
-2.3624079e-20
4.8723146e-20
-1.3943639e-32
2.5899831e-20
-2.6698952e-20
9.1676964e-32
8.5112998e-20
-8.7742567e-20
-9.0453844e-20
0
0
0
3.4015123e-20
1.0515327e-19
3.612051e-20
4.1323161e-32
3.8356245e-20
-1.1855519e-19
-4.0709795e-20
4.1933338e-20
4.3192772e-20
4.4490434e-20
-9.1652273e-20
4.7198067e-20
-4.8604983e-20
1.6668262e-31
1.0306092e-19
-1.5916827e-19
-1.0925321e-19
0
1.1579226e-19
6.6154952e-32
-6.1326802e-20
1.8932563e-19
6.494148e-20
-6.6828642e-20
0
0
-7.2796892e-20
-1.4976055e-19
1.709937e-31
1.5840587e-19
8.1453235e-20
-8.3766425e-20
8.6140998e-20
-8.8573991e-20
1.3103069e-47
1.5590986e-31
-2.8865692e-19
0
0
2.0889412e-19
2.1465905e-19
1.1028177e-19
-1.2576849e-31
-3.4919093e-19
1.3276657e-31
2.4560538e-19
0
-2.5903092e-19
-1.3299192e-19
2.7310031e-19
-1.4019091e-19
-1.4391489e-19
4.4317007e-19
-1.5161823e-19
5.1822507e-31
3.193526e-19
-4.9152945e-19
-3.3620681e-19
0
0
0
5.5830139e-19
3.8169236e-19
-5.8708299e-19
-4.0129518e-19
0
4.2175956e-19
-2.3997188e-31
-2.2155264e-19
4.5410678e-19
-2.326648e-19
2.3839031e-19
2.4423454e-19
-7.5060383e-19
5.1258423e-19
5.250136e-19
-2.6884483e-19
2.7530712e-19
-5.6379237e-19
-8.6584469e-19
0
9.0734164e-19
6.1912412e-19
-3.1681203e-19
-3.2420148e-19
3.6827619e-31
-3.3941453e-19
1.1566616e-30
3.5520532e-19
2.0171728e-31
-1.6029341e-48
-3.7995921e-19
0
-3.9722949e-19
8.1221125e-19
1.245416e-18
-1.2729756e-18
-1.3009957e-18
0
9.0564889e-19
9.2531069e-19
-9.4531633e-19
4.8283256e-19
4.9317679e-19
-1.5110688e-18
1.0287426e-18
1.0504484e-18
-5.3625217e-19
-1.0949193e-18
-5.5885038e-19
1.7112781e-18
5.8218571e-19
9.8935644e-31
-1.2124944e-18
-3.5160396e-34
1.8931042e-18
-1.2874269e-18
-1.9697685e-18
-6.6966352e-19
2.0487958e-18
1.3927795e-18
-2.1301044e-18
1.6074168e-30
1.4758037e-18
7.5213808e-19
-4.2551154e-31
-1.562468e-18
8.8377849e-31
-8.1113937e-19
-8.2638719e-19
2.5255032e-18
8.5748701e-19
9.6955233e-31
-1.7788588e-18
3.016465e-30
2.7666702e-18
-1.8778635e-18
1.0616762e-30
1.0809674e-30
2.1990336e-30
1.0078377e-18
-3.0768009e-18
1.0435816e-18
1.7678026e-30
3.5975235e-30
3.2964293e-18
-1.1176397e-18
-2.2733638e-18
1.2832697e-30
-1.1754194e-18
-1.1951195e-18
2.4300778e-18
2.4703474e-18
-1.3936401e-30
-3.8282349e-18
1.4393309e-30
1.3178362e-18
-2.6780852e-18
1.3604686e-18
1.382112e-18
-7.7891055e-31
7.9155923e-31
-1.4483167e-18
2.9416159e-18
-1.4935136e-18
5.0512803e-30
5.1274679e-30
-4.6887454e-18
3.1729376e-18
-4.5765465e-34
-3.2683943e-18
1.6583748e-18
5.0482882e-18
1.7073588e-18
-5.1964756e-18
1.9507121e-30
1.7823548e-18
-3.6155041e-18
3.6667057e-18
9.2893539e-30
-1.885166e-18
1.9113679e-18
-1.9377575e-18
3.9286643e-18
-1.9910948e-18
-6.0541534e-18
0
0
4.2001638e-18
6.0475397e-34
-4.311333e-18
2.1837165e-18
6.6358338e-18
2.2403552e-18
-6.8068416e-18
-6.530494e-34
-2.5829282e-30
-4.7114627e-18
7.1549221e-18
1.206214e-29
-2.443938e-18
2.4736649e-18
2.5035517e-18
-2.8141109e-30
-2.5637736e-18
5.1881897e-18
-5.2491062e-18
8.8428609e-30
5.3717769e-18
-8.1503008e-18
-5.4955624e-18
2.7789238e-18
8.4305617e-18
2.841567e-18
-2.873062e-18
0
2.9364023e-18
-2.968246e-18
-9.0005955e-18
-1.6831303e-30
6.1287998e-18
-3.0966387e-18
-3.1289685e-18
6.3227804e-18
-3.1939031e-18
3.2265024e-18
6.5183608e-18
-9.8757873e-18
1.107291e-29
-7.4558927e-30
-6.7811265e-18
6.8471422e-18
3.4566411e-18
3.4897663e-18
3.914e-30
-3.5561477e-18
7.1787862e-18
-7.2453475e-18
-1.0967971e-17
0
3.7227214e-18
-2.0849333e-30
-1.0770511e-33
1.1468879e-17
3.8563895e-18
-1.1669476e-17
3.9232647e-18
-1.7352981e-46
-1.1970386e-17
4.0235413e-18
1.217081e-17
4.0903139e-18
-8.2473429e-18
4.1570031e-18
-4.1902996e-18
1.4066353e-29
8.5135113e-18
-1.2869735e-17
-4.8016699e-30
1.9346162e-29
-8.7782099e-18
8.8441139e-18
4.9456536e-30
-4.4877291e-18
9.0408859e-18
4.553079e-18
0
0
-9.3010164e-18
1.0397236e-29
2.6801567e-33
5.2699507e-30
4.7790131e-18
4.81086e-18
-4.8425921e-18
-4.8742057e-18
9.8113907e-18
-9.8741095e-18
5.5155428e-30
9.9987141e-18
-1.0060579e-17
-1.6855679e-29
5.6525671e-30
-5.1221881e-18
1.0305032e-17
-5.1826831e-18
1.1573735e-29
1.0485002e-17
0
-1.0603196e-17
-5.3308754e-18
1.0719942e-17
5.3888802e-18
-5.4175952e-18
9.0705595e-30
5.4744139e-18
0
0
-1.111615e-17
-1.1171078e-17
0
1.1279602e-17
5.666588e-18
-5.6931418e-18
5.7194618e-18
-5.7455464e-18
0
1.1593982e-17
0
0
-5.8722743e-18
6.5464104e-30
5.9211883e-18
0
-5.9690509e-18
-3.326333e-30
6.0158176e-18
0
-1.2122968e-17
-1.2167808e-17
6.1060416e-18
6.8020173e-30
-6.1494414e-18
1.2341396e-17
1.2383322e-17
-1.2424664e-17
-1.7714422e-33
-1.3884857e-29
-1.7827663e-33
1.2584013e-17
-6.3111495e-18
7.0272433e-30
-6.3485091e-18
6.3667253e-18
1.9153877e-17
-1.9206608e-17
-6.4194523e-18
6.4363742e-18
7.1628626e-30
6.4692487e-18
-1.2970407e-17
-1.3001665e-17
1.3032256e-17
2.1749634e-29
6.5457011e-18
6.5599795e-18
-1.3147848e-17
6.5875355e-18
-7.3269665e-30
3.6730129e-30
-6.6263402e-18
-1.3277166e-17
1.3300957e-17
1.332406e-17
0
-6.684109e-18
-7.4320591e-30
1.340961e-17
7.4542535e-30
-2.0172274e-17
-1.3466417e-17
0
1.3500803e-17
1.5003949e-29
6.7661967e-18
6.7735629e-18
-2.0341726e-17
3.7664679e-30
1.3587101e-17
-6.799515e-18
-1.3610254e-17
6.8103833e-18
1.363057e-17
6.8198343e-18
0
-1.3655785e-17
6.8314032e-18
2.050369e-17
-6.8373669e-18
-6.8398181e-18
-1.3683841e-17
-6.843676e-18
1.3690184e-17
6.8461677e-18
6.8468982e-18
-7.6015205e-30
-6.8473001e-18
-6.8469523e-18
-1.3692496e-17
-6.8452029e-18
0
0
0
1.3675314e-17
1.3669868e-17
-1.3663759e-17
-7.5806682e-30
-7.576547e-30
7.5701236e-30
1.5136368e-29
-1.3623376e-17
0
1.3602693e-17
6.7956989e-18
-6.7897341e-18
6.7834535e-18
6.7768591e-18
0
0
-1.3510449e-17
2.247193e-29
1.4963249e-29
-1.3461709e-17
1.3444259e-17
1.3426219e-17
0
-1.3388395e-17
7.418699e-30
1.3348267e-17
-1.3327346e-17
-7.3876541e-30
1.3283817e-17
0
-1.3238091e-17
-6.6072087e-18
1.3190206e-17
-6.5827298e-18
-1.4591337e-29
1.3114389e-17
-1.3088083e-17
-1.3061272e-17
0
0
0
1.2949051e-17
1.2919776e-17
-1.2890029e-17
0
1.2829148e-17
0
6.3832187e-18
-1.2734407e-17
-6.3509687e-18
6.33452e-18
-1.2635723e-17
-6.3009944e-18
1.256784e-17
6.2666394e-18
6.9384002e-30
-6.2314723e-18
1.3796073e-29
-3.5217529e-33
-1.235457e-17
0
6.1402377e-18
1.2242883e-17
6.1024666e-18
0
0
0
6.0248886e-18
-1.2010184e-17
-5.9851383e-18
5.96503e-18
5.9447699e-18
-5.924362e-18
-5.9038111e-18
1.1766243e-17
0
-1.1682678e-17
-1.1640502e-17
0
0
1.1512448e-17
6.3663196e-30
5.7129381e-18
5.6911286e-18
-5.6692116e-18
5.6471888e-18
-5.625062e-18
-1.1205666e-17
-5.5805051e-18
0
1.107114e-17
6.1186693e-30
-5.4902891e-18
5.4675244e-18
5.4446796e-18
1.0843513e-17
-1.0797517e-17
-5.3756887e-18
1.5212868e-33
-5.3293514e-18
1.0612178e-17
-5.2827673e-18
5.2593876e-18
5.428037e-47
-5.2124638e-18
1.0377851e-17
-1.0330683e-17
-1.0283429e-17
0
5.0943414e-18
1.0141196e-17
-2.8013681e-30
-5.0230072e-18
-4.9991661e-18
9.9505987e-18
9.9028189e-18
-4.9274978e-18
-9.8071319e-18
-9.7592305e-18
4.8556476e-18
9.6633321e-18
-4.8076741e-18
4.783674e-18
-7.9245789e-30
-4.7356563e-18
9.4232824e-18
-9.3752487e-18
-5.1759887e-30
2.5754602e-29
-9.231178e-18
9.1831771e-18
2.0282901e-29
-4.5436117e-18
9.0392793e-18
-4.4956824e-18
1.2709455e-33
-1.9751023e-29
-4.4239158e-18
8.800061e-18
-9.7164161e-30
2.4152507e-30
-4.3285044e-18
1.2234736e-33
8.5619099e-18
-8.5144484e-18
-2.4064792e-33
1.8694301e-29
-8.3724245e-18
8.3252149e-18
9.1899253e-30
-8.2310177e-18
4.0920165e-18
4.0685628e-18
4.0451485e-18
-4.021775e-18
4.4388805e-30
7.9503134e-18
0
0
-7.8111253e-18
-1.1034607e-33
7.7188011e-18
-3.8363935e-18
4.2324101e-30
-3.7905288e-18
-8.3653739e-30
7.4897262e-18
0
3.6994088e-18
-7.3535296e-18
-3.6541764e-18
8.0643833e-30
-3.6091633e-18
7.1734758e-18
-3.5643687e-18
3.9312159e-30
7.0396137e-18
0
0
-3.4534108e-18
1.9046856e-30
-3.4094402e-18
3.3875444e-18
1.0097131e-17
-1.0031816e-17
-3.3222295e-18
6.601166e-18
-3.2789985e-18
-5.4239759e-30
-3.2360132e-18
1.8272963e-33
1.063598e-29
-3.1720076e-18
6.3016041e-18
3.1296612e-18
0
3.0875689e-18
-3.0666172e-18
-3.0457304e-18
-3.0249094e-18
6.6701359e-30
-3.311252e-30
3.2883618e-30
5.884562e-18
-2.9217856e-18
-4.8310071e-30
5.7619868e-18
-4.0652953e-34
-2.8404665e-18
-5.6406002e-18
-5.6003966e-18
5.5603254e-18
3.0658045e-30
2.7402946e-18
2.7204622e-18
-5.4013911e-18
5.3619844e-18
2.6613527e-18
-7.9253374e-18
-5.2445469e-18
2.6028368e-18
5.1669385e-18