/*--------------------------------*- C++ -*----------------------------------*\
| =========                 |                                                 |
| \\      /  F ield         | OpenFOAM: The Open Source CFD Toolbox           |
|  \\    /   O peration     | Version:  4.x                                   |
|   \\  /    A nd           | Web:      www.OpenFOAM.org                      |
|    \\/     M anipulation  |                                                 |
\*---------------------------------------------------------------------------*/
FoamFile
{
    version     2.0;
    format      ascii;
    class       volVectorField;
    location    "0.93";
    object      U;
}
// * * * * * * * * * * * * * * * * * * * * * * * * * * * * * * * * * * * * * //

dimensions      [0 1 -1 0 0 0 0];

internalField   nonuniform List<vector> 
6279
(
(0.05541624531 0.01599271641 -0.007676349772)
(0.05995016558 0.01696845438 -0.009430165167)
(0.06467057447 0.01540981452 -0.01100019914)
(0.06903029601 0.01240322065 -0.01240322453)
(0.07247986508 0.008091680103 -0.01347324168)
(0.07443043568 0.002813859243 -0.01407578847)
(0.07443042622 -0.002813828264 -0.01407578298)
(0.07247984263 -0.008091653446 -0.0134732286)
(0.06903027638 -0.01240317942 -0.01240321144)
(0.06467054997 -0.01540982266 -0.0110001849)
(0.05995012017 -0.01696846423 -0.009430164504)
(0.05541622914 -0.01599266873 -0.007676375599)
(0.05351740154 0.01434053474 -0.00969024984)
(0.05725659361 0.01512884162 -0.01179648825)
(0.06112372711 0.01370024311 -0.01370024369)
(0.06467056219 0.01100019458 -0.01540980477)
(0.06745615655 0.007162494819 -0.01672272448)
(0.06900326856 0.002485957201 -0.01743980512)
(0.06900326201 -0.002485921592 -0.01743980721)
(0.06745613615 -0.00716246541 -0.01672273066)
(0.06467053362 -0.01100016189 -0.01540981465)
(0.06112366928 -0.01370025459 -0.01370027055)
(0.05725655417 -0.01512886353 -0.01179645094)
(0.05351740454 -0.01434047498 -0.009690246091)
(0.05138817254 0.01252132748 -0.01092869309)
(0.05431136773 0.01309290287 -0.01309287629)
(0.05725660856 0.01179650633 -0.01512883523)
(0.05995018053 0.009430173662 -0.01696844084)
(0.06204144384 0.006118107611 -0.01839214529)
(0.06319724391 0.002118420977 -0.01916663885)
(0.06319723884 -0.002118392489 -0.01916664339)
(0.06204142809 -0.006118084388 -0.01839215733)
(0.05995015937 -0.009430150535 -0.01696845782)
(0.05725658552 -0.01179647261 -0.0151288604)
(0.054311409 -0.01309289639 -0.01309284121)
(0.05138822965 -0.0125213139 -0.01092865298)
(0.04896391485 0.01058648451 -0.01058646247)
(0.05138817358 0.01092870728 -0.01252132043)
(0.0535174157 0.009690252278 -0.01434053415)
(0.05541625252 0.007676365558 -0.01599270965)
(0.05685061083 0.004950317136 -0.01725940092)
(0.05762518849 0.001707419224 -0.01797604986)
(0.05762519174 -0.001707393593 -0.01797604355)
(0.05685061837 -0.004950295382 -0.01725938437)
(0.05541626719 -0.007676342999 -0.01599268138)
(0.05351744559 -0.009690211415 -0.01434050279)
(0.05138823162 -0.01092867146 -0.01252131694)
(0.04896394755 -0.01058648245 -0.01058645605)
(0.06072688972 0.01915084786 -0.009226943961)
(0.06644645309 0.02075816626 -0.01142046245)
(0.07224906487 0.01851865592 -0.01326774311)
(0.07742930128 0.01494492406 -0.01494493567)
(0.08151731139 0.009761243598 -0.01623406152)
(0.08378682155 0.003397860233 -0.01692606804)
(0.08378679825 -0.003397839848 -0.0169260611)
(0.08151725263 -0.009761215643 -0.01623404714)
(0.07742922783 -0.01494487154 -0.01494492002)
(0.07224896627 -0.01851863529 -0.01326772784)
(0.06644641571 -0.02075816272 -0.01142045016)
(0.06072687976 -0.01915081846 -0.009226939887)
(0.05813420115 0.01730249822 -0.01160571153)
(0.06301978865 0.0185894519 -0.0142716647)
(0.06791577434 0.01650862449 -0.01650862148)
(0.07224906141 0.0132677288 -0.01851864183)
(0.07562681388 0.008627458501 -0.02006634499)
(0.07749550549 0.002997664246 -0.02090206174)
(0.07749548677 -0.002997631799 -0.02090205615)
(0.07562676066 -0.008627429028 -0.0200663353)
(0.07224898778 -0.01326768979 -0.0185186308)
(0.06791567267 -0.01650861092 -0.01650863093)
(0.06301978922 -0.01858944713 -0.01427162548)
(0.05813425145 -0.01730246895 -0.01160568239)
(0.05527434914 0.01503775115 -0.0133889633)
(0.05917801132 0.01614852703 -0.01614849315)
(0.0630198146 0.01427168548 -0.01858943191)
(0.06644647721 0.0114204629 -0.02075813194)
(0.06909070641 0.007390962786 -0.02242989476)
(0.07054169584 0.002563296002 -0.02333162445)
(0.0705416885 -0.002563260287 -0.02333162213)
(0.06909068867 -0.007390931317 -0.02242988881)
(0.06644646016 -0.0114204316 -0.02075811895)
(0.06301980848 -0.01427164152 -0.01858942524)
(0.05917807671 -0.01614848926 -0.0161484358)
(0.05527444129 -0.01503774372 -0.01338891909)
(0.0518522784 0.01258283175 -0.01258280965)
(0.05527433844 0.01338899104 -0.01503773414)
(0.05813421902 0.01160573439 -0.01730249997)
(0.0607269015 0.0092269612 -0.01915085108)
(0.06261507783 0.00592545036 -0.02069094656)
(0.06366065336 0.002050457388 -0.02148061096)
(0.0636606547 -0.002050413742 -0.0214806133)
(0.06261508433 -0.005925412681 -0.02069095058)
(0.06072691281 -0.009226927612 -0.01915085922)
(0.05813424927 -0.01160568735 -0.01730250649)
(0.05527438376 -0.01338895529 -0.01503773773)
(0.05185227079 -0.01258285552 -0.0125828249)
(0.06835919087 0.02334667279 -0.01094467299)
(0.07518825598 0.02488629201 -0.01363294511)
(0.08207532997 0.02151395701 -0.01546424796)
(0.08799444051 0.01701595038 -0.0170159785)
(0.09241371656 0.01095032516 -0.01817952287)
(0.09476945058 0.003776575492 -0.01882065465)
(0.09476943538 -0.003776588795 -0.01882065382)
(0.09241367485 -0.010950326 -0.01817951843)
(0.08799438438 -0.01701591395 -0.01701596665)
(0.08207525777 -0.02151391173 -0.01546422971)
(0.07518824129 -0.02488623816 -0.01363291467)
(0.0683592079 -0.02334661534 -0.01094464797)
(0.06498508725 0.02117163063 -0.01389225916)
(0.07090925699 0.0226686979 -0.0172340154)
(0.07688078979 0.01955861131 -0.01955860247)
(0.08207534272 0.01546422045 -0.02151394164)
(0.08595770567 0.009950800219 -0.0229798762)
(0.08804835746 0.003429371092 -0.02378980688)
(0.0880483455 -0.003429372247 -0.02378979695)
(0.08595767177 -0.009950796546 -0.02297985095)
(0.08207529842 -0.01546419033 -0.0215139029)
(0.07688073849 -0.01955856636 -0.01955857268)
(0.07090928449 -0.02266864312 -0.01723395526)
(0.06498513191 -0.02117158566 -0.01389221262)
(0.06128533001 0.01867400838 -0.01657371569)
(0.06608458129 0.02005722206 -0.02005717727)
(0.07090927018 0.01723404013 -0.02266867097)
(0.07518828506 0.01363293465 -0.02488625429)
(0.07836355877 0.008754506098 -0.02654601626)
(0.08008539365 0.003011780401 -0.02744981245)
(0.08008539014 -0.003011764189 -0.02744980082)
(0.078363552 -0.008754486704 -0.0265459848)
(0.07518828558 -0.01363290026 -0.02488620414)
(0.07090928429 -0.0172339807 -0.02266862824)
(0.06608462848 -0.02005716286 -0.0200571211)
(0.0612853638 -0.01867397634 -0.01657367435)
(0.05678694 0.0154102705 -0.01541024948)
(0.06128532934 0.01657375544 -0.01867397892)
(0.06498508579 0.01389228483 -0.02117163021)
(0.06835919057 0.01094468149 -0.02334666808)
(0.07078146033 0.006996850264 -0.02487811082)
(0.07206178863 0.002397212696 -0.02577249171)
(0.07206178854 -0.002397173532 -0.02577248632)
(0.07078145965 -0.006996815095 -0.02487809765)
(0.0683591858 -0.01094464741 -0.02334665281)
(0.06498508291 -0.01389223864 -0.02117162274)
(0.0612853109 -0.01657371295 -0.01867397573)
(0.05678691785 -0.01541027001 -0.01541025368)
(0.07956549418 0.02939464225 -0.01477181824)
(0.08775618533 0.03179615148 -0.017673211)
(0.09600211383 0.02711868159 -0.01975401115)
(0.1027579528 0.02163135159 -0.02163137065)
(0.1079877556 0.0138836225 -0.02304045055)
(0.1108754786 0.004806985256 -0.02376175756)
(0.1108754764 -0.004806982592 -0.02376175387)
(0.1079877481 -0.01388361832 -0.02304044543)
(0.1027579405 -0.02163132716 -0.02163136513)
(0.09600208978 -0.02711864813 -0.01975400444)
(0.08775620122 -0.03179610234 -0.01767318847)
(0.07956552839 -0.02939458116 -0.01477178761)
(0.07518141404 0.02740827446 -0.01842083453)
(0.08251617978 0.02928961155 -0.02215148296)
(0.08996913449 0.02480847231 -0.02480846491)
(0.09600212783 0.01975399379 -0.02711866989)
(0.1006049423 0.01260252773 -0.02888008338)
(0.103107175 0.004353723239 -0.02977420113)
(0.1031071706 -0.004353714189 -0.02977419648)
(0.1006049299 -0.0126025252 -0.02888007265)
(0.09600211882 -0.01975397703 -0.02711864778)
(0.0899691309 -0.02480843409 -0.02480844352)
(0.08251622666 -0.02928955134 -0.02215143577)
(0.07518146581 -0.02740820902 -0.01842079218)
(0.07021503164 0.02406656353 -0.02240152889)
(0.07627549256 0.02613345836 -0.02613342016)
(0.08251618212 0.02215150438 -0.02928958782)
(0.08775620485 0.01767320554 -0.03179612205)
(0.09166426908 0.01122665163 -0.03381883225)
(0.09379039691 0.003881496918 -0.03484879675)
(0.09379039514 -0.00388148179 -0.03484879258)
(0.09166427019 -0.01122663681 -0.03381881754)
(0.08775622219 -0.01767317751 -0.0317960876)
(0.08251621577 -0.02215145423 -0.02928954876)
(0.07627553631 -0.02613340317 -0.0261333791)
(0.07021506316 -0.02406651691 -0.02240149298)
(0.06412759711 0.02075313218 -0.02075309614)
(0.07021502677 0.02240156935 -0.02406653934)
(0.07518140961 0.01842085805 -0.02740826515)
(0.07956550345 0.01477182431 -0.0293946285)
(0.08244465486 0.009254216909 -0.03144145032)
(0.08410741905 0.003207970153 -0.03230302031)
(0.08410741874 -0.003207938026 -0.03230301666)
(0.08244466162 -0.009254186487 -0.03144143533)
(0.07956551181 -0.01477178843 -0.0293946105)
(0.07518142998 -0.01842081664 -0.02740823838)
(0.07021503574 -0.02240152707 -0.02406652439)
(0.06412759565 -0.02075310759 -0.02075309334)
(0.09505530305 0.03728068021 -0.01692534985)
(0.1050245235 0.03684790129 -0.0204118605)
(0.1144985088 0.03065317604 -0.02230231279)
(0.122234918 0.02347860035 -0.02347860862)
(0.1279665641 0.01468858926 -0.02425409929)
(0.130856697 0.004983326315 -0.02474637499)
(0.1308566913 -0.004983315094 -0.02474637233)
(0.127966544 -0.01468857281 -0.02425409203)
(0.1222348925 -0.02347856358 -0.02347859327)
(0.1144984899 -0.03065311932 -0.02230229408)
(0.1050245468 -0.03684783462 -0.02041183295)
(0.09505533871 -0.03728061668 -0.0169253161)
(0.0895954908 0.03502260944 -0.02198161639)
(0.09875664925 0.0347780901 -0.02639685426)
(0.1073521869 0.02899511016 -0.02899510247)
(0.1144985219 0.02230231022 -0.03065317016)
(0.119831033 0.01404032401 -0.03183244055)
(0.1226202497 0.004789704704 -0.03251413208)
(0.1226202404 -0.004789687854 -0.03251412534)
(0.1198310123 -0.01404030628 -0.03183242317)
(0.1144985168 -0.02230227545 -0.03065313878)
(0.1073522044 -0.02899505084 -0.02899507031)
(0.09875669488 -0.03477802198 -0.02639681805)
(0.08959552836 -0.03502254981 -0.02198158216)
(0.0834854453 0.03165194909 -0.02712414996)
(0.09124293239 0.03190367516 -0.03190363965)
(0.09875666174 0.02639687094 -0.03477806712)
(0.1050245548 0.02041186668 -0.03684787756)
(0.1096378457 0.01280254764 -0.03831723645)
(0.112053779 0.004369333364 -0.03910248966)
(0.1120537778 -0.00436930851 -0.03910248369)
(0.1096378492 -0.01280252111 -0.03831721849)
(0.1050245794 -0.02041182831 -0.03684784287)
(0.09875669665 -0.02639681801 -0.03477803456)
(0.091242964 -0.03190362088 -0.03190361649)
(0.08348546789 -0.03165190015 -0.02712412809)
(0.07536043753 0.02691938296 -0.02691935599)
(0.08348544527 0.02712418802 -0.0316519182)
(0.08959550209 0.0219816379 -0.03502259274)
(0.09505534027 0.01692536255 -0.03728065751)
(0.09886969395 0.01056690665 -0.03899186301)
(0.1008967403 0.003610946755 -0.03989995932)
(0.1008967427 -0.003610906798 -0.03989995662)
(0.0988697044 -0.01056686732 -0.03899185224)
(0.09505535485 -0.01692532237 -0.03728064409)
(0.08959551582 -0.02198159694 -0.03502257939)
(0.08348545302 -0.02712414769 -0.03165191217)
(0.07536045276 -0.0269193482 -0.02691934747)
(0.1221118937 0.04310187488 -0.02472887884)
(0.1338111854 0.0487447295 -0.02812772594)
(0.1437304894 0.04001922202 -0.02969883776)
(0.1519031727 0.03169121717 -0.03169120745)
(0.1579120516 0.02013724497 -0.03338349995)
(0.1609682321 0.007001769521 -0.03421100511)
(0.1609682297 -0.007001750165 -0.03421100493)
(0.1579120403 -0.02013723565 -0.03338349958)
(0.1519031586 -0.03169119681 -0.03169119628)
(0.1437304771 -0.04001917687 -0.02969880831)
(0.1338111959 -0.0487446626 -0.02812768225)
(0.1221119062 -0.04310181281 -0.02472883919)
(0.1159088764 0.04166609679 -0.03096728202)
(0.1266557287 0.0462621279 -0.03562898141)
(0.1359257801 0.03762474897 -0.0376247189)
(0.1437305035 0.02969885041 -0.04001919168)
(0.1494480238 0.01859161204 -0.04209868448)
(0.1523658879 0.006366345964 -0.04309788864)
(0.1523658822 -0.006366334011 -0.04309789051)
(0.1494480103 -0.01859159439 -0.04209868195)
(0.1437304998 -0.0296988122 -0.04001916911)
(0.1359257867 -0.03762469306 -0.03762468467)
(0.1266557432 -0.04626206593 -0.03562894597)
(0.1159088817 -0.04166603858 -0.0309672551)
(0.1087919665 0.0385720104 -0.03941633234)
(0.118172243 0.04326872466 -0.04326868498)
(0.1266557377 0.03562902098 -0.04626210338)
(0.1338112177 0.02812774531 -0.04874470371)
(0.1389965786 0.01753966578 -0.05112454095)
(0.1415662913 0.006008616828 -0.05225377375)
(0.1415662893 -0.006008597898 -0.05225376889)
(0.138996576 -0.01753963806 -0.05112452574)
(0.1338112277 -0.02812770409 -0.0487446793)
(0.1266557479 -0.03562897277 -0.04626208107)
(0.1181722494 -0.04326867302 -0.04326866932)
(0.1087919758 -0.0385719551 -0.0394163129)
(0.09839831113 0.03485047667 -0.03485044558)
(0.1087919699 0.03941637146 -0.03857197698)
(0.1159088831 0.03096731999 -0.04166607928)
(0.1221119272 0.02472890172 -0.04310185262)
(0.125650807 0.01517385745 -0.04537104339)
(0.1276527577 0.005220965687 -0.04610111863)
(0.1276527594 -0.005220933474 -0.04610111516)
(0.1256508131 -0.01517382577 -0.04537103153)
(0.1221119315 -0.02472886774 -0.04310184105)
(0.1159088867 -0.03096728423 -0.04166606493)
(0.1087919771 -0.03941632707 -0.0385719667)
(0.09839832137 -0.0348504266 -0.03485042717)
(0.1614787821 0.07083805768 -0.02662756919)
(0.1761357484 0.05511866522 -0.02896961155)
(0.1886729674 0.04360796738 -0.03216851896)
(0.1970912984 0.03124992291 -0.0312499071)
(0.2028700804 0.01823895114 -0.02983213508)
(0.2054664706 0.005767864691 -0.02895180665)
(0.2054664595 -0.005767827796 -0.02895180133)
(0.2028700576 -0.01823891216 -0.02983211894)
(0.1970912824 -0.03124987144 -0.03124987353)
(0.188672965 -0.04360790931 -0.0321684839)
(0.1761357508 -0.05511860123 -0.0289695731)
(0.1614787846 -0.07083799227 -0.02662753061)
(0.1515943817 0.07028840691 -0.03559143192)
(0.1653380298 0.05528075967 -0.03968038732)
(0.1782766031 0.04408096668 -0.04408093547)
(0.188672976 0.03216853718 -0.04360793861)
(0.1952122866 0.01941509352 -0.04242652937)
(0.1983648619 0.006544880943 -0.0417723975)
(0.1983648576 -0.006544842171 -0.04177239017)
(0.1952122804 -0.01941505376 -0.04242650947)
(0.1886729785 -0.03216849133 -0.04360791437)
(0.1782766072 -0.04408091446 -0.04408091677)
(0.1653380314 -0.05528069875 -0.03968036422)
(0.1515943989 -0.07028834223 -0.03559140303)
(0.1396886858 0.06361718482 -0.0466843315)
(0.1520014538 0.05029408179 -0.05029403606)
(0.1653380298 0.03968043106 -0.05528072939)
(0.1761357591 0.02896963992 -0.05511863438)
(0.1828652541 0.0170445852 -0.05511191313)
(0.186185948 0.005716124001 -0.05492270021)
(0.1861859494 -0.005716091157 -0.05492269663)
(0.1828652599 -0.01704455056 -0.05511190248)
(0.1761357681 -0.02896959852 -0.05511862493)
(0.1653380389 -0.03968038292 -0.05528072182)
(0.1520014692 -0.05029402754 -0.05029403025)
(0.1396887108 -0.06361713006 -0.04668431584)
(0.1273010501 0.0623468754 -0.06234684432)
(0.1396886963 0.04668437439 -0.06361714561)
(0.1515943975 0.03559147921 -0.07028838931)
(0.1614788056 0.02662760536 -0.07083803885)
(0.1674174273 0.01552190236 -0.07279403735)
(0.170636964 0.005336961063 -0.07323477644)
(0.1706369655 -0.005336918366 -0.07323478012)
(0.1674174336 -0.01552186368 -0.07279403965)
(0.1614788127 -0.02662756611 -0.07083804896)
(0.1515944159 -0.03559143701 -0.07028838956)
(0.1396887174 -0.04668432486 -0.06361715062)
(0.1273010919 -0.06234683066 -0.06234683351)
(0.1782000193 0.1045966858 -0.0470519481)
(0.1985141942 0.08777211301 -0.04949170991)
(0.2201348672 0.07666559083 -0.05327046557)
(0.2362860598 0.06058299656 -0.06058296978)
(0.2463074172 0.03830501873 -0.06506500178)
(0.2505233698 0.01319467153 -0.06636524226)
(0.2505233568 -0.01319463596 -0.06636523337)
(0.2463073869 -0.03830497736 -0.0650649825)
(0.2362860325 -0.06058294706 -0.06058295098)
(0.2201348491 -0.07666554072 -0.05327044284)
(0.198514185 -0.08777206028 -0.04949167375)
(0.1782000288 -0.104596631 -0.04705191367)
(0.1674939839 0.09800124495 -0.06096820873)
(0.1875209736 0.08010196437 -0.06263464566)
(0.2071303063 0.06836869482 -0.06836864731)
(0.2201348756 0.05327050403 -0.07666555553)
(0.2295185823 0.03236160844 -0.08178174873)
(0.2340888828 0.01079601762 -0.08354308316)
(0.2340888785 -0.01079597908 -0.08354308185)
(0.2295185734 -0.03236156836 -0.08178174487)
(0.2201348688 -0.053270459 -0.07666555228)
(0.2071302995 -0.06836864436 -0.06836863816)
(0.1875209864 -0.08010190777 -0.06263462554)
(0.1674940171 -0.09800118664 -0.06096819043)
(0.1557771313 0.08826600588 -0.07300530352)
(0.1749691771 0.07381053111 -0.07381048185)
(0.1875209887 0.06263469862 -0.08010192237)
(0.1985142083 0.04949175799 -0.08777207859)
(0.2065946762 0.03055314413 -0.09367784661)
(0.2108690343 0.01043489748 -0.09633775912)
(0.2108690359 -0.01043484158 -0.09633776449)
(0.2065946796 -0.03055309579 -0.09367785678)
(0.1985142128 -0.04949171413 -0.08777209082)
(0.1875210045 -0.06263465576 -0.08010192271)
(0.1749692028 -0.073810483 -0.07381048074)
(0.1557771742 -0.08826596992 -0.07300529568)
(0.1395042898 0.08751098675 -0.08751093788)
(0.1557771428 0.07300535424 -0.08826597154)
(0.167494005 0.06096826232 -0.09800121351)
(0.1782000405 0.04705199753 -0.1045966725)
(0.1849289965 0.02811129855 -0.1105643698)
(0.1883356156 0.009507341992 -0.1128255804)
(0.1883356201 -0.009507298631 -0.1128255849)
(0.1849290109 -0.02811126404 -0.1105643773)
(0.1782000662 -0.04705196644 -0.104596684)
(0.1674940436 -0.06096823388 -0.09800121876)
(0.1557771897 -0.07300530995 -0.08826598194)
(0.1395043559 -0.08751095635 -0.08751094309)
(0.2444381339 0.135454315 -0.05344566211)
(0.2704800663 0.1112837547 -0.05905218406)
(0.2965318636 0.08063706423 -0.06088051918)
(0.316615635 0.05675689289 -0.05675685381)
(0.3279457662 0.0318800405 -0.05474848478)
(0.3325752287 0.009996199226 -0.05321665047)
(0.3325752106 -0.009996159331 -0.05321664394)
(0.3279457249 -0.03187999464 -0.05474846749)
(0.316615597 -0.05675683674 -0.05675682754)
(0.2965318428 -0.08063699412 -0.06088048185)
(0.2704800624 -0.1112836602 -0.0590521463)
(0.2444381843 -0.1354542373 -0.05344564376)
(0.222526953 0.1328142975 -0.07097015123)
(0.2470498501 0.1118096489 -0.08246791012)
(0.2709811784 0.08319030778 -0.08319026215)
(0.2965318771 0.06088057235 -0.08063702755)
(0.310885753 0.03732374097 -0.08132758452)
(0.3178212343 0.01259562635 -0.08168501832)
(0.317821232 -0.0125955516 -0.08168501381)
(0.3108857502 -0.03732368035 -0.08132756878)
(0.2965318823 -0.06088052078 -0.08063700357)
(0.2709812032 -0.0831902477 -0.08319023418)
(0.2470498842 -0.1118095733 -0.08246789469)
(0.2225270273 -0.1328142364 -0.07097015005)
(0.1896342274 0.1233889968 -0.09573306294)
(0.2184028657 0.1070014019 -0.1070013555)
(0.2470498599 0.08246795875 -0.1118096104)
(0.270480092 0.05905223384 -0.1112837369)
(0.2851057713 0.03472389427 -0.1131660398)
(0.2923836076 0.01140370136 -0.113092582)
(0.2923836101 -0.01140365253 -0.113092576)
(0.2851057812 -0.03472385575 -0.113166021)
(0.2704801158 -0.05905220298 -0.1112837181)
(0.247049906 -0.08246792785 -0.1118096063)
(0.2184029229 -0.1070013675 -0.107001375)
(0.1896342991 -0.1233889815 -0.09573308231)
(0.1509310581 0.1182909936 -0.1182909464)
(0.1896342308 0.09573311675 -0.1233889678)
(0.2225269665 0.07097020718 -0.1328142714)
(0.2444381656 0.05344571453 -0.1354543112)
(0.2562678813 0.03178086371 -0.1398739689)
(0.2618200196 0.01095514453 -0.1418012582)
(0.2618200317 -0.01095511155 -0.1418012585)
(0.2562679212 -0.03178083459 -0.1398739693)
(0.2444382294 -0.05344568776 -0.1354543187)
(0.2225270469 -0.07097018414 -0.1328142875)
(0.1896343028 -0.09573309143 -0.1233890017)
(0.1509311371 -0.1182909894 -0.1182909846)
(0.2614402424 0.2265131141 -0.08813655802)
(0.3404666609 0.1844982424 -0.08481587162)
(0.3801133065 0.164528567 -0.1000589732)
(0.4074087607 0.1202931728 -0.1202931289)
(0.4212653851 0.07196394956 -0.1283683979)
(0.4251174238 0.02351870232 -0.1299134369)
(0.4251174118 -0.02351865874 -0.1299134251)
(0.4212653633 -0.07196390592 -0.1283683679)
(0.4074087555 -0.1202931104 -0.1202930987)
(0.3801133304 -0.1645284922 -0.1000589462)
(0.3404667254 -0.1844981664 -0.08481584947)
(0.2614403314 -0.2265130488 -0.08813653016)
(0.2407397686 0.2123002103 -0.1212684355)
(0.3252933109 0.1742136276 -0.1187800072)
(0.3624017389 0.1443752969 -0.1443752372)
(0.3801133333 0.1000590297 -0.1645285393)
(0.394458944 0.05550069738 -0.1701000926)
(0.4015880569 0.01763163015 -0.1716447514)
(0.4015880638 -0.01763161317 -0.1716447434)
(0.394458968 -0.05550067362 -0.1701000705)
(0.3801133796 -0.1000589915 -0.1645285215)
(0.3624018146 -0.1443752518 -0.1443752403)
(0.3252934162 -0.1742135817 -0.1187800189)
(0.2407398667 -0.2123001883 -0.121268435)
(0.2113734439 0.1803517648 -0.1521383139)
(0.2925160166 0.1526584778 -0.1526584232)
(0.3252933291 0.1187800858 -0.1742135845)
(0.3404667079 0.0848159459 -0.1844982268)
(0.3491874971 0.04929812175 -0.1900071227)
(0.3530074644 0.016603785 -0.1936067032)
(0.3530074853 -0.01660373609 -0.1936067033)
(0.3491875571 -0.04929808016 -0.1900071238)
(0.3404667957 -0.08481591036 -0.1844982397)
(0.3252934365 -0.1187800595 -0.1742136032)
(0.2925161244 -0.152658454 -0.1526584405)
(0.2113735295 -0.1803517694 -0.1521383215)
(0.1542890505 0.1720894915 -0.1720894676)
(0.2113734508 0.1521383626 -0.1803517509)
(0.2407397937 0.1212684903 -0.2123002021)
(0.261440291 0.08813661557 -0.2265131287)
(0.2732134465 0.05055446432 -0.2354881099)
(0.2781624575 0.01681549495 -0.2389688832)
(0.2781624736 -0.01681542707 -0.238968879)
(0.2732134869 -0.05055441696 -0.2354881036)
(0.2614403477 -0.08813659088 -0.2265131301)
(0.2407398528 -0.1212684902 -0.2123002118)
(0.2113735078 -0.1521383603 -0.180351761)
(0.1542891055 -0.1720895166 -0.1720894859)
(0.4637521142 0.3265594008 -0.05734019515)
(0.4828111604 0.2611033115 -0.0661088441)
(0.5430827387 0.1442622707 -0.06380514269)
(0.5584037823 0.09287082136 -0.05396563456)
(0.5785178316 0.0577902685 -0.05779024603)
(0.5842819344 0.02026086393 -0.0596086451)
(0.5842819116 -0.02026085241 -0.05960863671)
(0.5785177607 -0.05779024416 -0.05779022327)
(0.5584037228 -0.09287078048 -0.05396559297)
(0.5430827496 -0.1442621798 -0.06380507649)
(0.4828112602 -0.261103217 -0.0661088112)
(0.4637522649 -0.3265593545 -0.05734023369)
(0.4428526307 0.3141175707 -0.09917996549)
(0.4703451807 0.2513045184 -0.1143747586)
(0.5289890996 0.1407131328 -0.1047888831)
(0.5469402875 0.0925891086 -0.09258906123)
(0.5584038223 0.05396566903 -0.09287079712)
(0.565807064 0.01884476611 -0.09515915881)
(0.5658070565 -0.01884473131 -0.09515914464)
(0.5584037897 -0.05396563004 -0.09287077561)
(0.5469402777 -0.09258905882 -0.09258902735)
(0.5289891838 -0.1407130484 -0.1047888416)
(0.4703453246 -0.251304442 -0.1143747265)
(0.4428528061 -0.3141175535 -0.09917995729)
(0.393386052 0.3023854931 -0.1372285803)
(0.4417044771 0.2433348185 -0.1658822311)
(0.5006470214 0.1496793538 -0.1496792804)
(0.5289891382 0.104788979 -0.1407130835)
(0.5430828174 0.06380523865 -0.1442622396)
(0.549832626 0.02189845404 -0.1469175361)
(0.5498326388 -0.02189834657 -0.1469175319)
(0.5430828597 -0.06380515171 -0.1442622315)
(0.5289892249 -0.1047889159 -0.1407130783)
(0.500647162 -0.1496793076 -0.1496792771)
(0.4417046252 -0.2433348058 -0.1658822295)
(0.3933862079 -0.3023855139 -0.1372285835)
(0.3103711691 0.2848134371 -0.209161691)
(0.3872572419 0.2374548972 -0.2374548987)
(0.4417045062 0.1658822712 -0.2433348044)
(0.470345242 0.1143748336 -0.2513045186)
(0.4828112634 0.06610894243 -0.2611033249)
(0.4895200611 0.02153204245 -0.2634156109)
(0.4895200802 -0.02153193491 -0.2634156071)
(0.4828113184 -0.06610887725 -0.2611033208)
(0.4703453311 -0.1143748203 -0.2513045206)
(0.4417046085 -0.1658822999 -0.2433348182)
(0.3872573388 -0.237454948 -0.2374549125)
(0.3103712562 -0.2848134913 -0.2091616925)
(0.1845472879 0.2644865306 -0.2644865514)
(0.3103711933 0.2091616547 -0.2848134577)
(0.3933861002 0.1372285622 -0.3023855173)
(0.442852701 0.09917995113 -0.3141176144)
(0.4637522076 0.05734020031 -0.3265594594)
(0.4706101364 0.0191468803 -0.3324091397)
(0.4706101531 -0.01914690922 -0.3324091204)
(0.4637522446 -0.0573402318 -0.3265594191)
(0.4428527464 -0.09917998701 -0.3141175802)
(0.3933861295 -0.1372286152 -0.3023855135)
(0.3103712086 -0.2091617268 -0.2848134773)
(0.1845472992 -0.2644865994 -0.2644865792)
(0.5185465404 0.649010274 -0.06170246094)
(0.8131243438 0.4448606991 -0.07429164174)
(0.7660953231 0.3155169911 -0.09177129755)
(0.7257882037 0.1697533969 -0.09888998005)
(0.7255549111 0.09757664266 -0.09757659881)
(0.7308546358 0.03193301523 -0.0957831765)
(0.7308545855 -0.03193292237 -0.09578315645)
(0.7255548722 -0.09757654337 -0.09757654281)
(0.7257882158 -0.1697532852 -0.09888991061)
(0.7660954333 -0.3155168591 -0.09177127279)
(0.8131245458 -0.4448606436 -0.07429168495)
(0.5185467065 -0.6490103005 -0.06170254323)
(0.5201859087 0.634669343 -0.1115905815)
(0.8101239824 0.4386069338 -0.1366223049)
(0.7589542909 0.3086078757 -0.1684300676)
(0.7227104983 0.1716180336 -0.1716179601)
(0.7257882518 0.09889006855 -0.1697533531)
(0.7318892706 0.03198154461 -0.169213705)
(0.7318892747 -0.03198143735 -0.1692137026)
(0.725788314 -0.09888996173 -0.1697533219)
(0.7227106293 -0.1716179282 -0.1716179286)
(0.7589544582 -0.3086077868 -0.1684300538)
(0.8101242024 -0.4386069058 -0.1366223068)
(0.520186073 -0.634669389 -0.1115906277)
(0.5201716149 0.6112803386 -0.1685363575)
(0.7823170748 0.4396283062 -0.2172748875)
(0.7627440956 0.2967376101 -0.2967376047)
(0.7589543424 0.1684301168 -0.3086078524)
(0.7660954465 0.09177137254 -0.3155169855)
(0.77183105 0.02888497543 -0.3201698567)
(0.771831086 -0.02888491203 -0.320169848)
(0.7660955525 -0.09177133647 -0.3155169553)
(0.7589545074 -0.1684301028 -0.308607835)
(0.7627442804 -0.2967376271 -0.2967376067)
(0.7823172759 -0.4396283403 -0.2172748937)
(0.5201717445 -0.6112804212 -0.1685363815)
(0.5099060976 0.559926353 -0.2857347161)
(0.7262296586 0.3797483672 -0.3797484212)
(0.7823171258 0.2172748354 -0.4396283415)
(0.8101240763 0.1366222554 -0.4386069727)
(0.8131244845 0.07429162458 -0.4448607471)
(0.8101531773 0.02411504842 -0.4530443417)
(0.8101531845 -0.02411510536 -0.4530443036)
(0.8131245105 -0.07429167727 -0.4448606656)
(0.810124128 -0.1366223096 -0.4386069092)
(0.7823172027 -0.2172749031 -0.4396283236)
(0.7262297668 -0.3797484399 -0.3797484336)
(0.5099061813 -0.5599264493 -0.2857347298)
(0.4030250622 0.4481071991 -0.4481072306)
(0.5099061155 0.2857346693 -0.5599264047)
(0.5201716558 0.1685362951 -0.6112804066)
(0.5201859674 0.1115905051 -0.6346694233)
(0.5185466337 0.06170240275 -0.6490103575)
(0.5186974531 0.02051502567 -0.6544480125)
(0.51869746 -0.02051515576 -0.654447971)
(0.5185466495 -0.06170250871 -0.6490102597)
(0.5201859885 -0.1115905827 -0.6346693165)
(0.5201716598 -0.1685363524 -0.6112803542)
(0.5099061295 -0.2857347076 -0.5599264086)
(0.4030250945 -0.4481072625 -0.4481072569)
(0.05330317099 0.01849386317 -0.008302826337)
(0.05152329232 0.01628171313 -0.01043675108)
(0.04959093607 0.01397509022 -0.01162974965)
(0.04732951876 0.01151144237 -0.01096020192)
(0.05413045597 0.02421441527 -0.01073588235)
(0.05179218413 0.02074560229 -0.01311967949)
(0.04905629709 0.01754113474 -0.01427686354)
(0.04608222048 0.0140237215 -0.0131878741)
(0.05369929072 0.03289277984 -0.01388283764)
(0.0505016434 0.02765256334 -0.0169496408)
(0.04672561525 0.02278810877 -0.01816433973)
(0.04307219977 0.01743797692 -0.01644577208)
(0.04882973559 0.04508665655 -0.0188842036)
(0.04560746077 0.03668415841 -0.02276305346)
(0.04127315037 0.02912526443 -0.023589451)
(0.03733606389 0.02152018698 -0.02066054882)
(0.03975342498 0.05738422426 -0.02729152085)
(0.03573878532 0.04557693673 -0.03131725916)
(0.03080951816 0.03502634107 -0.03034376493)
(0.0266280939 0.02533865716 -0.0251360151)
(0.01441022954 0.06280427347 -0.02890052914)
(0.01195786411 0.04774895317 -0.03195701811)
(0.009325155845 0.03479658594 -0.02935289551)
(0.007038015067 0.0232422157 -0.02260088982)
(0.05850257196 0.0236469388 -0.009970794724)
(0.05592752696 0.02127579089 -0.01252485745)
(0.05338973773 0.01816254656 -0.01451458775)
(0.04990434251 0.01513270779 -0.01371905977)
(0.06111815679 0.0320047234 -0.01354573118)
(0.05755468197 0.02815950854 -0.0165163065)
(0.05388062532 0.02372264891 -0.01861789197)
(0.04918902601 0.01962264432 -0.01735804269)
(0.06160194281 0.04424969927 -0.01783022003)
(0.05671039802 0.0384618378 -0.0215857331)
(0.05186844928 0.03171958311 -0.02413703327)
(0.04605924082 0.0255188585 -0.022202363)
(0.05621673813 0.06180011018 -0.02524040788)
(0.05098047421 0.05228539426 -0.02947425946)
(0.04588175656 0.04167485422 -0.03182272745)
(0.03964501242 0.03253168844 -0.02829358589)
(0.04651361136 0.08111665799 -0.03364277636)
(0.04060767984 0.06692036341 -0.03819480201)
(0.0355875999 0.05155189931 -0.04037184802)
(0.02906967653 0.0396252812 -0.03436155083)
(0.0176101922 0.08853238609 -0.03698518082)
(0.01439455478 0.0700912743 -0.0405236398)
(0.01206105115 0.05014200898 -0.04104178835)
(0.008910736761 0.03662280383 -0.03151984187)
(0.06578232654 0.03019862975 -0.01187008798)
(0.06252289547 0.02701208066 -0.01503189065)
(0.05923876286 0.02343243808 -0.01805017261)
(0.05490305154 0.01915927671 -0.01709741047)
(0.07139170002 0.04106060959 -0.01669588775)
(0.06699973374 0.03561018484 -0.02041163854)
(0.06226101848 0.03059788629 -0.02353370143)
(0.05670736078 0.02487069656 -0.02186904824)
(0.07477817281 0.05556450761 -0.02149222661)
(0.06881562535 0.04717401152 -0.02625309923)