/*--------------------------------*- C++ -*----------------------------------*\
  =========                 |
  \\      /  F ield         | OpenFOAM: The Open Source CFD Toolbox
   \\    /   O peration     | Website:  https://openfoam.org
    \\  /    A nd           | Version:  7
     \\/     M anipulation  |
\*---------------------------------------------------------------------------*/
FoamFile
{
    version     2.0;
    format      ascii;
    class       volScalarField;
    location    "0.003";
    object      Uz;
}
// * * * * * * * * * * * * * * * * * * * * * * * * * * * * * * * * * * * * * //

dimensions      [0 1 -1 0 0 0 0];

internalField   nonuniform List<scalar> 
5000
(
0
0
0
0
0
-7.9996627e-22
-1.710405e-36
2.5384419e-21
8.5941395e-22
-1.7722961e-21
-1.7909619e-21
8.8492008e-22
-7.4850234e-36
-7.7597028e-36
1.7712989e-21
-1.7748129e-21
-3.9555772e-52
-7.8055096e-36
-8.8525399e-22
1.7691948e-21
8.8392833e-22
0
0
-8.8179195e-22
7.5123089e-36
-7.2557199e-36
-8.7953623e-22
8.7875301e-22
8.7795708e-22
-8.7715007e-22
1.5317706e-35
-7.464959e-36
-8.7465388e-22
8.7379865e-22
8.7293889e-22
0
0
-8.7034827e-22
-8.694864e-22
8.6863028e-22
-1.4551719e-35
-8.6695469e-22
8.6614202e-22
-1.4633762e-35
-8.6455932e-22
8.6378661e-22
-2.9679425e-35
2.9530388e-35
-2.9626356e-35
1.4677468e-35
8.5989616e-22
0
0
0
0
0
0
0
0
0
0
0
0
-8.3328048e-22
-8.2978866e-22
8.2511408e-22
-1.4191687e-35
2.6682772e-52
8.3085448e-22
0
0
-8.2294785e-22
-8.2201238e-22
0
8.2370045e-22
2.8321697e-35
-8.1108734e-22
-8.074211e-22
8.0888017e-22
1.6224504e-21
-1.6258261e-21
4.5957241e-37
2.4057964e-21
-1.6023378e-21
-8.3902708e-35
1.6281634e-21
-2.4334137e-21
8.0482788e-22
8.0898233e-22
-8.0715621e-22
7.9747245e-22
7.982947e-22
2.8063449e-35
-1.6053319e-21
-5.5112629e-35
-8.0117404e-22
-7.9958303e-22
-2.7710921e-35
5.500681e-35
1.5955357e-21
7.943905e-22
-7.8774757e-22
1.1260764e-37
7.9058975e-22
0
-7.8883335e-22
-2.7399824e-35
7.8057818e-22
-7.8517318e-22
-7.8350226e-22
1.546478e-21
7.7384781e-22
-2.3458563e-21
-7.7889983e-22
2.3051181e-21
-7.6901313e-22
-7.7711601e-22
-4.3995808e-37
-7.6332346e-22
2.2923901e-21
-5.3986251e-35
-1.5439877e-21
1.5369318e-21
7.6640852e-22
-7.6256597e-22
7.5777813e-22
-7.5703657e-22
-1.5261079e-21
7.6067855e-22
2.5901081e-35
7.5061892e-22
1.5183226e-21
-7.5600987e-22
-7.4929921e-22
-7.540913e-22
-2.6297829e-35
-2.608723e-35
2.6130071e-35
1.4951296e-21
7.5025644e-22
-7.4792901e-22
-1.4757489e-21
-7.3846279e-22
-7.4740823e-22
5.1652627e-35
1.4749111e-21
-2.1051188e-37
2.1024438e-37
-9.8715414e-52
7.4231963e-22
-5.1414705e-35
1.0241444e-34
7.4086564e-22
-7.4034962e-22
7.3041597e-22
2.5373475e-35
-7.4179481e-22
7.400748e-22
-1.0435582e-37
-7.4066597e-22
0
7.3520987e-22
5.133352e-35
-1.4841892e-21
7.3275203e-22
-2.0885257e-37
-7.4588102e-22
7.4536298e-22
-7.3599277e-22
7.3841877e-22
-3.1250288e-34
-2.0806407e-34
7.4108814e-22
-1.4876984e-21
0
-5.2436222e-35
-1.5645723e-34
7.6008729e-22
7.617041e-22
5.2250195e-35
-7.6643062e-22
7.6835437e-22
5.2626047e-35
3.2978306e-37
1.0801316e-34
-1.5711894e-21
7.9510635e-22
7.9425446e-22
-5.4482835e-35
5.4418741e-35
-1.6272614e-34
5.4351917e-35
-8.0052678e-22
0
0
0
0
-8.0935142e-22
1.7070457e-34
8.2181658e-22
8.1946445e-22
-8.2903042e-22
-8.3239434e-22
1.6513187e-21
5.7463937e-35
-1.7528881e-34
-8.4630481e-22
-8.4381281e-22
8.5350378e-22
0
8.5446074e-22
5.9803826e-35
-8.6755037e-22
-8.6081786e-22
1.2053525e-34
8.7953005e-22
-1.7633101e-21
8.79364e-22
8.8919337e-22
-8.9207088e-22
8.8944549e-22
0
0
0
9.0993537e-22
-9.1661889e-22
-1.8338219e-21
9.1804117e-22
-6.388123e-35
9.2010973e-22
9.2472688e-22
-1.8726996e-21
2.6785431e-37
-2.6792383e-37
9.4387706e-22
9.455051e-22
-1.8945565e-21
1.3457068e-37
-1.9857738e-34
9.6730543e-22
-5.3885291e-34
-1.3361637e-34
9.6846079e-22
-9.8316634e-22
0
-9.9031992e-22
9.9205613e-22
9.9446024e-22
-9.9713675e-22
0
-1.0031991e-21
1.0172612e-21
1.0202942e-21
-3.536328e-34
-2.0584934e-21
-2.0669823e-21
3.0825468e-21
2.0663097e-21
0
-2.1021686e-21
-1.0493295e-21
1.0596081e-21
1.0671037e-21
1.068472e-21
-2.1412078e-21
-2.1453606e-21
1.0743351e-21
2.1589925e-21
3.029304e-34
-2.191216e-21
1.0894162e-21
-1.5187513e-34
-1.1099797e-21
2.2252381e-21
-1.110609e-21
1.5615234e-34
1.1250124e-21
-1.1231171e-21
1.1336276e-21
-2.2745305e-21
4.7368425e-34
2.2912233e-21
-2.2969052e-21
-7.9293498e-35
1.1563138e-21
0
0
1.1655349e-21
-1.1645101e-21
-2.3451189e-21
1.1851759e-21
-3.3733515e-37
1.1877985e-21
1.1890588e-21
-1.188127e-21
0
-1.1979332e-21
-1.195188e-21
0
2.4222296e-21
1.2122994e-21
-2.4289264e-21
8.4188692e-35
-3.4687665e-37
1.2265942e-21
1.225621e-21
-1.2164965e-21
1.2185796e-21
-1.2320598e-21
7.01039e-37
2.4585188e-21
-1.2382094e-21
-1.2403217e-21
-1.2315419e-21
-1.7128418e-34
1.2481751e-21
0
0
-1.2523758e-21
1.7404864e-34
-3.46616e-34
-1.7473878e-34
1.2628763e-21
-1.2622156e-21
1.7936922e-37
1.2605601e-21
0
0
0
0
0
0
0
-1.274336e-21
0
1.2671398e-21
0
-1.2794439e-21
-3.5602271e-34
1.2828676e-21
0
0
-1.2857191e-21
-1.7830936e-34
1.2812494e-21
0
0
-1.2867197e-21
-1.2852005e-21
1.2787885e-21
1.2793994e-21
0
-1.2897492e-21
1.8208779e-37
1.2835879e-21
-1.2827724e-21
-1.2810101e-21
1.2911319e-21
1.291579e-21
0
-1.2918472e-21
-1.292087e-21
1.2804793e-21
1.2816826e-21
0
-1.2920378e-21
-1.2848785e-21
1.2918808e-21
1.2912845e-21
0
0
0
0
0
0
0
0
-1.2890572e-21
-4.874135e-51
1.2872722e-21
0
0
0
-1.2848215e-21
-1.779473e-34
1.269703e-21
-1.2700281e-21
1.7794608e-34
-1.8178247e-37
-1.7648069e-34
1.2773283e-21
-1.2799797e-21
1.2765374e-21
-7.0751487e-34
-1.2628823e-21
1.253577e-21
0
0
-1.2694056e-21
-1.759678e-34
1.2590675e-21
-1.2652704e-21
-1.2636278e-21
0
1.2614266e-21
1.2597529e-21
-1.2512983e-21
-3.4898958e-34
2.8750957e-51
-1.7238285e-34
1.2412523e-21
-1.2531373e-21
-1.236946e-50
-1.7238584e-34
-1.2477383e-21
0
0
1.2469939e-21
1.764941e-37
-5.1755536e-34
1.2465517e-21
0
0
-1.2460054e-21
3.4553146e-34
1.2461615e-21
0
0
0
-1.2570108e-21
1.7905947e-37
1.2625702e-21
-1.2646025e-21
1.2660605e-21
-3.5223626e-34
-2.5361539e-21
1.268818e-21
5.2878781e-34
1.7635244e-34
-1.764421e-34
-1.2712879e-21
0
0
1.2709576e-21
1.7643926e-34
-3.526563e-34
-5.4460036e-54
-1.2709074e-21
1.2713523e-21
1.271975e-21
0
-1.273241e-21
-1.768701e-34
1.274917e-21
0
0
-1.2784975e-21
3.6348137e-37
-3.2940763e-53
-1.2802205e-21
1.2812071e-21
-1.7761781e-34
1.7802001e-34
-3.5584036e-34
-1.281943e-21
1.2817341e-21
-3.558408e-34
3.5597468e-34
-3.5599304e-34
-1.2816037e-21
1.2820063e-21
-3.5618378e-34
1.7855777e-34
0
-1.2840935e-21
1.285246e-21
-1.7878235e-34
1.8334238e-37
-1.7926972e-34
1.7952598e-34
1.2931173e-21
-1.2957419e-21
-1.2994283e-21
1.302351e-21
1.3034466e-21
0
-1.306462e-21
-1.3089507e-21
0
1.3129609e-21
-1.8255929e-34
1.8714465e-37
1.8368937e-34
-1.3365633e-21
1.3403427e-21
1.8524617e-34
-3.7094437e-34
-1.341537e-21
-1.3459589e-21
2.7004182e-21
-1.9172503e-37
1.8642321e-34
1.349164e-21
-1.3552686e-21
1.8814583e-34
1.3602284e-21
0
0
0
-1.3774549e-21
-1.3775701e-21
1.3825478e-21
1.3877813e-21
0
-1.3878166e-21
-1.3916131e-21
1.3988866e-21
1.406009e-21
0
-1.4082107e-21
-1.4093682e-21
1.4168754e-21
3.9547755e-34
-1.4288533e-21
0
0
0
0
1.4337483e-21
-3.9935306e-34
-1.4455643e-21
1.4553586e-21
2.0290313e-34
-2.0240232e-34
-6.1402579e-52
1.4685221e-21
1.4778284e-21
-2.9794181e-21
-2.0790446e-34
2.0769022e-34
-1.4959704e-21
0
1.4795426e-21
1.4787604e-21
-1.482465e-21
-4.1214633e-34
1.49875e-21
0
0
-1.5132687e-21
2.1100238e-34
1.5328417e-21
0
-1.5347317e-21
2.1773498e-37
-4.2600357e-34
-2.127936e-34
1.5352455e-21
-1.5364776e-21
2.1858533e-37
-4.2781566e-34
-1.5448179e-21
1.5509933e-21
4.3426588e-34
2.2373357e-37
-2.1833478e-34
-1.5733616e-21
1.5706253e-21
0
-8.685238e-34
-2.1849896e-34
-6.5966739e-34
-2.2766497e-37
-1.6112255e-21
1.6055215e-21
-1.3835581e-51
-2.2314966e-34
4.4634195e-34
-2.2337059e-34
3.221043e-21
-1.6129302e-21
-1.6168293e-21
-2.2544268e-34
2.2738488e-34
3.293135e-21
-1.6422612e-21
-1.6398512e-21
2.4918686e-52
0
2.0213861e-52
-1.6357102e-21
1.6416501e-21
-2.7492017e-52
-2.3010638e-34
-2.3535143e-37
-1.6465089e-21
3.3047796e-21
4.6252821e-34
-1.672991e-21
2.3215799e-34
-2.3208228e-34
1.6720306e-21
-1.6685355e-21
3.4049669e-51
-7.045632e-34
4.7225429e-34
-4.7184814e-34
-4.7200322e-34
8.7969718e-53
0
1.7038425e-21
0
0
-1.7302244e-21
-4.7925049e-34
1.7223812e-21
0
0
-3.4436673e-21
-1.4333688e-33
3.442506e-21
-1.7206027e-21
2.4513968e-37
-2.4048783e-34
-1.7382287e-21
0
0
0
-1.7634078e-21
-4.8675824e-34
1.7515509e-21
0
0
-1.751527e-21
2.4892891e-37
1.7470399e-21
0
0
-1.7766812e-21
-4.9293606e-34
-4.9309107e-34
4.9413364e-34
1.7835226e-21
-1.7823352e-21
4.9252932e-34
-4.9185233e-34
4.9205984e-34
1.7727708e-21
0
0
-1.791005e-21
4.324164e-51
1.7991143e-21
0
0
-1.7824818e-21
6.7881274e-51
1.7888462e-21
0
0
-1.7878473e-21
1.8632474e-50
1.8183367e-21
0
0
-1.8220793e-21
2.5896592e-37
1.8264206e-21
-1.8378246e-21
5.1208356e-34
-5.1067278e-34
5.0993217e-34
1.8391652e-21
0
0
0
0
0
-1.8206689e-21
5.0593169e-34
1.8290485e-21
0
0
0
0
0
0
0
-1.880072e-21
1.0429157e-33
1.8683953e-21
0
0
0
0
0
0
0
-1.8666761e-21
5.174305e-34
1.853111e-21
0
0
-1.8579574e-21
5.1820369e-34
1.8679e-21
0
0
0
-1.9055753e-21
-5.2805752e-34
1.8915126e-21
0
0
0
0
0
0
0
-1.8927791e-21
2.7153197e-37
1.9109796e-21
0
0
0
0
0
0
0
-1.9280789e-21
-2.7366387e-37
1.9200711e-21
0
0
0
-1.9369487e-21
1.0819013e-33
1.9544619e-21
0
-1.9555605e-21
-5.4285803e-34
1.9494832e-21
0
0
-1.941126e-21
-1.9455553e-21
1.9508564e-21
1.9519031e-21
0
0
0
0
1.9816287e-21
-2.8130676e-37
-3.9716082e-21
-1.9888848e-21
3.9860336e-21
4.0044848e-21
-2.0050877e-21
-2.0021561e-21
0
0
0
0
-2.0022282e-21
-5.5718097e-34
1.9985922e-21
0
0
0
0
0
0
0
0
0
0
0
0
0
0
-2.0437777e-21
1.1353369e-33
2.0476015e-21
0
0
2.0605074e-21
-5.7236517e-34
2.9354958e-37
-2.0720858e-21
-2.0800152e-21
-1.1584721e-33
5.7997943e-34
2.0882437e-21
0
0
0
0
0
-2.0962554e-21
1.1619157e-33
2.0916271e-21
0
0
0
0
0
0
0
-2.1384537e-21
1.1881143e-33
2.1411752e-21
0
0
0
0
0
0
0
-2.167294e-21
1.8029925e-33
2.1593217e-21
0
0
0
0
0
0
0
0
-2.1947197e-21
3.1178995e-37
2.1933825e-21
0
0
0
0
-2.2179119e-21
2.2178699e-21
2.2168616e-21
-4.4351251e-21
-6.1654016e-34
2.225751e-21
0
0
0
0
-2.2749833e-21
6.3295082e-34
4.5568071e-21
-2.2750382e-21
-2.2719185e-21
2.2704239e-21
0
0
0
-2.2802713e-21
-6.3283276e-34
2.2838523e-21
2.2906191e-21
-2.2974942e-21
-2.2989866e-21
2.2999126e-21
0
0
-2.3119507e-21
-2.3065576e-21
2.3111829e-21
2.3171336e-21
2.3177541e-21
1.2898575e-33
-2.3320348e-21
0
0
0
-2.3551221e-21
-2.3451623e-21
2.3464822e-21
2.3508087e-21
2.3609363e-21
6.5794476e-34
-2.3710053e-21
0
0
0
-2.3707512e-21
6.6111682e-34
2.3912929e-21
0
0
0
0
0
0
0
-2.4240965e-21
6.7528587e-34
4.8651942e-21
6.7581379e-34
-2.4388541e-21
0
0
-2.4570418e-21
3.4915539e-37
-6.8225153e-34
6.8187104e-34
2.4603793e-21
2.4716659e-21
-6.9025347e-34
-2.4950546e-21
0
0
-2.5050138e-21
2.0948291e-33
6.9872726e-34
-3.5704385e-37
2.5167163e-21
-2.5210414e-21
-2.5210141e-21
5.0403276e-21
-1.3962862e-33
-2.5242922e-21
2.5393892e-21
0
-2.5531006e-21
-7.0969235e-34
2.5553829e-21
0
-2.5566222e-21
2.5703462e-21
-2.8653016e-33
-2.5841554e-21
2.5863898e-21
0
-2.6065808e-21
0
2.6038152e-21
0
-2.6182281e-21
2.6174459e-21
-1.4525157e-33
-2.6231178e-21
2.63191e-21
0
-2.6445481e-21
-7.3482781e-34
2.6527801e-21
0
-2.6768439e-21
2.6946226e-21
-7.6721912e-37
-2.6862868e-21
2.6796336e-21
0
-2.6857586e-21
-2.6935314e-21
2.7033265e-21
2.7073594e-21
-2.7103258e-21
2.720546e-21
2.7356477e-21
-2.7401326e-21
0
0
0
0
0
0
-2.7555438e-21
3.8394438e-52
5.5369775e-21
-2.7682317e-21
-2.7704538e-21
2.7772215e-21
0
0
-2.7973653e-21
-2.7962863e-21
2.7984092e-21
2.8050241e-21
0
-2.8226489e-21
-7.8508233e-34
2.8276778e-21
0
0
-2.8734465e-21
-2.8763356e-21
2.8773985e-21
2.8775291e-21
0
-2.8645156e-21
7.9631578e-34
2.8660114e-21
-2.866858e-21
-1.595622e-33
-4.0963323e-37
-2.8924597e-21
2.8963973e-21
2.8994689e-21
0
0
-2.9300399e-21
8.1078038e-34
2.9197681e-21
0
-2.9172876e-21
-2.9222757e-21
2.924298e-21
2.9344101e-21
0
0
0
0
0
0
-2.9655187e-21
8.2346426e-34
2.9616706e-21
0
0
0
0
0
0
-2.9948431e-21
-2.4877171e-52
2.9975588e-21
3.0101869e-21
8.402223e-34
-3.0317034e-21
0
0
0
0
-3.0249762e-21
-8.4095679e-34
3.0322126e-21
-3.0327771e-21
-3.0303145e-21
3.0413333e-21
-1.6935081e-33
-2.5380377e-33
-2.5371091e-33
8.482027e-34
-1.699558e-33
8.5224766e-34
3.081315e-21
0
-3.0974875e-21
2.5710094e-33
-4.3813996e-37
-3.0821603e-21
3.072197e-21
3.071565e-21
-3.0836166e-21
8.5901334e-34
-2.5822112e-33
-1.7235454e-33
-1.7225783e-33
8.6305319e-34
-1.7325382e-33
-3.1197542e-21
3.1129723e-21
3.1198219e-21
-3.1275481e-21
8.6675666e-34
-3.4678993e-33
-8.6811269e-34
8.7087325e-34
8.7418821e-34
8.7644101e-34
-3.1519035e-21
0
3.1865751e-21
-8.8454347e-34
-3.3394806e-51
3.1643029e-21
0
-3.1670532e-21
3.1714335e-21
3.1807957e-21
-3.1813213e-21
0
0
0
0
-3.204292e-21
8.9360172e-34
-1.7897431e-33
3.1999832e-21
3.1848946e-21
-3.2033201e-21
0
0
0
0
-3.2036634e-21
-4.5682601e-37
3.2179527e-21
0
0
0
0
0
0
0
-3.2638756e-21
-3.2637465e-21
3.2637524e-21
3.2520756e-21
0
0
0
0
0
0
-3.2834946e-21
-3.2821421e-21
3.281821e-21
3.2899915e-21
0
0
0
0
0
0
-3.3395084e-21
-3.3434118e-21
3.3199161e-21
3.3042827e-21
0
0
0
0
0
0
-3.3496805e-21
1.8508437e-33
3.3500764e-21
0
0
0
0
0
0
-3.3595796e-21
9.3778035e-34
3.3885415e-21
0
0
0
0
-3.4159218e-21
-4.8615014e-37
3.422223e-21
-3.4401655e-21
-4.1063711e-52
3.4398514e-21
-3.4423794e-21
1.9146632e-33
3.4327363e-21
-3.4387751e-21
-1.925622e-33
-1.927006e-33
-7.0926609e-51
-1.923861e-33
-9.645296e-34
3.4686193e-21
-3.4773035e-21
-3.5062707e-21
7.0248867e-21
-1.9321566e-33
-6.9299209e-21
0
3.493946e-21
-9.7130867e-34
-9.7951572e-34
-2.9472188e-33
-2.9254544e-33
-1.9401387e-33
2.9308095e-33
-1.9623403e-33
9.7966793e-34
3.5245263e-21
0
-3.5427686e-21
-5.0245684e-37
-2.9587557e-33
-2.9708109e-33
5.0590098e-37
1.9822796e-33
-9.9506114e-34
-3.5774692e-21
0
3.6190506e-21
-2.0024995e-33
-5.1274208e-37
3.6238833e-21
0
-3.5854473e-21
3.604759e-21
3.6224978e-21
-3.633058e-21
0
0
-3.6401579e-21
4.0597447e-33
-2.0363477e-33
2.0417013e-33
-1.0153367e-33
3.6399338e-21
3.6611058e-21
-3.6786992e-21
0
0
0
0
-3.6965069e-21
-1.0302485e-33
-4.1189484e-33
3.7326111e-21
3.7454718e-21
-3.7205735e-21
0
0
0
0
-3.769111e-21
-3.781657e-21
3.7611042e-21
3.7534968e-21
0
0
0
0
0
0
-3.7947033e-21
-3.8300955e-21
3.8553751e-21
3.8481141e-21
0
0
0
0
0
0
-3.8701977e-21
3.2481931e-33
7.8385777e-21
-3.9287078e-21
-1.1719123e-20
-3.8741959e-21
0
7.7463759e-21
-4.325207e-33
-1.3110011e-32
-3.9698372e-21
-7.9663133e-21
7.9566546e-21
-3.9509481e-21
-3.926412e-21
3.9238118e-21
-3.9443361e-21
5.6615487e-37
4.014608e-21
4.0273972e-21
-4.0242498e-21
-3.9983863e-21
3.9751316e-21
-3.9747586e-21
-5.6818374e-37
4.0477727e-21
0
0
0
8.1150866e-21
-4.0290366e-21
-8.0498749e-21
4.0313323e-21
-4.0375468e-21
-4.0588111e-21
8.216211e-21
-1.3298704e-50
-4.1636083e-21
4.1307743e-21
8.1913912e-21
4.0851232e-21
-1.2270223e-20
4.0961811e-21
-2.6115337e-50
-1.2364607e-20
8.324146e-21
4.1813673e-21
4.1598834e-21
8.2775716e-21
-8.277037e-21
-4.1447234e-21
-4.1543019e-21
4.1766613e-21
4.2046379e-21
-1.2634771e-20
4.1974016e-21
4.1885425e-21
-4.1922938e-21
-4.1994466e-21
-5.9879034e-37
1.2721735e-20
-4.2599617e-21
7.0837294e-33
-7.0691315e-33
-1.2740384e-20
4.2548969e-21
4.2702485e-21
8.5972711e-21
-4.3186716e-21
-8.6266524e-21
8.6068381e-21
-4.3063065e-21
4.3183334e-21
4.3411772e-21
-1.3101656e-20
4.3745663e-21
4.3656851e-21
-8.7246897e-21
-4.3686782e-21
4.3845557e-21
1.3236631e-20
-4.4309936e-21
-1.7707099e-20
2.4532591e-33
8.848136e-21
4.4399412e-21
0
8.9858054e-21
9.9691397e-33
-1.3439855e-20
4.4816452e-21
-9.970612e-33
4.5044264e-21
4.5291114e-21
-9.1060875e-21
0
0
0
-4.5593225e-21
2.5378352e-33
9.1741001e-21
-4.6030297e-21
-9.2210044e-21
1.3840075e-20
-1.5386337e-32
-9.2627178e-21
4.6460979e-21
0
0
0
9.3681945e-21
-4.6981705e-21
-9.417207e-21
1.4146382e-20
-1.3425062e-36
-9.4705439e-21
0
0
-4.7847159e-21
2.6567719e-33
9.5769942e-21
-4.7976895e-21
-9.6197255e-21
1.4479869e-20
-8.0648615e-33
-9.7062003e-21
4.8566997e-21
-4.8637645e-21
9.7512411e-21
4.8880895e-21
-1.6312217e-32
-4.9073872e-21
-9.8352349e-21
1.4797363e-20
-2.8153045e-36
-4.9679259e-21
2.7598975e-33
-4.9754945e-21
-4.984423e-21
2.7736894e-33
1.5045858e-20
-1.4314162e-36
-1.514342e-20
1.0099082e-20
-1.9177896e-50
-1.0126933e-20
5.0760697e-21
-5.0931326e-21
1.0222663e-20
5.1218293e-21
-1.1383037e-32
-5.1329918e-21
-1.028714e-20
-5.1570297e-21
-5.174563e-21
1.5570282e-20
0
-5.2036202e-21
-2.8937389e-33
2.9009887e-33
-2.9099787e-33
5.2618988e-21
-5.8526638e-33
5.2765968e-21
-1.7599175e-32
-1.5886329e-20
1.062024e-20
1.5988862e-20
5.3454703e-21
-1.605566e-20
-1.0714053e-20
1.6100635e-20
-5.3795943e-21
-1.6188563e-20
0
0
5.4335875e-21
5.4403712e-21
0
-5.4640685e-21
-5.4806288e-21
1.0998099e-20
-1.2237345e-32
-1.6553468e-20
6.1340798e-33
5.5366157e-21
5.5497689e-21
5.5662307e-21
-5.5837065e-21
-5.5956318e-21
5.6027981e-21
1.6834994e-20
-5.6233687e-21
-2.2546412e-20
5.6528211e-21
1.134013e-20
5.6823933e-21
0
-5.6996336e-21
0
-5.7248383e-21
5.7403732e-21
-1.278187e-32
5.7696076e-21
-1.9246253e-32
-1.7367102e-20
5.8014227e-21
5.8153049e-21
-5.8303319e-21
-5.8442925e-21
5.8558146e-21
1.7601065e-20
-5.8802061e-21
-2.3582658e-20
9.8446065e-33
5.9229489e-21
1.1867473e-20
5.9460333e-21
-1.1920127e-20
-3.3174591e-33
-8.51784e-37
6.0071346e-21
-1.3359213e-32
-6.027773e-21
1.8122448e-20
-6.7222772e-33
-1.2144648e-20
0
0
-6.1129296e-21
3.3995681e-33
1.2276115e-20
-6.1526049e-21
-1.233807e-20
-6.1861824e-21
6.8817012e-33
1.8635865e-20
6.2241282e-21
-6.2380195e-21
1.2505437e-20
-3.5632892e-36
-2.0935463e-32
-6.3009887e-21
-1.2627858e-20
1.8980272e-20
-7.0413153e-33
-1.2712521e-20
0
0
1.2811842e-20
-1.4252739e-32
-7.1394663e-33
-1.8325046e-36
-1.9390388e-20
-1.2962088e-20
1.0824751e-32
1.9545792e-20
6.5286621e-21
-6.5425793e-21
1.3116125e-20
7.2966321e-33
-2.1951128e-32
-6.6097329e-21
-1.3253482e-20
1.9925147e-20
-6.656606e-21
-6.6727706e-21
6.6896279e-21
-6.7066671e-21
1.3447363e-20
-7.4831879e-33
-6.7583643e-21
-9.6304356e-37
-1.3589411e-20
1.3622633e-20
-1.1367968e-32
-1.3690332e-20
6.863187e-21
0
-6.9023015e-21
-3.8406855e-33
2.081302e-20
-6.954431e-21
-1.3944846e-20
-6.9913897e-21
-7.0116448e-21
7.0324232e-21
7.051516e-21
7.0689012e-21
-7.0867173e-21
3.9442128e-33
-3.9541947e-33
7.1463341e-21
-7.959053e-33
7.1874398e-21
-2.400003e-32
-2.1676232e-20
1.4491313e-20
-8.3513847e-51
-7.2885582e-21
-8.1138421e-33
4.0696692e-33
2.2050236e-20
-7.3711982e-21
-2.2180188e-20
0
0
7.4598398e-21
7.4805944e-21
1.5004778e-20
-7.5250298e-21
-1.5097376e-20
1.5146121e-20
-7.5964111e-21
-2.2854701e-20
7.6402003e-21
7.6632861e-21
7.6871036e-21
7.7116885e-21
-1.5473948e-20
-7.761834e-21
7.7855916e-21
2.342732e-20
-7.8333593e-21
1.3168664e-49
-1.3126595e-32
-1.5821015e-20
1.587375e-20
1.5924894e-20
-7.9876268e-21
-1.602666e-20
1.6079677e-20
8.0671945e-21
-2.428596e-20
-2.4369976e-20
8.1503911e-21
1.6354174e-20
8.2044177e-21
-4.5696772e-33
-1.6522732e-20
-8.2910763e-21
8.3210424e-21
1.6700429e-20
-1.1906852e-36
-1.6815275e-20
1.6875043e-20
-1.4103701e-32
-1.699828e-20
8.5304787e-21
1.7123706e-20
1.7186675e-20
0
-8.6572039e-21
-2.6068382e-20
-8.7219122e-21
8.7547455e-21
0
0
0
0
-8.9266083e-21
4.9740599e-33
2.698811e-20
-9.0319811e-21
-2.720657e-20
-9.106197e-21
1.5228298e-32
1.8360248e-20
9.2172688e-21
-9.2552986e-21
1.858877e-20
9.3343054e-21
-3.1223476e-32
-9.413896e-21
-1.890677e-20
2.8480712e-20
-2.709941e-36
-9.5770071e-21
1.3670998e-36
-9.6633196e-21
-9.7060704e-21
1.0822597e-32
2.9376558e-20
-2.795745e-36
-2.9646096e-20
-1.9856468e-20
5.5340254e-33
2.0043587e-20
1.0068698e-20
-1.0115984e-20
2.0328015e-20
1.0212936e-20
-3.4176448e-32
-1.0312986e-20
-2.0727556e-20
3.1245307e-20
-1.1622984e-32
-1.0519593e-20
-1.05727e-20
-1.0626375e-20
-5.925562e-33
5.9576332e-33
2.1583227e-20
6.0200859e-33
-2.1811434e-20
2.192741e-20
-5.5066108e-32
-3.3242978e-20
2.2281296e-20
-1.2438421e-32
-2.2526488e-20
1.1325966e-20
1.1389197e-20
2.2905572e-20
-1.1516892e-20
-3.4745595e-20
0
0
0
3.5557599e-20
3.5765797e-20
-3.5975769e-20
-3.6188317e-20
2.4269449e-20
-3.4696808e-36
1.2282051e-20
-4.1161919e-32
-3.7298953e-20
3.7528727e-20
-6.2891229e-32
-2.5330522e-20
-7.0724074e-33
7.1207055e-33
2.5813314e-20
-1.2989307e-20
1.3072914e-20
-4.3827721e-32
-3.9728595e-20
3.9987807e-20
1.3416707e-20
-2.9985686e-32
2.7189652e-20
-2.7371153e-20
-1.3777525e-20
-1.3870669e-20
-4.189472e-20
1.560884e-32
1.4156186e-20
4.2759946e-20
-9.559532e-32
-4.3354263e-20
0
1.4654745e-20
2.9516193e-20
-1.4862502e-20
1.4968e-20
-5.0205581e-32
-3.0365322e-20
4.5875897e-20
-3.4194031e-32
-1.7232234e-32
-1.7349016e-32
-1.7475992e-32
1.5857551e-20
-4.7922881e-20
-4.8276846e-20
1.6211666e-20
3.2665096e-20
0
-1.6578552e-20
1.8538546e-32
-3.7366293e-32
1.8824397e-32
1.7085268e-20
-1.7215507e-20
-1.7347307e-20
5.2441619e-20
-7.0271173e-49
-2.956419e-32
1.7887851e-20
-2.0001702e-32
3.6332633e-20
-3.6615761e-20
-3.6901897e-20
-1.8595446e-20
2.0803073e-32
1.8888643e-20
0
0
0
3.8985224e-20
-1.9647387e-20
-3.9607358e-20
5.9884526e-20
-2.0120884e-20
-6.0845339e-20
6.1332461e-20
-6.863407e-32
-4.1546828e-20
6.2821309e-20
4.2218187e-20
0
-4.2902236e-20
-7.2013019e-32
-2.1799281e-20
-4.3951547e-20
2.2153934e-20
0
4.5030272e-20
6.451179e-36
2.5403117e-32
-2.3068688e-20
-6.9769647e-20
7.0338514e-20
-3.9381973e-32
-7.1491249e-20
7.2074611e-20
-1.2102059e-31
-4.8837208e-20
2.4618098e-20
-2.4819401e-20
5.0044896e-20
2.5227159e-20
-1.1294019e-31
-2.564149e-20
-5.1702377e-20
-2.6062641e-20
-2.6275871e-20
5.2981747e-20
2.6707644e-20
0
-2.7146503e-20
1.5195519e-32
-4.3256941e-50
2.7817842e-20
-7.9709111e-36
2.8274329e-20
-5.3632527e-49
-8.6215041e-20
8.691926e-20
8.7628727e-20
-5.8895638e-20
-5.9375761e-20
0
6.0347589e-20
-3.0419697e-20
-9.2002493e-20
9.2751404e-20
-5.1911671e-32
-6.2843829e-20
3.1677172e-20
0
-3.2193716e-20
-3.2455004e-20
3.2718255e-20
-5.4924961e-32
6.6501192e-20
1.905376e-35
-1.0137268e-19
0
1.0301845e-19
6.9233862e-20
-1.0468939e-19
-7.035615e-20
1.0638531e-19
3.5747571e-20
-1.4414212e-19
-3.6325688e-20
7.3236153e-20
7.38254e-20
-4.1308258e-32
-3.7508635e-20
-3.7809963e-20
-3.8113568e-20
3.8419493e-20
-4.2993731e-32
7.8076974e-20
-1.3105877e-31
-1.1900139e-19
0
0
8.1256799e-20
-9.0941657e-32
-4.1281922e-20
1.2483784e-19
-4.1945955e-20
-7.0397087e-32
-1.4194625e-31
-1.2888632e-19
4.330634e-20
-2.4224766e-32
4.8850486e-32
4.435636e-20
-4.4712274e-20
6.4050027e-36
-2.5218872e-32
5.0836566e-32
4.616661e-20
0
-4.6913066e-20
9.4582633e-20
4.7672984e-20
-9.611627e-20
0
4.8839218e-20
-4.923532e-20
-9.9270463e-20
1.5011707e-19
-1.6803941e-31
-1.6938213e-31
5.1274453e-20
-1.5508382e-19
7.4065727e-36
5.2548098e-20
5.2981636e-20
-5.3419833e-20
-5.3862794e-20
5.4310647e-20
0
-5.5221583e-20
1.113699e-19
-9.3524783e-32
-5.6628176e-20
-1.2681407e-31
-1.2786064e-31
-1.650917e-35
-1.1716967e-19
1.7726884e-19
1.7880306e-19
0
-1.2128896e-19
-1.8353082e-19
-8.7704897e-36
6.2264395e-20
6.2819864e-20
-6.3383494e-20
-6.3955544e-20
6.453628e-20
0
1.3144981e-19
1.3266675e-19
-2.0085509e-19
-6.7580205e-20
6.8219243e-20
-1.9573792e-35
-6.9530309e-20
-1.4040612e-19
-7.0887802e-20
1.192256e-31
2.8917969e-19
-2.4318387e-31
-2.2126562e-19
7.4506435e-20
7.5272359e-20
7.6053482e-20
-7.6850336e-20
-7.7663482e-20
-7.8493505e-20
-2.255007e-35
8.0206594e-20
-8.1090906e-20
2.459838e-19
1.6583674e-19
-2.5158881e-19
8.4829052e-20
1.7163498e-19
-1.7365808e-19
8.7864528e-20
-8.8924808e-20
-1.8002157e-19
2.7337018e-19
-9.2263608e-20
3.1122565e-31
2.8389251e-19
-1.9171985e-19
-9.7120791e-20
-9.8414601e-20
-1.9948513e-19
1.0110593e-19
-5.7840466e-75
2.0788796e-19
1.0542132e-19
-1.18719e-31
-1.0849974e-19
-2.2020774e-19
2.2350678e-19
-1.1344994e-19
-3.4558557e-19
3.509726e-19
1.1883877e-19
1.0034129e-47
1.2269895e-19
-3.7414567e-19
-1.2679172e-19
1.2893057e-19
2.6226799e-19
-1.334043e-19
1.3574387e-19
-4.6011983e-31
-2.8128175e-19
4.2961051e-19
1.6199391e-31
-6.5982816e-31
3.3606833e-31
-3.0855888e-19
3.1453941e-19
-1.603548e-19
-6.5415216e-19
1.6682282e-19
3.4042536e-19
0
3.5464525e-19
-4.0198718e-31
-1.0510295e-34
-2.0967709e-31
-1.9297485e-19
-1.9721079e-19
2.0158489e-19
2.0610195e-19
-4.2153389e-19
4.3116992e-19
-2.4485646e-31
-4.5140207e-19
4.6201998e-19
7.8763227e-31
-2.6883279e-31
-2.4801033e-19
-5.0811107e-19
2.6030068e-19
-2.6675246e-19
1.5176764e-31
2.8030378e-19
5.7483576e-19
-2.9476775e-19
-6.047226e-19
3.1020664e-19
-3.1831212e-19
5.441e-31
-3.3533803e-19
-7.6459408e-31
7.0702219e-19
7.2610341e-19
8.2786393e-31
-1.2759779e-30
1.3110174e-30
-4.0447938e-19
-4.1570656e-19
-4.2730465e-19
4.3928574e-19
0
0
-4.7765278e-19
2.7270519e-31
7.1819211e-35
5.7720703e-31
5.3496542e-19
0
-5.6652124e-19
-1.1661572e-18
6.0017758e-19
1.2356705e-18
1.2721385e-18
1.3097958e-18
-2.0230197e-18
-2.3127171e-30
2.1454252e-18
-1.4730834e-18
-1.5172709e-18
0
-8.0499154e-19
1.6585986e-18
8.5439157e-19
-1.7605853e-18
-9.0702758e-19
1.0375724e-30
2.8893068e-18
-9.9249582e-19
-3.0684923e-18
3.1624083e-18
1.0864417e-18
-3.3593344e-18
1.2811478e-30
1.1896705e-18
2.4525846e-18
1.4029579e-30
-2.6061181e-18
2.6865521e-18
-1.3847651e-18
-4.2826945e-18
0
1.5172561e-18
3.1284611e-18
-8.9561914e-31
1.6626538e-18
3.4283868e-18
-3.5346954e-18
-3.6443306e-18
0
-1.9369916e-18
-2.2170897e-30
-2.2861954e-30
-2.356857e-30
6.5667133e-18
4.5137025e-18
0
-4.7982618e-18
-5.4914227e-30
-2.5503554e-18
-7.8884719e-18
2.7110684e-18
-1.5511299e-30
4.0953495e-34
2.9711988e-18
6.1265998e-18
-3.1582317e-18
-6.5121575e-18
3.3569282e-18
0
7.1359919e-18
-3.6784019e-18
-1.1376557e-17
3.9094487e-18
4.030295e-18
8.3096638e-18
-4.28317e-18
-1.3246269e-17
4.5517081e-18
-5.2083284e-30
-9.6737229e-18
4.9859817e-18
5.1396374e-18
1.0595931e-17
1.6383324e-17
-1.1258418e-17
-1.1604836e-17
1.1961776e-17
6.8420881e-30
-1.2708501e-17
1.309895e-17
7.4942183e-30
-1.3915752e-17
0
1.4782868e-17
1.5236251e-17
0
-2.4277027e-17
-8.3402907e-18
-2.4430615e-33
-8.8589739e-18
-9.130172e-18
-1.0443406e-29
1.9394987e-17
1.998825e-17
-3.430288e-29
-2.1229316e-17
2.1878231e-17
3.7545627e-29
-2.323574e-17
0
0
0
0
2.699709e-17
1.5448281e-29
-2.8674619e-17
-1.4775401e-17
3.0453356e-17
-5.2269107e-29
-3.2341243e-17
3.3328378e-17
1.9069258e-29
-1.7696817e-17
3.6473668e-17
-6.2600965e-29
-3.8733445e-17
3.9915194e-17
4.1132977e-17
-4.2387924e-17
-4.368118e-17
0
0
0
0
-2.538234e-17
2.6156925e-17
2.6955186e-17
-3.0837641e-29
-3.3393215e-72
-2.9499427e-17
-6.079978e-17
-3.1327886e-17
6.4568514e-17
9.9809607e-17
-3.4285612e-17
-7.0664805e-17
1.0923355e-16
7.5045856e-17
-1.160059e-16
-7.9698658e-17
-4.1066065e-17
-4.6981549e-29
8.7224044e-17
0
-4.6315525e-17
4.7729314e-17
-1.0920809e-28
-1.4406157e-32
-1.7394751e-28
-5.3827343e-17
-5.5469176e-17
1.6246048e-32
1.1780671e-16
1.2139723e-16
-2.0829553e-28
-1.2890585e-16
0
0
0
-7.2661102e-17
-7.4868794e-17
7.71425e-17
7.9486558e-17
-8.1897673e-17
1.68752e-16
2.6078803e-16
0
-1.8453179e-16
-1.0549522e-28
-9.7919523e-17
-3.0261123e-16
1.0390688e-16
-1.7822875e-28
2.2048181e-16
-7.56373e-28
-2.3388386e-16
-6.6851125e-29
-1.7625531e-32
1.2772212e-16
-1.3151864e-16
2.7084108e-16
1.3943015e-16
-2.8709946e-16
2.9556315e-16
4.3237383e-32
-1.7388473e-28
-1.6117398e-16
-4.9763436e-16
3.4141219e-16
-4.8502182e-46
1.8074258e-16
-3.0971111e-28
-3.8260205e-16
1.9678131e-16
4.0479679e-16
-2.310237e-28
-6.4215252e-16
6.2553332e-32
2.2627341e-16
-2.3260283e-16
4.7815954e-16
2.457057e-16
-5.0496389e-16
5.1881941e-16
2.9576869e-28
-1.519453e-27
6.2423354e-28
-5.773091e-16
5.9270491e-16
-3.042057e-16
-6.2442851e-16
3.2037786e-16
-3.2869603e-16
6.7433606e-16
-5.7592228e-28
-1.0637082e-15
0
0
1.1453749e-15
3.9115611e-16
-8.0132293e-16
8.2060913e-16
2.3878892e-31
-1.9094155e-27
-4.8849302e-28
-9.0035804e-16
9.2090221e-16
9.4166894e-16
-4.813233e-16
-1.4757341e-15
-5.0259201e-16
5.1335827e-16
0
0
-5.4609466e-16
3.0924669e-28
1.7045984e-15
1.6464944e-31
-1.1808857e-15
-6.0159166e-16
6.8006518e-28
1.8716692e-15
1.4099297e-27
-1.2922262e-15
0
-6.6816693e-16
1.3581981e-15
6.8995095e-16
-1.5559875e-27
-7.113619e-16
-1.4437884e-15
7.3229267e-16
0
0
0
0
-7.8180061e-16
4.3912558e-28
2.4005641e-15
-8.0902446e-16
-2.4528142e-15
2.4777477e-15
8.339459e-16
-1.6833654e-15
-8.4911411e-16
-1.4256934e-27
2.5890411e-15
-4.9423133e-31
-2.916264e-27
-8.8130201e-16
-1.7733531e-15
-8.9167588e-16
-9.9476682e-28
9.0052147e-16
9.043541e-16
9.0778538e-16
9.1081159e-16
-2.0280908e-27
-1.8312673e-15
0
0
-9.1962841e-16
-1.5320815e-27
-1.307678e-31
1.3071783e-31
9.1908165e-16
1.8358381e-15
1.8327008e-15
-1.8287336e-15
-1.0129618e-27
-9.0922975e-16
-2.7183009e-15
0
0
8.9444303e-16
8.8986111e-16
0
-8.7967274e-16
4.8519044e-28
8.6822368e-16
-8.6204994e-16
1.7111654e-15
-2.8270628e-27
-2.525626e-15
8.3464592e-16
8.2716886e-16
1.6389577e-15
-8.1159421e-16
-2.4105214e-15
7.9522953e-16
-4.3684241e-28
1.5564223e-15
7.6947263e-16
-1.5211901e-15
1.5032285e-15
1.3412643e-44
-1.4667293e-15
0
0
1.4107757e-15
-7.7182707e-28
-2.2867107e-27
1.4061088e-44
-2.0025095e-15
-7.3056421e-28
6.4849271e-16
1.2780347e-15
1.2591105e-15
-1.2402319e-15
-1.3560074e-27
-6.0140353e-16
-1.9723637e-27
5.8289059e-16
-1.1474911e-15
0
-5.5568843e-16
6.0684782e-28
5.3796394e-16
1.058513e-15
5.7785218e-28
-1.0242997e-15
0
0
-4.8727878e-16
2.6602005e-28
1.4140235e-15
5.1458621e-28
-9.1165918e-16
0
4.4085032e-16
-4.3355973e-16
-4.2640087e-16
-4.1936148e-16
-4.1243256e-16
8.1126983e-16
1.1969596e-15
-3.924661e-16
-7.7209479e-16
1.1392138e-15
2.2278287e-45
-7.3499005e-16
0
0
0
0
6.7713885e-16
6.659404e-16
-3.2737863e-16
-9.6521321e-16
-3.509475e-28
3.0989113e-16
-6.0643069e-16
-5.8971266e-16
2.8301705e-16
1.0670065e-15
5.521438e-16
-8.8649772e-16
-5.8346459e-16
8.641175e-16
6.3150577e-28
-5.6197832e-16
0
0
0
5.3620748e-16
2.9432325e-28
-5.8229136e-28
2.5942261e-16
-7.7012646e-16
2.5407564e-16
2.5153035e-16
-7.4720069e-16
-4.9335994e-16
2.4437384e-16
4.8428225e-16
4.7996239e-16
-7.9244113e-28
2.6192857e-28
-6.6486531e-32
-4.6409835e-16
0
-2.2847641e-16
-2.2678683e-16
2.2515137e-16
2.2357534e-16
-2.2205961e-16
-2.2059391e-16
4.3836711e-16
2.1782833e-16
-2.1651749e-16
2.1525658e-16
-2.1404706e-16
-4.2575814e-16
0
0
6.2893755e-16
2.0864956e-16
-4.1539299e-16
-2.0677758e-16
-2.0589534e-16
4.101081e-16
-2.2685789e-28
-4.0693406e-16
0
2.0201588e-16
6.0399211e-16
4.4552197e-28