/*--------------------------------*- C++ -*----------------------------------*\
  =========                 |
  \\      /  F ield         | OpenFOAM: The Open Source CFD Toolbox
   \\    /   O peration     | Website:  https://openfoam.org
    \\  /    A nd           | Version:  7
     \\/     M anipulation  |
\*---------------------------------------------------------------------------*/
FoamFile
{
    version     2.0;
    format      ascii;
    class       volScalarField;
    location    "0.00143";
    object      T;
}
// * * * * * * * * * * * * * * * * * * * * * * * * * * * * * * * * * * * * * //

dimensions      [0 0 0 1 0 0 0];

internalField   nonuniform List<scalar> 
5000
(
291.22986
291.22925
291.22857
291.22763
291.22643
291.225
291.22332
291.22139
291.21922
291.2168
291.21414
291.21124
291.20809
291.2047
291.20106
291.19718
291.19306
291.1887
291.1841
291.17926
291.17418
291.16886
291.1633
291.1575
291.15147
291.1452
291.1387
291.13196
291.12498
291.11778
291.11034
291.10268
291.09478
291.08665
291.0783
291.06972
291.06091
291.05188
291.04263
291.03316
291.02346
291.01355
291.00341
290.99306
290.98249
290.97171
290.96072
290.94951
290.9381
290.92647
290.91464
290.9026
290.89036
290.87791
290.86526
290.85242
290.83937
290.82613
290.81269
290.79906
290.78523
290.77122
290.75702
290.74263
290.72805
290.71329
290.69835
290.68323
290.66793
290.65245
290.6368
290.62098
290.60498
290.58882
290.57248
290.55599
290.53932
290.5225
290.50551
290.48837
290.47107
290.45361
290.43601
290.41825
290.40034
290.38229
290.36409
290.34575
290.32726
290.30864
290.28988
290.27098
290.25195
290.23279
290.2135
290.19408
290.17454
290.15487
290.13508
290.11517
290.09514
290.07499
290.05474
290.03437
290.01388
289.9933
289.9726
289.9518
289.9309
289.9099
289.8888
289.8676
289.8463
289.82492
289.80344
289.78188
289.76023
289.73849
289.71667
289.69477
289.67278
289.65073
289.62859
289.60638
289.5841
289.56175
289.53933
289.51685
289.4943
289.47168
289.44901
289.42628
289.40349
289.38064
289.35774
289.33479
289.31179
289.28874
289.26564
289.2425
289.21932
289.19609
289.17283
289.14952
289.12618
289.10281
289.0794
289.05596
289.0325
289.009
288.98548
288.96194
288.93837
288.91478
288.89118
288.86755
288.84391
288.82025
288.79659
288.77291
288.74922
288.72552
288.70182
288.67811
288.6544
288.63069
288.60697
288.58326
288.55955
288.53585
288.51215
288.48847
288.46479
288.44112
288.41746
288.39382
288.37019
288.34658
288.32299
288.29941
288.27586
288.25234
288.22883
288.20535
288.1819
288.15848
288.13509
288.11173
288.0884
288.06511
288.04186
288.01864
287.99546
287.97232
287.94922
287.92617
287.90316
287.8802
287.85728
287.83442
287.8116
287.78883
287.76612
287.74347
287.72087
287.69832
287.67584
287.65341
287.63105
287.60875
287.58651
287.56434
287.54224
287.5202
287.49824
287.47634
287.45452
287.43277
287.4111
287.3895
287.36798
287.34654
287.32518
287.3039
287.2827
287.26159
287.24056
287.21962
287.19877
287.17801
287.15734
287.13676
287.11627
287.09588
287.07559
287.05539
287.03529
287.01528
286.99538
286.97558
286.95589
286.93629
286.91681
286.89743
286.87815
286.85899
286.83994
286.82099
286.80216
286.78345
286.76484
286.74635
286.72798
286.70973
286.6916
286.67358
286.65569
286.63792
286.62027
286.60274
286.58534
286.56806
286.55092
286.53389
286.517
286.50024
286.4836
286.4671
286.45073
286.43449
286.41839
286.40242
286.38658
286.37088
286.35532
286.33989
286.3246
286.30945
286.29444
286.27956
286.26483
286.25024
286.23579
286.22148
286.20731
286.19329
286.17941
286.16567
286.15208
286.13863
286.12532
286.11216
286.09914
286.08627
286.07355
286.06097
286.04854
286.03625
286.02411
286.01211
286.00026
285.98856
285.977
285.96559
285.95432
285.9432
285.93222
285.9214
285.91071
285.90017
285.88978
285.87953
285.86942
285.85946
285.84964
285.83997
285.83043
285.82104
285.81179
285.80268
285.79372
285.78489
285.7762
285.76765
285.75923
285.75096
285.74282
285.73481
285.72694
285.71921
285.71161
285.70413
285.6968
285.68959
285.68251
285.67556
285.66873
285.66204
285.65546
285.64902
285.64269
285.63649
285.63041
285.62445
285.6186
285.61288
285.60727
285.60177
285.59639
285.59112
285.58597
285.58092
285.57598
285.57115
285.56643
285.56181
285.55729
285.55287
285.54856
285.54434
285.54022
285.5362
285.53228
285.52844
285.5247
285.52105
285.51749
285.51402
285.51064
285.50734
285.50412
285.50099
285.49793
285.49496
285.49206
285.48924
285.4865
285.48383
285.48123
285.47871
285.47625
285.47386
285.47154
285.46929
285.4671
285.46497
285.46291
285.4609
285.45895
285.45707
285.45523
285.45346
285.45174
285.45007
285.44845
285.44688
285.44536
285.44389
285.44247
285.44109
285.43975
285.43846
285.43722
285.43601
285.43484
285.43372
285.43263
285.43157
285.43056
285.42958
285.42863
285.42771
285.42683
285.42598
285.42516
285.42437
285.42361
285.42287
285.42217
285.42148
285.42083
285.4202
285.41959
285.419
285.41844
285.4179
285.41738
285.41688
285.4164
285.41594
285.4155
285.41507
285.41466
285.41427
285.4139
285.41354
285.41319
285.41286
285.41254
285.41224
285.41195
285.41167
285.4114
285.41115
285.4109
285.41067
285.41044
285.41023
285.41003
285.40983
285.40965
285.40947
285.4093
285.40914
285.40898
285.40883
285.40869
285.40856
285.40843
285.40831
285.40819
285.40808
285.40798
285.40788
285.40779
285.40769
285.40761
285.40753
285.40745
285.40738
285.40731
285.40724
285.40718
285.40712
285.40706
285.40701
285.40696
285.40691
285.40687
285.40682
285.40678
285.40674
285.40671
285.40667
285.40664
285.40661
285.40658
285.40656
285.40653
285.40651
285.40648
285.40646
285.40644
285.40643
285.40641
285.40639
285.40638
285.40636
285.40635
285.40634
285.40632
285.40631
285.4063
285.40629
285.40628
285.40628
285.40627
285.40626
285.40625
285.40625
285.40624
285.40623
285.40623
285.40622
285.40622
285.40621
285.40621
285.4062
285.4062
285.40619
285.40619
285.40618
285.40618
285.40617
285.40617
285.40616
285.40616
285.40615
285.40614
285.40614
285.40614
285.40613
285.40612
285.40612
285.40612
285.40611
285.40611
285.40611
285.4061
285.4061
285.4061
285.4061
285.4061
285.40609
285.40609
285.40609
285.40609
285.40609
285.40608
285.40608
285.40607
285.40607
285.40607
285.40606
285.40606
285.40605
285.40605
285.40604
285.40604
285.40603
285.40603
285.40602
285.40601
285.40601
285.40601
285.406
285.406
285.40599
285.40599
285.40598
285.40598
285.40597
285.40597
285.40596
285.40596
285.40596
285.40595
285.40595
285.40595
285.40595
285.40594
285.40594
285.40594
285.40594
285.40594
285.40594
285.40594
285.40594
285.40594
285.40593
285.40593
285.40593
285.40593
285.40593
285.40592
285.40592
285.40592
285.40592
285.40591
285.40591
285.40591
285.4059
285.4059
285.4059
285.4059
285.40589
285.40589
285.40589
285.40588
285.40588
285.40588
285.40587
285.40587
285.40587
285.40587
285.40587
285.40586
285.40586
285.40586
285.40585
285.40585
285.40585
285.40585
285.40585
285.40585
285.40585
285.40585
285.40584
285.40584
285.40584
285.40584
285.40584
285.40584
285.40584
285.40583
285.40583
285.40583
285.40583
285.40583
285.40583
285.40582
285.40582
285.40582
285.40582
285.40582
285.40581
285.40581
285.40581
285.40581
285.40581
285.40581
285.40581
285.40581
285.4058
285.4058
285.4058
285.4058
285.4058
285.4058
285.40579
285.40579
285.40579
285.40579
285.40579
285.40579
285.40579
285.40579
285.40579
285.40579
285.40579
285.40579
285.40579
285.40578
285.40578
285.40578
285.40578
285.40578
285.40578
285.40578
285.40578
285.40578
285.40578
285.40578
285.40578
285.40578
285.40578
285.40578
285.40577
285.40577
285.40577
285.40576
285.40576
285.40576
285.40576
285.40576
285.40576
285.40576
285.40577
285.40577
285.40576
285.40576
285.40577
285.40577
285.40577
285.40577
285.40576
285.40576
285.40576
285.40576
285.40576
285.40576
285.40576
285.40576
285.40576
285.40576
285.40575
285.40575
285.40575
285.40575
285.40575
285.40575
285.40575
285.40575
285.40575
285.40575
285.40575
285.40575
285.40575
285.40575
285.40576
285.40576
285.40576
285.40576
285.40576
285.40576
285.40576
285.40576
285.40576
285.40576
285.40576
285.40575
285.40575
285.40575
285.40575
285.40575
285.40575
285.40575
285.40575
285.40575
285.40575
285.40575
285.40575
285.40575
285.40575
285.40576
285.40576
285.40576
285.40576
285.40576
285.40576
285.40576
285.40576
285.40576
285.40576
285.40576
285.40577
285.40577
285.40577
285.40577
285.40577
285.40577
285.40578
285.40578
285.40578
285.40578
285.40578
285.40578
285.40578
285.40578
285.40578
285.40578
285.40578
285.40578
285.40579
285.40579
285.40579
285.40579
285.40579
285.40579
285.40579
285.40579
285.40579
285.40579
285.40579
285.40579
285.40579
285.40579
285.40579
285.40579
285.40579
285.40579
285.40579
285.4058
285.4058
285.4058
285.4058
285.4058
285.40581
285.40581
285.40581
285.40581
285.40581
285.40581
285.40581
285.40582
285.40582
285.40582
285.40582
285.40582
285.40583
285.40583
285.40583
285.40583
285.40583
285.40583
285.40583
285.40583
285.40583
285.40583
285.40584
285.40584
285.40584
285.40584
285.40584
285.40585
285.40585
285.40585
285.40585
285.40585
285.40585
285.40586
285.40586
285.40586
285.40586
285.40586
285.40586
285.40586
285.40586
285.40587
285.40587
285.40587
285.40587
285.40587
285.40587
285.40588
285.40588
285.40588
285.40588
285.40588
285.40588
285.40588
285.40588
285.40589
285.40589
285.40589
285.4059
285.4059
285.4059
285.4059
285.4059
285.4059
285.4059
285.40591
285.40591
285.40591
285.40591
285.40591
285.40591
285.40591
285.40591
285.40591
285.40592
285.40592
285.40592
285.40592
285.40592
285.40592
285.40593
285.40593
285.40593
285.40593
285.40594
285.40594
285.40594
285.40594
285.40594
285.40594
285.40594
285.40594
285.40595
285.40595
285.40595
285.40595
285.40596
285.40596
285.40596
285.40596
285.40597
285.40597
285.40597
285.40597
285.40597
285.40598
285.40598
285.40598
285.40598
285.40598
285.40598
285.40598
285.40599
285.40599
285.40599
285.40599
285.406
285.406
285.406
285.406
285.406
285.40601
285.40601
285.40601
285.40601
285.40601
285.40601
285.40602
285.40602
285.40602
285.40602
285.40602
285.40603
285.40603
285.40603
285.40603
285.40603
285.40603
285.40603
285.40603
285.40603
285.40604
285.40604
285.40604
285.40605
285.40605
285.40605
285.40605
285.40605
285.40605
285.40606
285.40606
285.40606
285.40606
285.40606
285.40606
285.40606
285.40607
285.40607
285.40607
285.40607
285.40607
285.40607
285.40607
285.40608
285.40608
285.40608
285.40608
285.40608
285.40609
285.40609
285.40609
285.40609
285.40609
285.40609
285.40609
285.40609
285.40609
285.4061
285.4061
285.4061
285.4061
285.4061
285.40611
285.40611
285.40611
285.40611
285.40612
285.40612
285.40612
285.40612
285.40613
285.40613
285.40613
285.40613
285.40613
285.40613
285.40613
285.40613
285.40614
285.40614
285.40614
285.40614
285.40615
285.40615
285.40615
285.40615
285.40616
285.40616
285.40616
285.40616
285.40616
285.40616
285.40616
285.40617
285.40617
285.40617
285.40617
285.40617
285.40617
285.40618
285.40618
285.40618
285.40618
285.40618
285.40619
285.40619
285.40619
285.40619
285.40619
285.40619
285.4062
285.4062
285.4062
285.4062
285.4062
285.40621
285.40621
285.40621
285.40621
285.40621
285.40622
285.40622
285.40622
285.40622
285.40622
285.40622
285.40623
285.40623
285.40623
285.40623
285.40623
285.40623
285.40623
285.40624
285.40624
285.40624
285.40624
285.40624
285.40625
285.40625
285.40625
285.40625
285.40625
285.40626
285.40626
285.40626
285.40626
285.40626
285.40626
285.40627
285.40627
285.40627
285.40627
285.40627
285.40627
285.40627
285.40627
285.40628
285.40628
285.40628
285.40628
285.40629
285.40629
285.40629
285.40629
285.40629
285.40629
285.40629
285.40629
285.4063
285.4063
285.4063
285.4063
285.4063
285.4063
285.40631
285.40631
285.40631
285.40631
285.40631
285.40632
285.40632
285.40632
285.40632
285.40632
285.40632
285.40633
285.40633
285.40633
285.40633
285.40633
285.40634
285.40634
285.40634
285.40634
285.40635
285.40635
285.40635
285.40635
285.40635
285.40635
285.40635
285.40636
285.40636
285.40636
285.40636
285.40636
285.40637
285.40637
285.40637
285.40637
285.40637
285.40638
285.40638
285.40638
285.40638
285.40638
285.40638
285.40639
285.40639
285.40639
285.40639
285.4064
285.4064
285.4064
285.4064
285.4064
285.4064
285.4064
285.4064
285.40641
285.40641
285.40641
285.40641
285.40641
285.40642
285.40642
285.40642
285.40642
285.40642
285.40643
285.40643
285.40643
285.40643
285.40643
285.40643
285.40644
285.40644
285.40644
285.40644
285.40644
285.40645
285.40645
285.40645
285.40645
285.40646
285.40646
285.40646
285.40646
285.40646
285.40646
285.40646
285.40646
285.40647
285.40647
285.40647
285.40647
285.40648
285.40648
285.40648
285.40648
285.40648
285.40649
285.40649
285.40649
285.40649
285.40649
285.40649
285.40649
285.4065
285.4065
285.4065
285.4065
285.40651
285.40651
285.40651
285.40651
285.40651
285.40651
285.40651
285.40652
285.40652
285.40652
285.40652
285.40652
285.40653
285.40653
285.40653
285.40653
285.40653
285.40654
285.40654
285.40654
285.40654
285.40654
285.40655
285.40655
285.40655
285.40655
285.40655
285.40656
285.40656
285.40656
285.40656
285.40656
285.40656
285.40657
285.40657
285.40657
285.40657
285.40657
285.40657
285.40658
285.40658
285.40658
285.40658
285.40659
285.40659
285.40659
285.40659
285.4066
285.4066
285.4066
285.4066
285.40661
285.40661
285.40661
285.40661
285.40661
285.40661
285.40661
285.40661
285.40662
285.40662
285.40662
285.40663
285.40663
285.40663
285.40663
285.40663
285.40664
285.40664
285.40664
285.40664
285.40664
285.40665
285.40665
285.40665
285.40665
285.40666
285.40666
285.40666
285.40666
285.40666
285.40667
285.40667
285.40667
285.40667
285.40667
285.40668
285.40668
285.40668
285.40668
285.40669
285.40669
285.40669
285.40669
285.40669
285.40669
285.4067
285.4067
285.4067
285.4067
285.4067
285.4067
285.40671
285.40671
285.40671
285.40671
285.40671
285.40671
285.40671
285.40672
285.40672
285.40672
285.40672
285.40673
285.40673
285.40673
285.40673
285.40673
285.40673
285.40673
285.40674
285.40674
285.40674
285.40674
285.40674
285.40675
285.40675
285.40675
285.40675
285.40675
285.40675
285.40676
285.40676
285.40676
285.40676
285.40676
285.40677
285.40677
285.40677
285.40677
285.40677
285.40678
285.40678
285.40678
285.40678
285.40678
285.40678
285.40679
285.40679
285.40679
285.40679
285.40679
285.40679
285.4068
285.4068
285.4068
285.4068
285.4068
285.40681
285.40681
285.40681
285.40681
285.40682
285.40682
285.40682
285.40682
285.40682
285.40682
285.40683
285.40683
285.40683
285.40683
285.40683
285.40684
285.40684
285.40684
285.40684
285.40684
285.40685
285.40685
285.40685
285.40685
285.40686
285.40686
285.40686
285.40686
285.40687
285.40687
285.40687
285.40687
285.40688
285.40688
285.40688
285.40688
285.40689
285.40689
285.40689
285.40689
285.4069
285.4069
285.4069
285.4069
285.4069
285.40691
285.40691
285.40691
285.40691
285.40692
285.40692
285.40692
285.40692
285.40692
285.40693
285.40693
285.40693
285.40693
285.40694
285.40694
285.40694
285.40694
285.40695
285.40695
285.40695
285.40695
285.40695
285.40696
285.40696
285.40696
285.40696
285.40696
285.40697
285.40697
285.40697
285.40697
285.40698
285.40698
285.40698
285.40698
285.40699
285.40699
285.40699
285.40699
285.407
285.407
285.407
285.407
285.40701
285.40701
285.40701
285.40701
285.40702
285.40702
285.40702
285.40702
285.40702
285.40703
285.40703
285.40703
285.40703
285.40703
285.40704
285.40704
285.40704
285.40704
285.40705
285.40705
285.40705
285.40705
285.40706
285.40706
285.40706
285.40706
285.40707
285.40707
285.40707
285.40707
285.40707
285.40708
285.40708
285.40708
285.40708
285.40709
285.40709
285.40709
285.40709
285.40709
285.4071
285.4071
285.4071
285.40711
285.40711
285.40711
285.40711
285.40712
285.40712
285.40712
285.40712
285.40712
285.40713
285.40713
285.40713
285.40713
285.40713
285.40714
285.40714
285.40714
285.40714
285.40715
285.40715
285.40715
285.40716
285.40716
285.40716
285.40717
285.40717
285.40717
285.40717
285.40718
285.40718
285.40718
285.40718
285.40718
285.40718
285.40719
285.40719
285.40719
285.4072
285.4072
285.4072
285.4072
285.40721
285.40721
285.40721
285.40721
285.40722
285.40722
285.40722
285.40722
285.40723
285.40723
285.40723
285.40723
285.40723
285.40724
285.40724
285.40724
285.40725
285.40725
285.40725
285.40725
285.40726
285.40726
285.40726
285.40726
285.40726
285.40727
285.40727
285.40727
285.40728
285.40728
285.40728
285.40729
285.40729
285.40729
285.40729
285.40729
285.4073
285.4073
285.4073
285.4073
285.40731
285.40731
285.40731
285.40732
285.40732
285.40732
285.40733
285.40733
285.40733
285.40734
285.40734
285.40734
285.40734
285.40735
285.40735
285.40735
285.40735
285.40735
285.40736
285.40736
285.40736
285.40736
285.40737
285.40737
285.40737
285.40738
285.40738
285.40738
285.40738
285.40739
285.40739
285.40739
285.40739
285.4074
285.4074
285.4074
285.4074
285.40741
285.40741
285.40741
285.40742
285.40742
285.40742
285.40743
285.40743
285.40744
285.40744
285.40744
285.40744
285.40744
285.40744
285.40745
285.40745
285.40745
285.40746
285.40746
285.40746
285.40747
285.40747
285.40747
285.40747
285.40748
285.40748
285.40748
285.40748
285.40749
285.40749
285.40749
285.4075
285.4075
285.4075
285.4075
285.40751
285.40751
285.40751
285.40751
285.40752
285.40752
285.40752
285.40752
285.40753
285.40753
285.40753
285.40754
285.40754
285.40754
285.40755
285.40755
285.40755
285.40756
285.40756
285.40756
285.40757
285.40757
285.40757
285.40757
285.40758
285.40758
285.40758
285.40759
285.40759
285.40759
285.4076
285.4076
285.4076
285.40761
285.40761
285.40761
285.40762
285.40762
285.40762
285.40762
285.40763
285.40763
285.40763
285.40764
285.40764
285.40764
285.40765
285.40765
285.40765
285.40766
285.40766
285.40766
285.40766
285.40767
285.40767
285.40767
285.40768
285.40768
285.40768
285.40769
285.40769
285.40769
285.4077
285.4077
285.4077
285.40771
285.40771
285.40771
285.40772
285.40772
285.40772
285.40773
285.40773
285.40773
285.40774
285.40774
285.40774
285.40775
285.40775
285.40775
285.40776
285.40776
285.40776
285.40777
285.40777
285.40777
285.40778
285.40778
285.40778
285.40779
285.40779
285.40779
285.4078
285.4078
285.4078
285.40781
285.40781
285.40781
285.40782
285.40782
285.40782
285.40783
285.40783
285.40783
285.40784
285.40784
285.40784
285.40785
285.40785
285.40785
285.40786
285.40786
285.40786
285.40787
285.40787
285.40787
285.40788
285.40788
285.40788
285.40789
285.40789
285.40789
285.4079
285.4079
285.4079
285.40791
285.40791
285.40791
285.40792
285.40792
285.40792
285.40793
285.40793
285.40793
285.40794
285.40794
285.40794
285.40795
285.40795
285.40795
285.40796
285.40796
285.40797
285.40797
285.40797
285.40798
285.40798
285.40798
285.40799
285.40799
285.40799
285.408
285.408
285.408
285.40801
285.40801
285.40802
285.40802
285.40802
285.40803
285.40803
285.40804
285.40804
285.40804
285.40805
285.40805
285.40805
285.40806
285.40806
285.40807
285.40807
285.40807
285.40808
285.40808
285.40808
285.40809
285.40809
285.4081
285.4081
285.4081
285.40811
285.40811
285.40812
285.40812
285.40812
285.40813
285.40813
285.40814
285.40814
285.40814
285.40815
285.40815
285.40816
285.40816
285.40816
285.40817
285.40817
285.40818
285.40818
285.40818
285.40819
285.40819
285.4082
285.4082
285.4082
285.40821
285.40821
285.40822
285.40822
285.40822
285.40823
285.40823
285.40824
285.40824
285.40824
285.40825
285.40825
285.40826
285.40826
285.40827
285.40827
285.40828
285.40828
285.40829
285.40829
285.4083
285.4083
285.4083
285.40831
285.40831
285.40832
285.40832
285.40832
285.40833
285.40833
285.40834
285.40834
285.40834
285.40835
285.40835
285.40836
285.40836
285.40837
285.40837
285.40838
285.40838
285.40838
285.40839
285.40839
285.40839
285.4084
285.4084
285.40841
285.40841
285.40842
285.40842
285.40843
285.40844
285.40844
285.40845
285.40845
285.40845
285.40846
285.40846
285.40847
285.40847
285.40848
285.40848
285.40848
285.40849
285.40849
285.4085
285.4085
285.40851
285.40851
285.40852
285.40852
285.40853
285.40853
285.40853
285.40854
285.40854
285.40855
285.40855
285.40856
285.40856
285.40857
285.40857
285.40858
285.40858
285.40859
285.40859
285.4086
285.4086
285.40861
285.40861
285.40862
285.40862
285.40862
285.40863
285.40863
285.40864
285.40864
285.40865
285.40865
285.40866
285.40866
285.40867
285.40867
285.40868
285.40868
285.40869
285.40869
285.4087
285.4087
285.40871
285.40871
285.40872
285.40872
285.40873
285.40873
285.40874
285.40874
285.40875
285.40875
285.40876
285.40876
285.40877
285.40878
285.40878
285.40879
285.40879
285.4088
285.4088
285.40881
285.40881
285.40882
285.40882
285.40883
285.40883
285.40884
285.40884
285.40885
285.40885
285.40886
285.40887
285.40887
285.40888
285.40888
285.40889
285.40889
285.4089
285.4089
285.40891
285.40891
285.40892
285.40893
285.40893
285.40894
285.40894
285.40895
285.40896
285.40896
285.40897
285.40897
285.40898
285.40898
285.40899
285.40899
285.409
285.40901
285.40901
285.40902
285.40902
285.40903
285.40903
285.40904
285.40904
285.40905
285.40906
285.40906
285.40907
285.40907
285.40908
285.40909
285.40909
285.4091
285.40911
285.40911
285.40912
285.40913
285.40913
285.40914
285.40914
285.40915
285.40916
285.40916
285.40917
285.40917
285.40918
285.40919
285.40919
285.4092
285.4092
285.40921
285.40922
285.40922
285.40923
285.40924
285.40924
285.40925
285.40926
285.40926
285.40927
285.40927
285.40928
285.40929
285.40929
285.4093
285.40931
285.40931
285.40932
285.40933
285.40933
285.40934
285.40935
285.40935
285.40936
285.40936
285.40937
285.40938
285.40938
285.40939
285.4094
285.40941
285.40941
285.40942
285.40943
285.40944
285.40944
285.40945
285.40946
285.40946
285.40947
285.40948
285.40948
285.40949
285.4095
285.4095
285.40951
285.40952
285.40953
285.40953
285.40954
285.40955
285.40955
285.40956
285.40957
285.40957
285.40958
285.40959
285.40959
285.4096
285.40961
285.40962
285.40963
285.40964
285.40964
285.40965
285.40966
285.40967
285.40968
285.40968
285.40969
285.4097
285.4097
285.40971
285.40972
285.40972
285.40973
285.40974
285.40975
285.40976
285.40976
285.40977
285.40978
285.40979
285.4098
285.4098
285.40981
285.40982
285.40983
285.40984
285.40984
285.40985
285.40986
285.40987
285.40988
285.40989
285.40989
285.4099
285.40991
285.40992
285.40993
285.40994
285.40994
285.40995
285.40996
285.40997
285.40997
285.40998
285.40999
285.41
285.41001
285.41002
285.41003
285.41003
285.41004
285.41005
285.41006
285.41007
285.41008
285.41009
285.4101
285.4101
285.41011
285.41012
285.41013
285.41014
285.41015
285.41016
285.41017
285.41018
285.41019
285.4102
285.41021
285.41021
285.41022
285.41023
285.41024
285.41025
285.41026
285.41027
285.41028
285.41028
285.41029
285.4103
285.41031
285.41032
285.41033
285.41034
285.41035
285.41036
285.41037
285.41038
285.41039
285.4104
285.41041
285.41042
285.41043
285.41044
285.41045
285.41046
285.41047
285.41048
285.41049
285.4105
285.41051
285.41052
285.41053
285.41054
285.41055
285.41056
285.41057
285.41058
285.4106
285.41061
285.41062
285.41063
285.41064
285.41065
285.41066
285.41067
285.41068
285.41069
285.4107
285.41071
285.41072
285.41073
285.41074
285.41075
285.41077
285.41078
285.41079
285.4108
285.41081
285.41082
285.41084
285.41085
285.41086
285.41087
285.41088
285.41089
285.4109
285.41092
285.41093
285.41094
285.41095
285.41096
285.41097
285.41099
285.411
285.41101
285.41102
285.41104
285.41105
285.41106
285.41107
285.41109
285.4111
285.41111
285.41112
285.41113
285.41115
285.41116
285.41117
285.41118
285.4112
285.41121
285.41122
285.41124
285.41125
285.41126
285.41128
285.41129
285.4113
285.41132
285.41133
285.41134
285.41136
285.41137
285.41139
285.4114
285.41141
285.41143
285.41144
285.41145
285.41147
285.41148
285.41149
285.41151
285.41152
285.41154
285.41155
285.41157
285.41158
285.41159
285.41161
285.41162
285.41164
285.41165
285.41167
285.41168
285.4117
285.41171
285.41173
285.41174
285.41176
285.41178
285.41179
285.41181
285.41183
285.41184
285.41186
285.41188
285.41189
285.41191
285.41192
285.41194
285.41195
285.41197
285.41198
285.412
285.41201
285.41203
285.41205
285.41206
285.41208
285.4121
285.41212
285.41213
285.41215
285.41217
285.41219
285.41221
285.41222
285.41224
285.41226
285.41228
285.41229
285.41231
285.41233
285.41235
285.41236
285.41238
285.4124
285.41242
285.41244
285.41245
285.41247
285.41249
285.41251
285.41253
285.41255
285.41257
285.41259
285.41261
285.41263
285.41265
285.41267
285.41269
285.41271
285.41273
285.41275
285.41277
285.41279
285.41282
285.41284
285.41286
285.41288
285.4129
285.41292
285.41294
285.41297
285.41299
285.41301
285.41303
285.41305
285.41307
285.41309
285.41311
285.41314
285.41316
285.41318
285.41321
285.41323
285.41325
285.41328
285.4133
285.41333
285.41335
285.41337
285.4134
285.41342
285.41345
285.41347
285.41349
285.41352
285.41354
285.41357
285.41359
285.41362
285.41365
285.41367
285.4137
285.41373
285.41376
285.41379
285.41381
285.41384
285.41387
285.41389
285.41392
285.41395
285.41397
285.414
285.41403
285.41406
285.41408
285.41411
285.41414
285.41417
285.4142
285.41423
285.41426
285.41429
285.41433
285.41436
285.41439
285.41442
285.41446
285.41449
285.41452
285.41455
285.41459
285.41462
285.41465
285.41468
285.41471
285.41474
285.41477
285.4148
285.41484
285.41487
285.4149
285.41494
285.41497
285.41501
285.41504
285.41508
285.41512
285.41515
285.41519
285.41523
285.41527
285.41531
285.41535
285.41539
285.41543
285.41547
285.41551
285.41555
285.41559
285.41563
285.41568
285.41572
285.41576
285.41581
285.41585
285.41589
285.41594
285.41598
285.41602
285.41607
285.41611
285.41616
285.4162
285.41625
285.4163
285.41634
285.41639
285.41644
285.41649
285.41654
285.41659
285.41664
285.41669
285.41675
285.4168
285.41685
285.4169
285.41696
285.41701
285.41706
285.41712
285.41717
285.41723
285.41728
285.41734
285.4174
285.41746
285.41752
285.41758
285.41764
285.41771
285.41777
285.41784
285.4179
285.41797
285.41803
285.4181
285.41817
285.41823
285.4183
285.41837
285.41844
285.41852
285.41859
285.41866
285.41874
285.41882
285.41889
285.41897
285.41905
285.41913
285.41922
285.4193
285.41938
285.41947
285.41956
285.41964
285.41973
285.41982
285.41991
285.41999
285.42009
285.42018
285.42028
285.42037
285.42047
285.42058
285.42068
285.42079
285.4209
285.421
285.42111
285.42122
285.42134
285.42145
285.42156
285.42167
285.42178
285.42189
285.42201
285.42212
285.42224
285.42235
285.42247
285.42259
285.42271
285.42283
285.42294
285.42306
285.42317
285.42328
285.42339
285.42349
285.42358
285.42368
285.42376
285.42384
285.42392
285.42398
285.42404
285.42409
285.42414
285.42417
285.4242
285.42421
285.42422
285.42423
285.42423
285.42423
285.42422
285.4242
285.42416
285.42413
285.42409
285.42406
285.42403
285.42401
285.424
285.42399
285.42399
285.42399
285.424
285.42401
285.42406
285.42417
285.4243
285.42447
285.42465
285.42484
285.42505
285.42527
285.42551
285.42576
285.42602
285.42629
285.42656
285.42685
285.42714
285.42742
285.4277
285.42796
285.42821
285.42844
285.42866
285.42885
285.42903
285.42919
285.42932
285.42944
285.42953
285.42959
285.42964
285.42967
285.42969
285.42973
285.4298
285.42998
285.43038
285.43138
285.43383
285.43994
285.45522
285.49347
285.58919
285.82748
286.35253
287.06677
287.9224
288.89406
289.94988
291.05492
292.17405
293.2746
294.32829
295.31256
296.21117
297.01417
297.7174
298.32163
298.83146
299.25429
299.5992
299.87611
300.09505
300.26558
300.39648
300.49551
300.56935
300.62361
300.66286
300.69079
300.7103
300.72363
300.7325
300.73821
300.74169
300.74365
300.7446
300.74492
300.74493
300.74477
300.74416
300.74328
300.74247
300.74172
300.74103
300.7404
300.73983
300.73929
300.73879
300.73832
300.73788
300.73747
300.73708
300.7367
300.73635
300.736
300.73566
300.73533
300.73499
300.73465
300.7343
300.73394
300.73356
300.73316
300.73275
300.73231
300.73186
300.73139
300.7309
300.73041
300.7299
300.72939
300.72887
300.72835
300.72784
300.72734
300.72685
300.72638
300.72591
300.72547
300.72505
300.72464
300.72426
300.72389
300.72354
300.72321
300.7229
300.7226
300.72232
300.72206
300.72181
300.72157
300.72134
300.72112
300.72091
300.72071
300.72052
300.72033
300.72016
300.71998
300.71982
300.71966
300.7195
300.71935
300.7192
300.71905
300.71891
300.71877
300.71863
300.7185
300.71837
300.71824
300.71811
300.71799
300.71787
300.71776
300.71764
300.71753
300.71742
300.71731
300.7172
300.71709
300.71698
300.71688
300.71678
300.71667
300.71657
300.71648
300.71638
300.71629
300.71619
300.7161
300.71601
300.71592
300.71583
300.71575
300.71566
300.71558
300.71549
300.71541
300.71533
300.71525
300.71517
300.71509
300.71502
300.71494
300.71487
300.71479
300.71472
300.71465
300.71458
300.71451
300.71444
300.71437
300.7143
300.71423
300.71417
300.7141
300.71404
300.71397
300.71391
300.71385
300.71379
300.71373
300.71367
300.71361
300.71355
300.71349
300.71343
300.71338
300.71332
300.71326
300.71321
300.71315
300.7131
300.71304
300.71299
300.71294
300.71288
300.71283
300.71278
300.71273
300.71268
300.71263
300.71258
300.71253
300.71249
300.71244
300.71239
300.71234
300.7123
300.71225
300.7122
300.71216
300.71211
300.71207
300.71203
300.71198
300.71194
300.7119
300.71186
300.71182
300.71177
300.71173
300.71169
300.71165
300.71161
300.71157
300.71153
300.71149
300.71145
300.71141
300.71137
300.71134
300.7113
300.71126
300.71122
300.71119
300.71115
300.71112
300.71108
300.71105
300.71101
300.71098
300.71094
300.71091
300.71087
300.71084
300.7108
300.71077
300.71074
300.7107
300.71067
300.71064
300.7106
300.71057
300.71054
300.71051
300.71048
300.71045
300.71042
300.71039
300.71036
300.71033
300.7103
300.71027
300.71024
300.71021
300.71018
300.71015
300.71012
300.71009
300.71006
300.71003
300.71
300.70998
300.70995
300.70992
300.70989
300.70987
300.70984
300.70981
300.70979
300.70976
300.70974
300.70971
300.70969
300.70966
300.70963
300.70961
300.70958
300.70956
300.70953
300.70951
300.70948
300.70946
300.70943
300.70941
300.70938
300.70936
300.70934
300.70931
300.70929
300.70926
300.70924
300.70922
300.7092
300.70918
300.70915
300.70913
300.70911
300.70909
300.70906
300.70904
300.70902
300.70899
300.70897
300.70895
300.70893
300.70891
300.70889
300.70887
300.70885
300.70883
300.70881
300.70878
300.70876
300.70874
300.70872
300.7087
300.70868
300.70866
300.70864
300.70862
300.7086
300.70858