/*--------------------------------*- C++ -*----------------------------------*\
  =========                 |
  \\      /  F ield         | OpenFOAM: The Open Source CFD Toolbox
   \\    /   O peration     | Website:  https://openfoam.org
    \\  /    A nd           | Version:  7
     \\/     M anipulation  |
\*---------------------------------------------------------------------------*/
FoamFile
{
    version     2.0;
    format      ascii;
    class       volScalarField;
    location    "0.00205";
    object      p;
}
// * * * * * * * * * * * * * * * * * * * * * * * * * * * * * * * * * * * * * //

dimensions      [1 -1 -2 0 0 0 0];

internalField   nonuniform List<scalar> 
5000
(
109737.7
109737.71
109737.71
109737.71
109737.71
109737.71
109737.71
109737.71
109737.71
109737.71
109737.71
109737.71
109737.71
109737.71
109737.71
109737.71
109737.72
109737.72
109737.72
109737.72
109737.72
109737.72
109737.72
109737.72
109737.72
109737.72
109737.72
109737.72
109737.72
109737.72
109737.72
109737.72
109737.72
109737.73
109737.73
109737.73
109737.73
109737.73
109737.73
109737.73
109737.73
109737.73
109737.73
109737.73
109737.73
109737.73
109737.73
109737.73
109737.73
109737.73
109737.73
109737.73
109737.73
109737.74
109737.74
109737.74
109737.74
109737.74
109737.74
109737.74
109737.74
109737.74
109737.74
109737.74
109737.74
109737.74
109737.74
109737.74
109737.74
109737.74
109737.74
109737.74
109737.74
109737.74
109737.75
109737.75
109737.75
109737.75
109737.75
109737.75
109737.75
109737.75
109737.75
109737.75
109737.75
109737.75
109737.75
109737.75
109737.75
109737.75
109737.75
109737.75
109737.75
109737.75
109737.76
109737.76
109737.76
109737.76
109737.76
109737.76
109737.76
109737.76
109737.76
109737.76
109737.76
109737.76
109737.76
109737.76
109737.76
109737.76
109737.76
109737.76
109737.76
109737.77
109737.77
109737.77
109737.77
109737.77
109737.77
109737.77
109737.77
109737.77
109737.77
109737.77
109737.77
109737.77
109737.77
109737.77
109737.77
109737.77
109737.77
109737.78
109737.78
109737.78
109737.78
109737.78
109737.78
109737.78
109737.78
109737.78
109737.78
109737.78
109737.78
109737.78
109737.78
109737.78
109737.78
109737.78
109737.78
109737.79
109737.79
109737.79
109737.79
109737.79
109737.79
109737.79
109737.79
109737.79
109737.79
109737.79
109737.79
109737.79
109737.79
109737.79
109737.79
109737.79
109737.79
109737.79
109737.8
109737.8
109737.8
109737.8
109737.8
109737.8
109737.8
109737.8
109737.8
109737.8
109737.8
109737.8
109737.8
109737.8
109737.8
109737.8
109737.8
109737.8
109737.8
109737.81
109737.81
109737.81
109737.81
109737.81
109737.81
109737.81
109737.81
109737.81
109737.81
109737.81
109737.81
109737.81
109737.81
109737.81
109737.81
109737.81
109737.81
109737.81
109737.81
109737.81
109737.82
109737.82
109737.82
109737.82
109737.82
109737.82
109737.82
109737.82
109737.82
109737.82
109737.82
109737.82
109737.82
109737.82
109737.82
109737.82
109737.82
109737.82
109737.82
109737.82
109737.82
109737.83
109737.83
109737.83
109737.83
109737.83
109737.83
109737.83
109737.83
109737.83
109737.83
109737.83
109737.83
109737.83
109737.83
109737.83
109737.83
109737.83
109737.83
109737.83
109737.83
109737.83
109737.83
109737.84
109737.84
109737.84
109737.84
109737.84
109737.84
109737.84
109737.84
109737.84
109737.84
109737.84
109737.84
109737.84
109737.84
109737.84
109737.84
109737.84
109737.84
109737.84
109737.84
109737.84
109737.84
109737.84
109737.84
109737.85
109737.85
109737.85
109737.85
109737.85
109737.85
109737.85
109737.85
109737.85
109737.85
109737.85
109737.85
109737.85
109737.85
109737.85
109737.85
109737.85
109737.85
109737.85
109737.85
109737.85
109737.85
109737.85
109737.85
109737.85
109737.85
109737.86
109737.86
109737.86
109737.86
109737.86
109737.86
109737.86
109737.86
109737.86
109737.86
109737.86
109737.86
109737.86
109737.86
109737.86
109737.86
109737.86
109737.86
109737.86
109737.86
109737.86
109737.86
109737.86
109737.86
109737.86
109737.86
109737.86
109737.86
109737.86
109737.87
109737.87
109737.87
109737.87
109737.87
109737.87
109737.87
109737.87
109737.87
109737.87
109737.87
109737.87
109737.87
109737.87
109737.87
109737.87
109737.87
109737.87
109737.87
109737.87
109737.87
109737.87
109737.87
109737.87
109737.87
109737.87
109737.87
109737.87
109737.87
109737.87
109737.87
109737.87
109737.87
109737.87
109737.88
109737.88
109737.88
109737.88
109737.88
109737.88
109737.88
109737.88
109737.88
109737.88
109737.88
109737.88
109737.88
109737.88
109737.88
109737.88
109737.88
109737.88
109737.88
109737.88
109737.88
109737.88
109737.88
109737.88
109737.88
109737.88
109737.88
109737.88
109737.88
109737.88
109737.88
109737.88
109737.88
109737.88
109737.88
109737.88
109737.88
109737.88
109737.88
109737.88
109737.88
109737.88
109737.88
109737.88
109737.88
109737.88
109737.88
109737.88
109737.88
109737.88
109737.88
109737.88
109737.88
109737.88
109737.88
109737.88
109737.88
109737.88
109737.88
109737.88
109737.88
109737.88
109737.88
109737.88
109737.88
109737.88
109737.88
109737.88
109737.88
109737.88
109737.88
109737.88
109737.88
109737.88
109737.88
109737.88
109737.88
109737.88
109737.88
109737.88
109737.88
109737.88
109737.88
109737.88
109737.88
109737.88
109737.88
109737.88
109737.87
109737.87
109737.87
109737.87
109737.87
109737.87
109737.87
109737.87
109737.87
109737.87
109737.87
109737.87
109737.87
109737.86
109737.86
109737.86
109737.86
109737.86
109737.86
109737.86
109737.86
109737.85
109737.85
109737.85
109737.85
109737.85
109737.85
109737.85
109737.84
109737.84
109737.84
109737.84
109737.84
109737.83
109737.83
109737.83
109737.83
109737.82
109737.82
109737.82
109737.82
109737.81
109737.81
109737.81
109737.8
109737.8
109737.8
109737.79
109737.79
109737.79
109737.78
109737.78
109737.78
109737.77
109737.77
109737.76
109737.76
109737.75
109737.75
109737.74
109737.74
109737.73
109737.73
109737.72
109737.72
109737.71
109737.71
109737.7
109737.69
109737.69
109737.68
109737.67
109737.67
109737.66
109737.65
109737.64
109737.64
109737.63
109737.62
109737.61
109737.6
109737.59
109737.58
109737.58
109737.57
109737.56
109737.55
109737.54
109737.52
109737.51
109737.5
109737.49
109737.48
109737.47
109737.45
109737.44
109737.43
109737.41
109737.4
109737.39
109737.37
109737.36
109737.34
109737.33
109737.31
109737.29
109737.28
109737.26
109737.24
109737.22
109737.21
109737.19
109737.17
109737.15
109737.13
109737.11
109737.08
109737.06
109737.04
109737.02
109736.99
109736.97
109736.94
109736.92
109736.89
109736.86
109736.84
109736.81
109736.78
109736.75
109736.72
109736.69
109736.66
109736.62
109736.59
109736.56
109736.52
109736.49
109736.45
109736.41
109736.37
109736.33
109736.29
109736.25
109736.21
109736.17
109736.12
109736.08
109736.03
109735.98
109735.94
109735.89
109735.83
109735.78
109735.73
109735.68
109735.62
109735.56
109735.51
109735.45
109735.39
109735.32
109735.26
109735.2
109735.13
109735.06
109735
109734.93
109734.85
109734.78
109734.71
109734.63
109734.55
109734.47
109734.39
109734.31
109734.23
109734.14
109734.05
109733.96
109733.87
109733.78
109733.68
109733.59
109733.49
109733.39
109733.29
109733.18
109733.08
109732.97
109732.86
109732.75
109732.63
109732.52
109732.4
109732.28
109732.16
109732.03
109731.9
109731.78
109731.64
109731.51
109731.37
109731.24
109731.1
109730.95
109730.81
109730.66
109730.51
109730.36
109730.2
109730.05
109729.89
109729.72
109729.56
109729.39
109729.22
109729.05
109728.87
109728.69
109728.51
109728.33
109728.14
109727.95
109727.76
109727.56
109727.36
109727.16
109726.96
109726.75
109726.54
109726.33
109726.11
109725.89
109725.67
109725.45
109725.22
109724.99
109724.75
109724.52
109724.28
109724.03
109723.78
109723.53
109723.28
109723.02
109722.76
109722.5
109722.23
109721.96
109721.69
109721.41
109721.13
109720.85
109720.56
109720.27
109719.98
109719.68
109719.38
109719.07
109718.76
109718.45
109718.14
109717.82
109717.5
109717.17
109716.84
109716.51
109716.17
109715.83
109715.48
109715.14
109714.78
109714.43
109714.07
109713.71
109713.34
109712.97
109712.6
109712.22
109711.84
109711.45
109711.06
109710.67
109710.27
109709.87
109709.47
109709.06
109708.65
109708.23
109707.81
109707.39
109706.96
109706.53
109706.1
109705.66
109705.22
109704.77
109704.32
109703.87
109703.41
109702.95
109702.48
109702.01
109701.54
109701.06
109700.58
109700.1
109699.61
109699.12
109698.62
109698.12
109697.62
109697.11
109696.6
109696.09
109695.57
109695.05
109694.52
109693.99
109693.46
109692.93
109692.38
109691.84
109691.29
109690.74
109690.19
109689.63
109689.07
109688.5
109687.93
109687.36
109686.78
109686.2
109685.62
109685.03
109684.44
109683.85
109683.25
109682.65
109682.05
109681.44
109680.83
109680.22
109679.6
109678.98
109678.36
109677.73
109677.1
109676.47
109675.84
109675.2
109674.55
109673.91
109673.26
109672.61
109671.96
109671.3
109670.64
109669.98
109669.31
109668.64
109667.97
109667.3
109666.62
109665.94
109665.26
109664.57
109663.89
109663.2
109662.5
109661.81
109661.11
109660.41
109659.71
109659
109658.29
109657.59
109656.87
109656.16
109655.44
109654.72
109654
109653.28
109652.56
109651.83
109651.1
109650.37
109649.64
109648.9
109648.17
109647.43
109646.69
109645.95
109645.2
109644.46
109643.71
109642.96
109642.21
109641.46
109640.71
109639.95
109639.2
109638.44
109637.68
109636.92
109636.16
109635.4
109634.64
109633.87
109633.11
109632.34
109631.57
109630.8
109630.04
109629.27
109628.49
109627.72
109626.95
109626.18
109625.4
109624.63
109623.85
109623.08
109622.3
109621.53
109620.75
109619.97
109619.2
109618.42
109617.64
109616.86
109616.08
109615.3
109614.53
109613.75
109612.97
109612.19
109611.41
109610.63
109609.86
109609.08
109608.3
109607.52
109606.75
109605.97
109605.19
109604.42
109603.64
109602.87
109602.09
109601.32
109600.54
109599.77
109599
109598.23
109597.46
109596.69
109595.92
109595.15
109594.39
109593.62
109592.86
109592.09
109591.33
109590.57
109589.81
109589.05
109588.3
109587.54
109586.78
109586.03
109585.28
109584.53
109583.78
109583.03
109582.29
109581.54
109580.8
109580.06
109579.32
109578.58
109577.84
109577.11
109576.38
109575.64
109574.92
109574.19
109573.46
109572.74
109572.02
109571.3
109570.58
109569.87
109569.16
109568.45
109567.74
109567.03
109566.33
109565.63
109564.93
109564.23
109563.54
109562.84
109562.15
109561.47
109560.78
109560.1
109559.42
109558.74
109558.07
109557.4
109556.73
109556.06
109555.39
109554.73
109554.07
109553.42
109552.76
109552.11
109551.47
109550.82
109550.18
109549.54
109548.9
109548.27
109547.64
109547.01
109546.39
109545.77
109545.15
109544.53
109543.92
109543.31
109542.7
109542.1
109541.5
109540.9
109540.31
109539.72
109539.13
109538.55
109537.97
109537.39
109536.81
109536.24
109535.67
109535.11
109534.55
109533.99
109533.43
109532.88
109532.33
109531.79
109531.24
109530.7
109530.17
109529.64
109529.11
109528.58
109528.06
109527.54
109527.03
109526.52
109526.01
109525.5
109525
109524.5
109524.01
109523.52
109523.03
109522.54
109522.06
109521.59
109521.11
109520.64
109520.17
109519.71
109519.25
109518.79
109518.34
109517.89
109517.44
109517
109516.56
109516.12
109515.69
109515.26
109514.83
109514.41
109513.99
109513.57
109513.16
109512.75
109512.35
109511.94
109511.54
109511.15
109510.76
109510.37
109509.98
109509.6
109509.22
109508.84
109508.47
109508.1
109507.74
109507.37
109507.01
109506.66
109506.3
109505.96
109505.61
109505.27
109504.93
109504.59
109504.26
109503.93
109503.6
109503.27
109502.95
109502.64
109502.32
109502.01
109501.7
109501.4
109501.09
109500.79
109500.5
109500.2
109499.91
109499.63
109499.34
109499.06
109498.78
109498.51
109498.24
109497.97
109497.7
109497.44
109497.17
109496.92
109496.66
109496.41
109496.16
109495.91
109495.67
109495.42
109495.19
109494.95
109494.72
109494.48
109494.26
109494.03
109493.81
109493.59
109493.37
109493.15
109492.94
109492.73
109492.52
109492.32
109492.11
109491.91
109491.71
109491.52
109491.33
109491.13
109490.95
109490.76
109490.57
109490.39
109490.21
109490.04
109489.86
109489.69
109489.52
109489.35
109489.18
109489.02
109488.85
109488.69
109488.54
109488.38
109488.23
109488.07
109487.92
109487.78
109487.63
109487.48
109487.34
109487.2
109487.06
109486.93
109486.79
109486.66
109486.53
109486.4
109486.27
109486.14
109486.02
109485.9
109485.78
109485.66
109485.54
109485.42
109485.31
109485.2
109485.08
109484.97
109484.87
109484.76
109484.65
109484.55
109484.45
109484.35
109484.25
109484.15
109484.06
109483.96
109483.87
109483.77
109483.68
109483.59
109483.51
109483.42
109483.33
109483.25
109483.17
109483.08
109483
109482.92
109482.84
109482.77
109482.69
109482.62
109482.54
109482.47
109482.4
109482.33
109482.26
109482.19
109482.12
109482.06
109481.99
109481.93
109481.86
109481.8
109481.74
109481.68
109481.62
109481.56
109481.5
109481.45
109481.39
109481.34
109481.28
109481.23
109481.18
109481.13
109481.08
109481.03
109480.98
109480.93
109480.88
109480.83
109480.79
109480.74
109480.7
109480.65
109480.61
109480.57
109480.53
109480.49
109480.44
109480.41
109480.37
109480.33
109480.29
109480.25
109480.22
109480.18
109480.14
109480.11
109480.08
109480.04
109480.01
109479.98
109479.94
109479.91
109479.88
109479.85
109479.82
109479.79
109479.76
109479.73
109479.71
109479.68
109479.65
109479.63
109479.6
109479.57
109479.55
109479.52
109479.5
109479.48
109479.45
109479.43
109479.41
109479.38
109479.36
109479.34
109479.32
109479.3
109479.28
109479.26
109479.24
109479.22
109479.2
109479.18
109479.16
109479.14
109479.13
109479.11
109479.09
109479.08
109479.06
109479.04
109479.03
109479.01
109479
109478.98
109478.97
109478.95
109478.94
109478.92
109478.91
109478.9
109478.88
109478.87
109478.86
109478.84
109478.83
109478.82
109478.81
109478.8
109478.79
109478.77
109478.76
109478.75
109478.74
109478.73
109478.72
109478.71
109478.7
109478.69
109478.68
109478.67
109478.67
109478.66
109478.65
109478.64
109478.63
109478.62
109478.61
109478.61
109478.6
109478.59
109478.58
109478.58
109478.57
109478.56
109478.56
109478.55
109478.54
109478.54
109478.53
109478.52
109478.52
109478.51
109478.51
109478.5
109478.5
109478.49
109478.49
109478.48
109478.47
109478.47
109478.47
109478.46
109478.46
109478.45
109478.45
109478.44
109478.44
109478.43
109478.43
109478.43
109478.42
109478.42
109478.41
109478.41
109478.41
109478.4
109478.4
109478.4
109478.39
109478.39
109478.39
109478.39
109478.38
109478.38
109478.38
109478.37
109478.37
109478.37
109478.37
109478.36
109478.36
109478.36
109478.36
109478.35
109478.35
109478.35
109478.35
109478.35
109478.34
109478.34
109478.34
109478.34
109478.34
109478.34
109478.33
109478.33
109478.33
109478.33
109478.33
109478.33
109478.32
109478.32
109478.32
109478.32
109478.32
109478.32
109478.32
109478.32
109478.31
109478.31
109478.31
109478.31
109478.31
109478.31
109478.31
109478.31
109478.31
109478.31
109478.31
109478.3
109478.3
109478.3
109478.3
109478.3
109478.3
109478.3
109478.3
109478.3
109478.3
109478.3
109478.3
109478.3
109478.3
109478.3
109478.3
109478.29
109478.29
109478.29
109478.29
109478.29
109478.29
109478.29
109478.29
109478.29
109478.29
109478.29
109478.29
109478.29
109478.29
109478.29
109478.29
109478.29
109478.29
109478.29
109478.29
109478.29
109478.29
109478.29
109478.29
109478.29
109478.29
109478.29
109478.29
109478.29
109478.29
109478.29
109478.29
109478.29
109478.29
109478.29
109478.29
109478.29
109478.29
109478.29
109478.29
109478.29
109478.29
109478.29
109478.29
109478.29
109478.29
109478.29
109478.29
109478.29
109478.29
109478.29
109478.29
109478.29
109478.29
109478.29
109478.29
109478.29
109478.29
109478.29
109478.29
109478.29
109478.29
109478.29
109478.29
109478.29
109478.29
109478.29
109478.29
109478.29
109478.29
109478.29
109478.29
109478.29
109478.29
109478.29
109478.29
109478.29
109478.29
109478.29
109478.29
109478.29
109478.29
109478.29
109478.29
109478.29
109478.29
109478.29
109478.29
109478.29
109478.29
109478.29
109478.29
109478.29
109478.29
109478.29
109478.29
109478.29
109478.29
109478.29
109478.29
109478.29
109478.29
109478.29
109478.29
109478.29
109478.29
109478.29
109478.29
109478.29
109478.29
109478.29
109478.29
109478.29
109478.29
109478.29
109478.29
109478.29
109478.29
109478.29
109478.29
109478.29
109478.29
109478.29
109478.29
109478.29
109478.29
109478.29
109478.29
109478.29
109478.29
109478.29
109478.29
109478.29
109478.29
109478.29
109478.29
109478.29
109478.29
109478.29
109478.29
109478.29
109478.29
109478.29
109478.29
109478.29
109478.29
109478.29
109478.29
109478.29
109478.29
109478.29
109478.29
109478.29
109478.29
109478.29
109478.29
109478.29
109478.29
109478.29
109478.29
109478.29
109478.29
109478.29
109478.29
109478.29
109478.29
109478.29
109478.29
109478.29
109478.29
109478.29
109478.29
109478.29
109478.29
109478.29
109478.29
109478.29
109478.29
109478.29
109478.29
109478.29
109478.29
109478.29
109478.29
109478.29
109478.29
109478.29
109478.29
109478.3
109478.3
109478.3
109478.3
109478.3
109478.3
109478.3
109478.3
109478.3
109478.3
109478.3
109478.3
109478.3
109478.3
109478.3
109478.3
109478.3
109478.3
109478.3
109478.3
109478.3
109478.3
109478.3
109478.3
109478.3
109478.3
109478.3
109478.3
109478.3
109478.3
109478.3
109478.3
109478.3
109478.3
109478.3
109478.3
109478.3
109478.3
109478.3
109478.3
109478.3
109478.3
109478.3
109478.3
109478.3
109478.3
109478.3
109478.3
109478.3
109478.3
109478.3
109478.3
109478.3
109478.3
109478.3
109478.3
109478.3
109478.3
109478.3
109478.3
109478.3
109478.3
109478.3
109478.3
109478.3
109478.3
109478.3
109478.3
109478.3
109478.3
109478.3
109478.3
109478.3
109478.3
109478.3
109478.3
109478.3
109478.3
109478.3
109478.3
109478.3
109478.3
109478.3
109478.3
109478.3
109478.3
109478.3
109478.3
109478.3
109478.3
109478.3
109478.3
109478.3
109478.3
109478.3
109478.3
109478.3
109478.3
109478.3
109478.3
109478.3
109478.3
109478.3
109478.3
109478.3
109478.3
109478.3
109478.3
109478.3
109478.3
109478.3
109478.3
109478.3
109478.3
109478.3
109478.3
109478.3
109478.3
109478.3
109478.3
109478.3
109478.3
109478.3
109478.3
109478.3
109478.3
109478.3
109478.3
109478.3
109478.3
109478.3
109478.3
109478.3
109478.3
109478.3
109478.3
109478.3
109478.3
109478.3
109478.3
109478.3
109478.3
109478.31
109478.31
109478.31
109478.31
109478.31
109478.31
109478.31
109478.31
109478.31
109478.31
109478.31
109478.31
109478.31
109478.31
109478.31
109478.31
109478.31
109478.31
109478.31
109478.31
109478.31
109478.31
109478.31
109478.31
109478.31
109478.31
109478.31
109478.31
109478.31
109478.31
109478.31
109478.31
109478.31
109478.31
109478.31
109478.31
109478.31
109478.31
109478.31
109478.31
109478.31
109478.31
109478.31
109478.31
109478.31
109478.31
109478.31
109478.31
109478.31
109478.31
109478.31
109478.31
109478.31
109478.31
109478.31
109478.31
109478.31
109478.31
109478.31
109478.31
109478.31
109478.31
109478.31
109478.31
109478.31
109478.31
109478.31
109478.31
109478.31
109478.31
109478.31
109478.31
109478.31
109478.31
109478.31
109478.31
109478.31
109478.31
109478.31
109478.31
109478.31
109478.31
109478.31
109478.31
109478.31
109478.31
109478.31
109478.31
109478.31
109478.31
109478.31
109478.31
109478.31
109478.31
109478.31
109478.31
109478.31
109478.31
109478.31
109478.31
109478.31
109478.31
109478.31
109478.31
109478.31
109478.31
109478.31
109478.31
109478.31
109478.31
109478.31
109478.31
109478.31
109478.31
109478.31
109478.31
109478.31
109478.31
109478.31
109478.31
109478.31
109478.31
109478.31
109478.31
109478.31
109478.31
109478.31
109478.31
109478.31
109478.31
109478.31
109478.31
109478.31
109478.31
109478.31
109478.31
109478.31
109478.31
109478.31
109478.31
109478.31
109478.31
109478.31
109478.31
109478.31
109478.31
109478.31
109478.31
109478.31
109478.31
109478.31
109478.31
109478.31
109478.31
109478.31
109478.31
109478.31
109478.31
109478.31
109478.31
109478.31
109478.31
109478.31
109478.31
109478.31
109478.31
109478.31
109478.31
109478.31
109478.31
109478.31
109478.31
109478.31
109478.31
109478.31
109478.31
109478.31
109478.31
109478.31
109478.31
109478.31
109478.31
109478.32
109478.32
109478.32
109478.32
109478.32
109478.32
109478.32
109478.32
109478.32
109478.32
109478.32
109478.32
109478.32
109478.32
109478.32
109478.32
109478.32
109478.32
109478.32
109478.32
109478.32
109478.32
109478.32
109478.32
109478.32
109478.32
109478.32
109478.32
109478.32
109478.32
109478.32
109478.32
109478.32
109478.32
109478.32
109478.32
109478.32
109478.32
109478.32
109478.32
109478.32
109478.32
109478.32
109478.32
109478.32
109478.32
109478.32
109478.32
109478.32
109478.32
109478.32
109478.32
109478.32
109478.32
109478.32
109478.32
109478.32
109478.32
109478.32
109478.32
109478.32
109478.32
109478.32
109478.32
109478.32
109478.32
109478.32
109478.32
109478.32
109478.32
109478.32
109478.32
109478.32
109478.32
109478.32
109478.32
109478.32
109478.32
109478.32
109478.32
109478.32
109478.32
109478.32
109478.32
109478.32
109478.32
109478.32
109478.32
109478.32
109478.32
109478.32
109478.32
109478.32
109478.32
109478.32
109478.32
109478.32
109478.32
109478.32
109478.32
109478.32
109478.32
109478.32
109478.32
109478.32
109478.32
109478.32
109478.32
109478.32
109478.32
109478.32
109478.32
109478.32
109478.32
109478.32
109478.32
109478.32
109478.32
109478.32
109478.32
109478.32
109478.32
109478.32
109478.32
109478.32
109478.32
109478.32
109478.32
109478.32
109478.32
109478.32
109478.32
109478.32
109478.32
109478.32
109478.32
109478.32
109478.32
109478.32
109478.32
109478.32
109478.32
109478.32
109478.32
109478.32
109478.32
109478.32
109478.32
109478.32
109478.32
109478.32
109478.32
109478.32
109478.32
109478.32
109478.32
109478.32
109478.32
109478.32
109478.32
109478.32
109478.32
109478.32
109478.32
109478.32
109478.32
109478.32
109478.32
109478.32
109478.32
109478.32
109478.32
109478.32
109478.32
109478.32
109478.32
109478.32
109478.32
109478.32
109478.32
109478.32
109478.32
109478.32
109478.32
109478.32
109478.32
109478.32
109478.32
109478.32
109478.32
109478.32
109478.32
109478.32
109478.32
109478.32
109478.32
109478.32
109478.32
109478.32
109478.32
109478.32
109478.32
109478.32
109478.32
109478.32
109478.32
109478.32
109478.32
109478.32
109478.32
109478.32
109478.32
109478.32
109478.32
109478.32
109478.32
109478.32
109478.32
109478.32
109478.32
109478.32
109478.32
109478.32
109478.32
109478.32
109478.33
109478.33
109478.33
109478.33
109478.33
109478.33
109478.33
109478.33
109478.33
109478.33
109478.33
109478.33
109478.33
109478.33
109478.33
109478.33
109478.33
109478.33
109478.33
109478.33
109478.33
109478.33
109478.33
109478.33
109478.33
109478.33
109478.33
109478.33
109478.33
109478.33
109478.33
109478.33
109478.33
109478.33
109478.33
109478.33
109478.33
109478.33
109478.33
109478.33
109478.33
109478.33
109478.33
109478.33
109478.33
109478.33
109478.33
109478.33
109478.33
109478.33
109478.33
109478.33
109478.33
109478.33
109478.33
109478.33
109478.33
109478.33
109478.33
109478.33
109478.33
109478.33
109478.33
109478.33
109478.33
109478.33
109478.33
109478.33
109478.33
109478.33
109478.33
109478.33
109478.33
109478.33
109478.33
109478.33
109478.33
109478.33
109478.33
109478.33
109478.33
109478.33
109478.33
109478.33
109478.33
109478.33
109478.33
109478.33
109478.33
109478.33
109478.33
109478.33
109478.33
109478.33
109478.33
109478.33
109478.33
109478.33
109478.33
109478.33
109478.33
109478.33
109478.33
109478.33
109478.33
109478.33
109478.33
109478.33
109478.33
109478.33
109478.33
109478.33
109478.33
109478.33
109478.33
109478.33
109478.33
109478.33
109478.33
109478.33
109478.33
109478.33
109478.33
109478.33
109478.33
109478.33
109478.33
109478.33
109478.33
109478.33
109478.33
109478.33
109478.33
109478.33
109478.33
109478.33
109478.33
109478.33
109478.33
109478.33
109478.33
109478.33
109478.33
109478.33
109478.33
109478.33
109478.33
109478.33
109478.33
109478.33
109478.33
109478.33
109478.33
109478.33
109478.33
109478.33
109478.33
109478.33
109478.33
109478.33
109478.33
109478.33
109478.33
109478.33
109478.33
109478.33
109478.33
109478.33
109478.33
109478.33
109478.33
109478.33
109478.33
109478.33
109478.33
109478.33
109478.33
109478.33
109478.33
109478.33
109478.33
109478.33
109478.33
109478.33
109478.33
109478.33
109478.33
109478.33
109478.33
109478.33
109478.33
109478.33
109478.33
109478.33
109478.33
109478.33
109478.33
109478.33
109478.33
109478.33
109478.33
109478.33
109478.33
109478.33
109478.33
109478.33
109478.33
109478.33
109478.33
109478.33
109478.33
109478.33
109478.33
109478.33
109478.33
109478.33
109478.33
109478.33
109478.33
109478.33
109478.33
109478.33
109478.33
109478.33
109478.33
109478.33
109478.33
109478.33
109478.33
109478.33
109478.33
109478.33
109478.33
109478.33
109478.33
109478.33
109478.33
109478.33
109478.33
109478.33
109478.33
109478.33
109478.33
109478.33
109478.33
109478.33
109478.33
109478.33
109478.33
109478.33
109478.33
109478.33
109478.33
109478.33
109478.33
109478.33
109478.33
109478.33
109478.33
109478.33
109478.33
109478.33
109478.33
109478.33
109478.33
109478.33
109478.33
109478.33
109478.33
109478.33
109478.33
109478.33
109478.33
109478.33
109478.33
109478.33
109478.33
109478.33
109478.33
109478.33
109478.33
109478.33
109478.33
109478.33
109478.33
109478.33
109478.33
109478.33
109478.33
109478.33
109478.33
109478.33
109478.33
109478.33
109478.33
109478.33
109478.33
109478.33
109478.33
109478.33
109478.33
109478.33
109478.33
109478.33
109478.33
109478.33
109478.33
109478.33
109478.33
109478.33
109478.33
109478.33
109478.33
109478.33
109478.33
109478.33
109478.33
109478.33
109478.33
109478.33
109478.33
109478.33
109478.33
109478.33
109478.33
109478.33
109478.33
109478.33
109478.33
109478.33
109478.33
109478.33
109478.33
109478.33
109478.33
109478.33
109478.33
109478.33
109478.33
109478.33
109478.33
109478.33
109478.33
109478.33
109478.33
109478.33
109478.33
109478.33
109478.33
109478.33
109478.33
109478.33
109478.33
109478.33
109478.33
109478.33
109478.33
109478.33
109478.33
109478.33
109478.33
109478.33
109478.33
109478.33
109478.33
109478.33
109478.33
109478.33
109478.33
109478.33
109478.33
109478.33
109478.33
109478.33
109478.33
109478.33
109478.33
109478.33
109478.33
109478.33
109478.33
109478.33
109478.33
109478.33
109478.33
109478.33
109478.33
109478.33
109478.33
109478.33
109478.33
109478.33
109478.33
109478.33
109478.33
109478.33
109478.33
109478.33
109478.33
109478.33
109478.33
109478.33
109478.33
109478.33
109478.33
109478.33
109478.33
109478.33
109478.33
109478.33
109478.33
109478.33
109478.33
109478.33
109478.33
109478.33
109478.33
109478.33
109478.33
109478.33
109478.33
109478.33
109478.33
109478.33
109478.33
109478.33
109478.33
109478.33
109478.33
109478.33
109478.33
109478.33
109478.33
109478.33
109478.33
109478.33
109478.33
109478.33
109478.33
109478.33
109478.33
109478.33
109478.33
109478.33
109478.33
109478.33
109478.33
109478.33
109478.33
109478.33
109478.33
109478.33
109478.33
109478.33
109478.33
109478.33
109478.33
109478.33
109478.33
109478.33
109478.33
109478.33
109478.33
109478.33
109478.33
109478.33
109478.33
109478.33
109478.33
109478.33
109478.33
109478.33
109478.33
109478.33
109478.33
109478.33
109478.33
109478.33
109478.33
109478.33
109478.33
109478.33
109478.33
109478.33
109478.33
109478.33
109478.33
109478.33
109478.33
109478.33
109478.33
109478.33
109478.33
109478.33
109478.33
109478.33
109478.33
109478.33
109478.33
109478.33
109478.33
109478.33
109478.33
109478.33
109478.33
109478.33
109478.33
109478.33
109478.33
109478.33
109478.33
109478.33
109478.33
109478.33
109478.33
109478.33
109478.33
109478.33
109478.33
109478.33
109478.33
109478.33
109478.33
109478.33
109478.33
109478.33
109478.33
109478.33
109478.33
109478.33
109478.34
109478.34
109478.34
109478.34
109478.34
109478.34
109478.33
109478.33
109478.33
109478.33
109478.33
109478.33
109478.33
109478.33
109478.33
109478.33
109478.34
109478.34
109478.34
109478.34
109478.34
109478.35
109478.35
109478.34
109478.35
109478.31
109478.33
109478.33
109478.33
109478.33
109478.33
109478.33
109478.33
109478.33
109478.33
109478.34
109478.34
109478.34
109478.34
109478.34
109478.34
109478.34
109478.34
109478.34
109478.34
109478.34
109478.34
109478.34
109478.34
109478.34
109478.34
109478.34
109478.34
109478.34
109478.34
109478.34
109478.34
109478.34
109478.34
109478.34
109478.34
109478.34
109478.34
109478.34
109478.34
109478.34
109478.34
109478.34
109478.34
109478.34
109478.34
109478.34
109478.34
109478.34
109478.34
109478.34
109478.34
109478.34
109478.34
109478.34
109478.34
109478.34
109478.34
109478.34
109478.34
109478.34
109478.34
109478.34
109478.34
109478.34
109478.34
109478.34
109478.34
109478.34
109478.34
109478.34
109478.34
109478.34
109478.34
109478.34
109478.34
109478.34
109478.34
109478.34
109478.34
109478.34
109478.34
109478.34
109478.34
109478.34
109478.34
109478.34
109478.34
109478.34
109478.34
109478.34
109478.34
109478.34
109478.34
109478.34
109478.34
109478.34
109478.34
109478.34
109478.34
109478.33
109478.33
109478.33
109478.33
109478.33
109478.33
109478.33
109478.33
109478.33
109478.33
109478.33
109478.33
109478.33
109478.33
109478.33
109478.33
109478.33
109478.33
109478.33
109478.33
109478.33
109478.33
109478.33
109478.33
109478.33
109478.33
109478.33
109478.33
109478.33
109478.33
109478.33
109478.33
109478.33
109478.33
109478.33
109478.33
109478.33
109478.33
109478.33
109478.33
109478.33
109478.33
109478.33
109478.33
109478.33
109478.33
109478.33
109478.33
109478.33
109478.33
109478.33
109478.33
109478.33
109478.33
109478.33
109478.33
109478.33
109478.33
109478.33
109478.33
109478.33
109478.33
109478.33
109478.33
109478.33
109478.33
109478.33
109478.33
109478.33
109478.33
109478.33
109478.33
109478.33
109478.33
109478.33
109478.33
109478.33
109478.33
109478.33
109478.33
109478.33
109478.33
109478.33
109478.33
109478.33
109478.33
109478.33
109478.33
109478.33
109478.33
109478.33
109478.33
109478.33
109478.33
109478.33
109478.33
109478.33
109478.33
109478.33
109478.33
109478.33
109478.33
109478.33
109478.33
109478.33
109478.33
109478.33
109478.33
109478.33
109478.33
109478.33
109478.33
109478.33
109478.33
109478.33
109478.33
109478.33
109478.33
109478.33
109478.33
109478.33
109478.33
109478.33
109478.33
109478.33
109478.33
109478.33
109478.33
109478.33
109478.33
109478.33
109478.33
109478.33
109478.33
109478.33
109478.33
109478.33
109478.33
109478.33
109478.33
109478.33
109478.33