/*--------------------------------*- C++ -*----------------------------------*\
  =========                 |
  \\      /  F ield         | OpenFOAM: The Open Source CFD Toolbox
   \\    /   O peration     | Website:  https://openfoam.org
    \\  /    A nd           | Version:  7
     \\/     M anipulation  |
\*---------------------------------------------------------------------------*/
FoamFile
{
    version     2.0;
    format      ascii;
    class       surfaceScalarField;
    location    "0.00298";
    object      phi;
}
// * * * * * * * * * * * * * * * * * * * * * * * * * * * * * * * * * * * * * //

dimensions      [1 0 -1 0 0 0 0];

internalField   nonuniform List<scalar> 
4999
(
-3.3299149
-3.3284248
-3.326934
-3.3254429
-3.3239512
-3.3224593
-3.3209666
-3.3194738
-3.3179802
-3.3164866
-3.3149921
-3.3134977
-3.3120023
-3.310507
-3.3090108
-3.3075148
-3.3060178
-3.304521
-3.3030231
-3.3015256
-3.3000269
-3.2985287
-3.2970293
-3.2955303
-3.2940301
-3.2925305
-3.2910295
-3.2895292
-3.2880276
-3.2865266
-3.2850242
-3.2835226
-3.2820195
-3.2805173
-3.2790135
-3.2775107
-3.2760062
-3.2745027
-3.2729976
-3.2714935
-3.2699878
-3.268483
-3.2669768
-3.2654713
-3.2639645
-3.2624583
-3.2609511
-3.2594441
-3.2579365
-3.2564288
-3.2549207
-3.2534123
-3.2519036
-3.2503947
-3.2488854
-3.2473759
-3.2458661
-3.244356
-3.2428456
-3.241335
-3.239824
-3.2383128
-3.2368012
-3.2352895
-3.2337774
-3.232265
-3.2307523
-3.2292394
-3.2277262
-3.2262128
-3.224699
-3.2231849
-3.2216706
-3.220156
-3.2186411
-3.217126
-3.2156105
-3.2140948
-3.2125787
-3.2110625
-3.2095459
-3.208029
-3.2065119
-3.2049945
-3.2034768
-3.2019588
-3.2004405
-3.1989219
-3.1974031
-3.195884
-3.1943645
-3.1928449
-3.1913248
-3.1898046
-3.188284
-3.1867632
-3.185242
-3.1837206
-3.1821989
-3.1806769
-3.1791546
-3.177632
-3.1761091
-3.1745859
-3.1730625
-3.1715387
-3.1700147
-3.1684903
-3.1669657
-3.1654408
-3.1639156
-3.1623901
-3.1608643
-3.1593382
-3.1578118
-3.1562852
-3.1547582
-3.153231
-3.1517035
-3.1501757
-3.1486476
-3.1471193
-3.1455906
-3.1440617
-3.1425325
-3.141003
-3.1394732
-3.1379432
-3.1364129
-3.1348823
-3.1333514
-3.1318203
-3.1302889
-3.1287573
-3.1272253
-3.1256931
-3.1241606
-3.1226279
-3.1210949
-3.1195617
-3.1180282
-3.1164944
-3.1149604
-3.1134262
-3.1118916
-3.1103569
-3.1088219
-3.1072866
-3.1057511
-3.1042154
-3.1026795
-3.1011433
-3.0996069
-3.0980702
-3.0965333
-3.0949963
-3.0934589
-3.0919214
-3.0903836
-3.0888457
-3.0873075
-3.0857691
-3.0842305
-3.0826918
-3.0811528
-3.0796136
-3.0780742
-3.0765347
-3.0749949
-3.073455
-3.0719149
-3.0703746
-3.0688341
-3.0672935
-3.0657526
-3.0642117
-3.0626705
-3.0611292
-3.0595877
-3.0580461
-3.0565043
-3.0549624
-3.0534203
-3.0518781
-3.0503357
-3.0487932
-3.0472506
-3.0457078
-3.0441649
-3.0426219
-3.0410787
-3.0395354
-3.037992
-3.0364485
-3.0349048
-3.033361
-3.0318171
-3.0302732
-3.028729
-3.0271848
-3.0256405
-3.0240961
-3.0225516
-3.0210069
-3.0194622
-3.0179174
-3.0163725
-3.0148275
-3.0132824
-3.0117372
-3.0101919
-3.0086466
-3.0071011
-3.0055556
-3.00401
-3.0024643
-3.0009186
-2.9993727
-2.9978268
-2.9962808
-2.9947348
-2.9931887
-2.9916425
-2.9900962
-2.9885499
-2.9870035
-2.985457
-2.9839104
-2.9823638
-2.9808172
-2.9792705
-2.9777237
-2.9761768
-2.9746299
-2.9730829
-2.9715359
-2.9699888
-2.9684417
-2.9668945
-2.9653473
-2.9637999
-2.9622526
-2.9607052
-2.9591577
-2.9576102
-2.9560626
-2.954515
-2.9529673
-2.9514196
-2.9498718
-2.9483239
-2.9467761
-2.9452281
-2.9436801
-2.9421321
-2.940584
-2.9390359
-2.9374877
-2.9359395
-2.9343912
-2.9328429
-2.9312945
-2.9297461
-2.9281976
-2.9266491
-2.9251005
-2.9235519
-2.9220033
-2.9204546
-2.9189058
-2.917357
-2.9158082
-2.9142593
-2.9127104
-2.9111614
-2.9096123
-2.9080633
-2.9065142
-2.904965
-2.9034158
-2.9018665
-2.9003172
-2.8987679
-2.8972185
-2.895669
-2.8941196
-2.89257
-2.8910204
-2.8894708
-2.8879211
-2.8863714
-2.8848217
-2.8832719
-2.881722
-2.8801721
-2.8786222
-2.8770722
-2.8755222
-2.8739721
-2.872422
-2.8708718
-2.8693216
-2.8677713
-2.866221
-2.8646706
-2.8631202
-2.8615698
-2.8600193
-2.8584688
-2.8569182
-2.8553676
-2.8538169
-2.8522662
-2.8507154
-2.8491646
-2.8476137
-2.8460628
-2.8445119
-2.8429609
-2.8414098
-2.8398587
-2.8383076
-2.8367564
-2.8352052
-2.8336539
-2.8321026
-2.8305513
-2.8289999
-2.8274484
-2.8258969
-2.8243454
-2.8227938
-2.8212421
-2.8196904
-2.8181387
-2.8165869
-2.8150351
-2.8134832
-2.8119313
-2.8103794
-2.8088274
-2.8072753
-2.8057232
-2.8041711
-2.8026189
-2.8010666
-2.7995144
-2.797962
-2.7964097
-2.7948572
-2.7933048
-2.7917523
-2.7901997
-2.7886471
-2.7870945
-2.7855418
-2.783989
-2.7824362
-2.7808834
-2.7793305
-2.7777776
-2.7762246
-2.7746716
-2.7731186
-2.7715655
-2.7700123
-2.7684591
-2.7669059
-2.7653526
-2.7637993
-2.7622459
-2.7606924
-2.759139
-2.7575855
-2.7560319
-2.7544783
-2.7529246
-2.7513709
-2.7498172
-2.7482634
-2.7467096
-2.7451557
-2.7436018
-2.7420478
-2.7404938
-2.7389397
-2.7373856
-2.7358315
-2.7342773
-2.732723
-2.7311687
-2.7296144
-2.72806
-2.7265056
-2.7249511
-2.7233966
-2.7218421
-2.7202875
-2.7187328
-2.7171781
-2.7156234
-2.7140686
-2.7125138
-2.7109589
-2.709404
-2.7078491
-2.706294
-2.704739
-2.7031839
-2.7016288
-2.7000736
-2.6985184
-2.6969631
-2.6954078
-2.6938524
-2.692297
-2.6907415
-2.6891861
-2.6876305
-2.6860749
-2.6845193
-2.6829636
-2.6814079
-2.6798521
-2.6782963
-2.6767405
-2.6751846
-2.6736285
-2.6720729
-2.6705164
-2.6689608
-2.6674042
-2.6658486
-2.6642918
-2.6627361
-2.6611793
-2.6596234
-2.6580667
-2.6565106
-2.6549538
-2.6533975
-2.6518408
-2.6502844
-2.6487276
-2.647171
-2.6456142
-2.6440575
-2.6425006
-2.6409438
-2.6393869
-2.6378299
-2.6362729
-2.6347159
-2.6331588
-2.6316017
-2.6300445
-2.6284873
-2.6269301
-2.6253728
-2.6238154
-2.6222581
-2.6207006
-2.6191432
-2.6175856
-2.6160281
-2.6144705
-2.6129128
-2.6113552
-2.6097974
-2.6082397
-2.6066818
-2.605124
-2.6035661
-2.6020082
-2.6004502
-2.5988922
-2.5973341
-2.595776
-2.5942178
-2.5926597
-2.5911014
-2.5895432
-2.5879848
-2.5864265
-2.584868
-2.5833096
-2.5817511
-2.5801926
-2.578634
-2.5770754
-2.5755167
-2.5739581
-2.5723993
-2.5708405
-2.5692817
-2.5677229
-2.566164
-2.564605
-2.563046
-2.561487
-2.5599279
-2.5583688
-2.5568097
-2.5552505
-2.5536913
-2.552132
-2.5505727
-2.5490134
-2.547454
-2.5458945
-2.5443351
-2.5427756
-2.541216
-2.5396564
-2.5380968
-2.5365371
-2.5349774
-2.5334177
-2.5318579
-2.5302981
-2.5287383
-2.5271784
-2.5256184
-2.5240585
-2.5224985
-2.5209384
-2.5193784
-2.5178182
-2.5162581
-2.5146979
-2.5131377
-2.5115775
-2.5100172
-2.5084569
-2.5068965
-2.5053362
-2.5037758
-2.5022153
-2.5006548
-2.4990943
-2.4975338
-2.4959732
-2.4944126
-2.492852
-2.4912913
-2.4897306
-2.4881698
-2.486609
-2.4850481
-2.4834872
-2.4819263
-2.4803653
-2.4788043
-2.4772432
-2.475682
-2.4741208
-2.4725595
-2.4709981
-2.4694367
-2.4678752
-2.4663137
-2.464752
-2.4631903
-2.4616285
-2.4600667
-2.4585047
-2.4569427
-2.4553806
-2.4538185
-2.4522562
-2.4506939
-2.4491315
-2.4475691
-2.4460065
-2.4444439
-2.4428813
-2.4413185
-2.4397557
-2.4381929
-2.43663
-2.435067
-2.4335039
-2.4319409
-2.4303777
-2.4288145
-2.4272513
-2.425688
-2.4241247
-2.4225613
-2.4209979
-2.4194345
-2.417871
-2.4163075
-2.4147439
-2.4131804
-2.4116167
-2.4100531
-2.4084894
-2.4069257
-2.4053619
-2.4037982
-2.4022344
-2.4006705
-2.3991067
-2.3975428
-2.3959789
-2.3944149
-2.3928509
-2.3912869
-2.3897229
-2.3881589
-2.3865948
-2.3850307
-2.3834666
-2.3819024
-2.3803382
-2.378774
-2.3772098
-2.3756456
-2.3740813
-2.372517
-2.3709527
-2.3693883
-2.3678239
-2.3662596
-2.3646951
-2.3631307
-2.3615662
-2.3600017
-2.3584372
-2.3568727
-2.3553081
-2.3537436
-2.352179
-2.3506143
-2.3490497
-2.347485
-2.3459203
-2.3443556
-2.3427909
-2.3412262
-2.3396614
-2.3380966
-2.3365318
-2.334967
-2.3334021
-2.3318372
-2.3302723
-2.3287074
-2.3271425
-2.3255775
-2.3240125
-2.3224475
-2.3208825
-2.3193175
-2.3177524
-2.3161874
-2.3146223
-2.3130572
-2.311492
-2.3099269
-2.3083617
-2.3067965
-2.3052313
-2.3036661
-2.3021009
-2.3005356
-2.2989703
-2.297405
-2.2958397
-2.2942744
-2.2927091
-2.2911437
-2.2895783
-2.2880129
-2.2864475
-2.2848821
-2.2833166
-2.2817512
-2.2801857
-2.2786202
-2.2770547
-2.2754892
-2.2739236
-2.272358
-2.2707925
-2.2692269
-2.2676612
-2.2660956
-2.2645299
-2.2629643
-2.2613986
-2.2598328
-2.2582671
-2.2567013
-2.2551355
-2.2535697
-2.2520038
-2.2504379
-2.248872
-2.247306
-2.24574
-2.244174
-2.242608
-2.2410419
-2.2394757
-2.2379095
-2.2363433
-2.234777
-2.2332107
-2.2316443
-2.2300779
-2.2285115
-2.226945
-2.2253784
-2.2238118
-2.2222451
-2.2206784
-2.2191117
-2.2175449
-2.215978
-2.2144111
-2.2128441
-2.2112771
-2.2097101
-2.208143
-2.2065758
-2.2050086
-2.2034414
-2.2018741
-2.2003068
-2.1987394
-2.197172
-2.1956045
-2.1940371
-2.1924695
-2.190902
-2.1893344
-2.1877668
-2.1861991
-2.1846314
-2.1830637
-2.181496
-2.1799282
-2.1783604
-2.1767925
-2.1752247
-2.1736568
-2.1720889
-2.170521
-2.168953
-2.167385
-2.165817
-2.164249
-2.162681
-2.1611129
-2.1595448
-2.1579767
-2.1564086
-2.1548405
-2.1532723
-2.1517041
-2.1501359
-2.1485677
-2.1469994
-2.1454312
-2.1438629
-2.1422946
-2.1407263
-2.1391579
-2.1375896
-2.1360212
-2.1344528
-2.1328844
-2.1313159
-2.1297475
-2.128179
-2.1266105
-2.125042
-2.1234734
-2.1219049
-2.1203363
-2.1187677
-2.1171991
-2.1156304
-2.1140618
-2.1124931
-2.1109244
-2.1093557
-2.1077869
-2.1062182
-2.1046494
-2.1030806
-2.1015118
-2.0999429
-2.098374
-2.0968051
-2.0952362
-2.0936673
-2.0920984
-2.0905294
-2.0889604
-2.0873914
-2.0858223
-2.0842533
-2.0826842
-2.0811151
-2.079546
-2.0779768
-2.0764076
-2.0748384
-2.0732692
-2.0717
-2.0701307
-2.0685615
-2.0669922
-2.0654228
-2.0638535
-2.0622841
-2.0607147
-2.0591453
-2.0575759
-2.0560064
-2.0544369
-2.0528674
-2.0512979
-2.0497283
-2.0481588
-2.0465892
-2.0450195
-2.0434499
-2.0418802
-2.0403105
-2.0387408
-2.0371711
-2.0356013
-2.0340315
-2.0324617
-2.0308919
-2.0293221
-2.0277522
-2.0261823
-2.0246124
-2.0230424
-2.0214725
-2.0199025
-2.0183325
-2.0167624
-2.0151924
-2.0136223
-2.0120521
-2.010482
-2.0089118
-2.0073416
-2.0057714
-2.0042012
-2.0026309
-2.0010606
-1.9994902
-1.9979198
-1.9963494
-1.994779
-1.9932085
-1.991638
-1.9900674
-1.9884969
-1.9869262
-1.9853556
-1.9837848
-1.9822141
-1.9806433
-1.9790724
-1.9775015
-1.9759306
-1.9743596
-1.9727886
-1.9712175
-1.9696463
-1.9680751
-1.9665039
-1.9649326
-1.9633612
-1.9617898
-1.9602183
-1.9586468
-1.9570752
-1.9555035
-1.9539318
-1.9523601
-1.9507882
-1.9492164
-1.9476444
-1.9460724
-1.9445004
-1.9429283
-1.9413561
-1.9397839
-1.9382116
-1.9366393
-1.9350669
-1.9334945
-1.931922
-1.9303495
-1.9287769
-1.9272043
-1.9256316
-1.9240589
-1.9224862
-1.9209134
-1.9193405
-1.9177676
-1.9161947
-1.9146217
-1.9130487
-1.9114756
-1.9099025
-1.9083294
-1.9067562
-1.905183
-1.9036098
-1.9020365
-1.9004632
-1.8988898
-1.8973164
-1.895743
-1.8941695
-1.8925961
-1.8910225
-1.889449
-1.8878754
-1.8863018
-1.8847281
-1.8831544
-1.8815807
-1.880007
-1.8784332
-1.8768594
-1.8752856
-1.8737117
-1.8721378
-1.8705638
-1.8689899
-1.8674159
-1.8658419
-1.8642678
-1.8626937
-1.8611196
-1.8595454
-1.8579713
-1.856397
-1.8548228
-1.8532485
-1.8516742
-1.8500999
-1.8485255
-1.8469511
-1.8453767
-1.8438022
-1.8422277
-1.8406532
-1.8390787
-1.8375041
-1.8359295
-1.8343548
-1.8327801
-1.8312054
-1.8296307
-1.8280559
-1.8264811
-1.8249063
-1.8233314
-1.8217565
-1.8201816
-1.8186067
-1.8170317
-1.8154567
-1.8138816
-1.8123065
-1.8107314
-1.8091563
-1.8075811
-1.8060059
-1.8044307
-1.8028554
-1.8012801
-1.7997048
-1.7981294
-1.796554
-1.7949786
-1.7934031
-1.7918277
-1.7902521
-1.7886766
-1.787101
-1.7855254
-1.7839498
-1.7823741
-1.7807984
-1.7792227
-1.7776469
-1.7760711
-1.7744953
-1.7729195
-1.7713436
-1.7697677
-1.7681917
-1.7666157
-1.7650397
-1.7634637
-1.7618876
-1.7603115
-1.7587353
-1.7571591
-1.7555829
-1.7540067
-1.7524304
-1.750854
-1.7492777
-1.7477013
-1.7461248
-1.7445484
-1.7429718
-1.7413953
-1.7398187
-1.738242
-1.7366654
-1.7350886
-1.7335119
-1.731935
-1.7303582
-1.7287813
-1.7272043
-1.7256273
-1.7240502
-1.7224731
-1.720896
-1.7193188
-1.7177415
-1.7161642
-1.7145868
-1.7130094
-1.7114319
-1.7098544
-1.7082768
-1.7066992
-1.7051215
-1.7035437
-1.7019659
-1.700388
-1.6988101
-1.6972321
-1.6956541
-1.694076
-1.6924979
-1.6909196
-1.6893414
-1.6877631
-1.6861847
-1.6846063
-1.6830278
-1.6814493
-1.6798707
-1.6782921
-1.6767134
-1.6751346
-1.6735559
-1.671977
-1.6703981
-1.6688192
-1.6672402
-1.6656612
-1.6640821
-1.662503
-1.6609239
-1.6593447
-1.6577654
-1.6561861
-1.6546068
-1.6530274
-1.651448
-1.6498686
-1.6482891
-1.6467096
-1.64513
-1.6435504
-1.6419707
-1.6403911
-1.6388114
-1.6372316
-1.6356518
-1.634072
-1.6324922
-1.6309123
-1.6293324
-1.6277524
-1.6261724
-1.6245924
-1.6230124
-1.6214323
-1.6198522
-1.618272
-1.6166918
-1.6151116
-1.6135314
-1.6119511
-1.6103708
-1.6087905
-1.6072101
-1.6056297
-1.6040493
-1.6024689
-1.6008884
-1.5993079
-1.5977273
-1.5961467
-1.5945661
-1.5929855
-1.5914048
-1.5898241
-1.5882434
-1.5866627
-1.5850819
-1.5835011
-1.5819202
-1.5803394
-1.5787584
-1.5771775
-1.5755966
-1.5740156
-1.5724345
-1.5708535
-1.5692724
-1.5676913
-1.5661102
-1.564529
-1.5629478
-1.5613666
-1.5597853
-1.5582041
-1.5566228
-1.5550414
-1.5534601
-1.5518787
-1.5502972
-1.5487158
-1.5471343
-1.5455528
-1.5439713
-1.5423897
-1.5408081
-1.5392265
-1.5376448
-1.5360632
-1.5344815
-1.5328997
-1.531318
-1.5297362
-1.5281544
-1.5265725
-1.5249906
-1.5234087
-1.5218268
-1.5202449
-1.5186629
-1.5170809
-1.5154988
-1.5139168
-1.5123347
-1.5107525
-1.5091704
-1.5075882
-1.506006
-1.5044238
-1.5028415
-1.5012592
-1.4996769
-1.4980945
-1.4965121
-1.4949297
-1.4933472
-1.4917648
-1.4901822
-1.4885997
-1.4870171
-1.4854345
-1.4838518
-1.4822691
-1.4806864
-1.4791037
-1.4775209
-1.475938
-1.4743552
-1.4727723
-1.4711893
-1.4696063
-1.4680233
-1.4664403
-1.4648571
-1.463274
-1.4616908
-1.4601076
-1.4585243
-1.456941
-1.4553576
-1.4537742
-1.4521907
-1.4506072
-1.4490237
-1.4474401
-1.4458564
-1.4442727
-1.442689
-1.4411052
-1.4395214
-1.4379375
-1.4363535
-1.4347696
-1.4331855
-1.4316014
-1.4300173
-1.4284331
-1.4268489
-1.4252646
-1.4236803
-1.422096
-1.4205115
-1.4189271
-1.4173426
-1.415758
-1.4141734
-1.4125888
-1.4110041
-1.4094194
-1.4078346
-1.4062498
-1.4046649
-1.4030801
-1.4014951
-1.3999101
-1.3983251
-1.3967401
-1.395155
-1.3935699
-1.3919847
-1.3903995
-1.3888143
-1.387229
-1.3856437
-1.3840583
-1.382473
-1.3808876
-1.3793021
-1.3777167
-1.3761312
-1.3745457
-1.3729601
-1.3713745
-1.3697889
-1.3682033
-1.3666176
-1.365032
-1.3634463
-1.3618605
-1.3602748
-1.358689
-1.3571032
-1.3555173
-1.3539315
-1.3523456
-1.3507597
-1.3491738
-1.3475878
-1.3460019
-1.3444159
-1.3428299
-1.3412438
-1.3396578
-1.3380717
-1.3364856
-1.3348995
-1.3333134
-1.3317273
-1.3301411
-1.3285549
-1.3269687
-1.3253825
-1.3237963
-1.3222101
-1.3206238
-1.3190375
-1.3174512
-1.3158649
-1.3142786
-1.3126923
-1.3111059
-1.3095195
-1.3079332
-1.3063468
-1.3047604
-1.3031739
-1.3015875
-1.3000011
-1.2984146
-1.2968281
-1.2952417
-1.2936552
-1.2920687
-1.2904822
-1.2888956
-1.2873091
-1.2857226
-1.284136
-1.2825495
-1.2809629
-1.2793763
-1.2777898
-1.2762032
-1.2746166
-1.27303
-1.2714434
-1.2698567
-1.2682701
-1.2666835
-1.2650969
-1.2635102
-1.2619236
-1.260337
-1.2587503
-1.2571637
-1.255577
-1.2539904
-1.2524037
-1.250817
-1.2492304
-1.2476437
-1.246057
-1.2444704
-1.2428837
-1.241297
-1.2397104
-1.2381237
-1.236537
-1.2349504
-1.2333637
-1.231777
-1.2301903
-1.2286037
-1.227017
-1.2254303
-1.2238437
-1.222257
-1.2206703
-1.2190836
-1.217497
-1.2159103
-1.2143236
-1.2127369
-1.2111502
-1.2095636
-1.2079769
-1.2063902
-1.2048035
-1.2032168
-1.2016301
-1.2000434
-1.1984567
-1.19687
-1.1952833
-1.1936966
-1.1921099
-1.1905232
-1.1889364
-1.1873497
-1.185763
-1.1841762
-1.1825895
-1.1810027
-1.1794159
-1.1778291
-1.1762423
-1.1746555
-1.1730687
-1.1714819
-1.1698951
-1.1683082
-1.1667214
-1.1651345
-1.1635477
-1.1619608
-1.1603739
-1.158787
-1.1572
-1.1556131
-1.1540262
-1.1524392
-1.1508522
-1.1492653
-1.1476783
-1.1460913
-1.1445043
-1.1429172
-1.1413302
-1.1397431
-1.1381561
-1.136569
-1.1349819
-1.1333948
-1.1318077
-1.1302206
-1.1286334
-1.1270463
-1.1254591
-1.123872
-1.1222848
-1.1206976
-1.1191104
-1.1175232
-1.115936
-1.1143488
-1.1127615
-1.1111743
-1.109587
-1.1079998
-1.1064125
-1.1048252
-1.1032379
-1.1016506
-1.1000633
-1.098476
-1.0968886
-1.0953013
-1.0937139
-1.0921266
-1.0905392
-1.0889518
-1.0873644
-1.085777
-1.0841896
-1.0826022
-1.0810148
-1.0794273
-1.0778399
-1.0762524
-1.0746649
-1.0730774
-1.0714899
-1.0699024
-1.0683149
-1.0667274
-1.0651398
-1.0635523
-1.0619647
-1.0603771
-1.0587895
-1.0572019
-1.0556143
-1.0540266
-1.0524389
-1.0508513
-1.0492636
-1.0476759
-1.0460881
-1.0445004
-1.0429126
-1.0413249
-1.0397371
-1.0381493
-1.0365614
-1.0349736
-1.0333857
-1.0317978
-1.0302099
-1.028622
-1.0270341
-1.0254461
-1.0238581
-1.0222701
-1.0206821
-1.019094
-1.017506
-1.0159179
-1.0143298
-1.0127417
-1.0111535
-1.0095653
-1.0079772
-1.0063889
-1.0048007
-1.0032125
-1.0016242
-1.0000359
-0.99844756
-0.99685922
-0.99527085
-0.99368247
-0.99209406
-0.99050563
-0.98891718
-0.98732871
-0.98574022
-0.9841517
-0.98256316
-0.9809746
-0.97938602
-0.97779741
-0.97620879
-0.97462014
-0.97303147
-0.97144278
-0.96985407
-0.96826533
-0.96667658
-0.9650878
-0.96349901
-0.96191019
-0.96032135
-0.95873249
-0.9571436
-0.9555547
-0.95396578
-0.95237683
-0.95078786
-0.94919888
-0.94760987
-0.94602083
-0.94443178
-0.94284271
-0.94125362
-0.9396645
-0.93807537
-0.93648622
-0.93489704
-0.93330785
-0.93171863
-0.93012939
-0.92854013
-0.92695085
-0.92536155
-0.92377223
-0.92218289
-0.92059352
-0.91900414
-0.91741473
-0.9158253
-0.91423584
-0.91264637
-0.91105686
-0.90946734
-0.90787779
-0.90628822
-0.90469863
-0.90310902
-0.90151938
-0.89992973
-0.89834005
-0.89675035
-0.89516063
-0.89357089
-0.89198113
-0.89039134
-0.88880153
-0.88721171
-0.88562185
-0.88403198
-0.88244209
-0.88085217
-0.87926224
-0.87767228
-0.87608231
-0.87449231
-0.87290229
-0.87131225
-0.8697222
-0.86813212
-0.86654203
-0.86495192
-0.8633618
-0.86177165
-0.86018149
-0.85859131
-0.85700112
-0.85541091
-0.85382069
-0.85223045
-0.8506402
-0.84904994
-0.84745967
-0.84586938
-0.84427909
-0.84268878
-0.84109846
-0.83950814
-0.8379178
-0.83632746
-0.83473711
-0.83314676
-0.8315564
-0.82996604
-0.82837567
-0.8267853
-0.82519492
-0.82360455
-0.82201417
-0.82042379
-0.8188334
-0.81724302
-0.81565263
-0.81406224
-0.81247185
-0.81088147
-0.80929108
-0.8077007
-0.80611032
-0.80451994
-0.80292957
-0.8013392
-0.79974883
-0.79815848
-0.79656812
-0.79497777
-0.79338743
-0.79179709
-0.79020676
-0.78861643
-0.78702611
-0.7854358
-0.78384549
-0.78225518
-0.78066488
-0.77907459
-0.77748431
-0.77589403
-0.77430377
-0.77271351
-0.77112325
-0.76953301
-0.76794277
-0.76635253
-0.76476231
-0.76317209
-0.76158187
-0.75999167
-0.75840147
-0.75681127
-0.75522109
-0.7536309
-0.75204073
-0.75045056
-0.74886039
-0.74727023
-0.74568007
-0.74408992
-0.74249978
-0.74090964
-0.7393195
-0.73772937
-0.73613925
-0.73454913
-0.73295901
-0.73136889
-0.72977878
-0.72818866
-0.72659855
-0.72500845
-0.72341834
-0.72182823
-0.72023813
-0.71864803
-0.71705793
-0.71546783
-0.71387773
-0.71228763
-0.71069752
-0.70910742
-0.70751732
-0.70592721
-0.7043371
-0.70274699
-0.70115687
-0.69956676
-0.69797663
-0.69638651
-0.69479638
-0.69320625
-0.69161612
-0.69002598
-0.68843583
-0.68684568
-0.68525553
-0.68366536
-0.68207519
-0.68048501
-0.67889482
-0.67730462
-0.67571442
-0.6741242
-0.67253397
-0.67094374
-0.66935349
-0.66776324
-0.66617297
-0.66458269
-0.6629924
-0.6614021
-0.65981179
-0.65822146
-0.65663111
-0.65504076
-0.65345038
-0.65186
-0.65026959
-0.64867918
-0.64708874
-0.64549829
-0.64390782
-0.64231734
-0.64072683
-0.63913631
-0.63754576
-0.6359552
-0.63436462
-0.63277402
-0.6311834
-0.62959277
-0.62800211
-0.62641143
-0.62482073
-0.62323001
-0.62163927
-0.6200485
-0.61845772
-0.61686691
-0.61527608
-0.61368524
-0.61209436
-0.61050347
-0.60891256
-0.60732162
-0.60573066
-0.60413969
-0.60254869
-0.60095767
-0.59936663
-0.59777556
-0.59618448
-0.59459338
-0.59300226
-0.59141112
-0.58981996
-0.58822878
-0.58663758
-0.58504637
-0.58345514
-0.58186389
-0.58027263
-0.57868135
-0.57709005
-0.57549874
-0.57390742
-0.57231609
-0.57072474
-0.56913338
-0.56754201
-0.56595063
-0.56435923
-0.56276783
-0.56117642
-0.559585
-0.55799357
-0.55640213
-0.55481069
-0.55321924
-0.55162778
-0.55003632
-0.54844486
-0.54685339
-0.54526192
-0.54367045
-0.54207897
-0.54048749
-0.53889601
-0.53730453
-0.53571306
-0.53412158
-0.53253011
-0.53093863
-0.52934716
-0.5277557
-0.52616424
-0.52457278
-0.52298133
-0.52138988
-0.51979844
-0.518207
-0.51661558
-0.51502415
-0.51343274
-0.51184134
-0.51024994
-0.50865855
-0.50706717
-0.50547581
-0.50388445
-0.5022931
-0.50070176
-0.49911043
-0.49751911
-0.49592781
-0.49433651
-0.49274523
-0.49115396
-0.4895627
-0.48797146
-0.48638023
-0.48478901
-0.4831978
-0.48160661
-0.48001543
-0.47842427
-0.47683311
-0.47524197
-0.47365084
-0.47205973
-0.47046862
-0.46887753
-0.46728645
-0.46569538
-0.46410433
-0.46251328
-0.46092225
-0.45933123
-0.45774022
-0.45614922
-0.45455824
-0.45296726
-0.45137629
-0.44978534
-0.44819439
-0.44660346
-0.44501253
-0.44342161
-0.44183071
-0.44023981
-0.43864892
-0.43705804
-0.43546717
-0.4338763
-0.43228544
-0.43069459
-0.42910374
-0.4275129
-0.42592207
-0.42433124
-0.42274042
-0.4211496
-0.41955878
-0.41796797
-0.41637717
-0.41478636
-0.41319556
-0.41160476
-0.41001397
-0.40842318
-0.40683238
-0.40524159
-0.4036508
-0.40206001
-0.40046922
-0.39887843
-0.39728764
-0.39569685
-0.39410605
-0.39251525
-0.39092445
-0.38933364
-0.38774283
-0.38615201
-0.38456119
-0.38297036
-0.38137953
-0.37978869
-0.37819784
-0.37660699
-0.37501613
-0.37342526
-0.37183439
-0.3702435
-0.36865261
-0.3670617
-0.36547078
-0.36387986
-0.36228892
-0.36069797
-0.359107
-0.35751603
-0.35592504
-0.35433404
-0.35274303
-0.351152
-0.34956096
-0.3479699
-0.34637883
-0.34478774
-0.34319664
-0.34160553
-0.3400144
-0.33842325
-0.33683208
-0.3352409
-0.33364971
-0.3320585
-0.33046727
-0.32887603
-0.32728477
-0.3256935
-0.32410221
-0.3225109
-0.32091958
-0.31932825
-0.31773689
-0.31614553
-0.31455415
-0.31296275
-0.31137135
-0.30977993
-0.30818849
-0.30659704
-0.30500559
-0.30341412
-0.30182264
-0.30023114
-0.29863965
-0.29704814
-0.29545662
-0.2938651
-0.29227357
-0.29068204
-0.28909051
-0.28749897
-0.28590743
-0.28431589
-0.28272435
-0.28113282
-0.27954129
-0.27794976
-0.27635824
-0.27476672
-0.27317522
-0.27158373
-0.26999225
-0.26840078
-0.26680933
-0.2652179
-0.26362648
-0.26203509
-0.26044373
-0.25885238
-0.25726107
-0.25566978
-0.25407852
-0.2524873
-0.25089611
-0.24930496
-0.24771385
-0.24612278
-0.24453176
-0.24294078
-0.24134986
-0.23975898
-0.23816816
-0.2365774
-0.23498669
-0.23339605
-0.23180547
-0.23021495
-0.22862451
-0.22703414
-0.22544384
-0.22385362
-0.22226348
-0.22067342
-0.21908345
-0.21749356
-0.21590377
-0.21431407
-0.21272447
-0.21113497
-0.20954557
-0.20795628
-0.2063671
-0.20477802
-0.20318907
-0.20160023
-0.20001151
-0.19842291
-0.19683444
-0.1952461
-0.19365789
-0.19206982
-0.19048188
-0.18889409
-0.18730644
-0.18571894
-0.18413159
-0.1825444
-0.18095736
-0.17937048
-0.17778376
-0.17619721
-0.17461083
-0.17302462
-0.17143859
-0.16985273
-0.16826705
-0.16668156
-0.16509625
-0.16351114
-0.16192622
-0.16034149
-0.15875696
-0.15717264
-0.15558852
-0.1540046
-0.1524209
-0.15083741
-0.14925414
-0.14767109
-0.14608827
-0.14450566
-0.14292329
-0.14134115
-0.13975924
-0.13817757
-0.13659614
-0.13501495
-0.13343401
-0.13185331
-0.13027286
-0.12869267
-0.12711273
-0.12553305
-0.12395364
-0.12237448
-0.12079559
-0.11921697
-0.11763863
-0.11606055
-0.11448275
-0.11290523
-0.11132799
-0.10975104
-0.10817437
-0.10659799
-0.10502189
-0.1034461
-0.10187059
-0.10029539
-0.09872048
-0.097145876
-0.095571576
-0.093997581
-0.092423895
-0.090850519
-0.089277455
-0.087704705
-0.086132272
-0.084560158
-0.082988364
-0.081416892
-0.079845745
-0.078274923
-0.07670443
-0.075134265
-0.073564432
-0.071994931
-0.070425764
-0.068856933
-0.067288439
-0.065720283
-0.064152468
-0.062584995
-0.061017866
-0.059451081
-0.057884642
-0.056318551
-0.054752809
-0.053187417
-0.051622376
-0.050057687
-0.048493353
-0.046929376
-0.045365752
-0.043802485
-0.042239576
-0.040677025
-0.039114834
-0.037553003
-0.035991534
-0.034430427
-0.032869682
-0.031309301
-0.029749284
-0.028189632
-0.026630345
-0.025071424
-0.023512869
-0.021954681
-0.020396859
-0.018839405
-0.017282319
-0.015725601
-0.01416925
-0.012613268
-0.011057654
-0.0095024081
-0.0079475305
-0.0063930212
-0.0048388799
-0.0032851064
-0.0017317006
-0.00017866206
0.0013740095
0.0029263144
0.0044782532
0.0060298263
0.0075810344
0.0091318779
0.010682358
0.012232474
0.013782229
0.015331621
0.016880654
0.018429326
0.01997764
0.021525595
0.023073195
0.024620438
0.026167327
0.027713863
0.029260047
0.03080588
0.032351364
0.0338965
0.035441289
0.036985733
0.038529833
0.040073592
0.04161701
0.043160089
0.044702831
0.046245237
0.047787309
0.04932905
0.05087046
0.052411542
0.053952297
0.055492728
0.057032836
0.058572623
0.060112092
0.061651244
0.063190082
0.064728607
0.066266823
0.067804729
0.069342331
0.070879628
0.072416624
0.073953321
0.075489721
0.077025827
0.07856164
0.080097163
0.081632399
0.083167349
0.084702016
0.086236402
0.087770511
0.089304344
0.090837904
0.092371193
0.093904215
0.095436972
0.096969467
0.098501702
0.10003368
0.1015654
0.10309688
0.1046281
0.10615908
0.10768981
0.1092203
0.11075056
0.11228058
0.11381036
0.11533992
0.11686925
0.11839835
0.11992723
0.1214559
0.12298434
0.12451258
0.12604061
0.12756842
0.12909604
0.13062345
0.13215066
0.13367768
0.13520451
0.13673114
0.13825759
0.13978385
0.14130993
0.14283584
0.14436157
0.14588712
0.14741251
0.14893773
0.15046278
0.15198768
0.15351242
0.155037
0.15656143
0.15808571
0.15960985
0.16113384
0.16265769
0.16418141
0.16570499
0.16722844
0.16875176
0.17027496
0.17179804
0.17332099
0.17484384
0.17636657
0.17788919
0.1794117
0.18093411
0.18245642
0.18397864
0.18550076
0.18702279
0.18854473
0.19006659
0.19158836
0.19311006
0.19463168
0.19615323
0.19767471
0.19919613
0.20071748
0.20223877
0.20376001
0.20528119
0.20680233
0.20832341
0.20984446
0.21136546
0.21288643
0.21440737
0.21592828
0.21744916
0.21897002
0.22049086
0.22201168
0.22353249
0.2250533
0.2265741
0.2280949
0.2296157
0.23113651
0.23265733
0.23417816
0.23569901
0.23721988
0.23874077
0.2402617
0.24178265
0.24330365
0.24482468
0.24634575
0.24786688
0.24938805
0.25090929
0.25243058
0.25395194
0.25547336
0.25699486
0.25851643
0.26003809
0.26155983
0.26308166
0.26460359
0.26612561
0.26764773
0.26916997
0.27069231
0.27221477
0.27373735
0.27526006
0.27678289
0.27830586
0.27982896
0.28135221
0.28287561
0.28439916
0.28592286
0.28744673
0.28897076
0.29049497
0.29201935
0.2935439
0.29506865
0.29659358
0.29811871
0.29964404
0.30116957
0.30269531
0.30422126
0.30574743
0.30727383
0.30880045
0.3103273
0.31185439
0.31338173
0.31490931
0.31643714
0.31796523
0.31949358
0.3210222
0.32255108
0.32408024
0.32560968
0.32713941
0.32866942
0.33019973
0.33173034
0.33326125
0.33479247
0.336324
0.33785585
0.33938801
0.34092051
0.34245334
0.3439865
0.34551999
0.34705384
0.34858803
0.35012257
0.35165746
0.35319272
0.35472834
0.35626433
0.35780069
0.35933743
0.36087455
0.36241205
0.36394994
0.36548823
0.36702691
0.36856599
0.37010548
0.37164537
0.37318568
0.3747264
0.37626754
0.3778091
0.37935108
0.38089349
0.38243634
0.38397962
0.38552333
0.38706749
0.38861209
0.39015713
0.39170263
0.39324858
0.39479498
0.39634184
0.39788917
0.39943695
0.4009852
0.40253393
0.40408312
0.40563278
0.40718292
0.40873353
0.41028463
0.4118362
0.41338826
0.4149408
0.41649383
0.41804734
0.41960135
0.42115585
0.42271085
0.42426634
0.42582232
0.4273788
0.42893579
0.43049327
0.43205125
0.43360974
0.43516872
0.43672822
0.43828821
0.43984871
0.44140972
0.44297123
0.44453325
0.44609578
0.44765882
0.44922236
0.45078641
0.45235098
0.45391605
0.45548162
0.45704771
0.4586143
0.4601814
0.46174901
0.46331712
0.46488574
0.46645487
0.4680245
0.46959463
0.47116527
0.4727364
0.47430805
0.47588019
0.47745283
0.47902596
0.4805996
0.48217373
0.48374835
0.48532346
0.48689907
0.48847516
0.49005174
0.49162881
0.49320636
0.49478439
0.4963629
0.49794189
0.49952135
0.50110128
0.50268169
0.50426257
0.50584391
0.50742572
0.50900798
0.51059071
0.51217389
0.51375753
0.51534162
0.51692616
0.51851114
0.52009656
0.52168243
0.52326873
0.52485546
0.52644262
0.52803022
0.52961823
0.53120666
0.53279552
0.53438478
0.53597446
0.53756454
0.53915502
0.54074591
0.54233719
0.54392886
0.54552093
0.54711337
0.5487062
0.55029941
0.55189299
0.55348694
0.55508125
0.55667593
0.55827097
0.55986636
0.5614621
0.56305819
0.56465462
0.56625139
0.5678485
0.56944594
0.57104371
0.57264179
0.5742402
0.57583893
0.57743796
0.5790373
0.58063694
0.58223689
0.58383713
0.58543765
0.58703847
0.58863957
0.59024095
0.59184261
0.59344454
0.59504674
0.5966492
0.59825193
0.59985491
0.60145815
0.60306164
0.60466537
0.60626935
0.60787356
0.60947802
0.6110827
0.61268762
0.61429275
0.61589811
0.61750369
0.61910947
0.62071548
0.62232168
0.6239281
0.62553471
0.62714151
0.62874852
0.6303557
0.63196308
0.63357065
0.63517838
0.63678631
0.6383944
0.64000266
0.64161109
0.64321968
0.64482844
0.64643735
0.64804642
0.64965564
0.65126501
0.65287452
0.65448419
0.65609399
0.65770392
0.659314
0.6609242
0.66253454
0.664145
0.66575559
0.6673663
0.66897713
0.67058807
0.67219914
0.67381031
0.67542159
0.67703299
0.67864448
0.68025607
0.68186777
0.68347956
0.68509144
0.68670342
0.68831548
0.68992763
0.69153987
0.69315219
0.69476458
0.69637706
0.69798962
0.69960224
0.70121494
0.70282772
0.70444055
0.70605346
0.70766643
0.70927947
0.71089256
0.71250572
0.71411892
0.71573219
0.71734551
0.71895888
0.7205723
0.72218577
0.72379929
0.72541285
0.72702646
0.72864012
0.73025381
0.73186755
0.73348132
0.73509514
0.73670899
0.73832288
0.73993681
0.74155077
0.74316477
0.7447788
0.74639285
0.74800694
0.74962106
0.75123521
0.75284938
0.75446359
0.75607782
0.75769207
0.75930636
0.76092066
0.762535
0.76414935
0.76576373
0.76737814
0.76899257
0.77060702
0.7722215
0.773836
0.77545053
0.77706508
0.77867965