/*--------------------------------*- C++ -*----------------------------------*\
  =========                 |
  \\      /  F ield         | OpenFOAM: The Open Source CFD Toolbox
   \\    /   O peration     | Website:  https://openfoam.org
    \\  /    A nd           | Version:  7
     \\/     M anipulation  |
\*---------------------------------------------------------------------------*/
FoamFile
{
    version     2.0;
    format      ascii;
    class       volScalarField;
    location    "0.00298";
    object      rho;
}
// * * * * * * * * * * * * * * * * * * * * * * * * * * * * * * * * * * * * * //

dimensions      [1 -3 0 0 0 0 0];

internalField   nonuniform List<scalar> 
5000
(
0.92912822
0.92915842
0.92919204
0.9292355
0.92926887
0.92931234
0.92934574
0.92938897
0.92942246
0.92946545
0.92949908
0.92954182
0.92957564
0.92961808
0.92965212
0.92969423
0.92972853
0.92977029
0.92980487
0.92984623
0.92988113
0.92992205
0.92995731
0.92999776
0.93003341
0.93007334
0.93010943
0.9301488
0.93018538
0.93022413
0.93026125
0.93029934
0.93033704
0.93037446
0.93041273
0.93044944
0.9304884
0.9305243
0.93056398
0.93059905
0.93063949
0.93067374
0.93071483
0.93074845
0.93079004
0.93082307
0.93086515
0.93089771
0.93094005
0.93097243
0.93101477
0.93104711
0.93108942
0.93112173
0.931164
0.93119628
0.93123852
0.93127078
0.93131298
0.93134521
0.93138738
0.93141959
0.93146174
0.93149393
0.93153604
0.93156821
0.9316103
0.93164245
0.93168452
0.93171665
0.9317587
0.93179081
0.93183283
0.93186493
0.93190694
0.93193903
0.93198102
0.93201309
0.93205506
0.93208712
0.93212908
0.93216114
0.93220308
0.93223512
0.93227706
0.93230909
0.93235102
0.93238305
0.93242496
0.93245698
0.93249889
0.93253091
0.93257282
0.93260483
0.93264673
0.93267873
0.93272063
0.93275264
0.93279453
0.93282653
0.93286842
0.93290043
0.93294232
0.93297432
0.93301621
0.93304821
0.9330901
0.93312211
0.933164
0.93319601
0.9332379
0.93326991
0.93331181
0.93334382
0.93338572
0.93341773
0.93345963
0.93349164
0.93353355
0.93356557
0.93360748
0.93363949
0.93368141
0.93371343
0.93375534
0.93378736
0.93382928
0.9338613
0.93390322
0.93393525
0.93397717
0.9340092
0.93405112
0.93408315
0.93412507
0.9341571
0.93419903
0.93423106
0.93427298
0.93430501
0.93434694
0.93437896
0.93442089
0.93445292
0.93449484
0.93452686
0.93456878
0.93460081
0.93464272
0.93467474
0.93471665
0.93474867
0.93479057
0.93482258
0.93486448
0.93489648
0.93493837
0.93497037
0.93501225
0.93504424
0.93508611
0.93511809
0.93515994
0.93519192
0.93523376
0.93526572
0.93530755
0.9353395
0.93538131
0.93541325
0.93545505
0.93548697
0.93552875
0.93556066
0.93560241
0.93563431
0.93567604
0.93570792
0.93574963
0.93578149
0.93582318
0.93585502
0.93589669
0.93592851
0.93597015
0.93600195
0.93604356
0.93607534
0.93611692
0.93614868
0.93619023
0.93622196
0.93626348
0.93629519
0.93633668
0.93636836
0.93640981
0.93644147
0.93648288
0.93651451
0.93655589
0.93658749
0.93662883
0.93666041
0.93670171
0.93673325
0.93677452
0.93680603
0.93684725
0.93687874
0.93691992
0.93695137
0.93699251
0.93702393
0.93706503
0.93709641
0.93713747
0.93716882
0.93720983
0.93724115
0.93728212
0.9373134
0.93735432
0.93738557
0.93742645
0.93745766
0.93749849
0.93752967
0.93757045
0.9376016
0.93764233
0.93767344
0.93771412
0.93774519
0.93778583
0.93781686
0.93785745
0.93788845
0.93792899
0.93795995
0.93800044
0.93803136
0.9380718
0.93810269
0.93814308
0.93817392
0.93821426
0.93824507
0.93828536
0.93831613
0.93835637
0.9383871
0.93842729
0.93845798
0.93849811
0.93852877
0.93856885
0.93859947
0.9386395
0.93867008
0.93871006
0.9387406
0.93878053
0.93881102
0.9388509
0.93888136
0.93892119
0.93895161
0.93899138
0.93902176
0.93906149
0.93909182
0.9391315
0.9391618
0.93920142
0.93923168
0.93927125
0.93930147
0.93934098
0.93937116
0.93941063
0.93944077
0.93948018
0.93951028
0.93954964
0.9395797
0.93961901
0.93964903
0.93968829
0.93971827
0.93975748
0.93978742
0.93982657
0.93985647
0.93989557
0.93992543
0.93996448
0.9399943
0.9400333
0.94006308
0.94010203
0.94013177
0.94017066
0.94020036
0.9402392
0.94026887
0.94030765
0.94033728
0.94037601
0.9404056
0.94044428
0.94047382
0.94051246
0.94054196
0.94058054
0.94061
0.94064853
0.94067795
0.94071643
0.94074582
0.94078424
0.94081358
0.94085196
0.94088126
0.94091958
0.94094885
0.94098712
0.94101634
0.94105456
0.94108375
0.94112191
0.94115106
0.94118917
0.94121828
0.94125634
0.94128541
0.94132342
0.94135244
0.9413904
0.94141939
0.9414573
0.94148624
0.9415241
0.94155301
0.94159081
0.94161968
0.94165743
0.94168626
0.94172396
0.94175275
0.9417904
0.94181915
0.94185675
0.94188546
0.941923
0.94195168
0.94198917
0.9420178
0.94205525
0.94208384
0.94212123
0.94214979
0.94218712
0.94221564
0.94225293
0.9422814
0.94231864
0.94234708
0.94238426
0.94241266
0.9424498
0.94247815
0.94251524
0.94254356
0.94258059
0.94260887
0.94264585
0.94267409
0.94271102
0.94273922
0.9427761
0.94280427
0.94284109
0.94286922
0.94290599
0.94293408
0.94297081
0.94299885
0.94303553
0.94306353
0.94310016
0.94312813
0.9431647
0.94319263
0.94322915
0.94325704
0.94329351
0.94332136
0.94335778
0.9433856
0.94342197
0.94344974
0.94348606
0.9435138
0.94355006
0.94357776
0.94361398
0.94364164
0.9436778
0.94370542
0.94374154
0.94376912
0.94380518
0.94383273
0.94386874
0.94389625
0.94393221
0.94395968
0.94399559
0.94402302
0.94405888
0.94408627
0.94412208
0.94414944
0.94418518
0.94421251
0.94424823
0.94427551
0.94431105
0.94433861
0.94437361
0.94440176
0.94443599
0.94446487
0.94449827
0.94452787
0.94456051
0.94459073
0.94462272
0.94465342
0.94468492
0.94471596
0.94474709
0.94477835
0.94480923
0.94484061
0.94487132
0.94490275
0.94493334
0.94496478
0.94499529
0.94502671
0.94505716
0.94508855
0.94511895
0.9451503
0.94518064
0.94521196
0.94524225
0.94527354
0.94530377
0.94533502
0.9453652
0.94539642
0.94542655
0.94545772
0.94548783
0.94551893
0.94554902
0.94558003
0.94561014
0.94564104
0.94567117
0.94570196
0.94573213
0.94576279
0.94579299
0.94582353
0.94585377
0.94588419
0.94591445
0.94594476
0.94597505
0.94600526
0.94603555
0.94606567
0.94609596
0.946126
0.94615627
0.94618624
0.9462165
0.94624641
0.94627664
0.94630649
0.94633668
0.94636648
0.94639664
0.94642639
0.94645651
0.94648622
0.9465163
0.94654595
0.94657599
0.94660561
0.9466356
0.94666517
0.94669513
0.94672465
0.94675456
0.94678405
0.94681391
0.94684335
0.94687318
0.94690257
0.94693236
0.94696171
0.94699145
0.94702076
0.94705046
0.94707972
0.94710938
0.9471386
0.94716821
0.94719739
0.94722696
0.9472561
0.94728562
0.94731471
0.9473442
0.94737325
0.94740268
0.94743169
0.94746108
0.94749005
0.9475194
0.94754832
0.94757763
0.9476065
0.94763577
0.9476646
0.94769382
0.94772261
0.94775179
0.94778054
0.94780967
0.94783838
0.94786747
0.94789614
0.94792519
0.94795382
0.94798283
0.94801142
0.94804039
0.94806894
0.94809787
0.94812639
0.94815529
0.94818376
0.94821262
0.94824107
0.94826989
0.9482983
0.94832709
0.94835547
0.94838423
0.94841257
0.9484413
0.9484696
0.9484983
0.94852657
0.94855524
0.94858347
0.94861211
0.94864031
0.94866891
0.94869707
0.94872564
0.94875377
0.94878231
0.9488104
0.9488389
0.94886696
0.94889542
0.94892344
0.94895187
0.94897985
0.94900824
0.94903618
0.94906454
0.94909244
0.94912076
0.94914861
0.9491769
0.94920471
0.94923296
0.94926074
0.94928894
0.94931668
0.94934485
0.94937254
0.94940067
0.94942832
0.94945641
0.94948401
0.94951208
0.94953963
0.94956766
0.94959517
0.94962316
0.94965063
0.94967858
0.94970601
0.94973391
0.94976132
0.94978915
0.94981655
0.94984432
0.9498717
0.9498994
0.94992677
0.9499544
0.94998176
0.95000932
0.95003667
0.95006417
0.95009149
0.95011893
0.95014624
0.95017362
0.9502009
0.95022823
0.95025548
0.95028276
0.95030998
0.95033721
0.9503644
0.95039158
0.95041873
0.95044588
0.95047299
0.95050009
0.95052717
0.95055423
0.95058127
0.95060829
0.95063529
0.95066227
0.95068923
0.95071617
0.95074309
0.95076999
0.95079687
0.95082373
0.95085057
0.95087739
0.9509042
0.95093098
0.95095774
0.95098448
0.95101121
0.95103791
0.9510646
0.95109126
0.95111791
0.95114453
0.95117114
0.95119772
0.95122429
0.95125083
0.95127736
0.95130387
0.95133036
0.95135682
0.95138327
0.9514097
0.95143611
0.9514625
0.95148887
0.95151522
0.95154155
0.95156786
0.95159415
0.95162043
0.95164668
0.95167291
0.95169913
0.95172532
0.9517515
0.95177765
0.95180379
0.95182991
0.95185601
0.95188209
0.95190815
0.95193419
0.95196022
0.95198622
0.95201221
0.95203818
0.95206413
0.95209007
0.95211599
0.95214189
0.95216777
0.95219363
0.95221948
0.95224531
0.95227112
0.95229692
0.9523227
0.95234847
0.95237421
0.95239995
0.95242566
0.95245136
0.95247704
0.95250271
0.95252836
0.952554
0.95257961
0.95260522
0.9526308
0.95265638
0.95268193
0.95270747
0.95273299
0.9527585
0.95278399
0.95280946
0.95283492
0.95286036
0.95288578
0.95291119
0.95293658
0.95296195
0.95298731
0.95301264
0.95303796
0.95306327
0.95308855
0.95311382
0.95313907
0.9531643
0.95318951
0.9532147
0.95323988
0.95326504
0.95329018
0.9533153
0.9533404
0.95336549
0.95339055
0.9534156
0.95344063
0.95346563
0.95349062
0.9535156
0.95354055
0.95356548
0.95359039
0.95361529
0.95364016
0.95366502
0.95368986
0.95371468
0.95373948
0.95376426
0.95378902
0.95381376
0.95383848
0.95386319
0.95388787
0.95391254
0.95393718
0.95396181
0.95398642
0.95401101
0.95403558
0.95406013
0.95408466
0.95410917
0.95413366
0.95415813
0.95418259
0.95420702
0.95423144
0.95425584
0.95428021
0.95430457
0.95432891
0.95435323
0.95437753
0.95440181
0.95442607
0.95445031
0.95447453
0.95449874
0.95452292
0.95454709
0.95457123
0.95459536
0.95461946
0.95464355
0.95466762
0.95469167
0.9547157
0.95473971
0.9547637
0.95478767
0.95481163
0.95483556
0.95485947
0.95488337
0.95490724
0.95493109
0.95495493
0.95497875
0.95500255
0.95502633
0.95505009
0.95507383
0.95509755
0.95512125
0.95514493
0.95516859
0.95519222
0.95521585
0.95523945
0.95526303
0.9552866
0.95531015
0.95533367
0.95535718
0.95538067
0.95540413
0.95542758
0.955451
0.95547441
0.95549779
0.95552116
0.95554451
0.95556784
0.95559115
0.95561445
0.95563772
0.95566098
0.95568421
0.95570743
0.95573062
0.95575379
0.95577694
0.95580007
0.95582318
0.95584627
0.95586935
0.9558924
0.95591545
0.95593847
0.95596147
0.95598446
0.95600742
0.95603037
0.9560533
0.9560762
0.95609909
0.95612196
0.9561448
0.95616763
0.95619044
0.95621323
0.95623601
0.95625876
0.95628151
0.95630423
0.95632694
0.95634964
0.95637231
0.95639498
0.95641762
0.95644025
0.95646286
0.95648546
0.95650804
0.95653061
0.95655315
0.95657568
0.95659819
0.95662069
0.95664317
0.95666563
0.95668807
0.9567105
0.95673291
0.9567553
0.95677767
0.95680002
0.95682236
0.95684468
0.95686698
0.95688926
0.95691153
0.95693378
0.95695601
0.95697823
0.95700042
0.9570226
0.95704476
0.9570669
0.95708902
0.95711112
0.95713321
0.95715528
0.95717733
0.95719936
0.95722137
0.95724337
0.95726534
0.9572873
0.95730924
0.95733117
0.95735308
0.95737496
0.95739683
0.95741868
0.95744051
0.95746232
0.95748411
0.95750588
0.95752762
0.95754935
0.95757106
0.95759276
0.95761443
0.95763609
0.95765772
0.95767933
0.95770092
0.9577225
0.95774405
0.95776558
0.95778709
0.95780859
0.95783007
0.95785153
0.95787297
0.95789439
0.95791579
0.95793716
0.95795852
0.95797986
0.95800118
0.95802248
0.95804377
0.95806503
0.95808628
0.9581075
0.95812871
0.9581499
0.95817106
0.95819221
0.95821335
0.95823446
0.95825556
0.95827663
0.95829768
0.95831871
0.95833971
0.9583607
0.95838166
0.95840261
0.95842354
0.95844445
0.95846535
0.95848622
0.95850708
0.95852791
0.95854873
0.95856952
0.95859029
0.95861105
0.95863179
0.9586525
0.9586732
0.95869388
0.95871454
0.95873518
0.9587558
0.9587764
0.95879697
0.95881753
0.95883807
0.9588586
0.9588791
0.95889959
0.95892005
0.95894049
0.95896092
0.95898132
0.9590017
0.95902206
0.95904241
0.95906274
0.95908305
0.95910334
0.95912361
0.95914385
0.95916408
0.95918429
0.95920447
0.95922464
0.95924478
0.95926491
0.95928502
0.95930512
0.95932519
0.95934525
0.95936528
0.9593853
0.9594053
0.95942528
0.95944524
0.95946518
0.95948511
0.95950501
0.95952489
0.95954476
0.95956461
0.95958444
0.95960425
0.95962404
0.95964381
0.95966357
0.95968331
0.95970304
0.95972274
0.95974243
0.9597621
0.95978174
0.95980137
0.95982098
0.95984058
0.95986015
0.95987971
0.95989926
0.95991879
0.95993831
0.95995781
0.95997729
0.95999675
0.96001619
0.96003562
0.96005502
0.96007441
0.96009378
0.96011313
0.96013247
0.9601518
0.9601711
0.9601904
0.96020967
0.96022893
0.96024817
0.96026738
0.96028658
0.96030576
0.96032491
0.96034406
0.96036318
0.9603823
0.96040139
0.96042047
0.96043952
0.96045856
0.96047758
0.96049658
0.96051556
0.96053452
0.96055347
0.9605724
0.96059132
0.96061023
0.96062911
0.96064797
0.96066682
0.96068563
0.96070443
0.96072321
0.96074196
0.9607607
0.96077942
0.96079813
0.96081681
0.96083548
0.96085413
0.96087275
0.96089136
0.96090994
0.9609285
0.96094705
0.96096558
0.96098409
0.96100259
0.96102107
0.96103954
0.96105798
0.96107641
0.96109481
0.9611132
0.96113155
0.96114989
0.96116821
0.9611865
0.96120477
0.96122303
0.96124127
0.96125949
0.9612777
0.96129589
0.96131405
0.96133221
0.96135034
0.96136845
0.96138654
0.96140461
0.96142266
0.96144068
0.96145869
0.96147668
0.96149465
0.9615126
0.96153054
0.96154846
0.96156636
0.96158424
0.96160211
0.96161995
0.96163778
0.96165559
0.96167337
0.96169114
0.96170889
0.96172661
0.96174432
0.961762
0.96177967
0.96179732
0.96181494
0.96183255
0.96185013
0.9618677
0.96188524
0.96190277
0.96192028
0.96193777
0.96195524
0.96197269
0.96199012
0.96200753
0.96202492
0.9620423
0.96205965
0.96207699
0.96209431
0.96211161
0.96212889
0.96214615
0.9621634
0.96218063
0.96219783
0.96221502
0.96223218
0.96224932
0.96226645
0.96228355
0.96230065
0.96231772
0.96233478
0.96235181
0.96236883
0.96238583
0.96240281
0.96241978
0.96243672
0.96245363
0.96247053
0.96248741
0.96250427
0.96252111
0.96253794
0.96255475
0.96257155
0.96258834
0.9626051
0.96262185
0.96263857
0.96265528
0.96267197
0.96268864
0.96270528
0.96272192
0.96273853
0.96275512
0.9627717
0.96278826
0.96280481
0.96282135
0.96283787
0.96285437
0.96287085
0.9628873
0.96290374
0.96292016
0.96293656
0.96295295
0.96296932
0.96298567
0.96300202
0.96301834
0.96303466
0.96305095
0.96306723
0.96308349
0.96309973
0.96311594
0.96313215
0.96314832
0.96316449
0.96318064
0.96319678
0.9632129
0.963229
0.9632451
0.96326116
0.96327723
0.96329325
0.96330928
0.96332526
0.96334126
0.9633572
0.96337317
0.96338907
0.963405
0.96342088
0.96343677
0.96345261
0.96346847
0.96348428
0.9635001
0.96351588
0.96353165
0.9635474
0.96356314
0.96357886
0.96359455
0.96361023
0.96362588
0.96364154
0.96365714
0.96367277
0.96368833
0.96370393
0.96371946
0.96373501
0.96375051
0.96376603
0.96378149
0.96379696
0.96381239
0.96382782
0.96384322
0.96385861
0.96387399
0.96388934
0.96390468
0.96391998
0.96393529
0.96395056
0.96396583
0.96398106
0.9639963
0.96401149
0.96402669
0.96404184
0.96405701
0.96407213
0.96408725
0.96410234
0.96411742
0.96413248
0.96414752
0.96416254
0.96417754
0.96419254
0.9642075
0.96422246
0.96423738
0.96425231
0.9642672
0.96428209
0.96429694
0.9643118
0.96432661
0.96434143
0.96435621
0.96437099
0.96438574
0.96440047
0.96441519
0.96442989
0.96444458
0.96445924
0.9644739
0.96448852
0.96450315
0.96451774
0.96453232
0.96454688
0.96456143
0.96457595
0.96459046
0.96460495
0.96461943
0.96463388
0.96464832
0.96466275
0.96467715
0.96469154
0.9647059
0.96472026
0.96473459
0.96474892
0.96476322
0.96477751
0.96479177
0.96480603
0.96482026
0.96483448
0.96484868
0.96486287
0.96487703
0.96489119
0.96490532
0.96491944
0.96493354
0.96494763
0.96496169
0.96497574
0.96498978
0.96500379
0.9650178
0.96503178
0.96504576
0.9650597
0.96507365
0.96508756
0.96510148
0.96511536
0.96512924
0.9651431
0.96515694
0.96517077
0.96518458
0.96519838
0.96521216
0.96522593
0.96523968
0.96525341
0.96526714
0.96528084
0.96529453
0.96530821
0.96532187
0.96533551
0.96534915
0.96536277
0.96537637
0.96538996
0.96540353
0.96541709
0.96543064
0.96544417
0.96545768
0.96547118
0.96548467
0.96549814
0.96551159
0.96552503
0.96553846
0.96555188
0.96556528
0.96557866
0.96559203
0.96560539
0.96561873
0.96563206
0.96564538
0.96565867
0.96567196
0.96568523
0.96569849
0.96571173
0.96572496
0.96573817
0.96575137
0.96576455
0.96577772
0.96579088
0.96580401
0.96581714
0.96583024
0.96584335
0.96585642
0.96586949
0.96588254
0.96589557
0.96590859
0.9659216
0.96593458
0.96594757
0.96596051
0.96597346
0.96598638
0.96599929
0.9660122
0.96602506
0.96603794
0.96605077
0.96606362
0.96607643
0.96608923
0.96610202
0.96611477
0.96612754
0.96614026
0.96615298
0.96616568
0.96617835
0.96619104
0.96620367
0.96621631
0.96622892
0.96624152
0.9662541
0.96626665
0.96627921
0.96629172
0.96630425
0.96631673
0.96632922
0.96634166
0.96635411
0.96636654
0.96637893
0.96639134
0.96640368
0.96641607
0.96642837
0.96644071
0.96645299
0.96646527
0.96647753
0.96648978
0.966502
0.96651423
0.9665264
0.9665386
0.96655072
0.96656289
0.96657497
0.9665871
0.96659915
0.96661124
0.96662326
0.9666353
0.9666473
0.9666593
0.96667127
0.96668322
0.96669516
0.96670707
0.96671897
0.96673085
0.96674271
0.96675454
0.96676636
0.96677816
0.96678994
0.9668017
0.96681345
0.96682518
0.96683689
0.96684859
0.96686026
0.96687192
0.96688355
0.96689517
0.96690677
0.96691835
0.96692991
0.96694145
0.96695298
0.96696448
0.96697596
0.96698743
0.96699888
0.9670103
0.96702171
0.9670331
0.96704448
0.96705583
0.96706717
0.96707849
0.9670898
0.96710107
0.96711234
0.96712358
0.96713481
0.96714601
0.9671572
0.96716837
0.96717952
0.96719065
0.96720176
0.96721286
0.96722393
0.96723499
0.96724603
0.96725706
0.96726807
0.96727906
0.96729003
0.96730098
0.96731192
0.96732284
0.96733374
0.96734462
0.96735549
0.96736634
0.96737717
0.96738799
0.96739878
0.96740957
0.96742033
0.96743108
0.96744181
0.96745252
0.96746321
0.96747388
0.96748454
0.96749518
0.9675058
0.96751641
0.967527
0.96753758
0.96754814
0.96755868
0.96756921
0.96757973
0.96759023
0.96760071
0.96761118
0.96762163
0.96763207
0.96764249
0.96765289
0.96766328
0.96767366
0.96768402
0.96769436
0.96770469
0.967715
0.96772529
0.96773557
0.96774583
0.96775608
0.96776632
0.96777654
0.96778674
0.96779693
0.96780711
0.96781726
0.96782741
0.96783753
0.96784764
0.96785774
0.96786782
0.96787789
0.96788795
0.96789799
0.96790801
0.96791802
0.96792801
0.96793798
0.96794794
0.96795789
0.96796782
0.96797774
0.96798764
0.96799753
0.96800741
0.96801727
0.96802711
0.96803694
0.96804676
0.96805655
0.96806633
0.9680761
0.96808585
0.96809558
0.9681053
0.968115
0.96812468
0.96813435
0.968144
0.96815364
0.96816326
0.96817287
0.96818247
0.96819205
0.96820161
0.96821115
0.96822069
0.9682302
0.9682397
0.96824918
0.96825865
0.9682681
0.96827753
0.96828695
0.96829635
0.96830574
0.96831511
0.96832447
0.96833381
0.96834313
0.96835244
0.96836173
0.96837101
0.96838027
0.96838951
0.96839874
0.96840795
0.96841715
0.96842633
0.96843549
0.96844464
0.96845377
0.96846289
0.96847198
0.96848106
0.96849012
0.96849917
0.9685082
0.96851722
0.96852622
0.9685352
0.96854417
0.96855313
0.96856206
0.96857098
0.96857988
0.96858876
0.96859763
0.96860648
0.96861531
0.96862412
0.96863292
0.96864171
0.96865047
0.96865923
0.96866796
0.96867668
0.96868538
0.96869406
0.96870273
0.96871138
0.96872001
0.96872863
0.96873722
0.9687458
0.96875436
0.96876291
0.96877143
0.96877995
0.96878845
0.96879693
0.9688054
0.96881385
0.96882228
0.96883069
0.96883909
0.96884747
0.96885583
0.96886417
0.9688725
0.96888081
0.9688891
0.96889737
0.96890563
0.96891387
0.9689221
0.96893031
0.9689385
0.96894668
0.96895484
0.96896299
0.96897111
0.96897922
0.96898731
0.96899539
0.96900346
0.9690115
0.96901953
0.96902754
0.96903554
0.96904352
0.96905148
0.96905942
0.96906735
0.96907526
0.96908315
0.96909103
0.96909889
0.96910674
0.96911457
0.96912239
0.96913018
0.96913797
0.96914574
0.96915349
0.96916122
0.96916894
0.96917664
0.96918433
0.969192
0.96919966
0.9692073
0.96921493
0.96922254
0.96923013
0.9692377
0.96924527
0.96925281
0.96926035
0.96926786
0.96927537
0.96928285
0.96929032
0.96929777
0.96930521
0.96931263
0.96932003
0.96932742
0.9693348
0.96934216
0.9693495
0.96935683
0.96936414
0.96937144
0.96937872
0.969386
0.96939325
0.96940049
0.96940772
0.96941492
0.96942212
0.96942929
0.96943645
0.9694436
0.96945073
0.96945785
0.96946495
0.96947203
0.9694791
0.96948615
0.96949319
0.96950021
0.96950722
0.96951422
0.9695212
0.96952816
0.9695351
0.96954203
0.96954894
0.96955585
0.96956273
0.96956961
0.96957646
0.9695833
0.96959013
0.96959693
0.96960373
0.96961051
0.96961727
0.96962402
0.96963075
0.96963747
0.96964417
0.96965086
0.96965753
0.96966418
0.96967082
0.96967745
0.96968406
0.96969065
0.96969723
0.96970378
0.96971033
0.96971686
0.96972338
0.96972988
0.96973637
0.96974284
0.96974929
0.96975573
0.96976216
0.96976857
0.96977497
0.96978136
0.96978773
0.96979408
0.96980042
0.96980673
0.96981303
0.96981932
0.96982559
0.96983185
0.96983809
0.96984431
0.96985053
0.96985672
0.9698629
0.96986906
0.96987521
0.96988135
0.96988746
0.96989356
0.96989965
0.96990572
0.96991177
0.96991781
0.96992383
0.96992985
0.96993584
0.96994182
0.96994779
0.96995374
0.96995967
0.96996558
0.96997148
0.96997736
0.96998323
0.96998908
0.96999492
0.97000073
0.97000653
0.97001232
0.97001808
0.97002384
0.97002957
0.9700353
0.970041
0.97004669
0.97005236
0.97005802
0.97006366
0.97006929
0.97007491
0.9700805
0.97008608
0.97009164
0.97009719
0.97010271
0.97010823
0.97011373
0.9701192
0.97012467
0.97013011
0.97013554
0.97014095
0.97014634
0.97015172
0.97015709
0.97016244
0.97016778
0.97017309
0.9701784
0.97018368
0.97018895
0.9701942
0.97019943
0.97020465
0.97020986
0.97021504
0.9702202
0.97022536
0.97023049
0.97023561
0.97024071
0.9702458
0.97025087
0.97025592
0.97026095
0.97026597
0.97027097
0.97027596
0.97028093
0.97028588
0.97029081
0.97029573
0.97030063
0.97030551
0.97031038
0.97031524
0.97032008
0.9703249
0.9703297
0.97033449
0.97033926
0.97034401
0.97034875
0.97035347
0.97035818
0.97036287
0.97036754
0.9703722
0.97037684
0.97038146
0.97038606
0.97039065
0.97039522
0.97039977
0.97040431
0.97040883
0.97041333
0.97041781
0.97042228
0.97042673
0.97043117
0.97043559
0.97044
0.97044438
0.97044875
0.9704531
0.97045743
0.97046174
0.97046604
0.97047032
0.97047458
0.97047882
0.97048304
0.97048725
0.97049144
0.97049561
0.97049976
0.9705039
0.97050801
0.97051211
0.97051619
0.97052025
0.97052429
0.97052832
0.97053232
0.9705363
0.97054026
0.9705442
0.97054812
0.97055202
0.97055591
0.97055977
0.97056362
0.97056744
0.97057125
0.97057503
0.97057879
0.97058254
0.97058626
0.97058996
0.97059364
0.9705973
0.97060093
0.97060454
0.97060813
0.9706117
0.97061525
0.97061877
0.97062227
0.97062575
0.97062921
0.97063264
0.97063606
0.97063944
0.97064281
0.97064615
0.97064947
0.97065276
0.97065603
0.97065928
0.9706625
0.97066569
0.97066886
0.970672
0.97067512
0.97067822
0.97068129
0.97068433
0.97068735
0.97069034
0.9706933
0.97069624
0.97069914
0.97070203
0.97070488
0.97070771
0.97071051
0.97071328
0.97071602
0.97071873
0.97072141
0.97072407
0.97072669
0.97072929
0.97073186
0.97073439
0.9707369
0.97073938
0.97074183
0.97074424
0.97074663
0.97074899
0.97075131
0.97075361
0.97075587
0.9707581
0.9707603
0.97076246
0.97076459
0.97076669
0.97076875
0.97077079
0.97077279
0.97077475
0.97077668
0.97077858
0.97078045
0.97078227
0.97078407
0.97078583
0.97078755
0.97078923
0.97079088
0.97079249
0.97079407
0.9707956
0.9707971
0.97079857
0.9708
0.97080139
0.97080274
0.97080406
0.97080534
0.97080658
0.97080779
0.97080896
0.97081008
0.97081117
0.97081222
0.97081323
0.9708142
0.97081513
0.97081603
0.97081688
0.9708177
0.97081847
0.9708192
0.97081989
0.97082054
0.97082114
0.97082171
0.97082223
0.97082271
0.97082315
0.97082355
0.97082391
0.97082423
0.9708245
0.97082474
0.97082493
0.97082508
0.97082519
0.97082525
0.97082528
0.97082526
0.9708252
0.97082509
0.97082495
0.97082476
0.97082453
0.97082425
0.97082393
0.97082357
0.97082317
0.97082272
0.97082223
0.97082169
0.97082111
0.97082049
0.97081983
0.97081913
0.97081838
0.97081759
0.97081675
0.97081587
0.97081495
0.97081398
0.97081297
0.97081192
0.97081083
0.97080969
0.97080851
0.97080729
0.97080603
0.97080473
0.97080338
0.97080199
0.97080056
0.97079909
0.97079758
0.97079602
0.97079442
0.97079278
0.9707911
0.97078939
0.97078762
0.97078582
0.97078398
0.9707821
0.97078018
0.97077822
0.97077621
0.97077417
0.97077209
0.97076996
0.9707678
0.9707656
0.97076336
0.97076108
0.97075876
0.9707564
0.97075401
0.97075157
0.9707491
0.97074659
0.97074404
0.97074146
0.97073883
0.97073618
0.97073348
0.97073075
0.97072799
0.97072518
0.97072235
0.97071947
0.97071657
0.97071362
0.97071064
0.97070763
0.97070458
0.97070149
0.97069838
0.97069522
0.97069204
0.97068882
0.97068557
0.97068229
0.97067897
0.97067562
0.97067224
0.97066883
0.97066539
0.9706619
0.9706584
0.97065485
0.97065129
0.97064768
0.97064405
0.97064039
0.9706367
0.97063298
0.97062923
0.97062545
0.97062164
0.9706178
0.97061394
0.97061004
0.97060612
0.97060217
0.97059819
0.97059418
0.97059015
0.97058609
0.970582
0.97057789
0.97057375
0.97056958
0.97056539
0.97056117
0.97055693
0.97055266
0.97054836
0.97054404
0.9705397
0.97053533
0.97053094
0.97052653
0.9705221
0.97051764
0.97051316
0.97050867
0.97050414
0.9704996
0.97049503
0.97049044
0.97048583
0.97048119
0.97047654
0.97047186
0.97046716
0.97046244
0.9704577
0.97045293
0.97044815
0.97044334
0.97043852
0.97043367
0.97042882
0.97042394
0.97041904
0.97041413
0.9704092
0.97040425
0.97039929
0.97039431
0.97038931
0.9703843
0.97037927
0.97037422
0.97036916
0.97036409
0.97035899
0.97035388
0.97034876
0.97034362
0.97033846
0.97033329
0.9703281
0.9703229
0.97031769
0.97031246
0.97030722
0.97030196
0.97029669
0.97029141
0.97028612
0.97028081
0.97027549
0.97027016
0.97026482
0.97025947
0.97025411
0.97024874
0.97024336
0.97023797
0.97023257
0.97022717
0.97022175
0.97021632
0.97021089
0.97020544
0.97019999
0.97019452
0.97018905
0.97018357
0.97017809
0.97017259
0.97016709
0.97016159
0.97015607
0.97015056
0.97014503
0.9701395
0.97013397
0.97012843
0.97012288
0.97011734
0.97011179
0.97010623
0.97010068
0.97009512
0.97008956
0.970084
0.97007844
0.97007288
0.97006732
0.97006175
0.97005619
0.97005062
0.97004505
0.97003949
0.97003393
0.97002836
0.97002281
0.97001725
0.9700117
0.97000615
0.9700006
0.96999506
0.96998952
0.96998399
0.96997846
0.96997294
0.96996742
0.9699619
0.9699564
0.9699509
0.96994541
0.96993993
0.96993445
0.96992899
0.96992353
0.96991808
0.96991264
0.96990721
0.96990179
0.96989638
0.96989098
0.96988559
0.96988022
0.96987486
0.9698695
0.96986417
0.96985885
0.96985354
0.96984824
0.96984296
0.9698377
0.96983245
0.96982721
0.96982199
0.96981679
0.96981159
0.96980642
0.96980126
0.96979611
0.96979099
0.96978588
0.96978079
0.96977572
0.96977067
0.96976563
0.96976062
0.96975563
0.96975065
0.9697457
0.96974077
0.96973587
0.96973098
0.96972612
0.96972128
0.96971646
0.96971166
0.96970688
0.96970213
0.96969739
0.96969268
0.96968799
0.96968332
0.96967868
0.96967406
0.96966947
0.9696649
0.96966035
0.96965584
0.96965134
0.96964687
0.96964243
0.96963801
0.96963362
0.96962925
0.9696249
0.96962058
0.96961629
0.96961202
0.96960777
0.96960356
0.96959937
0.96959521
0.96959107
0.96958696
0.96958288
0.96957883
0.96957481
0.96957081
0.96956684
0.9695629
0.96955898
0.96955509
0.96955123
0.96954739
0.96954358
0.9695398
0.96953604
0.96953232
0.96952862
0.96952495
0.96952131
0.96951769
0.96951411
0.96951055
0.96950701
0.96950351
0.96950003
0.96949658
0.96949315
0.96948975
0.96948638
0.96948303
0.96947971
0.96947642
0.96947316
0.96946992
0.96946671
0.96946352
0.96946037
0.96945724
0.96945413
0.96945105
0.969448
0.96944497
0.96944197
0.96943899
0.96943604
0.96943311
0.96943021
0.96942733
0.96942448
0.96942164
0.96941884
0.96941605
0.96941329
0.96941056
0.96940784
0.96940516
0.96940249
0.96939985
0.96939722
0.96939462
0.96939204
0.96938949
0.96938696
0.96938444
0.96938195
0.96937949
0.96937704
0.9693746
0.96937219
0.9693698
0.96936743
0.96936508
0.96936275
0.96936043
0.96935813
0.96935585
0.96935359
0.96935135
0.96934911
0.9693469
0.96934471
0.96934252
0.96934036
0.96933821
0.96933608
0.96933395
0.96933186
0.96932976
0.96932769
0.96932563
0.96932358
0.96932155
0.96931953
0.96931752
0.96931553
0.96931354
0.96931157
0.96930961
0.96930766
0.96930572
0.96930379
0.96930187
0.96929995
0.96929805
0.96929616
0.96929427
0.96929239
0.96929053
0.96928865
0.96928682
0.96928495
0.96928313
0.96928127
0.96927947
0.96927762
0.96927584
0.969274
0.96927222
0.96927042
0.96926861
0.96926685
0.96926503
0.96926328
0.96926148
0.96925971
0.96925795
0.96925615
0.96925441
0.96925262
0.96925086
0.9692491
0.96924731
0.96924558
0.96924379
0.96924203
0.96924028
0.96923849
0.96923674
0.96923496
0.96923318
0.96923142
0.96922963
0.96922786
0.96922608
0.96922428
0.96922251
0.96922072
0.96921891
0.96921712
0.96921531
0.9692135
0.9692117
0.96920988
0.96920806
0.96920625
0.96920441
0.96920258
0.96920076
0.96919891
0.96919707
0.96919523
0.96919337
0.96919152
0.96918966
0.96918778
0.9691859
0.96918402
0.96918212
0.96918022
0.96917832
0.96917639
0.96917446
0.96917253
0.96917058
0.96916862
0.96916666
0.96916468
0.96916269
0.9691607
0.9691587
0.96915668
0.96915467
0.96915264
0.96915061
0.96914857
0.96914652
0.96914446
0.9691424
0.96914033
0.96913823
0.96913613
0.96913401
0.96913188
0.96912973
0.96912758
0.96912541
0.96912323
0.96912105
0.96911887
0.96911667
0.96911447
0.96911226
0.96911004
0.96910779
0.96910553
0.96910326
0.96910097
0.96909867
0.96909635
0.96909404
0.96909171
0.96908937
0.96908703
0.96908467
0.96908229
0.96907989
0.96907748
0.96907505
0.96907261
0.96907016
0.96906771
0.96906525
0.96906277
0.96906028
0.96905777
0.96905524
0.9690527
0.96905014
0.96904757
0.96904498
0.96904239
0.96903978
0.96903716
0.96903452
0.96903185
0.96902917
0.96902648
0.96902377
0.96902105
0.96901831
0.96901556
0.9690128
0.96901001
0.9690072
0.96900438
0.96900155
0.9689987
0.96899583
0.96899296
0.96899006
0.96898714
0.9689842
0.96898125
0.96897829
0.96897531
0.96897232
0.9689693
0.96896627
0.96896322
0.96896015
0.96895705
0.96895394
0.96895081
0.96894765
0.96894445
0.96894124
0.968938
0.96893473
0.96893144
0.96892812
0.96892477
0.9689214
0.968918
0.96891456
0.9689111
0.96890761
0.96890409
0.96890054
0.96889696
0.96889334
0.96888969
0.96888601
0.9688823
0.96887855
0.96887475
0.96887092
0.96886706
0.96886315
0.96885921
0.96885522
0.96885118
0.96884711
0.968843
0.96883883
0.96883461