/*--------------------------------*- C++ -*----------------------------------*\
  =========                 |
  \\      /  F ield         | OpenFOAM: The Open Source CFD Toolbox
   \\    /   O peration     | Website:  https://openfoam.org
    \\  /    A nd           | Version:  7
     \\/     M anipulation  |
\*---------------------------------------------------------------------------*/
FoamFile
{
    version     2.0;
    format      ascii;
    class       volScalarField;
    location    "0.00205";
    object      rho;
}
// * * * * * * * * * * * * * * * * * * * * * * * * * * * * * * * * * * * * * //

dimensions      [1 -3 0 0 0 0 0];

internalField   nonuniform List<scalar> 
5000
(
1.3374768
1.3374768
1.3374768
1.3374768
1.3374768
1.3374768
1.3374769
1.3374769
1.3374769
1.3374769
1.3374769
1.3374769
1.3374769
1.3374769
1.3374769
1.3374769
1.3374769
1.3374769
1.3374769
1.3374769
1.3374769
1.3374769
1.3374769
1.3374769
1.3374769
1.3374769
1.3374769
1.3374769
1.3374769
1.3374769
1.3374768
1.3374768
1.3374767
1.3374767
1.3374766
1.3374765
1.3374762
1.3374755
1.3374744
1.337473
1.3374707
1.3374668
1.3374602
1.3374499
1.3374352
1.3374159
1.3373917
1.3373623
1.3373271
1.337285
1.3372347
1.3371752
1.3371062
1.3370284
1.3369435
1.3368543
1.3367641
1.3366763
1.3365939
1.3365195
1.3364544
1.3363993
1.3363541
1.336318
1.3362898
1.3362683
1.3362523
1.3362406
1.336232
1.3362259
1.3362216
1.3362186
1.3362164
1.3362149
1.3362138
1.3362131
1.3362126
1.3362122
1.3362119
1.3362118
1.3362117
1.3362116
1.3362115
1.3362115
1.3362115
1.3362114
1.3362114
1.3362114
1.3362114
1.3362114
1.3362114
1.3362114
1.3362114
1.3362114
1.3362114
1.3362114
1.3362114
1.3362114
1.3362114
1.3362114
1.3362114
1.3362114
1.3362114
1.3362114
1.3362114
1.3362114
1.3362114
1.3362114
1.3362114
1.3362114
1.3362114
1.3362114
1.3362114
1.3362114
1.3362114
1.3362114
1.3362114
1.3362114
1.3362114
1.3362114
1.3362114
1.3362114
1.3362114
1.3362114
1.3362114
1.3362114
1.3362114
1.3362115
1.3362115
1.3362115
1.3362115
1.3362115
1.3362115
1.3362115
1.3362115
1.3362115
1.3362115
1.3362115
1.3362115
1.3362115
1.3362115
1.3362115
1.3362115
1.3362115
1.3362115
1.3362115
1.3362115
1.3362115
1.3362115
1.3362115
1.3362115
1.3362115
1.3362115
1.3362115
1.3362115
1.3362115
1.3362115
1.3362115
1.3362115
1.3362115
1.3362115
1.3362115
1.3362115
1.3362115
1.3362115
1.3362115
1.3362115
1.3362115
1.3362115
1.3362115
1.3362115
1.3362115
1.3362115
1.3362115
1.3362115
1.3362115
1.3362115
1.3362115
1.3362115
1.3362115
1.3362115
1.3362115
1.3362115
1.3362115
1.3362115
1.3362115
1.3362115
1.3362115
1.3362115
1.3362115
1.3362115
1.3362115
1.3362115
1.3362115
1.3362115
1.3362115
1.3362115
1.3362115
1.3362115
1.3362115
1.3362115
1.3362115
1.3362115
1.3362115
1.3362115
1.3362115
1.3362115
1.3362115
1.3362115
1.3362115
1.3362115
1.3362115
1.3362115
1.3362115
1.3362115
1.3362115
1.3362115
1.3362115
1.3362115
1.3362115
1.3362115
1.3362115
1.3362115
1.3362115
1.3362115
1.3362115
1.3362115
1.3362115
1.3362115
1.3362115
1.3362115
1.3362115
1.3362115
1.3362115
1.3362115
1.3362115
1.3362115
1.3362115
1.3362115
1.3362115
1.3362115
1.3362115
1.3362115
1.3362115
1.3362115
1.3362115
1.3362115
1.3362115
1.3362115
1.3362115
1.3362115
1.3362115
1.3362115
1.3362115
1.3362115
1.3362115
1.3362115
1.3362115
1.3362115
1.3362115
1.3362115
1.3362115
1.3362115
1.3362115
1.3362115
1.3362115
1.3362115
1.3362115
1.3362115
1.3362115
1.3362115
1.3362115
1.3362115
1.3362115
1.3362115
1.3362115
1.3362115
1.3362115
1.3362115
1.3362115
1.3362115
1.3362115
1.3362115
1.3362115
1.3362115
1.3362115
1.3362115
1.3362115
1.3362115
1.3362115
1.3362115
1.3362115
1.3362115
1.3362115
1.3362115
1.3362115
1.3362115
1.3362115
1.3362115
1.3362115
1.3362115
1.3362115
1.3362115
1.3362115
1.3362115
1.3362115
1.3362115
1.3362115
1.3362115
1.3362115
1.3362115
1.3362115
1.3362115
1.3362115
1.3362115
1.3362115
1.3362115
1.3362115
1.3362115
1.3362115
1.3362115
1.3362115
1.3362115
1.3362115
1.3362115
1.3362115
1.3362115
1.3362115
1.3362115
1.3362115
1.3362115
1.3362115
1.3362115
1.3362115
1.3362115
1.3362115
1.3362115
1.3362115
1.3362115
1.3362115
1.3362115
1.3362115
1.3362115
1.3362115
1.3362115
1.3362115
1.3362115
1.3362115
1.3362115
1.3362115
1.3362115
1.3362115
1.3362115
1.3362115
1.3362115
1.3362115
1.3362115
1.3362115
1.3362115
1.3362115
1.3362114
1.3362114
1.3362114
1.3362114
1.3362114
1.3362114
1.3362114
1.3362114
1.3362114
1.3362114
1.3362114
1.3362114
1.3362114
1.3362114
1.3362114
1.3362114
1.3362114
1.3362114
1.3362114
1.3362114
1.3362114
1.3362114
1.3362114
1.3362114
1.3362114
1.3362114
1.3362114
1.3362114
1.3362114
1.3362114
1.3362114
1.3362114
1.3362114
1.3362114
1.3362114
1.3362114
1.3362114
1.3362114
1.3362114
1.3362114
1.3362114
1.3362114
1.3362114
1.3362114
1.3362114
1.3362114
1.3362114
1.3362114
1.3362114
1.3362114
1.3362114
1.3362114
1.3362114
1.3362114
1.3362114
1.3362113
1.3362113
1.3362113
1.3362113
1.3362113
1.3362113
1.3362113
1.3362113
1.3362113
1.3362113
1.3362113
1.3362113
1.3362113
1.3362113
1.3362113
1.3362113
1.3362113
1.3362113
1.3362113
1.3362113
1.3362113
1.3362113
1.3362113
1.3362113
1.3362113
1.3362113
1.3362113
1.3362113
1.3362113
1.3362113
1.3362113
1.3362113
1.3362113
1.3362113
1.3362113
1.3362113
1.3362113
1.3362113
1.3362112
1.3362112
1.3362112
1.3362112
1.3362112
1.3362112
1.3362112
1.3362112
1.3362112
1.3362112
1.3362112
1.3362112
1.3362112
1.3362112
1.3362112
1.3362112
1.3362112
1.3362112
1.3362112
1.3362112
1.3362112
1.3362112
1.3362112
1.3362112
1.3362112
1.3362112
1.3362112
1.3362111
1.3362111
1.3362111
1.3362111
1.3362111
1.3362111
1.3362111
1.3362111
1.3362111
1.3362111
1.3362111
1.3362111
1.3362111
1.3362111
1.3362111
1.3362111
1.3362111
1.3362111
1.3362111
1.3362111
1.336211
1.336211
1.336211
1.336211
1.336211
1.336211
1.336211
1.336211
1.336211
1.336211
1.336211
1.336211
1.336211
1.336211
1.336211
1.336211
1.3362109
1.3362109
1.3362109
1.3362109
1.3362109
1.3362109
1.3362109
1.3362109
1.3362109
1.3362109
1.3362109
1.3362109
1.3362109
1.3362109
1.3362108
1.3362108
1.3362108
1.3362108
1.3362108
1.3362108
1.3362108
1.3362108
1.3362107
1.3362107
1.3362107
1.3362107
1.3362107
1.3362107
1.3362107
1.3362106
1.3362106
1.3362106
1.3362106
1.3362106
1.3362106
1.3362105
1.3362105
1.3362105
1.3362105
1.3362104
1.3362104
1.3362104
1.3362104
1.3362104
1.3362103
1.3362103
1.3362103
1.3362102
1.3362102
1.3362102
1.3362101
1.3362101
1.3362101
1.33621
1.33621
1.33621
1.3362099
1.3362099
1.3362099
1.3362098
1.3362098
1.3362097
1.3362097
1.3362096
1.3362096
1.3362095
1.3362095
1.3362094
1.3362094
1.3362093
1.3362092
1.3362092
1.3362091
1.336209
1.336209
1.3362089
1.3362088
1.3362087
1.3362087
1.3362086
1.3362085
1.3362084
1.3362083
1.3362082
1.3362081
1.336208
1.3362079
1.3362078
1.3362077
1.3362076
1.3362075
1.3362073
1.3362072
1.3362071
1.336207
1.3362068
1.3362067
1.3362065
1.3362064
1.3362062
1.3362061
1.3362059
1.3362057
1.3362056
1.3362054
1.3362052
1.336205
1.3362048
1.3362046
1.3362044
1.3362042
1.336204
1.3362037
1.3362035
1.3362033
1.336203
1.3362028
1.3362025
1.3362022
1.3362019
1.3362016
1.3362014
1.336201
1.3362007
1.3362004
1.3362001
1.3361997
1.3361994
1.336199
1.3361986
1.3361982
1.3361978
1.3361974
1.336197
1.3361966
1.3361961
1.3361957
1.3361952
1.3361947
1.3361942
1.3361937
1.3361932
1.3361927
1.3361921
1.3361915
1.336191
1.3361904
1.3361898
1.3361891
1.3361885
1.3361878
1.3361871
1.3361864
1.3361857
1.336185
1.3361842
1.3361835
1.3361827
1.3361819
1.336181
1.3361802
1.3361793
1.3361784
1.3361775
1.3361766
1.3361756
1.3361747
1.3361737
1.3361726
1.3361716
1.3361705
1.3361694
1.3361683
1.3361672
1.336166
1.3361648
1.3361636
1.3361624
1.3361611
1.3361598
1.3361585
1.3361572
1.3361558
1.3361544
1.3361529
1.3361515
1.33615
1.3361485
1.3361469
1.3361454
1.3361437
1.3361421
1.3361404
1.3361387
1.336137
1.3361352
1.3361334
1.3361316
1.3361297
1.3361278
1.3361259
1.3361239
1.3361219
1.3361199
1.3361178
1.3361157
1.3361136
1.3361114
1.3361092
1.3361069
1.3361046
1.3361023
1.3361
1.3360976
1.3360951
1.3360926
1.3360901
1.3360876
1.336085
1.3360823
1.3360796
1.3360769
1.3360742
1.3360714
1.3360685
1.3360656
1.3360627
1.3360598
1.3360568
1.3360537
1.3360506
1.3360475
1.3360443
1.3360411
1.3360378
1.3360345
1.3360312
1.3360278
1.3360243
1.3360208
1.3360173
1.3360137
1.3360101
1.3360064
1.3360027
1.335999
1.3359952
1.3359913
1.3359874
1.3359835
1.3359795
1.3359755
1.3359714
1.3359673
1.3359631
1.3359589
1.3359546
1.3359503
1.3359459
1.3359415
1.3359371
1.3359326
1.335928
1.3359234
1.3359188
1.3359141
1.3359093
1.3359045
1.3358997
1.3358948
1.3358899
1.3358849
1.3358799
1.3358748
1.3358697
1.3358646
1.3358593
1.3358541
1.3358488
1.3358434
1.335838
1.3358326
1.3358271
1.3358216
1.335816
1.3358104
1.3358047
1.335799
1.3357932
1.3357874
1.3357815
1.3357756
1.3357697
1.3357637
1.3357577
1.3357516
1.3357455
1.3357393
1.3357331
1.3357268
1.3357206
1.3357142
1.3357078
1.3357014
1.3356949
1.3356884
1.3356819
1.3356753
1.3356687
1.335662
1.3356553
1.3356485
1.3356418
1.3356349
1.3356281
1.3356212
1.3356142
1.3356072
1.3356002
1.3355931
1.335586
1.3355789
1.3355717
1.3355645
1.3355573
1.33555
1.3355427
1.3355354
1.335528
1.3355206
1.3355131
1.3355057
1.3354982
1.3354906
1.335483
1.3354754
1.3354678
1.3354601
1.3354524
1.3354447
1.335437
1.3354292
1.3354214
1.3354135
1.3354057
1.3353978
1.3353899
1.3353819
1.335374
1.335366
1.335358
1.3353499
1.3353418
1.3353338
1.3353257
1.3353175
1.3353094
1.3353012
1.335293
1.3352848
1.3352766
1.3352683
1.33526
1.3352517
1.3352434
1.3352351
1.3352268
1.3352184
1.33521
1.3352016
1.3351932
1.3351848
1.3351764
1.335168
1.3351595
1.335151
1.3351425
1.3351341
1.3351256
1.335117
1.3351085
1.3351
1.3350915
1.3350829
1.3350744
1.3350658
1.3350572
1.3350487
1.3350401
1.3350315
1.3350229
1.3350143
1.3350057
1.3349971
1.3349885
1.3349799
1.3349713
1.3349627
1.3349541
1.3349455
1.3349369
1.3349283
1.3349197
1.3349111
1.3349025
1.3348939
1.3348853
1.3348767
1.3348681
1.3348595
1.334851
1.3348424
1.3348338
1.3348253
1.3348167
1.3348082
1.3347997
1.3347912
1.3347826
1.3347741
1.3347656
1.3347572
1.3347487
1.3347402
1.3347318
1.3347234
1.3347149
1.3347065
1.3346981
1.3346897
1.3346814
1.334673
1.3346647
1.3346564
1.3346481
1.3346398
1.3346315
1.3346232
1.334615
1.3346068
1.3345986
1.3345904
1.3345822
1.3345741
1.334566
1.3345578
1.3345498
1.3345417
1.3345337
1.3345257
1.3345177
1.3345097
1.3345017
1.3344938
1.3344859
1.334478
1.3344701
1.3344623
1.3344545
1.3344467
1.334439
1.3344312
1.3344235
1.3344158
1.3344082
1.3344005
1.3343929
1.3343854
1.3343778
1.3343703
1.3343628
1.3343553
1.3343479
1.3343405
1.3343331
1.3343257
1.3343184
1.3343111
1.3343038
1.3342966
1.3342894
1.3342822
1.334275
1.3342679
1.3342608
1.3342538
1.3342468
1.3342398
1.3342328
1.3342259
1.3342189
1.3342121
1.3342052
1.3341984
1.3341916
1.3341849
1.3341782
1.3341715
1.3341648
1.3341582
1.3341516
1.3341451
1.3341385
1.334132
1.3341256
1.3341191
1.3341127
1.3341064
1.3341
1.3340937
1.3340875
1.3340812
1.334075
1.3340688
1.3340627
1.3340566
1.3340505
1.3340445
1.3340385
1.3340325
1.3340265
1.3340206
1.3340147
1.3340089
1.3340031
1.3339973
1.3339915
1.3339858
1.3339801
1.3339744
1.3339688
1.3339632
1.3339576
1.3339521
1.3339466
1.3339411
1.3339357
1.3339303
1.3339249
1.3339196
1.3339143
1.333909
1.3339037
1.3338985
1.3338933
1.3338881
1.333883
1.3338779
1.3338728
1.3338678
1.3338628
1.3338578
1.3338528
1.3338479
1.333843
1.3338382
1.3338333
1.3338285
1.3338238
1.333819
1.3338143
1.3338096
1.3338049
1.3338003
1.3337957
1.3337911
1.3337866
1.3337821
1.3337776
1.3337731
1.3337687
1.3337643
1.3337599
1.3337555
1.3337512
1.3337469
1.3337426
1.3337384
1.3337342
1.33373
1.3337258
1.3337217
1.3337176
1.3337135
1.3337094
1.3337054
1.3337014
1.3336974
1.3336934
1.3336895
1.3336856
1.3336817
1.3336779
1.333674
1.3336702
1.3336665
1.3336627
1.333659
1.3336553
1.3336516
1.3336479
1.3336443
1.3336407
1.3336371
1.3336335
1.33363
1.3336265
1.333623
1.3336195
1.3336161
1.3336127
1.3336093
1.3336059
1.3336026
1.3335992
1.3335959
1.3335927
1.3335894
1.3335862
1.333583
1.3335798
1.3335766
1.3335735
1.3335704
1.3335673
1.3335642
1.3335611
1.3335581
1.3335551
1.3335521
1.3335492
1.3335462
1.3335433
1.3335404
1.3335375
1.3335347
1.3335318
1.333529
1.3335262
1.3335235
1.3335207
1.333518
1.3335153
1.3335126
1.3335099
1.3335073
1.3335047
1.3335021
1.3334995
1.333497
1.3334944
1.3334919
1.3334894
1.333487
1.3334845
1.3334821
1.3334797
1.3334773
1.3334749
1.3334726
1.3334703
1.333468
1.3334657
1.3334634
1.3334612
1.3334589
1.3334567
1.3334545
1.3334524
1.3334502
1.3334481
1.333446
1.3334439
1.3334419
1.3334398
1.3334378
1.3334358
1.3334338
1.3334318
1.3334299
1.333428
1.3334261
1.3334242
1.3334223
1.3334204
1.3334186
1.3334168
1.333415
1.3334132
1.3334115
1.3334097
1.333408
1.3334063
1.3334046
1.333403
1.3334013
1.3333997
1.3333981
1.3333965
1.3333949
1.3333934
1.3333919
1.3333903
1.3333888
1.3333874
1.3333859
1.3333844
1.333383
1.3333816
1.3333802
1.3333788
1.3333775
1.3333761
1.3333748
1.3333735
1.3333722
1.3333709
1.3333696
1.3333684
1.3333671
1.3333659
1.3333647
1.3333636
1.3333624
1.3333612
1.3333601
1.333359
1.3333579
1.3333568
1.3333557
1.3333546
1.3333536
1.3333526
1.3333515
1.3333505
1.3333496
1.3333486
1.3333476
1.3333467
1.3333457
1.3333448
1.3333439
1.333343
1.3333421
1.3333413
1.3333404
1.3333396
1.3333388
1.333338
1.3333372
1.3333364
1.3333356
1.3333348
1.3333341
1.3333333
1.3333326
1.3333319
1.3333312
1.3333305
1.3333298
1.3333291
1.3333285
1.3333278
1.3333272
1.3333266
1.333326
1.3333254
1.3333248
1.3333242
1.3333236
1.3333231
1.3333225
1.333322
1.3333214
1.3333209
1.3333204
1.3333199
1.3333194
1.3333189
1.3333184
1.3333179
1.3333175
1.333317
1.3333166
1.3333161
1.3333157
1.3333153
1.3333149
1.3333145
1.3333141
1.3333137
1.3333133
1.3333129
1.3333126
1.3333122
1.3333119
1.3333115
1.3333112
1.3333108
1.3333105
1.3333102
1.3333099
1.3333096
1.3333093
1.333309
1.3333087
1.3333084
1.3333082
1.3333079
1.3333076
1.3333074
1.3333071
1.3333069
1.3333066
1.3333064
1.3333062
1.3333059
1.3333057
1.3333055
1.3333053
1.3333051
1.3333049
1.3333047
1.3333045
1.3333043
1.3333041
1.3333039
1.3333037
1.3333036
1.3333034
1.3333032
1.3333031
1.3333029
1.3333028
1.3333026
1.3333025
1.3333023
1.3333022
1.3333021
1.3333019
1.3333018
1.3333017
1.3333015
1.3333014
1.3333013
1.3333012
1.3333011
1.333301
1.3333009
1.3333008
1.3333007
1.3333006
1.3333005
1.3333004
1.3333003
1.3333002
1.3333001
1.3333
1.3332999
1.3332999
1.3332998
1.3332997
1.3332996
1.3332996
1.3332995
1.3332994
1.3332993
1.3332993
1.3332992
1.3332992
1.3332991
1.333299
1.333299
1.3332989
1.3332989
1.3332988
1.3332988
1.3332987
1.3332987
1.3332986
1.3332986
1.3332985
1.3332985
1.3332984
1.3332984
1.3332984
1.3332983
1.3332983
1.3332982
1.3332982
1.3332982
1.3332981
1.3332981
1.3332981
1.333298
1.333298
1.333298
1.333298
1.3332979
1.3332979
1.3332979
1.3332978
1.3332978
1.3332978
1.3332978
1.3332977
1.3332977
1.3332977
1.3332977
1.3332977
1.3332976
1.3332976
1.3332976
1.3332976
1.3332976
1.3332975
1.3332975
1.3332975
1.3332975
1.3332975
1.3332975
1.3332974
1.3332974
1.3332974
1.3332974
1.3332974
1.3332974
1.3332974
1.3332973
1.3332973
1.3332973
1.3332973
1.3332973
1.3332973
1.3332973
1.3332972
1.3332972
1.3332972
1.3332972
1.3332972
1.3332972
1.3332972
1.3332972
1.3332972
1.3332972
1.3332971
1.3332971
1.3332971
1.3332971
1.3332971
1.3332971
1.3332971
1.3332971
1.3332971
1.333297
1.333297
1.333297
1.333297
1.333297
1.333297
1.333297
1.333297
1.333297
1.333297
1.3332969
1.3332969
1.3332969
1.3332969
1.3332969
1.3332969
1.3332969
1.3332969
1.3332969
1.3332969
1.3332969
1.3332969
1.3332968
1.3332968
1.3332968
1.3332968
1.3332968
1.3332968
1.3332968
1.3332968
1.3332968
1.3332968
1.3332968
1.3332967
1.3332967
1.3332967
1.3332967
1.3332967
1.3332967
1.3332967
1.3332967
1.3332967
1.3332967
1.3332967
1.3332967
1.3332966
1.3332966
1.3332966
1.3332966
1.3332966
1.3332966
1.3332966
1.3332966
1.3332966
1.3332966
1.3332966
1.3332965
1.3332965
1.3332965
1.3332965
1.3332965
1.3332965
1.3332965
1.3332965
1.3332965
1.3332965
1.3332964
1.3332964
1.3332964
1.3332964
1.3332964
1.3332964
1.3332964
1.3332964
1.3332964
1.3332964
1.3332963
1.3332963
1.3332963
1.3332963
1.3332963
1.3332963
1.3332963
1.3332963
1.3332963
1.3332963
1.3332962
1.3332962
1.3332962
1.3332962
1.3332962
1.3332962
1.3332962
1.3332962
1.3332962
1.3332961
1.3332961
1.3332961
1.3332961
1.3332961
1.3332961
1.3332961
1.3332961
1.3332961
1.333296
1.333296
1.333296
1.333296
1.333296
1.333296
1.333296
1.333296
1.333296
1.3332959
1.3332959
1.3332959
1.3332959
1.3332959
1.3332959
1.3332959
1.3332959
1.3332959
1.3332958
1.3332958
1.3332958
1.3332958
1.3332958
1.3332958
1.3332958
1.3332958
1.3332958
1.3332957
1.3332957
1.3332957
1.3332957
1.3332957
1.3332957
1.3332957
1.3332957
1.3332957
1.3332956
1.3332956
1.3332956
1.3332956
1.3332956
1.3332956
1.3332956
1.3332956
1.3332956
1.3332955
1.3332955
1.3332955
1.3332955
1.3332955
1.3332955
1.3332955
1.3332955
1.3332955
1.3332954
1.3332954
1.3332954
1.3332954
1.3332954
1.3332954
1.3332954
1.3332954
1.3332954
1.3332953
1.3332953
1.3332953
1.3332953
1.3332953
1.3332953
1.3332953
1.3332953
1.3332953
1.3332952
1.3332952
1.3332952
1.3332952
1.3332952
1.3332952
1.3332952
1.3332952
1.3332952
1.3332952
1.3332951
1.3332951
1.3332951
1.3332951
1.3332951
1.3332951
1.3332951
1.3332951
1.3332951
1.333295
1.333295
1.333295
1.333295
1.333295
1.333295
1.333295
1.333295
1.333295
1.333295
1.3332949
1.3332949
1.3332949
1.3332949
1.3332949
1.3332949
1.3332949
1.3332949
1.3332949
1.3332948
1.3332948
1.3332948
1.3332948
1.3332948
1.3332948
1.3332948
1.3332948
1.3332948
1.3332947
1.3332947
1.3332947
1.3332947
1.3332947
1.3332947
1.3332947
1.3332947
1.3332947
1.3332946
1.3332946
1.3332946
1.3332946
1.3332946
1.3332946
1.3332946
1.3332946
1.3332945
1.3332945
1.3332945
1.3332945
1.3332945
1.3332945
1.3332945
1.3332945
1.3332945
1.3332944
1.3332944
1.3332944
1.3332944
1.3332944
1.3332944
1.3332944
1.3332944
1.3332943
1.3332943
1.3332943
1.3332943
1.3332943
1.3332943
1.3332943
1.3332943
1.3332943
1.3332942
1.3332942
1.3332942
1.3332942
1.3332942
1.3332942
1.3332942
1.3332942
1.3332941
1.3332941
1.3332941
1.3332941
1.3332941
1.3332941
1.3332941
1.333294
1.333294
1.333294
1.333294
1.333294
1.333294
1.333294
1.3332939
1.3332939
1.3332939
1.3332939
1.3332939
1.3332939
1.3332939
1.3332939
1.3332938
1.3332938
1.3332938
1.3332938
1.3332938
1.3332938
1.3332938
1.3332938
1.3332937
1.3332937
1.3332937
1.3332937
1.3332937
1.3332937
1.3332937
1.3332936
1.3332936
1.3332936
1.3332936
1.3332936
1.3332936
1.3332936
1.3332935
1.3332935
1.3332935
1.3332935
1.3332935
1.3332935
1.3332935
1.3332934
1.3332934
1.3332934
1.3332934
1.3332934
1.3332934
1.3332934
1.3332934
1.3332933
1.3332933
1.3332933
1.3332933
1.3332933
1.3332933
1.3332933
1.3332932
1.3332932
1.3332932
1.3332932
1.3332932
1.3332932
1.3332931
1.3332931
1.3332931
1.3332931
1.3332931
1.3332931
1.3332931
1.333293
1.333293
1.333293
1.333293
1.333293
1.333293
1.333293
1.3332929
1.3332929
1.3332929
1.3332929
1.3332929
1.3332929
1.3332928
1.3332928
1.3332928
1.3332928
1.3332928
1.3332928
1.3332928
1.3332928
1.3332927
1.3332927
1.3332927
1.3332927
1.3332927
1.3332927
1.3332926
1.3332926
1.3332926
1.3332926
1.3332926
1.3332926
1.3332925
1.3332925
1.3332925
1.3332925
1.3332925
1.3332925
1.3332924
1.3332924
1.3332924
1.3332924
1.3332924
1.3332924
1.3332923
1.3332923
1.3332923
1.3332923
1.3332923
1.3332923
1.3332923
1.3332922
1.3332922
1.3332922
1.3332922
1.3332922
1.3332922
1.3332921
1.3332921
1.3332921
1.3332921
1.3332921
1.3332921
1.333292
1.333292
1.333292
1.333292
1.333292
1.333292
1.3332919
1.3332919
1.3332919
1.3332919
1.3332919
1.3332919
1.3332918
1.3332918
1.3332918
1.3332918
1.3332918
1.3332917
1.3332917
1.3332917
1.3332917
1.3332917
1.3332917
1.3332917
1.3332916
1.3332916
1.3332916
1.3332916
1.3332916
1.3332915
1.3332915
1.3332915
1.3332915
1.3332915
1.3332914
1.3332914
1.3332914
1.3332914
1.3332914
1.3332913
1.3332913
1.3332913
1.3332913
1.3332913
1.3332913
1.3332912
1.3332912
1.3332912
1.3332912
1.3332912
1.3332911
1.3332911
1.3332911
1.3332911
1.3332911
1.3332911
1.333291
1.333291
1.333291
1.333291
1.333291
1.3332909
1.3332909
1.3332909
1.3332909
1.3332909
1.3332908
1.3332908
1.3332908
1.3332908
1.3332908
1.3332908
1.3332907
1.3332907
1.3332907
1.3332907
1.3332907
1.3332906
1.3332906
1.3332906
1.3332906
1.3332906
1.3332905
1.3332905
1.3332905
1.3332905
1.3332905
1.3332904
1.3332904
1.3332904
1.3332904
1.3332904
1.3332903
1.3332903
1.3332903
1.3332903
1.3332903
1.3332902
1.3332902
1.3332902
1.3332902
1.3332902
1.3332901
1.3332901
1.3332901
1.3332901
1.3332901
1.33329
1.33329
1.33329
1.33329
1.33329
1.3332899
1.3332899
1.3332899
1.3332899
1.3332899
1.3332898
1.3332898
1.3332898
1.3332898
1.3332897
1.3332897
1.3332897
1.3332897
1.3332897
1.3332896
1.3332896
1.3332896
1.3332896
1.3332895
1.3332895
1.3332895
1.3332895
1.3332895
1.3332894
1.3332894
1.3332894
1.3332894
1.3332894
1.3332893
1.3332893
1.3332893
1.3332893
1.3332892
1.3332892
1.3332892
1.3332892
1.3332892
1.3332891
1.3332891
1.3332891
1.3332891
1.333289
1.333289
1.333289
1.333289
1.333289
1.3332889
1.3332889
1.3332889
1.3332889
1.3332888
1.3332888
1.3332888
1.3332888
1.3332887
1.3332887
1.3332887
1.3332887
1.3332886
1.3332886
1.3332886
1.3332886
1.3332886
1.3332885
1.3332885
1.3332885
1.3332885
1.3332884
1.3332884
1.3332884
1.3332884
1.3332883
1.3332883
1.3332883
1.3332883
1.3332882
1.3332882
1.3332882
1.3332882
1.3332881
1.3332881
1.3332881
1.333288
1.333288
1.333288
1.333288
1.3332879
1.3332879
1.3332879
1.3332879
1.3332878
1.3332878
1.3332878
1.3332878
1.3332877
1.3332877
1.3332877
1.3332877
1.3332876
1.3332876
1.3332876
1.3332875
1.3332875
1.3332875
1.3332875
1.3332874
1.3332874
1.3332874
1.3332874
1.3332873
1.3332873
1.3332873
1.3332872
1.3332872
1.3332872
1.3332872
1.3332871
1.3332871
1.3332871
1.333287
1.333287
1.333287
1.333287
1.3332869
1.3332869
1.3332869
1.3332868
1.3332868
1.3332868
1.3332868
1.3332867
1.3332867
1.3332867
1.3332866
1.3332866
1.3332866
1.3332865
1.3332865
1.3332865
1.3332864
1.3332864
1.3332864
1.3332864
1.3332863
1.3332863
1.3332863
1.3332862
1.3332862
1.3332862
1.3332861
1.3332861
1.3332861
1.333286
1.333286
1.333286
1.3332859
1.3332859
1.3332859
1.3332859
1.3332858
1.3332858
1.3332858
1.3332857
1.3332857
1.3332857
1.3332857
1.3332856
1.3332856
1.3332856
1.3332855
1.3332855
1.3332855
1.3332854
1.3332854
1.3332854
1.3332853
1.3332853
1.3332853
1.3332852
1.3332852
1.3332852
1.3332851
1.3332851
1.3332851
1.333285
1.333285
1.333285
1.3332849
1.3332849
1.3332849
1.3332848
1.3332848
1.3332848
1.3332847
1.3332847
1.3332847
1.3332846
1.3332846
1.3332846
1.3332845
1.3332845
1.3332845
1.3332844
1.3332844
1.3332844
1.3332843
1.3332843
1.3332842
1.3332842
1.3332842
1.3332841
1.3332841
1.3332841
1.333284
1.333284
1.333284
1.3332839
1.3332839
1.3332839
1.3332838
1.3332838
1.3332837
1.3332837
1.3332836
1.3332836
1.3332836
1.3332835
1.3332835
1.3332835
1.3332834
1.3332834
1.3332833
1.3332833
1.3332833
1.3332832
1.3332832
1.3332832
1.3332831
1.3332831
1.333283
1.333283
1.333283
1.3332829
1.3332829
1.3332828
1.3332828
1.3332828
1.3332827
1.3332827
1.3332826
1.3332826
1.3332826
1.3332825
1.3332825
1.3332824
1.3332824
1.3332823
1.3332823
1.3332823
1.3332822
1.3332822
1.3332821
1.3332821
1.333282
1.333282
1.333282
1.3332819
1.3332819
1.3332818
1.3332818
1.3332817
1.3332817
1.3332816
1.3332816
1.3332816
1.3332815
1.3332815
1.3332814
1.3332814
1.3332813
1.3332813
1.3332812
1.3332812
1.3332812
1.3332811
1.3332811
1.333281
1.333281
1.3332809
1.3332809
1.3332808
1.3332808
1.3332807
1.3332807
1.3332806
1.3332806
1.3332805
1.3332805
1.3332804
1.3332804
1.3332803
1.3332803
1.3332802
1.3332802
1.3332801
1.3332801
1.33328
1.33328
1.3332799
1.3332799
1.3332798
1.3332798
1.3332797
1.3332797
1.3332796
1.3332796
1.3332795
1.3332795
1.3332794
1.3332794
1.3332793
1.3332793
1.3332792
1.3332792
1.3332791
1.333279
1.333279
1.3332789
1.3332789
1.3332788
1.3332788
1.3332787
1.3332787
1.3332786
1.3332785
1.3332785
1.3332784
1.3332784
1.3332783
1.3332783
1.3332782
1.3332782
1.3332781
1.333278
1.333278
1.3332779
1.3332779
1.3332778
1.3332777
1.3332777
1.3332776
1.3332776
1.3332775
1.3332774
1.3332774
1.3332773
1.3332773
1.3332772
1.3332771
1.3332771
1.333277
1.3332769
1.3332769
1.3332768
1.3332768
1.3332767
1.3332766
1.3332766
1.3332765
1.3332764
1.3332764
1.3332763
1.3332762
1.3332762
1.3332761
1.333276
1.333276
1.3332759
1.3332758
1.3332758
1.3332757
1.3332756
1.3332756
1.3332755
1.3332754
1.3332754
1.3332753
1.3332752
1.3332752
1.3332751
1.333275
1.3332749
1.3332749
1.3332748
1.3332747
1.3332747
1.3332746
1.3332745
1.3332744
1.3332744
1.3332743
1.3332742
1.3332741
1.3332741
1.333274
1.3332739
1.3332738
1.3332738
1.3332737
1.3332736
1.3332735
1.3332734
1.3332734
1.3332733
1.3332732
1.3332731
1.333273
1.333273
1.3332729
1.3332728
1.3332727
1.3332726
1.3332725
1.3332725
1.3332724
1.3332723
1.3332722
1.3332721
1.333272
1.333272
1.3332719
1.3332718
1.3332717
1.3332716
1.3332715
1.3332714
1.3332714
1.3332713
1.3332712
1.3332711
1.333271
1.3332709
1.3332708
1.3332707
1.3332706
1.3332705
1.3332704
1.3332703
1.3332702
1.3332701
1.33327
1.3332699
1.3332698
1.3332697
1.3332696
1.3332695
1.3332694
1.3332693
1.3332692
1.3332691
1.333269
1.3332689
1.3332688
1.3332687
1.3332686
1.3332685
1.3332684
1.3332683
1.3332682
1.3332681
1.333268
1.3332679
1.3332678
1.3332677
1.3332676
1.3332674
1.3332673
1.3332672
1.3332671
1.333267
1.3332669
1.3332667
1.3332666
1.3332665
1.3332664
1.3332663
1.3332661
1.333266
1.3332659
1.3332658
1.3332657
1.3332655
1.3332654
1.3332653
1.3332651
1.333265
1.3332649
1.3332648
1.3332646
1.3332645
1.3332644
1.3332642
1.3332641
1.3332639
1.3332638
1.3332637
1.3332635
1.3332634
1.3332632
1.3332631
1.3332629
1.3332628
1.3332627
1.3332625
1.3332624
1.3332622
1.3332621
1.3332619
1.3332618
1.3332616
1.3332615
1.3332613
1.3332612
1.333261
1.3332609
1.3332607
1.3332605
1.3332604
1.3332602
1.3332601
1.3332599
1.3332597
1.3332595
1.3332594
1.3332592
1.333259
1.3332588
1.3332587
1.3332585
1.3332583
1.3332581
1.3332579
1.3332577
1.3332576
1.3332574
1.3332572
1.333257
1.3332568
1.3332566
1.3332564
1.3332562
1.333256
1.3332558
1.3332556
1.3332554
1.3332552
1.333255
1.3332548
1.3332546
1.3332543
1.3332541
1.3332539
1.3332537
1.3332535
1.3332532
1.333253
1.3332528
1.3332526
1.3332523
1.3332521
1.3332518
1.3332516
1.3332513
1.3332511
1.3332508
1.3332506
1.3332503
1.33325
1.3332498
1.3332495
1.3332492
1.333249
1.3332487
1.3332484
1.3332481
1.3332479
1.3332476
1.3332473
1.333247
1.3332467
1.3332464
1.3332461
1.3332458
1.3332455
1.3332452
1.3332449
1.3332446
1.3332443
1.3332439
1.3332436
1.3332432
1.3332429
1.3332425
1.3332422
1.3332418
1.3332414
1.3332411
1.3332407
1.3332403
1.3332399
1.3332395
1.3332391
1.3332387
1.3332383
1.3332379
1.3332375
1.3332371
1.3332367
1.3332362
1.3332358
1.3332353
1.3332349
1.3332344
1.3332339
1.3332335
1.333233
1.3332325
1.333232
1.3332315
1.333231
1.3332305
1.33323
1.3332294
1.3332289
1.3332284
1.3332279
1.3332273
1.3332268
1.3332262
1.3332257
1.3332251
1.3332246
1.3332241
1.3332235
1.333223
1.3332225
1.333222
1.3332215
1.333221
1.3332205
1.3332201
1.3332196
1.3332192
1.3332189
1.3332185
1.3332182
1.3332179
1.3332177
1.3332175
1.3332173
1.3332172
1.3332171
1.3332171
1.333217
1.333217
1.333217
1.333217
1.3332171
1.3332172
1.3332173
1.3332174
1.3332175
1.3332176
1.3332176
1.3332177
1.3332177
1.3332177
1.3332177
1.3332176
1.3332175
1.3332172
1.3332167
1.3332161
1.3332154
1.3332146
1.3332138
1.3332128
1.3332118
1.3332108
1.3332096
1.3332085
1.3332072
1.333206
1.3332048
1.3332035
1.3332023
1.3332011
1.3331999
1.3331988
1.3331978
1.3331968
1.3331959
1.3331951
1.3331944
1.3331938
1.3331933
1.333193
1.3331927
1.3331926
1.3331924
1.3331921
1.3331916
1.3331904
1.3331876
1.3331809
1.3331646
1.3331241
1.3330242
1.332776
1.3321667
1.3307386
1.3286109
1.3259741
1.3228647
1.3193467
1.3155033
1.3114292
1.3072245
1.3029881
1.2988121
1.2947776
1.2909518
1.2873866
1.2841181
1.2811678
1.2785433
1.2762412
1.2742488
1.2725465
1.27111
1.2699124
1.2689255
1.2681215
1.2674739
1.2669579
1.2665513
1.2662344
1.2659901
1.265804
1.2656637
1.2655594
1.2654828
1.2654274
1.265388
1.2653606
1.265342
1.2653298
1.2653221
1.2653178
1.2653156
1.2653149
1.2653148
1.2653152
1.2653167
1.2653191
1.2653214
1.2653236
1.2653257
1.2653277
1.2653295
1.2653313
1.2653329
1.2653346
1.2653361
1.2653376
1.2653391
1.2653407
1.2653422
1.2653438
1.2653454
1.265347
1.2653487
1.2653505
1.2653523
1.2653542
1.2653562
1.2653582
1.2653602
1.2653623
1.2653644
1.2653664
1.2653685
1.2653706
1.2653726
1.2653746
1.2653766
1.2653785
1.2653803
1.2653821
1.2653838
1.2653855
1.265387
1.2653885
1.2653899
1.2653913
1.2653925
1.2653938
1.2653949
1.265396
1.2653971
1.2653981
1.265399
1.2653999
1.2654008
1.2654016
1.2654024
1.2654032
1.265404
1.2654047
1.2654054
1.2654061
1.2654067
1.2654074
1.265408
1.2654086
1.2654092
1.2654098
1.2654104
1.2654109
1.2654115
1.265412
1.2654125
1.265413
1.2654135
1.265414
1.2654145
1.265415
1.2654155
1.2654159
1.2654164
1.2654168
1.2654173
1.2654177
1.2654181
1.2654186
1.265419
1.2654194
1.2654198
1.2654202
1.2654206
1.2654209
1.2654213
1.2654217
1.2654221
1.2654224
1.2654228
1.2654232
1.2654235
1.2654238
1.2654242
1.2654245
1.2654249
1.2654252
1.2654255
1.2654258
1.2654261
1.2654264
1.2654267
1.265427
1.2654273
1.2654276
1.2654279
1.2654282
1.2654285
1.2654287
1.265429
1.2654293
1.2654296
1.2654298
1.2654301
1.2654303
1.2654306
1.2654309
1.2654311
1.2654314
1.2654316
1.2654319
1.2654321
1.2654324
1.2654326
1.2654328
1.2654331
1.2654333
1.2654335
1.2654337
1.265434
1.2654342
1.2654344
1.2654346
1.2654348
1.265435
1.2654352
1.2654354
1.2654357
1.2654359
1.2654361
1.2654363
1.2654365
1.2654367
1.2654369
1.2654371
1.2654372
1.2654374
1.2654376
1.2654378
1.265438
1.2654382
1.2654384
1.2654385
1.2654387
1.2654389
1.2654391
1.2654392
1.2654394
1.2654396
1.2654397
1.2654399
1.2654401
1.2654402
1.2654404
1.2654405
1.2654407
1.2654409
1.265441
1.2654412
1.2654413
1.2654415
1.2654416
1.2654418
1.2654419
1.2654421
1.2654422
1.2654424
1.2654425
1.2654427
1.2654428
1.265443
1.2654431
1.2654432
1.2654434
1.2654435
1.2654437
1.2654438
1.2654439
1.2654441
1.2654442
1.2654443
1.2654445
1.2654446
1.2654447
1.2654449