/*--------------------------------*- C++ -*----------------------------------*\
  =========                 |
  \\      /  F ield         | OpenFOAM: The Open Source CFD Toolbox
   \\    /   O peration     | Website:  https://openfoam.org
    \\  /    A nd           | Version:  7
     \\/     M anipulation  |
\*---------------------------------------------------------------------------*/
FoamFile
{
    version     2.0;
    format      ascii;
    class       volVectorField;
    location    "0.00205";
    object      U;
}
// * * * * * * * * * * * * * * * * * * * * * * * * * * * * * * * * * * * * * //

dimensions      [0 1 -1 0 0 0 0];

internalField   nonuniform List<vector> 
5000
(
(23.100845 6.7259798e-21 0)
(23.100843 9.0973866e-21 0)
(23.10084 0 0)
(23.100838 0 0)
(23.100837 -4.2103411e-21 0)
(23.100837 4.4807016e-36 -3.9412668e-21)
(23.100836 3.8772951e-21 -8.2649516e-36)
(23.100835 0 1.2202627e-20)
(23.100834 0 4.204062e-21)
(23.100833 -4.2316481e-21 -8.4632963e-21)
(23.100831 -8.356023e-21 -8.356023e-21)
(23.10083 4.1069299e-21 4.1069299e-21)
(23.10083 4.0443234e-21 -3.4483976e-35)
(23.100829 -4.0119481e-21 -3.5348191e-35)
(23.100827 0 8.0510376e-21)
(23.100826 -4.0376318e-21 -8.0752635e-21)
(23.100825 -3.0221654e-50 -1.5110827e-50)
(23.100824 3.9872107e-21 -3.5130236e-35)
(23.100823 0 -3.9409838e-21)
(23.100822 3.8885868e-21 7.7771737e-21)
(23.100821 -3.8348629e-21 3.8348629e-21)
(23.10082 -3.7811589e-21 0)
(23.100819 7.4705875e-21 0)
(23.100818 -3.7100399e-21 -3.7100399e-21)
(23.100817 -3.6995841e-21 3.1544551e-35)
(23.100816 -3.0379432e-35 -3.0379432e-35)
(23.100815 3.6567421e-21 -3.6567421e-21)
(23.100814 3.612829e-21 3.612829e-21)
(23.100813 -7.1265475e-21 3.5632738e-21)
(23.100812 6.101105e-35 -3.5190745e-21)
(23.100811 -6.0639735e-35 6.0639735e-35)
(23.10081 3.4187941e-21 -2.9150392e-35)
(23.100809 6.7288137e-21 -3.3644068e-21)
(23.100808 -6.5919245e-21 3.2959623e-21)
(23.100807 5.5947113e-35 3.2269902e-21)
(23.100807 -2.7694496e-34 0)
(23.100806 -1.0211601e-34 0)
(23.100806 5.7152618e-21 -2.8576309e-21)
(23.100804 -6.1335642e-21 -3.0667821e-21)
(23.100803 -6.1561445e-21 3.0780723e-21)
(23.100802 5.8621127e-21 -4.9150323e-35)
(23.100802 -1.9775161e-34 -2.87511e-21)
(23.100801 -5.7895954e-21 2.8947977e-21)
(23.1008 2.9020225e-21 -4.9075861e-35)
(23.100799 8.6171129e-21 -2.872371e-21)
(23.100798 -2.8345944e-21 2.8345944e-21)
(23.100798 -2.7903103e-21 -9.595952e-35)
(23.100797 -1.8759124e-34 9.3795622e-35)
(23.100796 -5.3748999e-21 -9.2422125e-35)
(23.100796 0 4.474463e-35)
(23.100795 2.5687179e-21 2.5687179e-21)
(23.100795 3.6273824e-37 0)
(23.100794 -2.5702328e-21 0)
(23.100793 5.1130917e-21 0)
(23.100792 -8.7520872e-35 0)
(23.100792 -4.897453e-21 0)
(23.100791 2.4190229e-21 0)
(23.100791 -8.4248523e-35 0)
(23.10079 -2.4438425e-21 0)
(23.100789 0 0)
(23.100789 2.3629467e-21 0)
(23.100789 7.518263e-35 0)
(23.100788 6.1204996e-37 0)
(23.100788 2.273989e-21 -2.273989e-21)
(23.100787 -2.3690432e-21 -2.3690432e-21)
(23.100786 8.4152572e-35 2.4071995e-21)
(23.100786 2.3897271e-21 -4.1091678e-35)
(23.100785 -2.3060477e-21 3.3458531e-52)
(23.100785 -2.2711107e-21 2.2711107e-21)
(23.100784 2.3347978e-21 0)
(23.100784 2.4233271e-21 0)
(23.100783 -2.4916972e-21 -2.4916972e-21)
(23.100782 -2.5161557e-21 -2.5161557e-21)
(23.100781 4.9960097e-21 0)
(23.100781 2.4776287e-21 2.4776287e-21)
(23.10078 -2.4514241e-21 8.46535e-35)
(23.10078 0 -2.4348947e-21)
(23.100779 2.4701936e-21 -2.4701936e-21)
(23.100779 -3.6118076e-37 2.5415836e-21)
(23.100778 -2.6066055e-21 5.213211e-21)
(23.100777 2.6077208e-21 -5.2154416e-21)
(23.100777 -7.2156762e-37 1.4431352e-36)
(23.100777 7.0649933e-37 7.4573206e-21)
(23.100776 2.5400192e-21 -5.0800383e-21)
(23.100775 2.6684514e-21 -2.7758154e-34)
(23.100774 9.5619502e-35 5.4927545e-21)
(23.100773 -2.7650967e-21 -8.2952902e-21)
(23.100772 0 2.7283755e-21)
(23.100772 -2.5796272e-21 2.5796272e-21)
(23.100772 -2.6388323e-34 -2.5437166e-21)
(23.100771 -9.4207509e-35 2.6948228e-21)
(23.100771 2.8393391e-21 2.8393391e-21)
(23.10077 2.9163292e-21 1.0153665e-34)
(23.100769 -5.9118969e-21 -5.9118969e-21)
(23.100768 -2.0511542e-34 -2.0511542e-34)
(23.100767 2.9297232e-21 -2.9297232e-21)
(23.100767 0 -2.8871748e-21)
(23.100766 0 -9.8843184e-35)
(23.100766 -2.8191566e-21 1.9630686e-34)
(23.100765 -2.0359059e-34 5.8714813e-21)
(23.100764 6.0364093e-21 3.0182046e-21)
(23.100763 -3.0464806e-21 -3.0464806e-21)
(23.100763 -6.0839553e-21 4.3229103e-37)
(23.100762 0 3.0013511e-21)
(23.100761 2.9778587e-21 0)
(23.100761 3.0158737e-21 -3.0158737e-21)
(23.100759 -3.0984397e-21 -1.0787712e-34)
(23.100758 -3.1352562e-21 3.1352562e-21)
(23.100757 0 -3.0972918e-21)
(23.100757 0 -3.0270081e-21)
(23.100757 2.8579727e-21 5.7159455e-21)
(23.100756 2.8313341e-21 2.8313341e-21)
(23.100756 0 -9.0070842e-21)
(23.100755 -3.1299208e-21 -3.1299208e-21)
(23.100754 1.1176431e-34 9.5911144e-21)
(23.100753 3.2019296e-21 -3.2019296e-21)
(23.100752 -3.1797168e-21 -3.1797168e-21)
(23.100751 8.9741907e-37 -1.7948381e-36)
(23.100751 -1.082936e-34 -3.0977581e-21)
(23.10075 2.8849622e-51 9.2189238e-21)
(23.100749 6.27141e-21 -2.1924036e-34)
(23.100748 -1.3645026e-36 -6.4012222e-21)
(23.100747 -3.2295182e-21 6.4590365e-21)
(23.100746 0 3.2144663e-21)
(23.100746 -3.144663e-21 -3.144663e-21)
(23.100745 3.1105304e-21 3.1105304e-21)
(23.100744 3.1651376e-21 -3.1651376e-21)
(23.100743 -6.4785282e-21 -6.4785282e-21)
(23.100742 -3.2796073e-21 3.2796073e-21)
(23.100742 6.5489781e-21 1.1307589e-34)
(23.100741 3.230196e-21 3.230196e-21)
(23.10074 -3.2031569e-21 6.4063138e-21)
(23.100739 -3.2310974e-21 -3.2310974e-21)
(23.100738 -3.2947711e-21 -3.2947711e-21)
(23.100737 0 -3.3380059e-21)
(23.100736 3.3230678e-21 -1.156979e-34)
(23.100736 3.2820532e-21 -1.138035e-34)
(23.100735 -3.2337725e-21 1.1258894e-34)
(23.100734 -1.1197832e-34 6.4588311e-21)
(23.100733 3.3017151e-21 3.3017151e-21)
(23.100732 -3.3567743e-21 -3.3567743e-21)
(23.100731 -3.3670957e-21 -6.7341913e-21)
(23.10073 0 -3.3377975e-21)
(23.10073 3.2650517e-21 -3.2650517e-21)
(23.100729 3.2261723e-21 2.2373173e-34)
(23.100728 -3.274813e-21 6.549626e-21)
(23.100727 3.3559272e-21 -9.5381189e-37)
(23.100726 -1.9360167e-36 9.6800836e-37)
(23.100725 -3.4013833e-21 1.7283477e-50)
(23.100725 3.3671491e-21 3.3671491e-21)
(23.100724 -3.3388814e-21 -2.3154799e-34)
(23.100723 2.328276e-34 4.6565521e-34)
(23.100722 3.3742357e-21 3.3742357e-21)
(23.100721 -3.3994246e-21 -3.3994246e-21)
(23.10072 3.3978353e-21 3.3978353e-21)
(23.100719 3.3605155e-21 1.1652415e-34)
(23.100718 -3.3408292e-21 -3.3408292e-21)
(23.100717 0 3.3629616e-21)
(23.100716 0 -4.8401325e-37)
(23.100715 -3.4057894e-21 -3.4057894e-21)
(23.100714 -3.3587286e-21 0)
(23.100714 3.3201149e-21 3.3201149e-21)
(23.100713 3.3305767e-21 2.3049877e-34)
(23.100712 -3.3688741e-21 -6.7377482e-21)
(23.10071 -2.3529032e-34 3.3928451e-21)
(23.10071 3.3680812e-21 -9.5726624e-37)
(23.100709 -3.2859359e-21 -3.2859359e-21)
(23.100708 -3.2394352e-21 3.2394352e-21)
(23.100707 0 -3.2807825e-21)
(23.100706 3.3667451e-21 3.3667451e-21)
(23.100705 3.4104257e-21 -1.4209957e-33)
(23.100704 0 -9.3479127e-34)
(23.100703 -3.3034818e-21 3.3034818e-21)
(23.100703 -3.2283622e-21 -6.4567244e-21)
(23.100702 0 0)
(23.100701 3.2755816e-21 -2.2715821e-34)
(23.1007 6.9256477e-34 -6.9256477e-34)
(23.100698 -3.3318473e-21 3.3318473e-21)
(23.100697 3.2947895e-21 3.2947895e-21)
(23.100697 3.2177551e-21 2.217762e-34)
(23.100696 -3.179219e-21 -3.179219e-21)
(23.100695 -2.2257166e-34 3.2226519e-21)
(23.100694 2.2519388e-34 2.2519388e-34)
(23.100693 1.4026082e-36 1.4026082e-36)
(23.100692 3.2588943e-21 4.5153882e-34)
(23.100691 -3.1783711e-21 -6.3567423e-21)
(23.100691 -4.3533837e-34 3.1387515e-21)
(23.10069 2.1906641e-34 3.1850058e-21)
(23.100688 -2.2297107e-34 -2.2297107e-34)
(23.100687 3.2609127e-21 2.2475073e-34)
(23.100686 0 -6.7214125e-34)
(23.100686 0 2.1822084e-34)
(23.100685 -3.1244153e-21 -3.1244153e-21)
(23.100684 -3.1685346e-21 0)
(23.100683 0 0)
(23.100682 0 0)
(23.100681 3.2110789e-21 0)
(23.10068 -7.4149597e-52 -3.1544737e-21)
(23.100679 -3.1368004e-21 6.5393895e-34)
(23.100678 0 3.1750105e-21)
(23.100677 3.2230222e-21 3.2230222e-21)
(23.100676 -3.2216193e-21 -3.2216193e-21)
(23.100675 -8.7747628e-34 -3.1665079e-21)
(23.100674 6.2744957e-21 6.2744957e-21)
(23.100673 -3.1689822e-21 2.1931532e-34)
(23.100672 -6.6854191e-34 -6.6854191e-34)
(23.100671 -4.5844668e-37 -3.2260317e-21)
(23.10067 -3.1973682e-21 -3.1973682e-21)
(23.10067 3.1535305e-21 3.1535305e-21)
(23.100669 -4.4661484e-37 0)
(23.100668 -4.396812e-34 3.1765723e-21)
(23.100666 2.214195e-34 2.214195e-34)
(23.100666 -3.1902037e-21 -3.1902037e-21)
(23.100665 0 -3.1502563e-21)
(23.100664 3.1377503e-21 4.3698311e-34)
(23.100663 2.1821866e-34 3.1531362e-21)
(23.100661 8.7764252e-34 -6.3244856e-21)
(23.100661 3.138652e-21 3.138652e-21)
(23.10066 0 3.0683205e-21)
(23.100659 -3.0383587e-21 -3.0383587e-21)
(23.100658 -3.0839328e-21 3.0839328e-21)
(23.100657 0 0)
(23.100655 0 0)
(23.100654 0 0)
(23.100654 2.9527727e-21 2.9527727e-21)
(23.100653 2.0044302e-34 -2.8962883e-21)
(23.100652 -2.9330427e-21 -5.8660853e-21)
(23.100651 0 3.0080567e-21)
(23.10065 0 -2.1127522e-34)
(23.100649 2.9961053e-21 2.9961053e-21)
(23.100648 2.9268542e-21 2.9268542e-21)
(23.100647 -2.8614666e-21 -5.7229332e-21)
(23.100646 -2.8346956e-21 8.0566896e-37)
(23.100645 0 -8.1578288e-37)
(23.100644 2.9008951e-21 2.9008951e-21)
(23.100643 2.8630035e-21 2.8630035e-21)
(23.100642 -2.7887736e-21 -5.5775471e-21)
(23.100641 -2.7255998e-21 3.8733102e-37)
(23.100641 0 -5.6511536e-34)
(23.100639 2.7617383e-21 2.7617383e-21)
(23.100638 -7.712731e-34 -1.5425462e-33)
(23.100637 -1.8900701e-34 -3.7801403e-34)
(23.100636 2.6491078e-21 2.6491078e-21)
(23.100636 -2.5585123e-21 -2.5585123e-21)
(23.100635 -2.537675e-21 0)
(23.100634 0 -2.6064892e-21)
(23.100633 2.6728604e-21 2.6728604e-21)
(23.100631 -3.7264164e-34 2.6812192e-21)
(23.10063 2.6162963e-21 -2.6162963e-21)
(23.100629 3.5205971e-34 0)
(23.100629 -4.9383389e-21 -2.4691695e-21)
(23.100628 2.4535525e-21 2.4535525e-21)
(23.100627 -3.486323e-34 2.5136083e-21)
(23.100626 -8.8901297e-34 -8.8901297e-34)
(23.100625 -1.7720383e-34 -5.1209903e-21)
(23.100623 -2.5060374e-21 -5.0120749e-21)
(23.100623 2.4179592e-21 7.2538777e-21)
(23.100622 2.3817473e-21 4.7634945e-21)
(23.100621 0 0)
(23.10062 -2.5130955e-21 -5.0261909e-21)
(23.100619 -2.5464688e-21 -2.5464688e-21)
(23.100617 0 2.4807349e-21)
(23.100617 2.3753945e-21 2.3753945e-21)
(23.100616 2.3036648e-21 2.3036648e-21)
(23.100616 -4.6682241e-21 -4.6682241e-21)
(23.100614 -2.4400979e-21 -4.8801958e-21)
(23.100613 2.5007689e-21 2.5007689e-21)
(23.100612 2.4760302e-21 4.9520605e-21)
(23.100611 6.7049761e-34 6.7049761e-34)
(23.10061 -2.376169e-21 -4.7523381e-21)
(23.100609 2.3782964e-21 2.3782964e-21)
(23.100608 -1.667086e-34 -3.334172e-34)
(23.100607 -2.4065536e-21 -2.4065536e-21)
(23.100606 2.3694786e-21 4.7389571e-21)
(23.100605 -1.5989507e-34 -2.3009438e-21)
(23.100604 1.5932861e-34 3.1865721e-34)
(23.100603 -6.6694125e-37 2.3465909e-21)
(23.100602 -1.641753e-34 -2.3771213e-21)
(23.1006 2.3360709e-21 2.3360709e-21)
(23.100599 0 -4.5172388e-21)
(23.100599 0 9.0531246e-34)
(23.100598 -2.1685524e-21 4.3371047e-21)
(23.100597 -2.2546817e-21 -4.5093633e-21)
(23.100595 0 -1.5960846e-34)
(23.100594 0 2.2810749e-21)
(23.100593 0 0)
(23.100592 0 0)
(23.100592 1.9914615e-21 1.9914615e-21)
(23.100591 1.4254374e-34 -2.0681699e-21)
(23.10059 -4.326218e-21 -4.326218e-21)
(23.100588 9.3587566e-37 2.1952132e-21)
(23.100587 2.1686724e-21 -6.1637375e-37)
(23.100586 2.1059305e-21 2.1059305e-21)
(23.100585 -2.8284574e-34 2.0372056e-21)
(23.100584 -2.7601418e-34 -1.9920791e-21)
(23.100583 -2.7743768e-37 0)
(23.100583 -1.9409272e-21 -1.9409272e-21)
(23.100582 -1.9784424e-21 -1.9784424e-21)
(23.10058 -2.0297329e-21 0)
(23.100579 4.1039399e-21 4.1039399e-21)
(23.100577 6.0616322e-21 2.0205441e-21)
(23.100576 -1.9577433e-21 -3.9154866e-21)
(23.100576 -3.8080537e-21 1.3177173e-34)
(23.100575 0 -5.3049953e-37)
(23.100574 1.8441647e-21 1.8441647e-21)
(23.100573 1.8631634e-21 1.8631634e-21)
(23.100572 -1.9181199e-21 -1.9181199e-21)
(23.100571 5.5467581e-37 1.951592e-21)
(23.100569 -8.2649118e-37 -1.9386382e-21)
(23.100568 5.297897e-37 1.0595794e-36)
(23.100568 1.7606455e-21 3.5212909e-21)
(23.100567 1.7548098e-21 -1.7548098e-21)
(23.100566 -1.8455654e-21 -1.8455654e-21)
(23.100565 -3.8760784e-21 -1.9380392e-21)
(23.100563 1.9627034e-21 -2.7222292e-34)
(23.100562 5.5710087e-51 1.8919553e-21)
(23.100561 1.8015869e-21 0)
(23.100561 4.8359189e-34 0)
(23.10056 -3.5376007e-21 -1.7688004e-21)
(23.100559 0 2.5806669e-34)
(23.100557 0 -5.2762089e-34)
(23.100556 3.7327736e-21 -2.5939447e-34)
(23.100555 -9.9935141e-34 1.7994653e-21)
(23.100554 -3.487083e-21 -1.7435415e-21)
(23.100554 0 2.4836346e-37)
(23.100552 1.7904299e-21 1.7904299e-21)
(23.100551 1.7985966e-21 0)
(23.10055 -1.7663222e-21 0)
(23.100549 2.4541202e-37 0)
(23.100548 -2.4039037e-34 0)
(23.100547 2.503954e-37 0)
(23.100546 1.7267687e-21 0)
(23.100545 -1.6476827e-21 0)
(23.100544 -1.6102825e-21 -1.6102825e-21)
(23.100543 0 0)
(23.100542 1.6751089e-21 1.6751089e-21)
(23.10054 -2.2824777e-34 0)
(23.10054 -1.5576535e-21 -1.5576535e-21)
(23.100539 2.9370489e-21 -4.0736264e-34)
(23.100538 -4.1405383e-34 1.4926459e-21)
(23.100537 -1.5926847e-21 0)
(23.100536 -4.57857e-34 0)
(23.100534 -3.253562e-21 -1.626781e-21)
(23.100533 3.0658706e-21 -2.1283282e-34)
(23.100533 1.4308451e-21 1.4308451e-21)
(23.100532 -1.4032696e-21 0)
(23.100531 -2.0846658e-37 0)
(23.10053 -1.5544606e-21 -1.5544606e-21)
(23.100528 0 -1.5812607e-21)
(23.100527 0 1.4910091e-21)
(23.100527 1.3505247e-21 1.3505247e-21)
(23.100526 -1.8582808e-34 0)
(23.100526 -2.9047468e-21 -1.4523734e-21)
(23.100524 2.2142122e-37 2.2142122e-37)
(23.100523 4.7976097e-21 1.5992032e-21)
(23.100522 -1.5906635e-21 -1.5906635e-21)
(23.100521 -1.5597347e-21 -1.5597347e-21)
(23.100519 3.0615639e-21 1.530782e-21)
(23.100518 -1.4712397e-21 1.4712397e-21)
(23.100518 1.390722e-21 0)
(23.100517 2.8058917e-21 -1.4029458e-21)
(23.100516 -1.5082305e-21 -1.5082305e-21)
(23.100515 -1.6102438e-21 1.6102438e-21)
(23.100513 -1.6436296e-21 1.6436296e-21)
(23.100512 1.5948505e-21 0)
(23.100511 1.5038646e-50 -1.474247e-21)
(23.100511 -1.3405151e-21 -1.3405151e-21)
(23.10051 1.3589712e-21 1.3589712e-21)
(23.100509 -1.4978401e-21 1.4978401e-21)
(23.100508 1.6066307e-21 0)
(23.100506 4.5034752e-34 0)
(23.100504 4.4308735e-37 0)
(23.100504 1.4339002e-21 0)
(23.100503 -2.617701e-21 0)
(23.100503 1.3406071e-21 0)
(23.100502 4.0994587e-34 0)
(23.1005 -4.3451563e-34 0)
(23.100499 -1.5575689e-21 -1.5575689e-21)
(23.100497 -2.9161723e-21 -1.1763837e-49)
(23.100496 3.9583911e-21 1.3194637e-21)
(23.100496 3.3470139e-34 0)
(23.100496 -6.9402512e-34 0)
(23.100494 3.8271703e-34 0)
(23.100493 -2.9076211e-21 -1.4538106e-21)
(23.100491 2.9632047e-21 -2.054952e-34)
(23.10049 -4.0115635e-34 1.446151e-21)
(23.100488 -2.5883515e-21 -1.2941757e-21)
(23.100488 0 1.3685288e-34)
(23.100487 0 -1.2421581e-37)
(23.100487 1.0380861e-21 -1.4412793e-34)
(23.100486 -1.6713152e-34 1.2050036e-21)
(23.100485 -1.2600188e-21 -1.2600188e-21)
(23.100483 -1.2185841e-21 1.2185841e-21)
(23.100483 1.1538603e-21 -6.4113604e-34)
(23.100482 3.384749e-21 -1.1282497e-21)
(23.10048 -1.1548979e-21 1.1548979e-21)
(23.100479 -1.1640278e-21 0)
(23.100477 -3.1013831e-37 0)
(23.100477 -9.7261491e-22 -9.7261491e-22)
(23.100476 0 -1.2616389e-34)
(23.100476 1.9677623e-21 9.8388115e-22)
(23.100474 2.2155856e-21 -1.1077928e-21)
(23.100473 -1.1468793e-21 -1.1468793e-21)
(23.100471 -2.175498e-21 0)
(23.10047 -9.1479804e-22 9.1479804e-22)
(23.100469 1.4891429e-21 7.4457146e-22)
(23.100469 1.6165551e-21 -8.0827757e-22)
(23.100468 -1.9763627e-21 -2.7425786e-34)
(23.100467 -2.1717964e-21 -4.7632695e-51)
(23.100465 0 -1.5208926e-34)
(23.100463 2.0338381e-21 1.0169191e-21)
(23.100462 -8.4117098e-22 -8.4117098e-22)
(23.100462 -1.3849188e-21 3.3875825e-50)
(23.100461 7.7378027e-22 -1.0743169e-34)
(23.10046 9.5238114e-22 -9.5238114e-22)
(23.100459 -1.4819071e-37 0)
(23.100457 1.4689001e-34 0)
(23.100455 9.7594904e-22 9.7594904e-22)
(23.100454 -7.6675349e-22 1.0896222e-37)
(23.100454 -5.8570473e-22 -2.4370812e-34)
(23.100453 6.462447e-22 6.462447e-22)
(23.100452 -1.1263393e-34 0)
(23.100451 -1.2447628e-37 0)
(23.10045 -1.2082244e-34 -8.7111923e-22)
(23.100448 -8.5776742e-22 2.3781925e-34)
(23.100447 8.5768117e-22 8.5768117e-22)
(23.100445 -3.4095679e-34 0)
(23.100443 -8.8959085e-35 0)
(23.100443 -1.2762674e-34 0)
(23.100443 -5.2568646e-22 -5.2568646e-22)
(23.100442 7.0447807e-22 1.0011235e-37)
(23.10044 -1.1183446e-34 8.0549134e-22)
(23.100438 -2.1743169e-34 -7.8423348e-22)
(23.100436 -8.616243e-38 6.063142e-22)
(23.100436 -7.712787e-22 -1.0719398e-34)
(23.100435 -3.6497659e-22 -7.2995318e-22)
(23.100435 5.143427e-22 5.143427e-22)
(23.100433 1.2779067e-21 2.6613694e-34)
(23.100432 -9.3737566e-35 9.3737566e-35)
(23.10043 -1.2772213e-21 -8.8664736e-35)
(23.100428 -4.9791272e-22 -4.9791272e-22)
(23.100428 7.3901883e-22 0)
(23.100427 4.0678472e-22 0)
(23.100426 -5.394906e-22 5.394906e-22)
(23.100424 -5.9292696e-22 8.2322009e-35)
(23.100421 -1.2930699e-34 -1.2930699e-34)
(23.100421 2.8795649e-22 5.6089626e-51)
(23.100421 0 -2.952964e-22)
(23.10042 0 4.4686584e-22)
(23.100418 5.7556574e-22 5.7556574e-22)
(23.100416 0 0)
(23.100413 -4.2508786e-22 -4.2508786e-22)
(23.100412 2.3094945e-23 -3.2065034e-36)
(23.100412 -1.8116028e-38 -1.2748021e-22)
(23.100411 -1.5235866e-35 0)
(23.100411 0 0)
(23.100409 -4.2409424e-22 -4.2409424e-22)
(23.100407 4.7628633e-22 1.3536872e-37)
(23.100405 3.5396747e-22 1.296568e-50)
(23.100403 -6.143795e-23 -3.0718975e-23)
(23.100403 6.6806285e-23 -6.6806285e-23)
(23.100403 1.1092672e-22 -1.5369544e-35)
(23.100401 0 3.9861052e-35)
(23.100399 0 -1.0250713e-34)
(23.100397 -3.2903403e-22 -3.2903403e-22)
(23.100395 2.4769709e-35 8.9156692e-23)
(23.100395 -9.3664342e-23 2.6008724e-35)
(23.100394 0 1.3796488e-36)
(23.100393 0 -5.0172192e-35)
(23.100391 -2.6351665e-22 -2.6351665e-22)
(23.100388 5.6980109e-35 1.3675371e-22)
(23.100386 -2.4065502e-22 6.6825109e-35)
(23.100386 0 -5.6600581e-35)
(23.100386 0 0)
(23.100385 0 2.2181611e-23)
(23.100383 0 1.2196484e-22)
(23.10038 0 -2.6714327e-35)
(23.100377 0 -2.3346858e-40)
(23.100375 0 6.7634384e-35)
(23.100375 0 -1.0270037e-34)
(23.100376 -1.1062937e-21 -5.5314684e-22)
(23.100375 -1.3627489e-34 2.4550673e-22)
(23.100373 6.1272214e-23 6.1272214e-23)
(23.100371 2.6985392e-23 2.6985392e-23)
(23.100368 -2.5662058e-23 2.5662058e-23)
(23.100364 -2.8003523e-22 0)
(23.100363 2.2362958e-34 8.0452623e-22)
(23.100363 1.0386146e-21 1.0386146e-21)
(23.100364 2.3151347e-34 0)
(23.100363 5.212478e-22 -5.212478e-22)
(23.100362 0 5.0874418e-35)
(23.100359 0 -4.2260221e-38)
(23.100356 -2.8543662e-22 -3.9589471e-35)
(23.100352 -1.6062337e-34 5.7844754e-22)
(23.10035 1.1503679e-21 -1.1503679e-21)
(23.100351 0 -2.0450334e-34)
(23.100352 0 3.6351723e-34)
(23.100351 0 9.7270607e-22)
(23.100349 0 8.1379994e-22)
(23.100346 0 -1.6970872e-21)
(23.100342 0 1.7282596e-37)
(23.100342 0 -2.2042015e-34)
(23.100342 -3.046935e-21 -1.5234675e-21)
(23.100341 1.0662596e-33 1.2808356e-21)
(23.100339 2.1899231e-21 -1.5202451e-34)
(23.100335 -1.0703038e-21 -1.0703038e-21)
(23.100329 -2.1533316e-37 0)
(23.100329 -2.2781565e-21 0)
(23.10033 1.3822351e-33 0)
(23.10033 4.2890945e-21 2.1445473e-21)
(23.100328 1.7927471e-21 1.7927471e-21)
(23.100324 -1.812217e-50 -1.9652612e-21)
(23.100321 -7.5321165e-21 -2.5107055e-21)
(23.100322 0 0)
(23.100321 4.9956186e-21 2.4978093e-21)
(23.100319 0 2.2891557e-21)
(23.100315 0 -2.5097858e-21)
(23.10031 -6.1865727e-21 -3.0932863e-21)
(23.10031 9.7615839e-34 0)
(23.10031 1.0338908e-20 3.4463026e-21)
(23.100309 -3.1926251e-21 3.1926251e-21)
(23.100306 -3.0883919e-21 -3.0883919e-21)
(23.100301 3.1030707e-21 -8.6166098e-34)
(23.100295 -3.6585782e-21 3.6585782e-21)
(23.10029 4.5491275e-21 0)
(23.100291 1.4566197e-33 0)
(23.100292 -5.153027e-21 0)
(23.100291 4.6071144e-21 0)
(23.100288 0 -4.496084e-21)
(23.100283 4.506286e-21 1.2500252e-33)
(23.100276 -4.8415931e-21 4.8415931e-21)
(23.100271 -1.1163554e-20 -5.5817772e-21)
(23.10027 6.5042295e-21 -9.0304756e-34)
(23.10027 6.6308346e-21 9.215677e-34)
(23.100268 6.3308483e-21 -1.601561e-50)
(23.100265 6.3357999e-21 -6.3357999e-21)
(23.100259 -1.3155865e-20 -6.5779326e-21)
(23.100254 -7.1510127e-21 1.4302025e-20)
(23.100251 7.7810301e-21 1.0803186e-33)
(23.100249 0 -1.1259102e-33)
(23.100246 -8.1754691e-21 8.1754691e-21)
(23.100241 8.3036835e-21 0)
(23.100235 8.8142499e-21 -8.8142499e-21)
(23.100231 -2.9319026e-20 -9.7730086e-21)
(23.10023 -2.9351631e-36 1.0327187e-20)
(23.100229 2.0429493e-20 2.8335286e-33)
(23.100225 -1.0155827e-20 -1.0155827e-20)
(23.10022 -1.4478719e-33 0)
(23.100213 -1.0903388e-20 0)
(23.100205 3.315403e-36 1.1665037e-20)
(23.100199 2.5371651e-20 -1.7594979e-33)
(23.100196 -1.3692578e-20 -1.3692578e-20)
(23.100193 0 0)
(23.10019 3.9373517e-33 1.4179452e-20)
(23.100184 2.053155e-36 -2.053155e-36)
(23.100177 1.5042784e-20 4.1770818e-33)
(23.100169 -1.596423e-20 2.2142059e-33)
(23.100163 4.7283482e-33 -1.7028041e-20)
(23.100157 2.4852933e-33 1.7918747e-20)
(23.100152 2.6216912e-36 -2.6216912e-36)
(23.100145 1.8796899e-20 5.2195249e-33)
(23.100137 -1.9383818e-20 1.9383818e-20)
(23.100128 4.2728346e-50 -2.0389957e-20)
(23.100119 6.006173e-33 -6.006173e-33)
(23.100113 3.2423643e-36 -3.2423643e-36)
(23.100107 4.7410213e-20 3.2912182e-33)
(23.1001 3.3636336e-33 2.4251503e-20)
(23.100092 -2.4862491e-20 -2.4862491e-20)
(23.100082 0 0)
(23.100072 0 1.5041675e-32)
(23.100062 2.8462273e-20 3.9476586e-33)
(23.100053 1.2371328e-32 1.2371328e-32)
(23.100044 -3.077961e-20 4.3740457e-36)
(23.100035 3.1610431e-20 3.1610431e-20)
(23.100024 -4.5186771e-33 -3.2545919e-20)
(23.100013 2.2116991e-49 2.2116991e-49)
(23.100001 4.8910944e-33 4.8910944e-33)
(23.099988 -3.6767914e-20 -1.0209718e-32)
(23.099976 -3.8254256e-20 5.3112228e-33)
(23.099964 -5.4992502e-33 -7.9298224e-20)
(23.099951 4.0988012e-20 4.0988012e-20)
(23.099938 0 4.2386243e-20)
(23.099925 0 6.0909165e-33)
(23.099911 -4.5388071e-20 -6.3016821e-33)
(23.099896 4.6924265e-20 -9.3848531e-20)
(23.09988 -4.0407719e-32 4.8539441e-20)
(23.099864 -5.0302657e-20 5.0302657e-20)
(23.099847 5.2206404e-20 8.9004942e-50)
(23.09983 0 0)
(23.099813 -5.6011931e-20 9.2806755e-50)
(23.099795 -5.7792146e-20 5.7792146e-20)
(23.099777 5.9624096e-20 -5.9624096e-20)
(23.099757 6.16603e-20 9.8012136e-50)
(23.099737 0 8.8677503e-33)
(23.099717 -6.6319439e-20 9.4245591e-36)
(23.099696 -6.859291e-20 6.859291e-20)
(23.099675 1.4132511e-19 -1.4132511e-19)
(23.099653 7.2694758e-20 -2.0185888e-32)
(23.09963 -7.4965911e-20 7.4965911e-20)
(23.099605 -7.7622037e-20 -1.0766017e-32)
(23.099579 -1.1176007e-32 1.1176007e-32)
(23.099554 -8.3551572e-20 -8.3551572e-20)
(23.099529 -2.3952836e-32 8.6260543e-20)
(23.099502 1.7742641e-19 -5.2621165e-49)
(23.099475 0 3.800608e-32)
(23.099446 0 -2.6130313e-32)
(23.099415 0 2.6999581e-32)
(23.099384 -1.0075994e-19 2.797903e-32)
(23.099352 -1.0428e-19 1.6669349e-49)
(23.09932 0 0)
(23.099287 1.1101337e-19 -1.1101337e-19)
(23.099253 1.5843737e-32 0)
(23.099217 -1.1784586e-19 0)
(23.09918 0 1.2158246e-19)
(23.099142 0 3.4865205e-32)
(23.099103 1.2971001e-19 -1.2971001e-19)
(23.099062 1.857678e-32 0)
(23.099021 -1.914414e-32 0)
(23.098978 1.4242674e-19 2.8485349e-19)
(23.098934 -1.4681302e-19 1.2221771e-31)
(23.098888 6.3008158e-32 -3.0285553e-19)
(23.098841 1.5628333e-19 1.5628333e-19)
(23.098793 0 -2.2922024e-35)
(23.098743 1.6637897e-19 2.3100065e-32)
(23.098692 2.381094e-32 1.7149907e-19)
(23.098639 -1.7673116e-19 0)
(23.098585 1.8217285e-19 0)
(23.098528 -1.8786462e-19 0)
(23.09847 -1.937685e-19 1.937685e-19)
(23.09841 1.998152e-19 5.5427913e-32)
(23.098348 0 -2.0596977e-19)
(23.098285 -2.1225811e-19 0)
(23.09822 -2.1873649e-19 0)
(23.098152 2.2543879e-19 2.2543879e-19)
(23.098083 2.3235112e-19 -3.301908e-35)
(23.098012 0 -2.3943192e-19)
(23.097938 2.4665589e-19 0)
(23.097863 -2.5404245e-19 0)
(23.097785 -2.6164342e-19 2.6164342e-19)
(23.097704 2.695001e-19 7.4758218e-32)
(23.097622 5.5521303e-19 7.7125255e-32)
(23.097536 -1.587844e-31 -7.9392199e-32)
(23.097449 -8.8310837e-19 -2.9436946e-19)
(23.097359 4.2166636e-49 3.0298266e-19)
(23.097266 3.1181616e-19 -8.6540831e-32)
(23.097171 6.41877e-19 8.9072627e-32)
(23.097072 -1.8327941e-31 -9.1639705e-32)
(23.096971 -6.8001582e-19 -3.4000791e-19)
(23.096867 3.4981668e-19 0)
(23.096761 -3.5977635e-19 0)
(23.096651 3.699599e-19 3.699599e-19)
(23.096538 3.8045265e-19 -1.2757152e-47)
(23.096422 -7.8254687e-19 -3.9127343e-19)
(23.096302 0 0)
(23.09618 0 0)
(23.096054 8.501755e-19 4.2508775e-19)
(23.095924 -4.5532012e-48 -9.1064025e-48)
(23.095791 -8.9732918e-19 -4.4866459e-19)
(23.095654 0 0)
(23.095514 0 0)
(23.09537 9.7261344e-19 4.8630672e-19)
(23.095221 -5.0852066e-48 -1.0170413e-47)
(23.09507 -1.0255329e-18 -5.1276643e-19)
(23.094914 0 0)
(23.094754 0 0)
(23.09459 1.1082137e-18 5.5410687e-19)
(23.094422 5.684331e-19 -8.0779202e-35)
(23.094249 -1.1661804e-18 -5.8309022e-19)
(23.094072 -5.9807018e-19 5.9807018e-19)
(23.09389 0 -1.7040219e-31)
(23.093703 1.2578224e-18 1.747255e-31)
(23.093513 -3.5806263e-31 -1.7903131e-31)
(23.093317 -1.3216165e-18 -6.6080825e-19)
(23.093117 6.7708847e-19 0)
(23.092912 0 0)
(23.092702 -7.1036343e-19 0)
(23.092486 7.2751848e-19 0)
(23.092265 -1.0588536e-34 0)
(23.092039 -7.6306815e-19 7.6306815e-19)
(23.091808 7.8129572e-19 -2.1683925e-31)
(23.091572 -7.9967675e-19 -7.9967675e-19)
(23.09133 -8.1820085e-19 0)
(23.091083 8.3696217e-19 0)
(23.090829 8.5608593e-19 0)
(23.09057 -2.4314783e-31 0)
(23.090305 -8.9559875e-19 0)
(23.090033 9.1587086e-19 0)
(23.089756 2.6000979e-31 0)
(23.089473 -9.5704435e-19 9.5704435e-19)
(23.089184 9.7795101e-19 -5.4283712e-31)
(23.088889 -9.9917129e-19 -9.9917129e-19)
(23.088586 -1.0207779e-18 0)
(23.088278 1.0427784e-18 0)
(23.087962 1.065111e-18 0)
(23.087641 -3.0203079e-31 0)
(23.087312 -1.1104884e-18 0)
(23.086977 1.1335326e-18 0)
(23.086635 -1.6440552e-34 0)
(23.086285 -1.1806399e-18 1.1806399e-18)
(23.085929 1.2047289e-18 -3.3435805e-31)
(23.085565 -1.2291039e-18 -1.2291039e-18)
(23.085194 -1.2537168e-18 0)
(23.084816 1.2785757e-18 0)
(23.08443 2.6074638e-18 1.3037319e-18)
(23.084037 -7.3857992e-31 -3.6928996e-31)
(23.083636 -2.7101605e-18 -1.3550802e-18)
(23.083227 1.3812517e-18 0)
(23.082811 -2.000481e-34 0)
(23.082386 -2.8688935e-18 0)
(23.081954 -4.1536735e-34 1.4614439e-18)
(23.081514 1.4887006e-18 4.135941e-31)
(23.081065 0 -1.5162222e-18)
(23.080608 -1.5440357e-18 0)
(23.080143 0 0)
(23.079669 1.6007023e-18 0)
(23.079186 0 0)
(23.078695 0 0)
(23.078196 0 0)
(23.077688 1.7175394e-18 0)
(23.077171 -1.4404263e-48 1.747278e-18)
(23.076645 -1.7773619e-18 -2.5257831e-34)
(23.07611 0 -1.8078564e-18)
(23.075565 -1.8387231e-18 0)
(23.075012 5.1921908e-31 0)
(23.074449 1.9011254e-18 0)
(23.073878 0 0)
(23.073296 0 0)
(23.072705 0 0)
(23.072105 2.0286025e-18 0)
(23.071494 -5.7238274e-31 2.0613027e-18)
(23.070874 -2.094243e-18 2.9760982e-34)
(23.070244 0 -2.1273693e-18)
(23.069605 -2.1606881e-18 0)
(23.068956 -6.0898686e-31 0)
(23.068296 2.2280867e-18 0)
(23.067626 0 2.2622068e-18)
(23.066946 -2.2965667e-18 -1.2750954e-30)
(23.066256 2.3311247e-18 -2.3311247e-18)
(23.065556 -1.3145869e-30 0)
(23.064845 -2.400867e-18 2.400867e-18)
(23.064123 2.4361366e-18 6.7681284e-31)
(23.063391 0 -2.4716876e-18)
(23.062649 2.5074668e-18 0)
(23.061896 7.0625371e-31 0)
(23.061132 -2.5794884e-18 2.5794884e-18)
(23.060358 0 2.6157482e-18)
(23.059572 -2.6522468e-18 -2.6522468e-18)
(23.058776 2.6890041e-18 -2.6890041e-18)
(23.057968 1.513902e-30 0)
(23.05715 -2.7631237e-18 0)
(23.056321 1.5548364e-30 0)
(23.05548 4.0328359e-34 0)
(23.054628 -7.9887952e-31 -2.8755063e-18)
(23.053765 4.1401294e-34 4.1401294e-34)
(23.052891 2.9513721e-18 5.9027442e-18)
(23.052006 0 2.9895192e-18)
(23.051109 -3.027802e-18 -6.0556041e-18)
(23.0502 8.5100052e-31 -6.1324975e-18)
(23.049281 8.6171954e-31 3.1048705e-18)
(23.048349 1.8662565e-48 3.1436411e-18)
(23.047406 8.8372281e-31 0)
(23.046452 0 0)
(23.045486 6.5212115e-18 0)
(23.044508 9.1630718e-31 0)
(23.043519 -3.339272e-18 3.339272e-18)
(23.042517 3.3787771e-18 9.3869931e-31)
(23.041505 -9.4871991e-31 -3.4183425e-18)
(23.04048 -3.4579719e-18 0)
(23.039444 -3.4976997e-18 0)
(23.038395 -9.8230647e-31 0)
(23.037335 9.9339985e-31 0)
(23.036263 -3.6175135e-18 0)
(23.035179 3.6575754e-18 0)
(23.034083 3.6976898e-18 0)
(23.032975 0 0)
(23.031856 3.7780813e-18 0)
(23.030724 -1.0602693e-30 0)
(23.02958 -3.8585535e-18 0)
(23.028424 0 0)
(23.027256 0 0)
(23.026077 0 0)
(23.024885 8.0402594e-18 4.0201297e-18)
(23.023681 -4.510087e-30 -2.2550435e-30)
(23.022466 -8.2015682e-18 -4.1007841e-18)
(23.021238 0 0)
(23.019998 0 0)
(23.018746 0 -4.2217161e-18)
(23.017483 0 1.1835066e-30)
(23.016207 0 -6.1141476e-34)
(23.014919 0 4.3426381e-18)
(23.01362 0 4.382714e-18)
(23.012309 8.8454982e-18 2.4555903e-30)
(23.010985 -2.4797279e-30 -1.239864e-30)
(23.009649 -9.0056901e-18 -4.502845e-18)
(23.008302 -4.542831e-18 0)
(23.006943 4.5826871e-18 0)
(23.005572 4.6223885e-18 0)
(23.00419 -1.2951963e-30 0)
(23.002795 -2.608327e-30 0)
(23.001389 -4.74089e-18 4.74089e-18)
(22.999971 4.7802623e-18 -2.6540881e-30)
(22.998541 -4.8195285e-18 -4.8195285e-18)
(22.9971 -4.8586477e-18 0)
(22.995648 4.8976013e-18 0)
(22.994183 4.9363904e-18 0)
(22.992708 -2.761514e-30 0)
(22.99122 -5.0134901e-18 0)
(22.989722 -5.051807e-18 0)
(22.988211 1.4119425e-30 0)
(22.98669 5.1280615e-18 5.1280615e-18)
(22.985157 5.1660071e-18 -2.8675265e-30)
(22.983613 -5.2037682e-18 -5.2037682e-18)
(22.982058 -5.2412718e-18 0)
(22.980492 5.2784904e-18 0)
(22.978915 -5.3154702e-18 0)
(22.977327 0 0)
(22.975727 5.3890122e-18 0)
(22.974117 5.4255942e-18 0)
(22.972496 -1.5151242e-30 0)
(22.970864 -5.4980204e-18 5.4980204e-18)
(22.969222 5.5337663e-18 -4.6082775e-30)
(22.967569 -5.5692359e-18 -5.5692359e-18)
(22.965906 -5.6044932e-18 0)
(22.964232 5.6395745e-18 0)
(22.962548 -5.6744667e-18 0)
(22.960853 -1.5853087e-30 0)
(22.959148 5.7434742e-18 0)
(22.957433 5.7775009e-18 0)
(22.955708 8.2582244e-34 0)