/*--------------------------------*- C++ -*----------------------------------*\
| =========                 |                                                 |
| \\      /  F ield         | OpenFOAM: The Open Source CFD Toolbox           |
|  \\    /   O peration     | Version:  4.x                                   |
|   \\  /    A nd           | Web:      www.OpenFOAM.org                      |
|    \\/     M anipulation  |                                                 |
\*---------------------------------------------------------------------------*/
FoamFile
{
    version     2.0;
    format      ascii;
    class       volVectorField;
    location    "0.99";
    object      U;
}
// * * * * * * * * * * * * * * * * * * * * * * * * * * * * * * * * * * * * * //

dimensions      [0 1 -1 0 0 0 0];

internalField   nonuniform List<vector> 
25344
(
(0.02693207027 0.003063650744 0.003063650716)
(0.03063307673 0.004144046378 0.003662851091)
(0.03068223457 0.002104015857 0.003710837937)
(0.03036286432 0.001619584206 0.003754790236)
(0.03020922607 0.0009326700295 0.00375976428)
(0.0301286722 0.0006863573456 0.003766063304)
(0.03063307674 0.003662851123 0.004144046281)
(0.03536600635 0.005041824869 0.005041824808)
(0.03534281138 0.002584010634 0.005116217299)
(0.03499429162 0.001857910437 0.005112188901)
(0.03486779482 0.001023761862 0.005102527494)
(0.03482850547 0.00072638157 0.005100557121)
(0.03068223455 0.003710837969 0.002104015767)
(0.03534281137 0.005116217379 0.00258401051)
(0.03532475369 0.002605507734 0.002605507614)
(0.03502793481 0.001898363646 0.002590820432)
(0.03492764561 0.001065407041 0.00256919356)
(0.03489598983 0.0007706783257 0.00256308084)
(0.03036286432 0.003754790282 0.001619583934)
(0.0349942916 0.005112188964 0.001857910302)
(0.03502793483 0.002590820558 0.001898363465)
(0.03476902704 0.001888340865 0.001888340668)
(0.03468361861 0.00106843293 0.001867955309)
(0.03465599882 0.0007792114887 0.001851099761)
(0.0302092261 0.003759764282 0.0009326697843)
(0.03486779487 0.005102527549 0.001023761678)
(0.0349276457 0.002569193711 0.001065406815)
(0.03468361863 0.001867955487 0.001068432687)
(0.03460751532 0.001055628213 0.001055627977)
(0.03458365188 0.0007741102075 0.001041791886)
(0.0301286722 0.003766063322 0.0006863570613)
(0.03482850551 0.005100557161 0.0007263813289)
(0.0348959899 0.002563081011 0.0007706780813)
(0.03465599888 0.00185109993 0.0007792112332)
(0.03458365185 0.001041792155 0.0007741098553)
(0.03456254479 0.0007634175396 0.0007634172248)
(0.0226402024 0.002099977342 0.002099977331)
(0.02825631976 0.004017641193 0.003022274222)
(0.02879907688 0.002826130635 0.003082700828)
(0.02815310027 0.002435451726 0.003111871784)
(0.02773502934 0.001675866765 0.003105217625)
(0.02743406736 0.001338226012 0.00312251102)
(0.02825631977 0.003022274242 0.004017641136)
(0.03707316275 0.005634236657 0.005634236545)
(0.03848868531 0.004197765208 0.00587955431)
(0.03775693262 0.003615874845 0.005925664659)
(0.03711607737 0.002539849915 0.005932422231)
(0.03666297228 0.00200835956 0.005956624456)
(0.028799077 0.00308270082 0.002826130527)
(0.03848868532 0.005879554417 0.004197765059)
(0.03985063649 0.00423143146 0.004231431294)
(0.03897665564 0.003554787764 0.004266995111)
(0.03830312466 0.002406919608 0.004290570173)
(0.03787445305 0.001888048493 0.004321900631)
(0.02815310042 0.003111871778 0.00243545154)
(0.03775693273 0.005925664746 0.003615874565)
(0.03897665568 0.004266995252 0.00355478757)
(0.03801812246 0.003539459304 0.003539459155)
(0.03731977093 0.002374724164 0.003551232979)
(0.03689425415 0.001859833998 0.003565125388)
(0.02773502948 0.003105217619 0.001675866593)
(0.03711607746 0.005932422308 0.002539849648)
(0.03830312472 0.004290570304 0.002406919441)
(0.03731977099 0.003551233106 0.002374724039)
(0.03660647861 0.002380045574 0.002380045465)
(0.03617510653 0.001862406216 0.002386398866)
(0.0274340676 0.003122511015 0.001338225809)
(0.0366629724 0.005956624488 0.002008359243)
(0.03787445316 0.004321900735 0.001888048405)
(0.03689425428 0.003565125551 0.001859833905)
(0.03617510661 0.002386399006 0.001862406104)
(0.03574179905 0.001863163865 0.001863163746)
(0.01377618178 0.001335677242 0.001335677218)
(0.02132157202 0.003444279436 0.002137885668)
(0.02298509666 0.002866512726 0.002237976519)
(0.02245560725 0.002667591942 0.002243399881)
(0.02188290448 0.002002383067 0.002218656245)
(0.02139378342 0.001635098444 0.002226245628)
(0.02132157202 0.002137885693 0.003444279312)
(0.03478964236 0.005425656871 0.005425656734)
(0.03765340386 0.004639600075 0.005763302557)
(0.03723508219 0.00420334532 0.005805938258)
(0.03655735259 0.003113153103 0.005818114081)
(0.03596626304 0.002484889899 0.005834634095)
(0.02298509675 0.002237976554 0.002866512626)
(0.03765340388 0.005763302727 0.004639599843)
(0.04117087039 0.005140673255 0.005140673094)
(0.04075985074 0.004673982679 0.005183724039)
(0.0399720458 0.003436908987 0.00514975291)
(0.03933537315 0.002721369992 0.005145097118)
(0.0224556074 0.002243399914 0.002667591702)
(0.0372350823 0.005805938366 0.004203345018)
(0.0407598508 0.005183724148 0.004673982588)
(0.04035688582 0.004691614251 0.004691614151)
(0.03952577743 0.003455563851 0.004665551524)
(0.03886634164 0.002736949022 0.004656455522)
(0.02188290464 0.002218656239 0.002002382912)
(0.03655735273 0.00581811414 0.003113152838)
(0.03997204584 0.005149753021 0.003436908879)
(0.03952577748 0.004665551606 0.003455563752)
(0.03866547767 0.003437983458 0.003437983387)
(0.03797981447 0.002730324591 0.003427577617)
(0.02139378372 0.002226245626 0.001635098251)
(0.03596626332 0.005834634106 0.002484889585)
(0.03933537337 0.005145097241 0.002721369949)
(0.03886634177 0.004656455571 0.002736949068)
(0.03797981462 0.003427577723 0.002730324587)
(0.03727290108 0.002724618394 0.002724618298)
(0.009894375717 0.0006700977874 0.0006700977649)
(0.01665249076 0.002255741271 0.00121223934)
(0.01885864215 0.002422871685 0.001316537358)
(0.01875294422 0.00243344182 0.001317672261)
(0.01831156655 0.002014439018 0.001287833151)
(0.01780138234 0.001683467916 0.001269517001)
(0.0166524907 0.001212239364 0.002255741136)
(0.0311049301 0.004267657344 0.004267657142)
(0.03593234447 0.004581636803 0.004837622792)
(0.03615372326 0.004400095004 0.00490930306)
(0.0355117311 0.003578515736 0.004859099047)
(0.03472556998 0.002886371949 0.004819910962)
(0.01885864208 0.001316537397 0.002422871502)
(0.03593234456 0.00483762301 0.00458163656)
(0.04125615371 0.005095381715 0.005095381249)
(0.04184723788 0.004980139478 0.005198564359)
(0.04123014328 0.004071417662 0.005245113759)
(0.04037907258 0.003279267323 0.005212259823)
(0.01875294422 0.001317672286 0.002433441597)
(0.0361537233 0.004909303281 0.004400094556)
(0.04184723787 0.005198564784 0.004980138915)
(0.04226908419 0.005085086996 0.005085086697)
(0.04158833625 0.004133043237 0.005081095167)
(0.04072528327 0.003344767739 0.005052097662)
(0.01831156679 0.001287833145 0.00201443878)
(0.03551173128 0.004859099195 0.003578515314)
(0.04123014349 0.005245114024 0.004071417335)
(0.04158833638 0.005081095422 0.004133042995)
(0.04086653882 0.004140951495 0.004140951289)
(0.03998658493 0.003350950014 0.004126736821)
(0.01780138269 0.001269516963 0.001683467738)
(0.03472557015 0.004819911039 0.002886371583)
(0.04037907295 0.005212259972 0.003279267037)
(0.04072528355 0.005052097983 0.003344767565)
(0.03998658495 0.004126737064 0.003350949968)
(0.03908818309 0.003343421127 0.003343420959)
(0.006955676079 0.0003749922721 0.0003749922835)
(0.01298283728 0.001536569363 0.0006703330874)
(0.01542296593 0.001912130138 0.0007285981307)
(0.01575463694 0.002029833003 0.000718799516)
(0.01551822892 0.001815586634 0.0006812541976)
(0.01509124489 0.001577512246 0.000660943945)
(0.01298283721 0.0006703326532 0.001536569216)
(0.02715125904 0.003162472904 0.003162472577)
(0.03310964807 0.004058369515 0.003779497798)
(0.0342078513 0.004168909461 0.003845071254)
(0.03387011279 0.003674905678 0.003762812117)
(0.0331039694 0.003076960953 0.003686381721)
(0.01542296585 0.0007285981007 0.001912129886)
(0.03310964787 0.003779498126 0.004058368826)
(0.04047460224 0.004834671487 0.004834670854)
(0.041759838 0.004902202458 0.004922505628)
(0.04147686159 0.004330715842 0.004820742025)
(0.04070081807 0.003606034899 0.004811708616)
(0.01575463687 0.0007187994601 0.002029832618)
(0.03420785103 0.003845071512 0.004168908736)
(0.04175983789 0.004922506171 0.004902201604)
(0.04335567708 0.005099504494 0.005099504027)
(0.04303601782 0.004492314313 0.005066735995)
(0.04218114288 0.003730477765 0.005028637369)
(0.0155182289 0.0006812536913 0.001815586231)
(0.03387011255 0.00376281226 0.003674904718)
(0.04147686121 0.004820742278 0.00433071485)
(0.04303601779 0.005066736276 0.004492313824)
(0.04268368178 0.004483893232 0.004483892926)
(0.04180205862 0.00374671624 0.004461797907)
(0.01509124523 0.0006609438397 0.001577511909)
(0.03310396944 0.003686381766 0.003076959996)
(0.04070081791 0.004811708583 0.003606034234)
(0.04218114299 0.00502863751 0.003730477486)
(0.04180205872 0.004461798097 0.003746715992)
(0.04090069937 0.003742970537 0.00374297038)
(0.005132728592 0.0002090666721 0.0002090666975)
(0.01026679313 0.001040250499 0.0003785145821)
(0.0127411058 0.001484310525 0.0004124084954)
(0.01344102555 0.001668530555 0.0004026379704)
(0.01344113296 0.001585028157 0.0003719494525)
(0.01317160312 0.001435022513 0.0003530726516)
(0.0102667932 0.0003785145274 0.001040250359)
(0.02327327303 0.002288515743 0.002288515274)
(0.02983995409 0.003425715381 0.002849743826)
(0.03181952206 0.003788509426 0.002949702034)
(0.03190399549 0.003524411 0.002879232338)
(0.03134351762 0.003093077473 0.002793298738)
(0.01274110568 0.0004124084785 0.001484310177)
(0.02983995391 0.002849744343 0.003425714404)
(0.03850495441 0.004310135968 0.004310134868)
(0.0410159257 0.004713036884 0.004498063217)
(0.0410917596 0.004354541724 0.004420879145)
(0.04043150084 0.003776270336 0.004315226664)
(0.01344102538 0.0004026379229 0.00166853003)
(0.03181952165 0.002949702496 0.003788508002)
(0.04101592543 0.00449806403 0.004713035388)
(0.04355273224 0.00487087409 0.004870872675)
(0.04378448156 0.004581163203 0.004906712842)
(0.04313046679 0.003998534143 0.004852645179)
(0.01344113287 0.0003719493302 0.001585027635)
(0.03190399491 0.002879232673 0.003524409394)
(0.04109175901 0.004420879891 0.00435454022)
(0.04378448142 0.004906713579 0.004581161965)
(0.04392557521 0.004592241999 0.004592241194)
(0.04324548525 0.004029352374 0.00455980432)
(0.01317160325 0.0003530725703 0.001435022036)
(0.03134351735 0.002793298904 0.003093075748)
(0.04043150044 0.00431522719 0.003776268519)
(0.04313046661 0.004852645651 0.003998532817)
(0.04324548534 0.004559804857 0.004029351603)
(0.04255983699 0.004024041983 0.004024041407)
(0.003907234808 0.0001211713259 0.0001211713864)
(0.008289732107 0.0007246915558 0.000215196121)
(0.01070118947 0.001161794413 0.0002336171825)
(0.0116598203 0.001386964296 0.0002266529098)
(0.01188128196 0.001392305533 0.0002067241705)
(0.01176896802 0.001309571696 0.0001922113703)
(0.008289732094 0.0002151960998 0.0007246914077)
(0.01986358394 0.001640892249 0.001640891638)
(0.02657738242 0.002813477209 0.002114407093)
(0.02926150671 0.003354766998 0.002243228972)
(0.02984119196 0.003301522737 0.002203324309)
(0.02955909796 0.003021349241 0.002136898339)
(0.01070118922 0.0002336171686 0.001161793987)
(0.02657738182 0.002114407798 0.002813475843)
(0.03581395571 0.003688640925 0.003688639252)
(0.03938580742 0.004372920859 0.00395525872)
(0.04009009645 0.00426113296 0.003918964374)
(0.03970104487 0.003854982059 0.003822864248)
(0.01165981978 0.0002266528642 0.001386963747)
(0.02926150551 0.002243229611 0.003354765116)
(0.03938580666 0.003955260198 0.004372918651)
(0.04319322433 0.004685105679 0.004685103599)
(0.04387906232 0.004552678822 0.004640613351)
(0.04355761091 0.004143070069 0.004619063461)
(0.01188128134 0.0002067240795 0.001392305001)
(0.02984119056 0.00220332482 0.003301520593)
(0.04009009566 0.003918965719 0.004261130366)
(0.0438790617 0.004640615089 0.004552676034)
(0.04468427486 0.004600487794 0.004600485511)
(0.04431014651 0.00420428997 0.004584846381)
(0.01176896773 0.0001922112495 0.001309571308)
(0.02955909677 0.002136898664 0.003021347039)
(0.03970104408 0.003822865434 0.003854979089)
(0.04355761043 0.004619064845 0.004143067169)
(0.04431014622 0.004584848404 0.004204287405)
(0.04392511569 0.004213909883 0.00421390745)
(0.003065436052 7.485069858e-05 7.485074068e-05)
(0.006818636048 0.000527181607 0.0001295385077)
(0.009113281535 0.0009332439821 0.0001423022812)
(0.01023793866 0.001181141892 0.0001391977222)
(0.01064643819 0.001251457237 0.0001275260677)
(0.01067963044 0.001219897443 0.0001180836894)
(0.006818635881 0.0001295389746 0.0005271814207)
(0.0169973571 0.001204275148 0.001204274383)
(0.02356551617 0.002305422348 0.001604041986)
(0.02674633669 0.002945344942 0.001750608154)
(0.02780511301 0.003065308611 0.001746936492)
(0.02781981464 0.002912800754 0.001700405152)
(0.009113280939 0.0001423023417 0.0009332433723)
(0.02356551528 0.001604042859 0.002305420699)
(0.03295151581 0.003140708397 0.003140706432)
(0.03734686306 0.003995889233 0.003466508573)
(0.0386909387 0.004100045756 0.003490471058)
(0.03863898548 0.003848165367 0.003420772984)
(0.01023793764 0.0001391977619 0.001181141137)
(0.02674633482 0.001750608882 0.002945342498)
(0.03734686197 0.003466510441 0.003995886253)
(0.04221958664 0.004420877128 0.00442087418)
(0.04358711221 0.004508353944 0.004463931785)
(0.04349915657 0.004231464847 0.004400748963)
(0.01064643687 0.0001275264719 0.001251456617)
(0.02780511056 0.001746937069 0.003065306052)
(0.03869093679 0.003490472832 0.004100042326)
(0.04358711137 0.004463934488 0.004508350271)
(0.04500782937 0.00460196434 0.004601960689)
(0.04497603739 0.004346309281 0.004596524319)
(0.01067962908 0.0001180835447 0.00121989667)
(0.02781981181 0.001700405418 0.002912798148)
(0.03863898295 0.003420774395 0.003848161728)
(0.04349915484 0.00440075114 0.004231460839)
(0.04497603627 0.004596527698 0.004346305236)
(0.04494424601 0.004374202086 0.004374197578)
(0.002448630889 5.127655195e-05 5.127660774e-05)
(0.00567434233 0.0004078074247 8.467064435e-05)
(0.007824061992 0.0007802912642 9.61152125e-05)
(0.009040709386 0.001043402263 9.673271339e-05)
(0.009597292444 0.001163830628 9.174349044e-05)
(0.009765128854 0.001176598515 8.936537629e-05)
(0.005674342081 8.467073316e-05 0.0004078071053)
(0.01458964877 0.0009236917667 0.0009236906555)
(0.02084189095 0.001920699369 0.001262941153)
(0.0243267063 0.002606057416 0.001419631951)
(0.02579939994 0.002865470433 0.001453208047)
(0.0261333697 0.002818693787 0.001438784401)
(0.007824061268 9.61152665e-05 0.0007802903093)
(0.02084188979 0.00126294242 0.001920696882)
(0.03005874855 0.002692742289 0.002692739583)
(0.0350424593 0.003643003014 0.003059073689)
(0.03700376876 0.003945697123 0.003154494172)
(0.03734811046 0.003813285941 0.003136632121)
(0.009040708035 9.673275199e-05 0.00104340097)
(0.0243267037 0.001419632982 0.002606054045)
(0.03504245758 0.003059076062 0.003642999271)
(0.04069661406 0.004139624249 0.0041396207)
(0.04283236311 0.00446075327 0.004280748993)
(0.04314945447 0.004286011498 0.004276553286)
(0.009597290608 9.17435025e-05 0.001163829361)
(0.02579939629 0.00145320873 0.002865466835)
(0.03700376567 0.003154496078 0.003945692926)
(0.04283236183 0.004280752163 0.004460748923)
(0.04491186538 0.004627605882 0.004627601712)
(0.0453127961 0.004475080238 0.004667481255)
(0.009765126614 8.936514384e-05 0.001176597287)
(0.02613336542 0.001438784643 0.002818690149)
(0.03734810633 0.003136633301 0.003813281637)
(0.04314945185 0.004276555575 0.004286006995)
(0.04531279455 0.004667484669 0.004475075862)
(0.04570407375 0.00456067885 0.004560674535)
(0.001963703718 3.846144608e-05 3.846150524e-05)
(0.004737872767 0.0003371120803 6.119724483e-05)
(0.006729542409 0.0006849711323 7.13910284e-05)
(0.007981794028 0.0009613015284 7.514297222e-05)
(0.008646622724 0.001123363745 7.622678348e-05)
(0.00892790637 0.001178774541 7.971037455e-05)
(0.004737872425 6.119729389e-05 0.0003371117424)
(0.01253614948 0.0007472343691 0.0007472329856)
(0.01838765251 0.001646615129 0.001036509355)
(0.02201706966 0.002349808363 0.001199868236)
(0.02381866529 0.002713925722 0.001267723336)
(0.02445527535 0.002775841001 0.001293808005)
(0.006729541567 7.139112319e-05 0.0006849699591)
(0.01838765118 0.001036511161 0.001646611724)
(0.02723485345 0.002346360752 0.002346356717)
(0.03258724359 0.003344913018 0.002743329614)
(0.0350882736 0.003808214557 0.002909102911)
(0.03585442882 0.003811317814 0.002965449727)
(0.00798179248 7.514301255e-05 0.0009612997364)
(0.02201706647 0.001199869855 0.002349803485)
(0.03258724127 0.002743333099 0.003344907639)
(0.03882663729 0.00390559667 0.003905592094)
(0.04162542924 0.004419371981 0.004151283563)
(0.04241961027 0.004387190076 0.004235933446)
(0.00864662063 7.62267215e-05 0.001123361826)
(0.02381866074 0.001267724463 0.002713920312)
(0.0350882693 0.002909105558 0.003808208738)
(0.04162542718 0.004151286985 0.00441936691)
(0.04451364592 0.00469184418 0.004691839958)
(0.04530474733 0.004687187738 0.004838947798)
(0.00892790416 7.971006026e-05 0.001178772898)
(0.02445527037 0.001293808482 0.002775835616)
(0.03585442365 0.002965451149 0.00381131235)
(0.0424196068 0.004235935583 0.004387185542)
(0.04530474568 0.004838950727 0.004687183802)
(0.04619958839 0.004865300072 0.004865296611)
(0.001552725834 3.154975167e-05 3.154981474e-05)
(0.003930196668 0.0002966614802 4.813843999e-05)
(0.005758276305 0.0006314821323 5.632065099e-05)
(0.007004583664 0.0009242971413 6.210677426e-05)
(0.007739795763 0.001125218987 6.826389737e-05)
(0.008111383958 0.001222714057 7.679845487e-05)
(0.003930196324 4.813844705e-05 0.0002966613827)
(0.01073673724 0.0006363106283 0.0006363096196)
(0.01615353955 0.001461123676 0.0008841771063)
(0.01980413665 0.002173527769 0.001051587214)
(0.02184032955 0.002619915027 0.001152483695)
(0.02273920669 0.002783357167 0.001219060786)
(0.005758275246 5.632070408e-05 0.0006314813206)
(0.01615353809 0.0008841789668 0.001461120358)
(0.0245155735 0.002088547198 0.002088542257)
(0.03004429546 0.003111328572 0.002506917069)
(0.03297973058 0.003702470291 0.002744081422)
(0.0341482824 0.003854013585 0.002882031595)
(0.007004581854 6.210682213e-05 0.0009242955572)
(0.01980413335 0.001051589246 0.00217352219)
(0.03004429285 0.002506922047 0.003111320925)
(0.03667050275 0.003727572061 0.003727565186)
(0.04006586459 0.004404914204 0.004078228545)
(0.04134208711 0.004541690474 0.004281980229)
(0.007739793619 6.826377498e-05 0.001125217128)
(0.02184032478 0.001152485416 0.002619908227)
(0.03297972572 0.002744085535 0.003702461827)
(0.040065862 0.004078233644 0.004404907148)
(0.04365372991 0.004811831744 0.004811826804)
(0.0449854188 0.004960056943 0.005071358748)
(0.008111381583 7.679807479e-05 0.001222712317)
(0.02273920128 0.001219061875 0.002783350023)
(0.03414827649 0.002882034447 0.003854005368)
(0.04134208313 0.004281983551 0.004541684541)
(0.04498541708 0.005071361569 0.004960053911)
(0.04641588797 0.005276890786 0.005276888825)
(0.001183669846 2.737863768e-05 2.737868356e-05)
(0.003199788728 0.0002735324025 3.934976539e-05)
(0.004861803624 0.0006071746196 4.435439678e-05)
(0.006071358896 0.0009242793794 5.064379466e-05)
(0.006842363515 0.001167918271 6.090452447e-05)
(0.007278891037 0.001310620394 7.493014725e-05)
(0.003199788458 3.934970165e-05 0.0002735327127)
(0.009105785491 0.0005647295993 0.0005647296754)
(0.01407755511 0.001343828126 0.0007765381694)
(0.01765769975 0.002073089819 0.0009443519809)
(0.01983627302 0.002595570033 0.001077105065)
(0.02094272016 0.002856781101 0.001189839978)
(0.004861802742 4.435438186e-05 0.0006071748047)
(0.01407755385 0.0007765391727 0.001343826656)
(0.02189091681 0.00190218926 0.001902185023)
(0.02743738849 0.002943651373 0.002331629066)
(0.03068464638 0.003645737597 0.002641009016)
(0.0322100742 0.003939738714 0.002875530488)
(0.006071357358 5.064381981e-05 0.0009242790829)
(0.01765769654 0.0009443537869 0.002073085945)
(0.02743738585 0.002331634776 0.002943643328)
(0.03426294172 0.003602587086 0.003602577892)
(0.03814771069 0.00443102183 0.00406778607)
(0.03989799335 0.004741039403 0.004415641928)
(0.006842361326 6.090439821e-05 0.001167917743)
(0.01983626796 0.001077107039 0.002595564355)
(0.03068464109 0.002641014676 0.003645727332)
(0.03814770771 0.004067794167 0.004431011332)
(0.04234538939 0.004993859755 0.004993851344)
(0.04423291865 0.005339094623 0.005427861825)
(0.007278888759 7.492969406e-05 0.001310620134)
(0.02094271439 0.001189841729 0.002856774425)
(0.03221006778 0.002875535328 0.003939727746)
(0.03989798918 0.004415648334 0.004741029584)
(0.04423291748 0.005427867706 0.005339088523)
(0.04627121397 0.005835966385 0.005835961565)
(0.0008401105951 2.394239693e-05 2.394238322e-05)
(0.002515322049 0.0002583956957 3.148064472e-05)
(0.0040072279 0.0006006411358 3.189183911e-05)
(0.005155766388 0.0009524271775 3.658135001e-05)
(0.005931966364 0.001248289229 4.956525595e-05)
(0.006406894525 0.001444315951 6.921555727e-05)
(0.002515321858 3.14805344e-05 0.0002583963603)
(0.007575079765 0.000514893788 0.0005148951458)
(0.01209508841 0.001276775046 0.0006935027666)
(0.0155365575 0.002043078654 0.0008565019583)
(0.01777440686 0.00265145829 0.001018431142)
(0.01902438679 0.003016438316 0.001182784961)
(0.00400722722 3.189171619e-05 0.0006006424655)
(0.01209508737 0.0006935021875 0.00127677664)
(0.01932057406 0.001772017449 0.001772016217)
(0.02475942771 0.002844156558 0.002201537323)
(0.02819449131 0.003655911093 0.002580993757)
(0.03000289778 0.004092329181 0.00292785921)
(0.005155765097 3.658128933e-05 0.0009524288239)
(0.01553655462 0.000856502589 0.00204307908)
(0.024759425 0.002201541439 0.002844151974)
(0.03161591014 0.003527894356 0.003527885859)
(0.03586142792 0.004506304073 0.004112245504)
(0.03803646775 0.004996531187 0.004633014699)
(0.005931964523 4.956514473e-05 0.001248291167)
(0.01777440189 0.001018432637 0.002651457265)
(0.02819448567 0.002580999397 0.003655903326)
(0.0358614247 0.004112255332 0.004506292355)
(0.04057812189 0.005238342661 0.005238330639)
(0.04301169257 0.005795421441 0.005902880588)
(0.006406892238 6.921518674e-05 0.001444318367)
(0.01902438025 0.00118278694 0.003016435968)
(0.03000289021 0.002927865308 0.004092319226)
(0.03803646279 0.004633024238 0.004996518244)
(0.04301169097 0.005902890964 0.00579541114)
(0.04569135573 0.006558559394 0.006558550238)
(0.0005164883697 2.015661905e-05 2.015653478e-05)
(0.001860422945 0.0002438469125 2.283453671e-05)
(0.003173257648 0.0005999414758 1.767602258e-05)
(0.004238308454 0.0009971113338 1.84502339e-05)
(0.004992043528 0.001359231289 3.243449652e-05)
(0.005479044838 0.001622917114 5.744688347e-05)
(0.001860422852 2.283486292e-05 0.0002438477093)
(0.0060945851 0.000473726063 0.000473728366)
(0.01014347117 0.001241286883 0.0006210214888)
(0.01338788251 0.002072544394 0.0007723486795)
(0.01561088649 0.002792311836 0.0009581865569)
(0.01693791353 0.003281746651 0.001177190334)
(0.003173257245 1.76758551e-05 0.0005999436414)
(0.01014347035 0.0006210192578 0.001241291472)
(0.01673824312 0.001682323623 0.001682326867)
(0.02196630836 0.00281343032 0.002101817896)
(0.02547187077 0.003754602177 0.002545632397)
(0.02747398952 0.004349875406 0.003017260299)
(0.00423830757 1.8450152e-05 0.0009971147635)
(0.01338788005 0.0007723475844 0.002072549804)
(0.02196630591 0.002101817847 0.002813432079)
(0.02870438299 0.003505487242 0.003505483744)
(0.03317099865 0.00464947279 0.004207083124)
(0.0356915358 0.005340091231 0.004928342264)
(0.004992042 3.243483291e-05 0.001359235777)
(0.01561088185 0.0009581867791 0.002792317396)
(0.02547186511 0.002545635235 0.003754601636)
(0.03317099513 0.004207090647 0.00464946513)
(0.03827647057 0.005557483174 0.005557471092)
(0.04120947893 0.006370850465 0.006495116831)
(0.005479042764 5.744668323e-05 0.001622922643)
(0.01693790657 0.001177191641 0.003281751564)
(0.02747398091 0.003017265084 0.004349871941)
(0.03569152972 0.004928351584 0.005340079517)
(0.04120947702 0.006495130023 0.006370835337)
(0.04454771097 0.007454945812 0.007454930949)
(0.03008932482 0.003763867209 0.0004605815083)
(0.0348173102 0.005100085047 0.0004735226156)
(0.03488216906 0.002561806657 0.0005098824411)
(0.03464188114 0.001840994294 0.0005207994091)
(0.03457086708 0.001032201837 0.000519987219)
(0.03455128882 0.0007551461703 0.0005133207593)
(0.03007016675 0.003763994978 0.0003342528525)
(0.03481685285 0.005102049701 0.0003385975645)
(0.03487800582 0.002564071459 0.0003679610413)
(0.03463717488 0.001835867557 0.0003785766741)
(0.03456645915 0.001026762696 0.000380248964)
(0.03454774788 0.0007496412535 0.0003765426657)
(0.0300605531 0.003763192512 0.0002339637914)
(0.03481857638 0.005104342359 0.0002343122463)
(0.03487583469 0.002567533694 0.0002560139361)
(0.03463470899 0.001834020675 0.0002650993045)
(0.03456378081 0.001024263381 0.0002676606751)
(0.03454550256 0.0007465543345 0.0002660011821)
(0.03005570149 0.003762998762 0.0001566603866)
(0.0348204575 0.005106525619 0.0001560221302)
(0.03487485375 0.002570965883 0.0001706930554)
(0.03463396448 0.001833791061 0.000177549877)
(0.0345627256 0.001023371552 0.0001800160599)
(0.03454466287 0.0007449955436 0.0001795150446)
(0.03005333408 0.003762881871 9.012178092e-05)
(0.03482182619 0.005108115179 8.94304713e-05)
(0.03487435379 0.00257359244 9.783088876e-05)
(0.03463379857 0.001834169982 0.0001021215564)
(0.03456228264 0.001023227298 0.0001038631572)
(0.03454430928 0.0007443338897 0.0001038558498)
(0.03005234958 0.003762863623 2.948294602e-05)
(0.03482251465 0.005108945489 2.92207101e-05)
(0.03487414374 0.002574964737 3.194632804e-05)
(0.03463379884 0.001834482578 3.340291937e-05)
(0.03456212946 0.001023264425 3.402401789e-05)
(0.03454418636 0.0007441045728 3.406904752e-05)
(0.0300523494 0.003762863601 -2.948533935e-05)
(0.0348225147 0.005108945558 -2.922304659e-05)
(0.03487414388 0.002574964907 -3.194864259e-05)
(0.03463379879 0.001834482582 -3.340517648e-05)
(0.03456212945 0.001023264489 -3.402614421e-05)
(0.03454418636 0.0007441046613 -3.407101042e-05)
(0.03005333417 0.003762881818 -9.012412007e-05)
(0.03482182602 0.005108115215 -8.943278476e-05)
(0.03487435373 0.002573592568 -9.783317489e-05)
(0.03463379849 0.001834170122 -0.0001021237341)
(0.03456228247 0.00102322752 -0.0001038652151)
(0.03454430926 0.0007443341773 -0.000103857731)
(0.03005570152 0.003762998738 -0.0001566626604)
(0.0348204575 0.005106525655 -0.0001560242984)
(0.03487485377 0.002570966115 -0.000170695182)
(0.03463396449 0.001833791311 -0.0001775519236)
(0.0345627256 0.001023371963 -0.0001800179721)
(0.03454466285 0.000744995989 -0.0001795168353)
(0.03006055308 0.003763192479 -0.0002339658828)
(0.03481857638 0.005104342426 -0.0002343142714)
(0.0348758347 0.002567533984 -0.0002560159687)
(0.03463470901 0.001834021101 -0.0002651012139)
(0.03456378083 0.00102426393 -0.0002676624117)
(0.03454550259 0.0007465549983 -0.0002660027188)
(0.03007016671 0.003763994965 -0.0003342547411)
(0.03481685285 0.005102049836 -0.0003385994001)
(0.03487800581 0.002564071896 -0.0003679628119)
(0.0346371749 0.001835868046 -0.0003785783419)
(0.03456645917 0.001026763398 -0.0003802504852)
(0.03454774794 0.0007496421027 -0.0003765440244)
(0.03008932478 0.003763867203 -0.0004605831857)
(0.03481731017 0.005100085211 -0.0004735242123)
(0.03488216905 0.002561807119 -0.0005098839604)
(0.03464188114 0.001840994985 -0.0005208007746)
(0.03457086714 0.001032202717 -0.0005199885321)
(0.03455128887 0.0007551472689 -0.0005133219108)
(0.02726914897 0.003128513598 0.0009935339553)
(0.03641566096 0.005974193908 0.001496346647)
(0.0376545574 0.004337073576 0.001384982068)
(0.03668164236 0.003571740659 0.001362809511)
(0.03596093154 0.002387163745 0.001364521256)
(0.03552825776 0.001860347234 0.001364356404)
(0.02716849253 0.003137639903 0.0007590478421)
(0.03626985137 0.005991217125 0.001137353888)
(0.03753045516 0.004349896125 0.001047958623)
(0.03656381432 0.003576404148 0.001033317999)
(0.03584261757 0.002386361328 0.001035192236)
(0.03541107473 0.001856902277 0.001035587032)
(0.02711012663 0.003142311899 0.0005550829764)
(0.03618693409 0.006003405347 0.0008300381522)
(0.03746298426 0.004357126929 0.0007617338096)
(0.03650022449 0.003578940439 0.0007527462488)
(0.03577860479 0.002384894228 0.0007540147982)
(0.03534797129 0.001854046361 0.0007548043371)
(0.02707560399 0.003145601639 0.0003803660786)
(0.03613882255 0.006011805985 0.0005677013296)
(0.03742492464 0.004360953089 0.0005208208598)
(0.03646473664 0.003580482054 0.0005158355241)
(0.03574292883 0.002383610535 0.0005164285508)
(0.03531307181 0.001852183824 0.000517265178)
(0.02705653431 0.003147435006 0.0002220732999)
(0.03611254638 0.006016851143 0.0003311269229)
(0.03740440736 0.00436305061 0.0003039184827)
(0.03644599568 0.003581705797 0.0003014209999)
(0.03572414748 0.00238293402 0.0003015944801)
(0.03529487989 0.001851247503 0.0003022122165)
(0.02704798319 0.003148298718 7.307329994e-05)
(0.03610087647 0.006019226537 0.0001089171227)
(0.03739527621 0.004364089451 0.0001000226709)
(0.03643780015 0.003582453344 9.925664692e-05)
(0.03571596435 0.00238270314 9.927779414e-05)
(0.03528701926 0.001850892091 9.950038205e-05)
(0.02704798329 0.003148299053 -7.307541139e-05)
(0.03610087637 0.006019226159 -0.0001089192824)
(0.03739527636 0.004364089613 -0.0001000245632)
(0.03643780028 0.003582453443 -9.925845561e-05)
(0.03571596433 0.00238270319 -9.927939459e-05)
(0.03528701929 0.001850892191 -9.950176289e-05)
(0.0270565344 0.00314743503 -0.0002220754303)
(0.03611254639 0.00601685115 -0.000331128983)
(0.03740440749 0.004363050785 -0.0003039203887)
(0.03644599585 0.003581705996 -0.0003014227105)
(0.03572414754 0.002382934287 -0.0003015960355)
(0.03529488002 0.001851247774 -0.0003022135612)
(0.02707560399 0.003145601654 -0.0003803681104)
(0.03613882259 0.006011806075 -0.0005677033292)
(0.03742492473 0.004360953293 -0.000520822664)