/*--------------------------------*- C++ -*----------------------------------*\
  =========                 |
  \\      /  F ield         | OpenFOAM: The Open Source CFD Toolbox
   \\    /   O peration     | Website:  https://openfoam.org
    \\  /    A nd           | Version:  7
     \\/     M anipulation  |
\*---------------------------------------------------------------------------*/
FoamFile
{
    version     2.0;
    format      ascii;
    class       volScalarField;
    location    "0.00084";
    object      mag(U);
}
// * * * * * * * * * * * * * * * * * * * * * * * * * * * * * * * * * * * * * //

dimensions      [0 1 -1 0 0 0 0];

internalField   nonuniform List<scalar> 
5000
(
2.1638046e-12
2.2252511e-12
2.1784756e-12
2.2634287e-12
2.0999492e-12
2.5328378e-12
2.1648979e-12
2.0080776e-12
2.1575336e-12
2.1058192e-12
1.7792609e-12
2.1500816e-12
2.0661325e-12
2.0825833e-12
2.3145493e-12
2.0855035e-12
2.6020269e-12
1.9622044e-12
2.2664545e-12
2.2794204e-12
2.1209305e-12
2.3641841e-12
2.4790722e-12
2.5485457e-12
2.2557646e-12
2.1243149e-12
2.3354715e-12
2.3843362e-12
2.1051373e-12
1.8358368e-12
1.6894164e-12
1.6256405e-12
1.4343621e-12
1.6605706e-12
1.9406614e-12
2.0152661e-12
2.3620156e-12
2.238613e-12
2.1796875e-12
2.6992242e-12
2.5097991e-12
2.2077745e-12
2.0673445e-12
1.7902364e-12
1.9736378e-12
2.1818255e-12
1.9867034e-12
2.5614171e-12
3.0207049e-12
2.8458986e-12
3.0004964e-12
2.5978296e-12
2.5383654e-12
2.3636465e-12
2.7080832e-12
2.5824494e-12
2.0978322e-12
2.7443656e-12
2.7521156e-12
2.4965076e-12
2.5389303e-12
2.8170661e-12
2.6507402e-12
2.3994057e-12
2.1496616e-12
1.9146005e-12
2.023369e-12
2.2942022e-12
2.1271495e-12
2.1444111e-12
2.0667992e-12
2.0952123e-12
2.3443088e-12
2.4466849e-12
2.442446e-12
2.8243684e-12
2.4713008e-12
2.3242856e-12
2.4847848e-12
2.8338615e-12
2.9039958e-12
2.3765311e-12
2.4048992e-12
2.2225393e-12
2.6507854e-12
2.7041682e-12
3.1061249e-12
3.4799567e-12
3.0639e-12
3.531862e-12
3.4295503e-12
3.0435861e-12
3.1920199e-12
3.040718e-12
3.3426161e-12
3.1450021e-12
3.0267758e-12
2.9462213e-12
2.7592488e-12
2.8358641e-12
2.4305286e-12
2.1348488e-12
2.5493835e-12
2.2056055e-12
1.9421994e-12
2.019585e-12
2.1905629e-12
2.2161743e-12
2.0779461e-12
2.236589e-12
2.2689616e-12
1.9901767e-12
2.461164e-12
3.0106066e-12
2.865821e-12
3.0621484e-12
3.0460269e-12
2.90289e-12
2.4432826e-12
2.8608993e-12
2.9078325e-12
2.9931592e-12
3.1776395e-12
3.2185e-12
3.0776703e-12
2.9283934e-12
2.8475273e-12
3.0183773e-12
2.850957e-12
2.9181529e-12
2.3460297e-12
2.5968659e-12
2.6483591e-12
2.1967502e-12
2.2871907e-12
1.9922879e-12
2.1710898e-12
2.2915223e-12
2.0451333e-12
2.0509706e-12
2.3876186e-12
2.367159e-12
2.4591718e-12
2.2827473e-12
2.4380203e-12
1.9301954e-12
1.8990238e-12
2.1020989e-12
1.8706815e-12
2.0910354e-12
2.1359904e-12
2.2432579e-12
2.5583284e-12
2.3392113e-12
2.3127275e-12
2.6679695e-12
2.5722556e-12
2.2284472e-12
2.5243097e-12
2.9496217e-12
3.0698387e-12
3.0838002e-12
2.6636523e-12
3.1237865e-12
3.3562213e-12
3.0196064e-12
3.2467107e-12
3.0088182e-12
2.8568724e-12
2.6911599e-12
2.7945133e-12
2.69369e-12
3.1372978e-12
3.1792052e-12
3.2084686e-12
2.9728069e-12
3.0084345e-12
3.2404068e-12
2.8508355e-12
3.128317e-12
3.5729617e-12
3.4417755e-12
3.4472845e-12
3.7102377e-12
3.8244207e-12
3.6296405e-12
3.4825238e-12
3.4817163e-12
3.1423881e-12
3.2987184e-12
3.3627654e-12
3.6535761e-12
3.6527647e-12
3.6196773e-12
3.5684839e-12
3.455503e-12
3.4316344e-12
3.3520651e-12
3.7473282e-12
3.9506604e-12
3.9498234e-12
3.8298153e-12
3.8703352e-12
3.8697824e-12
3.8836925e-12
4.1575476e-12
4.1222172e-12
4.0411028e-12
3.6110372e-12
3.4711725e-12
3.8299663e-12
3.6771613e-12
3.61964e-12
3.5778064e-12
3.6610178e-12
3.7360744e-12
3.5442038e-12
3.1747215e-12
3.1005112e-12
2.691309e-12
3.1039846e-12
2.8955658e-12
2.7790534e-12
3.0358133e-12
3.0055544e-12
3.2733536e-12
3.2704656e-12
3.0872495e-12
2.4323236e-12
2.5285249e-12
2.3446996e-12
2.0541305e-12
2.4563644e-12
2.4756129e-12
2.028968e-12
2.0090158e-12
2.6182156e-12
2.5279324e-12
2.3003251e-12
2.2177837e-12
1.8889741e-12
2.0543069e-12
2.2072469e-12
1.9326993e-12
1.9005641e-12
2.2196025e-12
1.8364017e-12
2.005126e-12
1.8902814e-12
1.6407805e-12
1.9671146e-12
1.8993997e-12
1.9896067e-12
1.9093674e-12
1.7604663e-12
2.3474628e-12
2.0273139e-12
2.1045531e-12
2.1602965e-12
1.9520538e-12
2.2918512e-12
2.4581183e-12
2.7186032e-12
2.5149951e-12
2.5575992e-12
2.3197688e-12
2.2626893e-12
2.3873771e-12
2.5528661e-12
2.450656e-12
2.7755738e-12
2.8308668e-12
2.471437e-12
2.2148305e-12
2.2719539e-12
2.8337541e-12
2.5662409e-12
2.6909773e-12
2.5129266e-12
2.0726999e-12
2.1018856e-12
2.5262041e-12
2.8305461e-12
2.5209814e-12
2.9938511e-12
2.7969429e-12
2.4402963e-12
2.7294467e-12
2.6378572e-12
3.0497029e-12
3.0815897e-12
2.9320192e-12
2.8070361e-12
2.8657398e-12
2.3856973e-12
2.4959513e-12
2.7392424e-12
3.0474831e-12
3.1404486e-12
2.9650109e-12
3.1935314e-12
2.8795446e-12
2.4218949e-12
2.0579029e-12
2.2761306e-12
2.0692353e-12
1.6945869e-12
2.0443983e-12
1.8595669e-12
1.786698e-12
1.578714e-12
1.2763694e-12
1.56528e-12
1.896648e-12
2.0111389e-12
2.3429308e-12
2.5161332e-12
2.3840403e-12
2.738262e-12
2.8485184e-12
2.9610711e-12
2.9182511e-12
3.3603594e-12
3.6653141e-12
3.7637853e-12
3.5171709e-12
3.7109138e-12
3.7213243e-12
3.9966133e-12
3.5479033e-12
3.3247582e-12
3.7485393e-12
3.5675972e-12
3.26325e-12
3.2712928e-12
3.007203e-12
2.6491184e-12
2.890162e-12
3.0914303e-12
2.9294632e-12
2.9584534e-12
3.1528278e-12
2.8955824e-12
3.1688964e-12
2.8024538e-12
2.5225518e-12
3.1013664e-12
3.1387957e-12
3.2493065e-12
3.4778478e-12
2.8448263e-12
2.9877068e-12
3.7110496e-12
3.6813771e-12
3.8182752e-12
3.8267263e-12
3.1620029e-12
3.2688725e-12
3.2968646e-12
2.9185291e-12
2.4983826e-12
2.8242711e-12
2.7326316e-12
2.761403e-12
2.8816065e-12
2.4294257e-12
3.0769724e-12
2.9419729e-12
2.4498808e-12
2.8431293e-12
3.2825337e-12
2.97702e-12
2.8300154e-12
2.9808032e-12
2.617033e-12
2.6397785e-12
3.0609494e-12
2.9254929e-12
2.829511e-12
2.837679e-12
3.0546641e-12
3.1770931e-12
3.0246197e-12
2.6835418e-12
3.060039e-12
3.5359295e-12
3.0540703e-12
3.5577727e-12
3.4437742e-12
3.0119019e-12
3.2217784e-12
3.0431037e-12
2.5685367e-12
2.3141042e-12
2.7967995e-12
3.2560223e-12
2.8317347e-12
2.4937911e-12
2.299052e-12
2.4464964e-12
2.7719304e-12
2.6656563e-12
2.6371298e-12
2.566603e-12
2.9952938e-12
3.6388185e-12
3.8510735e-12
3.0637215e-12
2.8291789e-12
3.2708545e-12
3.2541907e-12
3.4457475e-12
2.9714904e-12
3.2394768e-12
2.9314383e-12
3.3369432e-12
3.582185e-12
3.236903e-12
3.4121626e-12
3.4273969e-12
3.1492573e-12
2.63654e-12
2.6652633e-12
2.3849742e-12
2.4840824e-12
2.9245521e-12
2.6547021e-12
2.8683823e-12
3.3379033e-12
2.8911242e-12
2.734176e-12
2.5611439e-12
2.7853511e-12
2.9600986e-12
3.5197816e-12
3.5793029e-12
3.991966e-12
3.6866082e-12
3.8888416e-12
4.0373454e-12
3.723129e-12
3.7521877e-12
3.1636442e-12
3.6046133e-12
3.8216803e-12
3.9392374e-12
4.0623257e-12
3.5377212e-12
3.6242281e-12
3.7406697e-12
3.6550468e-12
3.9186318e-12
3.6844398e-12
3.5634022e-12
3.5676403e-12
3.3927188e-12
3.2104356e-12
3.4867775e-12
3.5654864e-12
3.9069665e-12
4.3199312e-12
4.0646302e-12
4.2079481e-12
4.4282052e-12
4.4989273e-12
4.2986122e-12
4.4851382e-12
3.9511894e-12
3.7095525e-12
3.8939546e-12
3.8021201e-12
3.6776302e-12
3.7655311e-12
4.0929238e-12
3.6960539e-12
3.6865385e-12
3.6574251e-12
3.6597538e-12
3.4696143e-12
3.3147852e-12
3.0774218e-12
2.8759653e-12
3.1600368e-12
3.2041119e-12
3.4027652e-12
3.2844824e-12
2.8869666e-12
3.0441922e-12
3.2546852e-12
3.1413714e-12
2.9403928e-12
3.2042267e-12
3.0099305e-12
3.1447969e-12
3.2854953e-12
3.3230963e-12
3.1023973e-12
3.1998507e-12
3.2935384e-12
3.0816943e-12
3.2298354e-12
3.3921767e-12
3.5631283e-12
3.731131e-12
3.7443112e-12
3.5357131e-12
3.5901876e-12
3.857222e-12
4.2364828e-12
3.9595531e-12
3.6465304e-12
3.6805444e-12
3.1364873e-12
3.2074778e-12
3.5460789e-12
3.1568147e-12
3.3633399e-12
4.0420801e-12
3.6922246e-12
3.7692032e-12
3.6059534e-12
3.7024971e-12
3.7457797e-12
3.4771776e-12
3.2786105e-12
3.3368933e-12
3.2044657e-12
3.3501431e-12
3.1422174e-12
2.7811909e-12
3.3161241e-12
3.1376114e-12
2.9465834e-12
2.7032831e-12
2.895565e-12
2.8796799e-12
2.7585359e-12
3.0805564e-12
3.2148283e-12
2.6864791e-12
2.6295045e-12
2.577283e-12
3.2818453e-12
3.3822704e-12
3.0127838e-12
2.7694908e-12
2.9300654e-12
3.4125199e-12
3.5070402e-12
3.2526076e-12
2.8201334e-12
3.2074925e-12
3.3141279e-12
3.3862375e-12
3.7021516e-12
3.8955635e-12
3.7096996e-12
3.7730771e-12
3.9850222e-12
3.9691707e-12
3.6340979e-12
3.1160205e-12
2.985768e-12
3.5333702e-12
3.4938127e-12
3.1354919e-12
3.5183786e-12
3.7384453e-12
3.6063024e-12
3.5760049e-12
3.7375149e-12
3.9365072e-12
4.1823164e-12
4.0697025e-12
4.0871751e-12
4.0883535e-12
4.1219185e-12
4.1502705e-12
4.108065e-12
3.7132203e-12
4.0240994e-12
4.305009e-12
4.3905536e-12
4.4346764e-12
4.3762594e-12
5.1263968e-12
5.1872024e-12
5.0194813e-12
5.1545457e-12
5.9198478e-12
6.6524549e-12
6.7379583e-12
6.9728828e-12
7.4572905e-12
8.1406745e-12
8.2770724e-12
8.8357934e-12
9.6003465e-12
1.0344259e-11
1.0670059e-11
1.1685022e-11
1.3244128e-11
1.3748423e-11
1.4754113e-11
1.6713901e-11
1.8249085e-11
2.0213561e-11
2.2336076e-11
2.4133678e-11
2.6331509e-11
2.903809e-11
3.2388516e-11
3.56516e-11
3.8965698e-11
4.2799206e-11
4.68443e-11
5.1360953e-11
5.7006228e-11
6.2492314e-11
6.9009554e-11
7.6191859e-11
8.3900764e-11
9.236073e-11
1.0143055e-10
1.1170198e-10
1.2315959e-10
1.3577575e-10
1.4952065e-10
1.6427964e-10
1.8121221e-10
1.9978573e-10
2.1998289e-10
2.4184918e-10
2.6625856e-10
2.9335828e-10
3.2307879e-10
3.5578258e-10
3.9137306e-10
4.3108736e-10
4.7449719e-10
5.2200785e-10
5.7468953e-10
6.3195714e-10
6.9522401e-10
7.6520158e-10
8.4160716e-10
9.2496671e-10
1.0160597e-09
1.1158456e-09
1.2263637e-09
1.3476889e-09
1.4809673e-09
1.6267275e-09
1.7854449e-09
1.9598357e-09
2.1512187e-09
2.3618615e-09
2.5911896e-09
2.8427945e-09
3.1193664e-09
3.4213535e-09
3.7522435e-09
4.1148874e-09
4.510455e-09
4.9431019e-09
5.417125e-09
5.9356091e-09
6.5029419e-09
7.1225567e-09
7.7994483e-09
8.5400535e-09
9.3494004e-09
1.0232776e-08
1.1197998e-08
1.2252461e-08
1.3402823e-08
1.4659103e-08
1.6030927e-08
1.7527439e-08
1.9160477e-08
2.0941716e-08
2.2884364e-08
2.5003745e-08
2.731474e-08
2.9832396e-08
3.2576858e-08
3.5567444e-08
3.8824807e-08
4.2373172e-08
4.6238173e-08
5.0447074e-08
5.502809e-08
6.0014908e-08
6.5441258e-08
7.1345969e-08
7.776995e-08
8.475611e-08
9.2352927e-08
1.0061258e-07
1.0959106e-07
1.1934942e-07
1.2995228e-07
1.4147158e-07
1.5398374e-07
1.6757158e-07
1.8232602e-07
1.9834172e-07
2.1572581e-07
2.3459111e-07
2.550585e-07
2.7726049e-07
3.0133996e-07
3.2745021e-07
3.5575721e-07
3.8643961e-07
4.1969154e-07
4.5571893e-07
4.9474746e-07
5.3702007e-07
5.8279576e-07
6.3235675e-07
6.8600434e-07
7.4406475e-07
8.0688751e-07
8.74852e-07
9.4836454e-07
1.0278616e-06
1.1138144e-06
1.2067287e-06
1.3071479e-06
1.4156576e-06
1.5328872e-06
1.6595126e-06
1.7962606e-06
1.9439093e-06
2.1032973e-06
2.2753246e-06
2.4609563e-06
2.6612295e-06
2.8772556e-06
3.1102274e-06
3.3614246e-06
3.632219e-06
3.9240814e-06
4.2385895e-06
4.5774319e-06
4.9424188e-06
5.3354888e-06
5.758718e-06
6.214329e-06
6.7047016e-06
7.2323817e-06
7.8000935e-06
8.4107511e-06
9.0674705e-06
9.7735849e-06
1.0532656e-05
1.134849e-05
1.2225152e-05
1.3166989e-05
1.4178639e-05
1.5265057e-05
1.6431531e-05
1.7683706e-05
1.9027603e-05
2.0469646e-05
2.2016686e-05
2.3676028e-05
2.5455459e-05
2.7363278e-05
2.9408327e-05
3.1600027e-05
3.3948407e-05
3.6464152e-05
3.915863e-05
4.2043941e-05
4.5132961e-05
4.8439386e-05
5.197778e-05
5.5763629e-05
5.9813397e-05
6.4144573e-05
6.8775745e-05
7.3726658e-05
7.9018275e-05
8.4672857e-05
9.0714029e-05
9.7166864e-05
0.00010405796
0.00011141553
0.00011926949
0.00012765156
0.00013659535
0.00014613649
0.00015631269
0.00016716393
0.00017873252
0.00019106325
0.00020420352
0.00021820348
0.00023311618
0.00024899772
0.0002659074
0.00028390793
0.00030306552
0.00032345018
0.00034513579
0.00036820039
0.00039272637
0.00041880065
0.00044651496
0.00047596603
0.00050725588
0.00054049207
0.00057578795
0.00061326295
0.00065304289
0.00069526027
0.00074005459
0.00078757268
0.00083796905
0.00089140626
0.00094805524
0.0010080957
0.0010717167
0.0011391167
0.0012105043
0.0012860985
0.0013661295
0.0014508386
0.0015404794
0.0016353176
0.001735632
0.0018417152
0.0019538735
0.0020724282
0.0021977158
0.0023300886
0.0024699159
0.0026175837
0.0027734965
0.0029380771
0.0031117679
0.0032950313
0.0034883508
0.0036922316
0.0039072014
0.0041338112
0.0043726367
0.0046242783
0.0048893627
0.0051685437
0.0054625028
0.0057719509
0.0060976285
0.0064403074
0.0068007911
0.0071799166
0.007578555
0.0079976128
0.0084380329
0.0089007961
0.0093869218
0.0098974696
0.010433541
0.010996278
0.011586869
0.012206546
0.012856589
0.013538322
0.014253123
0.015002417
0.015787682
0.01661045
0.017472304
0.018374888
0.0193199
0.020309098
0.021344299
0.022427385
0.023560296
0.024745041
0.025983693
0.027278393
0.02863135
0.030044844
0.031521227
0.033062923
0.034672432
0.036352328
0.038105264
0.03993397
0.041841258
0.04383002
0.045903229
0.048063945
0.05031531
0.052660554
0.055102993
0.057646032
0.060293165
0.063047977
0.065914144
0.068895434
0.071995708
0.075218922
0.078569125
0.082050462
0.085667174
0.089423599
0.093324169
0.097373417
0.10157597
0.10593656
0.11046
0.11515122
0.12001524
0.12505717
0.13028223
0.13569574
0.14130309
0.14710979
0.15312144
0.15934374
0.16578247
0.17244351
0.17933284
0.18645651
0.19382067
0.20143157
0.20929553
0.21741895
0.22580833
0.23447024
0.24341132
0.25263831
0.262158
0.27197726
0.28210304
0.29254234
0.30330224
0.31438985
0.32581238
0.33757707
0.34969121
0.36216214
0.37499725
0.38820398
0.40178978
0.41576216
0.43012865
0.4448968
0.4600742
0.47566844
0.49168713
0.50813789
0.52502835
0.54236613
0.56015885
0.57841414
0.59713959
0.61634278
0.63603129
0.65621265
0.67689436
0.69808391
0.7197887
0.74201615
0.76477357
0.78806825
0.81190741
0.83629821
0.86124773
0.886763
0.91285095
0.93951843
0.96677222
0.99461898
1.0230653
1.0521177
1.0817824
1.1120659
1.1429741
1.1745132
1.2066891
1.2395076
1.2729742
1.3070946
1.3418741
1.3773179
1.4134312
1.450219
1.4876859
1.5258367
1.5646758
1.6042077
1.6444363
1.6853659
1.7270001
1.7693426
1.812397
1.8561666
1.9006544
1.9458635
1.9917967
2.0384564
2.0858452
2.1339653
2.1828188
2.2324074
2.2827328
2.3337966
2.3856
2.4381442
2.4914299
2.545458
2.600229
2.6557433
2.7120008
2.7690017
2.8267457
2.8852324
2.9444611
3.004431
3.0651412
3.1265905
3.1887775
3.2517007
3.3153583
3.3797484
3.4448689
3.5107176
3.577292
3.6445894
3.7126071
3.781342
3.8507911
3.9209509
3.991818
4.0633887
4.1356592
4.2086255
4.2822835
4.3566288
4.431657
4.5073635
4.5837434
4.6607919
4.7385039
4.8168742
4.8958974
4.975568
5.0558804
5.1368288
5.2184073
5.3006097
5.3834301
5.466862
5.550899
5.6355346
5.7207621
5.8065747
5.8929655
5.9799274
6.0674534
6.1555362
6.2441683
6.3333425
6.423051
6.5132862
6.6040404
6.6953056
6.787074
6.8793374
6.9720877
7.0653167
7.1590159
7.2531771
7.3477916
7.442851
7.5383464
7.6342692
7.7306105
7.8273615
7.9245131
8.0220562
8.1199817
8.2182804
8.3169431
8.4159603
8.5153227
8.6150208
8.715045
8.8153856
8.9160331
9.0169776
9.1182094
9.2197186
9.3214952
9.4235294
9.5258109
9.6283298
9.7310759
9.8340389
9.9372086
10.040575
10.144127
10.247854
10.351747
10.455795
10.559986
10.664311
10.768758
10.873317
10.977978
11.082729
11.187559
11.292458
11.397415
11.502419
11.607458
11.712522
11.817599
11.922678
12.027748
12.132799
12.237817
12.342793
12.447715
12.552571
12.65735
12.762041
12.866631
12.971111
13.075467
13.179689
13.283765
13.387683
13.491431
13.594998
13.698373
13.801543
13.904497
14.007223
14.109709
14.211944
14.313915
14.415611
14.51702
14.61813
14.71893
14.819408
14.919551
15.019348
15.118788
15.217858
15.316546
15.414842
15.512732
15.610207
15.707252
15.803858
15.900013
15.995704
16.090921
16.185651
16.279884
16.373608
16.466812
16.559484
16.651613
16.743188
16.834198
16.924632
17.01448
17.103729
17.19237
17.280392
17.367785
17.454538
17.540641
17.626083
17.710855
17.794947
17.878349
17.961052
18.043046
18.124322
18.20487
18.284682
18.36375
18.442064
18.519617
18.596399
18.672404
18.747623
18.82205
18.895676
18.968494
19.040499
19.111682
19.182039
19.251562
19.320247
19.388087
19.455078
19.521214
19.586491
19.650904
19.71445
19.777124
19.838924
19.899845
19.959886
20.019044
20.077315
20.1347
20.191196
20.246801
20.301516
20.35534
20.408272
20.460312
20.511462
20.561722
20.611094
20.659578
20.707178
20.753895
20.799731
20.844691
20.888777
20.931992
20.974342
21.015829
21.05646
21.096239
21.135171
21.173262
21.210518
21.246945
21.28255
21.31734
21.351321
21.384503
21.416891
21.448495
21.479322
21.509382
21.538682
21.567232
21.595041
21.622119
21.648475
21.67412
21.699062
21.723313
21.746883
21.769783
21.792022
21.813613
21.834566
21.854891
21.874601
21.893707
21.912219
21.930149
21.947509
21.964311
21.980564
21.996283
22.011477
22.026158
22.040339
22.05403
22.067243
22.07999
22.092281
22.104129
22.115544
22.126539
22.137122
22.147308
22.157104
22.166524
22.175576
22.184273
22.192624
22.20064
22.20833
22.215706
22.222776
22.22955
22.236039
22.24225
22.248195
22.25388
22.259317
22.264512
22.269475
22.274213
22.278736
22.28305
22.287164
22.291085
22.294821
22.298378
22.301764
22.304986
22.308049
22.310961
22.313728
22.316355
22.31885
22.321216
22.32346
22.325587
22.327603
22.329512
22.331318
22.333028
22.334645
22.336173
22.337617
22.33898
22.340267
22.341481
22.342626
22.343706
22.344722
22.34568
22.34658
22.347428
22.348225
22.348974
22.349677
22.350337
22.350957
22.351538
22.352083
22.352593
22.353071
22.353518
22.353936
22.354327
22.354692
22.355034
22.355352
22.355649
22.355926
22.356183
22.356423
22.356646
22.356854
22.357047
22.357226
22.357392
22.357546
22.357689
22.357821
22.357943
22.358056
22.35816
22.358256
22.358344
22.358426
22.358501
22.35857
22.358634
22.358692
22.358745
22.358794
22.358839
22.35888
22.358917
22.358952
22.358983
22.359012
22.359038
22.359063
22.359085
22.359107
22.359129
22.359147
22.359166
22.359191
22.35922
22.359241
22.359257
22.359286
22.359321
22.359346
22.359364
22.35939
22.359424
22.359452
22.359469
22.359487
22.359515
22.359544
22.359562
22.359575
22.359596
22.359622
22.359637
22.359644
22.359662
22.35969
22.359704
22.359706
22.359728
22.359765
22.359787
22.359794
22.359812
22.359847
22.359872
22.359885
22.359902
22.359934
22.359963
22.35998
22.359994
22.360021
22.360052
22.360071
22.360083
22.360101
22.360129
22.360152
22.360167
22.360182
22.360205
22.360229
22.360246
22.36026
22.360276
22.360296
22.360311
22.360321
22.360336
22.360356
22.36037
22.360378
22.360391
22.360414
22.360431
22.360439
22.360451
22.360475
22.360495
22.360501
22.36051
22.360532
22.360552
22.360558
22.360564
22.360584
22.360607
22.360622
22.360632
22.360649
22.36067
22.360687
22.360698
22.360715
22.360735
22.360747
22.360753
22.360767
22.360787
22.360799
22.360803
22.360814
22.360833
22.360843
22.360846
22.360854
22.360872
22.360891
22.360903
22.360912
22.360927
22.360945
22.360958
22.360968
22.360982
22.360998
22.361009
22.361015
22.361024
22.361039
22.361048
22.361052
22.361056
22.36107
22.361085
22.361095
22.361104
22.361116
22.361131
22.361146
22.361159
22.361174
22.361189
22.361204
22.36122
22.361237
22.361248
22.36126
22.361273
22.361289
22.361302
22.361306
22.361304
22.361303
22.3613
22.3613
22.361307
22.361312
22.361313
22.361313
22.361317
22.361319
22.361309
22.361303
22.361302
22.361301
22.36131
22.361323
22.361334
22.361347
22.361365
22.361386
22.36141
22.361429
22.361437
22.361442
22.361446
22.361449
22.361457
22.361471
22.361481
22.361482
22.361483
22.361493
22.361495
22.361498
22.361505
22.361507
22.361506
22.361508
22.361513
22.361509
22.3615
22.3615
22.361502
22.361499
22.361501
22.361505
22.361504
22.361504
22.361507
22.361507
22.361509
22.361513
22.361518
22.361521
22.361526
22.361531
22.361539
22.361547
22.361552
22.361555
22.361559
22.361564
22.36157
22.361577
22.361586
22.361598
22.361602
22.361598
22.36159
22.36159
22.361592
22.361595
22.361595
22.36159
22.361588
22.361591
22.361588
22.36158
22.361579
22.36158
22.36158
22.361581
22.361585
22.361583
22.361576
22.361572
22.361575
22.361573
22.36157
22.361573
22.361573
22.361569
22.361567
22.361567
22.361568
22.361569
22.361567
22.361565
22.361564
22.361564
22.361565
22.361563
22.36156
22.361559
22.361558
22.361555
22.361552
22.361551
22.361551
22.36155
22.361548
22.361545
22.361541
22.361541
22.36154
22.361537
22.361534
22.361534
22.361534
22.361533
22.361528
22.361523
22.361524
22.361527
22.361526
22.361525
22.361522
22.361523
22.361523
22.361521
22.361518
22.361512
22.361512
22.361512
22.361511
22.361506
22.361502
22.361503
22.361501
22.361496
22.361487
22.361484
22.361486
22.361485
22.361481
22.361476
22.361474
22.361471
22.361468
22.361464
22.361461
22.361458
22.361453
22.361448
22.361444
22.361441
22.361436
22.361431
22.361427
22.361423
22.361419
22.361415
22.361412
22.361408
22.361402
22.361394
22.361391
22.36139
22.361387
22.361382
22.361376
22.361371
22.361368
22.361364
22.36136
22.361354
22.361349
22.361346
22.361343
22.361339
22.361333
22.361326
22.361322
22.361319
22.361316
22.361312
22.361309
22.361307
22.361304
22.361301
22.361296
22.361292
22.361289
22.361286
22.361284
22.361282
22.36128
22.361278
22.361275
22.361272
22.361271
22.36127
22.361268
22.361266
22.361263
22.361261
22.36126
22.361259
22.361257
22.361254
22.361253
22.361254
22.361253
22.361252
22.36125
22.361248
22.361245
22.361245
22.361244
22.361242
22.36124
22.361238
22.361236
22.361235
22.361232
22.36123
22.361228
22.361226
22.361223
22.36122
22.361218
22.361215
22.361212
22.361207
22.361204
22.361202
22.3612
22.361197
22.361193
22.361188
22.361184
22.36118
22.361177
22.361175
22.361171
22.361167
22.361162
22.361157
22.361154
22.361152
22.361148
22.361144
22.36114
22.361135
22.361132
22.36113
22.361126
22.361123
22.361118
22.361116
22.361113
22.361109
22.361106
22.361103
22.361101
22.361099
22.361096
22.361092
22.36109
22.361089
22.361087
22.361084
22.361082
22.36108
22.361079
22.361077
22.361075
22.361072
22.361071
22.361071
22.36107
22.361069
22.361067
22.361065
22.361063
22.361062
22.361062
22.361061
22.36106
22.361059
22.361058
22.361056
22.361055
22.361055
22.361054
22.361053
22.361052
22.36105
22.361049
22.361048
22.361046
22.361044
22.361043
22.361042
22.361041
22.36104
22.361038
22.361036
22.361034
22.361033
22.361031
22.361028
22.361026
22.361024
22.361022
22.36102
22.361018
22.361016
22.361014
22.361011
22.361008
22.361006
22.361004
22.361002
22.360999
22.360996
22.360994
22.360991
22.360989
22.360986
22.360983
22.360981
22.360978
22.360976
22.360973
22.36097
22.360968
22.360966
22.360964
22.360961
22.360957
22.360955
22.360954
22.360952
22.36095
22.360947
22.360944
22.360942
22.36094
22.360938
22.360936
22.360933
22.360931
22.36093
22.360928
22.360925
22.360923
22.360919
22.360916
22.360914
22.360913
22.360912
22.360911
22.36091
22.360908
22.360905
22.360903
22.3609
22.360898
22.360897
22.360895
22.360894
22.360891
22.360889
22.360886
22.360885
22.360884
22.360882
22.36088
22.360877
22.360874
22.360873
22.360871
22.360869
22.360867
22.360865
22.360863
22.360862
22.36086
22.360858
22.360856
22.360853
22.360852
22.36085
22.360848
22.360846
22.360844
22.360843
22.360841
22.360839
22.360838
22.360836
22.360834
22.360832
22.360831
22.360829
22.360828
22.360826
22.360824
22.360822
22.360821
22.36082
22.360819
22.360817
22.360815
22.360813
22.360812
22.360811
22.36081
22.360808
22.360806
22.360804
22.360803
22.360802
22.3608
22.360799
22.360797
22.360796
22.360794
22.360793
22.360791
22.360789
22.360787
22.360786
22.360784
22.360783
22.36078
22.360778
22.360776
22.360775
22.360773
22.360771
22.360769
22.360767
22.360765
22.360763
22.360761
22.360759
22.360757
22.360755
22.360753
22.36075
22.360748
22.360746
22.360744
22.360742
22.360739
22.360736
22.360735
22.360733
22.360731
22.360729
22.360726
22.360724
22.360721
22.36072
22.360718
22.360716
22.360713
22.360711
22.360709
22.360707
22.360705
22.360703
22.360701
22.360699
22.360698
22.360696
22.360694
22.360692
22.36069
22.360689
22.360687
22.360686
22.360684
22.360683
22.360682
22.360681
22.360679
22.360678
22.360676
22.360675
22.360674
22.360674
22.360673
22.360671
22.36067
22.360669
22.360668
22.360667
22.360667
22.360666
22.360665
22.360664
22.360662
22.360661
22.360661
22.360661
22.360661
22.36066
22.360659
22.360658
22.360657
22.360656
22.360656
22.360655
22.360655
22.360654
22.360652
22.360651
22.360651
22.360651
22.36065
22.360649
22.360648
22.360646
22.360645
22.360645
22.360644
22.360643
22.360642
22.360641
22.36064
22.360639
22.360638
22.360637
22.360636
22.360634
22.360633
22.360632
22.360631
22.36063
22.360629
22.360627
22.360626
22.360625
22.360624
22.360622
22.360621
22.360619
22.360618
22.360617
22.360616
22.360615
22.360613
22.360612
22.36061
22.360609
22.360607
22.360606
22.360605
22.360604
22.360602
22.3606
22.360598
22.360596
22.360595
22.360594
22.360593
22.360592
22.36059
22.360589
22.360587
22.360586
22.360584
22.360582
22.36058
22.360579
22.360578
22.360577
22.360575
22.360573
22.360571
22.36057
22.360568
22.360567
22.360566
22.360564
22.360562
22.36056
22.360558
22.360557
22.360556
22.360554
22.360552
22.36055
22.360548
22.360547
22.360546
22.360544
22.360542
22.36054
22.360538
22.360537
22.360536
22.360534
22.360532
22.36053
22.360528
22.360527
22.360525
22.360524
22.360522
22.36052
22.360519
22.360517
22.360515
22.360514
22.360512
22.36051
22.360509
22.360507
22.360506
22.360504
22.360502
22.360501
22.360499
22.360498
22.360496
22.360495
22.360493
22.360492
22.36049
22.360489
22.360487
22.360486
22.360484
22.360483
22.360482
22.36048
22.360479
22.360477
22.360476
22.360475
22.360474
22.360472
22.360471
22.360469
22.360468
22.360467
22.360466
22.360465
22.360463
22.360462
22.360461
22.36046
22.360459
22.360458
22.360456
22.360455
22.360454
22.360453
22.360452
22.360451
22.36045
22.360448
22.360447
22.360446
22.360445
22.360444
22.360443
22.360442
22.360441
22.36044
22.360439
22.360438
22.360437
22.360436
22.360435
22.360434
22.360433
22.360432
22.360431
22.360431
22.36043
22.360428
22.360427
22.360426
22.360426
22.360425
22.360424
22.360423
22.360422
22.360421
22.36042
22.360419
22.360419
22.360418
22.360417
22.360416
22.360414
22.360413
22.360413
22.360412
22.360411
22.36041
22.360409
22.360409
22.360408
22.360407
22.360406
22.360404
22.360403
22.360403
22.360402
22.360401
22.3604
22.360399
22.360398
22.360397
22.360396
22.360395
22.360394
22.360394
22.360393
22.360392
22.360391
22.36039
22.360388
22.360388
22.360387
22.360386
22.360385
22.360384
22.360383
22.360382
22.360381
22.36038
22.360379
22.360378
22.360377
22.360376
22.360375
22.360374
22.360373
22.360372
22.360371
22.36037
22.360369
22.360368
22.360367
22.360366
22.360364
22.360363
22.360362
22.360361
22.36036
22.360359
22.360358
22.360356
22.360355
22.360354
22.360353
22.360352
22.360351
22.360349
22.360348
22.360347
22.360346
22.360345
22.360343
22.360342
22.36034
22.360339
22.360338
22.360337
22.360336
22.360335
22.360333
22.360332
22.36033
22.360329
22.360328
22.360327
22.360325
22.360324
22.360323
22.360321
22.36032
22.360319
22.360317
22.360315
22.360314
22.360313
22.360312
22.360311
22.360309
22.360307
22.360306
22.360305
22.360304
22.360303
22.360301
22.3603
22.360298
22.360296
22.360295
22.360294
22.360293
22.360292
22.36029
22.360288
22.360287
22.360286
22.360285
22.360284
22.360282
22.360281
22.360279
22.360278
22.360277
22.360276
22.360274
22.360273
22.360271
22.36027
22.360269
22.360268
22.360266
22.360265
22.360264
22.360262
22.360261
22.36026
22.360259
22.360258
22.360256
22.360255
22.360254
22.360252
22.360251
22.36025
22.360249
22.360248
22.360246
22.360245
22.360244
22.360243
22.360242
22.360241
22.360239
22.360238
22.360237
22.360236
22.360235
22.360234
22.360233
22.360231
22.36023
22.360229
22.360228
22.360227
22.360226
22.360225
22.360224
22.360223
22.360222
22.360221
22.36022
22.360219
22.360218
22.360217
22.360216
22.360215
22.360214
22.360213
22.360212
22.360211
22.36021
22.360209
22.360208
22.360207
22.360206
22.360204
22.360204
22.360203
22.360202
22.360201
22.3602
22.360199
22.360198
22.360197
22.360196
22.360195
22.360195
22.360194
22.360192
22.360191
22.36019
22.360189
22.360189
22.360188
22.360187
22.360186
22.360185
22.360183
22.360182
22.360182
22.360181
22.36018
22.360179
22.360178
22.360177
22.360176
22.360175
22.360174
22.360173
22.360172
22.360171
22.36017
22.360169
22.360168
22.360167
22.360166
22.360165
22.360164
22.360163
22.360162
22.360161
22.36016
22.360159
22.360158
22.360157
22.360156
22.360155
22.360154
22.360153
22.360152
22.360151
22.36015
22.360149
22.360148
22.360146
22.360146
22.360145
22.360144
22.360143
22.360142
22.36014
22.360139
22.360138
22.360137
22.360136
22.360135
22.360135
22.360134
22.360133
22.360132
22.360131
22.360129
22.360128
22.360128
22.360127
22.360126
22.360125
22.360124
22.360123
22.360122
22.360121
22.36012
22.360119
22.360118
22.360117
22.360116
22.360115
22.360114
22.360113
22.360112
22.360111
22.36011
22.360109
22.360108
22.360108
22.360107
22.360106
22.360105
22.360103
22.360102
22.360102
22.360101
22.3601
22.360099
22.360098
22.360097
22.360096
22.360095
22.360094
22.360093
22.360092
22.360091
22.36009
22.360089
22.360088
22.360087
22.360086
22.360085
22.360084
22.360083
22.360082
22.360081
22.36008
22.360079
22.360078
22.360077
22.360076
22.360075
22.360074
22.360073
22.360072
22.360071
22.36007
22.360068
22.360067
22.360066
22.360065
22.360064
22.360063
22.360062
22.360061
22.36006
22.360059
22.360058
22.360057
22.360055
22.360054
22.360053
22.360052
22.360051
22.360051
22.36005
22.360049
22.360048
22.360048
22.360047
22.360046
22.360045
22.360043
22.360041
22.360039
22.360036
22.360034
22.360031
22.360029
22.360027
22.360027
22.360028
22.360031
22.360035
22.360041
22.360047
22.360051
22.360055
22.360053
22.360048
22.360036
22.360018
22.359997
22.359978
22.359972
22.360007
22.360131
22.360515
22.361519
22.364025
22.363129
22.359688
22.359451
22.35988
22.35988
22.359848
22.359873
22.359923
22.359956
22.359984
22.36001
22.360027
22.360038