/*--------------------------------*- C++ -*----------------------------------*\
| =========                 |                                                 |
| \\      /  F ield         | OpenFOAM: The Open Source CFD Toolbox           |
|  \\    /   O peration     | Version:  4.x                                   |
|   \\  /    A nd           | Web:      www.OpenFOAM.org                      |
|    \\/     M anipulation  |                                                 |
\*---------------------------------------------------------------------------*/
FoamFile
{
    version     2.0;
    format      ascii;
    class       volScalarField;
    location    "0.06";
    object      T;
}
// * * * * * * * * * * * * * * * * * * * * * * * * * * * * * * * * * * * * * //

dimensions      [0 0 0 1 0 0 0];

internalField   nonuniform List<scalar> 
6394
(
299.9997641
300.0002435
300.0002435
300.0002637
300.0002937
300.0001972
300.0001417
300.0000743
299.9998185
300.0001692
300.0004305
300.0005289
300.0002983
300.0001272
300.0000607
299.9998234
300.000083
300.0001966
300.0003149
300.0002059
300.0003714
300.0001888
299.9998569
299.999816
300.0001508
300.0002893
300.0002116
300.000264
300.0002502
299.9999471
299.9998566
299.9998658
300.0000432
300.0003135
300.0001811
300.0002126
300.0000642
299.999918
299.9998375
299.999784
299.9998117
300.0001223
300.0001754
300.0000389
299.9999966
299.999855
299.999734
299.9996948
300.0000132
300.0006188
300.0009378
300.0007963
300.0006361
300.0004208
300.0001529
299.9999818
300.0005287
300.0013011
300.0014074
300.0013958
300.0009279
300.0003882
300.000017
299.9997194
300.0003994
300.001119
300.0011137
300.0011299
300.0008275
300.0002872
299.999813
299.9997582
299.9997753
300.0010139
300.0009208
300.0008916
300.0004129
299.9999327
299.9997452
299.9997358
299.9995369
300.0007008
300.0008258
300.0006704
300.0001217
299.9997602
299.9995142
299.9995037
299.9996411
300.0005301
300.0005828
300.0002601
299.9998461
299.9993854
299.9991671
299.9992674
300.0009615
300.0010977
300.0010736
300.0011919
300.0008995
300.0005057
300.0002222
300.0000813
300.0016324
300.0017747
300.0017826
300.0015701
300.0010104
300.0004777
300.0000634
299.9998023
300.0008784
300.001698
300.0016027
300.0013398
300.0008749
300.0002994
299.9999139
299.9999234
300.0000112
300.0013882
300.0013453
300.0011776
300.0005786
300.0001005
299.99992
299.9999306
299.9999232
300.0009971
300.001056
300.0007411
300.0001803
299.9997345
299.9995331
299.9996124
300.0002414
300.0007773
300.0007948
300.0003403
299.9998333
299.9993333
299.9992383
299.9993978
300.0010932
300.0012172
300.0011377
300.0011847
300.0011076
300.0008474
300.0004991
300.0002519
300.000125
300.001427
300.0019416
300.0019416
300.0019752
300.0016507
300.0010908
300.000667
300.000327
300.0001366
300.0013464
300.0011531
300.0018308
300.0016729
300.0013619
300.0009061
300.0004416
300.0002555
300.0003518
300.0014881
300.0006995
300.0014973
300.0015175
300.0011659
300.0006788
300.0003894
300.0002831
300.0003046
300.0011835
300.0009356
300.0012813
300.0011998
300.0008029
300.0003593
299.9999647
299.9998263
300.0000238
300.000773
300.0008152
300.0010988
300.0009275
300.0004853
300.0000203
299.9996121
299.9995804
299.9997797
300.0008913
300.001115
300.0011246
300.0010605
300.0010303
300.0009103
300.0005741
300.0003599
300.0003053
300.0013552
300.0015856
300.0017937
300.0017524
300.0015674
300.0011593
300.0007841
300.0004903
300.0004303
300.0012672
300.0012026
300.0015856
300.001586
300.0014281
300.0010295
300.0006706
300.0005159
300.0005949
300.0016452
300.0012371
300.00157
300.0015189
300.0011734
300.0009454
300.0007285
300.0004516
300.0004547
300.0015375
300.0014639
300.0013525
300.0011491
300.0009479
300.0007335
300.0002308
299.9999851
300.0001856
300.00111
300.0010046
300.0011081
300.0009003
300.0006621
300.0002549
299.999818
299.9997172
299.9998753
300.0002092
300.0007672
300.0008914
300.0009187
300.0010718
300.0009603
300.0006697
300.0005386
300.0004959
300.0002407
300.0009864
300.0014247
300.0016648
300.0017097
300.0014133
300.0010561
300.0007841
300.0007265
300.000554
300.0010105
300.0013882
300.0016981
300.001597
300.0012899
300.0009991
300.0008405
300.0007952
300.0010861
300.0013053
300.0015523
300.0014928
300.001263
300.0012386
300.0009197
300.0005751
300.0005818
300.0009957
300.0013425
300.0012829
300.0011328
300.0011864
300.0008795
300.0003221
300.000113
300.0002862
300.0010036
300.0009063
300.00104
300.0009138
300.0007563
300.0002698
299.9998816
299.999808
299.9998888
300.0007525
300.000336
300.0005851
300.0007319
300.0008679
300.0010661
300.0010082
300.000815
300.000682
300.0005973
300.000251
300.0000056
300.000658
300.0011471
300.0015814
300.0017037
300.0014569
300.0011568
300.0009694
300.0009355
300.0000048
300.0004884
300.0008535
300.0012677
300.0016336
300.001535
300.0013271
300.0011563
300.0009914
300.0009519
300.0003426
300.0009465
300.0012404
300.0014513
300.0013284
300.0013019
300.0013111
300.0009798
300.0006894
300.000747
300.0010071
300.0008531
300.0011919
300.0011337
300.001115
300.0012127
300.0009114
300.0004343
300.0003094
300.0003909
300.0015256
300.0007686
300.000804
300.00084
300.0008468
300.000681
300.0002941
300.0000175
299.9999957
299.9999871
300.0002332
300.0005584
300.0007048
300.000386
300.0005174
300.0005072
300.000737
300.0009296
300.0009108
300.0007383
300.0006089
300.00057
300.0004755
300.0006573
300.0003504
300.0003636
300.0006012
300.0009313
300.0013262
300.0014566
300.0012634
300.0010349
300.0009264
300.0009196
300.0007515
300.0007352
300.0005375
300.0006968
300.0006251
300.001069
300.0013436
300.0013264
300.0012519
300.0011556
300.0010344
300.0009815
300.0013056
300.0012686
300.0008212
300.0010558
300.0011074
300.0012433
300.0012009
300.0012786
300.0013384
300.0011093
300.0009531
300.0009216
300.00162
300.001735
300.000598
300.0011255
300.001105
300.0009952
300.0010956
300.0012378
300.0010849
300.000862
300.000835
300.0006925
300.0005169
300.0006314
300.0006279
300.0006978
300.0008206
300.0007671
300.0006579
300.0006241
300.0006059
300.0004191
299.9998574
300.0006275
300.0005657
300.0004555
300.0003023
300.0002575
300.0004157
300.0005513
300.0005437
300.0003982
300.0003065
300.000356
299.9998086
300.0006326
300.0006538
300.0004463
300.0003603
300.0004376
300.0006815
300.0007867
300.0006384
300.0005516
300.000602
300.0006459
300.0003829
300.0009224
300.0008509
300.000614
300.0004958
300.0007847
300.0009164
300.0008943
300.0009215
300.0010215
300.0009814
300.0008839
300.0011721
300.001181
300.0013444
300.0011318
300.000994
300.0010671
300.0010388
300.0011447
300.0013337
300.0013954
300.0011839
300.0009187
300.0013284
300.0006189
300.0008674
300.0012743
300.0010468
300.0009663
300.0011013
300.0013023
300.0014767
300.0014774
300.0011596
300.000781
300.0000513
300.0006848
300.0006368
300.0007227
300.0009026
300.0010056
300.0012451
300.0013077
300.0009352
300.0005877
300.0001441
300.0005127
300.0004907
300.000327
300.000121
300.0000622
300.0001524
300.0002413
300.0001631
300.0000027
299.9999496
300.0001386
299.9999495
300.0006805
300.0006611
300.0004017
300.0002258
300.0002269
300.0003528
300.0003315
300.0001156
300.0001137
300.0003115
300.0005097
300.0002557
300.0009189
300.0009054
300.0006826
300.0005732
300.0007019
300.0007385
300.0006301
300.0006691
300.0009115
300.0009108
300.0008059
300.0010022
300.0014067
300.0015164
300.0011348
300.0009852
300.0010288
300.0009657
300.0010268
300.0012887
300.0013981
300.0010874
300.0007203
300.0010363
300.0007495
300.001142
300.001273
300.0010394
300.0009722
300.0010904
300.001235
300.0014804
300.0014584
300.0009841
300.0005882
300.0003534
300.0009042
300.0007305
300.0008075
300.0009799
300.0010268
300.0012782
300.0013012
300.0007804
300.0004353
300.0007183
300.0004942
300.000489
300.0002898
300.0001431
300.0001016
300.0001504
300.0001528
300.0000089
299.9999019
299.9999492
300.0002269
300.0005752
300.000729
300.0006619
300.0004702
300.0003327
300.0002682
300.0002769
300.0002237
300.0000219
300.0000964
300.000405
300.0006988
300.0004067
300.000921
300.0009603
300.0008384
300.000674
300.000692
300.0006414
300.0005263
300.0005633
300.0008612
300.0009231
300.0008699
300.0005628
300.0012848
300.0013955
300.001113
300.0010066
300.0009496
300.0008047
300.0008641
300.001127
300.0011963
300.0008651
300.0006687
299.999753
300.0005826
300.0010884
300.0011855
300.001025
300.0008659
300.001044
300.0011346
300.0012419
300.0011371
300.000696
300.0005272
300.0006584
300.0009579
300.0007961
300.0007996
300.0009597
300.000954
300.0010116
300.0009481
300.000443
300.0003065
300.0008427
300.0004697
300.0004072
300.0003479
300.0002713
300.0002242
300.0001873
300.0001371
300.0000807
300.0000944
300.0002546
300.0005977
300.0009997
300.0007039
300.0006957
300.0006392
300.0004824
300.0003324
300.00031
300.0002985
300.0001894
300.0003927
300.0008586
300.0011819
300.0007929
300.0008772
300.0009743
300.0009494
300.0007793
300.0007143
300.0006399
300.0005136
300.0006016
300.0009585
300.0010764
300.0011195
300.0005689
300.0011879
300.001321
300.0011676
300.0010813
300.0008472
300.000795
300.0008842
300.0009962
300.0010565
300.0008232
300.0007798
299.9995856
300.0009576
300.0013235
300.001212
300.0010807
300.0007826
300.0009507
300.0010244
300.000868
300.0007827
300.0005033
300.0005426
300.0012801
300.0010965
300.0007864
300.0008161
300.0008374
300.0007332
300.0004971
300.0005206
300.0002407
300.0003354
300.000749
300.0003723
300.0004435
300.0005226
300.0004541
300.0003342
300.0003092
300.0002943
300.0004436
300.0005699
300.0006494
300.0009162
300.0009488
300.0006606
300.0008677
300.000929
300.0007412
300.0005266
300.0005888
300.00067
300.0006902
300.0009678
300.0012672
300.0014748
300.000898
300.0009447
300.0012035
300.0012843
300.0010923
300.0009443
300.0008716
300.0007892
300.0009329
300.0012
300.0011945
300.001273
300.0008106
300.0013713
300.0015732
300.0014633
300.0013378
300.0010325
300.0009157
300.0008848
300.0008706
300.0008566
300.0006992
300.0008031
300.0000379
300.0017575
300.0016748
300.0013899
300.0011552
300.0007895
300.0007966
300.0006815
300.0004226
300.0004093
300.0003911
300.0005748
300.0020343
300.0014364
300.0008604
300.0007021
300.0006416
300.000277
300.0001838
300.0003388
300.0002357
300.000483
300.0009705
300.0004455
300.0006318
300.0007213
300.000643
300.0005841
300.0006046
300.0006307
300.0007839
300.0007885
300.0008728
300.0010858
300.0012973
300.0009643
300.0012102
300.0012852
300.0011461
300.001008
300.0011421
300.0010909
300.0011284
300.0012857
300.0014722
300.0016141
300.0013572
300.0013473
300.0015307
300.0016429
300.0014767
300.0014064
300.0012541
300.000971
300.0010619
300.00115
300.001232
300.0013528
300.001414
300.001654
300.0017516
300.0017247
300.0014235
300.0010704
300.0009391
300.0006882
300.000711
300.0006787
300.0007898
300.0009478
300.0008672
300.001761
300.0016588
300.0014847
300.0013628
300.0008611
300.0007512
300.0004719
300.0004496
300.0004527
300.0006124
300.0008155
300.0009755
300.0019334
300.0017972
300.0015101
300.0011793
300.0007696
300.0006462
300.000228
300.0003374
300.0004766
300.000497
300.0008092
300.0001202
299.9999982
300.0001498
299.9999957
299.9999899
299.999767
299.9996444
299.9996353
300.0005664
300.0000676
299.999999
300.0000115
299.9999131
299.9997178
299.9996747
299.9997008
300.0006721
300.0001354
300.0001337
300.0001205
300.0000626
299.9999718
299.9999653
299.9999521
300.000537
300.0001135
300.0002798
300.0002014
300.000225
300.0001602
300.0001208
300.0000969
300.0003286
300.0002301
300.0003279
300.0003472
300.0003593
300.0002361
300.0001594
300.0001343
300.0003948
300.0002428
300.0003177
300.0004196
300.0003474
300.0002034
300.0001355
300.0000667
300.000755
300.0001418
300.0001635
300.0001208
300.0001278
300.0001572
300.0001319
299.9998271
300.0010934
300.0004597
299.9998689
299.9995194
299.999727
300.0002123
300.0003837
300.0000934
300.0000887
299.9999349
300.0001636
300.0003602
300.0000555
299.9996536
299.9992073
299.9990981
299.9991853
300.0003223
300.0000074
300.0002628
300.0002636
299.9998848
299.9995303
299.9994725
299.9995004
300.0003248
299.9999729
300.0005026
300.0005838
300.0003339
300.0001204
300.0001019
300.0000543
300.0003935
300.0002666
300.0008722
300.000988
300.0008717
300.0006191
300.0005075
300.0004035
300.0009882
300.0009011
300.0012667
300.0013857
300.0011725
300.0008331
300.0007118
300.0005983
300.0014296
300.0009221
300.001286
300.0012809
300.0009437
300.0005526
300.0004829
300.0003754
300.0018013
300.0004973
300.0006618
300.0005184
300.0004806
300.0001455
300.0000114
299.9996895
300.003159
300.0011082
299.9996404
299.9986775
299.9994274
300.000096
300.0004139
299.9999633
299.9998815
300.0003043
300.0003318
300.0004601
300.000146
299.9996795
299.9992617
299.9992181
299.9992776
300.0007013
300.0000926
300.000365
300.0003558
299.9999576
299.9996333
299.9995695
299.999556
300.0009322
300.0003247
300.0007819
300.0008023
300.0005287
300.0002861
300.000154
300.0000889
300.0008858
300.000761
300.001199
300.0012321
300.0009893
300.0006632
300.0004887
300.0003953
300.0012028
300.0010538
300.001484
300.0015379
300.001265
300.0008995
300.0007237
300.0006076
300.0016236
300.0012402
300.0015199
300.0013485
300.0010134
300.0006929
300.0005147
300.0004753
300.0024434
300.0013589
300.0012319
300.0006095
300.0003418
300.0000755
299.999926
299.9998588
300.00383
300.0023922
300.0012351
299.9994419
299.9991371
299.9998249
300.0003404
300.0002573
300.0002034
299.9998995
300.0002602
300.0006023
300.0006031
300.000292
299.9999243
299.9996195
299.9994757
299.999531
299.9989522
300.0005099
300.0003031
300.0005124
300.0004743
300.0001897
299.9998843
299.9996634
299.9997118
300.0006458
300.00049
300.0008291
300.0008255
300.0005731
300.0002724
300.0000556
300.0001225
300.000906
300.0008102
300.0011402
300.0011224
300.000835
300.0004446
300.0002275
300.0003239
300.0012259
300.0010612
300.0013716
300.0013313
300.0009802
300.0005706
300.0003406
300.00039
300.0013287
300.0011887
300.0013309
300.0011603
300.0007667
300.0004182
300.0002026
300.0003773
300.0020735
300.0011928
300.000944
300.0004861
299.9998601
299.9998345
299.9997946
300.000316
300.0029174
300.0016325
300.0011834
300.0000573
299.9986573
299.9991465
299.9993374
300.0001212
299.9997422
300.0004414
300.0002008
300.0006121
300.0005963
300.0003864
300.0000386
299.9997327
299.9995408
299.9995851
300.000581
300.0005471
300.0003047
300.0004827
300.0004451
300.0001844
299.9998884
299.9996737
299.9997795
300.0004573
300.0004913
300.0007093
300.0006642
300.0004211
300.000114
299.999964
300.0001549
300.0003062
300.0005434
300.0007837
300.0006944
300.0004061
300.000087
300.0000504
300.0002678
300.0007694
300.0008491
300.0008687
300.0007309
300.0003365
300.0000038
300.0000222
300.0002038
300.0005704
300.0008933
300.0006665
300.0005909
300.0002127
299.9999571
300.0000335
300.0002875
300.000316
300.0005348
300.0002628
300.0001533
299.9997429
299.9999028
300.0000292
300.0004743
299.9991102
299.999678
300.0001048
299.9999203
299.9989196
299.9995734
299.9994456
300.0002679
300.000049
300.0004642
300.0001693
300.0004828
300.0005286
300.0003182
299.9999427
299.9997313
299.9996153
299.9996631
300.0005398
300.0004397
300.0001792
300.0002692
300.000164
299.9999426
299.9998167
299.9997543
299.9999479
300.0003236
300.0003537
300.0003562
300.0001761
300.0000004
299.9999509
300.0000248
300.0002944
300.0000406
300.0003189
300.0002671
300.000125
299.9999539
299.9999362
300.0001067
300.0003197
299.9998135
300.0002627
300.0002224
300.000162
299.9999559
299.9999522
300.0001551
300.0003015
300.0000042
300.0002826
300.0001436
300.0001158
299.9999633
299.9999958
300.0002773
300.0004451
299.9998458
300.0000383
299.9998267
299.9996662
299.9995787
299.9999902
300.0004277
300.0006226
299.9980204
299.998752
299.9990485
299.9989285
299.9987699
299.9997754
300.0001421
300.0006133
300.00124
300.0004873
300.0001919
300.0000755
300.0002735
300.0003391
300.0001107
299.9999332
299.9998398
299.9998393
299.9999107
299.9985084
299.9999996
299.999982
299.9999345
299.9999866
299.9999076
299.9998915
299.9999211
300.0000494
300.0002871
299.9986955
299.9979959
299.9999792
300.0000857
299.9999902
299.9999068
299.9999284
300.000044
300.0002822
300.0004336
299.9994247
299.999184
300.0000696
300.0001541
299.9999905
299.9999767
299.9999471
300.0001014
300.0004014
300.0004172
299.9998256
299.9996481
299.9998273
300.0000977
300.0001115
300.0001341
300.0000499
300.0002934
300.0006374
300.0005042
300.0002474
299.9998139
300.0001241
300.0002171
300.0001084
300.0001083
300.0000736
300.0003736
300.0006573
300.0005841
300.0010113
300.0005476
300.0002504
300.0000684
299.999792
299.9996773
299.9997144
300.0002276
300.0006974
300.0008767
300.0013326
300.0007825
299.9985829
299.9986962
299.9987162
299.998811
299.9990826
300.0000446
300.0004955
300.0008864
300.001653
300.0006152
300.0001105
300.0000715
300.000267
300.000323
300.0002447
300.0003261
300.0004652
300.0005043
300.0004556
299.9996477
299.9998167
299.9998287
299.9999393
299.9999862
300.0000505
300.0002578
300.0005122
300.0006536
300.0006154
299.9993067
299.9992763
299.9999333
300.0000301
299.9999937
300.0000744
300.0002952
300.0005854
300.0007574
300.0005821
299.9997958
299.9996071
300.0001713
300.000171
300.0001064
300.00027
300.0004443
300.0007885
300.0009542
300.0006116
300.0003986
299.999721
300.0001474
300.0002659
300.0004038
300.0005498
300.0006687
300.001032
300.0010597
300.0006044
300.0012594
300.0001489
300.0004913
300.0004529
300.0004063
300.0004834
300.0006035
300.0008655
300.0008516
300.0007044
300.0020054
300.0007644
300.0007207
300.0003041
300.0000176
300.0000855
300.0002629
300.0006542
300.0008925
300.0011619
300.0023176
300.0009934
299.9997226
299.9989561
299.9988621
299.9993749
300.0000142
300.0005455
300.0007181
300.0012146
300.0018341
300.0001133
300.0002268
300.0002265
300.0003637
300.0004204
300.0005966
300.0010103
300.0011684
300.0008039
300.0005652
299.9998266
300.0000133
299.9999777
300.0000939
300.0001662
300.0005085
300.0010285
300.001209
300.0009023
300.0006671
299.9995855
299.9999009
300.0000911
300.0001434
300.0002367
300.0006202
300.0011315
300.0013114
300.0011039
300.0007527
300.0000582
300.0000056
300.000351
300.0003436
300.0005118
300.0009525
300.0012974
300.0014834
300.0013379
300.0008505
300.0008513
300.0000603
300.0004857
300.0006086
300.0008214
300.0011029
300.0012459
300.0013981
300.0012454
300.0007989
300.0016614
300.0003908
300.0007001
300.0006962
300.0007497
300.0008225
300.000885
300.0010581
300.0010617
300.0010479
300.0027965
300.0009465
300.0007189
300.0002795
300.0000783
300.0001263
300.0002727
300.0007447
300.0010743
300.0013938
300.0037341
300.0016035
300.0001498
299.9992508
299.9991523
299.9995379
300.0000905
300.0009864
300.0013179
300.0016231
300.0023375
300.0004621
300.0006577
300.000506
300.00064
300.0006056
300.0007361
300.0011258
300.0012036
300.0006644
300.0003981
300.0006295
300.0006921
300.000428
300.0004713
300.0004568
300.0007507
300.0012771
300.0013327
300.0008326
300.0006501
300.0004018
300.0007269
300.0005802
300.0005401
300.0006756
300.0010895
300.001607
300.0016277
300.0012589
300.0011021
300.0002632
300.0005198
300.0007665
300.0007971
300.0009775
300.0014376
300.0016793
300.0016583
300.0014852
300.0013438
300.0006957
300.0004702
300.0008946
300.0008806
300.0010845
300.0012949
300.0013266
300.0014113
300.0014722
300.001431
300.0013996
300.0005737
300.0008249
300.000731
300.0008001
300.0008148
300.0008307
300.0010745
300.0014563
300.0017492
300.0025189
300.0007996
300.0005162
300.0002069
300.0001188
300.0001111
300.0002328
300.0008719
300.0014844
300.0019104
300.0036165
300.001574
300.0004073
299.9997813
299.9997941
300.000013
300.0004633
300.0015489
300.0018927
300.0018747
300.0022636
300.0008371
300.000875
300.0006586
300.0008319
300.0007246
300.0007269
300.0009694
300.0009507
300.0003868
300.00033
300.0009837
300.0009432
300.0008391
300.0008806
300.0008234
300.000923
300.0012816
300.0013016
300.0007915
300.0007732
300.00098
300.0012369
300.0011798
300.00107
300.0010977
300.0013684
300.0016927
300.0016068
300.0012336
300.0012558
300.0007551
300.0011335
300.0011909
300.0011939
300.0012235
300.0014994
300.0015804
300.0014352
300.0013412
300.0014515
300.0007722
300.0007024
300.0010406
300.0009467
300.0011367
300.0012002
300.0011022
300.0011905
300.0014885
300.0016559
300.0010536
300.0005955
300.0007508
300.0006225
300.0006781
300.0005801
300.000629
300.0010312
300.0015712
300.0018656
300.00164
300.0005852
300.0003208
300.0001164
300.0001168
300.0001764
300.0004171
300.0012623
300.0018342
300.001981
300.0024978
300.0011708
300.0004415
299.9997866
299.9998031
300.0004142
300.0009731
300.0017033
300.0018708
300.0016561
300.001644
300.0011478
300.0011489
300.0007574
300.000923
300.0007072
300.0005345
300.000555
300.0006788
300.0003168
300.0004198
300.000962
300.0009901
300.0010264
300.0010254
300.0008521
300.0008447
300.0011023
300.001199
300.0007768
300.0008434
300.0008511
300.0012645
300.0013739
300.00131
300.0012443
300.0013831
300.0016338
300.0014367
300.0010452
300.0011896
300.0010091
300.0013075
300.0013161
300.0013785
300.0013532
300.0015068
300.0014494
300.0011505
300.0011785
300.0014615
300.0011291
300.0008018
300.0010687
300.0010003
300.0012197
300.0011884
300.0010305
300.0010946
300.0014072
300.001615
300.0012389
300.0006922
300.0006186
300.0005348
300.000681
300.0005957
300.0006652
300.0010381
300.0015669
300.0018384
300.0016847
300.0006681
300.0004324
300.0001971
300.0002028
300.000433
300.0008239
300.0014272
300.0018145
300.0019146
300.002258
300.0013155
300.0009104
300.0000137
299.9998686
300.0005963
300.001093
300.001639
300.0017195
300.0015358
300.0014244
300.0019467
300.0012668
300.0009603
300.0008631
300.0005987
300.0002904
300.0004133
300.0006746
300.0004433
300.0007143
300.0014987
300.0010123
300.0012783
300.0010874
300.0008279
300.0008168
300.0010865
300.0012421
300.0009338
300.0010728
300.0012259
300.0012853
300.0014074
300.0012624
300.0012594
300.0012691
300.0014692
300.0012806
300.0010169
300.0012092
300.0012472
300.0012828
300.0013952
300.0014854
300.0016211
300.001603
300.0014529
300.0011516
300.0012577
300.0014605
300.0008957
300.00077
300.0012667
300.0012406
300.0015782
300.0014587
300.0012708
300.0012174
300.0014301
300.0015072
300.0012468
300.0008039
300.0007495
300.0007174
300.0008844
300.0007822
300.0008331
300.0011684
300.0015662
300.0016998
300.0021303
300.0010047
300.0008064
300.0006315
300.0005128
300.0007541
300.0009707
300.0013867
300.0016684
300.0017255
300.0028852
300.0017686
300.0015508
300.0010221
300.0004013
300.001051
300.001274
300.0013472
300.0012661
300.001251
300.0011988
300.0007146
300.0014437
300.001716
300.0012869
300.0011387
300.0008928
300.0006465
300.000338
300.000618
300.0008173
300.0007278
300.0010333
300.000649
300.0007793
300.0014334
300.0010905
300.0017088
300.0011813
300.0008863
300.0008401
300.0011906
300.001346
300.0012009
300.0013245
300.0011791
300.0008285
300.0013627
300.0013791
300.0016535
300.0012731
300.0012809
300.00116
300.0014668
300.0013147
300.0012462
300.001441
300.0020224
300.0009793
300.0014846
300.0013617
300.0014407
300.001478
300.0016616
300.0015916
300.0015397
300.001375
300.0016015
300.0015386
300.0022558
300.0011117
300.0008853
300.000772
300.0013797
300.0015973
300.0020622
300.0017866
300.0016335
300.0016149
300.0016748
300.0014378
300.0017809
300.000952
300.0011801
300.0008384
300.0008147
300.0009952
300.0011953
300.0010703
300.0011369
300.0013709
300.0015123
300.0013818
300.002046
300.0018821
300.0022507
300.0011596
300.0009506
300.0011428
300.0011833
300.0014358
300.0013259
300.0012875
300.0013265
300.0012649
300.0021322
300.0017021
300.0029492
300.001804
300.0015241
300.0015753
300.0017812
300.0024192
300.0018916
300.0009987
300.0005456
300.0007753
300.0004591
300.0000228
299.9999628
300.0000664
300.0001812
300.0001503
300.0000932
299.9997427
299.999955
300.0000803
300.0001376
300.0003011
300.0002189
299.999914
299.9999472
300.0000195
300.0001375
300.0002453
300.0000792
299.9998485
299.9999809
300.0001039
300.0001319
300.0001079
300.0000056
299.9997832
299.9999033
299.9999865
300.0000536
300.0001032
300.0000043
299.9997159
299.9997935
299.9998464
299.9999558
300.0000893
299.9999629
299.9998898
299.9999227
300.0002075
300.0004545
300.0004519
300.0002657
299.9997286
300.0000461
300.0003987
300.0006183
300.0008564
300.0004929
299.9999336
300.0000898
300.0003559
300.0005916
300.0005923
300.0003369
299.9998305
300.0001069
300.0004071
300.0004018
300.0003519
300.0003157
299.9996921
299.9999356
300.0001121
300.0002135
300.000403
300.0003439
299.9994931
299.9997086
299.9998932
300.0000638
300.0003632
300.0002807
299.9999404
300.0001217
300.0004984
300.0004511
300.0003367
300.0001561
299.9998993
300.0003553
300.0005994
300.0005716
300.0006523
300.0002742
300.000107
300.0004193
300.0006791
300.0005964
300.0004628
300.0003194
300.0000663
300.0004317
300.000708
300.000539
300.0004553
300.0004917
299.999908
300.0002649
300.0005815
300.0006415
300.0006929
300.000564
299.9996858
300.0000212
300.0004491
300.0006293
300.0006841
300.0005125
300.0000867
300.0003362
300.0004805
300.0002363
300.0001448
300.0001348
300.0003374
300.0006148
300.0004832
300.0001815
300.0002639
300.000229
300.0005474
300.0007282
300.000681
300.0004153
300.0003918
300.0004183
300.0005795
300.0009151
300.0009429
300.0006571
300.0006653
300.0006327
300.0005278
300.0009298
300.0010649
300.0009731
300.0009051
300.0005906
300.0002889
300.0007613
300.0010548
300.0010151
300.0007644
300.000495
300.0003412
300.0004161
300.0003177
300.000027
300.0000401
300.0001844
300.0006614
300.0007474
300.0004508
300.0001275
300.0002624
300.000395
300.0007584
300.0008604
300.0007052
300.0004217
300.0004781
300.0006053
300.0007851
300.0010515
300.0009651
300.0006439
300.0007111
300.0006291
300.0006735
300.0010145
300.0010734
300.0008972
300.0007481
300.0004296
300.0003625
300.0008353
300.0010686
300.0008799
300.0004704
300.000292
300.0004694
300.0005103
300.0004045
300.0001885
300.0002319
300.0004092
300.0008301
300.0008629
300.0006414
300.0004631
300.0006482
300.0008156
300.0008623
300.0009647
300.0008457
300.0006454
300.0008287
300.0009016
300.0008068
300.0009612
300.0008359
300.0006487
300.0008453
300.0007048
300.0005423
300.0007104
300.0007599
300.0007017
300.0006517
300.0003836
300.0001381
300.0004898
300.0007405
300.0005689
300.0002311
300.0002637
300.0005837
300.0005751
300.0005093
300.0004896
300.0006685
300.0006848
300.0009421
300.000916
300.0008912
300.0010207
300.0013235
300.0011384
300.0009582
300.000964
300.000916
300.0009916
300.0013758
300.0011487
300.00078
300.000701
300.0006779
300.0008035
300.0012506
300.0008203
300.0003747
300.0003839
300.0006041
300.0007772
300.0007899
300.0004112
300.0000644
300.0002676
300.0006097
300.0005786
300.0002847
300.0003421
300.0005771
300.0005113
300.000465
300.0006121
300.0008564
300.0007026
300.000865
300.0007874
300.0008668
300.0011756
300.001449
300.0010919
300.0009153
300.0008542
300.0008983
300.0011592
300.0014952
300.0010837
300.0007446
300.000626
300.0007624
300.0011309
300.0013992
300.0007482
300.0004858
300.0004962
300.0008249
300.0011288
300.0009343
300.0004208
300.0003376
300.0004939
300.0008635
300.0008653
300.00051
300.0005068
300.0003905
300.0002551
300.0002644
300.0005396
300.0007203
300.0004773
300.0005142
300.0004028
300.0006299
300.0009966
300.0011035
300.0006758
300.000719
300.0006295
300.0007909
300.0010515
300.0012161
300.0007264
300.0006803
300.0006616
300.0009147
300.0011353
300.0012127
300.0005364
300.0006619
300.0008167
300.0011084
300.0011886
300.0008311
300.0003873
300.0006164
300.0008379
300.0010974
300.0009457
300.0005349
300.0005361
300.0002586
300.00014
300.0001418
300.0003015
300.0002768
300.0001528
300.0004417
300.0003119
300.0004057
300.0004953
300.0004269
300.0004338
300.0006655
300.0005885
300.0006783
300.0006994
300.0007276
300.0006188
300.0006115
300.0007179
300.000893
300.0008948
300.0008546
300.000508
300.0006845
300.0009193
300.0010721
300.0009687
300.0006135
300.0004045
300.0006381
300.0008909
300.0010515
300.0008423
300.0005381
300.0006052
300.0003812
300.0002394
300.0001714
300.000191
300.0001722
300.0002208
300.00067
300.0004669
300.0004265
300.000434
300.0004942
300.0006997
300.0007774
300.0006926
300.0007053
300.0006697
300.0008202
300.0008592
300.0007262
300.0008673
300.0008853
300.0008078
300.0009461
300.0007153
300.0008126
300.0009733
300.000947
300.0008816
300.0007468
300.0005909
300.0006679
300.0008526
300.0008795
300.0008054
300.0006465
300.0006365
300.0007233
300.0004875
300.0003182
300.0003109
300.0004745
300.0006015
300.0010814
300.0007414
300.0006146
300.0007571
300.0012128
300.0011983
300.0010318
300.0008502
300.0008486
300.0009005
300.0013571
300.0011476
300.0009097
300.0008987
300.0008826
300.0009123
300.0013012
300.0009102
300.0008651
300.0008944
300.0007783
300.0009031
300.0009228
300.0005769
300.0006809
300.0007126
300.0005798
300.0006859
300.0006832
300.0005151
300.0009012
300.0006013
300.0004458
300.0005349
300.0008713
300.0007864
300.0012198
300.0008145
300.0007833
300.0011237
300.0016103
300.0012022
300.0010963
300.0008922
300.0010239
300.0011839
300.0015002
300.0011425
300.0009231
300.000884
300.0008852
300.0010741
300.0012358
300.0007925
300.0008264
300.0007922
300.000497
300.0008086
300.0008795
300.0004466
300.0006437
300.0005216
300.0004709
300.0006749
300.0006751
300.0004329
300.0009395
300.0006424
300.0005159
300.0006207
300.0008621
300.0006736
300.0012815
300.0008976
300.0009579
300.0012359
300.0014122
300.0009919
300.0011938
300.0010644
300.0012256
300.001305
300.0013089
300.0009562
300.0010574
300.0010927
300.0009019
300.0010007
300.0012165
300.0007545
300.0008339
300.0008799
300.0006441
300.0008387
300.000943
300.0004759
300.0007339
300.000566
300.0004983
300.0006613
300.0006498
300.000429
299.9996821
299.9997508
299.9997882
299.9998774
300.0000694
299.999957
299.9997515
299.9998116
299.9998662
299.9999368
300.0001378
300.0000536
299.9999485
299.999966
300.0000426
300.0000966
300.0003202
300.0001473
300.0000804
300.0000648
300.000141
300.0001966
300.0004958
300.0001987
300.0001388
300.0000765
300.0001459
300.0002189
300.000546