/*--------------------------------*- C++ -*----------------------------------*\
  =========                 |
  \\      /  F ield         | OpenFOAM: The Open Source CFD Toolbox
   \\    /   O peration     | Website:  https://openfoam.org
    \\  /    A nd           | Version:  7
     \\/     M anipulation  |
\*---------------------------------------------------------------------------*/
FoamFile
{
    version     2.0;
    format      ascii;
    class       surfaceScalarField;
    location    "0.00096";
    object      phi;
}
// * * * * * * * * * * * * * * * * * * * * * * * * * * * * * * * * * * * * * //

dimensions      [1 0 -1 0 0 0 0];

internalField   nonuniform List<scalar> 
4999
(
-2.0695211
-2.0682592
-2.0669973
-2.0657354
-2.0644736
-2.063212
-2.0619503
-2.0606888
-2.0594273
-2.0581659
-2.0569047
-2.0556435
-2.0543824
-2.0531216
-2.0518609
-2.0506005
-2.0493405
-2.0480808
-2.0468218
-2.0455632
-2.0443053
-2.0430481
-2.0417912
-2.0405349
-2.0392787
-2.0380226
-2.0367663
-2.0355096
-2.0342523
-2.0329943
-2.0317355
-2.0304756
-2.0292148
-2.027953
-2.0266902
-2.0254266
-2.0241622
-2.0228971
-2.0216313
-2.0203651
-2.0190983
-2.0178313
-2.016564
-2.0152965
-2.0140289
-2.0127611
-2.0114933
-2.0102254
-2.0089575
-2.0076895
-2.0064216
-2.0051538
-2.0038859
-2.0026181
-2.0013503
-2.0000826
-1.9988148
-1.9975472
-1.9962796
-1.995012
-1.9937445
-1.992477
-1.9912095
-1.9899421
-1.9886748
-1.9874075
-1.9861402
-1.984873
-1.9836059
-1.9823388
-1.9810717
-1.9798047
-1.9785377
-1.9772708
-1.9760039
-1.9747371
-1.9734703
-1.9722035
-1.9709369
-1.9696702
-1.9684036
-1.9671371
-1.9658705
-1.9646041
-1.9633377
-1.9620713
-1.9608051
-1.9595385
-1.9582728
-1.957006
-1.9557406
-1.9544736
-1.9532086
-1.9519416
-1.9506766
-1.9494099
-1.9481448
-1.9468783
-1.9456131
-1.944347
-1.9430817
-1.9418158
-1.9405505
-1.9392848
-1.9380194
-1.936754
-1.9354886
-1.9342233
-1.932958
-1.9316928
-1.9304276
-1.9291625
-1.9278974
-1.9266324
-1.9253674
-1.9241025
-1.9228376
-1.9215728
-1.920308
-1.9190433
-1.9177786
-1.9165139
-1.9152493
-1.9139848
-1.9127203
-1.9114559
-1.9101915
-1.9089271
-1.9076629
-1.9063986
-1.9051344
-1.9038703
-1.9026062
-1.9013422
-1.9000782
-1.8988143
-1.8975505
-1.8962868
-1.8950231
-1.8937594
-1.8924959
-1.8912324
-1.8899691
-1.8887058
-1.8874426
-1.8861796
-1.8849166
-1.8836538
-1.8823911
-1.8811285
-1.879866
-1.8786037
-1.8773415
-1.8760795
-1.8748176
-1.8735558
-1.8722942
-1.8710327
-1.8697713
-1.8685101
-1.8672489
-1.8659879
-1.8647269
-1.863466
-1.8622052
-1.8609444
-1.8596837
-1.8584229
-1.8571621
-1.8559013
-1.8546404
-1.8533795
-1.8521185
-1.8508573
-1.849596
-1.8483345
-1.8470729
-1.8458111
-1.844549
-1.8432868
-1.8420243
-1.8407616
-1.8394986
-1.8382353
-1.8369718
-1.835708
-1.834444
-1.8331797
-1.8319151
-1.8306502
-1.8293851
-1.8281198
-1.8268542
-1.8255884
-1.8243223
-1.8230561
-1.8217896
-1.820523
-1.8192562
-1.8179892
-1.8167221
-1.8154548
-1.8141874
-1.8129199
-1.8116523
-1.8103846
-1.8091168
-1.807849
-1.806581
-1.8053131
-1.8040451
-1.8027771
-1.801509
-1.8002409
-1.7989729
-1.7977048
-1.7964367
-1.7951686
-1.7939005
-1.7926325
-1.7913645
-1.7900964
-1.7888285
-1.7875605
-1.7862926
-1.7850247
-1.7837569
-1.782489
-1.7812213
-1.7799536
-1.7786859
-1.7774182
-1.7761506
-1.7748831
-1.7736156
-1.7723481
-1.7710807
-1.7698133
-1.768546
-1.7672788
-1.7660116
-1.7647444
-1.7634773
-1.7622102
-1.7609432
-1.7596763
-1.7584093
-1.7571425
-1.7558757
-1.754609
-1.7533423
-1.7520756
-1.7508091
-1.7495425
-1.7482761
-1.7470097
-1.7457433
-1.744477
-1.7432108
-1.7419446
-1.7406785
-1.7394125
-1.7381465
-1.7368806
-1.7356147
-1.734349
-1.7330833
-1.7318176
-1.7305521
-1.7292866
-1.7280211
-1.7267558
-1.7254906
-1.7242254
-1.7229603
-1.7216953
-1.7204303
-1.7191655
-1.7179007
-1.716636
-1.7153715
-1.714107
-1.7128425
-1.7115782
-1.710314
-1.7090498
-1.7077858
-1.7065218
-1.7052579
-1.7039941
-1.7027303
-1.7014666
-1.700203
-1.6989395
-1.6976761
-1.6964126
-1.6951493
-1.693886
-1.6926227
-1.6913595
-1.6900963
-1.6888332
-1.68757
-1.6863069
-1.6850437
-1.6837806
-1.6825174
-1.6812542
-1.679991
-1.6787277
-1.6774644
-1.6762011
-1.6749376
-1.6736741
-1.6724105
-1.6711469
-1.6698831
-1.6686192
-1.6673552
-1.6660911
-1.6648269
-1.6635626
-1.6622981
-1.6610334
-1.6597687
-1.6585038
-1.6572387
-1.6559735
-1.6547081
-1.6534426
-1.6521769
-1.6509111
-1.6496451
-1.648379
-1.6471127
-1.6458462
-1.6445796
-1.6433129
-1.642046
-1.640779
-1.6395118
-1.6382445
-1.6369771
-1.6357096
-1.6344419
-1.6331741
-1.6319063
-1.6306383
-1.6293702
-1.628102
-1.6268338
-1.6255655
-1.6242971
-1.6230286
-1.62176
-1.6204914
-1.6192228
-1.6179541
-1.6166854
-1.6154166
-1.6141478
-1.612879
-1.6116101
-1.6103412
-1.6090724
-1.6078035
-1.6065346
-1.6052657
-1.6039968
-1.6027279
-1.601459
-1.6001901
-1.5989212
-1.5976523
-1.5963835
-1.5951147
-1.5938459
-1.5925771
-1.5913084
-1.5900396
-1.5887709
-1.5875023
-1.5862336
-1.584965
-1.5836964
-1.5824279
-1.5811594
-1.5798909
-1.5786224
-1.577354
-1.5760857
-1.5748174
-1.5735491
-1.5722808
-1.5710126
-1.5697445
-1.5684763
-1.5672083
-1.5659402
-1.5646723
-1.5634043
-1.5621365
-1.5608686
-1.5596009
-1.5583332
-1.5570655
-1.5557979
-1.5545304
-1.5532629
-1.5519956
-1.5507282
-1.549461
-1.5481939
-1.5469268
-1.5456598
-1.5443929
-1.5431261
-1.5418594
-1.5405928
-1.5393263
-1.53806
-1.5367937
-1.5355276
-1.5342615
-1.5329956
-1.5317299
-1.5304643
-1.5291988
-1.5279334
-1.5266682
-1.5254032
-1.5241383
-1.5228736
-1.521609
-1.5203446
-1.5190803
-1.5178162
-1.5165523
-1.5152885
-1.5140249
-1.5127614
-1.5114982
-1.510235
-1.5089721
-1.5077093
-1.5064466
-1.5051841
-1.5039217
-1.5026595
-1.5013974
-1.5001354
-1.4988736
-1.4976119
-1.4963503
-1.4950888
-1.4938273
-1.492566
-1.4913047
-1.4900436
-1.4887824
-1.4875213
-1.4862603
-1.4849993
-1.4837383
-1.4824773
-1.4812163
-1.4799553
-1.4786943
-1.4774333
-1.4761722
-1.4749111
-1.4736499
-1.4723886
-1.4711272
-1.4698658
-1.4686043
-1.4673426
-1.4660809
-1.464819
-1.463557
-1.4622949
-1.4610326
-1.4597702
-1.4585076
-1.4572449
-1.455982
-1.4547189
-1.4534557
-1.4521923
-1.4509287
-1.449665
-1.4484011
-1.447137
-1.4458727
-1.4446083
-1.4433437
-1.4420789
-1.4408139
-1.4395488
-1.4382835
-1.437018
-1.4357524
-1.4344866
-1.4332206
-1.4319545
-1.4306883
-1.4294219
-1.4281554
-1.4268887
-1.4256219
-1.4243549
-1.4230879
-1.4218207
-1.4205534
-1.4192861
-1.4180186
-1.416751
-1.4154833
-1.4142156
-1.4129477
-1.4116798
-1.4104118
-1.4091438
-1.4078756
-1.4066075
-1.4053392
-1.404071
-1.4028027
-1.4015343
-1.4002659
-1.3989975
-1.3977291
-1.3964606
-1.3951921
-1.3939236
-1.3926551
-1.3913866
-1.390118
-1.3888495
-1.3875809
-1.3863124
-1.3850438
-1.3837753
-1.3825068
-1.3812382
-1.3799697
-1.3787012
-1.3774327
-1.3761642
-1.3748957
-1.3736273
-1.3723588
-1.3710904
-1.369822
-1.3685536
-1.3672852
-1.3660168
-1.3647485
-1.3634801
-1.3622118
-1.3609435
-1.3596752
-1.3584069
-1.3571386
-1.3558704
-1.3546021
-1.3533339
-1.3520656
-1.3507974
-1.3495292
-1.3482609
-1.3469927
-1.3457244
-1.3444562
-1.3431879
-1.3419197
-1.3406514
-1.3393831
-1.3381147
-1.3368464
-1.335578
-1.3343095
-1.3330411
-1.3317726
-1.330504
-1.3292354
-1.3279667
-1.326698
-1.3254291
-1.3241602
-1.3228913
-1.3216222
-1.320353
-1.3190837
-1.3178143
-1.3165448
-1.3152751
-1.3140053
-1.3127354
-1.3114653
-1.310195
-1.3089245
-1.3076538
-1.3063829
-1.3051118
-1.3038404
-1.3025688
-1.3012969
-1.3000248
-1.2987523
-1.2974795
-1.2962064
-1.2949329
-1.2936591
-1.2923849
-1.2911102
-1.2898351
-1.2885596
-1.2872835
-1.286007
-1.2847299
-1.2834523
-1.2821741
-1.2808952
-1.2796157
-1.2783355
-1.2770546
-1.275773
-1.2744905
-1.2732073
-1.2719231
-1.2706381
-1.2693521
-1.2680651
-1.2667771
-1.265488
-1.2641978
-1.2629064
-1.2616138
-1.2603198
-1.2590246
-1.2577279
-1.2564298
-1.2551301
-1.2538289
-1.252526
-1.2512213
-1.2499149
-1.2486066
-1.2472964
-1.2459841
-1.2446697
-1.2433531
-1.2420343
-1.2407131
-1.2393894
-1.2380632
-1.2367343
-1.2354026
-1.2340681
-1.2327307
-1.2313901
-1.2300464
-1.2286994
-1.2273489
-1.2259949
-1.2246372
-1.2232757
-1.2219102
-1.2205407
-1.2191669
-1.2177888
-1.2164062
-1.2150188
-1.2136267
-1.2122296
-1.2108273
-1.2094197
-1.2080066
-1.2065878
-1.2051632
-1.2037326
-1.2022957
-1.2008524
-1.1994025
-1.1979458
-1.1964821
-1.1950111
-1.1935328
-1.1920467
-1.1905528
-1.1890507
-1.1875404
-1.1860214
-1.1844937
-1.1829569
-1.1814107
-1.1798551
-1.1782896
-1.1767141
-1.1751283
-1.1735318
-1.1719245
-1.1703061
-1.1686762
-1.1670347
-1.1653811
-1.1637153
-1.162037
-1.1603457
-1.1586414
-1.1569235
-1.1551919
-1.1534463
-1.1516862
-1.1499115
-1.1481217
-1.1463166
-1.1444959
-1.1426592
-1.1408062
-1.1389365
-1.1370499
-1.1351461
-1.1332246
-1.1312851
-1.1293274
-1.1273511
-1.1253558
-1.1233412
-1.121307
-1.1192528
-1.1171783
-1.1150832
-1.1129671
-1.1108297
-1.1086706
-1.1064896
-1.1042862
-1.1020602
-1.0998112
-1.0975389
-1.0952429
-1.092923
-1.0905788
-1.0882099
-1.0858161
-1.0833971
-1.0809525
-1.0784821
-1.0759855
-1.0734624
-1.0709125
-1.0683355
-1.0657312
-1.063099
-1.0604388
-1.0577502
-1.0550332
-1.0522875
-1.0495128
-1.0467087
-1.0438752
-1.0410119
-1.0381186
-1.035195
-1.032241
-1.0292563
-1.0262407
-1.023194
-1.0201159
-1.0170064
-1.0138652
-1.010692
-1.0074869
-1.0042495
-1.0009797
-0.99767741
-0.99434245
-0.99097468
-0.98757397
-0.98414022
-0.98067329
-0.97717309
-0.97363953
-0.9700725
-0.96647193
-0.96283777
-0.95916992
-0.95546835
-0.951733
-0.94796383
-0.94416081
-0.94032392
-0.93645315
-0.93254847
-0.92860991
-0.92463746
-0.92063114
-0.91659098
-0.91251702
-0.90840929
-0.90426783
-0.90009272
-0.89588402
-0.89164179
-0.88736612
-0.88305709
-0.87871482
-0.87433938
-0.8699309
-0.8654895
-0.8610153
-0.85650843
-0.85196903
-0.84739726
-0.84279325
-0.83815719
-0.83348922
-0.82878953
-0.82405829
-0.8192957
-0.81450195
-0.80967724
-0.80482177
-0.79993575
-0.7950194
-0.79007295
-0.78509663
-0.78009067
-0.77505531
-0.7699908
-0.76489738
-0.75977532
-0.75462487
-0.74944631
-0.7442399
-0.73900591
-0.73374465
-0.72845636
-0.72314137
-0.71779995
-0.71243241
-0.70703904
-0.70162016
-0.69617607
-0.69070708
-0.68521352
-0.6796957
-0.67415395
-0.66858859
-0.66299996
-0.6573884
-0.65175422
-0.64609779
-0.64041943
-0.6347195
-0.62899834
-0.62325631
-0.61749376
-0.61171105
-0.60590853
-0.60008656
-0.59424551
-0.58838574
-0.58250762
-0.57661153
-0.57069782
-0.56476688
-0.55881908
-0.5528548
-0.54687441
-0.5408783
-0.53486684
-0.52884042
-0.52279943
-0.51674425
-0.51067528
-0.50459288
-0.49849748
-0.49238943
-0.48626915
-0.48013703
-0.47399346
-0.46783884
-0.46167356
-0.45549803
-0.44931264
-0.4431178
-0.43691389
-0.43070133
-0.42448052
-0.41825186
-0.41201576
-0.40577262
-0.39952285
-0.39326685
-0.38700504
-0.38073781
-0.37446558
-0.36818876
-0.36190776
-0.35562299
-0.34933486
-0.34304379
-0.33675018
-0.33045444
-0.324157
-0.31785827
-0.31155866
-0.30525859
-0.29895847
-0.29265872
-0.28635976
-0.28006201
-0.27376587
-0.26747178
-0.26118015
-0.2548914
-0.24860596
-0.24232423
-0.23604665
-0.22977362
-0.22350559
-0.21724295
-0.21098615
-0.2047356
-0.19849172
-0.19225494
-0.18602568
-0.17980437
-0.17359143
-0.16738729
-0.16119236
-0.15500708
-0.14883187
-0.14266716
-0.13651338
-0.13037095
-0.12424029
-0.11812184
-0.11201602
-0.10592326
-0.099843986
-0.093778624
-0.087727601
-0.081691345
-0.075670281
-0.069664837
-0.063675439
-0.05770251
-0.051746478
-0.045807762
-0.039886783
-0.033983958
-0.0280997
-0.022234418
-0.01638852
-0.010562414
-0.0047565131
0.0010287621
0.0067929976
0.012535784
0.018256538
0.02395487
0.029630408
0.035282782
0.04091159
0.046516424
0.052096853
0.05765246
0.063182854
0.068687669
0.074166538
0.07961909
0.085044943
0.090443707
0.09581499
0.1011584
0.10647355
0.11176006
0.11701755
0.12224566
0.12744401
0.13261227
0.13775007
0.14285707
0.14793292
0.15297729
0.15798985
0.16297027
0.16791823
0.17283342
0.17771553
0.18256425
0.18737929
0.19216036
0.19690717
0.20161945
0.20629693
0.21093935
0.21554646
0.220118
0.22465373
0.22915343
0.23361688
0.23804386
0.24243416
0.2467876
0.25110399
0.25538315
0.25962491
0.26382912
0.26799564
0.27212433
0.27621506
0.28026772
0.28428221
0.28825844
0.29219632
0.29609578
0.29995678
0.30377925
0.30756317
0.31130851
0.31501527
0.31868344
0.32231304
0.3259041
0.32945665
0.33297074
0.33644644
0.33988383
0.34328299
0.34664401
0.34996703
0.35325216
0.35649954
0.35970932
0.36288166
0.36601675
0.36911477
0.37217592
0.3752004
0.37818846
0.38114032
0.38405623
0.38693645
0.38978124
0.3925909
0.39536572
0.39810599
0.40081204
0.40348418
0.40612275
0.40872809
0.41130056
0.41384051
0.41634833
0.41882439
0.42126907
0.42368278
0.42606601
0.42841915
0.43074266
0.43303678
0.43530202
0.43753879
0.43974754
0.44192869
0.44408272
0.44621006
0.44831118
0.45038654
0.45243659
0.4544618
0.45646264
0.45843958
0.46039308
0.46232363
0.46423168
0.46611771
0.46798219
0.46982559
0.47164839
0.47345103
0.475234
0.47699776
0.47874276
0.48046947
0.48217833
0.4838698
0.48554434
0.48720237
0.48884434
0.49047069
0.49208185
0.49367823
0.49526026
0.49682835
0.49838291
0.49992434
0.50145304
0.50296941
0.5044738
0.50596662
0.50744823
0.50891898
0.51037925
0.51182936
0.51326968
0.51470053
0.51612224
0.51753513
0.51893951
0.52033569
0.52172397
0.52310464
0.52447797
0.52584426
0.52720376
0.52855675
0.52990346
0.53124415
0.53257907
0.53390843
0.53523248
0.53655142
0.53786547
0.53917484
0.54047972
0.5417803
0.54307679
0.54436933
0.54565814
0.54694335
0.54822513
0.54950365
0.55077904
0.55205146
0.55332104
0.55458792
0.55585222
0.55711408
0.55837359
0.5596309
0.56088608
0.56213926
0.56339054
0.56464
0.56588775
0.56713386
0.56837843
0.56962153
0.57086324
0.57210363
0.57334278
0.57458074
0.57581758
0.57705336
0.57828815
0.57952199
0.58075493
0.58198704
0.58321833
0.58444888
0.58567872
0.58690788
0.58813642
0.58936435
0.59059172
0.59181857
0.59304491
0.59427077
0.5954962
0.5967212
0.59794582
0.59917005
0.60039394
0.60161751
0.60284076
0.60406371
0.6052864
0.60650882
0.607731
0.60895295
0.61017468
0.6113962
0.61261753
0.61383868
0.61505966
0.61628047
0.61750113
0.61872164
0.61994201
0.62116226
0.62238236
0.62360236
0.62482224
0.62604201
0.62726168
0.62848124
0.62970071
0.63092009
0.63213937
0.63335857
0.6345777
0.63579673
0.63701569
0.63823457
0.63945337
0.64067211
0.64189077
0.64310936
0.64432788
0.64554633
0.64676472
0.64798304
0.64920129
0.65041948
0.6516376
0.65285566
0.65407366
0.65529159
0.65650946
0.65772727
0.65894501
0.6601627
0.66138031
0.66259787
0.66381537
0.6650328
0.66625018
0.66746749
0.66868474
0.66990194
0.67111906
0.67233613
0.67355314
0.67477008
0.67598697
0.6772038
0.67842056
0.67963726
0.68085391
0.68207049
0.68328702
0.68450348
0.68571987
0.68693622
0.6881525
0.68936872
0.69058489
0.69180099
0.69301703
0.69423301
0.69544894
0.6966648
0.69788061
0.69909635
0.70031204
0.70152767
0.70274324
0.70395875
0.7051742
0.70638959
0.70760492
0.7088202
0.71003542
0.71125058
0.71246568
0.71368072
0.71489571
0.71611063
0.71732551
0.71854031
0.71975507
0.72096976
0.7221844
0.72339898
0.72461351
0.72582798
0.72704238
0.72825674
0.72947103
0.73068527
0.73189945
0.73311358
0.73432764
0.73554165
0.73675561
0.7379695
0.73918334
0.74039712
0.74161084
0.74282451
0.74403812
0.74525167
0.74646516
0.74767859
0.74889197
0.75010529
0.75131856
0.75253176
0.7537449
0.75495799
0.75617102
0.75738399
0.7585969
0.75980976
0.76102255
0.76223528
0.76344796
0.76466057
0.76587314
0.76708563
0.76829807
0.76951046
0.77072277
0.77193504
0.77314724
0.77435938
0.77557147
0.77678348
0.77799545
0.77920736
0.78041919
0.78163099
0.78284271
0.78405437
0.78526598
0.78647753
0.78768901
0.78890045
0.79011181
0.79132311
0.79253437
0.79374555
0.79495668
0.79616775
0.79737876
0.79858971
0.7998006
0.80101144
0.80222221
0.80343292
0.80464358
0.80585417
0.8070647
0.80827518
0.8094856
0.81069595
0.81190625
0.81311649
0.81432666
0.81553678
0.81674684
0.81795684
0.81916678
0.82037666
0.82158648
0.82279624
0.82400594
0.82521559
0.82642517
0.82763469
0.82884415
0.83005356
0.8312629
0.83247218
0.83368141
0.83489057
0.83609968
0.83730872
0.8385177
0.83972663
0.8409355
0.8421443
0.84335305
0.84456173
0.84577036
0.84697892
0.84818743
0.84939587
0.85060426
0.85181259
0.85302085
0.85422906
0.8554372
0.85664529
0.85785332
0.85906129
0.86026919
0.86147704
0.86268483
0.86389255
0.86510022
0.86630783
0.86751537
0.86872286
0.86993029
0.87113766
0.87234497
0.87355222
0.8747594
0.87596653
0.8771736
0.87838061
0.87958756
0.88079444
0.88200127
0.88320804
0.88441475
0.8856214
0.88682798
0.88803451
0.88924098
0.89044738
0.89165373
0.89286001
0.89406624
0.8952724
0.8964785
0.89768454
0.89889052
0.90009644
0.9013023
0.90250809
0.90371383
0.9049195
0.90612511
0.90733066
0.90853614
0.90974157
0.91094693
0.91215222
0.91335746
0.91456262
0.91576773
0.91697277
0.91817774
0.91938265
0.9205875
0.92179227
0.92299698
0.92420163
0.9254062
0.92661071
0.92781514
0.92901951
0.9302238
0.93142803
0.93263218
0.93383626
0.93504026
0.93624419
0.93744804
0.93865181
0.9398555
0.94105912
0.94226265
0.9434661
0.94466946
0.94587274
0.94707593
0.94827903
0.94948203
0.95068495
0.95188776
0.95309048
0.9542931
0.95549562
0.95669803
0.95790033
0.95910252
0.96030459
0.96150655
0.96270839
0.9639101
0.96511169
0.96631315
0.96751447
0.96871565
0.96991668
0.97111757
0.9723183
0.97351888
0.97471929
0.97591954
0.97711961
0.9783195
0.9795192
0.98071871
0.98191802
0.98311713
0.98431602
0.98551469
0.98671314
0.98791134
0.9891093
0.99030701
0.99150445
0.99270162
0.99389851
0.99509511
0.9962914
0.99748738
0.99868303
0.99987835
1.0010733
1.0022679
1.0034622
1.004656
1.0058494
1.0070425
1.008235
1.0094272
1.0106189
1.0118101
1.0130008
1.014191
1.0153806
1.0165697
1.0177583
1.0189462
1.0201336
1.0213203
1.0225063
1.0236917
1.0248764
1.0260604
1.0272436
1.028426
1.0296077
1.0307885
1.0319685
1.0331476
1.0343258
1.0355031
1.0366794
1.0378547
1.039029
1.0402023
1.0413744
1.0425454
1.0437153
1.044884
1.0460514
1.0472176
1.0483825
1.049546
1.0507082
1.0518689
1.0530282
1.054186
1.0553422
1.0564968
1.0576499
1.0588012
1.0599508
1.0610987
1.0622447
1.0633889
1.0645312
1.0656715
1.0668097
1.067946
1.0690801
1.070212
1.0713418
1.0724692
1.0735943
1.0747171
1.0758374
1.0769551
1.0780704
1.079183
1.0802929
1.0814001
1.0825045
1.0836061
1.0847047
1.0858003
1.0868929
1.0879824
1.0890687
1.0901518
1.0912315
1.0923079
1.0933808
1.0944503
1.0955161
1.0965784
1.0976369
1.0986916
1.0997425
1.1007895
1.1018325
1.1028714
1.1039062
1.1049368
1.1059632
1.1069852
1.1080028
1.1090159
1.1100245
1.1110285
1.1120278
1.1130223
1.114012
1.1149968
1.1159766
1.1169514
1.1179211
1.1188856
1.1198448
1.1207988
1.1217473
1.1226905
1.1236281
1.1245601
1.1254865
1.1264071
1.127322
1.128231
1.1291342
1.1300313
1.1309225
1.1318075
1.1326864
1.1335591
1.1344256
1.1352857
1.1361394
1.1369866
1.1378274
1.1386617
1.1394893
1.1403103
1.1411246
1.1419322
1.1427329
1.1435269
1.1443139
1.1450941
1.1458673
1.1466335
1.1473926
1.1481447
1.1488896
1.1496274
1.150358
1.1510815
1.1517976
1.1525065
1.1532082
1.1539025
1.1545894
1.155269
1.1559413
1.1566061
1.1572635
1.1579135
1.1585561
1.1591912
1.1598189
1.1604391
1.1610518
1.1616571
1.1622549
1.1628452
1.1634281
1.1640035
1.1645715
1.165132
1.1656851
1.1662307
1.166769
1.1672998
1.1678233
1.1683394
1.1688481
1.1693495
1.1698437
1.1703305
1.1708102
1.1712826
1.1717478
1.1722059
1.1726569
1.1731008
1.1735376
1.1739674
1.1743903
1.1748062
1.1752153
1.1756175
1.1760129
1.1764016
1.1767836
1.1771589
1.1775276
1.1778898
1.1782455
1.1785948
1.1789376
1.1792742
1.1796045
1.1799285
1.1802464
1.1805582
1.180864
1.1811638
1.1814577
1.1817458
1.1820281
1.1823046
1.1825756
1.1828409
1.1831007
1.1833551
1.1836041
1.1838478
1.1840862
1.1843195
1.1845477
1.1847708
1.184989
1.1852023
1.1854107
1.1856144
1.1858134
1.1860078
1.1861976
1.186383
1.186564
1.1867407
1.1869131
1.1870813
1.1872454
1.1874054
1.1875615
1.1877136
1.1878619
1.1880065
1.1881473
1.1882845
1.1884182
1.1885483
1.188675
1.1887983
1.1889184
1.1890352
1.1891488
1.1892594
1.1893669
1.1894714
1.189573
1.1896717
1.1897677
1.1898609
1.1899514
1.1900394
1.1901247
1.1902076
1.1902881
1.1903661
1.1904419
1.1905153
1.1905866
1.1906557
1.1907226
1.1907876
1.1908505
1.1909114
1.1909704
1.1910276
1.1910829
1.1911365
1.1911884
1.1912386
1.1912872
1.1913341
1.1913796
1.1914235
1.1914659
1.191507
1.1915466
1.191585
1.191622
1.1916577
1.1916923
1.1917256
1.1917577
1.1917888
1.1918187
1.1918476
1.1918755
1.1919024
1.1919283
1.1919532
1.1919773
1.1920005
1.1920228
1.1920443
1.192065
1.1920849
1.1921041
1.1921226
1.1921404
1.1921575
1.1921739
1.1921897
1.1922049
1.1922195
1.1922336
1.1922471
1.19226
1.1922725
1.1922844
1.1922959
1.1923069
1.1923175
1.1923276
1.1923374
1.1923467
1.1923556
1.1923642
1.1923725
1.1923803
1.1923879
1.1923951
1.1924021
1.1924087
1.1924151
1.1924212
1.192427
1.1924326
1.1924379
1.1924431
1.1924479
1.1924526
1.1924571
1.1924613
1.1924654
1.1924693
1.192473
1.1924766
1.19248
1.1924832
1.1924863
1.1924893
1.1924921
1.1924948
1.1924974
1.1924999
1.1925022
1.1925044
1.1925065
1.1925086
1.1925105
1.1925123
1.1925141
1.1925157
1.1925173
1.1925188
1.1925203
1.1925216
1.1925229
1.1925242
1.1925254
1.1925265
1.1925276
1.1925286
1.1925295
1.1925304
1.1925313
1.1925321
1.1925329
1.1925337
1.1925344
1.192535
1.1925357
1.1925363
1.1925369
1.1925374
1.1925379
1.1925384
1.1925389
1.1925393
1.1925397
1.1925401
1.1925405
1.1925409
1.1925412
1.1925415
1.1925418
1.1925421
1.1925424
1.1925426
1.1925428
1.1925431
1.1925433
1.1925435
1.1925437
1.1925438
1.192544
1.1925442
1.1925443
1.1925445
1.1925446
1.1925447
1.1925448
1.1925449
1.192545
1.1925451
1.1925452
1.1925453
1.1925454
1.1925454
1.1925455
1.1925455
1.1925456
1.1925457
1.1925457
1.1925457
1.1925458
1.1925458
1.1925458
1.1925459
1.1925459
1.1925459
1.1925459
1.1925459
1.1925459
1.1925459
1.1925459
1.1925459
1.1925459
1.1925458
1.1925458
1.1925458
1.1925458
1.1925457
1.1925457
1.1925456
1.1925456
1.1925456
1.1925455
1.1925455
1.1925454
1.1925453
1.1925453
1.1925452
1.1925451
1.192545
1.192545
1.1925449
1.1925448
1.1925447
1.1925446
1.1925445
1.1925444
1.1925443
1.1925442
1.1925441
1.192544
1.1925438
1.1925437
1.1925436
1.1925434
1.1925433
1.1925432
1.192543
1.1925429
1.1925427
1.1925426
1.1925424
1.1925422
1.1925421
1.1925419
1.1925417
1.1925416
1.1925414
1.1925412
1.192541
1.1925408
1.1925406
1.1925404
1.1925402
1.19254
1.1925398
1.1925396
1.1925394
1.1925392
1.192539
1.1925388
1.1925385
1.1925383
1.1925381
1.1925378
1.1925376
1.1925374
1.1925372
1.1925369
1.1925367
1.1925364
1.1925362
1.1925359
1.1925357
1.1925354
1.1925351
1.1925349
1.1925346
1.1925344
1.1925341
1.1925339
1.1925336
1.1925334
1.1925331
1.1925329
1.1925326
1.1925323
1.1925321
1.1925318
1.1925315
1.1925313
1.192531
1.1925307
1.1925304
1.1925302
1.1925299
1.1925296
1.1925293
1.1925291
1.1925288
1.1925285
1.1925283
1.192528
1.1925277
1.1925274
1.1925272
1.1925269
1.1925266
1.1925263
1.1925261
1.1925258
1.1925255
1.1925252
1.1925249
1.1925247
1.1925244
1.1925241
1.1925238
1.1925236
1.1925233
1.192523
1.1925227
1.1925224
1.1925222
1.1925219
1.1925216
1.1925213
1.1925211
1.1925208
1.1925205
1.1925202
1.19252
1.1925197
1.1925194
1.1925192
1.1925189
1.1925186
1.1925184
1.1925181
1.1925178
1.1925176
1.1925173
1.192517
1.1925168
1.1925165
1.1925163
1.192516
1.1925157
1.1925155
1.1925152
1.192515
1.1925147
1.1925145
1.1925142
1.192514
1.1925138
1.1925135
1.1925133
1.192513
1.1925128
1.1925126
1.1925123
1.1925121
1.1925119
1.1925117
1.1925114
1.1925112
1.192511
1.1925108
1.1925106
1.1925103
1.1925101
1.1925099
1.1925098
1.1925096
1.1925094
1.1925092
1.192509
1.1925088
1.1925086
1.1925084
1.1925083
1.1925081
1.1925079
1.1925078
1.1925076
1.1925075
1.1925073
1.1925072
1.192507
1.1925069
1.1925068
1.1925067
1.1925065
1.1925064
1.1925063
1.1925062
1.1925061
1.192506
1.1925059
1.1925058
1.1925057
1.1925056
1.1925055
1.1925054
1.1925053
1.1925052
1.1925051
1.192505
1.192505
1.1925049
1.1925048
1.1925048
1.1925047
1.1925047
1.1925046
1.1925045
1.1925045
1.1925044
1.1925043
1.1925043
1.1925042
1.1925041
1.1925041
1.192504
1.1925039
1.1925039
1.1925038
1.1925037
1.1925037
1.1925036
1.1925036
1.1925035
1.1925035
1.1925034
1.1925033
1.1925033
1.1925032
1.1925032
1.1925031
1.192503
1.192503
1.1925029
1.1925028
1.1925028
1.1925027
1.1925026
1.1925026
1.1925025
1.1925024
1.1925024
1.1925023
1.1925023
1.1925022
1.1925022
1.1925021
1.192502
1.192502
1.1925019
1.1925019
1.1925018
1.1925018
1.1925017
1.1925017
1.1925016
1.1925016
1.1925015
1.1925015
1.1925014
1.1925014
1.1925013
1.1925013
1.1925012
1.1925012
1.1925011
1.1925011
1.192501
1.192501
1.1925009
1.1925009
1.1925008
1.1925008
1.1925007
1.1925006
1.1925006
1.1925005
1.1925005
1.1925004
1.1925004
1.1925003
1.1925002
1.1925001
1.1925001
1.1925
1.1924999
1.1924998
1.1924997
1.1924996
1.1924996
1.1924995
1.1924994
1.1924993
1.1924992
1.1924991
1.192499
1.1924989
1.1924988
1.1924987
1.1924986
1.1924985
1.1924984
1.1924983
1.1924982
1.192498
1.1924979
1.1924978
1.1924977
1.1924975
1.1924974
1.1924973
1.1924971
1.192497
1.1924968
1.1924967
1.1924965
1.1924964
1.1924963
1.1924961
1.192496
1.1924959
1.1924957
1.1924956
1.1924954
1.1924952
1.1924951
1.1924949
1.1924948
1.1924946
1.1924945
1.1924943
1.1924942
1.192494
1.1924939
1.1924937
1.1924935
1.1924934
1.1924932
1.1924931
1.1924929
1.1924927
1.1924926
1.1924924
1.1924923
1.1924922
1.192492
1.1924918
1.1924917
1.1924915
1.1924914
1.1924912
1.1924911
1.1924909
1.1924908
1.1924906
1.1924905
1.1924903
1.1924902
1.19249
1.1924899
1.1924897
1.1924896
1.1924895
1.1924893
1.1924892
1.192489
1.1924889
1.1924887
1.1924886
1.1924885
1.1924883
1.1924882
1.192488
1.1924879
1.1924877
1.1924876
1.1924874
1.1924873
1.1924872
1.192487
1.1924869
1.1924867
1.1924866
1.1924865
1.1924863
1.1924862
1.1924861
1.1924859
1.1924858
1.1924856
1.1924855
1.1924853
1.1924852
1.1924851
1.1924849
1.1924848
1.1924846
1.1924845
1.1924844
1.1924842
1.1924841
1.192484
1.1924838
1.1924837
1.1924836
1.1924834
1.1924833
1.1924831
1.192483
1.1924829
1.1924827
1.1924826
1.1924824
1.1924823
1.1924821
1.192482
1.1924818
1.1924817
1.1924815
1.1924813
1.1924812
1.192481
1.1924809
1.1924807
1.1924805
1.1924804
1.1924802
1.1924801
1.1924799
1.1924798
1.1924797
1.1924795
1.1924794
1.1924792
1.1924791
1.1924789
1.1924787
1.1924786
1.1924784
1.1924782
1.1924781
1.1924779
1.1924777
1.1924776
1.1924774
1.1924772
1.1924771
1.1924769
1.1924767
1.1924765
1.1924763
1.1924762
1.192476
1.1924758
1.1924756
1.1924754
1.1924752
1.192475
1.1924748
1.1924746
1.1924744
1.1924743
1.1924741
1.1924739
1.1924737
1.1924735
1.1924733
1.1924731
1.1924729
1.1924727
1.1924725
1.1924723
1.192472
1.1924718
1.1924716
1.1924714
1.1924712
1.192471
1.1924708
1.1924706
1.1924704
1.1924701
1.1924699
1.1924697
1.1924695
1.1924692
1.192469
1.1924687
1.1924685
1.1924683
1.192468
1.1924678
1.1924675
1.1924673
1.1924671
1.1924668
1.1924666
1.1924663
1.1924661
1.1924658
1.1924656
1.1924653
1.192465
1.1924648
1.1924645
1.1924643
1.192464
1.1924637
1.1924634
1.1924632
1.1924629
1.1924626
1.1924623
1.192462
1.1924617
1.1924614
1.1924611
1.1924608
1.1924605
1.1924602
1.1924599
1.1924596
1.1924592
1.1924589
1.1924586
1.1924582
1.1924579
1.1924575
1.1924572
1.1924569
1.1924565
1.1924562
1.1924558
1.1924554
1.1924551
1.1924547
1.1924543
1.1924539
1.1924535
1.1924531
1.1924528
1.1924524
1.192452
1.1924516
1.1924512
1.1924508
1.1924504
1.1924499
1.1924495
1.1924491
1.1924487
1.1924482
1.1924478
1.1924474
1.1924469
1.1924464
1.1924459
1.1924454
1.1924449
1.1924444
1.1924439
1.1924434
1.1924429
1.1924424
1.1924419
1.1924414
1.1924409
1.1924404
1.1924398
1.1924393
1.1924388
1.1924383
1.1924378
1.1924372
1.1924367
1.1924362
1.1924356
1.1924351
1.1924346
1.1924341
1.1924336
1.1924331
1.1924327
1.1924322
1.1924319
1.1924315
1.1924311
1.1924308
1.1924305
1.1924303
1.1924301
1.1924299
1.1924297
1.1924296
1.1924295
1.1924294
1.1924294
1.1924294
1.1924293
1.1924294
1.1924295
1.1924297
1.1924299
1.1924301
1.1924302
1.1924303
1.1924304
1.1924304
1.1924304
1.1924303
1.1924302
1.1924301
1.19243
1.1924297
1.1924291
1.1924283
1.1924274
1.1924265
1.1924255
1.1924246
1.1924235
1.1924225
1.1924213
1.1924201
1.1924188
1.1924175
1.192416
1.1924145
1.1924129
1.1924115
1.1924102
1.1924091
1.1924083
1.1924077
1.1924075
1.1924074
1.1924074
1.1924073
1.1924071
1.1924066
1.1924057
1.1924045
1.1924031
1.1924016
1.1924001
1.1923988
1.1923981
1.1923977
1.1923972
1.1923948
1.1923861
1.1923595
1.1922852
1.1920849
1.1915512
1.1901376
1.1865306
1.1818685
1.1766415
1.1711287
1.165583
1.1602284
1.1552425
1.1507495
1.1468194
1.1434749
1.1407003
1.1384531
1.1366737
1.1352947
1.1342478
1.1334687
1.1329
1.1324926
1.1322064
1.1320092
1.1318761
1.1317883
1.1317321
1.1316975
1.1316773
1.1316666
1.1316618
1.1316604
1.1316602
1.1316618
1.1316674
1.131673
1.131678
1.1316824
1.1316863
1.1316897
1.1316927
1.1316953
1.1316976
1.1316997
1.1317017
1.1317034
1.1317051
1.1317067
1.1317082
1.1317097
1.1317111
1.1317124
1.1317137
1.131715
1.1317162
1.1317174
1.1317185
1.1317197
1.1317209
1.1317221
1.1317234
1.1317248
1.1317262
1.1317278
1.1317294
1.1317311
1.131733
1.1317349
1.1317368
1.1317388
1.1317408
1.1317428
1.1317447
1.1317467
1.1317485
1.1317503
1.131752
1.1317537
1.1317553
1.1317568
1.1317582
1.1317595
1.1317608
1.131762
1.1317631
1.1317641
1.1317651
1.1317661
1.1317669
1.1317677
1.1317685
1.1317693
1.13177
1.1317707
1.1317713
1.131772
1.1317726
1.1317732
1.1317738
1.1317744
1.1317749
1.1317754
1.131776
1.1317765
1.131777
1.1317775
1.1317779
1.1317784
1.1317788
1.1317793
1.1317797
1.1317801
1.1317805
1.1317809
1.1317813
1.1317817
1.1317821
1.1317825
1.1317829
1.1317833
1.1317836
1.131784
1.1317843
1.1317847
1.131785
1.1317854
1.1317857
1.131786
1.1317863
1.1317866
1.1317869
1.1317872
1.1317875
1.1317878
1.131788
1.1317883
1.1317886
1.1317889
1.1317892
1.1317894
1.1317897
1.13179
1.1317902
1.1317905
1.1317907
1.131791
1.1317912
1.1317914
1.1317917
1.1317919
1.1317921
1.1317923
1.1317925
1.1317927
1.1317929
1.1317931
1.1317933
1.1317935
1.1317937
1.1317939
1.1317941
1.1317943
1.1317945
1.1317946
1.1317948
1.131795
1.1317952
1.1317953
1.1317955
1.1317957
1.1317958
1.131796
1.1317961
1.1317963
1.1317964
1.1317966
1.1317967
1.1317969
1.131797
1.1317971
1.1317973
1.1317974
1.1317975
1.1317977
1.1317978
1.1317979
1.131798
1.1317982
1.1317983