/*--------------------------------*- C++ -*----------------------------------*\
  =========                 |
  \\      /  F ield         | OpenFOAM: The Open Source CFD Toolbox
   \\    /   O peration     | Website:  https://openfoam.org
    \\  /    A nd           | Version:  7
     \\/     M anipulation  |
\*---------------------------------------------------------------------------*/
FoamFile
{
    version     2.0;
    format      ascii;
    class       volScalarField;
    location    "0.00175";
    object      p;
}
// * * * * * * * * * * * * * * * * * * * * * * * * * * * * * * * * * * * * * //

dimensions      [1 -1 -2 0 0 0 0];

internalField   nonuniform List<scalar> 
5000
(
80956.103
80965.321
80974.758
80984.237
80993.74
81003.255
81012.778
81022.306
81031.836
81041.368
81050.9
81060.432
81069.965
81079.498
81089.03
81098.563
81108.096
81117.628
81127.161
81136.693
81146.224
81155.756
81165.287
81174.817
81184.346
81193.875
81203.403
81212.93
81222.457
81231.983
81241.508
81251.033
81260.556
81270.079
81279.602
81289.123
81298.644
81308.163
81317.682
81327.201
81336.718
81346.235
81355.75
81365.266
81374.78
81384.293
81393.806
81403.318
81412.83
81422.34
81431.85
81441.359
81450.867
81460.374
81469.881
81479.387
81488.892
81498.396
81507.9
81517.403
81526.905
81536.406
81545.907
81555.406
81564.905
81574.404
81583.901
81593.398
81602.894
81612.389
81621.883
81631.377
81640.87
81650.362
81659.854
81669.344
81678.834
81688.323
81697.812
81707.299
81716.786
81726.273
81735.758
81745.243
81754.727
81764.21
81773.693
81783.174
81792.655
81802.136
81811.615
81821.094
81830.572
81840.05
81849.526
81859.002
81868.478
81877.952
81887.426
81896.899
81906.371
81915.843
81925.314
81934.784
81944.254
81953.722
81963.19
81972.658
81982.124
81991.59
82001.055
82010.52
82019.983
82029.446
82038.909
82048.37
82057.831
82067.292
82076.751
82086.21
82095.668
82105.126
82114.583
82124.039
82133.494
82142.949
82152.403
82161.856
82171.309
82180.761
82190.212
82199.662
82209.111
82218.56
82228.007
82237.454
82246.899
82256.343
82265.787
82275.229
82284.67
82294.11
82303.549
82312.987
82322.424
82331.861
82341.296
82350.731
82360.166
82369.6
82379.034
82388.468
82397.902
82407.336
82416.771
82426.206
82435.641
82445.077
82454.513
82463.95
82473.387
82482.824
82492.262
82501.7
82511.138
82520.577
82530.015
82539.453
82548.891
82558.329
82567.766
82577.203
82586.64
82596.075
82605.511
82614.945
82624.379
82633.811
82643.243
82652.674
82662.104
82671.533
82680.961
82690.387
82699.813
82709.237
82718.66
82728.082
82737.502
82746.922
82756.339
82765.756
82775.171
82784.584
82793.996
82803.406
82812.815
82822.222
82831.627
82841.031
82850.432
82859.832
82869.23
82878.626
82888.02
82897.412
82906.801
82916.189
82925.574
82934.956
82944.337
82953.715
82963.09
82972.463
82981.833
82991.201
83000.566
83009.928
83019.287
83028.643
83037.996
83047.346
83056.693
83066.036
83075.377
83084.714
83094.047
83103.377
83112.704
83122.026
83131.345
83140.661
83149.972
83159.28
83168.583
83177.882
83187.178
83196.469
83205.755
83215.037
83224.315
83233.588
83242.857
83252.121
83261.38
83270.634
83279.883
83289.128
83298.367
83307.602
83316.831
83326.055
83335.273
83344.487
83353.694
83362.897
83372.094
83381.285
83390.471
83399.651
83408.825
83417.994
83427.156
83436.313
83445.464
83454.609
83463.748
83472.88
83482.007
83491.127
83500.241
83509.349
83518.451
83527.546
83536.635
83545.718
83554.794
83563.863
83572.926
83581.982
83591.032
83600.075
83609.111
83618.141
83627.164
83636.18
83645.189
83654.191
83663.186
83672.174
83681.155
83690.129
83699.096
83708.055
83717.008
83725.953
83734.89
83743.821
83752.744
83761.659
83770.568
83779.469
83788.362
83797.248
83806.127
83814.998
83823.862
83832.718
83841.567
83850.409
83859.243
83868.07
83876.89
83885.703
83894.509
83903.307
83912.099
83920.883
83929.661
83938.431
83947.195
83955.952
83964.703
83973.446
83982.184
83990.914
83999.639
84008.356
84017.068
84025.773
84034.472
84043.165
84051.852
84060.532
84069.207
84077.876
84086.539
84095.196
84103.848
84112.493
84121.134
84129.768
84138.397
84147.02
84155.639
84164.251
84172.859
84181.461
84190.058
84198.65
84207.237
84215.819
84224.396
84232.968
84241.535
84250.097
84258.655
84267.208
84275.757
84284.301
84292.84
84301.375
84309.906
84318.433
84326.955
84335.473
84343.987
84352.497
84361.002
84369.504
84378.002
84386.497
84394.987
84403.474
84411.957
84420.437
84428.913
84437.386
84445.855
84454.321
84462.784
84471.243
84479.7
84488.153
84496.603
84505.051
84513.495
84521.937
84530.376
84538.812
84547.246
84555.677
84564.105
84572.532
84580.955
84589.377
84597.796
84606.213
84614.628
84623.041
84631.452
84639.861
84648.268
84656.673
84665.077
84673.479
84681.88
84690.279
84698.676
84707.072
84715.467
84723.861
84732.253
84740.644
84749.035
84757.424
84765.812
84774.2
84782.586
84790.972
84799.357
84807.742
84816.126
84824.509
84832.892
84841.274
84849.656
84858.038
84866.419
84874.8
84883.181
84891.561
84899.942
84908.322
84916.702
84925.082
84933.462
84941.842
84950.222
84958.602
84966.982
84975.363
84983.743
84992.124
85000.505
85008.886
85017.268
85025.65
85034.033
85042.417
85050.801
85059.186
85067.571
85075.958
85084.346
85092.735
85101.125
85109.517
85117.91
85126.305
85134.701
85143.099
85151.499
85159.902
85168.306
85176.713
85185.123
85193.535
85201.95
85210.368
85218.789
85227.213
85235.64
85244.071
85252.506
85260.944
85269.386
85277.833
85286.283
85294.738
85303.197
85311.661
85320.129
85328.602
85337.081
85345.564
85354.052
85362.546
85371.045
85379.55
85388.06
85396.576
85405.098
85413.626
85422.159
85430.7
85439.246
85447.799
85456.358
85464.924
85473.497
85482.076
85490.662
85499.256
85507.856
85516.464
85525.078
85533.701
85542.33
85550.967
85559.612
85568.264
85576.925
85585.593
85594.268
85602.952
85611.644
85620.344
85629.052
85637.769
85646.494
85655.227
85663.968
85672.718
85681.476
85690.244
85699.019
85707.803
85716.597
85725.398
85734.209
85743.028
85751.857
85760.694
85769.54
85778.395
85787.26
85796.133
85805.015
85813.907
85822.807
85831.717
85840.636
85849.565
85858.502
85867.449
85876.405
85885.371
85894.345
85903.329
85912.323
85921.326
85930.338
85939.36
85948.391
85957.431
85966.481
85975.54
85984.609
85993.686
86002.774
86011.87
86020.976
86030.092
86039.216
86048.35
86057.494
86066.646
86075.808
86084.978
86094.158
86103.347
86112.546
86121.753
86130.969
86140.194
86149.427
86158.67
86167.921
86177.181
86186.45
86195.727
86205.012
86214.306
86223.608
86232.918
86242.236
86251.563
86260.897
86270.239
86279.589
86288.946
86298.311
86307.683
86317.063
86326.449
86335.843
86345.244
86354.651
86364.066
86373.486
86382.914
86392.347
86401.787
86411.233
86420.685
86430.143
86439.607
86449.076
86458.551
86468.031
86477.517
86487.008
86496.503
86506.004
86515.51
86525.02
86534.535
86544.055
86553.579
86563.107
86572.64
86582.177
86591.717
86601.262
86610.811
86620.364
86629.92
86639.48
86649.043
86658.61
86668.18
86677.754
86687.331
86696.911
86706.494
86716.08
86725.669
86735.262
86744.856
86754.454
86764.054
86773.657
86783.262
86792.87
86802.481
86812.093
86821.708
86831.325
86840.944
86850.565
86860.188
86869.813
86879.44
86889.068
86898.699
86908.33
86917.964
86927.599
86937.235
86946.872
86956.511
86966.151
86975.792
86985.435
86995.078
87004.722
87014.367
87024.013
87033.66
87043.307
87052.955
87062.604
87072.253
87081.903
87091.554
87101.204
87110.856
87120.507
87130.16
87139.812
87149.465
87159.118
87168.771
87178.425
87188.078
87197.732
87207.387
87217.041
87226.696
87236.351
87246.006
87255.661
87265.316
87274.971
87284.627
87294.283
87303.939
87313.595
87323.251
87332.908
87342.564
87352.221
87361.878
87371.535
87381.192
87390.849
87400.506
87410.163
87419.821
87429.479
87439.136
87448.794
87458.452
87468.11
87477.767
87487.425
87497.083
87506.741
87516.399
87526.057
87535.715
87545.372
87555.03
87564.687
87574.345
87584.002
87593.659
87603.316
87612.972
87622.629
87632.285
87641.941
87651.597
87661.253
87670.908
87680.563
87690.218
87699.872
87709.527
87719.181
87728.834
87738.488
87748.141
87757.794
87767.446
87777.098
87786.75
87796.402
87806.053
87815.705
87825.356
87835.006
87844.657
87854.307
87863.957
87873.607
87883.257
87892.907
87902.556
87912.205
87921.854
87931.503
87941.152
87950.801
87960.45
87970.098
87979.747
87989.395
87999.043
88008.691
88018.34
88027.988
88037.636
88047.283
88056.931
88066.579
88076.227
88085.874
88095.521
88105.169
88114.816
88124.463
88134.109
88143.756
88153.402
88163.049
88172.695
88182.34
88191.986
88201.631
88211.276
88220.921
88230.565
88240.209
88249.853
88259.496
88269.139
88278.781
88288.423
88298.065
88307.706
88317.347
88326.987
88336.627
88346.266
88355.905
88365.543
88375.181
88384.818
88394.455
88404.091
88413.727
88423.362
88432.997
88442.631
88452.265
88461.898
88471.531
88481.164
88490.796
88500.427
88510.058
88519.689
88529.319
88538.949
88548.579
88558.208
88567.837
88577.466
88587.094
88596.722
88606.35
88615.978
88625.605
88635.232
88644.859
88654.486
88664.113
88673.739
88683.365
88692.992
88702.618
88712.244
88721.87
88731.496
88741.122
88750.748
88760.373
88769.999
88779.624
88789.25
88798.875
88808.501
88818.126
88827.752
88837.377
88847.002
88856.627
88866.252
88875.877
88885.502
88895.126
88904.75
88914.374
88923.998
88933.623
88943.247
88952.872
88962.495
88972.117
88981.74
88991.362
89000.985
89010.609
89020.232
89029.854
89039.476
89049.096
89058.716
89068.337
89077.957
89087.578
89097.199
89106.819
89116.44
89126.06
89135.681
89145.302
89154.922
89164.541
89174.16
89183.778
89193.395
89203.011
89212.628
89222.246
89231.863
89241.481
89251.098
89260.714
89270.33
89279.946
89289.562
89299.178
89308.793
89318.409
89328.025
89337.64
89347.255
89356.87
89366.486
89376.101
89385.716
89395.331
89404.946
89414.56
89424.175
89433.79
89443.406
89453.021
89462.636
89472.251
89481.865
89491.479
89501.094
89510.708
89520.323
89529.937
89539.552
89549.166
89558.781
89568.395
89578.009
89587.622
89597.234
89606.847
89616.461
89626.074
89635.686
89645.298
89654.91
89664.521
89674.134
89683.747
89693.359
89702.97
89712.581
89722.191
89731.802
89741.414
89751.026
89760.637
89770.247
89779.856
89789.465
89799.075
89808.685
89818.295
89827.905
89837.514
89847.124
89856.733
89866.342
89875.951
89885.56
89895.168
89904.777
89914.385
89923.994
89933.603
89943.211
89952.819
89962.426
89972.033
89981.641
89991.25
90000.858
90010.466
90020.073
90029.68
90039.287
90048.894
90058.501
90068.108
90077.717
90087.325
90096.933
90106.541
90116.148
90125.755
90135.361
90144.967
90154.573
90164.179
90173.785
90183.391
90192.998
90202.604
90212.211
90221.816
90231.422
90241.026
90250.631
90260.235
90269.84
90279.444
90289.048
90298.652
90308.256
90317.859
90327.461
90337.063
90346.664
90356.265
90365.866
90375.468
90385.07
90394.671
90404.272
90413.871
90423.469
90433.067
90442.665
90452.264
90461.862
90471.461
90481.059
90490.657
90500.254
90509.85
90519.445
90529.04
90538.634
90548.229
90557.824
90567.419
90577.014
90586.608
90596.202
90605.795
90615.388
90624.98
90634.572
90644.165
90653.758
90663.352
90672.945
90682.537
90692.129
90701.719
90711.31
90720.901
90730.492
90740.084
90749.676
90759.267
90768.859
90778.45
90788.041
90797.632
90807.222
90816.812
90826.403
90835.994
90845.584
90855.175
90864.765
90874.356
90883.946
90893.537
90903.128
90912.718
90922.308
90931.898
90941.488
90951.079
90960.67
90970.261
90979.851
90989.44
90999.029
91008.619
91018.209
91027.8
91037.391
91046.982
91056.573
91066.163
91075.753
91085.342
91094.932
91104.521
91114.11
91123.699
91133.288
91142.877
91152.465
91162.055
91171.644
91181.234
91190.823
91200.411
91209.999
91219.587
91229.176
91238.765
91248.355
91257.944
91267.534
91277.123
91286.712
91296.3
91305.888
91315.476
91325.064
91334.653
91344.241
91353.829
91363.416
91373.005
91382.593
91392.182
91401.771
91411.36
91420.947
91430.535
91440.123
91449.712
91459.301
91468.89
91478.479
91488.069
91497.658
91507.248
91516.836
91526.425
91536.012
91545.599
91555.187
91564.776
91574.365
91583.955
91593.545
91603.134
91612.723
91622.312
91631.9
91641.487
91651.074
91660.662
91670.249
91679.836
91689.422
91699.009
91708.596
91718.183
91727.769
91737.355
91746.941
91756.527
91766.113
91775.698
91785.283
91794.868
91804.452
91814.036
91823.619
91833.203
91842.786
91852.368
91861.951
91871.533
91881.114
91890.695
91900.276
91909.856
91919.435
91929.014
91938.593
91948.171
91957.748
91967.325
91976.902
91986.478
91996.053
92005.628
92015.202
92024.777
92034.35
92043.922
92053.494
92063.065
92072.637
92082.208
92091.778
92101.348
92110.916
92120.483
92130.051
92139.618
92149.186
92158.753
92168.319
92177.884
92187.449
92197.013
92206.576
92216.139
92225.701
92235.263
92244.824
92254.384
92263.944
92273.505
92283.066
92292.626
92302.185
92311.744
92321.302
92330.86
92340.418
92349.975
92359.532
92369.088
92378.643
92388.199
92397.755
92407.311
92416.867
92426.423
92435.978
92445.533
92455.087
92464.642
92474.196
92483.75
92493.303
92502.856
92512.409
92521.962
92531.516
92541.071
92550.625
92560.178
92569.731
92579.284
92588.837
92598.39
92607.943
92617.495
92627.047
92636.598
92646.151
92655.704
92665.257
92674.811
92684.364
92693.916
92703.468
92713.02
92722.573
92732.125
92741.677
92751.228
92760.779
92770.331
92779.882
92789.435
92798.988
92808.54
92818.092
92827.643
92837.193
92846.743
92856.294
92865.846
92875.397
92884.948
92894.497
92904.047
92913.596
92923.145
92932.695
92942.245
92951.794
92961.342
92970.89
92980.437
92989.984
92999.531
93009.079
93018.626
93028.172
93037.717
93047.262
93056.806
93066.351
93075.896
93085.44
93094.984
93104.527
93114.068
93123.609
93133.151
93142.692
93152.232
93161.773
93171.312
93180.85
93190.388
93199.925
93209.462
93218.999
93228.535
93238.071
93247.605
93257.138
93266.671
93276.204
93285.737
93295.269
93304.8
93314.331
93323.86
93333.388
93342.916
93352.443
93361.971
93371.498
93381.023
93390.548
93400.071
93409.594
93419.117
93428.64
93438.161
93447.682
93457.202
93466.721
93476.239
93485.757
93495.274
93504.79
93514.306
93523.821
93533.335
93542.848
93552.361
93561.873
93571.384
93580.895
93590.404
93599.913
93609.422
93618.929
93628.437
93637.943
93647.448
93656.953
93666.457
93675.961
93685.464
93694.965
93704.467
93713.968
93723.468
93732.967
93742.466
93751.964
93761.462
93770.959
93780.456
93789.951
93799.445
93808.94
93818.435
93827.928
93837.421
93846.913
93856.404
93865.896
93875.387
93884.877
93894.366
93903.855
93913.344
93922.832
93932.32
93941.807
93951.294
93960.78
93970.266
93979.752
93989.237
93998.722
94008.206
94017.69
94027.174
94036.658
94046.141
94055.624
94065.107
94074.589
94084.071
94093.553
94103.035
94112.516
94121.997
94131.479
94140.959
94150.44
94159.92
94169.401
94178.881
94188.361
94197.841
94207.321
94216.8
94226.28
94235.759
94245.238
94254.718
94264.197
94273.676
94283.155
94292.633
94302.112
94311.591
94321.07
94330.548
94340.026
94349.505
94358.983
94368.462
94377.94
94387.418
94396.896
94406.374
94415.851
94425.329
94434.806
94444.284
94453.761
94463.238
94472.715
94482.192
94491.668
94501.145
94510.621
94520.098
94529.574
94539.05
94548.526
94558.001
94567.477
94576.952
94586.427
94595.901
94605.376
94614.85
94624.324
94633.798
94643.271
94652.744
94662.217
94671.69
94681.162
94690.634
94700.105
94709.576
94719.047
94728.517
94737.987
94747.457
94756.926
94766.395
94775.863
94785.331
94794.798
94804.265
94813.732
94823.198
94832.663
94842.128
94851.593
94861.057
94870.521
94879.984
94889.446
94898.907
94908.368
94917.829
94927.289
94936.748
94946.207
94955.665
94965.123
94974.581
94984.037
94993.494
95002.949
95012.403
95021.857
95031.31
95040.763
95050.215
95059.666
95069.117
95078.567
95088.017
95097.466
95106.914
95116.361
95125.809
95135.255
95144.701
95154.146
95163.591
95173.034
95182.477
95191.919
95201.361
95210.802
95220.243
95229.682
95239.122
95248.56
95257.998
95267.436
95276.873
95286.309
95295.744
95305.179
95314.614
95324.048
95333.482
95342.914
95352.346
95361.778
95371.209
95380.639
95390.069
95399.499
95408.928
95418.356
95427.784
95437.212
95446.639
95456.065
95465.492
95474.917
95484.343
95493.768
95503.192
95512.616
95522.04
95531.463
95540.886
95550.309
95559.731
95569.153
95578.574
95587.996
95597.417
95606.837
95616.258
95625.678
95635.098
95644.517
95653.937
95663.356
95672.775
95682.193
95691.612
95701.03
95710.448
95719.866
95729.283
95738.701
95748.118
95757.535
95766.952
95776.369
95785.785
95795.202
95804.618
95814.035
95823.451
95832.867
95842.282
95851.698
95861.114
95870.529
95879.945
95889.36
95898.775
95908.19
95917.605
95927.02
95936.435
95945.849
95955.264
95964.678
95974.092
95983.507
95992.921
96002.334
96011.748
96021.162
96030.575
96039.989
96049.402
96058.815
96068.228
96077.64
96087.053
96096.465
96105.877
96115.289
96124.701
96134.112
96143.524
96152.934
96162.345
96171.755
96181.165
96190.575
96199.985
96209.395
96218.804
96228.213
96237.622
96247.03
96256.438
96265.845
96275.252
96284.659
96294.066
96303.472
96312.878
96322.283
96331.688
96341.092
96350.496
96359.899
96369.303
96378.706
96388.108
96397.51
96406.911
96416.312
96425.712
96435.112
96444.511
96453.91
96463.308
96472.705
96482.102
96491.499
96500.894
96510.289
96519.684
96529.078
96538.471
96547.864
96557.256
96566.647
96576.038
96585.427
96594.817
96604.205
96613.593
96622.98
96632.367
96641.752
96651.137
96660.521
96669.905
96679.287
96688.669
96698.05
96707.431
96716.81
96726.189
96735.567
96744.944
96754.321
96763.696
96773.071
96782.445
96791.818
96801.191
96810.562
96819.933
96829.302
96838.671
96848.039
96857.407
96866.773
96876.139
96885.504
96894.868
96904.231
96913.593
96922.954
96932.315
96941.675
96951.034
96960.392
96969.75
96979.106
96988.462
96997.817
97007.171
97016.525
97025.878
97035.23
97044.581
97053.931
97063.281
97072.63
97081.979
97091.327
97100.674
97110.02
97119.366
97128.711
97138.055
97147.399
97156.742
97166.085
97175.427
97184.768
97194.109
97203.45
97212.789
97222.129
97231.467
97240.806
97250.143
97259.481
97268.817
97278.154
97287.49
97296.825
97306.16
97315.495
97324.829
97334.163
97343.496
97352.83
97362.162
97371.495
97380.827
97390.159
97399.491
97408.822
97418.153
97427.484
97436.815
97446.145
97455.475
97464.806
97474.136
97483.465
97492.795
97502.125
97511.454
97520.783
97530.112
97539.441
97548.77
97558.099
97567.428
97576.757
97586.086
97595.414
97604.742
97614.071
97623.4
97632.728
97642.057
97651.385
97660.713
97670.041
97679.369
97688.698
97698.026
97707.354
97716.682
97726.011
97735.339
97744.666
97753.994
97763.322
97772.65
97781.978
97791.306
97800.633
97809.961
97819.288
97828.615
97837.943
97847.27
97856.597
97865.924
97875.251
97884.578
97893.905
97903.231
97912.558
97921.884
97931.211
97940.537
97949.863
97959.189
97968.515
97977.84
97987.166
97996.491
98005.816
98015.141
98024.466
98033.791
98043.114
98052.438
98061.762
98071.086
98080.409
98089.732
98099.055
98108.377
98117.699
98127.021
98136.342
98145.663
98154.984
98164.304
98173.624
98182.943
98192.262
98201.58
98210.899
98220.217
98229.534
98238.85
98248.167
98257.482
98266.797
98276.112
98285.426
98294.739
98304.052
98313.364
98322.676
98331.987
98341.297
98350.607
98359.917
98369.225
98378.533
98387.841
98397.147
98406.453
98415.758
98425.062
98434.366
98443.669
98452.971
98462.272
98471.572
98480.871
98490.169
98499.467
98508.763
98518.059
98527.353
98536.646
98545.938
98555.23
98564.519
98573.808
98583.096
98592.382
98601.667
98610.951
98620.233
98629.514
98638.794
98648.072
98657.349
98666.624
98675.898
98685.171
98694.441
98703.71
98712.978
98722.244
98731.508
98740.77
98750.029
98759.287
98768.543
98777.796
98787.048
98796.297
98805.544
98814.788
98824.031
98833.27
98842.507
98851.742
98860.974
98870.204
98879.43
98888.654
98897.874
98907.091
98916.305
98925.516
98934.723
98943.926
98953.125
98962.321
98971.513
98980.701
98989.885
98999.064
99008.24
99017.411
99026.578
99035.74
99044.897
99054.05
99063.198
99072.341
99081.478
99090.61
99099.737
99108.857
99117.971
99127.079
99136.181
99145.276
99154.364
99163.446
99172.52
99181.587
99190.646
99199.698
99208.742
99217.778
99226.806
99235.825
99244.836
99253.837
99262.829
99271.812
99280.785
99289.749
99298.702
99307.645
99316.577
99325.499
99334.409
99343.309
99352.197
99361.073
99369.938
99378.79
99387.629
99396.455
99405.268
99414.067
99422.852
99431.623
99440.38
99449.121
99457.848
99466.56
99475.256
99483.938
99492.603
99501.252
99509.883
99518.498
99527.095
99535.675
99544.237
99552.78
99561.306
99569.813
99578.301
99586.77
99595.219
99603.648
99612.057
99620.445
99628.813
99637.162
99645.49
99653.798
99662.082
99670.349
99678.595
99686.819
99694.99
99703.131
99711.24
99719.32
99727.369
99735.39
99743.382
99751.345
99759.28
99767.186
99775.063
99782.911
99790.73
99798.519
99806.278
99814.007
99821.705
99829.371
99837.006
99844.609
99852.179
99859.716
99867.22
99874.69
99882.125
99889.525
99896.89
99904.219
99911.513
99918.769
99925.989
99933.171
99940.315
99947.421
99954.489
99961.518
99968.507
99975.457
99982.366
99989.235
99996.063
100002.85
100009.6
100016.3
100022.96
100029.58
100036.16
100042.69
100049.19
100055.63
100062.04
100068.4
100074.71
100080.98
100087.21
100093.39
100099.53
100105.62
100111.66
100117.66
100123.62
100129.53
100135.39
100141.2
100146.97
100152.7
100158.37
100164
100169.58
100175.12
100180.6
100186.04
100191.44
100196.78
100202.08
100207.33
100212.53
100217.69
100222.8
100227.85
100232.87
100237.83
100242.75
100247.62
100252.44
100257.21
100261.94
100266.62
100271.25
100275.84
100280.37
100284.86
100289.31
100293.7
100298.05
100302.36
100306.61
100310.82
100314.98
100319.1
100323.17
100327.2
100331.18
100335.11
100339
100342.85
100346.65
100350.4
100354.11
100357.78
100361.4
100364.98
100368.51
100372
100375.45
100378.86
100382.22
100385.54
100388.82
100392.06
100395.25
100398.41
100401.52
100404.59
100407.63
100410.62
100413.57
100416.49
100419.36
100422.2
100425
100427.76
100430.48
100433.17
100435.82
100438.43
100441
100443.54
100446.05
100448.52
100450.95
100453.35
100455.71
100458.05
100460.34
100462.61
100464.84
100467.04
100469.21
100471.34
100473.45
100475.52
100477.56
100479.58
100481.56
100483.51
100485.44
100487.33
100489.2
100491.04
100492.85
100494.64
100496.39
100498.12
100499.83
100501.51
100503.16
100504.79
100506.39
100507.97
100509.53
100511.06
100512.56
100514.05
100515.51
100516.95
100518.37
100519.76
100521.14
100522.49
100523.82
100525.13
100526.42
100527.7
100528.95
100530.18
100531.4
100532.59
100533.77
100534.93
100536.07
100537.2
100538.31
100539.4
100540.47
100541.53
100542.58
100543.6
100544.61
100545.61
100546.59
100547.56
100548.52
100549.46
100550.38
100551.29
100552.19
100553.08
100553.95
100554.81
100555.66
100556.5
100557.32
100558.14
100558.94
100559.73
100560.51
100561.28
100562.04
100562.78
100563.52
100564.25
100564.97
100565.68
100566.38
100567.07
100567.75
100568.42
100569.08
100569.74
100570.38
100571.02
100571.65
100572.28
100572.89
100573.5
100574.1
100574.69
100575.28
100575.86
100576.43
100576.99
100577.55
100578.1
100578.65
100579.19
100579.72
100580.25
100580.77
100581.29
100581.8
100582.3
100582.8
100583.3
100583.79
100584.27
100584.75
100585.22
100585.69
100586.15
100586.61
100587.07
100587.52
100587.96
100588.41
100588.84
100589.27
100589.7
100590.13
100590.55
100590.96
100591.38
100591.79
100592.19
100592.59
100592.99
100593.38
100593.77
100594.16
100594.54
100594.92
100595.3
100595.67
100596.04
100596.41
100596.77
100597.13
100597.49
100597.84
100598.19
100598.54
100598.88
100599.23
100599.57
100599.9
100600.23
100600.56
100600.89
100601.22
100601.54
100601.86
100602.17
100602.49
100602.8
100603.11
100603.41
100603.71
100604.01
100604.31
100604.61
100604.9
100605.19
100605.48
100605.76
100606.04
100606.32
100606.6
100606.88
100607.15
100607.42
100607.69
100607.95
100608.21
100608.47
100608.73
100608.99
100609.24
100609.49
100609.74
100609.98
100610.23
100610.47
100610.71
100610.94
100611.18
100611.41
100611.64
100611.87
100612.09
100612.31
100612.53
100612.75
100612.97
100613.18
100613.39
100613.6
100613.8
100614.01
100614.21
100614.41
100614.6
100614.8
100614.99
100615.18
100615.37
100615.55
100615.74
100615.92
100616.09
100616.27
100616.44
100616.61
100616.78
100616.95
100617.11
100617.28
100617.43
100617.59
100617.75
100617.9
100618.05
100618.2
100618.34
100618.48
100618.62
100618.76
100618.9
100619.03
100619.16
100619.29
100619.42
100619.54
100619.66
100619.78
100619.9
100620.01
100620.12
100620.23
100620.34
100620.44
100620.55
100620.65
100620.74
100620.84
100620.93
100621.02
100621.11
100621.19
100621.27
100621.35
100621.43
100621.51
100621.58
100621.65
100621.72
100621.78
100621.84
100621.9
100621.96
100622.02
100622.07
100622.12
100622.17
100622.21
100622.25
100622.29
100622.33
100622.36
100622.4
100622.43
100622.45
100622.48
100622.5
100622.52
100622.53
100622.55
100622.56
100622.57
100622.57
100622.58
100622.58
100622.58
100622.57
100622.57
100622.56
100622.54
100622.53
100622.51
100622.49
100622.47
100622.44
100622.41
100622.38
100622.35
100622.31
100622.27
100622.23
100622.19
100622.14
100622.09
100622.04
100621.98
100621.92
100621.86
100621.8
100621.73
100621.66
100621.59
100621.52
100621.44
100621.36
100621.28
100621.19
100621.1
100621.01
100620.92
100620.82
100620.72
100620.62
100620.51
100620.41
100620.3
100620.18
100620.07
100619.95
100619.82
100619.7
100619.57
100619.44
100619.31
100619.17
100619.03
100618.89
100618.75
100618.6
100618.45
100618.29
100618.14
100617.98
100617.82
100617.65
100617.49
100617.31
100617.14
100616.97
100616.79
100616.6
100616.42
100616.23
100616.04
100615.85
100615.65
100615.45
100615.25
100615.04
100614.83
100614.62
100614.41
100614.19
100613.97
100613.75
100613.52
100613.29
100613.06
100612.83
100612.59
100612.35
100612.11
100611.86
100611.61
100611.36
100611.1
100610.85
100610.59
100610.32
100610.06
100609.79
100609.51
100609.24
100608.96
100608.68
100608.39
100608.11
100607.82
100607.52
100607.23
100606.93
100606.63
100606.32
100606.01
100605.7
100605.39
100605.07
100604.75
100604.43
100604.11
100603.78
100603.45
100603.11
100602.78
100602.44
100602.09
100601.75
100601.4
100601.05
100600.69
100600.34
100599.98
100599.61
100599.25
100598.88
100598.5
100598.13
100597.75
100597.36
100596.97
100596.58
100596.19
100595.8
100595.41
100595.01
100594.61
100594.21
100593.79
100593.38
100592.97
100592.55
100592.13
100591.71
100591.28
100590.85
100590.42
100589.98
100589.55
100589.11
100588.66
100588.22
100587.77
100587.31
100586.86
100586.4
100585.94
100585.47
100585
100584.53
100584.06
100583.58
100583.1
100582.62
100582.14
100581.65
100581.16
100580.66
100580.16
100579.66
100579.16
100578.65
100578.14
100577.63
100577.12
100576.6
100576.08
100575.55
100575.03
100574.5
100573.96
100573.43
100572.89
100572.35
100571.8
100571.25
100570.7
100570.15
100569.59
100569.03
100568.47
100567.91
100567.34
100566.76
100566.19
100565.61
100565.03
100564.45
100563.86
100563.27
100562.68
100562.09
100561.5
100560.9
100560.29
100559.68
100559.07
100558.46
100557.85
100557.23
100556.62
100556
100555.38
100554.76
100554.14
100553.51
100552.88
100552.24
100551.6
100550.95
100550.3
100549.64
100549
100548.35
100547.7
100547.06
100546.41
100545.75
100545.09
100544.41
100543.72
100543.02
100542.32
100541.63
100540.94
100540.26
100539.58
100538.92
100538.25
100537.57
100536.88
100536.16
100535.42
100534.67
100533.9
100533.14
100532.39
100531.65
100530.93
100530.26
100529.64
100529.05
100528.46
100527.11
100526.51
100525.87
100525.14
100524.45
100523.73
100522.98
100522.22
100521.45
100520.68
100519.91
100519.15
100518.4
100517.66
100516.92
100516.18
100515.44
100514.7
100513.95
100513.2
100512.43
100511.66
100510.89
100510.12
100509.34
100508.57
100507.8
100507.02
100506.24
100505.47
100504.68
100503.9
100503.11
100502.32
100501.52
100500.72
100499.92
100499.12
100498.31
100497.5
100496.69
100495.88
100495.07
100494.25
100493.43
100492.61
100491.79
100490.96
100490.13
100489.3
100488.46
100487.62
100486.78
100485.94
100485.1
100484.25
100483.4
100482.55
100481.69
100480.84
100479.98
100479.11
100478.25
100477.38
100476.51
100475.64
100474.76
100473.89
100473.01
100472.13
100471.24
100470.36
100469.47
100468.57
100467.68
100466.78
100465.88
100464.98
100464.08
100463.17
100462.26
100461.35
100460.44
100459.52
100458.6
100457.68
100456.76
100455.83
100454.9
100453.97
100453.04
100452.1
100451.16
100450.22
100449.28
100448.33
100447.38
100446.43
100445.48
100444.52
100443.56
100442.6
100441.64
100440.67
100439.71
100438.74
100437.76
100436.79
100435.81
100434.83
100433.84
100432.86
100431.87
100430.88
100429.89
100428.89
100427.89
100426.89
100425.89
100424.88
100423.88
100422.87
100421.85
100420.84
100419.82
100418.8
100417.78
100416.75
100415.72
100414.69
100413.66
100412.62
100411.58
100410.54
100409.5
100408.45
100407.4
100406.35
100405.3
100404.24
100403.18
100402.12
100401.06
100399.99
100398.92
100397.85
100396.78
100395.7
100394.62
100393.54
100392.45
100391.36
100390.27
100389.18
100388.09
100386.99
100385.89
100384.78
100383.68
100382.57
100381.45
100380.34
100379.22
100378.1
100376.98
100375.85
100374.72
100373.59
100372.46
100371.32
100370.18
100369.04
100367.89
100366.74
100365.59
100364.44
100363.28
100362.12
100360.95
100359.79
100358.62
100357.45
100356.27
100355.09
100353.91
100352.72
100351.54
100350.35
100349.15
100347.95
100346.75
100345.55
100344.34
100343.13
100341.92
100340.7
100339.48
100338.25
100337.03
100335.8
100334.56
100333.32
100332.08
100330.84
100329.59
100328.33
100327.08
100325.82
100324.55
100323.29
100322.02
100320.74
100319.46
100318.18
100316.89
100315.6
100314.31
100313.01
100311.7
100310.4
100309.08
100307.77
100306.45
100305.12
100303.79
100302.46
100301.12
100299.77
100298.43
100297.07
100295.71
100294.35
100292.98
100291.61
100290.23
100288.85
100287.46
100286.07
100284.67
100283.26
100281.85
100280.44
100279.01
100277.59
100276.15
100274.71
100273.27
100271.82
100270.36
100268.89
100267.42
100265.95
100264.46
100262.97
100261.47
100259.97
100258.46
100256.94
100255.41
100253.88
100252.34
100250.79
100249.23
100247.67
100246.1
100244.52
100242.93
100241.33