/*--------------------------------*- C++ -*----------------------------------*\
  =========                 |
  \\      /  F ield         | OpenFOAM: The Open Source CFD Toolbox
   \\    /   O peration     | Website:  https://openfoam.org
    \\  /    A nd           | Version:  7
     \\/     M anipulation  |
\*---------------------------------------------------------------------------*/
FoamFile
{
    version     2.0;
    format      ascii;
    class       volVectorField;
    location    "0.00175";
    object      U;
}
// * * * * * * * * * * * * * * * * * * * * * * * * * * * * * * * * * * * * * //

dimensions      [0 1 -1 0 0 0 0];

internalField   nonuniform List<vector> 
5000
(
(-49.161068 4.7578058e-17 0)
(-49.114275 4.8908647e-17 0)
(-49.091097 0 0)
(-49.063867 0 0)
(-49.037566 -2.5563604e-17 0)
(-49.010638 2.9091406e-32 -2.5589071e-17)
(-48.983786 2.5606008e-17 -5.458249e-32)
(-48.956713 0 7.6841105e-17)
(-48.929663 0 2.5617244e-17)
(-48.902538 -2.561791e-17 -5.1235819e-17)
(-48.875419 -5.1234243e-17 -5.1234243e-17)
(-48.848268 2.5615911e-17 2.5615911e-17)
(-48.821117 2.5613901e-17 -2.1839725e-31)
(-48.793944 -2.5612195e-17 -2.2566213e-31)
(-48.766766 0 5.1219687e-17)
(-48.739577 -2.5607812e-17 -5.1215623e-17)
(-48.712377 -2.2714564e-49 -1.1357282e-49)
(-48.685176 2.5602593e-17 -2.2557753e-31)
(-48.657961 0 -2.5599553e-17)
(-48.630749 2.5596827e-17 5.1193655e-17)
(-48.603527 -2.5593406e-17 2.5593406e-17)
(-48.576307 -2.5590203e-17 0)
(-48.549086 5.1172446e-17 0)
(-48.521867 -2.5582574e-17 -2.5582574e-17)
(-48.49465 -2.5578324e-17 2.1809391e-31)
(-48.467437 -2.1079306e-31 -2.1079306e-31)
(-48.440226 2.557027e-17 -2.557027e-17)
(-48.41302 2.556646e-17 2.556646e-17)
(-48.385816 -5.1124266e-17 2.5562133e-17)
(-48.358617 4.4310884e-31 -2.5558207e-17)
(-48.331422 -4.466636e-31 4.466636e-31)
(-48.304232 2.5549829e-17 -2.1785095e-31)
(-48.277045 5.1090759e-17 -2.5545379e-17)
(-48.249865 -5.1082925e-17 2.5541463e-17)
(-48.222688 4.4274166e-31 2.5537028e-17)
(-48.195517 -2.2206174e-30 0)
(-48.16835 -8.8519044e-31 0)
(-48.141188 5.1048787e-17 -2.5524393e-17)
(-48.114032 -5.1040075e-17 -2.5520037e-17)
(-48.086881 -5.103159e-17 2.5515795e-17)
(-48.059736 5.1023178e-17 -4.2779895e-31)
(-48.032596 -1.754411e-30 -2.5507376e-17)
(-48.005461 -5.1006482e-17 2.5503241e-17)
(-47.97833 2.5499024e-17 -4.3121188e-31)
(-47.951205 7.6484619e-17 -2.5494873e-17)
(-47.924084 -2.5490651e-17 2.5490651e-17)
(-47.896968 -2.5486494e-17 -8.7648736e-31)
(-47.869857 -1.7454435e-30 8.7272175e-31)
(-47.84275 -5.0956288e-17 -8.7620022e-31)
(-47.815649 0 4.34408e-31)
(-47.788552 2.5469787e-17 2.5469787e-17)
(-47.76146 3.6188774e-33 0)
(-47.734374 -2.5461408e-17 0)
(-47.707292 5.091442e-17 0)
(-47.680215 -8.8980525e-31 0)
(-47.653143 -5.0897699e-17 0)
(-47.626076 2.5444681e-17 0)
(-47.599015 -8.7852056e-31 0)
(-47.571958 -2.5436322e-17 0)
(-47.544906 0 0)
(-47.517859 2.542799e-17 0)
(-47.490817 8.6710641e-31 0)
(-47.463781 7.2247122e-33 0)
(-47.436748 2.5415541e-17 -2.5415541e-17)
(-47.409721 -2.5411407e-17 -2.5411407e-17)
(-47.382699 8.8820443e-31 2.5407248e-17)
(-47.355681 2.5403114e-17 -4.3680996e-31)
(-47.328669 -2.5398962e-17 -9.7403232e-50)
(-47.301661 -2.5394835e-17 2.5394835e-17)
(-47.274658 2.5390685e-17 0)
(-47.247661 2.5386556e-17 0)
(-47.220668 -2.5382403e-17 -2.5382403e-17)
(-47.19368 -2.5378278e-17 -2.5378278e-17)
(-47.166697 5.0748287e-17 0)
(-47.13972 2.537005e-17 2.537005e-17)
(-47.112747 -2.5365951e-17 8.7594658e-31)
(-47.085779 0 -2.5361887e-17)
(-47.058815 2.5357801e-17 -2.5357801e-17)
(-47.031856 -3.602982e-33 2.5353732e-17)
(-47.004902 -2.5349632e-17 5.0699263e-17)
(-46.977953 2.5345549e-17 -5.0691099e-17)
(-46.951009 -7.2024731e-33 1.4404946e-32)
(-46.924069 7.2013178e-33 7.6012154e-17)
(-46.897135 2.5333316e-17 -5.0666633e-17)
(-46.870205 2.5329289e-17 -2.6348402e-30)
(-46.84328 8.8173882e-31 5.0650493e-17)
(-46.816359 -2.5321227e-17 -7.5963681e-17)
(-46.789443 0 2.5317168e-17)
(-46.762532 -2.5313114e-17 2.5313114e-17)
(-46.735625 -2.6255385e-30 -2.530902e-17)
(-46.708724 -8.8462796e-31 2.5304943e-17)
(-46.681828 2.530086e-17 2.530086e-17)
(-46.654936 2.5296816e-17 8.8074897e-31)
(-46.62805 -5.0585581e-17 -5.0585581e-17)
(-46.601168 -1.750158e-30 -1.750158e-30)
(-46.574291 2.5284804e-17 -2.5284804e-17)
(-46.547418 0 -2.5280815e-17)
(-46.52055 0 -8.8723696e-31)
(-46.493686 -2.527282e-17 1.759827e-30)
(-46.466827 -1.7523667e-30 5.0537641e-17)
(-46.439972 5.0529625e-17 2.5264812e-17)
(-46.413123 -2.5260806e-17 -2.5260806e-17)
(-46.386278 -5.0513562e-17 3.5892044e-33)
(-46.359437 0 2.525275e-17)
(-46.332602 2.5248699e-17 0)
(-46.305772 2.5244655e-17 -2.5244655e-17)
(-46.278947 -2.5240613e-17 -8.7879219e-31)
(-46.252127 -2.5236603e-17 2.5236603e-17)
(-46.225312 0 -2.5232613e-17)
(-46.198502 0 -2.5228657e-17)
(-46.171696 2.5224712e-17 5.0449423e-17)
(-46.144895 2.5220788e-17 2.5220788e-17)
(-46.118099 0 -7.5650589e-17)
(-46.091306 -2.5212952e-17 -2.5212952e-17)
(-46.064519 8.8127513e-31 7.5627102e-17)
(-46.037735 2.5205126e-17 -2.5205126e-17)
(-46.010956 -2.5201205e-17 -2.5201205e-17)
(-45.984182 7.1615007e-33 -1.4323001e-32)
(-45.957412 -8.8072734e-31 -2.5193365e-17)
(-45.930647 -8.9061964e-50 7.5568351e-17)
(-45.903887 5.037107e-17 -1.7609073e-30)
(-45.877131 -1.0735579e-32 -5.0363282e-17)
(-45.85038 -2.5177747e-17 5.0355494e-17)
(-45.823634 0 2.5173864e-17)
(-45.796891 -2.5169961e-17 -2.5169961e-17)
(-45.770153 2.5166039e-17 2.5166039e-17)
(-45.74342 2.5162064e-17 -2.5162064e-17)
(-45.716691 -5.0316077e-17 -5.0316077e-17)
(-45.689967 -2.5153932e-17 2.5153932e-17)
(-45.663248 5.0299511e-17 8.6848084e-31)
(-45.636534 2.5145486e-17 2.5145486e-17)
(-45.609825 -2.5141138e-17 5.0282275e-17)
(-45.583122 -2.513669e-17 -2.513669e-17)
(-45.556423 -2.5132158e-17 -2.5132158e-17)
(-45.52973 0 -2.512752e-17)
(-45.503043 2.5122794e-17 -8.7469011e-31)
(-45.47636 2.5117966e-17 -8.7095254e-31)
(-45.449684 -2.5113069e-17 8.7435152e-31)
(-45.423013 -8.7061077e-31 5.0216218e-17)
(-45.396347 2.5103142e-17 2.5103142e-17)
(-45.369688 -2.5098194e-17 -2.5098194e-17)
(-45.343034 -2.5093338e-17 -5.0186675e-17)
(-45.316385 0 -2.5088609e-17)
(-45.289743 2.508408e-17 -2.508408e-17)
(-45.263105 2.5079777e-17 1.7392568e-30)
(-45.236472 -2.5075758e-17 5.0151516e-17)
(-45.209844 2.5072033e-17 -7.1259004e-33)
(-45.18322 -1.4249873e-32 7.1249365e-33)
(-45.156599 -2.5065583e-17 3.7109784e-49)
(-45.129982 2.5062884e-17 2.5062884e-17)
(-45.103368 -2.5060529e-17 -1.7379219e-30)
(-45.076757 1.7449053e-30 3.4898106e-30)
(-45.050148 2.5056841e-17 2.5056841e-17)
(-45.023542 -2.5055444e-17 -2.5055444e-17)
(-44.996937 2.5054265e-17 2.5054265e-17)
(-44.970333 2.505326e-17 8.6870889e-31)
(-44.943731 -2.5052347e-17 -2.5052347e-17)
(-44.917131 0 2.5051489e-17)
(-44.890531 0 -3.5599074e-33)
(-44.863934 -2.5049721e-17 -2.5049721e-17)
(-44.837338 -2.5048734e-17 0)
(-44.810743 2.5047641e-17 2.5047641e-17)
(-44.784151 2.5046384e-17 1.7333817e-30)
(-44.75756 -2.5044944e-17 -5.0089887e-17)
(-44.73097 -1.7367249e-30 2.5043268e-17)
(-44.704383 2.5041348e-17 -7.1171792e-33)
(-44.677798 -2.5039152e-17 -2.5039152e-17)
(-44.651216 -2.5036695e-17 2.5036695e-17)
(-44.624638 0 -2.503397e-17)
(-44.598063 2.5031016e-17 2.5031016e-17)
(-44.571491 2.5027837e-17 -1.0428155e-29)
(-44.544924 0 -6.9416859e-30)
(-44.518361 -2.5020921e-17 2.5020921e-17)
(-44.491802 -2.5017207e-17 -5.0034414e-17)
(-44.465248 0 0)
(-44.438697 2.5009272e-17 -1.7343673e-30)
(-44.412152 5.2022254e-30 -5.2022254e-30)
(-44.385611 -2.5000699e-17 2.5000699e-17)
(-44.359074 2.4996174e-17 2.4996174e-17)
(-44.332544 2.4991508e-17 1.7224808e-30)
(-44.306018 -2.4986695e-17 -2.4986695e-17)
(-44.279499 -1.7253602e-30 2.4981775e-17)
(-44.252986 1.7179149e-30 1.7179149e-30)
(-44.22648 1.064607e-32 1.064607e-32)
(-44.199979 2.4966548e-17 3.4592608e-30)
(-44.173484 -2.4961353e-17 -4.9922706e-17)
(-44.146995 -3.461355e-30 2.4956066e-17)
(-44.120512 1.7161215e-30 2.4950685e-17)
(-44.094034 -1.715743e-30 -1.715743e-30)
(-44.067563 2.4939566e-17 1.7189008e-30)
(-44.041098 0 -5.1838602e-30)
(-44.014639 0 1.7216426e-30)
(-43.988188 -2.4921945e-17 -2.4921945e-17)
(-43.961743 -2.4915835e-17 0)
(-43.935306 0 0)
(-43.908877 0 0)
(-43.882455 2.4896974e-17 0)
(-43.856039 2.1569854e-49 -2.4890532e-17)
(-43.829631 -2.4883955e-17 5.1876388e-30)
(-43.803229 0 2.4877224e-17)
(-43.776835 2.4870298e-17 2.4870298e-17)
(-43.750448 -2.48632e-17 -2.48632e-17)
(-43.72407 -6.8878699e-30 -2.4855936e-17)
(-43.6977 4.9697102e-17 4.9697102e-17)
(-43.671339 -2.4841037e-17 1.7191703e-30)
(-43.644986 -5.1559266e-30 -5.1559266e-30)
(-43.618642 -3.5279336e-33 -2.4825625e-17)
(-43.592307 -2.4817697e-17 -2.4817697e-17)
(-43.56598 2.4809602e-17 2.4809602e-17)
(-43.539663 -3.5244859e-33 0)
(-43.513355 -3.4316871e-30 2.4792969e-17)
(-43.487056 1.7152521e-30 1.7152521e-30)
(-43.460766 -2.477569e-17 -2.477569e-17)
(-43.434486 0 -2.4766777e-17)
(-43.408216 2.4757667e-17 3.4479105e-30)
(-43.381956 1.7127591e-30 2.4748399e-17)
(-43.355707 6.8660073e-30 -4.9477964e-17)
(-43.329469 2.4729445e-17 2.4729445e-17)
(-43.303242 0 2.471976e-17)
(-43.277025 -2.4709922e-17 -2.4709922e-17)
(-43.250818 -2.4699887e-17 2.4699887e-17)
(-43.224622 0 0)
(-43.198438 0 0)
(-43.172265 0 0)
(-43.146104 2.4657907e-17 2.4657907e-17)
(-43.119954 1.7057379e-30 -2.4646947e-17)
(-43.093816 -2.4635756e-17 -4.9271513e-17)
(-43.067691 0 2.4624352e-17)
(-43.041579 0 -1.7103661e-30)
(-43.015481 2.4600987e-17 2.4600987e-17)
(-42.989396 2.4589094e-17 2.4589094e-17)
(-42.963323 -2.4577074e-17 -4.9154148e-17)
(-42.937264 -2.4564865e-17 6.9817544e-33)
(-42.911217 0 -6.9782215e-33)
(-42.885183 2.4539737e-17 2.4539737e-17)
(-42.859164 2.4526805e-17 2.4526805e-17)
(-42.833158 -2.4513661e-17 -4.9027323e-17)
(-42.807167 -2.4500365e-17 3.4817113e-33)
(-42.781192 0 -5.1013848e-30)
(-42.75523 2.447328e-17 2.447328e-17)
(-42.729284 -6.7918971e-30 -1.3583794e-29)
(-42.703352 -1.6952608e-30 -3.3905215e-30)
(-42.677436 2.4431076e-17 2.4431076e-17)
(-42.651536 -2.4416632e-17 -2.4416632e-17)
(-42.625652 -2.4402046e-17 0)
(-42.599785 0 -2.438734e-17)
(-42.573932 2.4372462e-17 2.4372462e-17)
(-42.548096 -3.385243e-30 2.4357392e-17)
(-42.522275 2.4342091e-17 -2.4342091e-17)
(-42.496472 3.3740493e-30 0)
(-42.470685 -4.8621882e-17 -2.4310941e-17)
(-42.444916 2.4295172e-17 2.4295172e-17)
(-42.419164 -3.3674857e-30 2.4279277e-17)
(-42.393429 -8.4234998e-30 -8.4234998e-30)
(-42.367712 -1.6780605e-30 -4.8494049e-17)
(-42.342012 -2.4230618e-17 -4.8461237e-17)
(-42.31633 2.4214028e-17 7.2642083e-17)
(-42.290666 2.4197314e-17 4.8394628e-17)
(-42.265021 0 0)
(-42.239394 -2.4163573e-17 -4.8327146e-17)
(-42.213785 -2.4146526e-17 -2.4146526e-17)
(-42.188195 0 2.412934e-17)
(-42.162623 2.4111983e-17 2.4111983e-17)
(-42.13707 2.4094484e-17 2.4094484e-17)
(-42.111536 -4.8153703e-17 -4.8153703e-17)
(-42.086021 -2.4059123e-17 -4.8118246e-17)
(-42.060526 2.4041293e-17 2.4041293e-17)
(-42.03505 2.4023368e-17 4.8046736e-17)
(-42.009593 6.6589777e-30 6.6589777e-30)
(-41.984155 -2.3987153e-17 -4.7974306e-17)
(-41.958737 2.3968847e-17 2.3968847e-17)
(-41.933339 -1.6609368e-30 -3.3218736e-30)
(-41.907961 -2.3931876e-17 -2.3931876e-17)
(-41.882603 2.3913247e-17 4.7826493e-17)
(-41.857266 -1.6604575e-30 -2.3894541e-17)
(-41.831949 1.6625451e-30 3.3250903e-30)
(-41.806652 -6.7805318e-33 2.3856875e-17)
(-41.781375 -1.6463566e-30 -2.383787e-17)
(-41.756119 2.3818725e-17 2.3818725e-17)
(-41.730883 0 -4.7598902e-17)
(-41.705668 0 9.9217763e-30)
(-41.680475 -2.3760617e-17 4.7521235e-17)
(-41.655303 -2.3741092e-17 -4.7482185e-17)
(-41.630153 0 -1.6416892e-30)
(-41.605023 0 2.3701749e-17)
(-41.579914 0 0)
(-41.554826 0 0)
(-41.52976 2.3641695e-17 2.3641695e-17)
(-41.504717 1.6280524e-30 -2.3621443e-17)
(-41.479696 -4.7202225e-17 -4.7202225e-17)
(-41.454696 1.0053058e-32 2.3580703e-17)
(-41.429719 2.3560196e-17 -6.6962104e-33)
(-41.404764 2.3539572e-17 2.3539572e-17)
(-41.37983 -3.2653543e-30 2.3518821e-17)
(-41.354919 -3.2557785e-30 -2.3497953e-17)
(-41.330031 -3.3362809e-33 0)
(-41.305166 -2.345596e-17 -2.345596e-17)
(-41.280323 -2.3434884e-17 -2.3434884e-17)
(-41.255504 -2.3413772e-17 0)
(-41.230707 4.6785249e-17 4.6785249e-17)
(-41.205933 7.0114319e-17 2.337144e-17)
(-41.181181 -2.3350217e-17 -4.6700433e-17)
(-41.156452 -4.6657928e-17 1.6145244e-30)
(-41.131746 0 -6.6244469e-33)
(-41.107063 2.3286451e-17 2.3286451e-17)
(-41.082403 2.3265244e-17 2.3265244e-17)
(-41.057766 -2.3244102e-17 -2.3244102e-17)
(-41.033152 6.6003841e-33 2.3223037e-17)
(-41.008561 -9.8916288e-33 -2.320205e-17)
(-40.983992 6.5884752e-33 1.317695e-32)
(-40.959445 2.3160295e-17 4.632059e-17)
(-40.93492 2.3139534e-17 -2.3139534e-17)
(-40.910418 -2.3118873e-17 -2.3118873e-17)
(-40.885939 -4.6196672e-17 -2.3098336e-17)
(-40.861481 2.3077945e-17 -3.2008634e-30)
(-40.837046 8.8844617e-49 2.3057712e-17)
(-40.812633 2.3037641e-17 0)
(-40.788241 6.3784804e-30 0)
(-40.76387 -4.5995924e-17 -2.2997962e-17)
(-40.73952 0 3.1903146e-30)
(-40.715191 0 -6.3719603e-30)
(-40.690883 4.5879111e-17 -3.188189e-30)
(-40.666596 -1.2729072e-29 2.292039e-17)
(-40.642329 -4.5802764e-17 -2.2901382e-17)
(-40.618083 0 3.2518038e-33)
(-40.593857 2.2863849e-17 2.2863849e-17)
(-40.569652 2.2845325e-17 0)
(-40.545466 -2.2826958e-17 0)
(-40.521301 3.2413185e-33 0)
(-40.497155 -3.1642631e-30 0)
(-40.473028 3.2362147e-33 0)
(-40.448921 2.2755145e-17 0)
(-40.424833 -2.2737634e-17 0)
(-40.400764 -2.2720299e-17 -2.2720299e-17)
(-40.376712 0 0)
(-40.352679 2.2686082e-17 2.2686082e-17)
(-40.328664 -3.1473876e-30 0)
(-40.304667 -2.2652357e-17 -2.2652357e-17)
(-40.280688 4.5271349e-17 -6.279043e-30)
(-40.256727 -6.2744553e-30 2.2619136e-17)
(-40.232785 -2.2602766e-17 0)
(-40.208861 -6.2718442e-30 0)
(-40.184955 -4.5141169e-17 -2.2570585e-17)
(-40.161066 4.5109529e-17 -3.1315046e-30)
(-40.137194 2.25391e-17 2.25391e-17)
(-40.113338 -2.2523572e-17 0)
(-40.089499 -3.1986038e-33 0)
(-40.065676 -2.2492909e-17 -2.2492909e-17)
(-40.04187 0 -2.2477792e-17)
(-40.018081 0 2.2462838e-17)
(-39.994308 2.2448055e-17 2.2448055e-17)
(-39.97055 -3.1114726e-30 0)
(-39.946809 -4.4838004e-17 -2.2419002e-17)
(-39.923083 3.1839017e-33 3.1839017e-33)
(-39.899371 6.7171737e-17 2.2390579e-17)
(-39.875675 -2.2376584e-17 -2.2376584e-17)
(-39.851994 -2.236273e-17 -2.236273e-17)
(-39.828328 4.4698047e-17 2.2349024e-17)
(-39.804677 -2.2335476e-17 2.2335476e-17)
(-39.781041 2.2322097e-17 0)
(-39.757419 4.4617784e-17 -2.2308892e-17)
(-39.733811 -2.2295858e-17 -2.2295858e-17)
(-39.710217 -2.2282987e-17 2.2282987e-17)
(-39.686637 -2.2270265e-17 2.2270265e-17)
(-39.663071 2.2257687e-17 0)
(-39.639518 1.0363843e-48 -2.2245255e-17)
(-39.615979 -2.2232977e-17 -2.2232977e-17)
(-39.592453 2.2220863e-17 2.2220863e-17)
(-39.56894 -2.220892e-17 2.220892e-17)
(-39.545441 2.219715e-17 0)
(-39.521954 6.1478752e-30 0)
(-39.498479 6.3022644e-33 0)
(-39.475017 2.2162856e-17 0)
(-39.451567 -4.4303505e-17 0)
(-39.428128 2.2140806e-17 0)
(-39.404702 6.1450643e-30 0)
(-39.381287 -6.135823e-30 0)
(-39.357883 -2.2108889e-17 -2.2108889e-17)
(-39.334491 -4.4197137e-17 -6.6811494e-48)
(-39.311111 6.6265257e-17 2.2088419e-17)
(-39.287741 6.1244695e-30 0)
(-39.264382 -1.22435e-29 0)
(-39.241033 6.1128059e-30 0)
(-39.217695 -4.4099028e-17 -2.2049514e-17)
(-39.194368 4.4080366e-17 -3.056928e-30)
(-39.17105 -6.1113116e-30 2.203101e-17)
(-39.147742 -4.404401e-17 -2.2022005e-17)
(-39.124445 0 3.0563104e-30)
(-39.101157 0 -3.1270314e-33)
(-39.077878 2.1996057e-17 -3.0539336e-30)
(-39.054609 -3.0496568e-30 2.1987758e-17)
(-39.031349 -2.1979624e-17 -2.1979624e-17)
(-39.008097 -2.197165e-17 2.197165e-17)
(-38.984854 2.1963835e-17 -1.2204082e-29)
(-38.961619 6.5868555e-17 -2.1956185e-17)
(-38.938393 -2.1948707e-17 2.1948707e-17)
(-38.915175 -2.1941405e-17 0)
(-38.891965 -6.2340977e-33 0)
(-38.868763 -2.1927331e-17 -2.1927331e-17)
(-38.845568 0 -3.0434504e-30)
(-38.822381 4.3827881e-17 2.191394e-17)
(-38.799202 4.3815007e-17 -2.1907504e-17)
(-38.776029 -2.1901247e-17 -2.1901247e-17)
(-38.752864 -4.3790352e-17 0)
(-38.729705 -2.1889289e-17 2.1889289e-17)
(-38.706552 4.3767159e-17 2.1883579e-17)
(-38.683405 4.3756076e-17 -2.1878038e-17)
(-38.660265 -4.374532e-17 -6.0704941e-30)
(-38.63713 -4.3734893e-17 6.9232503e-49)
(-38.614002 0 -3.0353773e-30)
(-38.590879 4.3715083e-17 2.1857541e-17)
(-38.567761 -2.1852859e-17 -2.1852859e-17)
(-38.544648 -4.3696699e-17 -2.2288713e-48)
(-38.521541 2.1844003e-17 -3.0328224e-30)
(-38.498438 2.1839808e-17 -2.1839808e-17)
(-38.47534 -3.1030484e-33 0)
(-38.452246 3.0311375e-30 0)
(-38.429157 2.1828128e-17 2.1828128e-17)
(-38.406073 -2.1824546e-17 3.1014546e-33)
(-38.382992 -2.1821119e-17 -9.0796327e-30)
(-38.359915 2.1817835e-17 2.1817835e-17)
(-38.336842 -3.0256519e-30 0)
(-38.313773 -3.0996236e-33 0)
(-38.290707 -3.0248307e-30 -2.1808764e-17)
(-38.267644 -2.1805992e-17 6.0457936e-30)
(-38.244585 2.1803345e-17 2.1803345e-17)
(-38.221529 -9.0804798e-30 0)
(-38.198475 -3.0264905e-30 0)
(-38.175424 -6.0492376e-30 0)
(-38.152376 -2.1793829e-17 -2.1793829e-17)
(-38.129331 2.179167e-17 3.0967825e-33)
(-38.106288 -3.0252689e-30 2.1789598e-17)
(-38.083248 -6.0407003e-30 -2.1787621e-17)
(-38.060211 -3.0959409e-33 2.1785747e-17)
(-38.037176 -4.3567959e-17 -6.055169e-30)
(-38.014142 -2.1782315e-17 -4.356463e-17)
(-37.991111 2.1780748e-17 2.1780748e-17)
(-37.968082 4.3558545e-17 9.071506e-30)
(-37.945054 -3.0236426e-30 3.0236426e-30)
(-37.922028 -4.3553174e-17 -3.0234624e-30)
(-37.899004 -2.1775388e-17 -2.1775388e-17)
(-37.875981 4.3548602e-17 0)
(-37.852959 2.177334e-17 0)
(-37.829939 -2.1772516e-17 2.1772516e-17)
(-37.80692 -2.1771838e-17 3.022803e-30)
(-37.783902 -6.0423659e-30 -6.0423659e-30)
(-37.760885 2.1770944e-17 -5.9469999e-50)
(-37.737868 0 -2.1770748e-17)
(-37.714852 0 2.1770739e-17)
(-37.691836 2.177092e-17 2.177092e-17)
(-37.668821 0 0)
(-37.645805 -2.1771896e-17 -2.1771896e-17)
(-37.622788 2.177273e-17 -3.0229269e-30)
(-37.599771 3.0942444e-33 2.1773809e-17)
(-37.576752 -6.043429e-30 0)
(-37.553733 0 0)
(-37.530711 -2.1778613e-17 -2.1778613e-17)
(-37.507689 2.1780782e-17 6.1904705e-33)
(-37.484663 2.1783255e-17 -2.003688e-49)
(-37.461636 -4.3572083e-17 -2.1786042e-17)
(-37.438606 -2.1789147e-17 2.1789147e-17)
(-37.415572 2.1792578e-17 -3.0194888e-30)
(-37.392535 0 3.0262055e-30)
(-37.369495 0 -6.0504547e-30)
(-37.34645 -2.1804922e-17 -2.1804922e-17)
(-37.323401 6.0592321e-30 2.1809747e-17)
(-37.300346 2.1814929e-17 -6.0575717e-30)
(-37.277286 0 6.0622093e-30)
(-37.254221 0 -6.0638442e-30)
(-37.231149 -2.1832585e-17 -2.1832585e-17)
(-37.208071 9.0995623e-30 2.1839181e-17)
(-37.184986 2.184614e-17 -6.0662384e-30)
(-37.161894 0 3.0403473e-30)
(-37.138795 0 0)
(-37.115687 0 -2.1869186e-17)
(-37.092571 0 2.1877569e-17)
(-37.069446 0 -3.0386944e-30)
(-37.046312 0 3.111519e-33)
(-37.023169 0 -3.0412617e-30)
(-37.000016 0 3.0457309e-30)
(-36.976852 4.3849272e-17 2.1924636e-17)
(-36.953678 1.2175618e-29 -2.1935048e-17)
(-36.930494 -2.1945775e-17 -2.1945775e-17)
(-36.907298 2.1956818e-17 2.1956818e-17)
(-36.884091 -2.1968182e-17 2.1968182e-17)
(-36.860872 2.1979869e-17 0)
(-36.837641 -6.112956e-30 -2.1991873e-17)
(-36.814397 -2.2004185e-17 -2.2004185e-17)
(-36.79114 -6.1136251e-30 0)
(-36.76787 -2.2029686e-17 2.2029686e-17)
(-36.744587 0 -3.0604323e-30)
(-36.72129 0 3.1343926e-33)
(-36.697979 2.2070078e-17 3.0610743e-30)
(-36.674653 6.1323188e-30 -2.2084113e-17)
(-36.651313 -2.2098427e-17 2.2098427e-17)
(-36.627958 0 3.0670289e-30)
(-36.604588 0 -6.1444647e-30)
(-36.581202 0 -2.2142957e-17)
(-36.557801 0 -2.2158318e-17)
(-36.534383 0 4.4347873e-17)
(-36.51095 0 -3.1533621e-33)
(-36.4875 0 3.0799184e-30)
(-36.464033 4.4444633e-17 2.2222317e-17)
(-36.440549 -1.8513284e-29 -2.2238931e-17)
(-36.417047 -4.4511556e-17 3.0899934e-30)
(-36.393528 2.2272853e-17 2.2272853e-17)
(-36.369991 3.1676207e-33 0)
(-36.346436 2.2307664e-17 0)
(-36.322862 -1.2379598e-29 0)
(-36.299271 -4.4686651e-17 -2.2343325e-17)
(-36.27566 -2.2361462e-17 -2.2361462e-17)
(-36.25203 9.6517794e-49 2.2379795e-17)
(-36.228382 6.7194957e-17 2.2398319e-17)
(-36.204714 0 0)
(-36.181026 -4.4871843e-17 -2.2435922e-17)
(-36.157319 0 -2.245499e-17)
(-36.133592 0 2.2474231e-17)
(-36.109845 4.4987276e-17 2.2493638e-17)
(-36.086078 -6.2450706e-30 0)
(-36.06229 -6.7598787e-17 -2.2532929e-17)
(-36.038482 2.2552801e-17 -2.2552801e-17)
(-36.014652 2.2572818e-17 2.2572818e-17)
(-35.990802 -2.2592974e-17 6.2736194e-30)
(-35.966931 2.2613266e-17 -2.2613266e-17)
(-35.943039 -2.263369e-17 0)
(-35.919125 -6.2841932e-30 0)
(-35.89519 2.2674914e-17 0)
(-35.871234 -2.2695704e-17 0)
(-35.847255 0 2.2716604e-17)
(-35.823255 -2.273761e-17 -6.3073195e-30)
(-35.799233 2.2758718e-17 -2.2758718e-17)
(-35.775189 4.5559846e-17 2.2779923e-17)
(-35.751122 -2.2801223e-17 3.1657229e-30)
(-35.727034 -2.2822615e-17 -3.1719363e-30)
(-35.702924 -2.2844099e-17 -1.1176182e-48)
(-35.678791 -2.2865673e-17 2.2865673e-17)
(-35.654635 4.5774669e-17 2.2887334e-17)
(-35.630458 2.2909079e-17 -4.5818158e-17)
(-35.606257 -2.29309e-17 -3.1837274e-30)
(-35.582033 0 3.1835047e-30)
(-35.557787 2.2974741e-17 -2.2974741e-17)
(-35.533518 -2.2996751e-17 0)
(-35.509226 -2.301882e-17 2.301882e-17)
(-35.484912 6.9122842e-17 2.3040947e-17)
(-35.460574 6.554937e-33 -2.3063134e-17)
(-35.436213 -4.6170752e-17 -6.4037883e-30)
(-35.411829 2.3107665e-17 2.3107665e-17)
(-35.387422 3.2113694e-30 0)
(-35.362991 2.3152351e-17 0)
(-35.338537 -6.586656e-33 -2.3174736e-17)
(-35.31406 -4.6394286e-17 3.217396e-30)
(-35.28956 2.3219573e-17 2.3219573e-17)
(-35.265036 0 0)
(-35.240489 -6.4600842e-30 -2.3264484e-17)
(-35.215919 -3.309275e-33 3.309275e-33)
(-35.191325 -2.3309418e-17 -6.4725615e-30)
(-35.166708 2.333187e-17 -3.2360824e-30)
(-35.142067 -6.4850251e-30 2.3354303e-17)
(-35.117403 -3.2423015e-30 -2.337671e-17)
(-35.092716 -3.3252105e-33 3.3252105e-33)
(-35.068006 -2.3421439e-17 -6.5036675e-30)
(-35.043273 2.3443757e-17 -2.3443757e-17)
(-35.018516 -1.1572163e-48 2.3466038e-17)
(-34.993737 -6.5222257e-30 6.5222257e-30)
(-34.968934 -3.3410353e-33 3.3410353e-33)
(-34.944108 -4.7065094e-17 -3.26726e-30)
(-34.919259 -3.26697e-30 -2.3554567e-17)
(-34.894388 2.3576499e-17 2.3576499e-17)
(-34.869493 0 0)
(-34.844577 0 -1.3114299e-29)
(-34.819638 -2.3641735e-17 -3.27906e-30)
(-34.794676 -9.8461442e-30 -9.8461442e-30)
(-34.769692 2.3684707e-17 -3.3657993e-33)
(-34.744686 -2.3706009e-17 -2.3706009e-17)
(-34.719658 3.2942818e-30 2.3727172e-17)
(-34.694608 -4.3820745e-48 -4.3820745e-48)
(-34.669535 -3.3000949e-30 -3.3000949e-30)
(-34.644442 2.378973e-17 6.6059347e-30)
(-34.619327 2.3810246e-17 -3.3058157e-30)
(-34.594191 3.3052524e-30 4.766116e-17)
(-34.569034 -2.3850725e-17 -2.3850725e-17)
(-34.543856 0 -2.387067e-17)
(-34.518658 0 -3.3169456e-30)
(-34.493439 2.3909932e-17 3.3196562e-30)
(-34.468201 -2.3929234e-17 4.7858468e-17)
(-34.442943 1.9936292e-29 -2.3948307e-17)
(-34.417665 2.3967146e-17 -2.3967146e-17)
(-34.392368 -2.3985744e-17 -9.787532e-49)
(-34.367052 0 0)
(-34.341717 2.4022187e-17 -9.5433292e-49)
(-34.316363 2.4040016e-17 -2.4040016e-17)
(-34.290991 -2.4057572e-17 2.4057572e-17)
(-34.265601 -2.407485e-17 -9.1490413e-49)
(-34.240193 0 -3.3414889e-30)
(-34.214768 2.4108544e-17 -3.4260301e-33)
(-34.189326 2.4124952e-17 -2.4124952e-17)
(-34.163867 -4.8282128e-17 4.8282128e-17)
(-34.138391 -2.4156877e-17 6.707884e-30)
(-34.1129 2.4172388e-17 -2.4172388e-17)
(-34.087392 2.4187595e-17 3.3547696e-30)
(-34.061869 3.3568363e-30 -3.3568363e-30)
(-34.036331 2.4217088e-17 2.4217088e-17)
(-34.010778 6.7285694e-30 -2.423137e-17)
(-33.98521 -4.8490681e-17 3.0247706e-48)
(-33.959629 0 -1.0107809e-29)
(-33.934033 0 6.7433963e-30)
(-33.908424 0 -6.740116e-30)
(-33.882802 2.4298114e-17 -6.7471028e-30)
(-33.857167 2.4310547e-17 -6.8299569e-49)
(-33.83152 0 0)
(-33.80586 -2.4334526e-17 2.4334526e-17)
(-33.780188 -3.3732908e-30 0)
(-33.754505 2.4357335e-17 0)
(-33.72881 0 -2.4368308e-17)
(-33.703104 0 -6.7695625e-30)
(-33.677387 -2.438941e-17 2.438941e-17)
(-33.65166 -3.3841673e-30 0)
(-33.625923 3.3820676e-30 0)
(-33.600176 -2.4419028e-17 -4.8838056e-17)
(-33.57442 2.4428379e-17 -2.0335939e-29)
(-33.548654 -1.0168286e-29 4.8874966e-17)
(-33.522879 -2.4446346e-17 -2.4446346e-17)
(-33.497096 0 3.475261e-33)
(-33.471303 -2.4463374e-17 -3.3964961e-30)
(-33.445502 -3.3976302e-30 -2.4471543e-17)
(-33.419694 2.4479482e-17 0)
(-33.393877 -2.4487196e-17 0)
(-33.368052 2.4494691e-17 0)
(-33.342221 2.4501975e-17 -2.4501975e-17)
(-33.316382 -2.4509055e-17 -6.7987111e-30)
(-33.290536 0 2.4515937e-17)
(-33.264684 2.4522623e-17 0)
(-33.238825 2.4529113e-17 0)
(-33.21296 -2.4535409e-17 -2.4535409e-17)
(-33.187088 -2.4541512e-17 3.4875586e-33)
(-33.161211 0 2.4547424e-17)
(-33.135327 -2.4553148e-17 0)
(-33.109439 2.4558687e-17 0)
(-33.083545 2.4564042e-17 -2.4564042e-17)
(-33.057645 -2.4569215e-17 -6.8153991e-30)
(-33.031741 -4.9148408e-17 -6.8272597e-30)
(-33.005832 1.3650204e-29 6.8251021e-30)
(-32.979919 7.3750899e-17 2.4583633e-17)
(-32.954001 -3.0287854e-49 -2.4588072e-17)
(-32.928079 -2.4592329e-17 6.8253056e-30)
(-32.902153 -4.9192809e-17 -6.8264368e-30)
(-32.876223 1.3648044e-29 6.8240219e-30)
(-32.85029 4.9208028e-17 2.4604014e-17)
(-32.824353 -2.4607546e-17 0)
(-32.798413 2.4610894e-17 0)
(-32.77247 -2.4614057e-17 -2.4614057e-17)
(-32.746524 -2.4617035e-17 5.8168835e-48)
(-32.720576 4.9239659e-17 2.4619829e-17)
(-32.694625 0 0)
(-32.668671 0 0)
(-32.642716 -4.9254259e-17 -2.462713e-17)
(-32.616759 1.5152804e-48 3.0305609e-48)
(-32.5908 4.9262202e-17 2.4631101e-17)
(-32.56484 0 0)
(-32.538878 0 0)
(-32.512915 -4.9271454e-17 -2.4635727e-17)
(-32.486951 1.180812e-48 2.361624e-48)
(-32.460987 4.9275922e-17 2.4637961e-17)
(-32.435022 0 0)
(-32.409056 0 0)
(-32.383091 -4.9280177e-17 -2.4640088e-17)
(-32.357125 -2.4640472e-17 3.5016216e-33)
(-32.331159 4.9281426e-17 2.4640713e-17)
(-32.305194 2.4640823e-17 -2.4640823e-17)
(-32.279229 0 6.8457637e-30)
(-32.253265 -4.9281336e-17 -6.8457248e-30)
(-32.227301 1.3684299e-29 6.8421496e-30)
(-32.201337 4.9280029e-17 2.4640014e-17)
(-32.175375 -2.4639508e-17 0)
(-32.149413 0 0)
(-32.123452 2.463818e-17 0)
(-32.097493 -2.4637379e-17 0)
(-32.071535 3.5010567e-33 0)
(-32.045578 2.4635537e-17 -2.4635537e-17)
(-32.019623 -2.4634501e-17 6.83701e-30)
(-31.993669 2.4633394e-17 2.4633394e-17)
(-31.967717 2.4632223e-17 0)
(-31.941766 -2.4630997e-17 0)
(-31.915818 -2.4629724e-17 0)
(-31.889871 6.8388198e-30 0)
(-31.863926 2.4627061e-17 0)
(-31.837983 -2.4625674e-17 0)
(-31.812042 -6.8376651e-30 0)
(-31.786102 2.4622803e-17 -2.4622803e-17)
(-31.760165 -2.4621331e-17 1.366671e-29)
(-31.734229 2.4619843e-17 2.4619843e-17)
(-31.708296 2.4618344e-17 0)
(-31.682365 -2.4616834e-17 0)
(-31.656435 -2.4615311e-17 0)
(-31.630508 6.8347551e-30 0)
(-31.604582 2.4612223e-17 0)
(-31.578659 -2.4610662e-17 0)
(-31.552738 3.497163e-33 0)
(-31.526819 2.460753e-17 -2.460753e-17)
(-31.500902 -2.4605963e-17 6.8290895e-30)
(-31.474987 2.4604391e-17 2.4604391e-17)
(-31.449074 2.460281e-17 0)
(-31.423163 -2.4601216e-17 0)
(-31.397254 -4.9199214e-17 -2.4599607e-17)
(-31.371348 1.3667733e-29 6.8338663e-30)
(-31.345443 4.9192699e-17 2.459635e-17)
(-31.319541 -2.4594704e-17 0)
(-31.293641 3.4948819e-33 0)
(-31.267742 4.9182735e-17 0)
(-31.241847 6.9888033e-33 -2.4589666e-17)
(-31.215953 -2.4587937e-17 -6.8310749e-30)
(-31.190062 0 2.4586181e-17)
(-31.164172 2.4584399e-17 0)
(-31.138286 0 0)
(-31.112401 -2.4580753e-17 0)
(-31.086519 0 0)
(-31.060639 0 0)
(-31.034762 0 0)
(-31.008887 -2.4573032e-17 0)
(-30.983015 -5.4500161e-51 -2.4571002e-17)
(-30.957145 2.4568934e-17 3.4914555e-33)
(-30.931278 0 2.456683e-17)
(-30.905414 2.4564687e-17 0)
(-30.879552 -6.8205185e-30 0)
(-30.853693 -2.4560277e-17 0)
(-30.827836 0 0)
(-30.801983 0 0)
(-30.776132 0 0)
(-30.750284 -2.4550949e-17 0)
(-30.724439 6.816637e-30 -2.4548525e-17)
(-30.698597 2.454607e-17 -3.4882064e-33)
(-30.672759 0 2.4543585e-17)
(-30.646923 2.454107e-17 0)
(-30.62109 6.8103733e-30 0)
(-30.59526 -2.4535958e-17 0)
(-30.569433 0 -2.4533367e-17)
(-30.54361 2.4530758e-17 1.3619921e-29)
(-30.517789 -2.4528135e-17 2.4528135e-17)
(-30.491972 1.3627457e-29 0)
(-30.466158 2.4522855e-17 -2.4522855e-17)
(-30.440347 -2.4520207e-17 -6.8122581e-30)
(-30.41454 0 2.4517556e-17)
(-30.388735 -2.4514906e-17 0)
(-30.362934 -6.8065663e-30 0)
(-30.337135 2.4509616e-17 -2.4509616e-17)
(-30.31134 0 -2.4506984e-17)
(-30.285549 2.4504366e-17 2.4504366e-17)
(-30.25976 -2.4501767e-17 2.4501767e-17)
(-30.233974 -1.3605873e-29 0)
(-30.208192 2.4496626e-17 0)
(-30.182412 -1.3599559e-29 0)
(-30.156636 -3.4804606e-33 0)
(-30.130862 6.8036069e-30 2.4489068e-17)
(-30.105092 -3.4797549e-33 -3.4797549e-33)
(-30.079325 -2.4484157e-17 -4.8968314e-17)
(-30.05356 0 -2.4481745e-17)
(-30.027799 2.4479361e-17 4.8958722e-17)
(-30.00204 -6.7932978e-30 4.8954002e-17)
(-29.976284 -6.7926499e-30 -2.4474667e-17)
(-29.950531 1.8331883e-50 -2.4472358e-17)
(-29.924781 -6.7948531e-30 0)
(-29.899034 0 0)
(-29.873289 -4.8931191e-17 0)
(-29.847547 -6.7929971e-30 0)
(-29.821808 2.4461206e-17 -2.4461206e-17)
(-29.796072 -2.4459036e-17 -6.7952633e-30)
(-29.770338 6.7877129e-30 2.4456878e-17)
(-29.744607 2.4454733e-17 0)
(-29.718879 2.4452599e-17 0)
(-29.693153 6.7894107e-30 0)
(-29.66743 -6.7888227e-30 0)
(-29.641709 2.4446241e-17 0)
(-29.615991 -2.4444118e-17 0)
(-29.590276 -2.4441987e-17 0)
(-29.564564 0 0)
(-29.538854 -2.4437701e-17 0)
(-29.513147 6.7852644e-30 0)
(-29.487442 2.4433376e-17 0)
(-29.46174 0 0)
(-29.436041 0 0)
(-29.410344 0 0)
(-29.384651 -4.8848867e-17 -2.4424433e-17)
(-29.35896 2.7126141e-29 1.356307e-29)
(-29.333272 4.8839531e-17 2.4419765e-17)
(-29.307587 0 0)
(-29.281905 0 0)
(-29.256226 0 2.4412532e-17)
(-29.23055 0 -6.7781836e-30)
(-29.204877 0 3.4685162e-33)
(-29.179207 0 -2.4404936e-17)
(-29.15354 0 -2.4402317e-17)
(-29.127877 -4.8799317e-17 -1.3547132e-29)
(-29.102217 1.3556036e-29 6.778018e-30)
(-29.07656 4.8788454e-17 2.4394227e-17)
(-29.050906 2.4391449e-17 0)
(-29.025255 -2.4388626e-17 0)
(-28.999608 -2.438576e-17 0)
(-28.973965 6.7740981e-30 0)
(-28.948324 1.3525774e-29 0)
(-28.922688 2.4376938e-17 -2.4376938e-17)
(-28.897055 -2.4373937e-17 1.3532851e-29)
(-28.871425 2.4370909e-17 2.4370909e-17)