/*--------------------------------*- C++ -*----------------------------------*\
| =========                 |                                                 |
| \\      /  F ield         | OpenFOAM: The Open Source CFD Toolbox           |
|  \\    /   O peration     | Version:  4.x                                   |
|   \\  /    A nd           | Web:      www.OpenFOAM.org                      |
|    \\/     M anipulation  |                                                 |
\*---------------------------------------------------------------------------*/
FoamFile
{
    version     2.0;
    format      ascii;
    class       surfaceScalarField;
    location    "0.8";
    object      phi;
}
// * * * * * * * * * * * * * * * * * * * * * * * * * * * * * * * * * * * * * //

dimensions      [1 0 -1 0 0 0 0];

internalField   nonuniform List<scalar> 
17861
(
2.288607974e-08
2.288608428e-08
1.278389517e-07
1.810948986e-08
2.750424806e-08
1.508834552e-07
1.156655157e-08
2.789262442e-08
1.522614271e-07
7.501933717e-09
2.801245929e-08
1.496632724e-07
4.958503679e-09
2.799850435e-08
1.481560416e-07
2.80099145e-08
1.471518711e-07
3.40783494e-09
2.750424315e-08
1.810949968e-08
1.508834556e-07
2.220027134e-08
2.220028256e-08
1.84219049e-07
1.375374716e-08
2.246736009e-08
1.874829013e-07
8.488370421e-09
2.241497321e-08
1.844739779e-07
5.355921681e-09
2.23210143e-08
1.824210576e-07
2.230009788e-08
1.811090586e-07
3.567799841e-09
2.78926204e-08
1.156656466e-08
1.522614275e-07
2.246734918e-08
1.375376253e-08
1.874829009e-07
1.395377256e-08
1.395378757e-08
1.906382601e-07
8.727722723e-09
1.387428599e-08
1.873778496e-07
5.620469905e-09
1.374533446e-08
1.852940478e-07
1.367164713e-08
1.840531129e-07
3.806924351e-09
2.80124563e-08
7.501947194e-09
1.496632729e-07
2.241496268e-08
8.488386594e-09
1.844739772e-07
1.38742714e-08
8.727738153e-09
1.873778493e-07
8.706903627e-09
8.706918555e-09
1.839458449e-07
5.653909637e-09
8.606752135e-09
1.818026886e-07
8.515321395e-09
1.805571288e-07
3.864220107e-09
2.799850225e-08
4.958514586e-09
1.481560416e-07
2.232100413e-08
5.355934954e-09
1.824210561e-07
1.374532013e-08
5.620481975e-09
1.852940467e-07
8.606737401e-09
5.653921222e-09
1.818026879e-07
5.599309848e-09
5.599321031e-09
1.796259689e-07
5.523354384e-09
1.78356928e-07
3.845459844e-09
2.800991294e-08
1.471518706e-07
3.407840299e-09
2.230008791e-08
1.811090564e-07
3.567806998e-09
1.367163305e-08
1.840531109e-07
3.806929971e-09
8.515306924e-09
1.805571273e-07
3.864225025e-09
5.523343397e-09
1.78356927e-07
3.845464604e-09
1.770722169e-07
3.792796777e-09
3.79279161e-09
1.903207696e-08
1.903208161e-08
8.977479349e-08
2.016520862e-08
2.673344237e-08
1.2301688e-07
1.617200355e-08
2.764907485e-08
1.286055581e-07
1.221144113e-08
2.786340275e-08
1.257604352e-07
9.182759133e-09
2.78636467e-08
1.233210825e-07
2.799020139e-08
1.213683691e-07
6.976067767e-09
2.673343846e-08
2.016521752e-08
1.230168794e-07
2.911374284e-08
2.911375011e-08
1.794584345e-07
2.392590108e-08
2.993633058e-08
1.903834876e-07
1.83453989e-08
3.019727167e-08
1.877206142e-07
1.382573719e-08
3.028673462e-08
1.845176377e-07
3.045490384e-08
1.819656569e-07
1.050444569e-08
2.764907118e-08
1.617201486e-08
1.286055565e-07
2.993632243e-08
2.392590978e-08
1.903834856e-07
2.387392497e-08
2.387393615e-08
2.027630499e-07
1.775212346e-08
2.392660236e-08
1.997703209e-07
1.307459781e-08
2.403402717e-08
1.96224284e-07
2.416842732e-08
1.936110447e-07
9.803147919e-09
2.786339952e-08
1.221145212e-08
1.25760432e-07
3.019726314e-08
1.83454063e-08
1.877206098e-07
2.392659046e-08
1.775213448e-08
1.997703184e-07
1.761063192e-08
1.761064392e-08
1.965777586e-07
1.289222546e-08
1.766170583e-08
1.928934153e-07
1.772325719e-08
1.902419866e-07
9.652538387e-09
2.78636437e-08
9.182766701e-09
1.233210771e-07
3.02867256e-08
1.382573983e-08
1.845176304e-07
2.403401499e-08
1.307460501e-08
1.962242784e-07
1.766169374e-08
1.289223352e-08
1.928934126e-07
1.291721672e-08
1.291722471e-08
1.891149219e-07
1.293866495e-08
1.863930376e-07
9.665695468e-09
2.799019839e-08
1.213683621e-07
6.976068764e-09
3.045489421e-08
1.819656476e-07
1.050444059e-08
2.416841485e-08
1.93611037e-07
9.803147712e-09
1.772324525e-08
1.902419818e-07
9.65253943e-09
1.29386571e-08
1.863930355e-07
9.665696557e-09
1.836138146e-07
9.667859192e-09
9.66785793e-09
1.484232237e-08
1.484232549e-08
6.009014615e-08
1.864269612e-08
2.324789102e-08
9.596861521e-08
1.694975327e-08
2.457212151e-08
1.057263809e-07
1.391849704e-08
2.471236765e-08
1.04079327e-07
1.104409291e-08
2.468040591e-08
1.015150855e-07
2.475931639e-08
9.897939157e-08
8.673760616e-09
2.324788866e-08
1.864270181e-08
9.596861391e-08
2.992205249e-08
2.99220557e-08
1.66110105e-07
2.698476971e-08
3.241696417e-08
1.854759281e-07
2.187511283e-08
3.267698668e-08
1.848656545e-07
1.69708971e-08
3.259808591e-08
1.815041781e-07
3.262645689e-08
1.779477997e-07
1.312161989e-08
2.45721195e-08
1.694975977e-08
1.057263777e-07
3.241695973e-08
2.698477233e-08
1.854759252e-07
2.995740388e-08
2.99574095e-08
2.076821585e-07
2.424931359e-08
3.012408498e-08
2.08031313e-07
1.867219329e-08
2.994054233e-08
2.04458949e-07
2.989732533e-08
2.006577135e-07
1.435465814e-08
2.47123654e-08
1.391850212e-08
1.040793212e-07
3.267698081e-08
2.187511289e-08
1.848656478e-07
3.012407793e-08
2.424931724e-08
2.080313088e-07
2.436651545e-08
2.436652055e-08
2.08092882e-07
1.877870551e-08
2.423446057e-08
2.041873042e-07
2.417492961e-08
2.002925417e-07
1.445054374e-08
2.46804033e-08
1.104409382e-08
1.01515077e-07
3.259807923e-08
1.697089132e-08
1.815041674e-07
2.994053446e-08
1.867219132e-08
2.044589416e-07
2.423445383e-08
1.877870601e-08
2.041873009e-07
1.870701364e-08
1.870701648e-08
2.001697999e-07
1.865792588e-08
1.96182119e-07
1.443492924e-08
2.475931367e-08
9.89793808e-08
8.673755159e-09
3.262644978e-08
1.779477865e-07
1.312160609e-08
2.989731696e-08
2.006577039e-07
1.435464809e-08
2.417492225e-08
2.00292537e-07
1.445053687e-08
1.86579222e-08
1.961821176e-07
1.443492557e-08
1.920928017e-07
1.44184248e-08
1.441842681e-08
9.012289684e-09
9.012291337e-09
4.206556589e-08
1.389823514e-08
1.671599288e-08
7.436667807e-08
1.481044885e-08
1.876480789e-08
8.604936106e-08
1.329348767e-08
1.897443787e-08
8.662185296e-08
1.118551486e-08
1.873664978e-08
8.488641218e-08
1.855450342e-08
8.25231364e-08
9.087271045e-09
1.671599273e-08
1.389823716e-08
7.436667612e-08
2.643341518e-08
2.643341318e-08
1.46675262e-07
2.729598463e-08
2.964630235e-08
1.737318645e-07
2.391793848e-08
3.015976201e-08
1.770583782e-07
1.952414757e-08
3.013014036e-08
1.74504481e-07
2.990721047e-08
1.706554383e-07
1.546380447e-08
1.876480843e-08
1.481044963e-08
8.604935626e-08
2.964630605e-08
2.729597809e-08
1.737318601e-07
3.06109788e-08
3.061096986e-08
2.057528166e-07
2.712392518e-08
3.125533433e-08
2.104227933e-07
2.220936761e-08
3.137396933e-08
2.081296767e-07
3.11742577e-08
2.040411936e-07
1.755883894e-08
1.897443835e-08
1.329348544e-08
8.662184478e-08
3.015976467e-08
2.391792589e-08
1.77058369e-07
3.125533911e-08
2.712391281e-08
2.104227874e-07
2.759209457e-08
2.759208818e-08
2.154193688e-07
2.259340731e-08
2.761882697e-08
2.129411296e-07
2.748532533e-08
2.086243149e-07
1.795056181e-08
1.873664959e-08
1.118550809e-08
8.488640103e-08
3.013014047e-08
1.952412815e-08
1.745044678e-07
3.137397082e-08
2.220935116e-08
2.081296667e-07
2.76188304e-08
2.259339707e-08
2.12941126e-07
2.262057078e-08
2.262056434e-08
2.101663152e-07
2.254586438e-08
2.05739209e-07
1.800293397e-08
1.855450278e-08
8.252312322e-08
9.087258269e-09
2.990720962e-08
1.706554231e-07
1.546377736e-08
3.117425885e-08
2.040411828e-07
1.755881585e-08
2.748532839e-08
2.086243107e-07
1.79505461e-08
2.254587011e-08
2.057392085e-07
1.800292282e-08
2.012208543e-07
1.798183117e-08
1.79818408e-08
5.881682708e-09
5.881683072e-09
3.03022011e-08
1.026356284e-08
1.164048642e-08
5.834431271e-08
1.197317204e-08
1.363831541e-08
7.070143771e-08
1.149459325e-08
1.378922525e-08
7.331120813e-08
1.023638428e-08
1.342292845e-08
7.272169488e-08
1.313458669e-08
7.097024331e-08
8.654692903e-09
1.164048719e-08
1.026356173e-08
5.834431117e-08
2.161507556e-08
2.161506763e-08
1.267260924e-07
2.492856445e-08
2.581280022e-08
1.58243891e-07
2.350974153e-08
2.624333276e-08
1.660230943e-07
2.03595987e-08
2.566136294e-08
1.654161901e-07
2.538990484e-08
1.620706011e-07
1.668911732e-08
1.363831791e-08
1.197316757e-08
7.070143208e-08
2.581280995e-08
2.492854863e-08
1.582438854e-07
2.944958366e-08
2.944956491e-08
1.98479277e-07
2.769036825e-08
3.031409247e-08
2.081112477e-07
2.39155116e-08
2.992363375e-08
2.0764226e-07
2.977371334e-08
2.04038787e-07
1.953410583e-08
1.37892277e-08
1.149458457e-08
7.331119847e-08
2.624334183e-08
2.350971774e-08
1.660230828e-07
3.031410818e-08
2.769034175e-08
2.081112415e-07
2.87654395e-08
2.876541839e-08
2.185167077e-07
2.47572589e-08
2.85937295e-08
2.182792093e-07
2.838938454e-08
2.145323831e-07
2.023351353e-08
1.342292978e-08
1.023637123e-08
7.272168197e-08
2.566136909e-08
2.035956736e-08
1.654161748e-07
2.992364552e-08
2.391547975e-08
2.076422479e-07
2.859374722e-08
2.475723226e-08
2.182792046e-07
2.478490473e-08
2.478488206e-08
2.177839978e-07
2.468113798e-08
2.138864887e-07
2.034586421e-08
1.31345879e-08
7.09702281e-08
8.654675224e-09
2.538990846e-08
1.620705842e-07
1.668908075e-08
2.977372239e-08
2.04038774e-07
1.95340692e-08
2.838940069e-08
2.145323761e-07
2.023348201e-08
2.468115871e-08
2.138864866e-07
2.034583764e-08
2.099055885e-07
2.033876525e-08
2.033878888e-08
3.831313081e-09
3.831312066e-09
2.263957612e-08
7.530968952e-09
8.031456155e-09
4.661320111e-08
9.529337719e-09
9.792082643e-09
5.891098672e-08
9.712438743e-09
1.004739197e-08
6.308071573e-08
9.075679357e-09
9.731913303e-09
6.362654114e-08
9.411385107e-09
6.265683384e-08
7.977702593e-09
8.031459256e-09
7.530964568e-09
4.661319958e-08
1.71403734e-08
1.714036199e-08
1.085082729e-07
2.179678726e-08
2.146819276e-08
1.419113675e-07
2.19178771e-08
2.232213027e-08
1.536272662e-07
1.991158867e-08
2.186721717e-08
1.552871733e-07
2.127005238e-08
1.531538369e-07
1.696968284e-08
9.792086928e-09
9.529328611e-09
5.891098063e-08
2.146820757e-08
2.179676586e-08
1.419113604e-07
2.723711323e-08
2.723708545e-08
1.869414779e-07
2.720800129e-08
2.82376612e-08
2.02224827e-07
2.445539192e-08
2.810956637e-08
2.041525161e-07
2.762341679e-08
2.015103955e-07
2.063041287e-08
1.004739652e-08
9.712424741e-09
6.308070467e-08
2.232214543e-08
2.191784724e-08
1.53627251e-07
2.82376874e-08
2.720796455e-08
2.022248185e-07
2.836066596e-08
2.836063172e-08
2.182707545e-07
2.578675354e-08
2.844745724e-08
2.205152242e-07
2.8155098e-08
2.18006327e-07
2.178112093e-08
9.731917792e-09
9.075660829e-09
6.36265262e-08
2.186723207e-08
1.991155244e-08
1.552871528e-07
2.810958995e-08
2.445534892e-08
2.041525019e-07
2.844748858e-08
2.578671314e-08
2.205152181e-07
2.587987193e-08
2.587983339e-08
2.229192303e-07
2.575142108e-08
2.201841282e-07
2.198590133e-08
9.411389543e-09
6.265681664e-08
7.977680073e-09
2.127006589e-08
1.531538142e-07
1.696964248e-08
2.762343987e-08
2.015103782e-07
2.063036564e-08
2.815512827e-08
2.180063174e-07
2.178107593e-08
2.5751457e-08
2.201841236e-07
2.198585881e-08
2.174179769e-07
2.199522168e-08
2.19952602e-08
2.591026965e-09
2.591024353e-09
1.745752286e-08
5.631454894e-09
5.581362138e-09
3.799141185e-08
7.640779617e-09
7.046334012e-09
4.985532787e-08
8.25067067e-09
7.394658302e-09
5.507616538e-08
8.053309186e-09
7.202442059e-09
5.662145775e-08
6.947689904e-09
5.640267007e-08
7.359778008e-09
5.581367908e-09
5.631446383e-09
3.799141044e-08
1.338572636e-08
1.338570933e-08
9.289956909e-08
1.856432256e-08
1.743824648e-08
1.263408601e-07
1.992991166e-08
1.861257746e-08
1.410437571e-07
1.895928498e-08
1.837428012e-08
1.450859577e-07
1.788224492e-08
1.443798538e-07
1.679870514e-08
7.046340464e-09
7.640764472e-09
4.98553219e-08
1.743826579e-08
1.856429432e-08
1.263408516e-07
2.429694552e-08
2.429691319e-08
1.732241319e-07
2.589772379e-08
2.602792568e-08
1.932086988e-07
2.438511675e-08
2.57497335e-08
1.98289664e-07
2.537899308e-08
1.971124894e-07
2.128626558e-08
7.394664416e-09
8.250649516e-09
5.507615438e-08
1.86125965e-08
1.992987506e-08
1.41043739e-07
2.602795762e-08
2.589768257e-08
1.932086873e-07
2.768215781e-08
2.7682118e-08
2.149623573e-07
2.610126922e-08
2.773991446e-08
2.201059235e-07
2.760005134e-08
2.190256334e-07
2.286089526e-08
7.202447457e-09
8.053283255e-09
5.662144364e-08
1.837429734e-08
1.895924362e-08
1.45085934e-07
2.574976039e-08
2.438507175e-08
1.982896463e-07
2.773994462e-08
2.610122854e-08
2.201059156e-07
2.640718794e-08
2.640715612e-08
2.255847359e-07
2.636792261e-08
2.245712253e-07
2.325221005e-08
6.947694404e-09
5.640265506e-08
7.359747823e-09
1.788225891e-08
1.443798291e-07
1.679866198e-08
2.537901555e-08
1.971124673e-07
2.128622048e-08
2.7600079e-08
2.190256189e-07
2.286085526e-08
2.63679522e-08
2.245712196e-07
2.325217717e-08
2.234688632e-07
2.334247609e-08
2.334250387e-08
1.843164675e-09
1.843161487e-09
1.377119455e-08
4.346989296e-09
4.023309745e-09
3.14642798e-08
6.246944614e-09
5.258493931e-09
4.269687789e-08
7.117392674e-09
5.667374957e-09
4.853833882e-08
7.253423178e-09
5.593746081e-09
5.089167473e-08
5.406513978e-09
5.135706662e-08
4.023319298e-09
4.34697727e-09
3.146427776e-08
1.053955877e-08
1.053953338e-08
7.986710767e-08
1.566281073e-08
1.429495444e-08
1.121811462e-07
1.785110754e-08
1.571561054e-08
1.288072189e-07
1.777891291e-08
1.574226456e-08
1.350096212e-07
1.537258951e-08
1.358072003e-07
5.258503398e-09
6.246923133e-09
4.269687257e-08
1.429498173e-08
1.566276923e-08
1.121811382e-07
2.14151404e-08
2.141509793e-08
1.589838281e-07
2.423209382e-08
2.368715608e-08
1.824201948e-07
2.380832637e-08
2.38769426e-08
1.905787424e-07
2.345358704e-08
1.912478702e-07
5.667383159e-09
7.117363376e-09
4.853833007e-08
1.571563479e-08
1.785105426e-08
1.288072027e-07
2.368719302e-08
2.423204164e-08
1.824201836e-07
2.67770471e-08
2.677700221e-08
2.087826501e-07
2.619246099e-08
2.710526342e-08
2.174621773e-07
2.695304379e-08
2.179952072e-07
5.593752939e-09
7.25338754e-09
5.089166459e-08
1.574228414e-08
1.77788529e-08
1.350096024e-07
2.387697124e-08
2.380826944e-08
1.905787258e-07
2.710529624e-08
2.619241376e-08
2.174621694e-07
2.680949116e-08
2.68094657e-08
2.261763264e-07
2.693023363e-08
2.269605462e-07
5.406515377e-09
5.135705865e-08
6.892464958e-09
1.537260181e-08
1.358071845e-07
1.638540549e-08
2.345360459e-08
1.912478547e-07
2.159187005e-08
2.695305743e-08
2.179951964e-07
2.372337267e-08
2.693023833e-08
2.269605378e-07
2.444295418e-08
2.278719871e-07
2.472866794e-08
2.472866705e-08
1.39683619e-09
1.396834452e-09
1.097752355e-08
3.508047933e-09
3.040530541e-09
2.631254278e-08
5.276274287e-09
4.092712849e-09
3.683593794e-08
6.312702706e-09
4.537020944e-09
4.296488416e-08
6.717459011e-09
4.578954391e-09
4.590795442e-08
4.488390461e-09
4.696252317e-08
3.040538881e-09
3.508037708e-09
2.63125409e-08
8.44939445e-09
8.449365446e-09
6.904941693e-08
1.324646668e-08
1.182820464e-08
9.964857029e-08
1.591906453e-08
1.340144016e-08
1.172701822e-07
1.659046374e-08
1.374034774e-08
1.251767981e-07
1.358148468e-08
1.274312423e-07
4.092724135e-09
5.276253049e-09
3.683593374e-08
1.182824146e-08
1.324641433e-08
9.964856378e-08
1.876200347e-08
1.876194294e-08
1.451163131e-07
2.242958976e-08
2.140117797e-08
1.707528519e-07
2.301129409e-08
2.212125142e-08
1.81616106e-07
2.202917783e-08
1.842115799e-07
4.53703191e-09
6.312671833e-09
4.296487805e-08
1.340147489e-08
1.591899373e-08
1.172701695e-07
2.140123065e-08
2.242951375e-08
1.707528432e-07
2.561167439e-08
2.561161383e-08
2.003617521e-07
2.614603761e-08
2.65661474e-08
2.124828956e-07
2.668259375e-08
2.150918715e-07
4.57896253e-09
6.717422182e-09
4.590794838e-08
1.374037677e-08
1.659038172e-08
1.251767848e-07
2.212129319e-08
2.301120953e-08
1.816160946e-07
2.656619437e-08
2.614597237e-08
2.124828889e-07
2.728856081e-08
2.728850285e-08
2.247315821e-07
2.773576489e-08
2.274718701e-07
4.488392377e-09
4.696251856e-08
6.623564725e-09
1.358150548e-08
1.274312331e-07
1.587319818e-08
2.202920788e-08
1.842115736e-07
2.159976345e-08
2.668262528e-08
2.150918654e-07
2.439586284e-08
2.773579845e-08
2.274718654e-07
2.57239759e-08
2.307161209e-07
2.631369431e-08
2.63137082e-08
1.133911339e-09
1.133912493e-09
8.709701902e-09
2.97998879e-09
2.40895193e-09
2.205752226e-08
4.670131916e-09
3.291777546e-09
3.185401786e-08
5.845401118e-09
3.753755259e-09
3.803585491e-08
6.485103186e-09
3.904165259e-09
4.136407735e-08
3.939260327e-09
4.28826833e-08
2.408954883e-09
2.979986809e-09
2.20575207e-08
6.96038118e-09
6.960362583e-09
5.994657935e-08
1.137425811e-08
9.89516165e-09
8.863129168e-08
1.431469495e-08
1.153942182e-08
1.065440505e-07
1.559010002e-08
1.216406728e-08
1.15641452e-07
1.232098953e-08
1.19159116e-07
3.291786364e-09
4.670122079e-09
3.185401438e-08
9.895197664e-09
1.137421444e-08
8.863128548e-08
1.641935941e-08
1.64192894e-08
1.320679891e-07
2.059695122e-08
1.932083707e-08
1.587937984e-07
2.20812675e-08
2.05253591e-08
1.717704411e-07
2.089700029e-08
1.762255745e-07
3.753767067e-09
5.8453819e-09
3.803584993e-08
1.153946402e-08
1.431462673e-08
1.065440371e-07
1.93209107e-08
2.059685362e-08
1.587937897e-07
2.42665776e-08
2.426648277e-08
1.904703856e-07
2.589411513e-08
2.595016568e-08
2.054304917e-07
2.659895635e-08
2.102623745e-07
3.904176487e-09
6.485077471e-09
4.1364072e-08
1.216410815e-08
1.559001427e-08
1.156414352e-07
2.052542528e-08
2.208115113e-08
1.717704287e-07
2.595024645e-08
2.589400652e-08
2.054304886e-07
2.772042506e-08
2.772032826e-08
2.211911822e-07
2.869141967e-08
2.262050978e-07
3.939267839e-09
4.288267815e-08
6.625643641e-09
1.232102412e-08
1.191590984e-07
1.548035561e-08
2.089705738e-08
1.76225564e-07
2.14910695e-08
2.659902584e-08
2.102623749e-07
2.502146889e-08
2.869149939e-08
2.262050991e-07
2.689456025e-08
2.318570898e-07
2.812090606e-08
2.812097642e-08
9.781296602e-10
9.781341896e-10
6.7534428e-09
2.681760026e-09
1.994456047e-09
1.835944672e-08
4.384429547e-09
2.715453408e-09
2.743589681e-08
5.729924566e-09
3.177731781e-09
3.351262544e-08
6.605978996e-09
3.437859907e-09
3.705015663e-08
3.617607203e-09
3.889933158e-08
1.994450782e-09
2.681769211e-09
1.835944593e-08
5.959914021e-09
5.959918277e-09
5.201565267e-08
1.009957426e-08
8.42990002e-09
7.877716589e-08
1.324416458e-08
1.006851561e-08
9.650864632e-08
1.502482545e-08
1.097427551e-08
1.06324338e-07
1.150684495e-08
1.108158179e-07
2.715454116e-09
4.384438321e-09
2.743589425e-08
8.429916543e-09
1.009956317e-08
7.877715995e-08
1.452224635e-08
1.452219517e-08
1.198833223e-07
1.901463312e-08
1.752068315e-08
1.468491858e-07
2.126325999e-08
1.921922861e-08
1.612767946e-07
2.019213511e-08
1.673429285e-07
3.17773847e-09
5.729927952e-09
3.351262044e-08
1.006854878e-08
1.324412997e-08
9.650863036e-08
1.752075914e-08
1.901454313e-08
1.468491736e-07
2.29825027e-08
2.298238544e-08
1.795468638e-07
2.558425213e-08
2.533699672e-08
1.967108911e-07
2.677094715e-08
2.036616486e-07
3.437869293e-09
6.605976386e-09
3.705014913e-08
1.097431551e-08
1.502476916e-08
1.063243118e-07
1.92193113e-08
2.12631368e-08
1.612767708e-07
2.533711688e-08
2.558410013e-08
1.967108808e-07
2.827817993e-08
2.827803124e-08
2.153089877e-07
3.003595193e-08
2.229130737e-07
3.617615588e-09
3.889932154e-08
6.971709601e-09
1.150688185e-08
1.108157812e-07
1.547877683e-08
2.019221329e-08
1.673428952e-07
2.146040201e-08
2.677106383e-08
2.036616345e-07
2.560590348e-08
3.003609365e-08
2.229130721e-07
2.830493047e-08
2.311233243e-07
3.040277747e-08
3.040292791e-08
8.855193972e-10
8.855260734e-10
4.982403067e-09
2.548047298e-09
1.723519071e-09
1.497340935e-08
4.365327023e-09
2.295694059e-09
2.332292482e-08
5.951637081e-09
2.741740407e-09
2.918457302e-08
7.104494863e-09
3.110242021e-09
3.278705213e-08
3.460499825e-09
3.483635262e-08
1.72350685e-09
2.548065162e-09
1.497340965e-08
5.364963111e-09
5.364990821e-09
4.473272223e-08
9.44114757e-09
7.408398853e-09
6.958825852e-08
1.28673833e-08
8.985015165e-09
8.68391072e-08
1.514721463e-08
1.016401365e-08
9.699070156e-08
1.114080344e-08
1.021508633e-07
2.295684911e-09
4.365352728e-09
2.332292407e-08
7.408385149e-09
9.441177679e-09
6.958825376e-08
1.322502703e-08
1.322502197e-08
1.082500135e-07
1.799884257e-08
1.617398106e-08
1.348863449e-07
2.092990578e-08
1.833166837e-08
1.501780111e-07
2.002470987e-08
1.574833057e-07
2.741737301e-09
5.951663993e-09
2.91845691e-08
8.985021465e-09
1.286740127e-08
8.683909095e-08
1.617402439e-08
1.799880091e-08
1.348863301e-07
2.20468548e-08
2.204675723e-08
1.678011763e-07
2.552279993e-08
2.506166589e-08
1.865048583e-07
2.742463608e-08
1.952867478e-07
3.110242939e-09
7.104519923e-09
3.278704382e-08
1.016403266e-08
1.514721488e-08
9.699066971e-08
1.833173327e-08
2.092982438e-08
1.501779768e-07
2.506179235e-08
2.552264986e-08
1.865048401e-07
2.908688234e-08
2.90867017e-08
2.072587604e-07
3.19645504e-08
2.172467191e-07
3.460500349e-09
3.483633956e-08
7.70699255e-09
1.114082304e-08
1.021508127e-07
1.613181979e-08
2.002478012e-08
1.574832503e-07
2.190544362e-08
2.742477526e-08
1.952867135e-07
2.649749017e-08
3.196474354e-08
2.172467074e-07
3.021299763e-08
2.282396348e-07
3.340633135e-08
3.340654493e-08
8.269317327e-10
8.269390089e-10
3.328536761e-09
2.516907531e-09
1.548339731e-09
1.173509945e-08
4.536760164e-09
1.994374963e-09
1.930869764e-08
6.45108774e-09
2.413241103e-09
2.485700115e-08
7.94898977e-09
2.884548554e-09
2.840459514e-08
3.423703676e-09
3.053484108e-08
1.548324693e-09
2.516928777e-09
1.173510107e-08
5.085780576e-09
5.08582152e-09
3.765778047e-08
9.339432289e-09
6.796697681e-09
6.053226557e-08
1.321960982e-08
8.295338932e-09
7.707680389e-08
1.608150332e-08
9.744787524e-09
8.726853758e-08
1.12311746e-08
9.281674205e-08
1.994358812e-09
4.536795052e-09
1.930869918e-08
6.796658517e-09
9.33949252e-09
6.053226314e-08
1.261409798e-08
1.261414358e-08
9.661508576e-08
1.780307229e-08
1.546134392e-08
1.225313102e-07
2.14310012e-08
1.807449145e-08
1.382203162e-07
2.060742273e-08
1.463912884e-07
2.413228214e-09
6.451130549e-09
2.485700084e-08
8.29531356e-09
1.32196748e-08
7.707679276e-08
1.54613315e-08
1.78031006e-08
1.225312976e-07
2.181934275e-08
2.181931291e-08
1.550851206e-07
2.615296591e-08
2.549480263e-08
1.747508367e-07
2.901520822e-08
1.849852856e-07
2.884538684e-09
7.949036552e-09
2.840459156e-08
9.744774437e-09
1.608156215e-08
8.726851153e-08
1.807450639e-08
2.14309996e-08
1.382202833e-07
2.549487767e-08
2.615288391e-08
1.747508163e-07
3.057998273e-08
3.057984176e-08
1.970885188e-07
3.493252256e-08
2.09127296e-07
3.423692081e-09
3.053483259e-08
8.826841857e-09
1.1231164e-08
9.281669614e-08
1.760817354e-08
2.060745059e-08
1.463912296e-07
2.314667836e-08
2.901530737e-08
1.849852411e-07
2.804642513e-08
3.493269237e-08
2.091272733e-07
3.278179815e-08
2.228757642e-07
3.761438295e-08
3.761459953e-08
7.765498124e-10
7.76557385e-10
1.775431206e-09
2.526713822e-09
1.421171632e-09
8.563765751e-09
4.805254385e-09
1.767122887e-09
1.526303194e-08
7.130789496e-09
2.150364514e-09
2.03810941e-08
9.065247215e-09
2.712148735e-09
2.375797795e-08
3.447616176e-09
2.585812202e-08
1.421157706e-09
2.52673536e-09
8.563767457e-09
4.999249466e-09
4.99929245e-09
3.050156038e-08
9.648278299e-09
6.492889536e-09
5.115744868e-08
1.420142856e-08
7.939636053e-09
6.673435329e-08
1.781596559e-08
9.668934672e-09
7.66971858e-08
1.171733532e-08
8.237530929e-08
1.767104174e-09
4.805291879e-09
1.526303577e-08
6.492838561e-09
9.64835016e-09
5.115744969e-08
1.263100844e-08
1.263108657e-08
8.433867947e-08
1.849753447e-08
1.542788235e-08
1.091764887e-07
2.297965756e-08
1.85315539e-08
1.248755204e-07
2.202553202e-08
1.335560047e-07
2.150346308e-09
7.130840295e-09
2.03810991e-08
7.939588992e-09
1.420152016e-08
6.673435144e-08
1.542781957e-08
1.849762146e-08
1.091764826e-07
2.252181684e-08
2.252186858e-08
1.408970724e-07
2.784759494e-08
2.691472201e-08
1.610418163e-07
3.176334541e-08
1.723642905e-07
2.712133175e-09
9.065306257e-09
2.375798331e-08
9.668894608e-09
1.781606463e-08
7.66971758e-08
1.853151213e-08
2.297973666e-08
1.248755004e-07
2.691471063e-08
2.784761679e-08
1.610418008e-07
3.324463779e-08
3.324459754e-08
1.844286327e-07
3.924884133e-08
1.981925677e-07
3.447596806e-09
1.029440473e-08
2.585812775e-08
1.171729813e-08
1.998774863e-08
8.237528573e-08
2.202550519e-08
2.550675638e-08
1.335559623e-07
3.176336032e-08
3.073069146e-08
1.723642495e-07
3.924893346e-08
3.669368925e-08
1.981925284e-07
4.339938343e-08
2.145745605e-07
2.800076827e-08
2.400699453e-09
1.466174804e-07
2.229650017e-08
2.45426058e-09
1.804289176e-07
1.363488593e-08
2.653444109e-09
1.834262038e-07
8.456473685e-09
2.717522717e-09
1.799362189e-07
5.468036583e-09
2.719832905e-09
1.777251749e-07
2.687899046e-09
1.76433619e-07
3.750421588e-09
2.800649616e-08
1.700367757e-09
1.463049434e-07
2.231059298e-08
1.715143855e-09
1.800461258e-07
1.362459277e-08
1.867644212e-09
1.830829058e-07
8.425170485e-09
1.92590213e-09
1.796021489e-07
5.43402779e-09
1.937887575e-09
1.773841956e-07
1.921322369e-09
1.760903403e-07
3.721372064e-09
2.801058627e-08
1.172229027e-09
1.461286617e-07
2.232861666e-08
1.171977205e-09
1.79836246e-07
1.362842466e-08
1.280863169e-09
1.828980817e-07
8.412315357e-09
1.328044996e-09
1.79425075e-07
5.416555483e-09
1.342547129e-09
1.772022104e-07
1.335712305e-09
1.759087e-07
3.704575709e-09
2.801639117e-08
7.401287453e-10
1.460268208e-07
2.234582364e-08
7.364614609e-10
1.797171978e-07
1.363737794e-08
8.055836003e-10
1.827948382e-07
8.408887435e-09
8.386239641e-10
1.79329024e-07
5.408735707e-09
8.508452307e-10
1.771029672e-07
8.490956203e-10
1.758106983e-07
3.695767869e-09
2.802071996e-08
3.589693509e-10
1.459715539e-07
2.235860632e-08
3.56287163e-10
1.79653408e-07
1.364600426e-08
3.896424092e-10
1.827396609e-07
8.409397517e-09
4.06684877e-10
1.792796627e-07
5.406012104e-09
4.135643565e-10
1.770517837e-07
4.135605e-10
1.757608426e-07
3.691821709e-09
2.802311904e-08
-2.917548165e-14
1.459469968e-07
2.236526171e-08
-2.757766192e-14
1.79625297e-07
1.365090837e-08
-2.595022571e-14
1.827151435e-07
8.410334275e-09
-2.344145605e-14
1.792584027e-07
5.405301279e-09
-1.963270149e-14
1.770297373e-07
-1.508910623e-14
1.757395861e-07
3.690410264e-09
2.802311971e-08
-3.59025679e-10
1.459469968e-07
2.236526424e-08
-3.563407495e-10
1.796252973e-07
1.365091152e-08
-3.896930147e-10
1.827151447e-07
8.410337943e-09
-4.067307052e-10
1.792584036e-07
5.405305792e-09
-4.136033286e-10
1.770297379e-07
-4.13591073e-10
1.757395867e-07
3.690415403e-09
2.802072095e-08
-7.401796973e-10
1.45971555e-07
2.235861187e-08
-7.365096661e-10
1.79653409e-07
1.364601269e-08
-8.056299695e-10
1.827396628e-07
8.409408398e-09
-8.386667304e-10
1.792796647e-07
5.406025083e-09
-8.508825769e-10
1.770517855e-07
-8.491264683e-10
1.757608445e-07
3.691836523e-09
2.801639262e-08
-1.172271445e-09
1.460268221e-07
2.234583181e-08
-1.172017464e-09
1.797172002e-07
1.363739061e-08
-1.280902593e-09
1.82794841e-07
8.408903807e-09
-1.328082434e-09
1.793290271e-07
5.408755327e-09
-1.342581187e-09
1.771029701e-07
-1.335742275e-09
1.758107009e-07
3.695790088e-09
2.801058794e-08
-1.700399423e-09
1.461286634e-07
2.232862638e-08
-1.715174019e-09
1.79836249e-07
1.362843994e-08
-1.867674645e-09
1.828980851e-07
8.41233537e-09
-1.92593206e-09
1.794250787e-07
5.416579342e-09
-1.93791602e-09
1.772022138e-07
-1.921348944e-09
1.75908703e-07
3.704602464e-09
2.80064976e-08
-2.400719222e-09
1.463049453e-07
2.231060346e-08
-2.454279554e-09
1.80046129e-07
1.362460919e-08
-2.653463756e-09
1.830829092e-07
8.425191914e-09
-2.717542922e-09
1.796021524e-07
5.434053414e-09
-2.719853335e-09
1.773841987e-07
-2.687919662e-09
1.760903429e-07
3.721400435e-09
2.800076915e-08
1.46617482e-07
-3.40784892e-09
2.22965104e-08
1.804289206e-07
-3.567814833e-09
1.363490242e-08
1.834262069e-07
-3.806938854e-09
8.456495315e-09
1.79936222e-07
-3.864235149e-09
5.468062209e-09
1.777251774e-07
-3.845475737e-09
1.764336209e-07
-3.792809108e-09
3.750449381e-09
2.806450423e-08
5.297033268e-09
1.202320033e-07
3.055047928e-08
7.952554086e-09
1.804948172e-07
2.423358728e-08
7.353616856e-09
1.921926162e-07
1.774516269e-08
7.244043484e-09
1.8883313e-07
1.293178519e-08
7.256603394e-09
1.849476368e-07
7.257867131e-09
1.821238658e-07
9.651522349e-09
2.814573812e-08
3.94922429e-09
1.195070077e-07
3.063803534e-08
5.915644277e-09
1.795907301e-07
2.428569726e-08
5.439908495e-09
1.913489446e-07
1.775582768e-08
5.36940526e-09
1.880066494e-07
1.291803018e-08
5.379911442e-09
1.840986781e-07
5.383958236e-09
1.812513538e-07
9.630919216e-09
2.819837721e-08
2.814035717e-09
1.190654703e-07
3.069477859e-08
4.205192604e-09
1.790502934e-07
2.431540477e-08
3.858045257e-09
1.908593156e-07
1.775792171e-08
3.817586764e-09
1.875343732e-07
1.290422533e-08
3.824273236e-09
1.836115417e-07
3.829667767e-09
1.807539093e-07
9.613303873e-09
2.823480123e-08
1.811675797e-09
1.187943815e-07
3.073024474e-08
2.703342808e-09
1.787236077e-07
2.433196225e-08
2.47947031e-09
1.905716984e-07
1.775742377e-08
2.458212286e-09
1.872629387e-07
1.28941492e-08
2.461350764e-09
1.833291655e-07
2.466047817e-09
1.804672584e-07
9.601210643e-09
2.825623511e-08
8.876812344e-10
1.186393203e-07
3.075077969e-08
1.323579961e-09
1.78538637e-07
2.434239837e-08
1.214452498e-09
1.90413069e-07
1.775803e-08
1.205375273e-09
1.871168753e-07
1.28889066e-08
1.206367123e-09
1.831758965e-07
1.209032453e-09
1.803123071e-07
9.594462806e-09
2.826628815e-08
-3.012787657e-14
1.185684316e-07
3.076039738e-08
-3.207981688e-14
1.784548175e-07
2.434785202e-08
-2.796358469e-14
1.903421839e-07
1.775889784e-08
-2.462160328e-14
1.870527685e-07
1.288689305e-08
-2.075569542e-14
1.831081391e-07
-1.634832751e-14
1.802440284e-07
9.591507239e-09
2.826628882e-08
-8.877396905e-10
1.185684337e-07
3.076039891e-08
-1.323641524e-09
1.784548194e-07
2.434785554e-08
-1.214507049e-09
1.903421857e-07
1.775890173e-08
-1.205423222e-09
1.870527707e-07
1.288689749e-08
-1.206408241e-09
1.831081407e-07
-1.209065604e-09
1.802440295e-07
9.591512398e-09
2.82562373e-08
-1.81172822e-09
1.186393253e-07
3.075078582e-08
-2.703398762e-09
1.78538643e-07
2.434240725e-08
-2.479520112e-09
1.904130748e-07
1.775804089e-08
-2.458257049e-09
1.871168806e-07
1.288891922e-08