/*--------------------------------*- C++ -*----------------------------------*\
| =========                 |                                                 |
| \\      /  F ield         | OpenFOAM: The Open Source CFD Toolbox           |
|  \\    /   O peration     | Version:  4.x                                   |
|   \\  /    A nd           | Web:      www.OpenFOAM.org                      |
|    \\/     M anipulation  |                                                 |
\*---------------------------------------------------------------------------*/
FoamFile
{
    version     2.0;
    format      ascii;
    class       surfaceScalarField;
    location    "0.99";
    object      phi;
}
// * * * * * * * * * * * * * * * * * * * * * * * * * * * * * * * * * * * * * //

dimensions      [1 0 -1 0 0 0 0];

internalField   nonuniform List<scalar> 
17723
(
-8.966597423e-08
5.330814005e-08
2.380328321e-07
1.063520078e-07
-7.273481866e-08
5.362230371e-08
2.597145772e-07
-5.576495574e-08
5.468388125e-08
2.8105968e-07
-3.804677559e-08
5.576492073e-08
3.001960337e-07
-1.936340206e-08
5.67069547e-08
3.150798693e-07
5.207345713e-14
5.726965947e-08
3.232437635e-07
1.936351667e-08
5.726965895e-08
3.232438061e-07
3.80469267e-08
5.670696915e-08
3.150799716e-07
5.57651741e-08
5.576496104e-08
3.001961238e-07
7.273526999e-08
5.468393514e-08
2.810596635e-07
8.966607632e-08
5.362239993e-08
2.597145893e-07
5.330824842e-08
2.380329031e-07
1.063519287e-07
-8.942836365e-08
7.119748148e-08
2.28926609e-07
1.070577985e-07
-7.198088975e-08
7.123688662e-08
2.473193072e-07
-5.468390355e-08
7.198060536e-08
2.651551773e-07
-3.700087321e-08
7.273455963e-08
2.810596917e-07
-1.871335057e-08
7.336753145e-08
2.933876927e-07
5.032639766e-14
7.374035403e-08
3.00178067e-07
1.871346325e-08
7.374033479e-08
3.001781051e-07
3.700102356e-08
7.336750029e-08
2.933877938e-07
5.468411267e-08
7.273455782e-08
2.810597897e-07
7.198129187e-08
7.19805765e-08
2.651551637e-07
8.942846553e-08
7.12369408e-08
2.473194185e-07
7.11973528e-08
2.289266987e-07
1.070578653e-07
-8.911494655e-08
8.87211656e-08
2.188930411e-07
1.080176991e-07
-7.123673356e-08
8.911490204e-08
2.335080456e-07
-5.362215536e-08
8.942821338e-08
2.473191635e-07
-3.599189314e-08
8.966579569e-08
2.597143871e-07
-1.810351685e-08
8.983636398e-08
2.692295128e-07
3.572716802e-14
8.990835245e-08
2.744623309e-07
1.810358135e-08
8.990833889e-08
2.744623362e-07
3.599194541e-08
8.983632384e-08
2.692295335e-07
5.362221059e-08
8.966573278e-08
2.597143978e-07
7.123677675e-08
8.942811698e-08
2.473191408e-07
8.91149587e-08
8.911488157e-08
2.335080351e-07
8.872102203e-08
2.188927572e-07
1.080177859e-07
-8.872108195e-08
2.061247255e-07
1.078369236e-07
1.078370026e-07
-7.119728484e-08
2.188930221e-07
1.08017621e-07
-5.330786564e-08
2.289264395e-07
1.070577454e-07
-3.559411107e-08
2.380325582e-07
1.063519704e-07
-1.782754398e-08
2.446627534e-07
1.059538292e-07
2.945134435e-14
2.483207306e-07
1.056335263e-07
1.782757511e-08
2.483206947e-07
1.056335512e-07
3.559406652e-08
2.4466266e-07
1.059538812e-07
5.330769776e-08
2.38032414e-07
1.063520378e-07
7.119694023e-08
2.289262446e-07
1.070578386e-07
8.872097039e-08
2.188925847e-07
1.08017656e-07
2.061244275e-07
1.078369209e-07
1.078368762e-07
-8.362554222e-08
4.955230693e-08
2.07953266e-07
9.752691962e-08
-6.859871908e-08
5.006069206e-08
2.284449813e-07
-5.286581904e-08
5.159692933e-08
2.4878551e-07
-3.610479264e-08
5.286579764e-08
2.66673929e-07
-1.836440817e-08
5.393254492e-08
2.804268361e-07
3.254368208e-14
5.457169028e-08
2.878869866e-07
1.836448895e-08
5.457168616e-08
2.878870231e-07
3.61049129e-08
5.393254057e-08
2.804269416e-07
5.286595991e-08
5.286580388e-08
2.666740733e-07
6.859886693e-08
5.159693444e-08
2.487856236e-07
8.362555568e-08
5.006080641e-08
2.284451503e-07
4.955240869e-08
2.079533738e-07
9.752693504e-08
-8.257107589e-08
6.565959508e-08
1.986365348e-07
9.675382063e-08
-6.742191799e-08
6.605473829e-08
2.161760594e-07
-5.159698564e-08
6.742184637e-08
2.335052709e-07
-3.505575842e-08
6.859868225e-08
2.487855371e-07
-1.776983146e-08
6.954292827e-08
2.604913481e-07
3.37233168e-14
7.011329645e-08
2.668665646e-07
1.776990404e-08
7.011328003e-08
2.668666125e-07
3.505584176e-08
6.954288808e-08
2.60491478e-07
5.15970492e-08
6.859864277e-08
2.487857064e-07
6.742196533e-08
6.742176192e-08
2.335053798e-07
8.25711079e-08
6.605482305e-08
2.161762182e-07
6.56596906e-08
1.986365809e-07
9.675389236e-08
-8.161661981e-08
8.06180335e-08
1.882431699e-07
9.730801756e-08
-6.605468823e-08
8.161661749e-08
2.023842043e-07
-5.00606552e-08
8.257104868e-08
2.161758874e-07
-3.381796254e-08
8.362553011e-08
2.28444815e-07
-1.706765246e-08
8.420611683e-08
2.378159836e-07
2.621319865e-14
8.462063677e-08
2.428872824e-07
1.706769386e-08
8.46206118e-08
2.42887308e-07
3.381798013e-08
8.420604598e-08
2.378160561e-07
5.006065354e-08
8.362542989e-08
2.284448971e-07
6.605466815e-08
8.25709434e-08
2.161759013e-07
8.161668076e-08
8.161667182e-08
2.023841295e-07
8.061804831e-08
1.882429994e-07
9.730803118e-08
-8.061795815e-08
1.755718125e-07
9.589439062e-08
9.589447039e-08
-6.565952291e-08
1.882431481e-07
9.730801865e-08
-4.955225618e-08
1.986363864e-07
9.675379408e-08
-3.337414099e-08
2.079530644e-07
9.752687368e-08
-1.678050891e-08
2.148312387e-07
9.744396523e-08
2.818990372e-14
2.184807565e-07
9.768003942e-08
1.678054765e-08
2.184807395e-07
9.768001195e-08
3.337412846e-08
2.148311874e-07
9.744389771e-08
4.955222774e-08
2.079529544e-07
9.752674536e-08
6.565948872e-08
1.986361981e-07
9.675368131e-08
8.061792608e-08
1.882428444e-07
9.73079245e-08
1.755716433e-07
9.589437276e-08
9.589432854e-08
-7.953474373e-08
4.729504326e-08
1.819972957e-07
9.043526497e-08
-6.6658686e-08
4.763799209e-08
2.005021446e-07
-5.236960518e-08
5.013904114e-08
2.188950747e-07
-3.625159074e-08
5.236956191e-08
2.344378438e-07
-1.854718322e-08
5.402289108e-08
2.462030056e-07
-5.971934349e-15
5.486005881e-08
2.526122929e-07
1.854718117e-08
5.486004333e-08
2.526123101e-07
3.625162294e-08
5.402286465e-08
2.46203066e-07
5.236967331e-08
5.23695568e-08
2.344379481e-07
6.665879873e-08
5.013905784e-08
2.188951782e-07
7.953486517e-08
4.763809675e-08
2.005022924e-07
4.729513462e-08
1.81997398e-07
9.043538666e-08
-7.747216967e-08
6.169275474e-08
1.723149214e-07
8.939604237e-08
-6.433497205e-08
6.188404671e-08
1.887927729e-07
-5.013909474e-08
6.433495665e-08
2.051134446e-07
-3.453779179e-08
6.66586842e-08
2.188950858e-07
-1.762248202e-08
6.836941748e-08
2.292294898e-07
-1.213760766e-14
6.926349333e-08
2.348406433e-07
1.762246906e-08
6.926349162e-08
2.348406688e-07
3.453781171e-08
6.83694185e-08
2.292295625e-07
5.013913765e-08
6.665871413e-08
2.188951968e-07
6.433504456e-08
6.433496981e-08
2.051135314e-07
7.747227782e-08
6.18841534e-08
1.887929006e-07
6.1692841e-08
1.723149896e-07
8.939612853e-08
-7.534662527e-08
7.430823185e-08
1.620033793e-07
8.897091234e-08
-6.188397516e-08
7.534668528e-08
1.754588832e-07
-4.763797343e-08
7.747215747e-08
1.887926623e-07
-3.257126781e-08
7.953472731e-08
2.005020457e-07
-1.654968322e-08
8.10746243e-08
2.090891727e-07
-8.364717944e-15
8.180545245e-08
2.13795634e-07
1.654967098e-08
8.180545424e-08
2.137956536e-07
3.257127502e-08
8.107462452e-08
2.09089228e-07
4.763800709e-08
7.95347264e-08
2.005021274e-07
6.188402321e-08
7.747211958e-08
1.887927063e-07
7.534670195e-08
7.534669114e-08
1.754588857e-07
7.43082411e-08
1.620033292e-07
8.89709358e-08
-7.430816185e-08
1.486078189e-07
8.779014946e-08
8.779019907e-08
-6.169269155e-08
1.620033408e-07
8.897098475e-08
-4.729501169e-08
1.723147979e-07
8.939603561e-08
-3.223959931e-08
1.819971558e-07
9.04351949e-08
-1.632170145e-08
1.883851715e-07
9.160276795e-08
1.562218053e-14
1.920091133e-07
9.195535742e-08
1.63217265e-08
1.920091125e-07
9.195534988e-08
3.223960137e-08
1.883851709e-07
9.160273995e-08
4.729500441e-08
1.819971298e-07
9.043511546e-08
6.169265446e-08
1.723147368e-07
8.939589312e-08
7.430812241e-08
1.620032171e-07
8.897081324e-08
1.486077361e-07
8.779013752e-08
8.779008576e-08
-7.532287693e-08
4.304496098e-08
1.576282509e-07
8.630294754e-08
-6.296232841e-08
4.41844225e-08
1.743304846e-07
-4.931336951e-08
4.721087218e-08
1.905185455e-07
-3.393906284e-08
4.931333889e-08
2.03689198e-07
-1.734534469e-08
5.098268798e-08
2.138164452e-07
9.240255441e-15
5.202065843e-08
2.192385896e-07
1.734536577e-08
5.20206527e-08
2.192386064e-07
3.39391039e-08
5.09826802e-08
2.13816495e-07
4.931342804e-08
4.931335493e-08
2.036892895e-07
6.296241372e-08
4.721090266e-08
1.905186465e-07
7.53230002e-08
4.418450045e-08
1.743305975e-07
4.304503015e-08
1.576283316e-07
8.630307487e-08
-7.204735183e-08
5.617854895e-08
1.490654401e-07
8.21632173e-08
-6.04490651e-08
5.733512132e-08
1.640437582e-07
-4.721090301e-08
6.044904294e-08
1.786370841e-07
-3.248336672e-08
6.296231122e-08
1.905185524e-07
-1.659689603e-08
6.472494963e-08
1.996007381e-07
9.597483854e-16
6.581206348e-08
2.044523293e-07
1.659690282e-08
6.581206158e-08
2.044523484e-07
3.248339294e-08
6.472494823e-08
1.996007891e-07
4.721094513e-08
6.296233944e-08
1.905186377e-07
6.044912545e-08
6.04490616e-08
1.786371644e-07
7.204746931e-08
5.733518336e-08
1.640438452e-07
5.617860531e-08
1.49065499e-07
8.216335224e-08
-6.929005362e-08
6.632646863e-08
1.38849216e-07
8.229626538e-08
-5.733506332e-08
6.929009994e-08
1.515488792e-07
-4.418439229e-08
7.204732691e-08
1.640436829e-07
-3.037333403e-08
7.532286236e-08
1.74330412e-07
-1.544955247e-08
7.683948543e-08
1.82050836e-07
-6.371951435e-15
7.802038472e-08
1.861377553e-07
1.544954527e-08
7.802038285e-08
1.861377708e-07
3.037333974e-08
7.683948831e-08
1.820508772e-07
4.418442822e-08
7.532287978e-08
1.74330475e-07
5.733510346e-08
7.204733767e-08
1.640437248e-07
6.929012677e-08
6.929012065e-08
1.515488943e-07
6.632648592e-08
1.388492129e-07
8.2296326e-08
-6.632638805e-08
1.265485291e-07
7.735601105e-08
7.735609461e-08
-5.617847439e-08
1.388491892e-07
8.229629866e-08
-4.304492081e-08
1.490653553e-07
8.216318264e-08
-2.965600564e-08
1.576281678e-07
8.630290437e-08
-1.496626398e-08
1.637226433e-07
8.681224908e-08
3.468027476e-15
1.670100907e-07
8.805312416e-08
1.496627093e-08
1.670100949e-07
8.805311703e-08
2.965600511e-08
1.637226567e-07
8.681224633e-08
4.304493839e-08
1.576281747e-07
8.630287227e-08
5.617847779e-08
1.490653435e-07
8.216315451e-08
6.632640132e-08
1.388491394e-07
8.22962368e-08
1.265485119e-07
7.735603871e-08
7.735602991e-08
-7.518878906e-08
4.41493499e-08
1.366488991e-07
8.291030918e-08
-6.603827379e-08
4.546607657e-08
1.515172999e-07
-5.300318355e-08
4.923108196e-08
1.628116428e-07
-3.736971412e-08
5.300314411e-08
1.724222383e-07
-1.937447592e-08
5.592834802e-08
1.794274093e-07
3.119810156e-15
5.72875982e-08
1.829293791e-07
1.937448482e-08
5.728759611e-08
1.82929387e-07
3.736973847e-08
5.592834958e-08
1.79427434e-07
5.300323249e-08
5.300317009e-08
1.724222934e-07
6.603835378e-08
4.923111882e-08
1.628117176e-07
7.518889021e-08
4.546613075e-08
1.515173946e-07
4.414941007e-08
1.366489557e-07
8.291042708e-08
-7.083987432e-08
5.599555205e-08
1.291004172e-07
7.8958672e-08
-6.179576496e-08
5.758114196e-08
1.428845525e-07
-4.923111725e-08
6.179574355e-08
1.535077502e-07
-3.455933144e-08
6.603824564e-08
1.628116435e-07
-1.783929404e-08
6.923935962e-08
1.69569674e-07
4.079576703e-16
7.083663604e-08
1.730639892e-07
1.783929678e-08
7.083664036e-08
1.730640014e-07
3.455934477e-08
6.923937117e-08
1.695697071e-07
4.923114837e-08
6.603828178e-08
1.628117035e-07
6.17958197e-08
6.179577413e-08
1.535078132e-07
7.083996431e-08
5.758118427e-08
1.428846206e-07
5.599560741e-08
1.291004597e-07
7.895877806e-08
-6.665497354e-08
6.365728008e-08
1.21456244e-07
7.638618715e-08
-5.758111362e-08
6.665501521e-08
1.334011058e-07
-4.546607371e-08
7.083988597e-08
1.428844738e-07
-3.180344173e-08
7.518878709e-08
1.515172149e-07
-1.637406808e-08
7.82847646e-08
1.575760428e-07
9.444971159e-16
7.989855406e-08
1.607017618e-07
1.637407096e-08
7.989855271e-08
1.607017818e-07
3.1803447e-08
7.828476501e-08
1.575760935e-07
4.546609312e-08
7.518880199e-08
1.515172873e-07
5.758114553e-08
7.083989173e-08
1.428845264e-07
6.66550408e-08
6.66550275e-08
1.334011247e-07
6.365730989e-08
1.214562572e-07
7.638626099e-08
-6.365721926e-08
1.082783296e-07
7.279230379e-08
7.279235726e-08
-5.599550784e-08
1.214562238e-07
7.638622456e-08
-4.414934698e-08
1.291003571e-07
7.895868949e-08
-3.089155065e-08
1.366488395e-07
8.291029206e-08
-1.584982737e-08
1.411112505e-07
8.585441803e-08
7.152538208e-15
1.436365856e-07
8.742221558e-08
1.584984068e-08
1.436365904e-07
8.742221255e-08
3.089155612e-08
1.411112657e-07
8.585442227e-08
4.414935894e-08
1.366488567e-07
8.29102906e-08
5.599552514e-08
1.291003651e-07
7.895867101e-08
6.365725507e-08
1.214562087e-07
7.638619272e-08
1.082783233e-07
7.279236244e-08
7.279235515e-08
-8.028448586e-08
4.226503411e-08
1.127371881e-07
9.133724366e-08
-6.619636e-08
4.464734593e-08
1.236855718e-07
-5.118236624e-08
4.875268893e-08
1.326231912e-07
-3.484969702e-08
5.118234423e-08
1.397568652e-07
-1.770126689e-08
5.259015658e-08
1.452300203e-07
-8.720448414e-15
5.335931942e-08
1.482930241e-07
1.770125225e-08
5.335931231e-08
1.482930341e-07
3.484968433e-08
5.259014083e-08
1.452300446e-07
5.118236785e-08
5.118234344e-08
1.397569003e-07
6.619639566e-08
4.875270775e-08
1.326232305e-07
8.02845699e-08
4.464738046e-08
1.236856115e-07
4.226507051e-08
1.127372207e-07
9.133733539e-08
-7.558947023e-08
5.569017e-08
1.06415298e-07
8.484943288e-08
-6.28800426e-08
5.826830982e-08
1.165541218e-07
-4.875270787e-08
6.288005604e-08
1.252530276e-07
-3.357830322e-08
6.619637899e-08
1.326231883e-07
-1.716924086e-08
6.807941638e-08
1.37671343e-07
-1.692273411e-14
6.9080369e-08
1.401737124e-07
1.716921149e-08
6.908036455e-08
1.401737179e-07
3.357828653e-08
6.807940664e-08
1.376713583e-07
4.875271624e-08
6.619638682e-08
1.326232161e-07
6.288007808e-08
6.288007929e-08
1.252530599e-07
7.558955726e-08
5.826834679e-08
1.165541534e-07
5.569020508e-08
1.064153259e-07
8.484953463e-08
-7.091296155e-08
6.454596305e-08
9.917977871e-08
8.433360144e-08
-5.826826266e-08
7.091301688e-08
1.081116544e-07
-4.464733479e-08
7.558947762e-08
1.165540995e-07
-3.090379962e-08
8.028449082e-08
1.236855481e-07
-1.571598028e-08
8.201968973e-08
1.284479401e-07
-1.597951682e-14
8.325180191e-08
1.308143618e-07
1.571595459e-08
8.325180614e-08
1.308143657e-07
3.090378785e-08
8.20197045e-08
1.284479511e-07
4.46473549e-08
8.028451885e-08
1.236855682e-07
5.826830042e-08
7.55895125e-08
1.165541208e-07
7.091303142e-08
7.091304028e-08
1.081116694e-07
6.454599633e-08
9.91797888e-08
8.433367832e-08
-6.45458962e-08
9.023809047e-08
7.356600343e-08
7.356605737e-08
-5.569012419e-08
9.917977188e-08
8.433365043e-08
-4.226502466e-08
1.064152708e-07
8.484943391e-08
-2.940611898e-08
1.127371617e-07
9.133724172e-08
-1.474125951e-08
1.164452272e-07
9.202084333e-08
-7.750169314e-15
1.184723071e-07
9.367482419e-08
1.474124763e-08
1.18472308e-07
9.367482576e-08
2.940611184e-08
1.164452312e-07
9.202085907e-08
4.226504119e-08
1.127371665e-07
9.133725417e-08
5.569014811e-08
1.064152779e-07
8.484946215e-08
6.454594983e-08
9.917976704e-08
8.433364625e-08
9.023809405e-08
7.35660739e-08
7.356606807e-08
7.287476174e-08
-3.820915114e-08
1.370135331e-07
-8.401723314e-08
6.047420482e-08
-4.198411578e-08
1.504277817e-07
4.577363577e-08
-4.651740093e-08
1.626740132e-07
2.997803771e-08
-4.577362599e-08
1.713480326e-07
1.448376644e-08
-4.427597096e-08
1.769687937e-07
-9.597297186e-16
-4.335982243e-08
1.792796851e-07
-1.448376653e-08
-4.33598219e-08
1.792796871e-07
-2.997803162e-08
-4.427596926e-08
1.769688006e-07
-4.577361637e-08
-4.577362096e-08
1.713480486e-07
-6.047417074e-08
-4.651739821e-08
1.626740358e-07
-7.287471571e-08
-4.198410819e-08
1.504278066e-07
-3.820913452e-08
1.370135624e-07
-8.401718833e-08
7.269670849e-08
-5.010392845e-08
1.283152927e-07
-8.27019413e-08
6.074220626e-08
-5.479156009e-08
1.41316048e-07
4.651740907e-08
-6.074217377e-08
1.537025807e-07
3.116712433e-08
-6.047417068e-08
1.62674006e-07
1.563515001e-08
-5.98112991e-08
1.687386397e-07
-3.450951317e-15
-5.928514699e-08
1.717341881e-07
-1.563515379e-08
-5.928514352e-08
1.717341883e-07
-3.116712209e-08
-5.981128911e-08
1.68738642e-07
-4.651739113e-08
-6.047416018e-08
1.62674015e-07
-6.074217122e-08
-6.07421651e-08
1.537025938e-07
-7.269665549e-08
-5.479155131e-08
1.413160655e-07
-5.010391111e-08
1.283153165e-07
-8.270188398e-08
6.612252987e-08
-6.271825352e-08
1.185967762e-07
-7.292522715e-08
5.479160236e-08
-6.61224635e-08
1.307734616e-07
4.198412917e-08
-7.269665629e-08
1.413160399e-07
2.764243844e-08
-7.287470821e-08
1.504277656e-07
1.381639777e-08
-7.397552894e-08
1.564382057e-07
-8.746516861e-15
-7.414659456e-08
1.59492215e-07
-1.381640867e-08
-7.414659235e-08
1.594922132e-07
-2.764243661e-08
-7.397551913e-08
1.564382028e-07
-4.198410553e-08
-7.287470064e-08
1.504277649e-07
-5.479156523e-08
-7.269664443e-08
1.413160431e-07
-6.612247263e-08
-6.612245494e-08
1.307734627e-07
-6.271822675e-08
1.185967758e-07
-7.292516142e-08
6.27183133e-08
1.063440982e-07
-7.077131433e-08
-7.077128414e-08
5.010396855e-08
1.185967751e-07
-7.292515072e-08
3.820916096e-08
1.283152761e-07
-8.270187358e-08
2.507525562e-08
1.370135067e-07
-8.401716126e-08
1.264912997e-08
1.424954413e-07
-8.759962385e-08
-9.199180294e-16
1.453941723e-07
-8.84193309e-08
-1.264912783e-08
1.453941713e-07
-8.841933257e-08
-2.50752465e-08
1.424954394e-07
-8.759961946e-08
-3.820913351e-08
1.370135027e-07
-8.401716828e-08
-5.010392957e-08
1.283152731e-07
-8.27018647e-08
-6.271824839e-08
1.185967635e-07
-7.292515234e-08
1.063440913e-07
-7.077125162e-08
-7.077124019e-08
1.123540313e-07
-6.592203141e-08
1.64506108e-07
-1.187944612e-07
1.004828863e-07
-6.830492561e-08
1.827865873e-07
8.327573919e-08
-7.409849375e-08
2.027476885e-07
5.918344467e-08
-8.327571327e-08
2.195325976e-07
3.076376664e-08
-8.898049195e-08
2.300840332e-07
3.86871743e-15
-9.099291023e-08
2.351847136e-07
-3.076375621e-08
-9.099291107e-08
2.35184717e-07
-5.918342914e-08
-8.898049497e-08
2.300840421e-07
-8.327571981e-08
-8.327571861e-08
2.195326168e-07
-1.004828657e-07
-7.409848997e-08
2.027477148e-07
-1.123540038e-07
-6.830490572e-08
1.827866127e-07
-6.592200696e-08
1.6450614e-07
-1.187944348e-07
1.03776386e-07
-8.12284276e-08
1.516865668e-07
-1.118412774e-07
9.066135008e-08
-8.322740628e-08
1.693535497e-07
7.409852052e-08
-9.066130776e-08
1.86828207e-07
5.123196919e-08
-1.004828408e-07
2.027476738e-07
2.593880318e-08
-1.073122317e-07
2.123635392e-07
5.2828239e-15
-1.101500718e-07
2.168301435e-07
-2.593878883e-08
-1.101500755e-07
2.168301436e-07
-5.123194766e-08
-1.073122395e-07
2.12363541e-07
-7.409849015e-08
-1.004828488e-07
2.027476811e-07
-9.06613131e-08
-9.066130098e-08
1.868282192e-07
-1.037763362e-07
-8.322738894e-08
1.693535617e-07
-8.122840865e-08
1.516865876e-07
-1.118412177e-07
9.450336099e-08
-9.334207474e-08
1.343744452e-07
-9.816739973e-08
8.322745171e-08
-9.450329844e-08
1.533252483e-07
6.830495522e-08
-1.037763239e-07
1.693535406e-07
4.781727775e-08
-1.123539686e-07
1.827865636e-07
2.460837437e-08
-1.193477298e-07
1.916826036e-07
1.976877729e-14
-1.222391445e-07
1.961896416e-07
-2.460833413e-08
-1.222391466e-07
1.961896376e-07
-4.781723819e-08
-1.193477321e-07
1.916825955e-07
-6.830491441e-08
-1.123539725e-07
1.827865554e-07
-8.322740894e-08
-1.03776314e-07
1.693535366e-07
-9.450330979e-08
-9.450328364e-08
1.533252444e-07
-9.334204394e-08
1.343744428e-07
-9.816735584e-08
9.334214733e-08
1.130120556e-07
-9.667613567e-08
-9.667606262e-08
8.122847815e-08
1.34374441e-07
-9.816731658e-08
6.592205579e-08
1.516865527e-07
-1.118411923e-07
4.486989011e-08
1.645060805e-07
-1.187943859e-07
2.274255231e-08
1.716528487e-07
-1.263778038e-07
1.373541012e-14
1.750625424e-07
-1.291649766e-07
-2.274252417e-08
1.750625399e-07
-1.291649793e-07
-4.486986068e-08
1.716528424e-07
-1.263778063e-07
-6.592201724e-08
1.645060723e-07
-1.187943996e-07
-8.122843119e-08
1.516865463e-07
-1.118411905e-07
-9.334207539e-08
1.343744321e-07
-9.816732338e-08
1.130120538e-07
-9.66760401e-08
-9.667605822e-08
1.441651181e-07
-7.595676394e-08
2.006936641e-07
-1.550980801e-07
1.174994945e-07
-8.542768428e-08
2.388400496e-07
8.408424511e-08
-8.76645655e-08
2.654038437e-07
5.250333759e-08
-8.408420683e-08
2.826943863e-07
2.497542165e-08
-8.32852944e-08
2.917049782e-07
1.771510042e-14
-8.246600192e-08
2.946326819e-07
-2.497538731e-08
-8.246600224e-08
2.946326845e-07
-5.250329862e-08
-8.328528985e-08
2.917049906e-07
-8.408419535e-08
-8.408419237e-08
2.826944088e-07
-1.17499433e-07
-8.766453881e-08
2.65403873e-07
-1.441650469e-07
-8.542765975e-08
2.388400735e-07
-7.595674917e-08
2.006936966e-07
-1.550980012e-07
1.432256754e-07
-9.962299145e-08
1.824271731e-07
-1.503000625e-07
1.18199259e-07
-1.13632833e-07
2.225851034e-07
8.766460133e-08
-1.181992187e-07
2.47897505e-07
5.842368757e-08
-1.174994501e-07
2.654038223e-07
2.95829428e-08
-1.193124424e-07
2.77231426e-07
3.694553358e-14
-1.193591437e-07
2.833061869e-07
-2.958287548e-08
-1.193591369e-07
2.833061877e-07
-5.842363086e-08
-1.19312422e-07
2.772314261e-07
-8.766454599e-08
-1.174994234e-07
2.654038251e-07
-1.181991927e-07
-1.181991875e-07
2.478975127e-07
-1.432255862e-07
-1.136328091e-07
2.225851033e-07
-9.962297249e-08
1.824271859e-07
-1.502999638e-07
1.356135592e-07
-1.249768689e-07
1.56233384e-07
-1.32118631e-07
1.136328774e-07
-1.356134981e-07
1.972865848e-07
8.542771483e-08
-1.432256141e-07
2.225850909e-07
5.603986949e-08
-1.441650639e-07
2.388400173e-07
2.75539765e-08
-1.478434368e-07
2.486994877e-07
2.239179904e-14
-1.490555364e-07
2.53439988e-07
-2.755393351e-08
-1.490555273e-07
2.534399841e-07
-5.603982958e-08
-1.4784341e-07
2.486994773e-07
-8.542767023e-08
-1.441650345e-07
2.388400006e-07
-1.136328181e-07
-1.432255854e-07
2.225850711e-07
-1.356134836e-07
-1.356134804e-07
1.972865694e-07
-1.249768436e-07
1.562333747e-07
-1.321185554e-07
1.249769443e-07
1.184455022e-07
-1.276936744e-07
-1.276936e-07
9.962305608e-08
1.562333775e-07
-1.321185613e-07
7.595680012e-08
1.824271568e-07
-1.502999713e-07
5.070218881e-08
2.006936312e-07
-1.550980093e-07
2.557964124e-08
2.113613024e-07
-1.624293451e-07
1.382594567e-14
2.165916095e-07
-1.65004975e-07
-2.557960995e-08
2.165916073e-07
-1.650049704e-07
-5.070215078e-08
2.113612947e-07
-1.624293264e-07
-7.595674776e-08
2.006936189e-07
-1.550979936e-07
-9.962298402e-08
1.824271415e-07
-1.502999567e-07
-1.249768574e-07
1.562333609e-07
-1.321185484e-07
1.184454996e-07
-1.276935726e-07
-1.276935876e-07
2.419124956e-07
-1.263705593e-07
2.620338996e-07
-2.595967632e-07
2.101297613e-07
-1.223715211e-07
3.130785901e-07
1.68107748e-07
-1.452049996e-07
3.591459562e-07
1.153761802e-07
-1.681077066e-07
3.881575093e-07
5.840378301e-08
-1.755102643e-07
4.010171092e-07
2.74412912e-14
-1.769930052e-07
4.066932938e-07
-5.840372762e-08
-1.769929977e-07
4.066933004e-07
-1.153761196e-07
-1.755102421e-07
4.010171164e-07
-1.681076787e-07
-1.681076831e-07
3.881575209e-07
-2.101296681e-07
-1.45204985e-07
3.591459584e-07
-2.419123737e-07
-1.223715045e-07
3.130785802e-07
-1.26370521e-07
2.62033909e-07
-2.595966326e-07
2.260653858e-07
-1.619913969e-07
2.352169537e-07
-2.432343327e-07
1.908036433e-07
-1.617136999e-07
2.971890168e-07
1.452050412e-07
-1.908035763e-07
3.390946756e-07
9.348491878e-08
-2.101296968e-07
3.591459289e-07
4.478801828e-08
-2.193603006e-07
3.697783588e-07
1.012765421e-14
-2.238208879e-07
3.74922076e-07
-4.47879908e-08
-2.238208785e-07
3.749220696e-07
-9.348487155e-08
-2.193602715e-07
3.69778337e-07
-1.452049667e-07
-2.101296581e-07
3.591458971e-07
-1.908035348e-07
-1.908035383e-07
3.390946384e-07
-2.260652519e-07
-1.617136624e-07
2.971889849e-07
-1.619913406e-07
2.352169482e-07
-2.432341874e-07
1.941597992e-07
-1.888082545e-07
1.926585041e-07
-2.037680681e-07
1.617137747e-07
-1.941597308e-07
2.621786345e-07
1.223715882e-07
-2.260653039e-07
2.971890004e-07
7.991576886e-08
-2.419124122e-07
3.130785489e-07
3.956970816e-08
-2.508688543e-07
3.205541012e-07
3.105252754e-14
-2.550613413e-07
3.242501207e-07
-3.956964303e-08
-2.550613327e-07
3.242501157e-07
-7.991569256e-08
-2.508688291e-07
3.205540858e-07
-1.223714902e-07
-2.419123813e-07
3.130785193e-07
-1.617136666e-07
-2.260652604e-07
2.971889637e-07
-1.941596888e-07
-1.941596795e-07
2.62178603e-07
-1.88808189e-07
1.926584881e-07
-2.037679579e-07
1.888083124e-07
1.220819436e-07
-1.906265365e-07
-1.906264814e-07
1.619914633e-07
1.926584976e-07
-2.037680099e-07
1.26370626e-07
2.352169324e-07
-2.43234247e-07
8.271465649e-08
2.62033856e-07
-2.595966699e-07
4.053315516e-08
2.743653187e-07
-2.716913681e-07
5.347891575e-14
2.786375816e-07
-2.765742072e-07
-4.053305793e-08
2.786375876e-07
-2.765741977e-07
-8.271457787e-08
2.743653258e-07
-2.716913404e-07
-1.263705577e-07
2.620338496e-07
-2.595966344e-07
-1.619913916e-07
2.35216907e-07
-2.432341962e-07
-1.888082355e-07
1.926584692e-07
-2.037679503e-07
1.220819354e-07
-1.906264168e-07
-1.906264506e-07
3.639391669e-07
-9.332630754e-08
3.599670085e-07
2.314554494e-07
-1.078071386e-07
5.085011163e-07
1.419496446e-07
-1.015445043e-07
5.086778333e-07
9.232962058e-08
-8.974840411e-08
4.958099478e-07
4.650749039e-08
-9.232960171e-08
5.069810389e-07
1.05998638e-14
-9.420097331e-08
5.127659961e-07
-4.650746589e-08
-9.420096833e-08
5.127660111e-07
-9.232958886e-08
-9.232958922e-08
5.069810729e-07
-1.419495835e-07
-8.974837387e-08
4.958099749e-07
-2.314553072e-07
-1.015444502e-07
5.086778316e-07
-3.63938978e-07
-1.078070954e-07
5.085011034e-07
-9.332631144e-08
3.59967012e-07
3.48333794e-07
-1.437027631e-07
3.519477412e-07
-3.878711777e-07
2.236151903e-07
-1.678074904e-07
4.9779755e-07
1.389969753e-07
-1.526680794e-07
4.948877402e-07
8.974842329e-08
-1.389969218e-07
4.866545767e-07
4.457562763e-08
-1.41949598e-07
4.958098999e-07
1.621897173e-14
-1.455387711e-07
5.026067031e-07
-4.457558737e-08
-1.455387679e-07
5.026067049e-07
-8.97483719e-08
-1.419495871e-07
4.95809903e-07
-1.389968885e-07
-1.389968939e-07
4.866545663e-07
-2.236150291e-07
-1.526680268e-07
4.948877002e-07
-3.483335858e-07
-1.678074197e-07
4.977975099e-07
-1.437027109e-07
3.519477521e-07
-3.878710054e-07
3.326304698e-07
-2.003691726e-07
3.317363455e-07
-3.724834481e-07
2.241703016e-07
-2.310159697e-07
4.688576619e-07
1.526681667e-07
-2.241702169e-07
4.820989437e-07
1.015445782e-07
-2.236151034e-07
4.948876967e-07
5.215095602e-08
-2.314553552e-07
5.086777384e-07
6.543167012e-14
-2.345171281e-07
5.160513263e-07
-5.215082433e-08
-2.345171187e-07
5.160513133e-07
-1.015444503e-07
-2.314553286e-07
5.086777058e-07
-1.526680347e-07
-2.23615057e-07
4.948876427e-07
-2.241701456e-07
-2.241701486e-07
4.820988683e-07
-3.326302924e-07
-2.310158781e-07
4.688575994e-07
-2.003690776e-07
3.317363288e-07
-3.724832801e-07
3.102777461e-07
-2.725896908e-07
2.947651013e-07
-3.401638276e-07
2.310160191e-07
-3.102777179e-07
4.20702107e-07
1.678075693e-07
-3.326304058e-07
4.688576381e-07
1.078072346e-07
-3.483337044e-07
4.977974852e-07
5.234402388e-08
-3.639390467e-07
5.08501007e-07
8.370160217e-14
-3.697808051e-07
5.11857744e-07
-5.234387436e-08
-3.697807877e-07
5.118577494e-07
-1.078071249e-07
-3.639389971e-07
5.085010092e-07
-1.678074927e-07
-3.48333629e-07
4.977974597e-07
-2.310159481e-07
-3.326303164e-07
4.68857583e-07
-3.102776539e-07
-3.102776251e-07
4.207020525e-07
-2.725895901e-07
2.947650718e-07
-3.401637216e-07
2.725896848e-07
1.997305266e-07
-3.114139847e-07
-3.114139777e-07
2.003691664e-07
2.947650902e-07
-3.401637951e-07
1.437027617e-07
3.317363086e-07
-3.724833785e-07
9.332631732e-08
3.519476869e-07
-3.878710892e-07
4.586548012e-08
3.599669382e-07
-4.020798237e-07
1.200019639e-14
3.629471432e-07
-4.082248904e-07
-4.586546055e-08
3.62947159e-07
-4.082248798e-07
-9.33263056e-08
3.599669719e-07
-4.020797945e-07
-1.437027528e-07
3.519477111e-07
-3.878710409e-07
-2.003691517e-07
3.317363037e-07
-3.724833131e-07
-2.72589653e-07
2.947650592e-07
-3.401637155e-07
1.997305071e-07
-3.11413893e-07
-3.114139233e-07
6.144795319e-07
-1.034873914e-07
6.098862183e-07
4.428491305e-07
-1.270341841e-07
7.479889637e-07
2.946661242e-07
-1.632866762e-07
7.482223431e-07
1.701752443e-07
-1.720646842e-07
7.131709683e-07
7.91247511e-08
-1.701751814e-07
6.890820132e-07
5.220353503e-14
-1.686253447e-07
6.822458193e-07
-7.912464561e-08
-1.686253295e-07
6.822458407e-07
-1.701751241e-07
-1.701751332e-07
6.890820518e-07
-2.946659484e-07
-1.720646151e-07
7.131709733e-07
-4.428488955e-07
-1.632866189e-07
7.482222937e-07
-6.144793046e-07
-1.270341802e-07
7.479889134e-07
-1.034874345e-07
6.098861909e-07
5.99937569e-07
-1.701065256e-07
-7.950500253e-07
6.136793418e-07
4.352004375e-07
-2.197079829e-07
7.552084993e-07
2.943730519e-07
-2.881856666e-07
7.606141183e-07
1.720647598e-07
-2.943729615e-07
7.312711494e-07
7.919461091e-08
-2.946660184e-07
7.131708914e-07
6.800144773e-14
-2.950229753e-07
7.081988837e-07
-7.919446849e-08
-2.950229571e-07
7.081988774e-07
-1.72064605e-07
-2.946659561e-07
7.131708695e-07
-2.943728533e-07
-2.943728716e-07
7.31271079e-07
-4.352002109e-07
-2.881855623e-07
7.606140201e-07
-5.999373642e-07
-2.197079017e-07
7.552084352e-07
-1.701065023e-07
-7.950498606e-07
6.13679329e-07
5.822106563e-07
-2.705036912e-07
-7.685292676e-07
6.184521363e-07
4.341643322e-07
-3.595431471e-07
7.567391558e-07
2.881857191e-07
-4.341642964e-07
7.740561857e-07
1.632867411e-07
-4.35200344e-07
7.606140588e-07
7.192524108e-08
-4.428489942e-07
7.482222189e-07
5.720977944e-14
-4.504260198e-07
7.433795613e-07
-7.192513465e-08
-4.504259932e-07
7.433795477e-07
-1.632866362e-07
-4.428489207e-07
7.48222176e-07
-2.88185596e-07
-4.35200245e-07
7.606139759e-07
-4.341641823e-07
-4.34164179e-07
7.740560695e-07
-5.822105048e-07
-3.595430366e-07
7.567390705e-07
-2.705036052e-07
-7.685291315e-07
6.184520921e-07
5.160989419e-07
-4.029709671e-07
-7.022811637e-07
6.134146039e-07
3.595431104e-07
-5.160989598e-07
7.338137554e-07
2.197079455e-07
-5.822106142e-07
7.567391226e-07
1.270341582e-07
-5.999374902e-07
7.552084225e-07
5.91767384e-08
-6.14479419e-07
7.479888583e-07
-9.920279902e-15
-6.233029256e-07
7.439114084e-07
-5.917676487e-08
-6.233029106e-07
7.43911432e-07
-1.270341849e-07
-6.144793816e-07